Title
42779
    1SAPS     N    1   5.975   6.415   7.085  0.3007 -0.1225  0.4372
    1SAPS   HN1    2   6.033   6.397   7.001  0.3375 -1.7017  0.7683
    1SAPS   HN2    3   5.942   6.512   7.071 -0.3070 -0.1941  1.2961
    1SAPS   HN3    4   6.045   6.402   7.161 -1.5550 -0.7493  2.1407
    1SAPS   C12    5   5.869   6.308   7.125  0.2351 -0.1903 -0.1988
    1SAPS  H12A    6   5.914   6.210   7.118  1.3096  0.3810 -2.0017
    1SAPS   C13    7   5.822   6.331   7.270 -0.0347  0.2155 -0.0424
    1SAPS  O13A    8   5.857   6.442   7.323  0.1351 -0.2267  0.4919
    1SAPS  O13B    9   5.716   6.277   7.317  0.5713  0.1881  0.2540
    1SAPS   C11   10   5.743   6.321   7.027 -0.3611 -0.3865 -0.7851
    1SAPS  H11A   11   5.695   6.421   7.036  1.0310  0.1192  2.1304
    1SAPS  H11B   12   5.674   6.247   7.073 -1.1338  0.4845 -0.4982
    1SAPS     P   13   5.725   6.343   6.765  0.1020  0.1199  0.2662
    1SAPS   O13   14   5.831   6.315   6.665  0.3673 -0.2741 -0.0153
    1SAPS   O14   15   5.590   6.285   6.737 -0.5517 -0.1321  0.0455
    1SAPS   O12   16   5.781   6.275   6.896  1.0542 -0.2875 -0.0833
    1SAPS   O11   17   5.708   6.501   6.792  0.0484 -0.3882  0.0010
    1SAPS    C1   18   5.803   6.600   6.740  0.1117  0.0789  0.2761
    1SAPS    HA   19   5.893   6.597   6.804  0.0875 -0.7157  0.2894
    1SAPS    HB   20   5.830   6.575   6.635  2.4463 -1.2129  1.1023
    1SAPS    C2   21   5.760   6.748   6.730 -0.1342 -0.0756  0.3819
    1SAPS    HS   22   5.726   6.776   6.833 -0.3129 -1.2539  0.6644
    1SAPS   O21   23   5.640   6.753   6.646 -0.5590 -0.0997  0.6529
    1SAPS   C21   24   5.560   6.864   6.674  0.4388  0.2582  0.0454
    1SAPS   O22   25   5.589   6.946   6.760 -0.0892  0.1170 -0.2531
    1SAPS   C22   26   5.442   6.865   6.574 -0.5208 -0.3075 -0.2848
    1SAPS   H2R   27   5.449   6.772   6.514  0.8678  0.4249 -1.3030
    1SAPS   H2S   28   5.359   6.858   6.647 -0.5697  3.4966  0.2321
    1SAPS    C3   29   5.880   6.838   6.678  0.2931  0.2172  0.4466
    1SAPS    HX   30   5.966   6.822   6.747 -1.6275  1.2173  3.2702
    1SAPS    HY   31   5.846   6.939   6.709 -0.2687 -0.3926  1.9290
    1SAPS   O31   32   5.905   6.810   6.541  0.4195  0.0361  0.0878
    1SAPS   C31   33   5.886   6.911   6.454 -0.4992  0.1932  0.5278
    1SAPS   O32   34   5.880   7.026   6.487 -0.0789  0.4228 -0.0842
    1SAPS   C32   35   5.881   6.856   6.311  0.2257 -0.8420 -0.5946
    1SAPS   H2X   36   5.811   6.771   6.325 -0.1103 -0.5042 -0.1529
    1SAPS   H2Y   37   5.985   6.827   6.286 -0.1272 -0.9843 -1.9451
    1SAPS   C23   38   5.437   6.991   6.492  0.4003 -0.1905  0.8937
    1SAPS   H3R   39   5.521   6.990   6.420 -0.3753 -3.8787 -0.1664
    1SAPS   H3S   40   5.442   7.073   6.566  3.5264 -0.1966  0.8252
    1SAPS   C24   41   5.298   7.015   6.416 -0.2442 -0.2143 -0.4804
    1SAPS   H4R   42   5.217   7.026   6.492 -0.3996  1.2969 -0.8283
    1SAPS   H4S   43   5.276   6.921   6.361  1.7738 -1.4362  0.6745
    1SAPS   C25   44   5.303   7.140   6.327 -0.5545  1.1096  0.1109
    1SAPS   H5R   45   5.376   7.214   6.365  1.0213  0.8891 -2.2429
    1SAPS   C26   46   5.251   7.161   6.200  0.0309 -1.2729 -0.1136
    1SAPS   H6R   47   5.267   7.263   6.163 -0.9792  0.1133  2.9486
    1SAPS   C27   48   5.168   7.065   6.114  0.0377  0.4267 -0.5206
    1SAPS   H7R   49   5.079   7.128   6.090  0.8942  1.0699 -2.1641
    1SAPS   H7S   50   5.138   6.978   6.176  3.0123  0.0512  0.5411
    1SAPS   C28   51   5.244   7.029   5.988  0.2971  0.4580 -0.0144
    1SAPS   H8R   52   5.340   6.983   6.014 -0.3982  0.8040  3.7352
    1SAPS   C29   53   5.210   7.037   5.861 -0.0070 -0.1730  0.8501
    1SAPS   H9R   54   5.278   6.999   5.784 -2.2431 -1.0867 -0.7784
    1SAPS  C210   55   5.077   7.100   5.813 -0.2304 -0.4441 -0.3271
    1SAPS  H10R   56   5.000   7.062   5.884 -1.2152 -0.8211 -1.5719
    1SAPS  H10S   57   5.043   7.047   5.721 -1.2912 -0.1962 -0.0941
    1SAPS  C211   58   5.066   7.249   5.803 -0.9573 -0.8685  0.1713
    1SAPS  H11R   59   5.091   7.287   5.903  1.1531 -1.9095  0.0979
    1SAPS  C212   60   5.047   7.323   5.696 -0.2244  0.0300 -0.1778
    1SAPS  H12R   61   5.049   7.432   5.707 -0.1855  0.5154 -3.7770
    1SAPS  C213   62   5.015   7.274   5.557 -1.0796 -0.0458 -0.0559
    1SAPS  H13R   63   5.051   7.169   5.546 -0.4868  0.0513  0.8647
    1SAPS  H13S   64   5.092   7.328   5.499 -1.0477 -0.5200 -0.4689
    1SAPS  C214   65   4.882   7.305   5.495  0.5870 -0.5019  0.3374
    1SAPS  H14R   66   4.835   7.394   5.540  0.8020  1.1176 -2.4059
    1SAPS  C215   67   4.828   7.244   5.391  0.0666  0.1651 -0.3556
    1SAPS  H15R   68   4.729   7.264   5.346  0.1385 -0.3805 -0.7751
    1SAPS  C216   69   4.885   7.133   5.305 -0.1049 -0.1656  0.2794
    1SAPS  H16R   70   4.829   7.037   5.309  0.3943 -0.4786 -0.2444
    1SAPS  H16S   71   4.983   7.117   5.356 -0.1877  0.3572  0.6032
    1SAPS  C217   72   4.908   7.179   5.162 -0.3215 -0.3646 -0.0005
    1SAPS  H17R   73   4.949   7.092   5.106  0.7182  1.2216 -1.8771
    1SAPS  H17S   74   4.991   7.253   5.153  1.9533 -2.4889  1.9267
    1SAPS  C218   75   4.781   7.217   5.092 -0.0002 -0.9618 -0.0240
    1SAPS  H18R   76   4.777   7.327   5.103  0.1296 -0.7286 -2.0229
    1SAPS  H18S   77   4.691   7.167   5.134 -0.2673 -0.7099 -0.2981
    1SAPS  C219   78   4.788   7.183   4.946 -0.2275  0.1843 -0.1250
    1SAPS  H19R   79   4.783   7.073   4.931 -0.1099  0.3262 -1.2875
    1SAPS  H19S   80   4.890   7.208   4.910  0.1992 -0.7910  0.3524
    1SAPS  C220   81   4.673   7.244   4.863 -0.4450 -0.4719  0.4833
    1SAPS  H20R   82   4.670   7.191   4.765 -1.3954 -0.4172  0.4717
    1SAPS  H20S   83   4.679   7.353   4.848  1.3409 -0.5989  0.0998
    1SAPS  H20T   84   4.579   7.233   4.921 -0.5713  1.6956  0.7644
    1SAPS   C33   85   5.824   6.960   6.210  0.9858  1.1359  0.0592
    1SAPS   H3X   86   5.899   7.042   6.197  0.7233  1.0311 -2.7239
    1SAPS   H3Y   87   5.725   6.996   6.244 -0.4814  1.0394 -3.6285
    1SAPS   C34   88   5.779   6.898   6.076 -1.2301  0.4615  0.1081
    1SAPS   H4X   89   5.705   6.817   6.093 -0.3644 -0.2418  0.6023
    1SAPS   H4Y   90   5.873   6.854   6.037 -0.5879  1.1832  0.8015
    1SAPS   C35   91   5.717   6.994   5.981 -0.6645  0.5903  0.5348
    1SAPS   H5X   92   5.790   7.067   5.939 -2.3141  2.0647  0.0707
    1SAPS   H5Y   93   5.642   7.055   6.036 -1.5019 -0.0825  0.1702
    1SAPS   C36   94   5.653   6.914   5.868 -0.4431  0.8412 -0.3286
    1SAPS   H6X   95   5.560   6.965   5.835 -0.1581 -0.6221 -3.7602
    1SAPS   H6Y   96   5.623   6.814   5.904  0.2873  1.2004  1.4073
    1SAPS   C37   97   5.743   6.908   5.747  0.4925 -0.5120 -0.5472
    1SAPS   H7X   98   5.840   6.865   5.778  0.3727 -1.4810 -1.4335
    1SAPS   H7Y   99   5.767   7.012   5.715 -2.7331  0.9778  1.4082
    1SAPS   C38  100   5.681   6.818   5.637 -0.1283  0.3620 -0.1942
    1SAPS   H8X  101   5.573   6.842   5.644  0.4414  3.8571 -1.2412
    1SAPS   H8Y  102   5.710   6.714   5.660 -0.3563  0.4218  0.3848
    1SAPS   C39  103   5.737   6.859   5.504  0.4366 -0.4697  0.7025
    1SAPS   H9X  104   5.681   6.950   5.471  1.2169 -0.4511 -0.6544
    1SAPS   H9Y  105   5.692   6.779   5.442  0.0000  0.2135  0.1133
    1SAPS  C310  106   5.886   6.875   5.485 -0.6102 -0.3467  0.3622
    1SAPS  H10X  107   5.932   6.779   5.518 -0.8653 -0.3569  0.6903
    1SAPS  H10Y  108   5.921   6.958   5.550 -0.9995  0.0893  0.0238
    1SAPS  C311  109   5.928   6.902   5.336 -0.5300 -0.1898 -0.4018
    1SAPS  H11X  110   6.024   6.957   5.330  0.9639 -2.7281 -1.3588
    1SAPS  H11Y  111   5.858   6.976   5.291  0.6798  2.1060  1.2472
    1SAPS  C312  112   5.936   6.775   5.253 -0.1402  0.1643  0.4202
    1SAPS  H12X  113   5.846   6.710   5.265 -0.9211  1.6345  3.8111
    1SAPS  H12Y  114   6.028   6.715   5.265  0.0352  0.2928 -0.2816
    1SAPS  C313  115   5.941   6.820   5.099 -0.1553  0.1749 -0.3638
    1SAPS  H13X  116   6.020   6.897   5.085  2.6947 -2.5765 -0.5655
    1SAPS  H13Y  117   5.846   6.873   5.076 -0.4475 -0.0396  0.3284
    1SAPS  C314  118   5.972   6.701   5.003  0.7664 -0.7500  0.2298
    1SAPS  H14X  119   6.041   6.628   5.049  2.1205 -0.9917 -2.0440
    1SAPS  H14Y  120   6.017   6.746   4.912 -2.9336  0.4527 -1.1828
    1SAPS  C315  121   5.840   6.635   4.952 -0.0796 -0.1666  0.0087
    1SAPS  H15X  122   5.774   6.691   4.882  1.8909  1.5426 -0.5717
    1SAPS  H15Y  123   5.783   6.615   5.045  2.0926  0.0687  1.4484
    1SAPS  C316  124   5.869   6.506   4.864 -0.2179 -0.8715 -0.4056
    1SAPS  H16X  125   5.772   6.455   4.844 -1.9364  1.8957  0.3486
    1SAPS  H16Y  126   5.932   6.434   4.920 -1.5725 -1.3901  0.5062
    1SAPS  C317  127   5.917   6.548   4.725  0.4325  0.0403  0.2420
    1SAPS  H17X  128   6.004   6.616   4.721 -0.2429  0.8529 -1.6523
    1SAPS  H17Y  129   5.836   6.604   4.673  1.0336  0.7599  0.0662
    1SAPS  C318  130   5.940   6.422   4.641  0.7204  0.4922 -0.2769
    1SAPS  H18X  131   6.019   6.362   4.692  3.0103  3.1642 -0.4653
    1SAPS  H18Y  132   5.968   6.443   4.536 -2.3700 -0.0797 -1.3096
    1SAPS  H18Z  133   5.846   6.362   4.644  0.9026  0.1678 -0.9245
    2SAPS     N  134   6.997   2.795   6.544  0.3685  0.3691  1.1054
    2SAPS   HN1  135   6.969   2.727   6.617 -2.7594 -1.4289 -1.5006
    2SAPS   HN2  136   6.920   2.804   6.475  1.3857 -0.2281 -0.1725
    2SAPS   HN3  137   7.090   2.771   6.504 -0.2391 -1.2042  0.5297
    2SAPS   C12  138   7.018   2.922   6.606 -0.2874 -0.4206 -0.1316
    2SAPS  H12A  139   6.928   2.957   6.653  1.3970  2.6841  0.9994
    2SAPS   C13  140   7.127   2.924   6.715 -0.4218  0.2027  0.1222
    2SAPS  O13A  141   7.188   2.819   6.746 -0.2690  0.1067  0.0184
    2SAPS  O13B  142   7.145   3.033   6.786  0.1863 -0.3780  0.1485
    2SAPS   C11  143   7.031   3.038   6.491  0.3116 -0.2049  0.4033
    2SAPS  H11A  144   7.126   3.016   6.438  0.0280  2.2913 -1.2912
    2SAPS  H11B  145   7.032   3.142   6.530 -1.4893 -0.9678  2.7128
    2SAPS     P  146   6.778   3.071   6.429  0.0810 -0.1360  0.1972
    2SAPS   O13  147   6.715   2.945   6.483 -0.0969 -0.4081  0.3490
    2SAPS   O14  148   6.773   3.195   6.511  0.1969 -0.0112 -0.1482
    2SAPS   O12  149   6.926   3.025   6.395  0.7543  0.0661  0.2225
    2SAPS   O11  150   6.703   3.110   6.291  0.4049  1.0215 -0.1312
    2SAPS    C1  151   6.785   3.132   6.173 -0.0504 -0.4792 -0.4699
    2SAPS    HA  152   6.781   3.243   6.168 -0.8405 -0.3639  1.4917
    2SAPS    HB  153   6.891   3.099   6.182  0.1525  0.3040  0.1375
    2SAPS    C2  154   6.721   3.059   6.046 -0.3762 -0.0226 -1.0474
    2SAPS    HS  155   6.759   3.095   5.948 -1.2923  5.1942  0.2204
    2SAPS   O21  156   6.584   3.088   6.051  0.3491 -0.0513  0.1575
    2SAPS   C21  157   6.542   3.210   6.015  0.1976 -0.6884 -0.6085
    2SAPS   O22  158   6.613   3.292   5.958  0.1307 -0.0891  0.9293
    2SAPS   C22  159   6.395   3.238   6.045  0.9592 -0.3428  0.1679
    2SAPS   H2R  160   6.353   3.146   6.091  2.5481 -0.6396  1.1109
    2SAPS   H2S  161   6.380   3.321   6.118 -0.4724 -0.3695 -0.0715
    2SAPS    C3  162   6.753   2.910   6.053 -0.2626  0.1327 -0.2549
    2SAPS    HX  163   6.717   2.881   6.154 -0.7613  1.0899 -0.1547
    2SAPS    HY  164   6.863   2.905   6.038 -0.1985 -1.7312  0.4705
    2SAPS   O31  165   6.698   2.833   5.947  1.0276 -0.4252  0.0542
    2SAPS   C31  166   6.726   2.706   5.947 -0.4922  0.1109  0.5673
    2SAPS   O32  167   6.788   2.645   6.030 -0.5170  0.2718 -0.3255
    2SAPS   C32  168   6.667   2.648   5.818  0.1134 -0.1951  0.2132
    2SAPS   H2X  169   6.611   2.736   5.780  2.6114  2.4427  2.0905
    2SAPS   H2Y  170   6.592   2.569   5.840  2.9282 -2.4535  2.6526
    2SAPS   C23  171   6.308   3.270   5.920 -0.7513  0.2582 -0.1059
    2SAPS   H3R  172   6.364   3.339   5.853  2.7716 -2.0986  0.1813
    2SAPS   H3S  173   6.218   3.318   5.963 -2.7205 -2.2837 -1.1407
    2SAPS   C24  174   6.250   3.152   5.846  0.4239 -0.0735  0.1351
    2SAPS   H4R  175   6.193   3.197   5.762 -1.3658 -0.3092  1.1748
    2SAPS   H4S  176   6.182   3.093   5.911  0.7913 -0.4738  0.1598
    2SAPS   C25  177   6.362   3.059   5.799 -0.5288 -0.1388  0.4838
    2SAPS   H5R  178   6.400   2.987   5.873 -0.1487  1.9171  2.4031
    2SAPS   C26  179   6.413   3.060   5.676 -0.5708 -0.6786 -0.1136
    2SAPS   H6R  180   6.500   2.995   5.660  0.7538  0.9786  0.1081
    2SAPS   C27  181   6.383   3.161   5.567  0.2648 -0.7501  0.3611
    2SAPS   H7R  182   6.473   3.169   5.503  0.3209 -0.0376  0.5118
    2SAPS   H7S  183   6.374   3.265   5.605  1.1729 -0.1527 -0.9695
    2SAPS   C28  184   6.257   3.111   5.493 -0.5347  0.5560 -0.9001
    2SAPS   H8R  185   6.171   3.083   5.555 -2.1454 -2.0357 -3.9972
    2SAPS   C29  186   6.245   3.110   5.353  0.0396 -0.0327 -0.2262
    2SAPS   H9R  187   6.163   3.059   5.302  1.7545 -1.3016 -1.8545
    2SAPS  C210  188   6.367   3.149   5.264  0.1003  0.2378 -0.1208
    2SAPS  H10R  189   6.435   3.061   5.271 -2.0857 -1.4131  2.2110
    2SAPS  H10S  190   6.425   3.233   5.307  2.1555  0.0609 -2.3413
    2SAPS  C211  191   6.330   3.186   5.122  0.5131  0.1225 -0.0803
    2SAPS  H11R  192   6.234   3.145   5.087  0.4331  1.1170 -1.1182
    2SAPS  C212  193   6.398   3.267   5.035  0.4777 -0.0326  0.2523
    2SAPS  H12R  194   6.366   3.279   4.930  1.7186  0.2747 -0.1006
    2SAPS  C213  195   6.532   3.332   5.066 -0.0341  0.4078 -0.2345
    2SAPS  H13R  196   6.595   3.247   5.100 -0.5661  0.4964  1.0371
    2SAPS  H13S  197   6.529   3.379   5.166 -2.7536 -1.8224  0.8701
    2SAPS  C214  198   6.598   3.422   4.962 -0.9203 -0.0315 -0.4615
    2SAPS  H14R  199   6.626   3.515   5.014  1.2059 -1.8042  1.8058
    2SAPS  C215  200   6.640   3.407   4.832 -0.8151  0.1865 -0.5942
    2SAPS  H15R  201   6.701   3.485   4.784  0.6610 -0.7373 -0.2797
    2SAPS  C216  202   6.612   3.285   4.749  0.4230 -0.4086  0.5702
    2SAPS  H16R  203   6.549   3.309   4.661 -1.4808  1.2173  2.2554
    2SAPS  H16S  204   6.544   3.213   4.801 -1.4432  0.5329 -0.4746
    2SAPS  C217  205   6.732   3.203   4.695  0.2764  0.0499 -0.5768
    2SAPS  H17R  206   6.807   3.213   4.776  0.0635  0.4941 -0.4350
    2SAPS  H17S  207   6.780   3.245   4.604  0.0897 -1.1082 -1.2353
    2SAPS  C218  208   6.704   3.052   4.667 -0.0851 -0.2724 -0.8669
    2SAPS  H18R  209   6.619   3.047   4.597 -0.7419 -1.9598 -0.0195
    2SAPS  H18S  210   6.657   3.002   4.755 -0.4176 -0.3028 -1.0635
    2SAPS  C219  211   6.834   2.979   4.626 -0.3192  0.3463 -0.1159
    2SAPS  H19R  212   6.921   2.998   4.691 -0.1069 -0.9074  0.0014
    2SAPS  H19S  213   6.873   2.997   4.523  1.3027 -4.1565 -0.5324
    2SAPS  C220  214   6.820   2.827   4.628  0.4105 -0.1550  0.2862
    2SAPS  H20R  215   6.916   2.777   4.604 -0.3356 -2.0810  1.1223
    2SAPS  H20S  216   6.729   2.796   4.574 -0.7110 -1.8438  2.9166
    2SAPS  H20T  217   6.799   2.800   4.734 -0.1970  1.9254  0.7409
    2SAPS   C33  218   6.775   2.607   5.719 -0.3721 -0.2163 -0.3379
    2SAPS   H3X  219   6.839   2.523   5.754  0.1528 -0.7726 -2.4796
    2SAPS   H3Y  220   6.843   2.690   5.693  2.2173 -2.0796  0.1301
    2SAPS   C34  221   6.702   2.581   5.589  0.6386  0.0061 -0.7762
    2SAPS   H4X  222   6.615   2.512   5.603  0.3069  0.5698  0.0390
    2SAPS   H4Y  223   6.777   2.531   5.525  1.9825 -1.0663  1.5091
    2SAPS   C35  224   6.638   2.706   5.517 -0.1724  0.1965 -0.5964
    2SAPS   H5X  225   6.692   2.792   5.564  0.0079  0.0910 -0.6085
    2SAPS   H5Y  226   6.536   2.726   5.556 -0.4726  3.2072 -2.5288
    2SAPS   C36  227   6.628   2.698   5.369  0.0172  0.0889  0.1190
    2SAPS   H6X  228   6.568   2.608   5.341  1.8243 -0.7863 -1.1025
    2SAPS   H6Y  229   6.727   2.673   5.326 -1.1248 -0.4781 -2.3659
    2SAPS   C37  230   6.570   2.821   5.308 -0.4403 -0.5245 -0.4165
    2SAPS   H7X  231   6.623   2.909   5.351 -2.6225  1.0486 -0.7684
    2SAPS   H7Y  232   6.466   2.830   5.344  0.2212  0.9600  1.3052
    2SAPS   C38  233   6.579   2.831   5.155 -0.2482  0.1086  0.0948
    2SAPS   H8X  234   6.678   2.873   5.126 -0.3805 -0.2526 -0.9399
    2SAPS   H8Y  235   6.501   2.902   5.119  0.2768  1.6748  1.9131
    2SAPS   C39  236   6.545   2.697   5.084 -0.1479  0.2571 -0.9080
    2SAPS   H9X  237   6.438   2.669   5.089  0.0247 -0.6162 -1.7855
    2SAPS   H9Y  238   6.608   2.615   5.125  1.2568  1.5596 -0.3475
    2SAPS  C310  239   6.561   2.703   4.934 -0.3985  0.3785  0.4963
    2SAPS  H10X  240   6.666   2.721   4.903 -0.2996  0.8943  1.1125
    2SAPS  H10Y  241   6.505   2.786   4.887  1.3604 -0.1392 -2.7786
    2SAPS  C311  242   6.529   2.574   4.861 -0.3324  0.2002 -0.4471
    2SAPS  H11X  243   6.421   2.549   4.871  0.3777 -2.8129  1.1175
    2SAPS  H11Y  244   6.592   2.491   4.901  1.3593  0.6873 -1.9512
    2SAPS  C312  245   6.555   2.570   4.709  0.7408  0.2929 -0.0320
    2SAPS  H12X  246   6.508   2.477   4.670 -0.1997 -1.2499  4.2491
    2SAPS  H12Y  247   6.664   2.566   4.689  0.7138  0.3287 -0.1856
    2SAPS  C313  248   6.495   2.692   4.643 -0.9723  0.4307  0.8618
    2SAPS  H13X  249   6.532   2.788   4.686  1.7477  0.6712 -1.6783
    2SAPS  H13Y  250   6.386   2.692   4.662 -1.3945  0.5399 -1.2645
    2SAPS  C314  251   6.485   2.679   4.489 -0.0305 -0.0413  0.2905
    2SAPS  H14X  252   6.581   2.678   4.433 -1.6645  1.0085 -2.7886
    2SAPS  H14Y  253   6.438   2.771   4.449  0.5721 -0.2320 -0.9345
    2SAPS  C315  254   6.401   2.555   4.444 -0.3049  0.3056 -0.2977
    2SAPS  H15X  255   6.315   2.544   4.514 -0.1871  1.3529  0.0347
    2SAPS  H15Y  256   6.468   2.468   4.436 -1.1017 -0.2968 -0.5143
    2SAPS  C316  257   6.351   2.579   4.302 -0.6716 -0.6451  0.3364
    2SAPS  H16X  258   6.438   2.603   4.238 -1.2515 -1.1020 -0.6706
    2SAPS  H16Y  259   6.271   2.656   4.294 -0.9754 -1.0027 -0.1499
    2SAPS  C317  260   6.289   2.452   4.241 -0.0049  0.1015  0.1054
    2SAPS  H17X  261   6.202   2.420   4.302  0.2410 -0.0324  0.3848
    2SAPS  H17Y  262   6.367   2.373   4.234 -0.9740 -0.7284 -3.4190
    2SAPS  C318  263   6.240   2.475   4.099  0.1873  0.1014  1.4622
    2SAPS  H18X  264   6.314   2.527   4.034  0.7777 -0.2879  1.8210
    2SAPS  H18Y  265   6.150   2.541   4.105 -0.4294 -0.6923  1.1212
    2SAPS  H18Z  266   6.211   2.377   4.056  0.6630  1.5418 -2.5681
    3SAPS     N  267   5.916   1.536   6.817 -0.1419 -0.4869  0.0766
    3SAPS   HN1  268   6.015   1.515   6.844 -0.0628  1.2658  1.3306
    3SAPS   HN2  269   5.904   1.541   6.714  0.3651 -0.1161  0.0293
    3SAPS   HN3  270   5.897   1.630   6.858  1.1376  0.1979 -0.8257
    3SAPS   C12  271   5.816   1.448   6.881 -0.1617 -0.0156 -0.1831
    3SAPS  H12A  272   5.837   1.460   6.986  2.2203  1.7698 -0.7755
    3SAPS   C13  273   5.668   1.491   6.868 -0.7128 -0.2813 -0.5779
    3SAPS  O13A  274   5.631   1.595   6.811  0.8406 -0.2315 -0.2111
    3SAPS  O13B  275   5.584   1.420   6.934  0.2185  0.5522  0.1463
    3SAPS   C11  276   5.835   1.300   6.841  0.1185  0.4662  0.0104
    3SAPS  H11A  277   5.784   1.251   6.928 -0.1764  2.5692  1.0832
    3SAPS  H11B  278   5.942   1.271   6.848 -0.2898 -1.1664 -0.1136
    3SAPS     P  279   5.732   1.143   6.660  0.2239  0.1816 -0.8144
    3SAPS   O13  280   5.734   1.045   6.767  0.9766  0.1183 -0.4995
    3SAPS   O14  281   5.598   1.183   6.609  0.0066 -0.0250  0.3306
    3SAPS   O12  282   5.790   1.280   6.707 -0.3334  0.8513  0.0487
    3SAPS   O11  283   5.832   1.098   6.539  0.0242 -0.1502 -1.0816
    3SAPS    C1  284   5.891   1.197   6.455 -0.4723 -0.1319  0.2476
    3SAPS    HA  285   5.917   1.290   6.510  1.5095  0.3753 -1.4103
    3SAPS    HB  286   5.991   1.156   6.426 -1.0252 -0.5615 -1.1402
    3SAPS    C2  287   5.822   1.230   6.317  0.9802  1.3796 -0.2108
    3SAPS    HS  288   5.715   1.243   6.345  0.6788 -1.4049  0.2267
    3SAPS   O21  289   5.853   1.127   6.222  0.1389 -0.2216 -0.0741
    3SAPS   C21  290   5.774   1.021   6.233 -0.2154 -0.0573  0.3032
    3SAPS   O22  291   5.681   1.005   6.314 -0.0472  0.2903 -0.3869
    3SAPS   C22  292   5.837   0.911   6.136  0.3549  0.3348 -0.0741
    3SAPS   H2R  293   5.943   0.902   6.169  0.8616  2.2487 -1.0675
    3SAPS   H2S  294   5.791   0.811   6.150 -0.3498  0.4406 -1.4995
    3SAPS    C3  295   5.859   1.370   6.280  0.5122 -0.0702  1.0307
    3SAPS    HX  296   5.970   1.379   6.283  0.4272  0.8149  1.8537
    3SAPS    HY  297   5.819   1.438   6.358 -3.1350 -1.3923  0.4722
    3SAPS   O31  298   5.802   1.411   6.153  0.2810  0.2138  0.2110
    3SAPS   C31  299   5.670   1.442   6.151 -0.2265  0.4572 -0.2595
    3SAPS   O32  300   5.599   1.450   6.248  0.0576 -1.0006  0.0509
    3SAPS   C32  301   5.628   1.493   6.012 -0.4665  1.1132  1.0110
    3SAPS   H2X  302   5.694   1.581   5.997 -0.8287  1.6316  2.3003
    3SAPS   H2Y  303   5.524   1.532   6.018  0.4001  3.6616  0.6825
    3SAPS   C23  304   5.808   0.941   5.990 -0.3085  1.0272 -0.2647
    3SAPS   H3R  305   5.876   0.884   5.922  0.7056  0.9355  0.8024
    3SAPS   H3S  306   5.840   1.046   5.968 -0.2981  0.8436 -1.1827
    3SAPS   C24  307   5.666   0.912   5.939 -0.4157 -0.0061 -0.2003
    3SAPS   H4R  308   5.588   0.947   6.010 -1.2855 -0.5855 -0.8507
    3SAPS   H4S  309   5.639   0.804   5.945  0.2555 -0.0800  2.2554
    3SAPS   C25  310   5.639   0.979   5.806  0.6189 -0.5689  0.6671
    3SAPS   H5R  311   5.573   1.068   5.809  0.8154 -0.3636 -0.7096
    3SAPS   C26  312   5.678   0.948   5.680 -1.2969  0.4670 -0.2499
    3SAPS   H6R  313   5.634   1.012   5.601 -1.7677 -0.1611 -0.5010
    3SAPS   C27  314   5.758   0.828   5.645 -0.3488 -0.0365  0.5869
    3SAPS   H7R  315   5.777   0.773   5.740  1.9770 -1.0475 -0.3909
    3SAPS   H7S  316   5.857   0.871   5.620  0.2242 -1.1016  0.9332
    3SAPS   C28  317   5.720   0.748   5.523 -0.4238  0.0732 -0.2061
    3SAPS   H8R  318   5.716   0.639   5.533 -1.0340  0.0989 -0.1306
    3SAPS   C29  319   5.683   0.789   5.407  0.1100 -0.2221 -0.1384
    3SAPS   H9R  320   5.649   0.720   5.329  2.0209 -2.0385  0.5534
    3SAPS  C210  321   5.671   0.934   5.356 -0.6225  0.2091 -0.0175
    3SAPS  H10R  322   5.729   0.948   5.262 -0.7134  0.9293  0.0228
    3SAPS  H10S  323   5.712   1.008   5.429  2.4725 -0.9767 -0.3656
    3SAPS  C211  324   5.531   0.974   5.323 -0.0563 -0.2836 -0.9883
    3SAPS  H11R  325   5.480   1.033   5.400 -0.7720  0.7515 -2.2178
    3SAPS  C212  326   5.470   0.937   5.209 -0.5010 -0.0758  0.5713
    3SAPS  H12R  327   5.364   0.963   5.195 -0.5462 -1.1639 -1.5290
    3SAPS  C213  328   5.533   0.881   5.083 -0.3822  0.1930  0.0351
    3SAPS  H13R  329   5.459   0.807   5.045 -0.1270  0.1121 -0.3094
    3SAPS  H13S  330   5.607   0.804   5.113 -1.1215  0.2393  2.1846
    3SAPS  C214  331   5.581   0.980   4.980 -0.1549  0.0126 -0.4003
    3SAPS  H14R  332   5.538   1.082   4.983 -0.9097 -0.3102  0.2084
    3SAPS  C215  333   5.666   0.946   4.876  0.0532  0.6408  0.5862
    3SAPS  H15R  334   5.673   1.019   4.794 -1.8006 -1.0775 -1.2131
    3SAPS  C216  335   5.722   0.807   4.839 -0.1985  0.2144 -0.0302
    3SAPS  H16R  336   5.678   0.714   4.881  2.7245 -2.7157 -2.8563
    3SAPS  H16S  337   5.825   0.806   4.882  0.1805 -1.1391 -0.9104
    3SAPS  C217  338   5.746   0.796   4.689  0.1101  0.4076 -0.3055
    3SAPS  H17R  339   5.644   0.797   4.644 -0.2089  0.0785  0.3843
    3SAPS  H17S  340   5.776   0.689   4.676 -2.6066 -0.3618 -0.9900
    3SAPS  C218  341   5.852   0.896   4.630  0.5365  0.2132 -0.1520
    3SAPS  H18R  342   5.820   1.003   4.633 -0.5935 -0.0526 -1.7964
    3SAPS  H18S  343   5.864   0.865   4.525 -0.4630 -0.8880  0.0302
    3SAPS  C219  344   5.995   0.874   4.687 -0.2679 -0.6480  0.0335
    3SAPS  H19R  345   6.004   0.916   4.790 -0.7908 -0.5993  0.0620
    3SAPS  H19S  346   6.015   0.766   4.675 -0.9879 -0.5626 -2.4473
    3SAPS  C220  347   6.101   0.939   4.593 -0.1575  0.1583 -0.1754
    3SAPS  H20R  348   6.086   1.049   4.597  0.2053  0.2384 -0.8754
    3SAPS  H20S  349   6.102   0.902   4.488  0.5960  1.9927 -0.8660
    3SAPS  H20T  350   6.205   0.920   4.628  0.3314  0.4896 -1.3797
    3SAPS   C33  351   5.644   1.394   5.898 -0.6384 -0.7167  0.1041
    3SAPS   H3X  352   5.591   1.300   5.925 -1.0039 -0.5568 -0.0516
    3SAPS   H3Y  353   5.750   1.366   5.878  0.0374  1.4863  0.3114
    3SAPS   C34  354   5.579   1.450   5.777 -0.1426 -0.2738  0.5216
    3SAPS   H4X  355   5.626   1.550   5.761 -0.7275 -0.1228 -0.2683
    3SAPS   H4Y  356   5.474   1.480   5.795 -1.0845 -0.9092 -3.1978
    3SAPS   C35  357   5.605   1.363   5.656  0.0576 -0.4716  0.0605
    3SAPS   H5X  358   5.711   1.334   5.643 -0.4346 -2.2187 -0.2229
    3SAPS   H5Y  359   5.566   1.261   5.676  1.4804 -1.5630 -2.3189
    3SAPS   C36  360   5.542   1.415   5.526 -0.2473 -0.2356 -0.3865
    3SAPS   H6X  361   5.573   1.522   5.528 -1.3610  0.0944 -0.3107
    3SAPS   H6Y  362   5.431   1.411   5.529 -0.2533 -0.8690 -1.1202
    3SAPS   C37  363   5.586   1.349   5.398  0.1896 -0.1670  0.2998
    3SAPS   H7X  364   5.582   1.238   5.391 -2.2271 -0.1785  1.0451
    3SAPS   H7Y  365   5.694   1.375   5.392  0.2576 -0.4906  0.1157
    3SAPS   C38  366   5.506   1.416   5.292  0.1856  0.1823  0.2247
    3SAPS   H8X  367   5.512   1.527   5.293  1.0201  0.1668 -0.7648
    3SAPS   H8Y  368   5.397   1.392   5.294 -0.5784  3.2310 -0.2241
    3SAPS   C39  369   5.550   1.372   5.155  0.4158 -0.7901 -0.6974
    3SAPS   H9X  370   5.540   1.262   5.151  3.9586 -1.2731  0.2920
    3SAPS   H9Y  371   5.654   1.401   5.129  0.3036 -0.2021 -0.5002
    3SAPS  C310  372   5.457   1.423   5.039 -0.1592 -0.5015 -0.2220
    3SAPS  H10X  373   5.354   1.406   5.078 -0.0859 -1.5073 -0.4399
    3SAPS  H10Y  374   5.474   1.352   4.955  0.6838 -1.1139  0.4446
    3SAPS  C311  375   5.462   1.569   4.988  0.1740  0.5978 -0.1157
    3SAPS  H11X  376   5.562   1.589   4.943  0.6407  1.3169  1.1669
    3SAPS  H11Y  377   5.467   1.635   5.077  0.3170  3.1174 -1.9095
    3SAPS  C312  378   5.345   1.592   4.895 -0.3762  1.4132  0.3819
    3SAPS  H12X  379   5.322   1.701   4.887 -1.5442  1.0796 -1.2731
    3SAPS  H12Y  380   5.255   1.547   4.942 -1.7039 -0.0318 -3.2262
    3SAPS  C313  381   5.372   1.531   4.754 -0.3430 -0.1482  0.2778
    3SAPS  H13X  382   5.420   1.431   4.765  1.7234  0.6173 -1.1742
    3SAPS  H13Y  383   5.448   1.590   4.700 -0.2738 -2.2367 -2.0746
    3SAPS  C314  384   5.248   1.517   4.668 -0.0261 -0.0288 -0.2612
    3SAPS  H14X  385   5.184   1.608   4.664 -1.6912 -1.1662 -1.0595
    3SAPS  H14Y  386   5.187   1.439   4.719  0.5438 -0.1538  0.2339
    3SAPS  C315  387   5.273   1.477   4.528 -0.0156  0.6072  0.5367
    3SAPS  H15X  388   5.333   1.384   4.535 -1.1020 -0.1966 -0.3950
    3SAPS  H15Y  389   5.333   1.546   4.464 -0.8990 -0.7973 -1.9573
    3SAPS  C316  390   5.148   1.410   4.454 -0.9362 -0.7609 -0.2357
    3SAPS  H16X  391   5.063   1.481   4.451 -0.1123  0.3725  1.4572
    3SAPS  H16Y  392   5.117   1.323   4.517  1.8953 -0.0902  2.3220
    3SAPS  C317  393   5.181   1.363   4.314 -0.3618  0.1275  0.3973
    3SAPS  H17X  394   5.253   1.282   4.340 -0.5013  0.6664  2.7398
    3SAPS  H17Y  395   5.226   1.442   4.251  0.2304 -0.4625  0.0659
    3SAPS  C318  396   5.053   1.311   4.243 -0.0032 -0.6679  0.3947
    3SAPS  H18X  397   5.077   1.263   4.146  1.9948  2.5665 -0.8297
    3SAPS  H18Y  398   4.990   1.397   4.214 -0.3108 -0.9534  0.2017
    3SAPS  H18Z  399   4.997   1.244   4.312 -1.9898  1.3635  0.8729
    4SAPS     N  400   4.088   6.385   7.305  0.0424  0.5227 -0.1872
    4SAPS   HN1  401   4.041   6.462   7.357 -0.9291  1.7374 -2.7028
    4SAPS   HN2  402   4.074   6.298   7.360 -2.3133  0.7898 -0.2752
    4SAPS   HN3  403   4.191   6.401   7.302  0.2858 -0.9200 -2.4433
    4SAPS   C12  404   4.026   6.377   7.163 -0.4225  0.0876 -1.3831
    4SAPS  H12A  405   3.922   6.354   7.184 -0.5529  1.5950 -0.1545
    4SAPS   C13  406   4.021   6.509   7.082  0.2295 -0.1127 -0.3251
    4SAPS  O13A  407   4.051   6.618   7.139  0.1801  0.2892 -0.5829
    4SAPS  O13B  408   4.024   6.500   6.958 -0.0944  0.2213  0.2329
    4SAPS   C11  409   4.090   6.261   7.091 -0.6831 -0.6152  0.3463
    4SAPS  H11A  410   4.198   6.276   7.068 -1.1008 -1.3145 -2.4880
    4SAPS  H11B  411   4.060   6.251   6.984 -2.5739 -3.6020  1.0336
    4SAPS     P  412   4.007   6.015   7.111 -0.2211 -0.0191 -0.2379
    4SAPS   O13  413   4.078   5.900   7.167 -0.0016  0.5387 -0.2066
    4SAPS   O14  414   3.862   6.029   7.149 -0.3451 -0.0882  0.5339
    4SAPS   O12  415   4.072   6.144   7.165 -0.0954  0.2541 -0.5622
    4SAPS   O11  416   4.031   6.018   6.950 -0.3853 -0.0413 -0.4076
    4SAPS    C1  417   4.159   6.000   6.899  0.2450  0.8107  0.0249
    4SAPS    HA  418   4.231   6.058   6.960 -1.5581  1.2398  1.8927
    4SAPS    HB  419   4.178   5.891   6.909 -2.2738  0.2732 -0.2629
    4SAPS    C2  420   4.166   6.038   6.746 -0.5353 -0.1162 -0.2134
    4SAPS    HS  421   4.147   6.147   6.746  0.2311  0.0364 -1.1528
    4SAPS   O21  422   4.068   5.968   6.678  0.2855  0.8825 -0.5961
    4SAPS   C21  423   4.059   5.996   6.547  0.6508  0.4770 -1.0124
    4SAPS   O22  424   4.125   6.066   6.478  0.3901 -0.7217  0.3286
    4SAPS   C22  425   3.933   5.935   6.503 -0.1175  0.6953  0.3371
    4SAPS   H2R  426   3.935   5.826   6.523  0.2937  0.8505  1.1887
    4SAPS   H2S  427   3.849   5.980   6.559  0.0488  0.5647  0.6967
    4SAPS    C3  428   4.316   6.024   6.696  0.3442  0.3772 -0.4276
    4SAPS    HX  429   4.324   6.031   6.585 -1.1749  0.2767 -0.5766
    4SAPS    HY  430   4.365   5.927   6.720  0.3250  0.4083 -0.2672
    4SAPS   O31  431   4.397   6.128   6.750  1.0260 -0.0132 -0.2935
    4SAPS   C31  432   4.526   6.113   6.755  0.1711 -0.0370  0.2106
    4SAPS   O32  433   4.592   6.012   6.748  0.6741  0.1613  0.1932
    4SAPS   C32  434   4.585   6.258   6.762 -0.2204 -0.3968  0.8788
    4SAPS   H2X  435   4.659   6.244   6.843 -0.2727  1.7130  1.3512
    4SAPS   H2Y  436   4.506   6.327   6.799  0.9106  1.6136 -0.2806
    4SAPS   C23  437   3.893   5.978   6.353  0.1950  0.4114 -0.2413
    4SAPS   H3R  438   3.974   5.936   6.290  0.2858  0.3955 -0.1131
    4SAPS   H3S  439   3.907   6.088   6.347  1.5373  0.2603 -0.1862
    4SAPS   C24  440   3.748   5.947   6.311  0.0219 -0.4255 -0.4617
    4SAPS   H4R  441   3.716   5.856   6.366 -1.6349  1.1108  1.2562
    4SAPS   H4S  442   3.746   5.911   6.206  1.9787 -1.5045 -0.1768
    4SAPS   C25  443   3.648   6.054   6.349 -0.4130  0.4159 -0.1491
    4SAPS   H5R  444   3.627   6.059   6.456  1.1648 -1.4439  0.3132
    4SAPS   C26  445   3.583   6.147   6.272  0.3702  0.1767 -0.2032
    4SAPS   H6R  446   3.516   6.221   6.319  1.0698 -0.0925  1.2745
    4SAPS   C27  447   3.602   6.153   6.113 -0.1280 -0.1598 -0.2612
    4SAPS   H7R  448   3.693   6.097   6.084 -0.2642 -0.4639 -0.1034
    4SAPS   H7S  449   3.633   6.256   6.085  1.9318 -0.6488  0.0650
    4SAPS   C28  450   3.476   6.110   6.044 -0.0554 -0.1300 -0.0765
    4SAPS   H8R  451   3.386   6.138   6.102  0.2202  0.4840  0.0678
    4SAPS   C29  452   3.455   6.060   5.919  0.0690  0.5068 -0.2096
    4SAPS   H9R  453   3.356   6.074   5.873  0.2315  1.5601 -0.2577
    4SAPS  C210  454   3.567   6.026   5.820 -0.0827 -0.6987  0.1446
    4SAPS  H10R  455   3.533   5.938   5.760 -0.8305  1.3049 -2.5822
    4SAPS  H10S  456   3.659   5.994   5.873  1.7530  0.2345 -2.2347
    4SAPS  C211  457   3.612   6.144   5.737  0.0332 -0.0780  0.6455
    4SAPS  H11R  458   3.613   6.239   5.793 -0.8540 -0.4310  1.2897
    4SAPS  C212  459   3.663   6.153   5.613 -0.1832  0.7785  0.1239
    4SAPS  H12R  460   3.688   6.251   5.571 -1.2594  0.7271 -0.6823
    4SAPS  C213  461   3.683   6.023   5.544 -0.4171  0.3428 -0.7868
    4SAPS  H13R  462   3.691   5.927   5.599 -1.3425  0.9926  0.5149
    4SAPS  H13S  463   3.782   6.034   5.493  0.3903  3.2660  1.1473
    4SAPS  C214  464   3.574   5.990   5.442  0.5110 -0.1932  0.0442
    4SAPS  H14R  465   3.483   5.938   5.474  0.5509  0.0361  0.5283
    4SAPS  C215  466   3.579   6.041   5.316  0.9820  0.8826 -0.2855
    4SAPS  H15R  467   3.497   6.018   5.246 -1.4751  0.1160  2.6455
    4SAPS  C216  468   3.686   6.128   5.253 -1.1111 -0.1831  0.0443
    4SAPS  H16R  469   3.763   6.161   5.327 -2.4168  0.5492  1.1217
    4SAPS  H16S  470   3.632   6.218   5.217  0.7689  1.0681  0.1671
    4SAPS  C217  471   3.750   6.073   5.122 -0.5041 -0.2802 -0.2989
    4SAPS  H17R  472   3.673   6.038   5.049 -0.0229 -1.3193 -0.3304
    4SAPS  H17S  473   3.818   5.989   5.145  3.7473  2.0868 -2.8566
    4SAPS  C218  474   3.843   6.178   5.051  0.4858 -0.4214  0.4413
    4SAPS  H18R  475   3.942   6.193   5.099  0.6288  0.0935  0.0010
    4SAPS  H18S  476   3.790   6.275   5.048  2.7375  0.8687 -0.3482
    4SAPS  C219  477   3.862   6.140   4.911  0.1161  0.8626  0.9404
    4SAPS  H19R  478   3.763   6.124   4.865  0.5534 -0.2956  0.3758
    4SAPS  H19S  479   3.927   6.050   4.901  1.4061  1.8753 -0.4431
    4SAPS  C220  480   3.928   6.256   4.832  0.5046 -0.0197 -0.3121
    4SAPS  H20R  481   3.918   6.236   4.723 -0.7890 -0.2923 -0.1643
    4SAPS  H20S  482   4.033   6.265   4.865 -0.2460  0.4374  2.1916
    4SAPS  H20T  483   3.876   6.350   4.860  1.1740  0.1298  0.4452
    4SAPS   C33  484   4.651   6.313   6.633  0.0940  0.1140 -0.4674
    4SAPS   H3X  485   4.748   6.260   6.622  1.0123  1.9573 -1.6208
    4SAPS   H3Y  486   4.673   6.421   6.646 -0.6882  0.5229 -2.3451
    4SAPS   C34  487   4.559   6.301   6.512  0.4191  0.5826 -0.2067
    4SAPS   H4X  488   4.462   6.346   6.539  0.7443  0.8895  0.4719
    4SAPS   H4Y  489   4.556   6.193   6.484  0.5585  0.9250 -1.6132
    4SAPS   C35  490   4.622   6.366   6.400 -0.3799  0.3858  0.2046
    4SAPS   H5X  491   4.722   6.319   6.387  0.2416  1.9124 -0.9494
    4SAPS   H5Y  492   4.631   6.471   6.436  1.4142  0.0488  0.8548
    4SAPS   C36  493   4.545   6.379   6.264 -0.5237  0.3248 -0.5574
    4SAPS   H6X  494   4.440   6.404   6.290 -0.0503  0.9587  0.8067
    4SAPS   H6Y  495   4.542   6.277   6.220 -0.4280 -0.4948  1.2347
    4SAPS   C37  496   4.600   6.474   6.159 -0.2981 -0.6459  0.0505
    4SAPS   H7X  497   4.709   6.468   6.142 -0.7497 -0.7589 -3.4404
    4SAPS   H7Y  498   4.576   6.575   6.198  0.3971 -1.6595  3.4647
    4SAPS   C38  499   4.533   6.451   6.025  0.0614  0.0598  0.0382
    4SAPS   H8X  500   4.423   6.466   6.028  0.1844  0.9327  0.4110
    4SAPS   H8Y  501   4.541   6.346   5.989 -0.5290 -0.6653  1.8807
    4SAPS   C39  502   4.578   6.550   5.920  0.2652  0.1993 -0.2069
    4SAPS   H9X  503   4.686   6.569   5.933  0.2066  1.5286 -1.3290
    4SAPS   H9Y  504   4.533   6.650   5.939 -0.8284 -0.4678  0.8637
    4SAPS  C310  505   4.534   6.517   5.771 -0.3329  0.2854 -0.4419
    4SAPS  H10X  506   4.533   6.615   5.719  0.6653  0.1339 -0.7733
    4SAPS  H10Y  507   4.431   6.476   5.772 -0.4807  0.6553 -0.1397
    4SAPS  C311  508   4.636   6.419   5.704  0.5935 -0.5098  0.5849
    4SAPS  H11X  509   4.665   6.327   5.759  3.4328 -0.8019 -1.1779
    4SAPS  H11Y  510   4.726   6.481   5.684 -0.1084  0.3025 -0.1802
    4SAPS  C312  511   4.598   6.384   5.561  0.1866 -0.4387 -0.0257
    4SAPS  H12X  512   4.587   6.484   5.514  1.7478  0.3554  1.2128
    4SAPS  H12Y  513   4.502   6.332   5.538 -0.5818  1.0603 -0.3283
    4SAPS  C313  514   4.715   6.314   5.490  0.4314 -0.9443 -0.6583
    4SAPS  H13X  515   4.742   6.222   5.547 -1.0248  0.5488  2.7215
    4SAPS  H13Y  516   4.797   6.386   5.509  0.5412 -1.3561  0.5371
    4SAPS  C314  517   4.687   6.292   5.341 -0.7227  0.5830 -0.1785
    4SAPS  H14X  518   4.663   6.391   5.296 -1.4081 -0.9146 -3.3467
    4SAPS  H14Y  519   4.599   6.225   5.352 -1.4667  1.4819 -0.4663
    4SAPS  C315  520   4.798   6.218   5.257  0.0309  0.7098 -0.1743
    4SAPS  H15X  521   4.834   6.131   5.316 -2.4642 -0.2798  0.0114
    4SAPS  H15Y  522   4.879   6.293   5.244 -0.8052  1.4729 -1.1233
    4SAPS  C316  523   4.732   6.166   5.135  0.5615 -0.0927  0.1516
    4SAPS  H16X  524   4.658   6.240   5.097  0.4230 -1.3182 -2.1292
    4SAPS  H16Y  525   4.661   6.086   5.164  1.4318 -0.8463  0.2282
    4SAPS  C317  526   4.825   6.143   5.023 -0.9558 -0.0241 -0.1362
    4SAPS  H17X  527   4.772   6.073   4.954  0.2315 -2.6842  1.5036
    4SAPS  H17Y  528   4.917   6.093   5.060 -0.6034  0.6709 -0.0643
    4SAPS  C318  529   4.853   6.269   4.938  0.3347  0.3051  0.3717
    4SAPS  H18X  530   4.941   6.248   4.874 -0.3625 -1.4815 -0.0345
    4SAPS  H18Y  531   4.883   6.348   5.011 -3.2071  2.6865 -0.4943
    4SAPS  H18Z  532   4.765   6.309   4.883  1.0442 -0.2349 -1.2222
    5SAPS     N  533   6.974   1.866   6.402  0.1987  0.4059 -0.0325
    5SAPS   HN1  534   6.959   1.964   6.372  1.4517  0.2221 -1.4103
    5SAPS   HN2  535   7.018   1.822   6.318 -0.4153 -2.3556  1.0034
    5SAPS   HN3  536   6.879   1.824   6.414  1.6730 -3.1418  0.5511
    5SAPS   C12  537   7.058   1.859   6.524  0.4862  0.4996 -0.7806
    5SAPS  H12A  538   7.139   1.929   6.508 -0.7257  1.7009 -1.8482
    5SAPS   C13  539   6.989   1.907   6.653 -0.4571 -0.0775 -0.1880
    5SAPS  O13A  540   6.862   1.933   6.652 -0.0810 -0.0150  0.2492
    5SAPS  O13B  541   7.049   1.903   6.765  0.2677  0.7365  0.1926
    5SAPS   C11  542   7.101   1.714   6.549 -0.3308 -0.1128  0.6013
    5SAPS  H11A  543   7.011   1.648   6.559 -0.6318  0.2363  0.2291
    5SAPS  H11B  544   7.165   1.697   6.638 -0.3130 -0.1201  0.5875
    5SAPS     P  545   7.177   1.517   6.381 -0.2639  0.1787 -0.0758
    5SAPS   O13  546   7.207   1.428   6.493 -0.6737 -0.2752 -0.3959
    5SAPS   O14  547   7.051   1.501   6.302 -0.3710  0.6431  0.0179
    5SAPS   O12  548   7.173   1.672   6.431 -0.0664 -0.1900  0.2893
    5SAPS   O11  549   7.303   1.525   6.286  0.5009  0.1016  0.5245
    5SAPS    C1  550   7.316   1.607   6.175  0.3895 -0.7038  1.0969
    5SAPS    HA  551   7.223   1.654   6.137  0.9672 -1.5578 -1.5965
    5SAPS    HB  552   7.393   1.682   6.203  1.2915 -2.4192  3.6334
    5SAPS    C2  553   7.364   1.516   6.052 -0.6468  0.2236 -0.6796
    5SAPS    HS  554   7.391   1.598   5.982  1.1783  1.5077  1.4083
    5SAPS   O21  555   7.266   1.426   6.003 -0.3818 -0.6602 -0.0530
    5SAPS   C21  556   7.160   1.479   5.942 -0.0130  0.0528  0.2505
    5SAPS   O22  557   7.120   1.591   5.924 -0.1420 -0.6055 -0.1853
    5SAPS   C22  558   7.073   1.357   5.902 -0.0652  0.6721  0.2750
    5SAPS   H2R  559   7.049   1.302   5.995 -0.2062  0.5038  0.1411
    5SAPS   H2S  560   6.972   1.394   5.872 -1.0087 -1.0214  1.2136
    5SAPS    C3  561   7.501   1.442   6.078  0.3378 -0.7533 -0.7074
    5SAPS    HX  562   7.488   1.337   6.112 -0.6332 -0.3319  0.2627
    5SAPS    HY  563   7.550   1.487   6.166 -1.9016 -0.5907  0.5379
    5SAPS   O31  564   7.577   1.431   5.949  1.0218 -0.2459 -0.6036
    5SAPS   C31  565   7.706   1.420   5.959 -0.0189  0.5290 -0.6338
    5SAPS   O32  566   7.765   1.424   6.064 -0.1582  0.0490  0.5453
    5SAPS   C32  567   7.777   1.394   5.826  0.4400  0.3896 -0.0971
    5SAPS   H2X  568   7.734   1.479   5.769  1.4373  1.0892  0.1662
    5SAPS   H2Y  569   7.744   1.294   5.790  0.4889  0.2205  0.3254
    5SAPS   C23  570   7.127   1.269   5.794  0.0381  0.3110  0.0969
    5SAPS   H3R  571   7.204   1.202   5.838  0.5790  0.7073 -0.2500
    5SAPS   H3S  572   7.171   1.325   5.710  1.2264 -1.4797 -0.5386
    5SAPS   C24  573   7.016   1.181   5.738  0.2762  0.2310 -0.5705
    5SAPS   H4R  574   6.950   1.247   5.677 -1.5943 -2.0725 -1.1863
    5SAPS   H4S  575   6.961   1.142   5.826  3.1717  1.1998  1.8370
    5SAPS   C25  576   7.061   1.068   5.647 -0.0809 -0.2931  0.3175
    5SAPS   H5R  577   7.110   0.980   5.691  0.7044  0.2344  0.5226
    5SAPS   C26  578   7.039   1.068   5.513  0.0762  0.1765  0.3623
    5SAPS   H6R  579   7.090   0.988   5.457  0.1934  1.1886 -1.0148
    5SAPS   C27  580   6.957   1.172   5.435  0.3739  0.3034 -0.5634
    5SAPS   H7R  581   6.852   1.173   5.471  0.7736 -2.2966  0.9297
    5SAPS   H7S  582   6.937   1.129   5.335 -0.0988  3.0206 -1.7305
    5SAPS   C28  583   7.022   1.316   5.427  0.2547  0.6317  0.1669
    5SAPS   H8R  584   6.954   1.391   5.469 -1.9659 -1.2314  0.0734
    5SAPS   C29  585   7.136   1.339   5.362  0.0927  0.2112 -0.3389
    5SAPS   H9R  586   7.181   1.438   5.379 -0.1147 -0.0607  2.2110
    5SAPS  C210  587   7.222   1.237   5.282  0.2552  0.4073  0.1283
    5SAPS  H10R  588   7.240   1.273   5.178 -0.0733  1.6401  0.4796
    5SAPS  H10S  589   7.151   1.153   5.272 -0.7682  1.2022  0.5646
    5SAPS  C211  590   7.343   1.199   5.353 -0.0012 -0.0216 -0.0223
    5SAPS  H11R  591   7.318   1.150   5.449  1.8275  0.1689  0.5930
    5SAPS  C212  592   7.469   1.195   5.309  0.1247  0.1334 -0.5581
    5SAPS  H12R  593   7.545   1.162   5.382 -0.0347 -0.7902 -0.7939
    5SAPS  C213  594   7.531   1.247   5.179 -0.0794  1.3272  0.2375
    5SAPS  H13R  595   7.472   1.338   5.152 -0.7790  1.1015  0.9677
    5SAPS  H13S  596   7.518   1.166   5.103  0.2625  0.3886  1.1605
    5SAPS  C214  597   7.684   1.273   5.181  0.7175 -0.4327  0.2967
    5SAPS  H14R  598   7.741   1.193   5.231  2.6772 -0.4447 -1.7630
    5SAPS  C215  599   7.748   1.364   5.110  0.3287 -0.7363 -0.2743
    5SAPS  H15R  600   7.856   1.353   5.092  0.1037 -1.7649 -1.0302
    5SAPS  C216  601   7.686   1.464   5.009 -0.6699  0.5914 -0.1811
    5SAPS  H16R  602   7.758   1.548   5.003  0.3834 -0.3863 -2.1191
    5SAPS  H16S  603   7.590   1.508   5.044  0.1604  2.4164 -0.0687
    5SAPS  C217  604   7.658   1.417   4.864  0.5999 -0.3658 -0.3410
    5SAPS  H17R  605   7.569   1.350   4.865  1.5461 -1.6823  1.6218
    5SAPS  H17S  606   7.747   1.361   4.829 -1.0835 -3.0189 -0.6798
    5SAPS  C218  607   7.619   1.533   4.769 -0.3453  0.5384 -1.1855
    5SAPS  H18R  608   7.703   1.605   4.774 -1.7645  2.2421 -0.9130
    5SAPS  H18S  609   7.526   1.588   4.797 -1.1867 -2.9940  4.7172
    5SAPS  C219  610   7.623   1.481   4.625 -0.3444 -0.1740 -0.1806
    5SAPS  H19R  611   7.553   1.397   4.606  1.0374 -0.7795 -3.1892
    5SAPS  H19S  612   7.726   1.443   4.606 -0.7389 -0.5680 -1.6950
    5SAPS  C220  613   7.596   1.583   4.522  0.2485 -0.1656 -0.0151
    5SAPS  H20R  614   7.616   1.539   4.422 -0.0502 -2.1180  0.7315
    5SAPS  H20S  615   7.645   1.683   4.517 -3.5750  1.8869  0.1216
    5SAPS  H20T  616   7.487   1.600   4.524 -0.0676 -2.0356  0.2828
    5SAPS   C33  617   7.923   1.409   5.824 -0.5265 -0.1798  0.1666
    5SAPS   H3X  618   7.975   1.351   5.903  0.3328 -1.4748 -1.3129
    5SAPS   H3Y  619   7.951   1.516   5.840 -0.0404 -0.3113  0.2109
    5SAPS   C34  620   7.975   1.367   5.683  0.1620  0.0777 -0.2899
    5SAPS   H4X  621   7.925   1.270   5.660 -0.5236  0.5499 -0.8431
    5SAPS   H4Y  622   8.082   1.339   5.696 -0.2255 -0.9222  0.9391
    5SAPS   C35  623   7.952   1.461   5.567  0.9325 -0.3651  0.3875
    5SAPS   H5X  624   7.977   1.562   5.606 -2.7004  0.3975  1.1128
    5SAPS   H5Y  625   7.846   1.472   5.539  0.8687 -0.4204  0.6013
    5SAPS   C36  626   8.042   1.430   5.447  0.3706  0.0447  0.4576
    5SAPS   H6X  627   8.012   1.329   5.411 -0.9037  0.4971  0.1751
    5SAPS   H6Y  628   8.149   1.419   5.476  0.1457 -2.6505  0.5438
    5SAPS   C37  629   8.031   1.532   5.330 -0.3755 -0.5924  0.5873
    5SAPS   H7X  630   8.087   1.623   5.361 -0.5791  0.0487 -0.8325
    5SAPS   H7Y  631   7.927   1.570   5.316  0.0005  0.2479  0.0283
    5SAPS   C38  632   8.091   1.458   5.212  0.2751  0.1893  0.1421
    5SAPS   H8X  633   8.017   1.377   5.192 -0.9170  0.7596  2.0171
    5SAPS   H8Y  634   8.189   1.408   5.229  1.0073  2.0130  1.7120
    5SAPS   C39  635   8.090   1.543   5.089  0.9865  0.4118  0.9443
    5SAPS   H9X  636   8.146   1.634   5.116  0.4510  1.3723 -1.0048
    5SAPS   H9Y  637   7.986   1.564   5.057  1.7675 -1.1223 -3.2485
    5SAPS  C310  638   8.179   1.490   4.979 -0.7557  0.3395 -0.2212
    5SAPS  H10X  639   8.138   1.391   4.950 -1.1537  0.3929  0.1538
    5SAPS  H10Y  640   8.272   1.472   5.038 -1.1001 -1.2861 -0.1170
    5SAPS  C311  641   8.185   1.586   4.856  0.1296  0.1853  0.6614
    5SAPS  H11X  642   8.284   1.576   4.806 -1.0402 -2.0183 -1.4679
    5SAPS  H11Y  643   8.187   1.685   4.906 -0.2093  0.0017  1.0418
    5SAPS  C312  644   8.067   1.557   4.757 -0.1576 -0.3654  0.0230
    5SAPS  H12X  645   7.966   1.562   4.803 -1.5901 -2.9288 -2.5516
    5SAPS  H12Y  646   8.067   1.455   4.713  0.2700 -0.6073  0.5631
    5SAPS  C313  647   8.059   1.657   4.640  0.8412 -1.1309 -0.0565
    5SAPS  H13X  648   8.153   1.651   4.582  0.3585 -0.6685 -0.9226
    5SAPS  H13Y  649   8.062   1.756   4.691 -0.9937 -0.5719 -0.9474
    5SAPS  C314  650   7.940   1.647   4.553 -0.0771  0.8078 -0.0024
    5SAPS  H14X  651   7.850   1.688   4.605 -0.7732 -1.1634  0.4219
    5SAPS  H14Y  652   7.915   1.543   4.523  0.1452  0.4137  1.1382
    5SAPS  C315  653   7.965   1.721   4.420 -0.5796 -0.6908  0.0898
    5SAPS  H15X  654   8.050   1.680   4.362  0.7277 -4.3757  4.1284
    5SAPS  H15Y  655   8.003   1.819   4.459 -1.6813  0.2372 -1.0739
    5SAPS  C316  656   7.842   1.738   4.338  0.4388  0.1502 -0.0986
    5SAPS  H16X  657   7.764   1.789   4.399 -0.0537 -0.8748  0.1483
    5SAPS  H16Y  658   7.809   1.635   4.311  1.7161 -0.2319 -0.2565
    5SAPS  C317  659   7.853   1.812   4.209  0.3495 -0.4290  0.7237
    5SAPS  H17X  660   7.759   1.832   4.153  0.3530  0.0147  0.8703
    5SAPS  H17Y  661   7.919   1.753   4.142 -0.5133  0.6087 -1.1228
    5SAPS  C318  662   7.922   1.947   4.225  0.0760  0.3290  0.5291
    5SAPS  H18X  663   7.851   2.022   4.266 -0.4223 -1.3514  2.9797
    5SAPS  H18Y  664   7.950   1.967   4.120 -1.9294 -0.4425 -0.1991
    5SAPS  H18Z  665   8.017   1.952   4.282 -1.5344  0.7448  3.3868
    6SAPS     N  666   2.705   0.841   7.055 -1.0865  0.0362 -0.1601
    6SAPS   HN1  667   2.754   0.755   7.087 -0.6055  0.0342 -0.8641
    6SAPS   HN2  668   2.621   0.811   7.002  0.0796 -1.9439 -0.9982
    6SAPS   HN3  669   2.775   0.879   6.988 -0.8214  0.0613  0.1306
    6SAPS   C12  670   2.674   0.932   7.169  0.1344 -0.9659  0.1532
    6SAPS  H12A  671   2.577   0.910   7.209 -0.1215 -1.0378 -0.4968
    6SAPS   C13  672   2.781   0.910   7.280 -1.0865 -0.2901 -0.4954
    6SAPS  O13A  673   2.890   0.839   7.261 -0.0397 -0.5911  0.1577
    6SAPS  O13B  674   2.747   0.954   7.394  0.2327  0.2355 -0.1232
    6SAPS   C11  675   2.681   1.079   7.117 -0.3732 -0.6646 -0.0177
    6SAPS  H11A  676   2.786   1.093   7.084 -0.1818  0.0940  0.8795
    6SAPS  H11B  677   2.660   1.149   7.201  1.7936 -1.3923  1.2048
    6SAPS     P  678   2.559   1.241   6.962  0.1158  0.5447  0.2844
    6SAPS   O13  679   2.480   1.300   7.069  0.5622  0.5181 -0.7242
    6SAPS   O14  680   2.685   1.309   6.927  0.1057 -0.1615  0.0459
    6SAPS   O12  681   2.591   1.093   7.012  0.4480 -0.0703  0.1978
    6SAPS   O11  682   2.472   1.218   6.834 -0.0879  0.4183 -0.0633
    6SAPS    C1  683   2.462   1.299   6.718  0.0711  0.3289 -0.0266
    6SAPS    HA  684   2.370   1.264   6.665  0.5606  1.3396 -1.6440
    6SAPS    HB  685   2.447   1.406   6.747 -1.8286 -0.2629  1.3315
    6SAPS    C2  686   2.585   1.276   6.624  0.7859 -0.2887 -0.2413
    6SAPS    HS  687   2.675   1.307   6.682 -1.1320  1.7832  1.8577
    6SAPS   O21  688   2.556   1.366   6.514  0.2693 -0.6865 -0.8147
    6SAPS   C21  689   2.663   1.415   6.448  0.1851 -0.0683 -0.5456
    6SAPS   O22  690   2.781   1.409   6.478  0.8283  0.0507  0.1559
    6SAPS   C22  691   2.613   1.477   6.314  0.3490  0.4590 -0.3797
    6SAPS   H2R  692   2.580   1.394   6.248 -0.3422 -0.9597  1.6427
    6SAPS   H2S  693   2.515   1.527   6.333 -0.0566 -0.5409  0.2879
    6SAPS    C3  694   2.581   1.134   6.564 -0.7119 -0.1154  0.0477
    6SAPS    HX  695   2.483   1.112   6.517 -0.7187 -0.1649  0.0846
    6SAPS    HY  696   2.579   1.074   6.658 -2.7175  0.3313  0.3404
    6SAPS   O31  697   2.692   1.096   6.477 -0.4213  0.1875 -0.0844
    6SAPS   C31  698   2.806   1.092   6.536  0.4792 -0.4725  0.4949
    6SAPS   O32  699   2.832   1.110   6.654 -0.2133  0.2312 -0.5084
    6SAPS   C32  700   2.902   1.044   6.442 -0.0573 -0.4719 -0.1526
    6SAPS   H2X  701   2.851   1.004   6.352  0.2467 -2.3335  0.4639
    6SAPS   H2Y  702   2.965   0.965   6.488  0.6587  0.3639  0.3287
    6SAPS   C23  703   2.726   1.552   6.240  0.7444  0.6912  0.2898
    6SAPS   H3R  704   2.793   1.476   6.193 -1.9619 -2.0916  0.6233
    6SAPS   H3S  705   2.793   1.605   6.311  2.0224  0.1198 -0.4435
    6SAPS   C24  706   2.672   1.663   6.144  0.4919 -0.6829 -0.4533
    6SAPS   H4R  707   2.746   1.736   6.106 -0.4356 -0.3697 -1.7178
    6SAPS   H4S  708   2.615   1.738   6.203  1.2762 -0.4114 -0.0272
    6SAPS   C25  709   2.570   1.609   6.044 -1.0631  0.4799 -0.9590
    6SAPS   H5R  710   2.465   1.608   6.078 -0.8669 -0.3351 -0.3566
    6SAPS   C26  711   2.598   1.571   5.917  0.3927  0.1192 -0.9683
    6SAPS   H6R  712   2.511   1.537   5.859 -1.2220 -1.9893  2.3343
    6SAPS   C27  713   2.730   1.578   5.850 -0.0950  0.0021  0.1707
    6SAPS   H7R  714   2.784   1.485   5.878  0.1807 -0.0324 -0.4674
    6SAPS   H7S  715   2.788   1.668   5.882 -1.0546  1.3242 -1.6205
    6SAPS   C28  716   2.749   1.583   5.699 -0.6342 -0.2173 -0.2609
    6SAPS   H8R  717   2.724   1.682   5.658  0.7967  1.5559  2.8071
    6SAPS   C29  718   2.808   1.485   5.622 -0.5112  0.6146  0.4150
    6SAPS   H9R  719   2.804   1.487   5.513  1.9997 -0.5401  0.2169
    6SAPS  C210  720   2.836   1.344   5.677 -0.2330  0.3617 -0.4040
    6SAPS  H10R  721   2.887   1.361   5.774 -1.5337  0.5460  0.2606
    6SAPS  H10S  722   2.914   1.295   5.615 -0.9317  0.2080 -1.1839
    6SAPS  C211  723   2.717   1.260   5.676  0.4472  0.0807  0.0848
    6SAPS  H11R  724   2.655   1.276   5.765 -1.2094  1.1105 -1.1994
    6SAPS  C212  725   2.676   1.173   5.581  0.6608 -0.6505  0.4597
    6SAPS  H12R  726   2.578   1.124   5.593  0.3000  0.0562  0.4826
    6SAPS  C213  727   2.746   1.154   5.450 -0.0812  0.4790  0.3218
    6SAPS  H13R  728   2.731   1.047   5.425 -0.4000  0.5975 -0.0148
    6SAPS  H13S  729   2.854   1.138   5.473 -0.1957  0.1379  0.6126
    6SAPS  C214  730   2.711   1.252   5.334  0.7185 -0.4481 -0.0156
    6SAPS  H14R  731   2.633   1.326   5.354  2.0090  0.9551 -0.0032
    6SAPS  C215  732   2.766   1.255   5.211 -0.1268  0.4585 -0.2620
    6SAPS  H15R  733   2.750   1.342   5.145 -1.1955  1.0999  0.8007
    6SAPS  C216  734   2.865   1.158   5.156 -0.4361  0.5200  0.0742
    6SAPS  H16R  735   2.813   1.107   5.073  1.6342  3.3618 -3.2925
    6SAPS  H16S  736   2.903   1.089   5.234 -0.7385  1.0494  0.7025
    6SAPS  C217  737   2.988   1.229   5.089 -0.1576 -0.5404 -0.5283
    6SAPS  H17R  738   3.063   1.150   5.066 -1.4312 -2.2256  0.8364
    6SAPS  H17S  739   3.049   1.297   5.151  4.5253 -3.7913 -1.0561
    6SAPS  C218  740   2.958   1.282   4.949 -0.6195 -0.6302 -0.1191
    6SAPS  H18R  741   2.873   1.354   4.960 -0.6313 -0.5603 -0.6752
    6SAPS  H18S  742   2.929   1.202   4.878 -1.5987  0.8564 -1.4704
    6SAPS  C219  743   3.081   1.373   4.897  0.9663  0.4599 -0.2922
    6SAPS  H19R  744   3.105   1.440   4.982 -1.9937  2.7410 -1.0878
    6SAPS  H19S  745   3.044   1.440   4.817  2.3895 -0.1657 -1.5223
    6SAPS  C220  746   3.207   1.296   4.852  0.2695  0.5284 -0.3167
    6SAPS  H20R  747   3.296   1.359   4.828  0.9947 -0.7813 -1.2106
    6SAPS  H20S  748   3.192   1.236   4.759 -0.7018 -1.3864  1.0059
    6SAPS  H20T  749   3.231   1.215   4.924 -0.7933  0.6630  0.1972
    6SAPS   C33  750   3.005   1.149   6.391  0.2422  0.2350 -0.1395
    6SAPS   H3X  751   3.038   1.182   6.492 -2.1652 -1.3565  1.2685
    6SAPS   H3Y  752   2.958   1.230   6.331 -0.2756 -0.6598 -0.9715
    6SAPS   C34  753   3.118   1.093   6.312 -0.0854  0.5538  0.4560
    6SAPS   H4X  754   3.089   1.041   6.218  1.2711 -0.5801  0.6234
    6SAPS   H4Y  755   3.181   1.020   6.368 -0.3451 -0.2569 -0.2915
    6SAPS   C35  756   3.210   1.209   6.267 -0.2755 -0.1623 -0.8577
    6SAPS   H5X  757   3.311   1.177   6.233 -0.0956  1.0104 -1.4779
    6SAPS   H5Y  758   3.216   1.279   6.353 -3.4768 -2.3309  1.3540
    6SAPS   C36  759   3.154   1.294   6.152 -0.3185 -0.0172  0.4212
    6SAPS   H6X  760   3.246   1.355   6.140 -0.5372  0.0739 -1.0042
    6SAPS   H6Y  761   3.060   1.351   6.171 -0.9802 -1.7169  2.7637
    6SAPS   C37  762   3.135   1.212   6.015  0.6345  0.9365 -0.7506
    6SAPS   H7X  763   3.031   1.172   6.016  1.1558 -0.5158  0.8616
    6SAPS   H7Y  764   3.214   1.134   6.003  0.4448  0.6483 -0.1892
    6SAPS   C38  765   3.171   1.290   5.888 -0.2004  0.1304 -0.1776
    6SAPS   H8X  766   3.256   1.354   5.922  0.7015 -0.5827 -1.0546
    6SAPS   H8Y  767   3.089   1.354   5.849 -2.2496 -1.0966  1.8441
    6SAPS   C39  768   3.228   1.203   5.779  0.1807 -0.7730 -0.0989
    6SAPS   H9X  769   3.151   1.126   5.755  0.6866 -1.4932  0.5798
    6SAPS   H9Y  770   3.311   1.147   5.825  0.1628  0.6398  1.7764
    6SAPS  C310  771   3.267   1.282   5.649  0.2475  0.1581  0.5585
    6SAPS  H10X  772   3.337   1.367   5.659  1.1790 -0.7092  1.7266
    6SAPS  H10Y  773   3.171   1.308   5.598  0.2703  0.7068  0.7891
    6SAPS  C311  774   3.333   1.190   5.540 -0.8063 -0.7506 -0.3040
    6SAPS  H11X  775   3.272   1.097   5.539 -1.0369 -0.5971 -0.5633
    6SAPS  H11Y  776   3.429   1.164   5.589 -1.2636 -0.2261  0.8997
    6SAPS  C312  777   3.360   1.249   5.398 -0.5301  0.1608 -0.0285
    6SAPS  H12X  778   3.441   1.325   5.410 -1.1463  0.7170  0.7193
    6SAPS  H12Y  779   3.269   1.293   5.352 -0.2126  0.4173 -0.4225
    6SAPS  C313  780   3.414   1.140   5.301  0.2443 -0.1029 -0.3081
    6SAPS  H13X  781   3.326   1.080   5.271  0.1678 -0.9441  1.5034
    6SAPS  H13Y  782   3.484   1.079   5.362  1.3306 -0.8979 -2.2536
    6SAPS  C314  783   3.485   1.183   5.176 -0.1547 -0.1232  0.0767
    6SAPS  H14X  784   3.574   1.244   5.202  0.0504 -0.5724  0.4539
    6SAPS  H14Y  785   3.421   1.254   5.121 -2.5755 -0.4337  2.2900
    6SAPS  C315  786   3.532   1.071   5.085 -0.4645  0.2312  0.5040
    6SAPS  H15X  787   3.438   1.051   5.029  1.2110 -2.8507 -1.5559
    6SAPS  H15Y  788   3.545   0.972   5.134 -0.3291 -0.4086 -0.7690
    6SAPS  C316  789   3.625   1.094   4.967 -0.5589 -0.4230 -0.1943
    6SAPS  H16X  790   3.727   1.125   4.996 -0.7361 -1.4786  1.7314
    6SAPS  H16Y  791   3.586   1.170   4.896  0.5294 -1.2865 -1.7928
    6SAPS  C317  792   3.668   0.964   4.893 -0.1425  0.4414 -0.0472
    6SAPS  H17X  793   3.575   0.905   4.880  1.7731 -2.4343 -1.8877
    6SAPS  H17Y  794   3.737   0.903   4.955 -1.2574 -0.1337  0.6550
    6SAPS  C318  795   3.723   0.986   4.749  0.0210  0.0516  0.4338
    6SAPS  H18X  796   3.640   1.006   4.678 -0.1719  0.2449  0.7084
    6SAPS  H18Y  797   3.793   0.910   4.708  0.3012  0.3891  0.2728
    6SAPS  H18Z  798   3.782   1.081   4.747 -0.1542  0.1725  0.9784
    7SAPS     N  799   4.903   2.676   7.160 -0.2894  0.0400  0.4123
    7SAPS   HN1  800   4.918   2.605   7.086 -0.3719 -1.6884  1.9955
    7SAPS   HN2  801   4.994   2.725   7.171  1.2110 -2.0226 -1.9006
    7SAPS   HN3  802   4.881   2.639   7.255 -0.4454 -0.6306  0.1184
    7SAPS   C12  803   4.791   2.766   7.126  0.1031 -0.1909  0.6379
    7SAPS  H12A  804   4.704   2.702   7.137  0.3485 -0.5756  0.3568
    7SAPS   C13  805   4.770   2.879   7.233  0.2919  0.3990  0.1138
    7SAPS  O13A  806   4.856   2.911   7.320  0.3798 -0.1947  0.9854
    7SAPS  O13B  807   4.665   2.946   7.218 -0.7436 -0.1400  0.3575
    7SAPS   C11  808   4.811   2.817   6.983 -1.4922 -0.1035  0.1849
    7SAPS  H11A  809   4.717   2.867   6.950  0.4540  3.1562 -0.9763
    7SAPS  H11B  810   4.826   2.727   6.920 -1.7311 -1.1846  1.6293
    7SAPS     P  811   4.988   2.956   6.848  0.0890 -0.6386 -0.6649
    7SAPS   O13  812   4.966   3.101   6.840  0.1010  0.2931 -0.5361
    7SAPS   O14  813   5.127   2.908   6.848 -0.3189  0.3898 -0.3674
    7SAPS   O12  814   4.914   2.916   6.980  0.9625  0.1894  0.0860
    7SAPS   O11  815   4.903   2.883   6.730 -0.6083  0.9035 -0.3401
    7SAPS    C1  816   4.962   2.791   6.643 -0.2760 -0.1845 -0.0358
    7SAPS    HA  817   5.031   2.716   6.686 -2.3863 -3.4164 -1.9115
    7SAPS    HB  818   4.879   2.724   6.611  0.0035 -1.1341  1.1735
    7SAPS    C2  819   5.046   2.858   6.530 -0.3020 -0.1277 -0.0184
    7SAPS    HS  820   5.120   2.923   6.581 -0.0698 -0.3160 -0.1130
    7SAPS   O21  821   4.963   2.924   6.432  0.2694 -0.9383 -0.2345
    7SAPS   C21  822   5.007   3.033   6.359 -1.1062 -0.1422 -0.1667
    7SAPS   O22  823   5.124   3.077   6.362  0.1994 -0.1854 -0.2593
    7SAPS   C22  824   4.897   3.086   6.278  1.2733 -0.0915  0.0980
    7SAPS   H2R  825   4.872   3.030   6.186 -0.6503  0.4425  0.2617
    7SAPS   H2S  826   4.814   3.084   6.351  0.7346 -1.4968 -0.5281
    7SAPS    C3  827   5.138   2.744   6.464  0.7413  0.3051 -0.4451
    7SAPS    HX  828   5.070   2.670   6.415 -2.4371  1.7761  1.4024
    7SAPS    HY  829   5.186   2.702   6.555 -0.4209  0.2387  0.1553
    7SAPS   O31  830   5.231   2.797   6.373 -0.0922 -0.1620  0.0468
    7SAPS   C31  831   5.339   2.858   6.411 -0.2250  0.0703  0.0508
    7SAPS   O32  832   5.371   2.895   6.522  0.3099  0.1772 -0.3641
    7SAPS   C32  833   5.417   2.880   6.271  0.3267  0.1557 -0.7944
    7SAPS   H2X  834   5.337   2.902   6.198 -1.0793 -1.0159  0.3168
    7SAPS   H2Y  835   5.460   2.779   6.257 -1.6388 -1.2372  2.0483
    7SAPS   C23  836   4.918   3.241   6.240  0.0629 -0.0873  0.1710
    7SAPS   H3R  837   4.985   3.286   6.316 -0.2750 -1.3915  1.2958
    7SAPS   H3S  838   4.825   3.298   6.258  0.5005  1.6518 -2.4372
    7SAPS   C24  839   4.948   3.268   6.094  0.7902  0.7748 -0.1160
    7SAPS   H4R  840   4.953   3.379   6.085 -0.9192  0.8698 -0.3405
    7SAPS   H4S  841   4.856   3.233   6.043  1.2606 -0.1834 -0.3226
    7SAPS   C25  842   5.073   3.197   6.048 -0.3368  0.3565 -0.3132
    7SAPS   H5R  843   5.157   3.191   6.120  0.0014 -1.5421 -0.8093
    7SAPS   C26  844   5.104   3.146   5.929 -0.1027 -0.0721 -0.1248
    7SAPS   H6R  845   5.192   3.081   5.918  0.4068  0.6880 -0.5908
    7SAPS   C27  846   5.003   3.150   5.812  0.3661  0.0695  0.3251
    7SAPS   H7R  847   5.044   3.193   5.718 -2.1737  1.7507 -0.1207
    7SAPS   H7S  848   4.918   3.221   5.826  1.3066  1.3463 -0.2786
    7SAPS   C28  849   4.952   3.008   5.813 -1.1408 -0.2228  0.4212
    7SAPS   H8R  850   4.894   2.973   5.899 -1.1517 -1.5532 -0.0993
    7SAPS   C29  851   4.966   2.928   5.715 -0.4329  0.2988  0.8473
    7SAPS   H9R  852   4.918   2.829   5.725 -0.6659  0.1700 -1.1016
    7SAPS  C210  853   5.057   2.947   5.596 -0.2968  0.0684 -0.3500
    7SAPS  H10R  854   5.105   2.852   5.564  1.4176  1.0615 -0.8572
    7SAPS  H10S  855   5.138   3.011   5.637 -1.4845  1.5833 -0.2482
    7SAPS  C211  856   4.984   3.021   5.481 -0.6478 -0.1630  1.2900
    7SAPS  H11R  857   4.950   3.124   5.498 -3.5073 -1.2081  2.5884
    7SAPS  C212  858   4.926   2.962   5.371  0.1396  0.1637 -0.7515
    7SAPS  H12R  859   4.870   3.024   5.299 -1.5802  0.6301  0.9210
    7SAPS  C213  860   4.924   2.822   5.329  0.0041  0.0990 -0.9328
    7SAPS  H13R  861   4.929   2.761   5.421 -1.9744 -0.0776 -0.9018
    7SAPS  H13S  862   5.019   2.820   5.271  1.1523 -0.0356  0.8668
    7SAPS  C214  863   4.794   2.795   5.253 -0.4926 -0.1788  0.3728
    7SAPS  H14R  864   4.699   2.796   5.308 -0.2485  1.1525  0.7995
    7SAPS  C215  865   4.784   2.781   5.120 -0.6020  0.0994  0.6123
    7SAPS  H15R  866   4.686   2.752   5.080 -1.4769  1.3099  1.7842
    7SAPS  C216  867   4.897   2.792   5.025  0.4072 -0.4181  0.1987
    7SAPS  H16R  868   4.964   2.704   5.035 -1.0231 -1.9007 -2.3002
    7SAPS  H16S  869   4.963   2.877   5.056  1.3632 -0.7991 -0.7025
    7SAPS  C217  870   4.839   2.803   4.879 -0.0825 -0.0197 -0.1487
    7SAPS  H17R  871   4.759   2.880   4.872  0.9487  1.0735 -0.1072
    7SAPS  H17S  872   4.803   2.705   4.841  2.1603 -0.5018 -1.1706
    7SAPS  C218  873   4.956   2.845   4.785 -0.1632 -0.0162 -0.3117
    7SAPS  H18R  874   5.003   2.943   4.808 -3.5880  1.2774  2.0348
    7SAPS  H18S  875   4.912   2.859   4.684  0.7098 -0.5881 -0.7835
    7SAPS  C219  876   5.073   2.745   4.773  0.6518  0.3857  0.5832
    7SAPS  H19R  877   5.020   2.649   4.758 -1.4843  1.8237 -2.0171
    7SAPS  H19S  878   5.130   2.755   4.868 -1.3252  3.0648  1.6264
    7SAPS  C220  879   5.160   2.753   4.640  0.5872  0.1999 -0.2159
    7SAPS  H20R  880   5.254   2.698   4.662  1.4194  2.4540  2.4705
    7SAPS  H20S  881   5.192   2.856   4.613  2.5221 -0.4267 -0.4489
    7SAPS  H20T  882   5.105   2.711   4.554  1.0716 -3.3161  1.0501
    7SAPS   C33  883   5.519   2.995   6.287  0.0631  0.1347  0.2872
    7SAPS   H3X  884   5.579   2.985   6.380 -1.4435 -1.9836  1.1255
    7SAPS   H3Y  885   5.468   3.094   6.292 -0.4273 -0.1542  1.3583
    7SAPS   C34  886   5.611   3.011   6.168 -0.3578 -0.9558  0.1683
    7SAPS   H4X  887   5.677   3.099   6.175 -0.3565 -0.9384 -0.0582
    7SAPS   H4Y  888   5.545   3.028   6.081 -1.4186  0.4668  1.2008
    7SAPS   C35  889   5.697   2.893   6.137  0.0484  0.1944 -0.1512
    7SAPS   H5X  890   5.656   2.827   6.057 -0.1538 -0.6536  0.6327
    7SAPS   H5Y  891   5.723   2.837   6.229  1.1708  0.9439 -0.0017
    7SAPS   C36  892   5.840   2.933   6.078  0.1947  0.0819  0.8339
    7SAPS   H6X  893   5.878   2.838   6.036 -0.1100  0.6613 -0.8581
    7SAPS   H6Y  894   5.912   2.972   6.153  0.2399  2.5477 -0.3707
    7SAPS   C37  895   5.830   3.032   5.956 -0.2249 -0.4353 -0.9209
    7SAPS   H7X  896   5.935   3.067   5.942 -0.3420 -0.0477 -0.8196
    7SAPS   H7Y  897   5.757   3.109   5.988  0.5318 -1.0208  2.6106
    7SAPS   C38  898   5.776   2.977   5.823  1.3445  0.0745  0.9640
    7SAPS   H8X  899   5.722   3.058   5.768 -0.7487 -1.3029  0.8712
    7SAPS   H8Y  900   5.708   2.889   5.831 -0.2640  0.8599 -2.3076
    7SAPS   C39  901   5.885   2.946   5.726  0.4639  0.7017 -0.0913
    7SAPS   H9X  902   5.956   2.866   5.757  0.3732  1.0796  1.1395
    7SAPS   H9Y  903   5.938   3.043   5.714  0.8394  0.3902 -1.0814
    7SAPS  C310  904   5.842   2.906   5.595  0.3452  0.0544  0.3254
    7SAPS  H10X  905   5.803   2.995   5.543  2.4216 -1.0906 -3.5558
    7SAPS  H10Y  906   5.756   2.836   5.605 -0.1342  0.7597  1.2941
    7SAPS  C311  907   5.948   2.844   5.511 -0.7235  0.0621 -0.1401
    7SAPS  H11X  908   5.976   2.741   5.539 -1.7181 -0.4823 -1.0914
    7SAPS  H11Y  909   6.041   2.905   5.516 -0.1857 -0.5023 -2.0949
    7SAPS  C312  910   5.912   2.835   5.360  0.3488 -0.1061 -0.0342
    7SAPS  H12X  911   5.878   2.931   5.315  1.4668  0.2911 -0.0631
    7SAPS  H12Y  912   5.832   2.758   5.351  0.8985 -0.6866 -0.0010
    7SAPS  C313  913   6.025   2.798   5.270 -0.0123  0.1230  0.1190
    7SAPS  H13X  914   6.053   2.693   5.291  0.2811  0.1910  0.0704
    7SAPS  H13Y  915   6.115   2.860   5.288  0.4359 -0.0680 -1.3151
    7SAPS  C314  916   5.988   2.806   5.116 -0.1852 -0.1139  0.0143
    7SAPS  H14X  917   5.972   2.911   5.083  0.2308 -0.2516 -0.6566
    7SAPS  H14Y  918   5.896   2.746   5.095  0.0483 -1.0614  1.5058
    7SAPS  C315  919   6.102   2.735   5.034  0.4142 -0.7263 -0.1096
    7SAPS  H15X  920   6.100   2.624   5.037 -1.4481 -0.6955  1.2859
    7SAPS  H15Y  921   6.199   2.763   5.079 -0.6943  0.6199  1.5522
    7SAPS  C316  922   6.111   2.783   4.888 -0.5878  0.3472  0.4868
    7SAPS  H16X  923   6.182   2.724   4.826 -2.5078 -0.5276 -0.9807
    7SAPS  H16Y  924   6.147   2.887   4.875  0.7475 -0.2554 -0.9812
    7SAPS  C317  925   5.974   2.765   4.809  0.1556  0.2912  0.5021
    7SAPS  H17X  926   5.900   2.835   4.853  1.2915  2.3158 -0.6311
    7SAPS  H17Y  927   5.951   2.657   4.813 -0.4016  0.2490 -2.1407
    7SAPS  C318  928   5.983   2.813   4.666  0.9142  0.8016 -0.0917
    7SAPS  H18X  929   6.014   2.919   4.658 -0.1799  1.0856 -0.7376
    7SAPS  H18Y  930   5.883   2.808   4.619  1.1488  0.1507 -0.5352
    7SAPS  H18Z  931   6.051   2.740   4.617  0.7645 -0.8084  1.9522
    8SAPS     N  932   5.666   1.865   6.741 -0.3748  0.0906 -0.4267
    8SAPS   HN1  933   5.679   1.763   6.724  1.0350  0.2269 -0.2551
    8SAPS   HN2  934   5.574   1.902   6.708 -1.5483 -0.8958  1.5335
    8SAPS   HN3  935   5.737   1.915   6.684 -0.7180 -0.1036 -1.0306
    8SAPS   C12  936   5.697   1.900   6.886  0.2543  0.7967  0.2999
    8SAPS  H12A  937   5.613   1.859   6.940 -0.5026  1.2142 -0.5476
    8SAPS   C13  938   5.832   1.853   6.948 -0.1006  0.0529 -0.3684
    8SAPS  O13A  939   5.911   1.792   6.873  0.3704  0.0558  0.1800
    8SAPS  O13B  940   5.851   1.848   7.073  0.2697  0.0058 -0.2220
    8SAPS   C11  941   5.697   2.054   6.895  0.4781 -0.2561  0.1470
    8SAPS  H11A  942   5.787   2.098   6.846 -0.6542  1.9323 -0.0945
    8SAPS  H11B  943   5.708   2.083   7.002 -0.0648  1.6062 -0.2665
    8SAPS     P  944   5.565   2.276   6.817 -0.0656 -0.1819  0.1743
    8SAPS   O13  945   5.422   2.304   6.850  0.5954 -1.0702 -0.0188
    8SAPS   O14  946   5.681   2.351   6.884 -0.1474  0.4156 -0.5254
    8SAPS   O12  947   5.582   2.110   6.841  0.3195 -0.3017  0.2073
    8SAPS   O11  948   5.578   2.299   6.665 -0.7362 -0.3948  0.3329
    8SAPS    C1  949   5.646   2.210   6.578  0.2448 -0.3698  0.4378
    8SAPS    HA  950   5.754   2.213   6.605  0.5402  1.7832 -0.7049
    8SAPS    HB  951   5.605   2.108   6.566  0.1357 -0.1019 -1.7512
    8SAPS    C2  952   5.659   2.283   6.433 -0.2786 -0.1865 -0.1454
    8SAPS    HS  953   5.717   2.376   6.453  1.1554 -1.2741  1.0562
    8SAPS   O21  954   5.531   2.305   6.372 -0.1007  0.4373 -0.3312
    8SAPS   C21  955   5.494   2.425   6.338 -0.7636 -0.0297 -0.1577
    8SAPS   O22  956   5.552   2.530   6.354 -0.2148 -0.1962 -0.6291
    8SAPS   C22  957   5.361   2.410   6.276  0.5233 -0.3933 -0.2443
    8SAPS   H2R  958   5.363   2.328   6.201  0.5764  1.1027 -1.9525
    8SAPS   H2S  959   5.280   2.398   6.352  1.9328 -2.0213  1.0726
    8SAPS    C3  960   5.744   2.202   6.343 -0.3440  0.1320 -0.0039
    8SAPS    HX  961   5.683   2.113   6.318 -1.4119  1.1032 -1.0287
    8SAPS    HY  962   5.829   2.170   6.406  0.5912  1.0378 -0.7583
    8SAPS   O31  963   5.781   2.269   6.216 -0.3413  0.2954 -0.0680
    8SAPS   C31  964   5.887   2.356   6.223  0.2406  0.3521 -0.7012
    8SAPS   O32  965   5.918   2.412   6.329  0.2396 -0.4949  0.1684
    8SAPS   C32  966   5.945   2.392   6.083 -0.6102  0.6167 -0.2244
    8SAPS   H2X  967   6.030   2.324   6.063  0.1641  1.3191  0.5780
    8SAPS   H2Y  968   5.994   2.492   6.089 -1.3725  0.9404  0.9866
    8SAPS   C23  969   5.323   2.536   6.189 -0.0276 -0.3266  0.0639
    8SAPS   H3R  970   5.411   2.591   6.150 -0.7311  0.4366 -0.5047
    8SAPS   H3S  971   5.264   2.605   6.253 -0.3793  0.6951 -1.2980
    8SAPS   C24  972   5.232   2.497   6.071  0.0203  0.1187  0.0679
    8SAPS   H4R  973   5.148   2.440   6.117 -0.0250 -1.9014 -2.3422
    8SAPS   H4S  974   5.283   2.418   6.013  1.8936  0.5418  1.0641
    8SAPS   C25  975   5.180   2.614   5.984  0.0489  0.3153 -0.9733
    8SAPS   H5R  976   5.092   2.667   6.022  1.1520  0.2428  1.9161
    8SAPS   C26  977   5.229   2.653   5.864  0.0713 -0.1241  0.0889
    8SAPS   H6R  978   5.181   2.742   5.820 -3.6383 -2.8102 -1.8530
    8SAPS   C27  979   5.348   2.609   5.788  0.1986 -0.2300 -0.1483
    8SAPS   H7R  980   5.400   2.520   5.829  0.1881  0.0623  0.5015
    8SAPS   H7S  981   5.414   2.698   5.788 -1.8285  1.3761  1.4969
    8SAPS   C28  982   5.295   2.562   5.652  0.1550 -0.3941  0.0869
    8SAPS   H8R  983   5.210   2.492   5.650 -1.3810  1.3772  0.6701
    8SAPS   C29  984   5.353   2.585   5.536  0.0057 -0.3696  0.3108
    8SAPS   H9R  985   5.298   2.562   5.443  0.9897  0.2743 -0.4500
    8SAPS  C210  986   5.483   2.661   5.514  0.2783 -0.1073  0.3879
    8SAPS  H10R  987   5.529   2.622   5.420  1.9573  2.2224  0.1455
    8SAPS  H10S  988   5.565   2.653   5.589  0.2831 -0.1595  0.3774
    8SAPS  C211  989   5.472   2.807   5.497 -0.0616  0.1747 -0.5718
    8SAPS  H11R  990   5.478   2.852   5.598  3.4773  2.9568 -1.8131
    8SAPS  C212  991   5.455   2.888   5.394 -0.2394  0.1052 -0.2165
    8SAPS  H12R  992   5.451   2.995   5.418  0.3320  0.7254 -2.6324
    8SAPS  C213  993   5.456   2.841   5.250  0.5484  0.4034  0.2237
    8SAPS  H13R  994   5.450   2.732   5.232  3.2673  0.4554 -1.6518
    8SAPS  H13S  995   5.555   2.869   5.209  0.3028 -1.3143 -1.6767
    8SAPS  C214  996   5.343   2.913   5.179  0.1043  0.1879 -1.9197
    8SAPS  H14R  997   5.265   2.954   5.245  0.9365 -1.6587  0.3278
    8SAPS  C215  998   5.342   2.933   5.050 -0.0772  0.3490  0.1088
    8SAPS  H15R  999   5.255   2.993   5.018 -1.2126 -1.6431 -0.7221
    8SAPS  C216 1000   5.449   2.884   4.954  0.2038  0.3984  0.0587
    8SAPS  H16R 1001   5.384   2.837   4.877  0.1813 -1.3547  1.0944
    8SAPS  H16S 1002   5.506   2.798   4.995 -0.2976  1.0034  2.1355
    8SAPS  C217 1003   5.535   3.004   4.910 -0.0924  0.2316  0.7328
    8SAPS  H17R 1004   5.634   2.960   4.883  0.4429  1.6742  0.2780
    8SAPS  H17S 1005   5.565   3.069   4.994  1.1879  2.1118 -1.0639
    8SAPS  C218 1006   5.491   3.098   4.793  0.6015  0.2695 -0.5788
    8SAPS  H18R 1007   5.392   3.139   4.821  0.7115 -0.1236  0.4439
    8SAPS  H18S 1008   5.471   3.047   4.697 -1.1908 -0.0292 -0.0836
    8SAPS  C219 1009   5.595   3.215   4.779 -0.0592 -0.5447 -0.1161
    8SAPS  H19R 1010   5.688   3.198   4.720  0.1943  1.3570 -0.3359
    8SAPS  H19S 1011   5.634   3.236   4.881 -0.7042  0.0729  0.0086
    8SAPS  C220 1012   5.540   3.344   4.709  0.0379  0.6159  0.7133
    8SAPS  H20R 1013   5.482   3.411   4.776  2.5194  1.2877  2.3539
    8SAPS  H20S 1014   5.483   3.320   4.617  1.9874 -2.1138  0.0718
    8SAPS  H20T 1015   5.627   3.403   4.673 -0.3871  0.3239 -0.8478
    8SAPS   C33 1016   5.843   2.399   5.964 -0.3379 -0.0441  0.4378
    8SAPS   H3X 1017   5.763   2.475   5.978 -0.2697  0.1186 -0.0255
    8SAPS   H3Y 1018   5.773   2.313   5.972 -0.9916  0.6112  2.0468
    8SAPS   C34 1019   5.913   2.403   5.827 -0.0968  0.2826 -0.1037
    8SAPS   H4X 1020   5.966   2.306   5.832  0.5421  0.6840  2.8311
    8SAPS   H4Y 1021   5.996   2.477   5.825 -1.4608  1.8996  0.2159
    8SAPS   C35 1022   5.825   2.429   5.709  0.1009  0.2000 -0.3994
    8SAPS   H5X 1023   5.794   2.536   5.707  3.1375  1.1816 -1.4544
    8SAPS   H5Y 1024   5.734   2.365   5.712  2.8478 -4.1407 -0.3095
    8SAPS   C36 1025   5.908   2.409   5.579  0.5192  0.3065  0.4964
    8SAPS   H6X 1026   5.916   2.298   5.574 -2.0469  0.1117 -1.3588
    8SAPS   H6Y 1027   6.011   2.452   5.580  1.6123 -2.1550  0.7180
    8SAPS   C37 1028   5.848   2.458   5.446  0.5450  0.3923  0.2870
    8SAPS   H7X 1029   5.925   2.448   5.366  2.0885  1.4762  1.5717
    8SAPS   H7Y 1030   5.823   2.566   5.447  1.4515  0.6173  0.3656
    8SAPS   C38 1031   5.724   2.382   5.402 -0.1555 -0.1156  0.2363
    8SAPS   H8X 1032   5.640   2.390   5.474 -0.3023  2.3438 -0.1279
    8SAPS   H8Y 1033   5.746   2.273   5.406 -2.7609 -0.7295 -0.3484
    8SAPS   C39 1034   5.685   2.410   5.254  0.3510  0.4329 -0.8766
    8SAPS   H9X 1035   5.658   2.518   5.252 -3.3990 -0.2968  1.3010
    8SAPS   H9Y 1036   5.598   2.345   5.235 -0.1158  0.0206  2.1231
    8SAPS  C310 1037   5.806   2.382   5.162  0.4065  0.6995  0.2408
    8SAPS  H10X 1038   5.861   2.290   5.193 -0.3076 -0.0162 -0.5439
    8SAPS  H10Y 1039   5.881   2.460   5.182  0.3334  0.7607  0.2741
    8SAPS  C311 1040   5.776   2.376   5.014  0.2747 -0.2179  0.9032
    8SAPS  H11X 1041   5.756   2.479   4.977  4.7038  0.4660 -0.1606
    8SAPS  H11Y 1042   5.679   2.323   5.002  1.1895 -1.4649 -1.8788
    8SAPS  C312 1043   5.878   2.305   4.925  0.2760 -0.6877 -0.0178
    8SAPS  H12X 1044   5.897   2.201   4.958  1.2490 -0.3265  0.5967
    8SAPS  H12Y 1045   5.970   2.367   4.924 -1.0868  1.4959  1.1528
    8SAPS  C313 1046   5.831   2.299   4.769 -0.0499  0.4358 -0.3480
    8SAPS  H13X 1047   5.721   2.293   4.762 -0.0262 -0.9082  0.1484
    8SAPS  H13Y 1048   5.869   2.203   4.728  1.1394  0.9932 -0.6162
    8SAPS  C314 1049   5.877   2.421   4.684 -0.0019 -0.3061 -1.4436
    8SAPS  H14X 1050   5.987   2.428   4.698 -0.3598  1.4838  1.4335
    8SAPS  H14Y 1051   5.827   2.510   4.729 -1.7904 -2.1709  0.4973
    8SAPS  C315 1052   5.846   2.423   4.532  0.0106 -0.0758 -0.0469
    8SAPS  H15X 1053   5.739   2.448   4.518 -0.0739  0.6819  1.7685
    8SAPS  H15Y 1054   5.858   2.324   4.482 -2.9231 -0.7682  0.4173
    8SAPS  C316 1055   5.929   2.529   4.459 -0.6711 -0.2606  0.1276
    8SAPS  H16X 1056   6.033   2.534   4.497 -0.7219 -1.3633  0.4750
    8SAPS  H16Y 1057   5.885   2.630   4.472  2.0462  1.0814 -0.5011
    8SAPS  C317 1058   5.938   2.498   4.311  0.3267  0.5105 -0.0677
    8SAPS  H17X 1059   5.976   2.395   4.294 -3.2758 -0.6888 -1.9098
    8SAPS  H17Y 1060   6.013   2.565   4.263  0.2630  0.3138 -0.4419
    8SAPS  C318 1061   5.806   2.516   4.242 -0.3854 -0.7162 -0.3868
    8SAPS  H18X 1062   5.728   2.451   4.287  0.0442 -1.3547 -0.5394
    8SAPS  H18Y 1063   5.810   2.497   4.133  1.5461  1.0074 -0.6727
    8SAPS  H18Z 1064   5.763   2.617   4.258  0.7083 -0.2492 -0.2795
    9SAPS     N 1065   2.261   2.495   6.478  0.2052  0.3627 -0.2920
    9SAPS   HN1 1066   2.199   2.548   6.542  2.1141  2.4435 -0.0502
    9SAPS   HN2 1067   2.290   2.570   6.413 -3.9494  1.7450 -0.8476
    9SAPS   HN3 1068   2.209   2.418   6.430  0.2093  0.8160 -1.0472
    9SAPS   C12 1069   2.373   2.438   6.551 -0.1999 -0.5856  0.8668
    9SAPS  H12A 1070   2.449   2.426   6.474  0.2729  1.1949  1.0217
    9SAPS   C13 1071   2.443   2.540   6.641  0.4119  0.0734 -0.9308
    9SAPS  O13A 1072   2.399   2.656   6.657 -0.6350  0.0612  0.2097
    9SAPS  O13B 1073   2.528   2.499   6.723  0.4854 -0.3649  0.2409
    9SAPS   C11 1074   2.328   2.309   6.616 -0.5674  0.8066  0.1326
    9SAPS  H11A 1075   2.249   2.330   6.691  1.6623  3.3831  1.9772
    9SAPS  H11B 1076   2.423   2.273   6.662 -0.0988 -1.6457 -2.3918
    9SAPS     P 1077   2.238   2.070   6.549  0.2294  0.1581 -0.0375
    9SAPS   O13 1078   2.361   1.985   6.569 -0.1737 -0.3917 -0.3209
    9SAPS   O14 1079   2.138   2.067   6.660 -0.0217  0.8946 -0.1045
    9SAPS   O12 1080   2.280   2.218   6.520  0.0292 -0.2650  0.2772
    9SAPS   O11 1081   2.161   2.033   6.417  0.0879  1.2004  0.4363
    9SAPS    C1 1082   2.147   2.111   6.301  0.1991 -0.0037  0.7685
    9SAPS    HA 1083   2.083   2.056   6.229  0.3362  1.8674 -0.8584
    9SAPS    HB 1084   2.093   2.207   6.314 -0.8519 -0.4788  0.1081
    9SAPS    C2 1085   2.285   2.131   6.226 -0.2644  0.2022 -0.0412
    9SAPS    HS 1086   2.349   2.197   6.289 -1.8400  0.9146  0.8764
    9SAPS   O21 1087   2.264   2.186   6.088  0.3876  0.5139 -0.0589
    9SAPS   C21 1088   2.267   2.317   6.098 -0.1473  0.2773  0.4866
    9SAPS   O22 1089   2.282   2.379   6.200  0.4246 -0.0270  0.5055
    9SAPS   C22 1090   2.241   2.383   5.965 -0.5423 -0.0870  0.7354
    9SAPS   H2R 1091   2.135   2.355   5.944  0.1413 -1.8547 -0.5920
    9SAPS   H2S 1092   2.249   2.494   5.973 -2.8190  0.2120 -0.2629
    9SAPS    C3 1093   2.356   1.993   6.219 -0.7267 -0.2517  0.1073
    9SAPS    HX 1094   2.276   1.933   6.171 -1.0749  0.9614 -0.8994
    9SAPS    HY 1095   2.387   1.943   6.313 -0.7655 -1.3595 -0.4487
    9SAPS   O31 1096   2.470   1.976   6.135  0.2102 -0.0143  0.3136
    9SAPS   C31 1097   2.577   2.044   6.158  0.5423 -1.2543 -0.0397
    9SAPS   O32 1098   2.591   2.125   6.248  0.1902  0.5228  0.2191
    9SAPS   C32 1099   2.685   2.023   6.049 -0.1664 -0.3832  0.2376
    9SAPS   H2X 1100   2.661   1.926   6.001 -0.5373  0.4348 -1.2999
    9SAPS   H2Y 1101   2.780   2.039   6.105  0.7345  3.1419 -1.9979
    9SAPS   C23 1102   2.339   2.334   5.857  0.5686 -0.5173 -0.9003
    9SAPS   H3R 1103   2.315   2.228   5.837 -0.1272 -0.6516  0.5088
    9SAPS   H3S 1104   2.443   2.336   5.897 -0.4464 -0.6857  2.0388
    9SAPS   C24 1105   2.326   2.427   5.730  0.6628  0.1849 -0.7914
    9SAPS   H4R 1106   2.406   2.394   5.660  1.7162  1.6346 -0.3143
    9SAPS   H4S 1107   2.338   2.536   5.748  1.4575  0.2143 -1.4391
    9SAPS   C25 1108   2.192   2.401   5.662 -0.4922  0.0221 -0.0087
    9SAPS   H5R 1109   2.161   2.296   5.645 -0.2064  0.1232 -1.2505
    9SAPS   C26 1110   2.108   2.504   5.625 -0.2828  0.3781  0.9802
    9SAPS   H6R 1111   2.015   2.486   5.570  0.1587 -2.6925  1.0634
    9SAPS   C27 1112   2.140   2.649   5.631 -0.2703  0.2236  0.3000
    9SAPS   H7R 1113   2.094   2.712   5.553  1.2976 -0.0237 -0.8651
    9SAPS   H7S 1114   2.246   2.663   5.604 -0.0748 -2.1363 -0.4138
    9SAPS   C28 1115   2.094   2.703   5.761  0.4714  0.1256 -0.5091
    9SAPS   H8R 1116   2.019   2.645   5.816 -0.8324  1.5358 -0.7477
    9SAPS   C29 1117   2.135   2.823   5.806  0.6622 -0.0563 -0.2611
    9SAPS   H9R 1118   2.104   2.840   5.910 -0.2105 -1.5362 -0.2414
    9SAPS  C210 1119   2.245   2.907   5.753 -0.3157 -0.1737  0.9661
    9SAPS  H10R 1120   2.330   2.853   5.705  0.7170  2.3445 -0.2655
    9SAPS  H10S 1121   2.284   2.972   5.834 -0.4619 -0.9468  1.6686
    9SAPS  C211 1122   2.190   3.002   5.647  0.1577  0.4946  0.1518
    9SAPS  H11R 1123   2.116   3.069   5.694 -3.0322 -0.6340 -2.7948
    9SAPS  C212 1124   2.226   3.022   5.516 -1.1628 -0.1698 -0.1332
    9SAPS  H12R 1125   2.161   3.085   5.454 -0.2934 -0.4937 -1.3990
    9SAPS  C213 1126   2.323   2.945   5.428 -0.2585  0.2049 -0.4190
    9SAPS  H13R 1127   2.270   2.867   5.370 -0.3300  0.0367 -0.1272
    9SAPS  H13S 1128   2.400   2.896   5.491 -0.3247 -1.2075 -1.3707
    9SAPS  C214 1129   2.416   3.027   5.340 -0.0328 -0.1183  0.0440
    9SAPS  H14R 1130   2.522   3.021   5.370 -0.3798 -0.5922  1.2692
    9SAPS  C215 1131   2.391   3.075   5.220  0.9620  0.1202  0.2229
    9SAPS  H15R 1132   2.467   3.136   5.167 -1.9875  2.3350 -1.7959
    9SAPS  C216 1133   2.260   3.069   5.146  0.2731  0.0559  1.0916
    9SAPS  H16R 1134   2.215   3.169   5.129 -1.4331 -1.0387 -1.4008
    9SAPS  H16S 1135   2.175   3.022   5.200 -1.4383  0.7761 -0.8249
    9SAPS  C217 1136   2.254   3.016   4.996 -0.0959  0.5585  0.3017
    9SAPS  H17R 1137   2.149   3.013   4.958  0.0720 -1.0646 -0.1044
    9SAPS  H17S 1138   2.310   2.923   4.975  2.0130  1.8398 -0.0079
    9SAPS  C218 1139   2.339   3.117   4.909 -0.2220  0.4705  0.3124
    9SAPS  H18R 1140   2.447   3.104   4.926 -0.4831  0.0930  1.7947
    9SAPS  H18S 1141   2.314   3.224   4.925  0.8746  0.8732 -0.5490
    9SAPS  C219 1142   2.302   3.092   4.765 -0.3771  0.5108  0.2100
    9SAPS  H19R 1143   2.194   3.100   4.741 -0.0623  0.1117 -1.4912
    9SAPS  H19S 1144   2.342   2.990   4.746  1.5485  0.9727  1.4537
    9SAPS  C220 1145   2.380   3.194   4.684 -0.1940  0.5683 -0.1151
    9SAPS  H20R 1146   2.356   3.181   4.576  0.1182 -0.1802 -0.1010
    9SAPS  H20S 1147   2.489   3.185   4.702 -0.5026  0.5246  1.9976
    9SAPS  H20T 1148   2.372   3.301   4.711 -1.4213  0.3016  0.6402
    9SAPS   C33 1149   2.683   2.136   5.945 -0.0814 -1.2772 -0.0966
    9SAPS   H3X 1150   2.583   2.154   5.899  0.6257 -0.8426 -1.5289
    9SAPS   H3Y 1151   2.755   2.103   5.866  1.3775 -1.3812  1.2434
    9SAPS   C34 1152   2.727   2.275   6.006 -0.5952  0.9589 -0.1187
    9SAPS   H4X 1153   2.820   2.265   6.065 -1.6131 -3.1941  1.1598
    9SAPS   H4Y 1154   2.642   2.308   6.070 -0.2657  2.0308 -0.2269
    9SAPS   C35 1155   2.750   2.373   5.890  0.0138  0.7165  0.1434
    9SAPS   H5X 1156   2.774   2.475   5.929  0.4936  0.0742  1.5924
    9SAPS   H5Y 1157   2.653   2.381   5.836  0.2986  0.6836 -0.3781
    9SAPS   C36 1158   2.856   2.337   5.785 -0.5482 -0.9927  0.9008
    9SAPS   H6X 1159   2.862   2.429   5.722  3.0375  0.1252  2.6242
    9SAPS   H6Y 1160   2.818   2.250   5.727 -1.6783  1.7384 -2.8489
    9SAPS   C37 1161   2.988   2.299   5.850 -0.4828 -0.6543 -0.0508
    9SAPS   H7X 1162   2.968   2.210   5.914  1.4127 -0.8210  0.3704
    9SAPS   H7Y 1163   3.023   2.386   5.910 -0.6657 -0.7208  0.1565
    9SAPS   C38 1164   3.091   2.260   5.738 -0.5248 -0.2863 -0.5588
    9SAPS   H8X 1165   3.040   2.180   5.680 -1.0963 -0.8646  0.7069
    9SAPS   H8Y 1166   3.176   2.209   5.786 -0.0749  1.3042  0.3892
    9SAPS   C39 1167   3.137   2.376   5.652 -0.0859 -0.3823  1.1238
    9SAPS   H9X 1168   3.176   2.463   5.710 -1.7257  1.7081 -0.7701
    9SAPS   H9Y 1169   3.048   2.418   5.600 -0.1125 -1.4232  0.2985
    9SAPS  C310 1170   3.248   2.340   5.551 -0.0137 -0.0815 -0.1672
    9SAPS  H10X 1171   3.208   2.258   5.487  1.3936 -1.2975  0.4455
    9SAPS  H10Y 1172   3.335   2.300   5.607  0.1417  0.1064 -0.2758
    9SAPS  C311 1173   3.298   2.444   5.451  0.0731 -0.2837 -0.8080
    9SAPS  H11X 1174   3.339   2.527   5.511 -1.8134 -1.1780  1.9293
    9SAPS  H11Y 1175   3.212   2.507   5.420  0.5703  1.9681  1.9927
    9SAPS  C312 1176   3.385   2.385   5.341  0.1827 -0.4472 -0.5158
    9SAPS  H12X 1177   3.347   2.311   5.268 -0.6222 -1.3952  0.8380
    9SAPS  H12Y 1178   3.470   2.330   5.387  0.3506 -0.6583 -1.0693
    9SAPS  C313 1179   3.433   2.498   5.243 -0.0993 -0.2391  0.3033
    9SAPS  H13X 1180   3.464   2.593   5.291 -0.4902 -0.8641  1.8624
    9SAPS  H13Y 1181   3.347   2.518   5.176  0.7095 -3.3953 -1.9035
    9SAPS  C314 1182   3.537   2.460   5.134  0.5312  0.4412  0.6364
    9SAPS  H14X 1183   3.638   2.439   5.175  1.2630  1.2953 -0.6485
    9SAPS  H14Y 1184   3.548   2.555   5.077  1.9042  0.1782  0.4261
    9SAPS  C315 1185   3.496   2.337   5.057 -0.7302  0.6490 -0.0278
    9SAPS  H15X 1186   3.386   2.344   5.042 -1.0046  0.3977  1.7259
    9SAPS  H15Y 1187   3.509   2.249   5.124 -1.9541  0.9655  0.6643
    9SAPS  C316 1188   3.556   2.319   4.917  0.4771  0.8231  0.3221
    9SAPS  H16X 1189   3.668   2.318   4.914  0.4582 -0.3760 -1.3613
    9SAPS  H16Y 1190   3.524   2.399   4.848 -0.8928  1.3504  1.5229
    9SAPS  C317 1191   3.513   2.183   4.850 -0.4267 -0.4403 -0.2591
    9SAPS  H17X 1192   3.404   2.169   4.866 -0.4243 -2.3650 -1.6919
    9SAPS  H17Y 1193   3.566   2.112   4.918 -0.8715  1.1878  1.9224
    9SAPS  C318 1194   3.539   2.162   4.704 -0.0522 -0.1708 -0.5888
    9SAPS  H18X 1195   3.646   2.136   4.691 -0.1635 -0.4995 -0.8540
    9SAPS  H18Y 1196   3.516   2.244   4.632 -0.0813 -1.6068 -2.2941
    9SAPS  H18Z 1197   3.479   2.078   4.661 -0.0446  0.5903 -2.1616
   10SAPS     N 1198   1.590   2.642   6.858 -0.6288 -0.1776 -0.0878
   10SAPS   HN1 1199   1.628   2.727   6.906 -0.2360 -0.9698  1.0487
   10SAPS   HN2 1200   1.510   2.603   6.912  0.0289 -1.0344  0.2952
   10SAPS   HN3 1201   1.665   2.570   6.864 -1.3324 -0.8009  3.3858
   10SAPS   C12 1202   1.556   2.656   6.716 -0.5722  0.5978 -1.7885
   10SAPS  H12A 1203   1.468   2.596   6.697  1.2722 -2.5221 -1.1520
   10SAPS   C13 1204   1.542   2.803   6.667  0.0591  0.2613 -0.1947
   10SAPS  O13A 1205   1.538   2.894   6.756 -0.2929 -0.3967  0.1304
   10SAPS  O13B 1206   1.475   2.810   6.564  0.6890  0.1765  0.2958
   10SAPS   C11 1207   1.661   2.584   6.633  0.2622  0.2093 -0.2855
   10SAPS  H11A 1208   1.626   2.584   6.527 -1.1780  0.0133  0.1613
   10SAPS  H11B 1209   1.642   2.477   6.654  0.3572  0.2016 -0.2375
   10SAPS     P 1210   1.918   2.569   6.566 -0.0174 -0.3159  0.0376
   10SAPS   O13 1211   2.045   2.630   6.610  0.1686 -0.2701 -0.3254
   10SAPS   O14 1212   1.920   2.424   6.573 -0.3333  0.1679  0.1092
   10SAPS   O12 1213   1.795   2.623   6.650 -0.1177  0.4600  0.1578
   10SAPS   O11 1214   1.891   2.619   6.418 -0.2577  0.1423  0.2005
   10SAPS    C1 1215   1.849   2.751   6.385 -1.4931 -0.3475  0.3871
   10SAPS    HA 1216   1.753   2.745   6.329 -2.6197  0.6875  2.1235
   10SAPS    HB 1217   1.833   2.815   6.474 -2.4268 -0.3368  0.2182
   10SAPS    C2 1218   1.961   2.815   6.295 -0.8357 -0.1155 -0.5928
   10SAPS    HS 1219   2.053   2.841   6.352 -0.0591 -2.6365 -0.5881
   10SAPS   O21 1220   1.917   2.937   6.231  0.4032  0.9296  0.4763
   10SAPS   C21 1221   1.933   3.049   6.291  0.2705 -0.1373 -0.0155
   10SAPS   O22 1222   1.999   3.066   6.392 -0.7171 -0.0086  0.5194
   10SAPS   C22 1223   1.852   3.150   6.210 -0.2593  0.1777  0.4396
   10SAPS   H2R 1224   1.898   3.168   6.111 -0.1679 -0.1703  0.4175
   10SAPS   H2S 1225   1.750   3.112   6.187  0.2162 -0.1580 -1.2881
   10SAPS    C3 1226   2.023   2.712   6.191 -0.6793 -0.1934 -0.6011
   10SAPS    HX 1227   1.942   2.688   6.120  0.4114 -0.9877 -1.6245
   10SAPS    HY 1228   2.039   2.611   6.235 -2.2054 -1.3418 -2.5572
   10SAPS   O31 1229   2.144   2.762   6.126 -0.5856 -0.2700  0.4078
   10SAPS   C31 1230   2.255   2.747   6.200 -0.4793  0.2818  0.1761
   10SAPS   O32 1231   2.255   2.708   6.314  0.4506  0.2574 -0.1466
   10SAPS   C32 1232   2.369   2.807   6.132  0.0297 -0.9005 -0.0766
   10SAPS   H2X 1233   2.449   2.811   6.208  0.0981 -4.3114  0.1889
   10SAPS   H2Y 1234   2.335   2.907   6.096 -2.4243 -0.7402  2.3483
   10SAPS   C23 1235   1.837   3.291   6.280 -0.4396 -0.0449  0.1180
   10SAPS   H3R 1236   1.938   3.337   6.279  0.2779 -1.4376  1.8701
   10SAPS   H3S 1237   1.830   3.279   6.391  1.0768  1.2698  0.3827
   10SAPS   C24 1238   1.730   3.389   6.226  0.0135  0.7103  0.1363
   10SAPS   H4R 1239   1.725   3.469   6.302 -2.6609 -0.6802  1.5947
   10SAPS   H4S 1240   1.635   3.332   6.236 -0.3635  1.3734  0.3938
   10SAPS   C25 1241   1.754   3.441   6.087 -0.8061  0.5807 -0.0051
   10SAPS   H5R 1242   1.702   3.391   6.004  0.7441 -0.1382 -0.5995
   10SAPS   C26 1243   1.816   3.560   6.057  0.2219  0.3846  0.1759
   10SAPS   H6R 1244   1.830   3.578   5.949  1.1405 -0.4476  0.1314
   10SAPS   C27 1245   1.885   3.660   6.154  0.0970  0.0083 -0.5653
   10SAPS   H7R 1246   1.993   3.641   6.171  0.2214  2.6559  2.6180
   10SAPS   H7S 1247   1.850   3.647   6.259  1.8438 -0.1202  0.0282
   10SAPS   C28 1248   1.862   3.807   6.127 -0.9553  0.1591  0.5469
   10SAPS   H8R 1249   1.779   3.844   6.189  0.1622 -0.1947  2.3296
   10SAPS   C29 1250   1.922   3.880   6.033  0.6874  0.1483  0.0453
   10SAPS   H9R 1251   1.896   3.987   6.032 -2.3372 -0.4884 -0.2423
   10SAPS  C210 1252   2.014   3.830   5.920  0.1872 -0.0460  0.4741
   10SAPS  H10R 1253   1.969   3.837   5.818  1.4921  1.7072 -0.0184
   10SAPS  H10S 1254   2.035   3.725   5.949 -1.6657 -0.1645  1.5394
   10SAPS  C211 1255   2.145   3.900   5.914  0.4390 -0.1732  0.0845
   10SAPS  H11R 1256   2.143   4.002   5.955  1.9339  0.0022 -0.2061
   10SAPS  C212 1257   2.261   3.862   5.860 -0.0125  1.0149 -0.3078
   10SAPS  H12R 1258   2.350   3.927   5.863  0.1363  1.0452 -3.0762
   10SAPS  C213 1259   2.296   3.732   5.782  0.2727 -0.1234  0.3616
   10SAPS  H13R 1260   2.208   3.709   5.719  0.9676  1.0652 -1.0985
   10SAPS  H13S 1261   2.309   3.647   5.853 -2.9390  0.6335  2.0445
   10SAPS  C214 1262   2.417   3.731   5.702  0.2390  0.0100  0.1936
   10SAPS  H14R 1263   2.496   3.801   5.733 -0.4545 -0.2340  2.7218
   10SAPS  C215 1264   2.431   3.665   5.583 -0.5819 -0.8969  0.6679
   10SAPS  H15R 1265   2.527   3.669   5.530 -0.8043 -1.2801  0.2287
   10SAPS  C216 1266   2.329   3.573   5.521  0.5331  0.1485  0.3257
   10SAPS  H16R 1267   2.241   3.627   5.480  0.9648  0.4903 -0.1625
   10SAPS  H16S 1268   2.288   3.499   5.593  2.3852  0.1654  1.4345
   10SAPS  C217 1269   2.402   3.486   5.408  0.4675  0.1162  0.2442
   10SAPS  H17R 1270   2.331   3.405   5.381  0.3259  0.2036  0.3483
   10SAPS  H17S 1271   2.490   3.433   5.450 -0.3823 -0.5654  1.2183
   10SAPS  C218 1272   2.431   3.555   5.274  0.0420 -0.3005  0.3948
   10SAPS  H18R 1273   2.510   3.629   5.299  0.9883  0.1309 -3.2025
   10SAPS  H18S 1274   2.350   3.622   5.240 -0.2225 -1.1215 -0.6469
   10SAPS  C219 1275   2.480   3.453   5.170 -0.3775 -0.3729  0.2567
   10SAPS  H19R 1276   2.441   3.353   5.201 -1.7410  0.1347  0.2513
   10SAPS  H19S 1277   2.590   3.451   5.181 -0.5537 -1.2031  2.3167
   10SAPS  C220 1278   2.428   3.486   5.031  0.2743 -0.0898  0.3851
   10SAPS  H20R 1279   2.481   3.437   4.946 -0.0005 -1.4558  0.9683
   10SAPS  H20S 1280   2.430   3.596   5.017  1.4967 -0.1542 -0.1622
   10SAPS  H20T 1281   2.320   3.461   5.023 -0.1758  1.2043  1.9297
   10SAPS   C33 1282   2.430   2.711   6.025  0.2577 -0.0627 -0.2456
   10SAPS   H3X 1283   2.334   2.686   5.974  0.3480 -0.2680 -0.3180
   10SAPS   H3Y 1284   2.464   2.616   6.072 -0.5926  0.2685  1.0770
   10SAPS   C34 1285   2.535   2.779   5.941 -0.0011 -0.4133  0.0277
   10SAPS   H4X 1286   2.626   2.798   6.002  0.4388 -0.0647 -0.7293
   10SAPS   H4Y 1287   2.512   2.881   5.905 -1.6370 -0.7106  0.1576
   10SAPS   C35 1288   2.572   2.690   5.821 -0.4516  0.1295  0.5070
   10SAPS   H5X 1289   2.484   2.687   5.754  0.0325 -1.9331 -0.0947
   10SAPS   H5Y 1290   2.594   2.585   5.847 -3.0921 -0.9638 -1.2865
   10SAPS   C36 1291   2.691   2.757   5.740  0.3100  0.5181  0.1481
   10SAPS   H6X 1292   2.772   2.750   5.816 -1.2754  1.2878  2.0051
   10SAPS   H6Y 1293   2.675   2.866   5.725  0.8274  0.5179 -0.4543
   10SAPS   C37 1294   2.724   2.687   5.617 -0.1832  0.2049  0.0920
   10SAPS   H7X 1295   2.731   2.576   5.621 -2.6636 -0.0495 -0.5035
   10SAPS   H7Y 1296   2.822   2.723   5.579  0.3102 -0.5014  0.6529
   10SAPS   C38 1297   2.629   2.726   5.505  0.3750 -0.0279 -0.0011
   10SAPS   H8X 1298   2.589   2.828   5.527  1.0653  0.0093  1.1784
   10SAPS   H8Y 1299   2.540   2.660   5.505  0.4152 -0.3238  3.8615
   10SAPS   C39 1300   2.693   2.716   5.364  0.7135  0.0193 -0.3744
   10SAPS   H9X 1301   2.766   2.797   5.339  0.2936  0.0969 -1.4202
   10SAPS   H9Y 1302   2.618   2.726   5.283 -0.6910  0.9971  0.9985
   10SAPS  C310 1303   2.775   2.587   5.336  0.5846  0.6904  0.1402
   10SAPS  H10X 1304   2.697   2.508   5.331  0.5361  0.6810  0.9564
   10SAPS  H10Y 1305   2.847   2.575   5.420  0.2322  2.6613  0.7790
   10SAPS  C311 1306   2.844   2.586   5.199 -0.0714  0.6677  0.7471
   10SAPS  H11X 1307   2.922   2.665   5.188  0.7377  0.4473  4.0034
   10SAPS  H11Y 1308   2.774   2.601   5.114  2.3406 -0.7916 -1.6873
   10SAPS  C312 1309   2.920   2.451   5.181  0.2388  0.4466 -0.1153
   10SAPS  H12X 1310   2.839   2.376   5.192  1.9431 -1.1527  2.9926
   10SAPS  H12Y 1311   2.993   2.441   5.264 -1.0996 -1.6758  0.8984
   10SAPS  C313 1312   2.988   2.430   5.051 -0.1806  0.0812 -0.1581
   10SAPS  H13X 1313   3.086   2.482   5.060 -0.3627  0.2057  1.3204
   10SAPS  H13Y 1314   2.932   2.458   4.959 -1.0807  0.3443  0.4567
   10SAPS  C314 1315   3.035   2.287   5.040 -0.0847  0.6058  0.2361
   10SAPS  H14X 1316   2.949   2.219   5.056 -0.7105  1.9516  3.4889
   10SAPS  H14Y 1317   3.110   2.268   5.120  0.4743  1.9751  0.0615
   10SAPS  C315 1318   3.101   2.251   4.906  0.8335  0.5516 -0.0557
   10SAPS  H15X 1319   3.175   2.171   4.928 -0.3536 -1.1003 -1.7831
   10SAPS  H15Y 1320   3.163   2.337   4.871 -0.4235  1.1776 -0.8229
   10SAPS  C316 1321   3.004   2.203   4.801  0.6932 -0.0717  0.4697
   10SAPS  H16X 1322   2.901   2.227   4.836  0.0929 -1.2921 -0.3582
   10SAPS  H16Y 1323   3.008   2.092   4.797 -0.4850 -0.1145 -0.1110
   10SAPS  C317 1324   3.020   2.271   4.661 -0.2509  0.2313  0.5107
   10SAPS  H17X 1325   3.025   2.377   4.692  0.5556  0.0000  1.2319
   10SAPS  H17Y 1326   2.931   2.246   4.599  0.0564  1.7739 -0.5988
   10SAPS  C318 1327   3.157   2.228   4.595 -0.2327 -0.5671  0.0091
   10SAPS  H18X 1328   3.246   2.243   4.660 -0.8310 -1.1472  0.9888
   10SAPS  H18Y 1329   3.173   2.289   4.503 -2.2745  0.0463 -0.0095
   10SAPS  H18Z 1330   3.151   2.118   4.581 -1.0745 -0.3062 -2.1271
   11SAPS     N 1331   3.957   0.604   2.152 -0.0878 -0.0065 -0.1579
   11SAPS   HN1 1332   3.869   0.659   2.163  1.0727  2.2408 -1.5082
   11SAPS   HN2 1333   4.022   0.635   2.226  0.2553 -0.8915 -0.0740
   11SAPS   HN3 1334   4.001   0.626   2.061  1.7648 -0.5941  0.5614
   11SAPS   C12 1335   3.931   0.458   2.162 -0.1364 -0.2142  0.1761
   11SAPS  H12A 1336   3.879   0.434   2.070 -0.3636  0.7454  0.0475
   11SAPS   C13 1337   4.052   0.373   2.171 -0.3927  0.9832  0.2317
   11SAPS  O13A 1338   4.169   0.419   2.167  0.0652 -0.1854  0.3145
   11SAPS  O13B 1339   4.033   0.251   2.182  0.0927 -0.0950 -0.9050
   11SAPS   C11 1340   3.829   0.420   2.279 -0.4179  0.1023  0.4551
   11SAPS  H11A 1341   3.887   0.424   2.373 -3.2939 -0.4850  2.4012
   11SAPS  H11B 1342   3.785   0.319   2.265  0.0317 -0.3009  1.7580
   11SAPS     P 1343   3.567   0.474   2.270 -0.3135  0.2171  0.0828
   11SAPS   O13 1344   3.489   0.595   2.230  0.2806  0.2529  0.3227
   11SAPS   O14 1345   3.550   0.346   2.195 -0.7895 -0.1248 -0.1775
   11SAPS   O12 1346   3.717   0.508   2.278  0.5390  0.5803  0.6842
   11SAPS   O11 1347   3.540   0.432   2.416  0.2888  0.7408  0.2319
   11SAPS    C1 1348   3.540   0.518   2.529 -0.0522 -0.6073 -0.0921
   11SAPS    HA 1349   3.635   0.498   2.583  0.7807  1.6972 -0.6034
   11SAPS    HB 1350   3.542   0.624   2.497  0.5622 -0.9477 -1.2376
   11SAPS    C2 1351   3.428   0.492   2.641  0.8298 -0.0023 -0.7261
   11SAPS    HS 1352   3.441   0.555   2.732  0.2102 -0.6671 -0.1579
   11SAPS   O21 1353   3.423   0.355   2.693 -0.8127  0.3236  0.3955
   11SAPS   C21 1354   3.530   0.323   2.768  0.0236 -1.0241  1.0339
   11SAPS   O22 1355   3.616   0.399   2.807 -1.0734 -0.1704  0.2271
   11SAPS   C22 1356   3.538   0.172   2.778  0.1910  0.1510  0.0748
   11SAPS   H2R 1357   3.476   0.129   2.697  1.6117  1.4291 -1.7806
   11SAPS   H2S 1358   3.644   0.151   2.753  0.3947  1.4657 -0.2480
   11SAPS    C3 1359   3.286   0.523   2.583  0.6680  0.0234 -0.0615
   11SAPS    HX 1360   3.271   0.449   2.501 -2.0824 -0.6643  0.9504
   11SAPS    HY 1361   3.300   0.622   2.535  3.6517 -2.1576 -4.3441
   11SAPS   O31 1362   3.178   0.508   2.678  0.1224 -0.3321 -0.4871
   11SAPS   C31 1363   3.116   0.396   2.680 -0.8055  0.1311 -0.3160
   11SAPS   O32 1364   3.154   0.288   2.636  0.4485  0.3722 -0.6847
   11SAPS   C32 1365   2.995   0.401   2.777  0.0494 -0.3733  0.3771
   11SAPS   H2X 1366   2.921   0.461   2.719  2.7507  1.0096 -1.8305
   11SAPS   H2Y 1367   3.024   0.463   2.864  1.3250 -2.3771  1.4431
   11SAPS   C23 1368   3.522   0.124   2.919 -0.1882 -0.3810 -0.4854
   11SAPS   H3R 1369   3.415   0.123   2.950 -0.5376  1.5264 -1.4926
   11SAPS   H3S 1370   3.590   0.189   2.978  0.1592  0.4456 -1.7742
   11SAPS   C24 1371   3.576  -0.019   2.949  0.5892  0.0210 -0.0211
   11SAPS   H4R 1372   3.687  -0.023   2.942  0.5711 -0.1818 -0.1842
   11SAPS   H4S 1373   3.533  -0.092   2.877 -0.0685  0.9270 -0.5615
   11SAPS   C25 1374   3.529  -0.066   3.084 -1.4241 -0.4015 -0.1974
   11SAPS   H5R 1375   3.423  -0.037   3.095 -1.1361  0.9251 -0.7238
   11SAPS   C26 1376   3.597  -0.132   3.178 -0.6349  0.9323  0.2311
   11SAPS   H6R 1377   3.546  -0.177   3.264 -1.0753  0.7992 -0.0959
   11SAPS   C27 1378   3.738  -0.177   3.180 -0.3403  0.0601 -0.0990
   11SAPS   H7R 1379   3.774  -0.163   3.285 -0.0772 -0.8423 -0.0542
   11SAPS   H7S 1380   3.799  -0.129   3.101  2.2295 -0.7462  1.2658
   11SAPS   C28 1381   3.743  -0.325   3.159  0.1754 -0.1659 -0.8510
   11SAPS   H8R 1382   3.742  -0.361   3.055 -0.0347 -1.6267 -0.3678
   11SAPS   C29 1383   3.742  -0.425   3.247  0.3384 -0.3447  0.4522
   11SAPS   H9R 1384   3.735  -0.531   3.217  0.5596 -0.2471  0.0516
   11SAPS  C210 1385   3.737  -0.410   3.395 -0.1630 -0.0033 -0.5270
   11SAPS  H10R 1386   3.682  -0.326   3.442 -2.2504 -1.8084  0.4522
   11SAPS  H10S 1387   3.838  -0.386   3.436 -0.3997 -0.5058  0.3774
   11SAPS  C211 1388   3.684  -0.536   3.460 -0.3674 -0.1951  0.0542
   11SAPS  H11R 1389   3.599  -0.579   3.405 -1.2864  0.7356  0.6991
   11SAPS  C212 1390   3.716  -0.591   3.581 -0.2664  0.3675  0.3965
   11SAPS  H12R 1391   3.672  -0.689   3.605 -1.0259 -0.1060 -2.5062
   11SAPS  C213 1392   3.815  -0.543   3.683 -0.9393 -0.0643 -0.9169
   11SAPS  H13R 1393   3.864  -0.449   3.653 -0.9999  0.2485 -0.0653
   11SAPS  H13S 1394   3.892  -0.621   3.702  0.0334  0.8964 -0.8152
   11SAPS  C214 1395   3.750  -0.513   3.809  0.2974 -0.1058  0.2167
   11SAPS  H14R 1396   3.640  -0.505   3.806  0.3796  0.9797 -1.2905
   11SAPS  C215 1397   3.816  -0.486   3.922  1.1663 -0.0510  0.3878
   11SAPS  H15R 1398   3.751  -0.467   4.008 -0.8358 -1.1152 -0.8100
   11SAPS  C216 1399   3.960  -0.492   3.949  0.5180  0.3554 -0.4812
   11SAPS  H16R 1400   3.986  -0.400   4.007 -0.8066  1.0815 -0.9933
   11SAPS  H16S 1401   4.023  -0.505   3.858 -0.0719 -1.9855 -0.6143
   11SAPS  C217 1402   3.976  -0.614   4.036 -0.3502 -0.4925 -0.5877
   11SAPS  H17R 1403   4.082  -0.644   4.045  0.0843  0.4523 -2.2151
   11SAPS  H17S 1404   3.930  -0.702   3.985 -1.2022  0.9614 -2.4388
   11SAPS  C218 1405   3.924  -0.596   4.183 -0.9521 -0.8982 -0.6656
   11SAPS  H18R 1406   3.940  -0.690   4.240  0.9091 -0.7782 -0.9449
   11SAPS  H18S 1407   3.814  -0.581   4.179 -1.3102 -2.0820  2.2058
   11SAPS  C219 1408   3.983  -0.479   4.263 -0.0174  0.1705  0.3075
   11SAPS  H19R 1409   3.982  -0.385   4.203 -0.6772 -0.6600 -1.0167
   11SAPS  H19S 1410   4.090  -0.499   4.287  0.7026  2.7446 -0.4150
   11SAPS  C220 1411   3.910  -0.459   4.391 -0.4022  0.3326  0.8016
   11SAPS  H20R 1412   3.913  -0.551   4.453  0.4580  0.1283  0.4653
   11SAPS  H20S 1413   3.805  -0.443   4.355  0.6727  0.2109 -2.7620
   11SAPS  H20T 1414   3.961  -0.381   4.451  0.8279 -0.6946  1.1049
   11SAPS   C33 1415   2.934   0.270   2.830  0.5676 -0.2972 -0.0396
   11SAPS   H3X 1416   2.891   0.210   2.747 -0.0343 -0.4856  0.4013
   11SAPS   H3Y 1417   2.846   0.292   2.894 -2.4504  0.1947 -3.9182
   11SAPS   C34 1418   3.027   0.162   2.900 -0.2838 -0.3432  0.1016
   11SAPS   H4X 1419   3.091   0.109   2.826  0.7206 -0.6793  1.1827
   11SAPS   H4Y 1420   2.958   0.083   2.935  0.9105 -1.5230 -0.1361
   11SAPS   C35 1421   3.114   0.224   3.006 -0.1439 -0.2787 -0.3722
   11SAPS   H5X 1422   3.068   0.305   3.068  0.0935 -0.1980 -0.3004
   11SAPS   H5Y 1423   3.195   0.277   2.952 -0.7603  0.5378 -0.5272
   11SAPS   C36 1424   3.172   0.130   3.111  0.3861  0.5003  0.5078
   11SAPS   H6X 1425   3.236   0.053   3.065 -0.0044  0.0129  0.7642
   11SAPS   H6Y 1426   3.089   0.071   3.157  1.0369 -1.2847 -0.5206
   11SAPS   C37 1427   3.261   0.201   3.210  0.3351 -0.2049 -0.1871
   11SAPS   H7X 1428   3.207   0.290   3.251 -1.6729 -1.0989 -0.7734
   11SAPS   H7Y 1429   3.356   0.240   3.168  0.2029 -0.4515 -0.7121
   11SAPS   C38 1430   3.300   0.118   3.334 -0.2012  0.3796  0.3067
   11SAPS   H8X 1431   3.374   0.041   3.303 -1.7818 -1.2815  0.4399
   11SAPS   H8Y 1432   3.211   0.067   3.377  0.7719 -3.3795 -1.6503
   11SAPS   C39 1433   3.378   0.204   3.439  0.3075 -0.6113  0.1592
   11SAPS   H9X 1434   3.318   0.297   3.449 -1.9646 -1.9228 -0.5802
   11SAPS   H9Y 1435   3.470   0.240   3.388  0.6246 -2.0513 -0.3517
   11SAPS  C310 1436   3.384   0.126   3.570  0.1986 -0.4735 -1.0547
   11SAPS  H10X 1437   3.424   0.025   3.546 -0.8359 -1.1171 -0.1324
   11SAPS  H10Y 1438   3.286   0.113   3.620  0.9466  0.7985  0.8484
   11SAPS  C311 1439   3.484   0.188   3.660  0.1180  0.0891  0.0762
   11SAPS  H11X 1440   3.578   0.206   3.602 -0.7199 -1.1309 -1.7632
   11SAPS  H11Y 1441   3.521   0.123   3.742  2.1546  0.4084 -0.5390
   11SAPS  C312 1442   3.451   0.321   3.733  0.2696  0.7039 -0.3111
   11SAPS  H12X 1443   3.398   0.376   3.652 -0.9150 -1.9409 -1.4559
   11SAPS  H12Y 1444   3.545   0.378   3.749  0.0940  1.1144 -0.7310
   11SAPS  C313 1445   3.372   0.296   3.867 -0.2046  0.1638 -0.1298
   11SAPS  H13X 1446   3.345   0.391   3.917 -1.5168 -0.4546  0.3901
   11SAPS  H13Y 1447   3.443   0.247   3.937  0.8516 -0.9398 -1.9091
   11SAPS  C314 1448   3.251   0.202   3.849  0.3965 -0.5102  0.9739
   11SAPS  H14X 1449   3.271   0.099   3.810 -0.3282 -0.7105  1.1146
   11SAPS  H14Y 1450   3.190   0.243   3.766  1.4990 -2.6833 -1.0652
   11SAPS  C315 1451   3.162   0.182   3.966  0.7073 -0.5746 -0.4552
   11SAPS  H15X 1452   3.066   0.135   3.937  0.3003 -0.6840  1.0165
   11SAPS  H15Y 1453   3.152   0.286   4.004  2.4164 -1.1578  1.8531
   11SAPS  C316 1454   3.230   0.097   4.079 -0.2911 -0.4432 -0.2364
   11SAPS  H16X 1455   3.299   0.157   4.142  2.6773 -2.0654 -1.7053
   11SAPS  H16Y 1456   3.294   0.027   4.020  0.6416  1.8551 -2.1144
   11SAPS  C317 1457   3.127   0.037   4.163  0.1147 -0.2067 -0.4305
   11SAPS  H17X 1458   3.046   0.113   4.176  0.0896 -0.0881 -1.2211
   11SAPS  H17Y 1459   3.168   0.007   4.261 -1.4642 -1.8563 -0.2207
   11SAPS  C318 1460   3.055  -0.088   4.099  0.1928 -0.2215  0.4061
   11SAPS  H18X 1461   3.126  -0.173   4.095 -0.4058 -0.7768  1.1420
   11SAPS  H18Y 1462   3.021  -0.079   3.994  0.8874 -0.2472  0.1772
   11SAPS  H18Z 1463   2.966  -0.122   4.156 -0.8815 -0.3721 -1.2962
   12SAPS     N 1464   2.920   6.793   2.140  0.2740 -0.6498 -0.3941
   12SAPS   HN1 1465   2.825   6.781   2.181  0.5020 -0.8580  0.0788
   12SAPS   HN2 1466   2.995   6.779   2.211  1.3133  1.0567 -1.0805
   12SAPS   HN3 1467   2.928   6.891   2.105  0.7629 -0.5093  0.0946
   12SAPS   C12 1468   2.947   6.695   2.029  0.3737  0.0996  0.3950
   12SAPS  H12A 1469   2.891   6.722   1.941 -0.8227 -0.1082  1.0641
   12SAPS   C13 1470   3.090   6.669   1.997 -0.5897 -0.0945  0.9332
   12SAPS  O13A 1471   3.181   6.741   2.052  0.2419  0.6058  0.1593
   12SAPS  O13B 1472   3.115   6.608   1.888 -0.1492 -0.0482 -0.2878
   12SAPS   C11 1473   2.886   6.559   2.077 -0.4135 -0.8684  0.0285
   12SAPS  H11A 1474   2.920   6.548   2.182 -0.6428 -1.1136  0.0765
   12SAPS  H11B 1475   2.934   6.479   2.018  3.0718  1.2282 -0.2775
   12SAPS     P 1476   2.673   6.424   2.125  0.1257  0.4668 -0.3405
   12SAPS   O13 1477   2.656   6.435   2.271 -0.4837 -0.3056 -0.5341
   12SAPS   O14 1478   2.540   6.407   2.060 -0.9028  0.9910  0.0587
   12SAPS   O12 1479   2.746   6.551   2.066  0.0498 -0.0518 -0.6704
   12SAPS   O11 1480   2.761   6.295   2.089  0.0687  0.2184  0.1404
   12SAPS    C1 1481   2.691   6.166   2.076 -0.2718  0.4848  0.3271
   12SAPS    HA 1482   2.612   6.169   1.998 -1.7305  0.8928  1.7732
   12SAPS    HB 1483   2.764   6.090   2.041  0.5915  1.7389 -0.7457
   12SAPS    C2 1484   2.658   6.106   2.213 -0.2629  0.9567  0.2905
   12SAPS    HS 1485   2.577   6.165   2.260 -0.9158 -0.2443  0.7032
   12SAPS   O21 1486   2.780   6.113   2.285 -0.1542  0.3126 -0.2769
   12SAPS   C21 1487   2.759   6.147   2.410  0.6769 -0.5200 -0.0658
   12SAPS   O22 1488   2.655   6.187   2.464 -0.3562 -0.1800  0.0290
   12SAPS   C22 1489   2.888   6.141   2.488  0.0077 -0.4492 -0.6154
   12SAPS   H2R 1490   2.912   6.032   2.484  0.4825 -0.3217 -1.5077
   12SAPS   H2S 1491   2.971   6.192   2.435 -1.5830  0.8590 -1.9180
   12SAPS    C3 1492   2.613   5.952   2.195  0.3062 -0.3454 -0.7159
   12SAPS    HX 1493   2.683   5.903   2.124  1.0439  0.3982 -0.5115
   12SAPS    HY 1494   2.510   5.950   2.154 -0.6208 -1.2635  1.4662
   12SAPS   O31 1495   2.619   5.872   2.317 -0.0769  0.2855  0.4721
   12SAPS   C31 1496   2.518   5.876   2.397 -0.1402  0.0381 -0.0409
   12SAPS   O32 1497   2.411   5.925   2.363  0.2325  0.4152  0.4589
   12SAPS   C32 1498   2.551   5.817   2.535  0.4533 -0.0621 -0.0885
   12SAPS   H2X 1499   2.662   5.825   2.543  0.4331 -0.4329  0.6450
   12SAPS   H2Y 1500   2.515   5.712   2.529 -3.2123  0.9208  1.7231
   12SAPS   C23 1501   2.884   6.195   2.637 -0.5084 -0.0658  0.3237
   12SAPS   H3R 1502   2.805   6.143   2.695  0.1909 -0.0049  1.3635
   12SAPS   H3S 1503   2.869   6.304   2.625  3.1238  0.2673 -3.1457
   12SAPS   C24 1504   3.007   6.173   2.729 -0.1864 -0.0433  0.1461
   12SAPS   H4R 1505   3.037   6.067   2.717 -1.0266 -0.4933  1.7092
   12SAPS   H4S 1506   2.964   6.191   2.830 -1.9068 -2.7517 -0.0046
   12SAPS   C25 1507   3.125   6.266   2.708 -0.4927  0.9052 -0.3484
   12SAPS   H5R 1508   3.097   6.370   2.689 -0.3460  1.0936  0.4317
   12SAPS   C26 1509   3.256   6.232   2.706  0.4577 -0.0714 -0.3048
   12SAPS   H6R 1510   3.331   6.309   2.683  0.0902  0.3734 -0.0407
   12SAPS   C27 1511   3.325   6.101   2.724 -0.1311  0.5194  0.0480
   12SAPS   H7R 1512   3.262   6.054   2.803  0.5187 -0.4200  0.0202
   12SAPS   H7S 1513   3.416   6.105   2.787 -1.4874 -0.9680  2.2453
   12SAPS   C28 1514   3.344   6.004   2.609  0.2779 -0.3271 -0.0345
   12SAPS   H8R 1515   3.336   6.041   2.506 -2.1721  1.4874  0.6932
   12SAPS   C29 1516   3.378   5.876   2.624 -0.1123 -0.2858  0.0119
   12SAPS   H9R 1517   3.399   5.826   2.528 -1.7647  0.5010 -0.7980
   12SAPS  C210 1518   3.397   5.808   2.759 -0.1874  0.1256 -0.1611
   12SAPS  H10R 1519   3.392   5.881   2.842  0.7597  0.2016 -0.1549
   12SAPS  H10S 1520   3.504   5.779   2.763 -0.2076  0.1610  1.6770
   12SAPS  C211 1521   3.303   5.690   2.784 -0.1878 -0.4997 -0.3694
   12SAPS  H11R 1522   3.336   5.601   2.729  0.5914 -0.1033 -0.5651
   12SAPS  C212 1523   3.197   5.691   2.867 -0.7037  0.7226 -0.5240
   12SAPS  H12R 1524   3.137   5.599   2.881  2.5884 -1.4712  0.3121
   12SAPS  C213 1525   3.147   5.809   2.944  0.2673  0.8709  0.0930
   12SAPS  H13R 1526   3.220   5.893   2.935  2.4212 -0.9053  0.1642
   12SAPS  H13S 1527   3.151   5.788   3.053  1.3641  0.8513  0.0583
   12SAPS  C214 1528   3.004   5.843   2.897 -0.1050 -0.0326  0.2983
   12SAPS  H14R 1529   3.002   5.863   2.789 -2.5430  2.4747  0.6763
   12SAPS  C215 1530   2.897   5.854   2.976 -0.5877 -0.1641  0.1874
   12SAPS  H15R 1531   2.802   5.861   2.921  0.3592  0.1747 -1.4773
   12SAPS  C216 1532   2.876   5.824   3.123  0.0620 -1.2651  0.0205
   12SAPS  H16R 1533   2.955   5.757   3.163  1.0052 -0.1426  0.0575
   12SAPS  H16S 1534   2.780   5.774   3.148 -0.3616 -0.0035  0.9883
   12SAPS  C217 1535   2.863   5.951   3.212 -0.2543  0.0240 -0.7605
   12SAPS  H17R 1536   2.809   6.036   3.163  3.1486  1.4367 -2.4102
   12SAPS  H17S 1537   2.963   5.999   3.212 -0.9205  1.5230  1.0685
   12SAPS  C218 1538   2.817   5.923   3.351  0.2954  0.3637  1.0758
   12SAPS  H18R 1539   2.745   5.839   3.356  1.9675 -1.3739 -1.6252
   12SAPS  H18S 1540   2.765   6.010   3.397 -0.9211  1.1294 -1.5925
   12SAPS  C219 1541   2.936   5.876   3.428  0.0885  0.5304 -0.0286
   12SAPS  H19R 1542   3.018   5.951   3.421  0.2477  0.2413 -2.2134
   12SAPS  H19S 1543   2.966   5.775   3.391 -0.5537 -0.7219  2.6359
   12SAPS  C220 1544   2.910   5.838   3.572  0.4257  0.1066  0.3976
   12SAPS  H20R 1545   2.855   5.926   3.613 -2.0778 -1.0267 -0.3248
   12SAPS  H20S 1546   3.009   5.819   3.618  0.9597 -3.6824 -1.8644
   12SAPS  H20T 1547   2.847   5.750   3.594 -2.5884  2.1388  0.5225
   12SAPS   C33 1548   2.491   5.891   2.655 -0.3652 -0.1314 -0.6242
   12SAPS   H3X 1549   2.384   5.863   2.661 -0.5303  0.7564  0.8953
   12SAPS   H3Y 1550   2.492   6.002   2.647 -0.2565 -0.0800  0.1136
   12SAPS   C34 1551   2.571   5.867   2.783  0.2013  0.1598  0.0887
   12SAPS   H4X 1552   2.677   5.881   2.753  0.0981  0.1439 -0.2970
   12SAPS   H4Y 1553   2.575   5.761   2.814 -0.9306 -0.0301 -0.3452
   12SAPS   C35 1554   2.528   5.958   2.899 -0.5585  0.7561 -0.0722
   12SAPS   H5X 1555   2.468   6.043   2.858 -1.0153 -0.7985 -2.9326
   12SAPS   H5Y 1556   2.620   5.987   2.953  2.4578 -1.6024 -3.4651
   12SAPS   C36 1557   2.436   5.889   2.998  0.0463  0.7373 -0.3427
   12SAPS   H6X 1558   2.475   5.789   3.028  0.1813  0.7118 -0.6027
   12SAPS   H6Y 1559   2.344   5.869   2.939 -1.0481  1.1583  1.1670
   12SAPS   C37 1560   2.405   5.966   3.128  0.4694  0.0081 -0.0654
   12SAPS   H7X 1561   2.357   6.063   3.103 -1.1175 -0.5557  0.6549
   12SAPS   H7Y 1562   2.495   5.982   3.191 -1.2245  1.7249  2.0559
   12SAPS   C38 1563   2.296   5.893   3.210 -0.1261 -0.2454 -0.1831
   12SAPS   H8X 1564   2.295   5.782   3.220 -0.3399 -0.5118 -2.5293
   12SAPS   H8Y 1565   2.203   5.904   3.150 -0.2823  0.5135  0.1898
   12SAPS   C39 1566   2.300   5.949   3.356  0.7163 -0.1881 -0.1367
   12SAPS   H9X 1567   2.195   5.936   3.387  0.6636 -1.3182 -0.7273
   12SAPS   H9Y 1568   2.306   6.059   3.342  0.0729 -0.3524 -1.9613
   12SAPS  C310 1569   2.389   5.885   3.459 -0.0451 -0.5943  0.3524
   12SAPS  H10X 1570   2.484   5.853   3.411  0.7333 -0.1437  1.5461
   12SAPS  H10Y 1571   2.353   5.789   3.502 -1.3065 -0.7712 -1.0089
   12SAPS  C311 1572   2.437   5.974   3.576 -0.6681  0.1063  0.2559
   12SAPS  H11X 1573   2.346   6.012   3.627  0.7036  2.5946  1.0118
   12SAPS  H11Y 1574   2.498   6.061   3.544 -0.4840  0.7984  2.3631
   12SAPS  C312 1575   2.518   5.895   3.679 -0.7852 -0.6617 -0.6920
   12SAPS  H12X 1576   2.606   5.860   3.621 -0.8765  0.9809 -1.8651
   12SAPS  H12Y 1577   2.454   5.812   3.716 -1.1193 -0.0408  0.1477
   12SAPS  C313 1578   2.562   5.986   3.799 -0.3911 -0.7165 -0.0153
   12SAPS  H13X 1579   2.482   6.055   3.833  0.0510 -1.1177  1.9789
   12SAPS  H13Y 1580   2.642   6.046   3.751 -0.9998 -0.4872 -0.7499
   12SAPS  C314 1581   2.605   5.907   3.927  0.4779 -0.4820  0.5699
   12SAPS  H14X 1582   2.669   5.823   3.894  2.9336  1.8561 -1.0353
   12SAPS  H14Y 1583   2.508   5.871   3.967 -1.3637  1.0439 -2.1755
   12SAPS  C315 1584   2.688   5.985   4.026 -0.3409  0.0894  0.6909
   12SAPS  H15X 1585   2.649   6.089   4.031 -1.3389 -0.2869  0.9687
   12SAPS  H15Y 1586   2.792   5.998   3.989 -0.1162 -0.8716  0.9674
   12SAPS  C316 1587   2.698   5.910   4.159 -0.3666 -0.1920 -0.0980
   12SAPS  H16X 1588   2.738   5.808   4.141 -0.7072 -0.1479 -1.1917
   12SAPS  H16Y 1589   2.596   5.899   4.203 -0.0309 -2.9304  0.1281
   12SAPS  C317 1590   2.783   5.980   4.260  0.8942  0.1238 -0.5108
   12SAPS  H17X 1591   2.870   6.028   4.210 -0.6164  0.1981 -3.2474
   12SAPS  H17Y 1592   2.810   5.910   4.342 -3.8844 -3.1528 -1.3243
   12SAPS  C318 1593   2.707   6.097   4.323 -0.3718  0.0297  0.5443
   12SAPS  H18X 1594   2.775   6.163   4.381  1.4091 -0.4925 -0.8811
   12SAPS  H18Y 1595   2.623   6.063   4.388 -1.9062  1.8291 -0.3908
   12SAPS  H18Z 1596   2.653   6.148   4.241 -0.1059  1.5927  1.3073
   13SAPS     N 1597   4.755   4.877   2.175 -0.3474  0.1345  0.4168
   13SAPS   HN1 1598   4.675   4.940   2.156  0.1523  0.6862  0.1273
   13SAPS   HN2 1599   4.807   4.904   2.260 -0.0840 -0.1292  0.3417
   13SAPS   HN3 1600   4.820   4.879   2.094 -1.4044 -0.7287 -0.5006
   13SAPS   C12 1601   4.690   4.743   2.195 -0.0281  0.0203 -0.5024
   13SAPS  H12A 1602   4.627   4.723   2.110 -0.2670 -0.6791 -0.1675
   13SAPS   C13 1603   4.790   4.632   2.204  0.3961  0.8038 -0.0162
   13SAPS  O13A 1604   4.910   4.659   2.235  0.0447 -0.1840  0.0317
   13SAPS  O13B 1605   4.753   4.518   2.232  0.0436  0.0666  0.0852
   13SAPS   C11 1606   4.602   4.742   2.321 -0.0663  0.2486  0.7339
   13SAPS  H11A 1607   4.668   4.770   2.406 -0.4411  1.5848  0.6156
   13SAPS  H11B 1608   4.562   4.641   2.342  0.5393 -0.2492 -0.4170
   13SAPS     P 1609   4.345   4.801   2.287 -0.2428 -0.2002 -0.1653
   13SAPS   O13 1610   4.337   4.781   2.140  0.1187  0.1511 -0.4750
   13SAPS   O14 1611   4.300   4.693   2.373  0.5332 -0.0651 -0.1336
   13SAPS   O12 1612   4.493   4.839   2.316  0.4552 -0.2524  0.3531
   13SAPS   O11 1613   4.261   4.929   2.325  0.0097  0.3947  0.3977
   13SAPS    C1 1614   4.317   5.048   2.389 -0.0722 -0.4478 -0.2125
   13SAPS    HA 1615   4.408   5.087   2.339  0.6689  1.5993  2.5289
   13SAPS    HB 1616   4.246   5.133   2.374  1.1189  0.2356 -2.4433
   13SAPS    C2 1617   4.341   5.023   2.537 -0.0987  0.1043  0.0334
   13SAPS    HS 1618   4.406   4.934   2.549  2.7197  2.0137 -0.1055
   13SAPS   O21 1619   4.216   5.003   2.613  0.0759  0.6465  0.1754
   13SAPS   C21 1620   4.232   4.937   2.727  0.3322  0.1415 -0.2025
   13SAPS   O22 1621   4.335   4.875   2.757  0.2724 -0.3298  0.0350
   13SAPS   C22 1622   4.105   4.932   2.815 -0.1458  0.2210  1.0737
   13SAPS   H2R 1623   4.038   5.007   2.769  2.2573  0.4920 -2.3473
   13SAPS   H2S 1624   4.069   4.829   2.793  0.9284  0.4163 -2.0939
   13SAPS    C3 1625   4.427   5.140   2.598 -0.4992  0.3771 -0.0735
   13SAPS    HX 1626   4.358   5.227   2.602  1.5914  2.3377 -2.8709
   13SAPS    HY 1627   4.512   5.169   2.533 -0.8984  2.0732  0.0954
   13SAPS   O31 1628   4.467   5.105   2.729  0.1103  0.2225 -0.0698
   13SAPS   C31 1629   4.572   5.034   2.749 -0.0832 -0.2097  0.4485
   13SAPS   O32 1630   4.642   4.990   2.660  0.5430  0.3127  0.1009
   13SAPS   C32 1631   4.593   5.022   2.896  0.2558  0.9559  0.1287
   13SAPS   H2X 1632   4.490   5.010   2.935 -0.6559 -1.0143 -2.5395
   13SAPS   H2Y 1633   4.644   5.115   2.928  0.8708  1.2609 -1.5962
   13SAPS   C23 1634   4.144   4.954   2.959  0.3005  0.0755  0.2801
   13SAPS   H3R 1635   4.196   5.050   2.974  1.2773 -0.4678  0.4538
   13SAPS   H3S 1636   4.202   4.865   2.992 -0.7846 -0.3252  1.1885
   13SAPS   C24 1637   4.009   4.966   3.043 -0.4349  0.2306 -0.3472
   13SAPS   H4R 1638   3.972   5.070   3.027 -0.2253  0.7853  2.3138
   13SAPS   H4S 1639   4.034   4.964   3.151  2.0722 -0.2314 -0.8816
   13SAPS   C25 1640   3.893   4.876   3.013  1.1937  0.0054  1.2841
   13SAPS   H5R 1641   3.834   4.902   2.924  0.2678 -0.6184  1.7073
   13SAPS   C26 1642   3.845   4.766   3.086  0.0871  0.2142 -0.1516
   13SAPS   H6R 1643   3.767   4.711   3.033 -0.2510  1.7746 -1.3226
   13SAPS   C27 1644   3.904   4.711   3.211 -0.4549 -0.7648 -0.1116
   13SAPS   H7R 1645   3.956   4.789   3.272  1.6099 -1.1354 -1.2980
   13SAPS   H7S 1646   3.974   4.625   3.202  0.0482 -0.4887  0.9229
   13SAPS   C28 1647   3.784   4.662   3.292 -0.5061 -0.0219 -0.5255
   13SAPS   H8R 1648   3.683   4.704   3.277 -1.5389 -2.0545  0.2536
   13SAPS   C29 1649   3.790   4.558   3.378  0.1449  0.4946  0.0248
   13SAPS   H9R 1650   3.698   4.526   3.430 -0.9622 -0.3068 -2.2950
   13SAPS  C210 1651   3.915   4.487   3.415 -0.2597 -1.0765  0.3407
   13SAPS  H10R 1652   3.975   4.565   3.467 -3.9486  0.0448  3.4163
   13SAPS  H10S 1653   3.970   4.449   3.326 -0.8426 -1.0253 -0.0436
   13SAPS  C211 1654   3.885   4.367   3.501  0.3277  0.0054 -0.0609
   13SAPS  H11R 1655   3.881   4.272   3.446 -0.6295  0.2612 -0.4490
   13SAPS  C212 1656   3.862   4.369   3.633  0.9850  0.4956 -0.4014
   13SAPS  H12R 1657   3.847   4.273   3.682 -2.9712  1.7711  1.2826
   13SAPS  C213 1658   3.866   4.496   3.718 -0.3448 -0.1703  0.0317
   13SAPS  H13R 1659   3.771   4.553   3.713 -0.5242 -0.4066  0.6876
   13SAPS  H13S 1660   3.922   4.580   3.672 -2.3662  0.2886 -1.7466
   13SAPS  C214 1661   3.914   4.464   3.857  0.2316 -0.0644  0.3860
   13SAPS  H14R 1662   4.023   4.453   3.867  0.5224 -0.8873 -2.6376
   13SAPS  C215 1663   3.843   4.451   3.966 -0.1771 -0.0037 -0.8762
   13SAPS  H15R 1664   3.889   4.414   4.059 -1.3630  1.3858  0.3107
   13SAPS  C216 1665   3.694   4.473   3.986 -0.3887  1.0764  0.1582
   13SAPS  H16R 1666   3.655   4.380   4.030  1.7189 -0.2179 -0.5577
   13SAPS  H16S 1667   3.634   4.481   3.893 -1.8253  0.6669  1.0195
   13SAPS  C217 1668   3.650   4.587   4.089  0.3129  0.0373  0.5705
   13SAPS  H17R 1669   3.553   4.561   4.136 -0.7258  0.5295 -1.2073
   13SAPS  H17S 1670   3.649   4.685   4.037  1.2371  0.4304  1.2633
   13SAPS  C218 1671   3.756   4.595   4.203 -0.2592 -0.2211 -0.2229
   13SAPS  H18R 1672   3.859   4.611   4.165 -0.6092 -0.1189 -1.1491
   13SAPS  H18S 1673   3.771   4.503   4.263  1.5969  0.8357  1.0210
   13SAPS  C219 1674   3.716   4.707   4.302 -0.2652 -1.1114  1.1537
   13SAPS  H19R 1675   3.664   4.790   4.249  0.3530  0.7133  3.2245
   13SAPS  H19S 1676   3.817   4.747   4.328 -0.3922  2.1062 -2.3744
   13SAPS  C220 1677   3.636   4.656   4.412 -0.0071  0.1526  0.1270
   13SAPS  H20R 1678   3.571   4.728   4.466  0.6485 -0.1957  1.4091
   13SAPS  H20S 1679   3.712   4.624   4.486 -0.0055 -0.0746  0.0279
   13SAPS  H20T 1680   3.567   4.572   4.387  0.7387 -0.7924  1.1287
   13SAPS   C33 1681   4.684   4.899   2.929 -0.2072 -0.3094  0.0136
   13SAPS   H3X 1682   4.790   4.902   2.894  0.6427 -0.0076  2.3767
   13SAPS   H3Y 1683   4.632   4.808   2.892  0.7177 -0.4929 -0.8922
   13SAPS   C34 1684   4.683   4.870   3.078  0.6628  0.2754 -0.8653
   13SAPS   H4X 1685   4.756   4.787   3.093  1.4063  0.8664 -1.1301
   13SAPS   H4Y 1686   4.585   4.836   3.116  0.8432 -1.2843 -1.7284
   13SAPS   C35 1687   4.733   4.989   3.167 -0.1530  0.2014  0.5746
   13SAPS   H5X 1688   4.655   5.068   3.169 -1.4114 -0.9136 -1.6872
   13SAPS   H5Y 1689   4.814   5.027   3.102 -0.4195  0.2083  0.2462
   13SAPS   C36 1690   4.790   4.951   3.298 -0.5679 -1.1153  0.2949
   13SAPS   H6X 1691   4.858   5.035   3.322 -0.3342 -1.1194 -0.3347
   13SAPS   H6Y 1692   4.845   4.854   3.293  0.3428 -0.5531 -1.5035
   13SAPS   C37 1693   4.669   4.922   3.397  0.0664  0.2083 -0.3488
   13SAPS   H7X 1694   4.599   4.855   3.342  1.8196  0.2715 -2.7808
   13SAPS   H7Y 1695   4.597   5.006   3.407  0.2795  0.2983  0.5204
   13SAPS   C38 1696   4.711   4.880   3.532  0.4159  0.9932  0.1417
   13SAPS   H8X 1697   4.768   4.967   3.572 -0.9433  2.1661 -0.3552
   13SAPS   H8Y 1698   4.774   4.790   3.546 -1.9119 -0.5228  1.3874
   13SAPS   C39 1699   4.581   4.862   3.616  0.3612 -0.7272 -0.7870
   13SAPS   H9X 1700   4.513   4.781   3.581 -1.5513  0.5337 -0.1518
   13SAPS   H9Y 1701   4.525   4.957   3.602  0.1176 -0.7649 -0.1154
   13SAPS  C310 1702   4.615   4.836   3.763 -0.2467  0.0774  0.2508
   13SAPS  H10X 1703   4.693   4.908   3.793 -0.4303  0.4265 -0.1001
   13SAPS  H10Y 1704   4.661   4.735   3.768  0.0502  0.2200  0.4474
   13SAPS  C311 1705   4.494   4.842   3.852  1.3218  0.3354  0.1686
   13SAPS  H11X 1706   4.416   4.765   3.833  1.8290  0.0195 -0.6585
   13SAPS  H11Y 1707   4.443   4.941   3.850 -0.9620 -0.6757  2.1796
   13SAPS  C312 1708   4.537   4.828   3.997 -0.5404 -0.0065 -0.1812
   13SAPS  H12X 1709   4.616   4.903   4.018  1.1947 -2.1741  1.6980
   13SAPS  H12Y 1710   4.593   4.732   4.008  1.3888  0.7427 -2.6961
   13SAPS  C313 1711   4.421   4.835   4.097  0.1037  0.4388  0.0804
   13SAPS  H13X 1712   4.336   4.769   4.071  1.4039 -1.6191  0.8603
   13SAPS  H13Y 1713   4.388   4.941   4.096  1.2398  0.8280  1.0383
   13SAPS  C314 1714   4.474   4.803   4.239 -0.5046  0.6477  0.6904
   13SAPS  H14X 1715   4.545   4.882   4.269  0.1225  0.2474  0.2706
   13SAPS  H14Y 1716   4.529   4.706   4.238  1.9710  1.9979  0.2812
   13SAPS  C315 1717   4.367   4.793   4.349 -0.0331  0.4456  0.5019
   13SAPS  H15X 1718   4.416   4.740   4.433  2.0247 -1.8273 -1.9528
   13SAPS  H15Y 1719   4.304   4.707   4.318  2.5916 -0.7216 -2.1001
   13SAPS  C316 1720   4.273   4.913   4.366  0.3002 -0.2533 -0.6903
   13SAPS  H16X 1721   4.208   4.914   4.276 -1.3863 -0.9370  0.4595
   13SAPS  H16Y 1722   4.332   5.003   4.392  0.8737 -0.8756  0.2241
   13SAPS  C317 1723   4.177   4.889   4.486  0.4917 -0.6683  0.3079
   13SAPS  H17X 1724   4.224   4.861   4.582  0.4460 -1.1797  0.1858
   13SAPS  H17Y 1725   4.095   4.821   4.454 -0.4617  0.2085  0.8092
   13SAPS  C318 1726   4.117   5.031   4.518 -0.6521 -0.1441 -0.6722
   13SAPS  H18X 1727   4.193   5.111   4.531 -1.5853  0.5616  0.6879
   13SAPS  H18Y 1728   4.065   5.020   4.616  1.0514  1.1972  0.4352
   13SAPS  H18Z 1729   4.050   5.067   4.436 -0.2416  1.2038 -0.4244
   14SAPS     N 1730   3.451   5.563   2.301  0.3284  0.7405 -0.2147
   14SAPS   HN1 1731   3.510   5.569   2.386 -0.4512  0.1157  0.4010
   14SAPS   HN2 1732   3.509   5.533   2.221  1.2106 -1.0540  1.0199
   14SAPS   HN3 1733   3.410   5.658   2.291  1.1063  0.9947 -1.0397
   14SAPS   C12 1734   3.352   5.449   2.323  0.0037 -0.2327 -0.1354
   14SAPS  H12A 1735   3.285   5.501   2.389 -0.9355 -0.7065 -0.7036
   14SAPS   C13 1736   3.274   5.398   2.201 -0.2237  1.0532  0.2669
   14SAPS  O13A 1737   3.300   5.438   2.086 -0.4314 -0.0813 -0.1220
   14SAPS  O13B 1738   3.168   5.330   2.222  0.5446 -0.2365 -0.3906
   14SAPS   C11 1739   3.418   5.330   2.399 -0.1187  0.3103  0.0162
   14SAPS  H11A 1740   3.506   5.300   2.339  0.1970  0.5284  0.3640
   14SAPS  H11B 1741   3.343   5.248   2.397 -0.6826  0.8137  0.2873
   14SAPS     P 1742   3.460   5.240   2.632 -0.3083 -0.1533  0.0168
   14SAPS   O13 1743   3.326   5.220   2.686 -0.1475  0.2131 -0.7557
   14SAPS   O14 1744   3.538   5.127   2.568 -0.8547  0.2428  0.1173
   14SAPS   O12 1745   3.462   5.366   2.533 -0.7500  0.1724  0.0564
   14SAPS   O11 1746   3.552   5.292   2.750  0.0455 -0.3083  0.8304
   14SAPS    C1 1747   3.576   5.425   2.788  0.0015 -0.5625 -0.2261
   14SAPS    HA 1748   3.569   5.497   2.704  3.7081 -1.0060 -1.0765
   14SAPS    HB 1749   3.493   5.458   2.854  0.9895  2.8539 -0.5235
   14SAPS    C2 1750   3.702   5.444   2.878 -0.4261 -0.1600  0.2563
   14SAPS    HS 1751   3.788   5.422   2.812 -2.2494  0.8548 -2.6532
   14SAPS   O21 1752   3.696   5.342   2.979 -0.0628 -0.5272 -0.3306
   14SAPS   C21 1753   3.814   5.315   3.041  0.2636 -0.6304  0.0168
   14SAPS   O22 1754   3.927   5.331   2.986  0.5985 -0.2422 -0.2155
   14SAPS   C22 1755   3.792   5.250   3.167 -0.0967  0.9133 -0.3170
   14SAPS   H2R 1756   3.695   5.284   3.209 -0.2761 -1.2968  1.2388
   14SAPS   H2S 1757   3.758   5.145   3.152  0.8713  0.2714  1.6278
   14SAPS    C3 1758   3.726   5.591   2.931  0.1528  0.4527  0.2114
   14SAPS    HX 1759   3.755   5.647   2.839  0.9358 -0.8385 -0.3633
   14SAPS    HY 1760   3.822   5.594   2.987  0.7759 -0.8730 -0.7310
   14SAPS   O31 1761   3.616   5.648   3.011  0.3564 -0.2375 -0.1714
   14SAPS   C31 1762   3.619   5.623   3.141  0.2174 -0.8669 -0.5758
   14SAPS   O32 1763   3.711   5.591   3.210 -0.0284 -0.5486  0.0238
   14SAPS   C32 1764   3.478   5.617   3.185  0.0567 -0.2183 -0.1286
   14SAPS   H2X 1765   3.475   5.563   3.282  1.6986  0.5965  0.4237
   14SAPS   H2Y 1766   3.407   5.569   3.114  0.1639 -0.7014  0.0871
   14SAPS   C23 1767   3.903   5.273   3.271 -0.3645 -0.5136  1.6014
   14SAPS   H3R 1768   3.912   5.381   3.299 -0.0161 -0.1370  0.1067
   14SAPS   H3S 1769   3.996   5.244   3.219 -1.2469 -3.3036  1.4432
   14SAPS   C24 1770   3.889   5.189   3.401 -0.4815 -0.5407  0.3323
   14SAPS   H4R 1771   3.978   5.184   3.466 -1.7151 -0.4024  2.1081
   14SAPS   H4S 1772   3.873   5.084   3.369 -0.8353 -0.2909 -0.3297
   14SAPS   C25 1773   3.780   5.237   3.489  0.7193  0.1594 -0.1196
   14SAPS   H5R 1774   3.790   5.335   3.539 -0.4146 -0.4055  1.2736
   14SAPS   C26 1775   3.659   5.175   3.502 -1.1206 -0.2805 -0.0283
   14SAPS   H6R 1776   3.593   5.206   3.585  0.0630  2.1366  0.1050
   14SAPS   C27 1777   3.612   5.057   3.428 -0.0282  0.3348 -0.1812
   14SAPS   H7R 1778   3.648   5.067   3.324  0.1982  1.0640 -0.0374
   14SAPS   H7S 1779   3.502   5.071   3.424  0.2056  2.6096  0.0291
   14SAPS   C28 1780   3.652   4.921   3.494  0.8401 -0.9305  0.2973
   14SAPS   H8R 1781   3.761   4.927   3.491  0.7428  1.0648 -1.3052
   14SAPS   C29 1782   3.591   4.830   3.568  0.0317 -0.0165 -1.0263
   14SAPS   H9R 1783   3.652   4.740   3.583 -0.3445 -0.1691 -0.3795
   14SAPS  C210 1784   3.445   4.828   3.585 -0.0190  0.9761  0.7220
   14SAPS  H10R 1785   3.398   4.919   3.543 -0.9731 -0.6382 -2.0092
   14SAPS  H10S 1786   3.406   4.830   3.689 -0.6067 -0.6336  0.5655
   14SAPS  C211 1787   3.375   4.710   3.506 -0.9033  0.1923 -0.0092
   14SAPS  H11R 1788   3.421   4.704   3.406  1.9090  1.7493  1.0647
   14SAPS  C212 1789   3.269   4.644   3.552 -0.0530 -0.0694 -0.1680
   14SAPS  H12R 1790   3.217   4.572   3.487 -0.0525 -0.6418  0.4553
   14SAPS  C213 1791   3.204   4.661   3.688  0.0080 -0.5634 -0.3296
   14SAPS  H13R 1792   3.099   4.624   3.681  0.3261 -1.2099 -2.0050
   14SAPS  H13S 1793   3.203   4.771   3.705 -0.2946 -0.8400  1.7932
   14SAPS  C214 1794   3.276   4.595   3.795  0.3345  0.5676 -0.4359
   14SAPS  H14R 1795   3.364   4.533   3.773  1.2043 -0.0917  3.8660
   14SAPS  C215 1796   3.260   4.598   3.926  0.8047  0.8877 -0.5310
   14SAPS  H15R 1797   3.324   4.543   3.997  0.3134 -0.0437 -0.7844
   14SAPS  C216 1798   3.152   4.680   3.984 -0.4164 -0.2523 -0.1005
   14SAPS  H16R 1799   3.065   4.690   3.915  0.2596  1.1279 -0.8027
   14SAPS  H16S 1800   3.187   4.781   4.014  0.1128 -0.6615  0.7093
   14SAPS  C217 1801   3.102   4.618   4.112  0.0050 -0.0035 -1.2060
   14SAPS  H17R 1802   3.069   4.513   4.101  0.2280 -0.3505  0.9263
   14SAPS  H17S 1803   3.012   4.669   4.152  0.8168  0.3858  0.2210
   14SAPS  C218 1804   3.208   4.620   4.224  0.5595  0.2395  0.2708
   14SAPS  H18R 1805   3.259   4.719   4.229 -0.6222  0.8280  1.3756
   14SAPS  H18S 1806   3.289   4.550   4.196  0.5725 -0.2292  1.4111
   14SAPS  C219 1807   3.156   4.570   4.355 -1.0405 -0.0364  1.0893
   14SAPS  H19R 1808   3.070   4.501   4.349 -1.3416 -0.1760  4.8375
   14SAPS  H19S 1809   3.131   4.651   4.426 -1.5186  1.3388 -0.5647
   14SAPS  C220 1810   3.255   4.474   4.430 -0.2137  0.1270  0.0575
   14SAPS  H20R 1811   3.305   4.395   4.369 -0.3076  0.0198  0.1203
   14SAPS  H20S 1812   3.196   4.422   4.508 -0.7772  1.4031  0.5041
   14SAPS  H20T 1813   3.326   4.533   4.492 -1.6601  0.8571  1.0757
   14SAPS   C33 1814   3.428   5.755   3.223  0.0961 -0.0154  0.3339
   14SAPS   H3X 1815   3.420   5.824   3.137 -0.1800 -1.6399 -0.9843
   14SAPS   H3Y 1816   3.493   5.807   3.297  0.7499  1.5469 -1.2746
   14SAPS   C34 1817   3.281   5.750   3.284  0.5338  0.2572 -0.1393
   14SAPS   H4X 1818   3.230   5.675   3.220  0.5995  0.1299 -0.0414
   14SAPS   H4Y 1819   3.227   5.847   3.271 -1.4008 -0.7439  0.0771
   14SAPS   C35 1820   3.276   5.700   3.429 -0.6775 -0.2206  0.1161
   14SAPS   H5X 1821   3.350   5.619   3.448 -0.5820  0.0943  1.1232
   14SAPS   H5Y 1822   3.175   5.661   3.455 -0.5259 -1.1576 -0.6534
   14SAPS   C36 1823   3.306   5.812   3.523 -0.7201 -0.1170 -0.1463
   14SAPS   H6X 1824   3.229   5.892   3.518 -0.5232  0.2487  1.7330
   14SAPS   H6Y 1825   3.407   5.858   3.525 -0.4322 -0.7255 -0.3279
   14SAPS   C37 1826   3.289   5.760   3.669 -0.1743  0.7447  0.5337
   14SAPS   H7X 1827   3.360   5.677   3.684  0.8974  1.2225 -1.6209
   14SAPS   H7Y 1828   3.188   5.714   3.673 -0.7119  1.6151 -1.6308
   14SAPS   C38 1829   3.302   5.873   3.767  1.2685 -0.2272  0.7789
   14SAPS   H8X 1830   3.217   5.944   3.782  1.4010  0.1410 -0.1871
   14SAPS   H8Y 1831   3.379   5.945   3.732 -1.2508  3.7047  2.4711
   14SAPS   C39 1832   3.326   5.809   3.905 -0.4789 -0.4275 -0.1071
   14SAPS   H9X 1833   3.416   5.745   3.893 -0.9385 -0.8592 -1.4269
   14SAPS   H9Y 1834   3.247   5.742   3.943 -1.0093  1.0966  1.6053
   14SAPS  C310 1835   3.344   5.911   4.017  0.0032 -0.6001 -0.5619
   14SAPS  H10X 1836   3.259   5.976   3.988  1.1345  0.7460 -0.9958
   14SAPS  H10Y 1837   3.441   5.966   4.014  1.1261 -2.2444  2.1250
   14SAPS  C311 1838   3.323   5.862   4.167 -0.0284  0.1769  0.3894
   14SAPS  H11X 1839   3.218   5.828   4.179 -0.3449  1.4919  1.7813
   14SAPS  H11Y 1840   3.345   5.938   4.246  1.0130 -1.0487  1.3255
   14SAPS  C312 1841   3.424   5.747   4.202 -0.1420  0.3473  0.1182
   14SAPS  H12X 1842   3.527   5.778   4.171  0.2303  1.2644  2.1069
   14SAPS  H12Y 1843   3.397   5.665   4.132 -0.7512  0.9438 -0.3511
   14SAPS  C313 1844   3.423   5.699   4.345  0.8877  0.0497 -0.5553
   14SAPS  H13X 1845   3.324   5.662   4.379  1.8964  0.6603  3.7187
   14SAPS  H13Y 1846   3.445   5.790   4.404  3.3130 -0.6616 -0.2575
   14SAPS  C314 1847   3.536   5.598   4.359  0.3651  0.4009  0.0575
   14SAPS  H14X 1848   3.546   5.578   4.467 -0.8132  1.8252  0.4653
   14SAPS  H14Y 1849   3.633   5.636   4.319 -0.7678  0.6401 -2.7027
   14SAPS  C315 1850   3.511   5.466   4.284  0.6217 -0.6434  0.1152
   14SAPS  H15X 1851   3.497   5.480   4.174 -0.1412 -1.7338  0.0606
   14SAPS  H15Y 1852   3.416   5.420   4.319 -0.0703  0.5810 -0.0909
   14SAPS  C316 1853   3.631   5.370   4.312  0.1400  0.8085  0.0261
   14SAPS  H16X 1854   3.727   5.420   4.290  1.6140 -0.8080  2.4204
   14SAPS  H16Y 1855   3.628   5.281   4.245  1.4755  1.0122 -0.3163
   14SAPS  C317 1856   3.643   5.319   4.460  0.1179 -0.2947 -1.0031
   14SAPS  H17X 1857   3.538   5.303   4.493  0.8884  0.6688  2.2374
   14SAPS  H17Y 1858   3.689   5.388   4.533 -0.4774 -1.4935  0.5519
   14SAPS  C318 1859   3.722   5.185   4.479 -0.8158  0.4296 -0.3285
   14SAPS  H18X 1860   3.689   5.104   4.410 -3.7722  0.8294  0.4610
   14SAPS  H18Y 1861   3.703   5.157   4.585 -0.0869 -0.4294 -0.4083
   14SAPS  H18Z 1862   3.831   5.200   4.469 -0.7304  0.2739  0.3564
   15SAPS     N 1863   4.777   5.933   2.481 -0.3572 -0.0711 -0.2195
   15SAPS   HN1 1864   4.770   5.882   2.571 -0.7349 -1.2146 -0.8645
   15SAPS   HN2 1865   4.860   5.891   2.435  1.0205  0.4972  1.6518
   15SAPS   HN3 1866   4.783   6.036   2.484  0.6183 -0.1226  3.5470
   15SAPS   C12 1867   4.654   5.880   2.406 -0.3713 -0.4822 -0.2827
   15SAPS  H12A 1868   4.566   5.935   2.434 -0.6998 -1.0560 -0.1823
   15SAPS   C13 1869   4.674   5.919   2.257 -0.1112  0.8553  0.3371
   15SAPS  O13A 1870   4.764   6.005   2.223  0.1341  0.3270 -0.0674
   15SAPS  O13B 1871   4.587   5.888   2.172  0.2061  0.4946  0.3192
   15SAPS   C11 1872   4.633   5.723   2.429  0.0981 -0.0496  0.0562
   15SAPS  H11A 1873   4.721   5.668   2.389  1.5427  0.2767  2.6098
   15SAPS  H11B 1874   4.536   5.703   2.379 -0.1095 -1.0749  0.8491
   15SAPS     P 1875   4.506   5.648   2.645 -0.0452 -0.1545 -0.1306
   15SAPS   O13 1876   4.449   5.544   2.558 -0.1705  0.4377  0.7509
   15SAPS   O14 1877   4.532   5.619   2.788 -0.1558  0.7770 -1.0075
   15SAPS   O12 1878   4.637   5.696   2.572 -0.6877 -0.1439 -0.1330
   15SAPS   O11 1879   4.412   5.772   2.638 -0.1476  0.3384 -0.1709
   15SAPS    C1 1880   4.439   5.887   2.722 -0.0709 -0.2478  0.3336
   15SAPS    HA 1881   4.496   5.859   2.813  3.2689  2.3625 -0.7425
   15SAPS    HB 1882   4.502   5.961   2.668  0.8654 -1.9058 -0.9629
   15SAPS    C2 1883   4.312   5.963   2.751  1.6273 -0.6671  0.3189
   15SAPS    HS 1884   4.295   6.030   2.664  0.9509 -0.9072  0.2597
   15SAPS   O21 1885   4.343   6.039   2.865  0.6258  0.0909  0.6934
   15SAPS   C21 1886   4.282   6.156   2.875  0.0549  0.0345 -0.4110
   15SAPS   O22 1887   4.186   6.194   2.811  0.5318  0.3975  0.4405
   15SAPS   C22 1888   4.344   6.234   2.985 -0.8188  0.0326  0.2010
   15SAPS   H2R 1889   4.379   6.161   3.061  2.1646 -0.0732 -1.1123
   15SAPS   H2S 1890   4.433   6.288   2.945  0.7046 -1.8512  0.8452
   15SAPS    C3 1891   4.184   5.877   2.786  0.1505 -0.1414 -0.9250
   15SAPS    HX 1892   4.182   5.807   2.699  1.6122  0.1433 -1.2120
   15SAPS    HY 1893   4.090   5.936   2.795 -0.3324 -1.1227  0.9572
   15SAPS   O31 1894   4.215   5.805   2.903  0.0419  0.1240 -0.7270
   15SAPS   C31 1895   4.134   5.695   2.922 -0.4052 -0.0685 -0.0213
   15SAPS   O32 1896   4.035   5.669   2.857  0.5311 -0.1579 -0.5955
   15SAPS   C32 1897   4.182   5.623   3.053  0.0142  0.5177  0.5082
   15SAPS   H2X 1898   4.225   5.525   3.023 -2.7304 -0.6116 -0.0065
   15SAPS   H2Y 1899   4.089   5.602   3.110  0.3907  1.1410  1.3761
   15SAPS   C23 1900   4.246   6.336   3.051  0.0401  0.5291 -0.6848
   15SAPS   H3R 1901   4.207   6.408   2.976  0.2651  1.8507  0.4319
   15SAPS   H3S 1902   4.305   6.397   3.123 -0.6792  2.3553 -1.5759
   15SAPS   C24 1903   4.120   6.271   3.102  0.2806 -0.0273  0.4646
   15SAPS   H4R 1904   4.150   6.173   3.147 -0.3139 -1.4336 -2.0133
   15SAPS   H4S 1905   4.052   6.249   3.018  0.1564  0.9740  0.3018
   15SAPS   C25 1906   4.047   6.357   3.196  0.1784  0.4892 -0.1646
   15SAPS   H5R 1907   4.021   6.455   3.153  4.2527  0.7729 -2.4371
   15SAPS   C26 1908   4.029   6.343   3.331 -0.4207 -0.0911 -0.3390
   15SAPS   H6R 1909   3.979   6.425   3.385 -0.5949 -0.2006 -0.3320
   15SAPS   C27 1910   4.072   6.224   3.414  0.2701 -0.4655  0.6220
   15SAPS   H7R 1911   4.091   6.136   3.350  0.6662  0.0302  0.0429
   15SAPS   H7S 1912   3.994   6.195   3.489 -1.0572 -1.2662 -1.0045
   15SAPS   C28 1913   4.199   6.274   3.478 -0.8007  0.1791 -0.5962
   15SAPS   H8R 1914   4.275   6.305   3.404  0.6781 -0.8153  0.4323
   15SAPS   C29 1915   4.240   6.276   3.611  0.2180  0.2427  0.2838
   15SAPS   H9R 1916   4.337   6.325   3.627  0.5436  0.2387 -1.4933
   15SAPS  C210 1917   4.155   6.220   3.721 -0.4462  0.2728 -0.8541
   15SAPS  H10R 1918   4.085   6.140   3.686 -0.4296  0.5324 -1.4986
   15SAPS  H10S 1919   4.094   6.307   3.755 -1.4231  0.3291 -2.5892
   15SAPS  C211 1920   4.242   6.168   3.836 -0.0725 -0.0916 -0.4646
   15SAPS  H11R 1921   4.282   6.238   3.910 -3.1933 -0.6938  2.0000
   15SAPS  C212 1922   4.284   6.040   3.847  0.6800  0.2279 -0.1889
   15SAPS  H12R 1923   4.356   6.023   3.929  0.8699  0.6309 -0.2689
   15SAPS  C213 1924   4.247   5.919   3.771 -0.0180  0.0662  0.0422
   15SAPS  H13R 1925   4.281   5.937   3.666  0.8944  0.3141  0.3720
   15SAPS  H13S 1926   4.137   5.916   3.762 -0.2238  0.8696  1.9841
   15SAPS  C214 1927   4.304   5.782   3.815 -0.0545  0.0658  0.4556
   15SAPS  H14R 1928   4.411   5.766   3.796 -0.0043  1.0873 -0.1896
   15SAPS  C215 1929   4.243   5.684   3.880  0.2509 -0.0382  0.0388
   15SAPS  H15R 1930   4.304   5.603   3.923 -1.0263  0.9485  4.1871
   15SAPS  C216 1931   4.108   5.693   3.941  0.0329  0.2473  0.9072
   15SAPS  H16R 1932   4.040   5.758   3.883 -0.2033  1.3622  2.3782
   15SAPS  H16S 1933   4.113   5.751   4.035 -0.4615 -2.1153  2.4880
   15SAPS  C217 1934   4.055   5.551   3.957  0.1204  0.3055  0.1190
   15SAPS  H17R 1935   4.099   5.490   4.039 -0.9032 -1.7801 -0.8058
   15SAPS  H17S 1936   4.072   5.497   3.862 -1.6859 -1.1472  0.5635
   15SAPS  C218 1937   3.902   5.555   3.978  0.2255  0.3842 -0.7779
   15SAPS  H18R 1938   3.852   5.608   3.894  0.7521 -0.2447 -1.5027
   15SAPS  H18S 1939   3.889   5.606   4.076  0.3224 -1.5122  0.2602
   15SAPS  C219 1940   3.834   5.417   3.996  0.0345 -0.3497 -0.1047
   15SAPS  H19R 1941   3.734   5.434   4.042 -0.8197 -6.1242  0.9671
   15SAPS  H19S 1942   3.892   5.362   4.073 -0.2842 -0.9858 -0.3113
   15SAPS  C220 1943   3.822   5.328   3.873 -0.1153 -0.2544 -0.5163
   15SAPS  H20R 1944   3.761   5.239   3.899  0.4841 -0.7747 -0.8403
   15SAPS  H20S 1945   3.919   5.291   3.833 -0.1974  1.6807 -2.6904
   15SAPS  H20T 1946   3.782   5.379   3.783  1.1980  1.2173 -0.3079
   15SAPS   C33 1947   4.286   5.698   3.143 -0.1271 -0.0673 -0.7943
   15SAPS   H3X 1948   4.373   5.729   3.081  0.1443  0.5036 -0.1462
   15SAPS   H3Y 1949   4.336   5.634   3.218 -2.0214  1.4377  1.9369
   15SAPS   C34 1950   4.232   5.823   3.218 -0.3114  0.1372 -0.4069
   15SAPS   H4X 1951   4.148   5.795   3.285  0.5030 -3.6449 -0.7391
   15SAPS   H4Y 1952   4.192   5.890   3.140  2.4307  2.2754 -0.1229
   15SAPS   C35 1953   4.343   5.903   3.287 -0.1259 -1.0471  0.6682
   15SAPS   H5X 1954   4.285   5.979   3.344  0.3543 -1.6683  2.0164
   15SAPS   H5Y 1955   4.416   5.946   3.216  0.2130 -0.9038  1.0962
   15SAPS   C36 1956   4.423   5.835   3.402  0.1370 -0.9706  0.3778
   15SAPS   H6X 1957   4.478   5.756   3.344  0.0409  0.4729 -1.8105
   15SAPS   H6Y 1958   4.354   5.789   3.475 -0.3440 -0.0462  0.5050
   15SAPS   C37 1959   4.523   5.944   3.463 -0.0636  0.2013  0.8463
   15SAPS   H7X 1960   4.470   6.017   3.528  0.2085  0.3803  0.8695
   15SAPS   H7Y 1961   4.584   6.001   3.389  3.1771 -2.0719  1.5269
   15SAPS   C38 1962   4.630   5.879   3.554  0.7974  0.4636 -0.4188
   15SAPS   H8X 1963   4.710   5.847   3.484  1.0663  0.4424 -0.1072
   15SAPS   H8Y 1964   4.583   5.793   3.606  1.1419  0.7494  0.3871
   15SAPS   C39 1965   4.702   5.962   3.660  0.1101  0.0386 -0.4749
   15SAPS   H9X 1966   4.620   5.998   3.725  0.0324 -0.0806 -0.5072
   15SAPS   H9Y 1967   4.745   6.046   3.602  0.5015  0.4533  0.3949
   15SAPS  C310 1968   4.809   5.881   3.734  0.5560  0.0421  0.5900
   15SAPS  H10X 1969   4.882   5.962   3.756 -0.9578  2.3641 -2.3400
   15SAPS  H10Y 1970   4.842   5.794   3.673 -0.1902  0.5818 -0.6080
   15SAPS  C311 1971   4.760   5.830   3.869 -0.1680 -1.2040 -0.3532
   15SAPS  H11X 1972   4.707   5.738   3.838  0.1337 -1.0447 -1.3934
   15SAPS  H11Y 1973   4.688   5.894   3.924  2.5034 -0.7958  2.9955
   15SAPS  C312 1974   4.885   5.806   3.963  0.4831  0.3239  0.4713
   15SAPS  H12X 1975   4.919   5.900   4.010  2.3970  0.2133 -0.5923
   15SAPS  H12Y 1976   4.968   5.759   3.905  0.3180 -0.0963  0.5722
   15SAPS  C313 1977   4.857   5.704   4.075  0.3764  0.0544  0.2709
   15SAPS  H13X 1978   4.957   5.695   4.123  0.7887  1.3241 -0.2965
   15SAPS  H13Y 1979   4.823   5.609   4.028  1.3366 -1.5090  2.5518
   15SAPS  C314 1980   4.746   5.749   4.166 -0.6177 -0.3473 -0.4911
   15SAPS  H14X 1981   4.655   5.763   4.104 -1.5737 -0.8232  0.7643
   15SAPS  H14Y 1982   4.781   5.842   4.216  0.9688 -1.1916  0.0318
   15SAPS  C315 1983   4.722   5.648   4.283 -0.1990 -0.2543 -0.2554
   15SAPS  H15X 1984   4.814   5.633   4.342 -2.4662 -2.4631  3.0429
   15SAPS  H15Y 1985   4.697   5.547   4.243  0.2297 -1.0512  1.4375
   15SAPS  C316 1986   4.619   5.696   4.383  0.2802 -0.8573  0.0530
   15SAPS  H16X 1987   4.645   5.802   4.404 -2.4667  0.2527 -1.6649
   15SAPS  H16Y 1988   4.628   5.645   4.482 -1.6289  2.2367  1.9986
   15SAPS  C317 1989   4.473   5.692   4.341  0.6098 -0.2657  0.2267
   15SAPS  H17X 1990   4.443   5.589   4.313  1.7293 -0.1535 -1.5604
   15SAPS  H17Y 1991   4.467   5.755   4.250 -0.3744 -0.3229  0.2437
   15SAPS  C318 1992   4.399   5.753   4.459  0.5414 -0.2481 -0.7930
   15SAPS  H18X 1993   4.397   5.689   4.550 -0.1033  1.5629  0.5422
   15SAPS  H18Y 1994   4.294   5.776   4.428  0.6463  0.0190 -0.9536
   15SAPS  H18Z 1995   4.441   5.852   4.489  0.8758 -0.2724 -1.1789
   16SAPS     N 1996   4.927   6.711   2.372 -0.1747 -0.4830  0.9502
   16SAPS   HN1 1997   4.995   6.718   2.450  0.9426 -3.5842  0.3694
   16SAPS   HN2 1998   4.847   6.776   2.389 -1.0496 -1.4111  0.4751
   16SAPS   HN3 1999   4.888   6.615   2.369  3.1081 -1.9645  1.7613
   16SAPS   C12 2000   4.976   6.766   2.235 -0.0560  0.1578 -0.0793
   16SAPS  H12A 2001   5.046   6.688   2.207  0.9680  1.4564 -1.2686
   16SAPS   C13 2002   4.876   6.764   2.119 -0.4005  0.6128 -0.3429
   16SAPS  O13A 2003   4.762   6.728   2.134  0.1409  0.2459  0.1145
   16SAPS  O13B 2004   4.925   6.796   2.006  0.1236  0.3150  0.3021
   16SAPS   C11 2005   5.063   6.886   2.252 -0.3047 -0.3676 -0.1359
   16SAPS  H11A 2006   4.998   6.977   2.255  1.4491  1.0400 -1.9495
   16SAPS  H11B 2007   5.118   6.917   2.160 -0.1344 -0.2584  0.0017
   16SAPS     P 2008   5.253   6.977   2.415  0.1196 -0.0922  0.1603
   16SAPS   O13 2009   5.332   6.912   2.519 -0.1567  0.2155 -0.4071
   16SAPS   O14 2010   5.333   7.031   2.306 -0.2292  0.1352  0.0920
   16SAPS   O12 2011   5.151   6.876   2.360  0.2135  0.3839 -0.0562
   16SAPS   O11 2012   5.147   7.084   2.467 -0.2970  0.5293 -0.0609
   16SAPS    C1 2013   5.045   7.040   2.552 -0.0140 -0.5409 -0.3072
   16SAPS    HA 2014   4.961   7.111   2.543 -1.0343 -1.5036  1.1584
   16SAPS    HB 2015   4.996   6.945   2.522 -0.9074 -0.2629  0.2371
   16SAPS    C2 2016   5.071   7.037   2.699 -0.3087 -0.3656  0.0723
   16SAPS    HS 2017   4.983   7.063   2.761 -1.1647 -1.7229 -0.5271
   16SAPS   O21 2018   5.193   7.112   2.738 -0.1177 -0.4649 -0.2192
   16SAPS   C21 2019   5.177   7.242   2.736 -0.0403  0.1493 -0.1484
   16SAPS   O22 2020   5.086   7.305   2.684 -0.2593  0.0869 -0.2734
   16SAPS   C22 2021   5.303   7.298   2.808 -0.1242  0.1617  0.9275
   16SAPS   H2R 2022   5.389   7.292   2.738 -0.0884 -1.0304  1.0677
   16SAPS   H2S 2023   5.279   7.406   2.823 -1.6079 -0.0544  0.2526
   16SAPS    C3 2024   5.097   6.888   2.758  0.6368  0.1825 -0.0118
   16SAPS    HX 2025   5.196   6.865   2.715  0.9979  0.2652  0.7628
   16SAPS    HY 2026   5.018   6.812   2.739 -0.2739  0.9343  0.6599
   16SAPS   O31 2027   5.098   6.892   2.904 -0.0514 -0.2066 -0.0489
   16SAPS   C31 2028   5.190   6.804   2.959 -0.1960 -0.6756  0.0583
   16SAPS   O32 2029   5.250   6.721   2.893  0.2658 -0.0013  0.0888
   16SAPS   C32 2030   5.203   6.821   3.113  0.0727  0.1399 -0.7922
   16SAPS   H2X 2031   5.127   6.759   3.165 -0.2378  0.5082 -0.8003
   16SAPS   H2Y 2032   5.175   6.925   3.141 -0.8120  0.1655 -1.7020
   16SAPS   C23 2033   5.335   7.221   2.938  0.6754 -0.3035 -0.1238
   16SAPS   H3R 2034   5.342   7.111   2.925 -0.8094 -0.4738  0.3080
   16SAPS   H3S 2035   5.252   7.239   3.010  3.0726  0.6674  2.6423
   16SAPS   C24 2036   5.464   7.281   3.003 -0.4653  0.1970  0.4397
   16SAPS   H4R 2037   5.487   7.218   3.091 -0.6457 -0.1048  0.2741
   16SAPS   H4S 2038   5.439   7.384   3.036 -0.7714 -0.1764  1.4103
   16SAPS   C25 2039   5.587   7.268   2.915  0.2328  0.1238 -0.3911
   16SAPS   H5R 2040   5.576   7.283   2.807 -1.7201 -1.6111 -0.4822
   16SAPS   C26 2041   5.711   7.238   2.961 -0.0840  0.3444 -0.1637
   16SAPS   H6R 2042   5.789   7.241   2.883  1.6386  1.3260  1.5043
   16SAPS   C27 2043   5.767   7.219   3.107 -0.2992  0.6542 -0.1889
   16SAPS   H7R 2044   5.878   7.216   3.107 -0.2059  2.6349 -0.3909
   16SAPS   H7S 2045   5.736   7.123   3.152 -0.9444  0.8924 -0.1234
   16SAPS   C28 2046   5.726   7.337   3.200 -0.9185 -0.1522 -0.4506
   16SAPS   H8R 2047   5.678   7.423   3.151 -0.6953  0.4460  0.3550
   16SAPS   C29 2048   5.738   7.345   3.338  0.1589  0.1932 -0.0159
   16SAPS   H9R 2049   5.701   7.435   3.389 -0.5543 -0.3584  0.4445
   16SAPS  C210 2050   5.793   7.231   3.418 -0.4419  0.6090 -0.4741
   16SAPS  H10R 2051   5.865   7.278   3.488 -1.5052  1.1789  0.2646
   16SAPS  H10S 2052   5.846   7.157   3.355 -1.1480 -0.6325  0.3606
   16SAPS  C211 2053   5.680   7.158   3.492 -0.5480 -0.0399 -0.4611
   16SAPS  H11R 2054   5.624   7.098   3.419  0.3569 -0.5203 -0.7777
   16SAPS  C212 2055   5.658   7.164   3.629 -0.5694  0.7053 -0.0952
   16SAPS  H12R 2056   5.574   7.104   3.669  0.1530 -0.7434 -0.6604
   16SAPS  C213 2057   5.742   7.249   3.728  0.0724 -0.0177 -0.6078
   16SAPS  H13R 2058   5.670   7.321   3.771 -0.3417 -1.0607  0.5160
   16SAPS  H13S 2059   5.814   7.311   3.671 -0.4987  1.9107  0.6684
   16SAPS  C214 2060   5.817   7.172   3.831 -0.4133 -0.0909  1.2089
   16SAPS  H14R 2061   5.833   7.065   3.808  1.7708  0.3432  0.5135
   16SAPS  C215 2062   5.895   7.228   3.925  0.3981  0.3018 -0.3316
   16SAPS  H15R 2063   5.962   7.157   3.977  2.3860  2.5331  0.3158
   16SAPS  C216 2064   5.915   7.372   3.956 -0.1595 -0.7051  0.5908
   16SAPS  H16R 2065   5.891   7.417   3.857  0.2197 -0.8800  0.4196
   16SAPS  H16S 2066   6.016   7.397   3.993 -0.9690 -0.6715  2.9855
   16SAPS  C217 2067   5.827   7.424   4.064 -0.4000 -0.0100  0.0394
   16SAPS  H17R 2068   5.723   7.407   4.029 -0.1590 -0.5842 -0.4126
   16SAPS  H17S 2069   5.833   7.534   4.076  0.8334 -0.1228  0.7035
   16SAPS  C218 2070   5.828   7.351   4.198 -0.0895  0.5797  0.2557
   16SAPS  H18R 2071   5.934   7.363   4.230  0.6144  0.3914 -1.8310
   16SAPS  H18S 2072   5.803   7.244   4.184 -1.6965  1.3181 -4.1110
   16SAPS  C219 2073   5.726   7.405   4.296 -0.3588 -0.2021  0.3916
   16SAPS  H19R 2074   5.624   7.376   4.265  1.1470 -3.8649 -1.7633
   16SAPS  H19S 2075   5.738   7.516   4.289  1.7652 -0.2664  2.0121
   16SAPS  C220 2076   5.756   7.353   4.434  0.3888  0.1583  0.3446
   16SAPS  H20R 2077   5.781   7.245   4.425 -2.7697 -0.5907 -0.9234
   16SAPS  H20S 2078   5.659   7.357   4.490 -1.3190 -0.9330 -2.3438
   16SAPS  H20T 2079   5.836   7.410   4.485  0.6496 -0.3495  0.5118
   16SAPS   C33 2080   5.342   6.780   3.169 -0.4504  0.5281 -0.8088
   16SAPS   H3X 2081   5.431   6.835   3.133  0.5709 -0.3092  0.3614
   16SAPS   H3Y 2082   5.361   6.675   3.137  0.3773 -0.0956  1.5420
   16SAPS   C34 2083   5.365   6.777   3.315 -0.0903 -0.2493  0.2200
   16SAPS   H4X 2084   5.293   6.711   3.368  0.2815 -0.0550  0.9876
   16SAPS   H4Y 2085   5.344   6.873   3.367 -3.4820 -0.4941 -0.4664
   16SAPS   C35 2086   5.503   6.721   3.348 -0.4488  0.4117 -0.1151
   16SAPS   H5X 2087   5.576   6.754   3.271  1.8266  1.0986  2.1852
   16SAPS   H5Y 2088   5.491   6.611   3.340  1.0214  0.3125 -1.3368
   16SAPS   C36 2089   5.547   6.750   3.488  0.1312  0.4257 -0.3193
   16SAPS   H6X 2090   5.534   6.856   3.515 -1.4090  0.8125 -2.3376
   16SAPS   H6Y 2091   5.656   6.732   3.498  0.1035  0.3815 -0.0957
   16SAPS   C37 2092   5.486   6.659   3.599 -0.2592 -0.2000  0.2145
   16SAPS   H7X 2093   5.498   6.550   3.583 -1.8631 -0.2668 -0.7319
   16SAPS   H7Y 2094   5.377   6.676   3.611 -0.6220 -1.7891 -0.5492
   16SAPS   C38 2095   5.530   6.709   3.733  0.3204  0.1524 -0.3876
   16SAPS   H8X 2096   5.523   6.820   3.722 -1.1915 -0.1030 -2.8957
   16SAPS   H8Y 2097   5.636   6.680   3.745  0.6161 -0.1567 -3.0789
   16SAPS   C39 2098   5.458   6.652   3.853  0.3771  0.1362  0.0918
   16SAPS   H9X 2099   5.477   6.543   3.869  3.5733  0.6426  0.2733
   16SAPS   H9Y 2100   5.347   6.656   3.848  0.3930  0.2600 -0.1822
   16SAPS  C310 2101   5.488   6.718   3.988  0.1671 -0.5491  0.2148
   16SAPS  H10X 2102   5.594   6.752   3.989 -0.2788  0.8999  0.7681
   16SAPS  H10Y 2103   5.491   6.648   4.074  0.3727  0.3773  0.9720
   16SAPS  C311 2104   5.394   6.830   4.016  0.7015  0.6239 -0.1106
   16SAPS  H11X 2105   5.291   6.793   4.029  1.6743 -1.9718  0.7447
   16SAPS  H11Y 2106   5.388   6.904   3.933 -1.4887 -0.8105 -1.3143
   16SAPS  C312 2107   5.425   6.898   4.145 -0.2530 -0.2802 -0.7258
   16SAPS  H12X 2108   5.530   6.934   4.148  1.2280 -4.0590  2.7743
   16SAPS  H12Y 2109   5.421   6.834   4.235  0.8728  2.2566  1.2631
   16SAPS  C313 2110   5.329   7.010   4.172 -0.1694 -0.1009  0.0469
   16SAPS  H13X 2111   5.226   6.975   4.153 -1.0166  2.7187 -0.8750
   16SAPS  H13Y 2112   5.339   7.102   4.111 -1.3216  0.6317  0.9265
   16SAPS  C314 2113   5.319   7.060   4.319 -0.3746  0.4735  0.5038
   16SAPS  H14X 2114   5.418   7.102   4.344 -0.5945  0.9403  0.5951
   16SAPS  H14Y 2115   5.287   6.989   4.398 -0.4489  3.0523  2.9178
   16SAPS  C315 2116   5.219   7.172   4.332  0.6326 -0.0403 -0.4039
   16SAPS  H15X 2117   5.119   7.132   4.305  0.3250  0.1992  0.3734
   16SAPS  H15Y 2118   5.242   7.258   4.266  0.0773  1.4374  1.2585
   16SAPS  C316 2119   5.211   7.228   4.475  0.0217  0.6302  0.4067
   16SAPS  H16X 2120   5.308   7.263   4.516  0.2941  1.0622 -0.5903
   16SAPS  H16Y 2121   5.178   7.141   4.535 -2.3237 -0.7892 -2.6698
   16SAPS  C317 2122   5.118   7.351   4.488 -0.8607  0.5470 -0.3270
   16SAPS  H17X 2123   5.130   7.386   4.593 -0.4839  1.5980 -0.7068
   16SAPS  H17Y 2124   5.012   7.323   4.468 -0.3336 -2.5052  0.7195
   16SAPS  C318 2125   5.161   7.464   4.394  0.5045  0.4278  1.1862
   16SAPS  H18X 2126   5.090   7.474   4.309  0.7763 -0.1717  0.8857
   16SAPS  H18Y 2127   5.266   7.454   4.358 -0.3679  0.5701 -1.6909
   16SAPS  H18Z 2128   5.151   7.559   4.451 -1.0687 -0.9361  3.3427
   17SAPS     N 2129   1.802   6.768   1.965 -0.3107 -0.3035 -0.5285
   17SAPS   HN1 2130   1.747   6.688   1.927  0.8629 -0.7713 -1.2839
   17SAPS   HN2 2131   1.857   6.807   1.886  1.2609  1.0748  1.1638
   17SAPS   HN3 2132   1.870   6.722   2.029  0.3075 -1.4532 -1.9455
   17SAPS   C12 2133   1.711   6.865   2.026  0.5049  0.5146  0.6270
   17SAPS  H12A 2134   1.758   6.962   2.037 -0.5050  0.7789  3.2716
   17SAPS   C13 2135   1.590   6.900   1.938 -0.6518 -0.3691 -0.3913
   17SAPS  O13A 2136   1.570   6.834   1.828 -0.1572 -0.6469  0.2844
   17SAPS  O13B 2137   1.504   6.981   1.975  0.7600 -0.5095  0.3449
   17SAPS   C11 2138   1.660   6.811   2.164  1.1445 -0.1550  0.6036
   17SAPS  H11A 2139   1.595   6.721   2.160  0.6344  0.2494 -1.2649
   17SAPS  H11B 2140   1.585   6.890   2.186 -0.5692 -1.7007  0.5339
   17SAPS     P 2141   1.797   6.710   2.384  0.1127 -0.0902 -0.0012
   17SAPS   O13 2142   1.871   6.597   2.331  0.0816  0.2270  0.1252
   17SAPS   O14 2143   1.868   6.799   2.480 -0.0781  0.0115 -0.0392
   17SAPS   O12 2144   1.769   6.808   2.258 -0.0560  0.1281 -0.9032
   17SAPS   O11 2145   1.653   6.674   2.432  0.6480  0.2220  0.5205
   17SAPS    C1 2146   1.565   6.785   2.473 -0.7316  0.2098  0.4499
   17SAPS    HA 2147   1.599   6.882   2.430  3.9406 -2.3151 -2.2816
   17SAPS    HB 2148   1.468   6.766   2.422  0.1231  0.4430 -1.3346
   17SAPS    C2 2149   1.554   6.810   2.627  0.1703 -0.4683  0.0961
   17SAPS    HS 2150   1.659   6.821   2.662 -0.1846  1.5124  0.6804
   17SAPS   O21 2151   1.472   6.710   2.694 -0.2377 -0.0955 -0.7153
   17SAPS   C21 2152   1.515   6.690   2.817  0.3081  0.3601  0.3612
   17SAPS   O22 2153   1.604   6.753   2.876  0.9499 -0.8671 -0.0670
   17SAPS   C22 2154   1.444   6.570   2.884  0.0569  0.0807  0.3514
   17SAPS   H2R 2155   1.364   6.619   2.944 -0.2429 -1.9711  1.7299
   17SAPS   H2S 2156   1.400   6.503   2.808 -0.2552 -1.5271  1.8711
   17SAPS    C3 2157   1.490   6.955   2.655  0.0517  0.0726 -0.2619
   17SAPS    HX 2158   1.382   6.962   2.628 -0.1013 -0.0175  0.3114
   17SAPS    HY 2159   1.545   7.026   2.591 -1.1887 -1.7232 -3.5246
   17SAPS   O31 2160   1.502   6.992   2.798 -0.2843 -0.0826  0.0409
   17SAPS   C31 2161   1.615   7.054   2.832 -0.1630 -0.1929  0.2629
   17SAPS   O32 2162   1.714   7.064   2.764 -0.3478  0.4759  0.1649
   17SAPS   C32 2163   1.610   7.102   2.980 -0.4482  0.4307  0.3472
   17SAPS   H2X 2164   1.508   7.078   3.017  0.0492 -2.3778  0.0654
   17SAPS   H2Y 2165   1.647   7.207   2.984  1.2121 -0.0288 -1.3919
   17SAPS   C23 2166   1.535   6.491   2.989  0.7083 -1.2648  0.1294
   17SAPS   H3R 2167   1.610   6.559   3.034 -2.4866  1.1158  2.3157
   17SAPS   H3S 2168   1.589   6.411   2.933 -1.1524 -3.0111  0.7339
   17SAPS   C24 2169   1.463   6.434   3.114  0.4089 -0.6109 -0.0740
   17SAPS   H4R 2170   1.383   6.363   3.084 -1.9897  1.9718 -0.1291
   17SAPS   H4S 2171   1.404   6.517   3.157 -0.2298 -0.0063 -2.0199
   17SAPS   C25 2172   1.569   6.366   3.199  0.5219  0.0748  0.2190
   17SAPS   H5R 2173   1.611   6.274   3.156  1.2305  1.0211 -1.1598
   17SAPS   C26 2174   1.596   6.394   3.324 -0.3551 -0.3853 -0.4405
   17SAPS   H6R 2175   1.664   6.328   3.380 -1.0294 -2.0368 -1.4893
   17SAPS   C27 2176   1.539   6.515   3.400  0.6324 -0.4107  0.4571
   17SAPS   H7R 2177   1.474   6.485   3.484 -2.3828  0.9639 -1.2183
   17SAPS   H7S 2178   1.466   6.571   3.338  0.9891 -1.2367 -0.7496
   17SAPS   C28 2179   1.645   6.610   3.442 -0.1723 -0.0900  0.0916
   17SAPS   H8R 2180   1.661   6.701   3.382  0.6105 -0.2087  0.1079
   17SAPS   C29 2181   1.722   6.589   3.549 -0.3078  0.3743  0.2524
   17SAPS   H9R 2182   1.797   6.668   3.565  2.2982 -1.3451 -2.5584
   17SAPS  C210 2183   1.726   6.476   3.652  0.8222 -0.3200 -0.3347
   17SAPS  H10R 2184   1.827   6.468   3.698  0.6861 -0.1829 -0.0126
   17SAPS  H10S 2185   1.679   6.388   3.602 -1.0865  1.2710 -1.5232
   17SAPS  C211 2186   1.626   6.512   3.760  0.2177 -0.5142 -0.4217
   17SAPS  H11R 2187   1.529   6.549   3.724 -1.2558 -0.6895  2.9314
   17SAPS  C212 2188   1.640   6.513   3.896  0.3567  0.4619  0.4697
   17SAPS  H12R 2189   1.554   6.557   3.950  0.1002  0.0527  0.4019
   17SAPS  C213 2190   1.753   6.467   3.986 -0.1986  0.4691 -0.2094
   17SAPS  H13R 2191   1.841   6.430   3.928  0.1176 -0.4441  0.8184
   17SAPS  H13S 2192   1.720   6.379   4.044  0.2688 -0.7529 -1.7189
   17SAPS  C214 2193   1.798   6.579   4.082  0.1440  0.2470  0.0854
   17SAPS  H14R 2194   1.743   6.673   4.065  0.8468  0.4759 -1.0361
   17SAPS  C215 2195   1.884   6.572   4.182 -0.0786  0.4820  0.3571
   17SAPS  H15R 2196   1.903   6.663   4.241 -0.0666  0.3155  0.6135
   17SAPS  C216 2197   1.985   6.459   4.208  0.4730 -0.1906 -0.3340
   17SAPS  H16R 2198   2.092   6.489   4.205  0.2122  0.8103  0.2393
   17SAPS  H16S 2199   1.975   6.382   4.128  0.4797 -0.7408  0.1853
   17SAPS  C217 2200   1.952   6.396   4.342 -0.3454 -0.1768 -0.1445
   17SAPS  H17R 2201   1.957   6.475   4.420  1.9674  0.2471 -0.6529
   17SAPS  H17S 2202   2.034   6.324   4.364  3.5439  3.7947 -0.1222
   17SAPS  C218 2203   1.815   6.328   4.350  0.0983 -0.1646  0.4263
   17SAPS  H18R 2204   1.817   6.266   4.257 -1.5629  2.5599 -1.5868
   17SAPS  H18S 2205   1.724   6.391   4.343  0.6870  0.7029  0.4507
   17SAPS  C219 2206   1.802   6.235   4.479  0.1988  0.3856 -0.5795
   17SAPS  H19R 2207   1.761   6.297   4.562  1.1879  0.3855 -0.0733
   17SAPS  H19S 2208   1.902   6.199   4.513 -0.8071 -0.7265  1.4078
   17SAPS  C220 2209   1.709   6.117   4.459  0.2353  0.1282  0.1933
   17SAPS  H20R 2210   1.739   6.057   4.370 -1.4309 -1.8311  0.8881
   17SAPS  H20S 2211   1.606   6.153   4.437  0.1518 -1.4714 -2.5476
   17SAPS  H20T 2212   1.721   6.047   4.544 -0.4231 -1.6482 -1.1120
   17SAPS   C33 2213   1.700   7.018   3.075  0.3117 -0.0204 -0.0005
   17SAPS   H3X 2214   1.802   7.059   3.060 -0.4966  1.1346 -3.2852
   17SAPS   H3Y 2215   1.683   6.912   3.046 -2.7252  0.2665  0.3542
   17SAPS   C34 2216   1.663   7.053   3.225 -0.5422 -0.2851  0.6451
   17SAPS   H4X 2217   1.557   7.022   3.233 -1.0703  1.3643  0.3480
   17SAPS   H4Y 2218   1.676   7.163   3.236 -0.8627 -0.3553  1.8213
   17SAPS   C35 2219   1.745   6.980   3.331  0.1187 -0.1804 -0.3785
   17SAPS   H5X 2220   1.848   7.022   3.328  0.5341 -1.2394 -2.2492
   17SAPS   H5Y 2221   1.763   6.875   3.299  0.6248 -0.8672  1.9496
   17SAPS   C36 2222   1.675   6.994   3.472  0.0473 -0.0726  0.3768
   17SAPS   H6X 2223   1.593   6.920   3.484 -0.2324 -0.2703 -2.2071
   17SAPS   H6Y 2224   1.629   7.095   3.472 -0.0972 -0.1378  0.3637
   17SAPS   C37 2225   1.774   6.978   3.592  0.4697 -0.3064  0.7188
   17SAPS   H7X 2226   1.821   7.078   3.600 -0.5642  0.6078 -2.8383
   17SAPS   H7Y 2227   1.846   6.895   3.575 -0.5692 -1.0933  0.0112
   17SAPS   C38 2228   1.706   6.955   3.727 -0.0814 -0.1712  0.3014
   17SAPS   H8X 2229   1.682   6.850   3.751 -1.1395  0.1035  0.4964
   17SAPS   H8Y 2230   1.611   7.013   3.716  0.5943  1.3139  1.8179
   17SAPS   C39 2231   1.774   7.027   3.844 -0.4041 -0.1539 -0.2835
   17SAPS   H9X 2232   1.788   7.136   3.831  1.6803 -0.0794  1.7341
   17SAPS   H9Y 2233   1.872   6.973   3.841 -0.5964 -0.4726 -1.1079
   17SAPS  C310 2234   1.713   7.006   3.981  0.0941 -0.5607  0.7627
   17SAPS  H10X 2235   1.681   6.901   3.996  0.4687 -0.8799 -0.5430
   17SAPS  H10Y 2236   1.623   7.070   3.989 -0.1249 -0.1663 -3.0728
   17SAPS  C311 2237   1.806   7.047   4.098 -0.4557 -0.4027 -0.0796
   17SAPS  H11X 2238   1.828   7.154   4.075  0.2301 -0.9496 -2.2442
   17SAPS  H11Y 2239   1.901   6.990   4.085 -0.0350  0.5467 -1.4753
   17SAPS  C312 2240   1.744   7.036   4.239  0.1925  0.2599 -0.1048
   17SAPS  H12X 2241   1.637   7.066   4.231  0.4389  1.4512  0.7909
   17SAPS  H12Y 2242   1.799   7.105   4.308  3.0035 -1.8448 -0.0930
   17SAPS  C313 2243   1.767   6.898   4.297 -0.3383  0.4043  0.0083
   17SAPS  H13X 2244   1.875   6.873   4.311 -0.5317  0.3793  1.7294
   17SAPS  H13Y 2245   1.719   6.829   4.224  1.3737 -0.6113 -0.2227
   17SAPS  C314 2246   1.694   6.881   4.427 -0.0075  0.6035 -0.1933
   17SAPS  H14X 2247   1.588   6.903   4.406  0.5016  1.3969 -2.1597
   17SAPS  H14Y 2248   1.745   6.961   4.485 -0.4459  2.2577 -2.0104
   17SAPS  C315 2249   1.721   6.746   4.500  0.1528  0.3267 -0.4097
   17SAPS  H15X 2250   1.825   6.719   4.525 -0.3704 -2.9029 -1.2857
   17SAPS  H15Y 2251   1.698   6.661   4.433 -2.8444 -0.5875  1.5851
   17SAPS  C316 2252   1.644   6.730   4.630 -0.2869  0.1786  0.4577
   17SAPS  H16X 2253   1.682   6.810   4.698  1.2223 -0.7705  0.7783
   17SAPS  H16Y 2254   1.660   6.630   4.676 -0.7329 -1.0508 -1.9126
   17SAPS  C317 2255   1.490   6.745   4.620 -0.4642 -0.2605  0.1447
   17SAPS  H17X 2256   1.468   6.668   4.543  1.0557 -0.6777  0.1059
   17SAPS  H17Y 2257   1.471   6.844   4.573 -0.9515 -0.5492 -0.2745
   17SAPS  C318 2258   1.405   6.729   4.752 -1.1124  0.3034  0.1822
   17SAPS  H18X 2259   1.301   6.693   4.739 -0.6370 -1.0475 -0.0524
   17SAPS  H18Y 2260   1.409   6.834   4.789  1.0498  0.0677  0.7623
   17SAPS  H18Z 2261   1.448   6.658   4.826  2.9980  2.1616 -0.1184
   18SAPS     N 2262   6.522   4.163   2.382  0.4823  0.6066  0.0095
   18SAPS   HN1 2263   6.605   4.176   2.322  0.5019 -0.4029 -0.1900
   18SAPS   HN2 2264   6.521   4.236   2.457  0.8432 -1.8587  2.5753
   18SAPS   HN3 2265   6.527   4.074   2.435  0.0951 -0.1213 -1.1425
   18SAPS   C12 2266   6.398   4.147   2.298 -0.5166 -0.6950 -0.5924
   18SAPS  H12A 2267   6.398   4.222   2.220  3.2197 -1.0823 -1.1438
   18SAPS   C13 2268   6.382   4.007   2.230  0.4386 -0.0942  0.0963
   18SAPS  O13A 2269   6.461   3.911   2.233 -0.4126 -0.9275 -0.2743
   18SAPS  O13B 2270   6.277   3.994   2.161  0.3335  0.1249 -0.3250
   18SAPS   C11 2271   6.287   4.174   2.390  0.3502  0.2968 -0.3292
   18SAPS  H11A 2272   6.287   4.098   2.472  1.2023 -1.3746 -1.8192
   18SAPS  H11B 2273   6.188   4.152   2.344 -0.8847 -1.0759  2.6848
   18SAPS     P 2274   6.179   4.359   2.538  0.0284 -0.0621 -0.1683
   18SAPS   O13 2275   6.205   4.498   2.575 -0.1398  0.3616  0.0419
   18SAPS   O14 2276   6.048   4.328   2.477 -0.0015  0.3286 -0.0739
   18SAPS   O12 2277   6.289   4.308   2.440 -0.6085  0.7329  0.3643
   18SAPS   O11 2278   6.191   4.270   2.666 -0.2569  0.6817 -0.3069
   18SAPS    C1 2279   6.126   4.307   2.788  0.2942 -0.3962  0.2114
   18SAPS    HA 2280   6.104   4.415   2.795 -0.1180 -0.5088  0.6794
   18SAPS    HB 2281   6.026   4.258   2.790 -0.2767  0.7114 -0.4598
   18SAPS    C2 2282   6.212   4.265   2.908 -0.1783 -0.6423 -0.6768
   18SAPS    HS 2283   6.297   4.337   2.917 -0.0213 -1.0862  2.9297
   18SAPS   O21 2284   6.254   4.127   2.893  0.2172  0.5787  0.4041
   18SAPS   C21 2285   6.377   4.111   2.848 -0.5389  0.2463  0.3188
   18SAPS   O22 2286   6.452   4.203   2.814  0.1159  0.5914 -0.1757
   18SAPS   C22 2287   6.424   3.967   2.841  0.4760 -0.5877 -0.1313
   18SAPS   H2R 2288   6.349   3.912   2.779  1.6752 -0.4580 -1.7522
   18SAPS   H2S 2289   6.515   3.975   2.779 -0.4165 -3.0998 -1.9582
   18SAPS    C3 2290   6.143   4.286   3.044  0.2713 -0.2500 -0.4491
   18SAPS    HX 2291   6.202   4.247   3.130  1.0015 -2.4820 -1.8744
   18SAPS    HY 2292   6.050   4.225   3.038  1.1502 -1.6951  0.0657
   18SAPS   O31 2293   6.106   4.425   3.059 -0.8582 -0.0653 -0.0346
   18SAPS   C31 2294   6.051   4.447   3.178  0.4990  0.0007 -0.1458
   18SAPS   O32 2295   6.045   4.366   3.271 -0.3102 -0.9174  0.0560
   18SAPS   C32 2296   5.990   4.587   3.178 -0.0903  0.4350 -0.5803
   18SAPS   H2X 2297   5.901   4.587   3.112 -2.6215 -0.0532  2.6054
   18SAPS   H2Y 2298   6.059   4.662   3.132 -0.6019  0.4637 -1.3162
   18SAPS   C23 2299   6.471   3.922   2.977 -0.5424 -0.8393  0.0758
   18SAPS   H3R 2300   6.511   4.017   3.019  3.0847 -1.0462 -2.4664
   18SAPS   H3S 2301   6.560   3.860   2.954 -0.4768 -1.3718  1.6662
   18SAPS   C24 2302   6.362   3.852   3.062 -0.2273 -0.4335 -0.4666
   18SAPS   H4R 2303   6.268   3.910   3.051  1.0118  1.8004 -0.0075
   18SAPS   H4S 2304   6.397   3.869   3.166  0.2671  2.3293 -1.0135
   18SAPS   C25 2305   6.333   3.703   3.031  0.1777 -0.5121 -0.3728
   18SAPS   H5R 2306   6.323   3.687   2.923 -2.7612  0.8875 -0.4117
   18SAPS   C26 2307   6.286   3.602   3.116  0.3445 -0.9139  0.4765
   18SAPS   H6R 2308   6.254   3.501   3.088 -1.0519 -0.2262 -0.4938
   18SAPS   C27 2309   6.256   3.626   3.262 -0.6161  0.5999 -0.0410
   18SAPS   H7R 2310   6.146   3.617   3.271 -0.4810 -1.6537 -0.1838
   18SAPS   H7S 2311   6.275   3.728   3.302 -0.1245 -0.0477  1.4595
   18SAPS   C28 2312   6.330   3.526   3.343 -0.0385 -0.1025  0.5065
   18SAPS   H8R 2313   6.438   3.546   3.346 -0.2387  0.8922  1.4796
   18SAPS   C29 2314   6.274   3.422   3.419 -0.2848 -0.4031  0.9186
   18SAPS   H9R 2315   6.351   3.354   3.458 -1.0060 -1.7038  0.1292
   18SAPS  C210 2316   6.131   3.379   3.412  0.3269 -0.8061  0.0551
   18SAPS  H10R 2317   6.085   3.372   3.311  0.6948  0.7998 -0.2447
   18SAPS  H10S 2318   6.070   3.457   3.462  1.1363  0.7597 -1.3018
   18SAPS  C211 2319   6.113   3.254   3.499  0.4356 -0.2364 -0.4227
   18SAPS  H11R 2320   6.175   3.170   3.466  1.8418  0.2148  0.9458
   18SAPS  C212 2321   6.040   3.249   3.613  0.0510  0.0138 -0.4118
   18SAPS  H12R 2322   6.022   3.154   3.667  0.2870  0.9338  1.3691
   18SAPS  C213 2323   5.949   3.359   3.661 -0.6342  0.0256  0.6435
   18SAPS  H13R 2324   5.864   3.301   3.703  1.9804 -3.0584  2.0954
   18SAPS  H13S 2325   5.907   3.415   3.574 -2.1896 -3.4516 -1.0465
   18SAPS  C214 2326   6.004   3.458   3.757 -0.3743  0.6717 -0.2731
   18SAPS  H14R 2327   6.073   3.533   3.716  1.1827 -0.1987  0.6283
   18SAPS  C215 2328   5.972   3.484   3.886 -0.1572 -0.2925  0.1984
   18SAPS  H15R 2329   6.011   3.576   3.931 -0.2577 -0.9457  1.6715
   18SAPS  C216 2330   5.890   3.397   3.980 -0.2222 -0.1587 -0.2367
   18SAPS  H16R 2331   5.891   3.295   3.937  0.5614 -0.8813  1.4212
   18SAPS  H16S 2332   5.785   3.435   3.980 -1.0444 -2.3087  0.0133
   18SAPS  C217 2333   5.950   3.406   4.121 -0.5634 -0.9150 -0.0694
   18SAPS  H17R 2334   5.954   3.514   4.147  3.8749 -0.8032 -0.4938
   18SAPS  H17S 2335   6.053   3.367   4.114  0.0468  0.9313 -2.7824
   18SAPS  C218 2336   5.860   3.327   4.214 -0.6639 -0.1321 -0.2441
   18SAPS  H18R 2337   5.867   3.220   4.182  1.7921 -0.7124  1.9143
   18SAPS  H18S 2338   5.753   3.353   4.209 -0.6305 -0.1584 -1.6687
   18SAPS  C219 2339   5.892   3.342   4.365  0.0900 -0.0812  0.3289
   18SAPS  H19R 2340   5.851   3.435   4.410  1.8983  0.1313  1.6242
   18SAPS  H19S 2341   6.002   3.356   4.373  0.5434 -3.0213  0.3887
   18SAPS  C220 2342   5.853   3.226   4.453  0.7933  0.4369 -0.6356
   18SAPS  H20R 2343   5.743   3.214   4.458  0.6464  1.9556  1.1000
   18SAPS  H20S 2344   5.897   3.234   4.555  3.8789  1.4357 -1.9348
   18SAPS  H20T 2345   5.896   3.135   4.406 -0.9586 -0.7732 -0.0223
   18SAPS   C33 2346   5.957   4.644   3.316 -0.1986 -0.8457  0.0534
   18SAPS   H3X 2347   6.045   4.641   3.384  0.0399  0.4147 -0.1581
   18SAPS   H3Y 2348   5.883   4.579   3.365 -0.4402 -0.1511  0.6390
   18SAPS   C34 2349   5.887   4.782   3.323 -0.0279 -0.6961  0.1519
   18SAPS   H4X 2350   5.790   4.783   3.270 -0.9050  2.9302  1.4894
   18SAPS   H4Y 2351   5.940   4.867   3.273  0.0464  0.2855  1.8370
   18SAPS   C35 2352   5.852   4.808   3.474  0.0565  0.3168 -0.0587
   18SAPS   H5X 2353   5.943   4.844   3.526  0.6231 -1.0992 -0.0169
   18SAPS   H5Y 2354   5.814   4.722   3.534 -2.6001  0.8891 -0.7609
   18SAPS   C36 2355   5.761   4.923   3.497  0.2309 -0.2212  0.1299
   18SAPS   H6X 2356   5.659   4.906   3.455  0.4315  0.8502 -0.8315
   18SAPS   H6Y 2357   5.802   5.017   3.456 -0.2286  0.3615  0.9768
   18SAPS   C37 2358   5.756   4.957   3.649 -0.1868  0.1740  0.1464
   18SAPS   H7X 2359   5.688   5.045   3.656  1.0370  1.0448  2.5817
   18SAPS   H7Y 2360   5.856   4.988   3.687 -0.6943 -1.0441  2.7291
   18SAPS   C38 2361   5.697   4.852   3.739  0.1318 -0.1640  0.2599
   18SAPS   H8X 2362   5.768   4.770   3.762  1.1024  0.1891 -1.3736
   18SAPS   H8Y 2363   5.608   4.810   3.688 -1.1932  0.3664  2.0082
   18SAPS   C39 2364   5.655   4.913   3.870 -0.2131 -1.2890 -0.1427
   18SAPS   H9X 2365   5.601   5.004   3.836 -0.6848 -2.4854 -2.9208
   18SAPS   H9Y 2366   5.739   4.958   3.926 -1.7655 -0.1476  1.3569
   18SAPS  C310 2367   5.574   4.821   3.960  0.2606 -0.3826  0.7432
   18SAPS  H10X 2368   5.643   4.738   3.987  3.3980  1.6303 -0.4556
   18SAPS  H10Y 2369   5.484   4.793   3.901  0.5790 -1.5744  0.7881
   18SAPS  C311 2370   5.533   4.897   4.081  0.1692 -0.0017 -0.9940
   18SAPS  H11X 2371   5.460   4.969   4.040 -1.8726 -1.2946  0.2223
   18SAPS  H11Y 2372   5.620   4.939   4.137 -1.6755 -1.1041  3.0481
   18SAPS  C312 2373   5.463   4.810   4.180  0.3406 -0.2746 -0.5074
   18SAPS  H12X 2374   5.545   4.759   4.234  0.1645 -3.0441 -2.6150
   18SAPS  H12Y 2375   5.402   4.726   4.139 -0.3005  0.1112 -0.3566
   18SAPS  C313 2376   5.375   4.890   4.277 -0.4954 -0.5797  1.0204
   18SAPS  H13X 2377   5.330   4.813   4.343  0.1072  0.0278  2.1588
   18SAPS  H13Y 2378   5.293   4.946   4.226  2.6375  1.9598 -1.6596
   18SAPS  C314 2379   5.440   4.989   4.373  0.1990  0.4573 -0.2867
   18SAPS  H14X 2380   5.474   5.075   4.311  1.7888  0.1601  0.1286
   18SAPS  H14Y 2381   5.528   4.947   4.427 -0.8067  0.7420  1.6618
   18SAPS  C315 2382   5.336   5.039   4.478 -0.6077  0.4184  0.1768
   18SAPS  H15X 2383   5.300   4.947   4.530  0.8956 -0.1674  0.2302
   18SAPS  H15Y 2384   5.255   5.087   4.419 -1.3116 -0.2792  0.5573
   18SAPS  C316 2385   5.390   5.134   4.590  0.0036  0.8784 -0.3949
   18SAPS  H16X 2386   5.485   5.094   4.631 -1.2093 -2.6946 -0.7938
   18SAPS  H16Y 2387   5.319   5.119   4.674  0.3421 -4.6934 -0.7541
   18SAPS  C317 2388   5.395   5.284   4.564 -0.7913  0.3349  0.6237
   18SAPS  H17X 2389   5.297   5.318   4.522 -1.7874 -1.7497  1.1746
   18SAPS  H17Y 2390   5.474   5.303   4.488 -2.5509  3.4646 -0.6351
   18SAPS  C318 2391   5.434   5.366   4.683 -0.2025  0.0544  0.4295
   18SAPS  H18X 2392   5.354   5.353   4.759 -0.7593  3.1743  0.4907
   18SAPS  H18Y 2393   5.446   5.475   4.664 -2.0927  0.5648  1.8826
   18SAPS  H18Z 2394   5.527   5.319   4.723  1.2698  1.8819 -0.6536
   19SAPS     N 2395   4.789   1.198   2.410 -0.7115 -0.3632 -0.4571
   19SAPS   HN1 2396   4.871   1.212   2.473  0.1064 -1.4673 -1.2434
   19SAPS   HN2 2397   4.784   1.292   2.364  1.9460 -0.5272 -1.2484
   19SAPS   HN3 2398   4.709   1.169   2.469  1.1353 -2.0909  1.3431
   19SAPS   C12 2399   4.835   1.088   2.321  0.6369 -0.2688  0.1719
   19SAPS  H12A 2400   4.833   0.989   2.366 -0.2757 -0.4182 -0.1777
   19SAPS   C13 2401   4.743   1.078   2.193  0.0616  0.3875 -0.0538
   19SAPS  O13A 2402   4.651   1.163   2.169 -0.0390  0.2733 -0.3019
   19SAPS  O13B 2403   4.759   0.978   2.115 -0.8636 -0.5455 -0.4196
   19SAPS   C11 2404   4.980   1.123   2.276 -0.0546  0.4521 -0.2231
   19SAPS  H11A 2405   4.990   1.221   2.226  1.0515  0.5791  0.2088
   19SAPS  H11B 2406   5.014   1.045   2.204  0.4330  1.1048 -0.7230
   19SAPS     P 2407   5.210   1.122   2.389 -0.1040  0.1644 -0.0698
   19SAPS   O13 2408   5.247   1.035   2.279  0.4769 -0.5062  0.9919
   19SAPS   O14 2409   5.265   1.260   2.386 -0.0378  0.1478 -0.3650
   19SAPS   O12 2410   5.058   1.122   2.400 -0.3740  0.8508  0.1881
   19SAPS   O11 2411   5.257   1.055   2.527  0.3770  0.0371  0.4283
   19SAPS    C1 2412   5.173   0.946   2.577  0.0293  0.3463 -0.6963
   19SAPS    HA 2413   5.130   0.893   2.489  1.2756 -2.2368  0.1465
   19SAPS    HB 2414   5.230   0.872   2.638 -0.6204 -0.3291 -0.8887
   19SAPS    C2 2415   5.067   1.001   2.675  0.3546  0.3362 -0.5208
   19SAPS    HS 2416   5.019   1.096   2.644  2.2876  0.5894 -2.9623
   19SAPS   O21 2417   5.128   1.015   2.809  0.2638 -0.0010 -0.4458
   19SAPS   C21 2418   5.156   1.130   2.854 -0.1329  0.5483 -0.3121
   19SAPS   O22 2419   5.140   1.235   2.793 -0.0403  0.0690 -0.0760
   19SAPS   C22 2420   5.229   1.113   2.987  0.7059 -0.5268 -0.4459
   19SAPS   H2R 2421   5.153   1.060   3.047 -2.2127  2.0211 -1.5752
   19SAPS   H2S 2422   5.316   1.045   2.974  1.0904 -0.3778  1.1321
   19SAPS    C3 2423   4.955   0.890   2.690  0.5648  0.2541 -0.2290
   19SAPS    HX 2424   5.013   0.806   2.735 -0.5188 -1.1119 -1.2944
   19SAPS    HY 2425   4.915   0.877   2.587 -0.1371 -0.1764  0.0902
   19SAPS   O31 2426   4.855   0.926   2.790 -0.5773 -0.3556  0.4161
   19SAPS   C31 2427   4.753   1.000   2.758  0.5864 -0.0970 -0.0473
   19SAPS   O32 2428   4.740   1.060   2.655 -0.1686 -0.8210 -0.5574
   19SAPS   C32 2429   4.658   0.997   2.871  0.1587  0.2526 -0.4241
   19SAPS   H2X 2430   4.583   0.917   2.856  0.9682 -0.6795  0.3784
   19SAPS   H2Y 2431   4.600   1.092   2.881  0.1273  0.1386  0.6549
   19SAPS   C23 2432   5.272   1.244   3.056  0.0930 -0.6164  0.3928
   19SAPS   H3R 2433   5.207   1.334   3.067 -1.0314 -1.2547 -0.7777
   19SAPS   H3S 2434   5.366   1.268   3.001 -1.0859 -1.2178 -1.9837
   19SAPS   C24 2435   5.294   1.218   3.206 -0.3114  0.0139 -0.1317
   19SAPS   H4R 2436   5.310   1.109   3.223 -1.8889 -0.0139  1.4073
   19SAPS   H4S 2437   5.200   1.240   3.261  0.2184  3.1118 -0.3102
   19SAPS   C25 2438   5.406   1.300   3.265  0.0250  0.2653  0.0244
   19SAPS   H5R 2439   5.366   1.392   3.309 -2.9720 -0.8685 -0.0880
   19SAPS   C26 2440   5.536   1.267   3.268  0.0494  0.4830 -0.6291
   19SAPS   H6R 2441   5.605   1.331   3.324 -0.1362 -0.1737  0.3841
   19SAPS   C27 2442   5.602   1.146   3.220 -0.0254  0.2231 -0.0561
   19SAPS   H7R 2443   5.547   1.106   3.132  0.2167  2.1472 -1.1454
   19SAPS   H7S 2444   5.594   1.074   3.304  1.6742  0.3605  0.2599
   19SAPS   C28 2445   5.741   1.166   3.180 -1.3384  0.5634 -0.4803
   19SAPS   H8R 2446   5.746   1.233   3.093 -0.2601 -1.3955 -2.0087
   19SAPS   C29 2447   5.848   1.098   3.232  0.8584  0.2489 -0.2606
   19SAPS   H9R 2448   5.939   1.100   3.170  0.3227 -2.4918 -1.2800
   19SAPS  C210 2449   5.854   0.997   3.349  0.2768 -0.9694 -0.2183
   19SAPS  H10R 2450   5.769   1.021   3.416  1.6536  0.4525  1.0755
   19SAPS  H10S 2451   5.940   1.024   3.414 -2.0760 -0.1743  2.7614
   19SAPS  C211 2452   5.859   0.861   3.295 -0.1892  0.3837 -0.8151
   19SAPS  H11R 2453   5.931   0.844   3.214 -2.0158  1.9186 -2.8866
   19SAPS  C212 2454   5.801   0.757   3.355 -0.0962 -0.5869 -0.0305
   19SAPS  H12R 2455   5.818   0.662   3.302  0.5987 -0.4279 -0.1035
   19SAPS  C213 2456   5.711   0.754   3.474  0.3450 -0.4268  0.2081
   19SAPS  H13R 2457   5.618   0.694   3.459  0.4370 -0.9959  1.6725
   19SAPS  H13S 2458   5.670   0.856   3.488  0.6136  0.0434 -2.0538
   19SAPS  C214 2459   5.793   0.709   3.599  0.8165  0.1017  0.4476
   19SAPS  H14R 2460   5.900   0.731   3.590  1.1995 -1.3481  1.2536
   19SAPS  C215 2461   5.731   0.663   3.709  0.3614 -0.5929  0.5028
   19SAPS  H15R 2462   5.791   0.627   3.795  0.3176 -1.4696  0.1823
   19SAPS  C216 2463   5.583   0.651   3.739 -0.5262  0.3176  0.0003
   19SAPS  H16R 2464   5.566   0.557   3.795  2.8394 -0.7643 -0.5824
   19SAPS  H16S 2465   5.520   0.662   3.648  0.4489 -1.2938 -0.9158
   19SAPS  C217 2466   5.546   0.756   3.849  0.5092 -0.4431 -0.0471
   19SAPS  H17R 2467   5.435   0.765   3.855  0.4743 -1.0468  0.2260
   19SAPS  H17S 2468   5.574   0.862   3.827 -1.4825 -0.0431 -0.9267
   19SAPS  C218 2469   5.606   0.715   3.987 -0.6086  0.0268 -0.1584
   19SAPS  H18R 2470   5.712   0.694   3.962 -0.6001 -3.7800  2.2167
   19SAPS  H18S 2471   5.562   0.619   4.022  2.2391 -1.0333  0.7872
   19SAPS  C219 2472   5.596   0.815   4.106  0.2427 -0.2219  0.4366
   19SAPS  H19R 2473   5.489   0.813   4.138 -0.0574  1.6014 -0.3617
   19SAPS  H19S 2474   5.594   0.922   4.077 -1.9287 -0.1125  0.7961
   19SAPS  C220 2475   5.684   0.790   4.226  0.0663  0.4390  0.3110
   19SAPS  H20R 2476   5.714   0.883   4.279 -0.3981  1.5650 -1.3206
   19SAPS  H20S 2477   5.780   0.744   4.196 -0.3757 -1.5134  1.6862
   19SAPS  H20T 2478   5.634   0.712   4.287  0.2261 -0.3280 -0.5210
   19SAPS   C33 2479   4.722   0.977   3.010 -0.0112  0.2515 -0.1070
   19SAPS   H3X 2480   4.791   1.056   3.046  0.8006  0.1100 -1.2874
   19SAPS   H3Y 2481   4.794   0.892   3.010  1.2570  1.2690  1.2126
   19SAPS   C34 2482   4.616   0.960   3.120 -0.1443  0.3204  0.5459
   19SAPS   H4X 2483   4.587   0.853   3.134 -0.3006  0.5872  2.5514
   19SAPS   H4Y 2484   4.516   1.009   3.117  0.4179  1.5934  1.7242
   19SAPS   C35 2485   4.676   0.984   3.263 -0.1908 -0.6200  0.7001
   19SAPS   H5X 2486   4.718   1.086   3.270  2.4822 -1.5957  0.0866
   19SAPS   H5Y 2487   4.768   0.923   3.275  1.5928  1.9690  1.1058
   19SAPS   C36 2488   4.585   0.983   3.384  0.7335 -0.0967  0.0051
   19SAPS   H6X 2489   4.515   0.897   3.376 -0.4772  0.4702  3.0729
   19SAPS   H6Y 2490   4.531   1.080   3.389 -0.2468 -0.6492  0.4278
   19SAPS   C37 2491   4.655   0.958   3.516  0.9818  0.4910 -0.1735
   19SAPS   H7X 2492   4.713   1.047   3.548  0.8965  1.4429 -2.4491
   19SAPS   H7Y 2493   4.724   0.871   3.519  0.8864  0.4364  1.9410
   19SAPS   C38 2494   4.550   0.928   3.626 -0.0746  0.3237  0.7012
   19SAPS   H8X 2495   4.457   0.874   3.597  0.5551 -0.8224  0.7870
   19SAPS   H8Y 2496   4.515   1.025   3.667 -0.2763  1.2811 -1.5919
   19SAPS   C39 2497   4.606   0.827   3.723  0.2367  0.2023 -0.7338
   19SAPS   H9X 2498   4.693   0.870   3.777  0.9369  0.5859 -2.1188
   19SAPS   H9Y 2499   4.637   0.737   3.666  0.3879 -0.0153 -0.3098
   19SAPS  C310 2500   4.518   0.785   3.838  0.0401 -0.6462 -0.4240
   19SAPS  H10X 2501   4.422   0.742   3.804 -1.0249  2.7445 -2.1144
   19SAPS  H10Y 2502   4.479   0.869   3.899  1.3818  1.5376 -2.3905
   19SAPS  C311 2503   4.581   0.687   3.939  0.0417  0.2239 -0.3901
   19SAPS  H11X 2504   4.678   0.719   3.982 -1.1151  1.4242  1.4643
   19SAPS  H11Y 2505   4.601   0.585   3.901  0.4020 -0.8035  2.3641
   19SAPS  C312 2506   4.479   0.679   4.061 -0.0740 -0.2021  0.0633
   19SAPS  H12X 2507   4.388   0.617   4.050 -2.4470  3.3098 -1.9564
   19SAPS  H12Y 2508   4.444   0.781   4.088 -2.1903 -0.7347 -0.5470
   19SAPS  C313 2509   4.549   0.618   4.182  1.1142  0.8240 -0.0764
   19SAPS  H13X 2510   4.633   0.559   4.141  2.3576  0.7960  2.3351
   19SAPS  H13Y 2511   4.489   0.542   4.238  0.5155  1.7961  0.6290
   19SAPS  C314 2512   4.611   0.713   4.287  0.0486 -0.2489 -0.2325
   19SAPS  H14X 2513   4.535   0.757   4.355  0.4580  0.2022 -0.0668
   19SAPS  H14Y 2514   4.661   0.800   4.239  2.5347 -1.4615  0.0408
   19SAPS  C315 2515   4.724   0.645   4.381 -0.1598 -0.3239 -0.4837
   19SAPS  H15X 2516   4.812   0.626   4.315  1.3395 -3.0819  2.0826
   19SAPS  H15Y 2517   4.689   0.545   4.413 -0.3670 -0.3975 -0.9222
   19SAPS  C316 2518   4.764   0.737   4.493  0.1113  0.3104  0.3741
   19SAPS  H16X 2519   4.672   0.765   4.550 -0.5954  1.2803 -1.1801
   19SAPS  H16Y 2520   4.798   0.834   4.451  0.6211 -0.0158  0.0293
   19SAPS  C317 2521   4.880   0.681   4.581 -0.2183  0.3516  0.0019
   19SAPS  H17X 2522   4.928   0.609   4.513 -0.3540  1.7559 -1.6401
   19SAPS  H17Y 2523   4.838   0.627   4.669 -0.2642 -2.3825 -1.5903
   19SAPS  C318 2524   4.982   0.798   4.621  0.7326  0.3541  0.4547
   19SAPS  H18X 2525   5.080   0.751   4.646  0.0397 -1.5036 -0.1563
   19SAPS  H18Y 2526   4.938   0.855   4.705  0.9020 -1.0027  1.4878
   19SAPS  H18Z 2527   5.011   0.854   4.529  0.9666 -2.2043 -1.1424
   20SAPS     N 2528   6.974   2.484   2.245  0.5316 -0.1911  0.0588
   20SAPS   HN1 2529   7.026   2.422   2.311 -0.5465  0.2325  1.3600
   20SAPS   HN2 2530   6.985   2.449   2.148 -1.4526  1.0394 -0.6764
   20SAPS   HN3 2531   7.022   2.577   2.248  1.5438 -0.6876 -0.3265
   20SAPS   C12 2532   6.833   2.484   2.283 -0.3535  0.1253  0.0658
   20SAPS  H12A 2533   6.831   2.508   2.388  0.6379  0.4123  0.0277
   20SAPS   C13 2534   6.754   2.589   2.207  0.1160  0.1182 -0.7509
   20SAPS  O13A 2535   6.784   2.632   2.088  0.2209 -0.0210 -0.0973
   20SAPS  O13B 2536   6.647   2.626   2.271 -0.4122 -0.3883  0.4766
   20SAPS   C11 2537   6.787   2.342   2.260 -0.0654 -0.6874 -0.2180
   20SAPS  H11A 2538   6.807   2.313   2.154 -0.3007 -0.4036 -0.3406
   20SAPS  H11B 2539   6.678   2.330   2.276 -0.0708 -1.3407 -0.7023
   20SAPS     P 2540   6.820   2.174   2.473 -0.0655  0.6813 -0.3266
   20SAPS   O13 2541   6.748   2.052   2.419  0.5570 -0.3868 -0.6802
   20SAPS   O14 2542   6.942   2.166   2.558  0.0721 -0.7286  1.1478
   20SAPS   O12 2543   6.855   2.270   2.357  0.0294  0.5912 -0.0052
   20SAPS   O11 2544   6.714   2.257   2.551  0.1355  0.2627  0.2597
   20SAPS    C1 2545   6.571   2.255   2.536 -0.1456  0.0121  0.3694
   20SAPS    HA 2546   6.538   2.359   2.518  0.2580 -0.1060 -1.2444
   20SAPS    HB 2547   6.545   2.186   2.453 -2.7322 -1.5260  2.3062
   20SAPS    C2 2548   6.502   2.202   2.657  0.2974  0.4806  0.0103
   20SAPS    HS 2549   6.393   2.220   2.643  0.2086 -0.1554 -0.1589
   20SAPS   O21 2550   6.556   2.251   2.781  0.5051  0.3739  0.1394
   20SAPS   C21 2551   6.522   2.370   2.812 -0.3841 -0.0153 -0.4963
   20SAPS   O22 2552   6.434   2.437   2.762 -0.2027  0.8216  0.0292
   20SAPS   C22 2553   6.597   2.415   2.935  0.1237 -0.7004 -0.5413
   20SAPS   H2R 2554   6.567   2.339   3.010 -0.6174  0.4298  0.3419
   20SAPS   H2S 2555   6.705   2.391   2.925  0.4459  0.6290 -0.5125
   20SAPS    C3 2556   6.516   2.045   2.677 -0.5918 -0.1283  0.3645
   20SAPS    HX 2557   6.611   2.021   2.730 -0.7248 -1.8293 -0.1108
   20SAPS    HY 2558   6.515   2.001   2.575  0.4164  2.2059 -0.7393
   20SAPS   O31 2559   6.387   1.995   2.734 -0.1312  0.2276  0.1191
   20SAPS   C31 2560   6.399   1.912   2.841  0.4851  0.9364  0.3022
   20SAPS   O32 2561   6.498   1.873   2.893  0.4696  0.4222  0.2511
   20SAPS   C32 2562   6.256   1.887   2.906 -0.7396  1.1432  1.0276
   20SAPS   H2X 2563   6.239   1.778   2.907 -0.2529  1.0017 -1.1063
   20SAPS   H2Y 2564   6.186   1.941   2.839  1.2261  1.3760 -0.9487
   20SAPS   C23 2565   6.568   2.568   2.975 -0.3455  0.2121  0.7272
   20SAPS   H3R 2566   6.458   2.581   2.984 -0.3674  2.4554 -1.6930
   20SAPS   H3S 2567   6.586   2.636   2.889  0.2845  0.3282  0.9396
   20SAPS   C24 2568   6.644   2.610   3.107 -0.0295  0.0582  1.0219
   20SAPS   H4R 2569   6.750   2.595   3.077 -0.4339  0.9903 -1.0458
   20SAPS   H4S 2570   6.611   2.540   3.187  0.3625 -2.1746 -0.6600
   20SAPS   C25 2571   6.612   2.754   3.126  1.0374 -0.2914  0.7146
   20SAPS   H5R 2572   6.539   2.789   3.051  1.4335 -0.8661  0.0441
   20SAPS   C26 2573   6.669   2.837   3.218 -0.0899  0.4674  0.3169
   20SAPS   H6R 2574   6.638   2.942   3.208  0.2906  0.4020 -2.0288
   20SAPS   C27 2575   6.789   2.800   3.299  0.0157 -0.4761 -1.5251
   20SAPS   H7R 2576   6.839   2.893   3.333 -1.2590  0.1224 -1.2365
   20SAPS   H7S 2577   6.865   2.754   3.232  0.0192 -2.0469 -0.4812
   20SAPS   C28 2578   6.763   2.694   3.410 -0.5360  0.2014  0.0312
   20SAPS   H8R 2579   6.663   2.649   3.425 -0.4024  0.3366  1.4213
   20SAPS   C29 2580   6.856   2.663   3.502  0.0131  0.9137  0.3060
   20SAPS   H9R 2581   6.831   2.575   3.563  0.4387  0.7570  0.2494
   20SAPS  C210 2582   6.995   2.716   3.523 -0.2627 -0.7176 -0.7587
   20SAPS  H10R 2583   6.992   2.806   3.589  0.2620 -0.2724 -1.3268
   20SAPS  H10S 2584   7.032   2.775   3.436  0.9105 -2.4090 -1.4580
   20SAPS  C211 2585   7.093   2.613   3.557  0.5425  0.3134 -0.0048
   20SAPS  H11R 2586   7.134   2.557   3.471  0.7538  0.7799 -0.2105
   20SAPS  C212 2587   7.117   2.557   3.681 -0.3052  0.7957 -0.1540
   20SAPS  H12R 2588   7.200   2.486   3.697  0.6749  1.5102 -1.8286
   20SAPS  C213 2589   7.070   2.615   3.805  0.2668 -0.4782 -0.1681
   20SAPS  H13R 2590   7.059   2.520   3.862 -3.8385 -1.3211 -2.0053
   20SAPS  H13S 2591   6.967   2.656   3.808  0.3077 -0.4469  1.9893
   20SAPS  C214 2592   7.165   2.702   3.887 -0.1323 -0.2750  0.7824
   20SAPS  H14R 2593   7.160   2.805   3.849  1.1143 -0.2465  0.6573
   20SAPS  C215 2594   7.236   2.671   3.997  0.7698 -0.7367  0.3085
   20SAPS  H15R 2595   7.292   2.743   4.058  2.4249 -1.6837 -0.0330
   20SAPS  C216 2596   7.249   2.542   4.069 -0.4051  0.5697  0.0180
   20SAPS  H16R 2597   7.356   2.514   4.075 -0.8995 -2.3144 -2.2040
   20SAPS  H16S 2598   7.202   2.458   4.013  1.6637 -1.0447  0.5706
   20SAPS  C217 2599   7.193   2.549   4.214 -0.0185 -0.4526  0.4515
   20SAPS  H17R 2600   7.163   2.444   4.230 -1.8727 -0.0840 -0.3691
   20SAPS  H17S 2601   7.100   2.609   4.221  0.1734 -0.3057  2.0940
   20SAPS  C218 2602   7.276   2.592   4.331  0.3960 -0.0453 -0.0220
   20SAPS  H18R 2603   7.294   2.701   4.331 -0.2993  0.0742  0.7375
   20SAPS  H18S 2604   7.379   2.551   4.323  0.7561  0.8286  0.0318
   20SAPS  C219 2605   7.213   2.547   4.468 -0.1887 -0.2794 -0.3127
   20SAPS  H19R 2606   7.109   2.588   4.472  0.2083  0.6199  2.1571
   20SAPS  H19S 2607   7.270   2.601   4.546 -0.5575 -0.1478 -0.1310
   20SAPS  C220 2608   7.216   2.397   4.482  0.3945  0.2063  0.2428
   20SAPS  H20R 2609   7.318   2.353   4.479 -0.2238 -1.2122 -0.5719
   20SAPS  H20S 2610   7.143   2.345   4.417  0.5573  1.7027 -1.1885
   20SAPS  H20T 2611   7.183   2.378   4.587  1.0939  0.2257  0.4751
   20SAPS   C33 2612   6.252   1.926   3.052 -0.5151  0.8597  0.1024
   20SAPS   H3X 2613   6.286   2.030   3.069  0.7235  0.8950 -2.1336
   20SAPS   H3Y 2614   6.332   1.869   3.103 -1.7940  0.7371  2.1048
   20SAPS   C34 2615   6.114   1.909   3.121  0.0963 -0.6925  0.2407
   20SAPS   H4X 2616   6.092   1.801   3.107 -0.0968 -0.7978  1.2504
   20SAPS   H4Y 2617   6.048   1.971   3.058  0.7450 -2.1916 -2.0184
   20SAPS   C35 2618   6.113   1.962   3.264  0.0332 -0.0484 -0.2423
   20SAPS   H5X 2619   6.012   1.940   3.305  0.6926 -1.4793  0.7214
   20SAPS   H5Y 2620   6.116   2.073   3.262  0.5264 -0.0554 -0.1823
   20SAPS   C36 2621   6.226   1.914   3.355 -0.8320  0.2463  0.2702
   20SAPS   H6X 2622   6.324   1.951   3.321 -0.6545 -0.9418 -0.5837
   20SAPS   H6Y 2623   6.240   1.804   3.346  2.4527  0.5529  0.4648
   20SAPS   C37 2624   6.195   1.947   3.504 -0.9305  0.5203 -0.1690
   20SAPS   H7X 2625   6.101   1.900   3.538  0.6348 -1.6411  1.4643
   20SAPS   H7Y 2626   6.186   2.058   3.515 -1.2313  0.6234 -1.3344
   20SAPS   C38 2627   6.310   1.896   3.589  0.4958  0.2279  0.7547
   20SAPS   H8X 2628   6.399   1.947   3.546 -1.7534  2.4631 -1.6558
   20SAPS   H8Y 2629   6.322   1.786   3.592  0.2178  0.1916  4.0171
   20SAPS   C39 2630   6.298   1.937   3.734 -0.4120  0.3792  0.0922
   20SAPS   H9X 2631   6.237   1.863   3.789 -0.6458 -0.8810 -1.7860
   20SAPS   H9Y 2632   6.244   2.034   3.743  0.5456  0.8077  1.5039
   20SAPS  C310 2633   6.430   1.971   3.802  0.1352  0.1886  0.0187
   20SAPS  H10X 2634   6.495   2.041   3.745 -1.7082  3.0946  1.2617
   20SAPS  H10Y 2635   6.488   1.879   3.824 -0.9485 -0.7251 -0.7986
   20SAPS  C311 2636   6.409   2.019   3.947  0.2684  0.6931  0.0147
   20SAPS  H11X 2637   6.320   1.968   3.991  0.5491 -0.9669 -1.2049
   20SAPS  H11Y 2638   6.400   2.129   3.952 -1.5298  0.5935 -0.2782
   20SAPS  C312 2639   6.524   1.976   4.047 -0.3722 -0.0824 -0.3479
   20SAPS  H12X 2640   6.606   2.051   4.047 -1.5090  1.4018  3.3197
   20SAPS  H12Y 2641   6.554   1.878   4.006 -0.3098  0.4993 -1.7660
   20SAPS  C313 2642   6.475   1.980   4.194 -0.3344  0.0651  1.3193
   20SAPS  H13X 2643   6.382   1.919   4.185  0.2096 -0.6106  0.0740
   20SAPS  H13Y 2644   6.445   2.081   4.231 -2.0008  1.1692 -2.5627
   20SAPS  C314 2645   6.562   1.898   4.294  0.2541 -0.0928  0.2140
   20SAPS  H14X 2646   6.638   1.976   4.317 -0.6451  1.1116 -0.7176
   20SAPS  H14Y 2647   6.605   1.808   4.246  2.6776  1.4639 -0.7146
   20SAPS  C315 2648   6.486   1.859   4.425 -0.2345  0.8781 -1.0592
   20SAPS  H15X 2649   6.387   1.818   4.399  0.2921 -3.2619  2.2627
   20SAPS  H15Y 2650   6.476   1.954   4.483 -0.3483  1.9347 -2.7470
   20SAPS  C316 2651   6.533   1.730   4.494 -0.4426 -0.1498  0.0976
   20SAPS  H16X 2652   6.532   1.647   4.420  1.8341 -0.2761  0.1261
   20SAPS  H16Y 2653   6.470   1.713   4.583 -0.0918  1.1772  0.6187
   20SAPS  C317 2654   6.680   1.753   4.542  0.2536 -0.1544 -0.2102
   20SAPS  H17X 2655   6.666   1.831   4.619 -0.2546 -2.4595  2.1863
   20SAPS  H17Y 2656   6.752   1.794   4.468  0.5954 -1.6821 -0.7773
   20SAPS  C318 2657   6.742   1.628   4.601  0.2830 -0.2063 -0.3976
   20SAPS  H18X 2658   6.849   1.640   4.626  0.5115 -1.5246 -0.6656
   20SAPS  H18Y 2659   6.730   1.543   4.529 -1.3771 -1.5250  1.3376
   20SAPS  H18Z 2660   6.692   1.586   4.691  2.2804  0.2507  0.9743
   21CHL1    C3 2661   3.359   6.577   6.148 -0.7154 -0.4475  0.0075
   21CHL1    H3 2662   3.409   6.676   6.147  0.0115 -0.7987 -1.0879
   21CHL1    O3 2663   3.325   6.546   6.276  0.0517 -0.4179 -0.1021
   21CHL1   H3' 2664   3.413   6.544   6.315 -0.1567  0.7116  0.4909
   21CHL1    C4 2665   3.230   6.580   6.063 -0.5175  0.1848 -0.3847
   21CHL1   H4A 2666   3.186   6.480   6.079 -2.7254  0.9130 -1.5845
   21CHL1   H4B 2667   3.160   6.656   6.104 -1.1928  0.2996 -1.7111
   21CHL1    C5 2668   3.266   6.604   5.916  0.2714 -0.0575 -0.2775
   21CHL1    C6 2669   3.197   6.703   5.854 -0.1037  0.0858 -0.4609
   21CHL1    H6 2670   3.120   6.756   5.912  0.1536  0.9378 -0.8947
   21CHL1    C7 2671   3.210   6.737   5.712  0.5798 -0.3355  0.5240
   21CHL1   H7A 2672   3.113   6.748   5.660  1.2285  2.5768 -0.2898
   21CHL1   H7B 2673   3.260   6.835   5.696 -0.4528  0.2832  1.0289
   21CHL1    C8 2674   3.283   6.630   5.636 -0.0745  1.0753  0.4209
   21CHL1    H8 2675   3.209   6.547   5.633  1.1030 -0.0209  0.3652
   21CHL1   C14 2676   3.318   6.675   5.493 -0.2004  0.3948  0.4140
   21CHL1   H14 2677   3.377   6.768   5.506 -1.9842  2.0436 -2.1308
   21CHL1   C15 2678   3.206   6.715   5.399  0.0731 -0.0423  0.2778
   21CHL1  H15A 2679   3.119   6.647   5.410 -0.3826  0.6184  0.8329
   21CHL1  H15B 2680   3.170   6.815   5.428  2.9203  0.4820  2.5872
   21CHL1   C16 2681   3.266   6.716   5.260  0.0428 -0.2994  0.3862
   21CHL1  H16A 2682   3.199   6.669   5.184  0.5691 -0.3845 -0.0316
   21CHL1  H16B 2683   3.276   6.822   5.230 -0.6190 -0.2721  0.2496
   21CHL1   C17 2684   3.409   6.656   5.269  0.3327  0.3900  0.0943
   21CHL1   H17 2685   3.482   6.736   5.295  0.8884 -0.4103  1.0599
   21CHL1   C13 2686   3.403   6.576   5.407  0.7035 -0.2687 -0.4693
   21CHL1   C18 2687   3.328   6.438   5.386 -0.2496  0.1460 -0.2918
   21CHL1  H18A 2688   3.281   6.402   5.479  0.6893 -2.0423 -0.6127
   21CHL1  H18B 2689   3.252   6.444   5.305 -1.1941 -0.5127  0.5297
   21CHL1  H18C 2690   3.405   6.360   5.369 -1.7314 -1.2859 -0.5609
   21CHL1   C12 2691   3.531   6.538   5.491  0.3956 -0.4710 -0.5525
   21CHL1  H12A 2692   3.604   6.469   5.444  2.4303  0.0955  1.5548
   21CHL1  H12B 2693   3.583   6.636   5.500 -1.8989  0.7626 -0.1663
   21CHL1   C11 2694   3.496   6.485   5.637 -0.3210 -0.9485  0.7752
   21CHL1  H11A 2695   3.452   6.384   5.626 -0.1999 -0.9578  0.3277
   21CHL1  H11B 2696   3.595   6.466   5.685  0.2406 -1.4371 -0.5118
   21CHL1    C9 2697   3.408   6.582   5.715 -0.0151  0.2819  0.4429
   21CHL1    H9 2698   3.469   6.674   5.731 -0.4868  1.5523 -3.7875
   21CHL1   C10 2699   3.373   6.525   5.852 -0.2430  0.7530 -0.4061
   21CHL1   C19 2700   3.307   6.379   5.833 -0.3394 -0.4205  0.3313
   21CHL1  H19A 2701   3.241   6.350   5.918  0.4374  0.3070  1.2142
   21CHL1  H19B 2702   3.257   6.374   5.734  1.2882  0.8335 -0.6048
   21CHL1  H19C 2703   3.388   6.304   5.837  0.7060  0.7188  1.3653
   21CHL1    C1 2704   3.495   6.516   5.942  0.3673  0.3939  0.1214
   21CHL1   H1A 2705   3.556   6.436   5.894 -0.1956  0.3019 -0.4526
   21CHL1   H1B 2706   3.549   6.613   5.943  1.8345 -0.3898 -0.2106
   21CHL1    C2 2707   3.465   6.481   6.087 -0.6309 -0.5774 -0.6746
   21CHL1   H2A 2708   3.562   6.480   6.142 -1.5518  4.1847  1.5444
   21CHL1   H2B 2709   3.420   6.380   6.092 -1.0244 -0.3772 -0.0384
   21CHL1   C20 2710   3.452   6.571   5.145  0.3489  0.5367  0.0645
   21CHL1   H20 2711   3.388   6.481   5.130 -0.4999  0.5992  2.7859
   21CHL1   C21 2712   3.595   6.531   5.162  0.1670 -0.3498  0.1877
   21CHL1  H21A 2713   3.604   6.451   5.237  2.8444  1.3820  1.8774
   21CHL1  H21B 2714   3.662   6.610   5.201  2.0798 -1.1398 -1.3212
   21CHL1  H21C 2715   3.627   6.509   5.058  0.6971 -0.5331  0.3905
   21CHL1   C22 2716   3.431   6.651   5.006  0.2395  0.4836  0.3114
   21CHL1  H22A 2717   3.348   6.725   5.018  1.2390  2.2922 -2.8219
   21CHL1  H22B 2718   3.516   6.714   4.974 -0.0249  0.5191 -0.3400
   21CHL1   C23 2719   3.407   6.555   4.889  0.1169 -0.6401 -0.1610
   21CHL1  H23A 2720   3.495   6.487   4.880 -1.1382 -2.3423 -0.2100
   21CHL1  H23B 2721   3.319   6.491   4.914  0.2835 -0.3529  1.2517
   21CHL1   C24 2722   3.378   6.631   4.763 -0.5888  0.9313  0.6797
   21CHL1  H24A 2723   3.268   6.647   4.763 -1.0173 -1.5230 -0.4435
   21CHL1  H24B 2724   3.438   6.723   4.747  2.4497 -1.0683 -0.2334
   21CHL1   C25 2725   3.393   6.552   4.630 -0.9885  0.1149 -0.2720
   21CHL1   H25 2726   3.339   6.455   4.635 -1.0770  0.2315  2.2687
   21CHL1   C26 2727   3.317   6.634   4.522 -0.0877  0.7359 -0.4112
   21CHL1  H26A 2728   3.337   6.741   4.544  1.0064  0.3809  0.4199
   21CHL1  H26B 2729   3.353   6.596   4.424 -1.4324 -0.7454 -0.3748
   21CHL1  H26C 2730   3.208   6.621   4.538 -0.0687  1.3731  0.2986
   21CHL1   C27 2731   3.541   6.527   4.605 -0.7219  0.1455  0.0680
   21CHL1  H27A 2732   3.581   6.441   4.662  0.8740  1.4391  0.9942
   21CHL1  H27B 2733   3.563   6.508   4.497  1.2166  0.0739  0.4355
   21CHL1  H27C 2734   3.601   6.618   4.625 -0.6747 -0.4340  2.8867
   22CHL1    C3 2735   5.054   6.397   6.247  0.1465 -0.1363 -0.3141
   22CHL1    H3 2736   4.953   6.368   6.213  0.6471 -2.5124  0.0147
   22CHL1    O3 2737   5.073   6.348   6.381 -0.0247 -0.5300 -0.5285
   22CHL1   H3' 2738   5.003   6.388   6.434 -1.1983 -3.5273  0.3864
   22CHL1    C4 2739   5.155   6.321   6.159  0.1333 -0.2233 -0.5770
   22CHL1   H4A 2740   5.256   6.337   6.203  0.4555 -0.1771 -1.3205
   22CHL1   H4B 2741   5.121   6.215   6.168 -0.9225  0.2460  1.2727
   22CHL1    C5 2742   5.134   6.368   6.016  0.1125 -0.7830  0.6143
   22CHL1    C6 2743   5.101   6.286   5.906 -0.3578  0.7667 -0.3928
   22CHL1    H6 2744   5.092   6.177   5.922 -1.6317  0.5207 -2.4280
   22CHL1    C7 2745   5.078   6.334   5.767  0.2215 -0.2110  0.1242
   22CHL1   H7A 2746   5.122   6.273   5.685 -0.4619  1.0398 -1.2258
   22CHL1   H7B 2747   4.969   6.342   5.747 -0.3801  0.1087  3.0658
   22CHL1    C8 2748   5.132   6.477   5.740 -0.3429  0.2086 -0.2124
   22CHL1    H8 2749   5.240   6.452   5.744 -0.5848 -0.8727 -0.3068
   22CHL1   C14 2750   5.095   6.531   5.600 -0.1187  0.0416 -0.7685
   22CHL1   H14 2751   4.985   6.545   5.594 -0.4222 -1.7956 -0.2281
   22CHL1   C15 2752   5.125   6.445   5.477 -0.1516 -0.1623 -0.0857
   22CHL1  H15A 2753   5.231   6.412   5.474 -0.5107 -1.3894 -2.3650
   22CHL1  H15B 2754   5.056   6.358   5.481 -1.7584  1.1090  1.8220
   22CHL1   C16 2755   5.121   6.553   5.367 -0.0487  0.6067  0.0552
   22CHL1  H16A 2756   5.207   6.535   5.300 -1.5067 -2.6180 -1.1621
   22CHL1  H16B 2757   5.036   6.530   5.299 -2.0579 -0.5959  2.7830
   22CHL1   C17 2758   5.112   6.695   5.431  0.3499 -0.1936  0.1709
   22CHL1   H17 2759   5.007   6.727   5.452  0.2464 -0.6607  0.3675
   22CHL1   C13 2760   5.161   6.667   5.576 -0.8424  0.1638 -0.4614
   22CHL1   C18 2761   5.317   6.657   5.591  0.2988  0.4081 -0.4174
   22CHL1  H18A 2762   5.348   6.624   5.693 -1.5194  0.1551  0.0920
   22CHL1  H18B 2763   5.364   6.578   5.529  1.0033 -1.5376  2.3901
   22CHL1  H18C 2764   5.372   6.749   5.564 -2.3209  2.1347 -0.2604
   22CHL1   C12 2765   5.091   6.757   5.679 -0.0349 -0.4703 -0.1704
   22CHL1  H12A 2766   5.130   6.859   5.659 -0.2443 -0.3982 -0.2125
   22CHL1  H12B 2767   4.980   6.753   5.677 -0.2023  1.0658  2.0434
   22CHL1   C11 2768   5.125   6.719   5.827  0.2096  0.6993 -0.8942
   22CHL1  H11A 2769   5.233   6.745   5.838 -0.1394  2.4979 -1.4170
   22CHL1  H11B 2770   5.071   6.780   5.902  0.4319  0.2577 -0.3668
   22CHL1    C9 2771   5.094   6.570   5.856  0.4775 -0.1046  0.0517
   22CHL1    H9 2772   4.984   6.569   5.872  0.6101  2.8981  1.9661
   22CHL1   C10 2773   5.154   6.523   5.990 -0.4763  0.6318  0.1369
   22CHL1   C19 2774   5.304   6.558   6.005  0.3315 -0.1056 -0.9443
   22CHL1  H19A 2775   5.312   6.669   6.002 -1.6683  0.0684 -2.8291
   22CHL1  H19B 2776   5.342   6.515   6.100  0.1316 -0.4140 -1.0020
   22CHL1  H19C 2777   5.369   6.517   5.925  0.6245  1.0350 -1.3070
   22CHL1    C1 2778   5.064   6.604   6.105  0.1213 -0.3589  0.2528
   22CHL1   H1A 2779   5.084   6.713   6.099  1.0731 -0.4712  1.1035
   22CHL1   H1B 2780   4.956   6.592   6.084  0.5414 -4.4406 -0.5076
   22CHL1    C2 2781   5.087   6.549   6.247  0.3773 -0.0761 -0.0436
   22CHL1   H2A 2782   5.026   6.606   6.320 -0.0616  0.5519 -0.8706
   22CHL1   H2B 2783   5.196   6.556   6.267  0.8427 -1.5006 -1.7836
   22CHL1   C20 2784   5.187   6.792   5.342 -0.7380 -0.8193  0.6949
   22CHL1   H20 2785   5.291   6.761   5.319 -0.9446 -0.3579 -1.0138
   22CHL1   C21 2786   5.209   6.928   5.415 -0.2999  0.1075  0.0697
   22CHL1  H21A 2787   5.108   6.958   5.451 -1.0765 -1.2235 -0.9007
   22CHL1  H21B 2788   5.247   7.007   5.346 -1.0133 -0.9154 -1.5578
   22CHL1  H21C 2789   5.279   6.926   5.501 -1.0479 -2.9102  0.7243
   22CHL1   C22 2790   5.113   6.820   5.211  0.2084  0.1250  0.4572
   22CHL1  H22A 2791   5.097   6.720   5.166 -1.3658  0.6463 -0.2417
   22CHL1  H22B 2792   5.013   6.868   5.222 -0.2054 -0.6747  0.2378
   22CHL1   C23 2793   5.198   6.903   5.117  0.1328 -0.5893  0.3230
   22CHL1  H23A 2794   5.190   7.008   5.154 -0.5013 -0.1404 -1.0155
   22CHL1  H23B 2795   5.306   6.878   5.119  0.2453 -0.5955 -2.3403
   22CHL1   C24 2796   5.148   6.894   4.970 -0.3962 -0.0831 -0.2168
   22CHL1  H24A 2797   5.126   6.788   4.944 -1.7512 -0.2686  1.4248
   22CHL1  H24B 2798   5.059   6.959   4.983 -0.7350 -0.7915  1.2757
   22CHL1   C25 2799   5.242   6.957   4.868  0.0703  0.1523 -0.7476
   22CHL1   H25 2800   5.333   6.894   4.869 -0.5801 -0.8398 -1.3383
   22CHL1   C26 2801   5.191   6.939   4.722 -0.3531  0.4578  0.3980
   22CHL1  H26A 2802   5.171   6.833   4.697  0.2757  0.6970 -1.2531
   22CHL1  H26B 2803   5.098   7.000   4.715 -0.7047 -0.0901  0.3054
   22CHL1  H26C 2804   5.275   6.976   4.660 -0.1972 -0.7410 -0.1139
   22CHL1   C27 2805   5.277   7.107   4.896  0.3352  0.7624  0.3378
   22CHL1  H27A 2806   5.300   7.116   5.004  1.3435  0.3208  0.1656
   22CHL1  H27B 2807   5.369   7.132   4.840  0.3882  0.7733  0.4297
   22CHL1  H27C 2808   5.199   7.185   4.879 -0.5297 -0.0398  0.5444
   23CHL1    C3 2809   3.157   7.005   6.099 -0.3541  0.2459 -0.4385
   23CHL1    H3 2810   3.189   6.908   6.056  2.0616  0.0397  1.6199
   23CHL1    O3 2811   3.182   6.998   6.231  0.4617  0.1284 -0.1907
   23CHL1   H3' 2812   3.154   7.080   6.273  0.5249 -0.5406  1.2490
   23CHL1    C4 2813   3.253   7.114   6.040 -0.3498 -0.0910 -0.0604
   23CHL1   H4A 2814   3.237   7.204   6.102 -0.1511  1.1519 -1.7633
   23CHL1   H4B 2815   3.351   7.073   6.075  0.3788  1.1324 -0.6298
   23CHL1    C5 2816   3.245   7.133   5.890  0.2797 -0.1211 -0.0784
   23CHL1    C6 2817   3.355   7.121   5.807  0.6257  0.7535  0.4267
   23CHL1    H6 2818   3.451   7.100   5.855  0.4142 -2.5211 -0.3552
   23CHL1    C7 2819   3.346   7.128   5.657  0.1194 -0.6233  0.1023
   23CHL1   H7A 2820   3.423   7.198   5.618 -0.8131 -0.0181 -0.6982
   23CHL1   H7B 2821   3.362   7.026   5.615 -3.4028 -1.4041  0.4055
   23CHL1    C8 2822   3.209   7.180   5.604 -0.2994 -0.7807  0.2676
   23CHL1    H8 2823   3.218   7.291   5.609 -0.0886 -0.8599  2.9826
   23CHL1   C14 2824   3.190   7.136   5.456  0.5773  0.6315 -0.7123
   23CHL1   H14 2825   3.192   7.025   5.460 -0.7073  0.6360  1.4466
   23CHL1   C15 2826   3.296   7.183   5.359  0.6472  0.6879 -0.5475
   23CHL1  H15A 2827   3.308   7.291   5.382 -2.3487  0.9227  0.4111
   23CHL1  H15B 2828   3.398   7.143   5.374 -0.0715 -1.1025 -0.2179
   23CHL1   C16 2829   3.238   7.159   5.222 -0.2838 -0.0749  0.2244
   23CHL1  H16A 2830   3.247   7.262   5.181  2.5415  0.1512  1.2466
   23CHL1  H16B 2831   3.298   7.081   5.170 -0.6051 -0.5640  0.5755
   23CHL1   C17 2832   3.094   7.113   5.243 -0.1980 -0.3456  0.1555
   23CHL1   H17 2833   3.110   7.003   5.253  1.5942 -0.1278 -0.0288
   23CHL1   C13 2834   3.057   7.162   5.388  0.3660 -0.2743  0.8170
   23CHL1   C18 2835   3.038   7.318   5.379 -0.0072 -0.0386  1.3534
   23CHL1  H18A 2836   2.934   7.341   5.346  0.4536  0.7693  0.4196
   23CHL1  H18B 2837   3.050   7.368   5.477  2.4305 -0.2143  1.2086
   23CHL1  H18C 2838   3.104   7.372   5.308 -1.2248  1.9066  1.6144
   23CHL1   C12 2839   2.951   7.089   5.470 -0.5603  0.7037 -0.2371
   23CHL1  H12A 2840   2.849   7.098   5.425 -0.9666 -0.1294  0.4890
   23CHL1  H12B 2841   2.979   6.982   5.469  1.5705  1.2033 -1.7502
   23CHL1   C11 2842   2.950   7.142   5.616 -0.1057  0.3640  0.2325
   23CHL1  H11A 2843   2.941   7.253   5.618  1.4763  0.5215  1.9797
   23CHL1  H11B 2844   2.873   7.088   5.675 -0.1053 -0.0752 -0.1691
   23CHL1    C9 2845   3.093   7.125   5.684  0.6126  0.7921  0.0302
   23CHL1    H9 2846   3.107   7.015   5.680  1.9187  0.7843  2.8660
   23CHL1   C10 2847   3.097   7.156   5.840 -0.1855  0.9331 -0.0172
   23CHL1   C19 2848   3.058   7.307   5.856  0.0488  0.0549  0.4273
   23CHL1  H19A 2849   2.953   7.322   5.826  0.2100 -1.0537 -0.7849
   23CHL1  H19B 2850   3.078   7.341   5.960  1.1150 -0.2844  0.3462
   23CHL1  H19C 2851   3.134   7.369   5.804 -0.0640  0.0920  0.3083
   23CHL1    C1 2852   2.990   7.069   5.917  0.3008 -0.7308 -0.1742
   23CHL1   H1A 2853   2.887   7.110   5.913  0.3760 -0.0285  2.6965
   23CHL1   H1B 2854   2.988   6.970   5.866  3.6521 -0.8354 -0.3492
   23CHL1    C2 2855   3.018   7.043   6.070 -0.2678  1.0170 -0.2155
   23CHL1   H2A 2856   2.945   6.970   6.112  0.2739 -1.5192 -3.2695
   23CHL1   H2B 2857   2.994   7.136   6.126 -3.3923  0.6429 -0.7471
   23CHL1   C20 2858   2.995   7.138   5.129 -0.2678 -0.1063  0.0673
   23CHL1   H20 2859   2.982   7.247   5.108  0.5291  0.1084  0.6164
   23CHL1   C21 2860   2.849   7.092   5.159  0.7237  0.8902  0.6883
   23CHL1  H21A 2861   2.788   7.153   5.230 -1.7314  0.4487 -0.9091
   23CHL1  H21B 2862   2.853   6.987   5.194 -0.8646  0.6067  0.0799
   23CHL1  H21C 2863   2.791   7.104   5.065 -0.0188  1.6389  1.2186
   23CHL1   C22 2864   3.040   7.071   4.997  0.2477 -0.1607  0.6710
   23CHL1  H22A 2865   3.147   7.097   4.988  0.3063 -1.1557 -3.5106
   23CHL1  H22B 2866   3.036   6.960   4.999 -2.2542 -0.2182 -1.5112
   23CHL1   C23 2867   2.963   7.115   4.874 -0.3197  0.0609  0.0883
   23CHL1  H23A 2868   2.863   7.069   4.894 -0.0953 -0.2869  0.4308
   23CHL1  H23B 2869   2.955   7.226   4.867  0.1106  0.0695 -0.2853
   23CHL1   C24 2870   3.024   7.056   4.755  1.0925 -1.1112  0.1540
   23CHL1  H24A 2871   3.122   7.107   4.742  1.0961 -1.4359 -1.3264
   23CHL1  H24B 2872   3.047   6.949   4.773  0.0683 -1.1874  1.1247
   23CHL1   C25 2873   2.945   7.076   4.625 -0.4163  0.1994 -0.4025
   23CHL1   H25 2874   2.919   7.184   4.633 -0.9413 -0.0473  1.8512
   23CHL1   C26 2875   3.045   7.042   4.508 -0.4090  0.1099  0.8024
   23CHL1  H26A 2876   2.999   7.079   4.413  0.7671  0.3269  0.3009
   23CHL1  H26B 2877   3.140   7.096   4.526  0.0787 -0.3062 -0.4146
   23CHL1  H26C 2878   3.058   6.932   4.511  2.7706  0.3771 -0.0685
   23CHL1   C27 2879   2.823   6.979   4.619 -1.0042 -0.2301 -0.1888
   23CHL1  H27A 2880   2.862   6.876   4.605 -2.8919 -1.2768  1.6887
   23CHL1  H27B 2881   2.750   6.981   4.703  0.0364  2.8332  0.7872
   23CHL1  H27C 2882   2.768   7.009   4.527  0.2395 -2.2334 -1.6583
   24CHL1    C3 2883   3.635   1.471   6.212 -0.1839  0.6613 -0.1490
   24CHL1    H3 2884   3.700   1.561   6.218  0.4717  0.1773  0.1030
   24CHL1    O3 2885   3.564   1.448   6.333  0.0360 -0.5156  0.2459
   24CHL1   H3' 2886   3.476   1.484   6.321  0.2868  1.1900  2.7435
   24CHL1    C4 2887   3.531   1.461   6.092 -0.2157 -0.3402 -0.5363
   24CHL1   H4A 2888   3.475   1.370   6.121 -0.7707  0.4924  1.1564
   24CHL1   H4B 2889   3.452   1.538   6.101 -2.8789 -3.0063  0.2912
   24CHL1    C5 2890   3.589   1.448   5.953 -0.7224 -0.3230 -0.3391
   24CHL1    C6 2891   3.560   1.534   5.856  0.8594 -0.0308 -0.0940
   24CHL1    H6 2892   3.488   1.615   5.874  1.2660  0.2731  0.1798
   24CHL1    C7 2893   3.602   1.516   5.713 -0.5096  0.4464 -0.3081
   24CHL1   H7A 2894   3.509   1.507   5.654 -0.6159  0.5470 -0.1580
   24CHL1   H7B 2895   3.659   1.607   5.682  1.1939 -0.2446  0.6312
   24CHL1    C8 2896   3.685   1.384   5.684 -0.2188 -0.0227  0.1577
   24CHL1    H8 2897   3.610   1.302   5.673  0.8078 -0.7774 -1.5255
   24CHL1   C14 2898   3.771   1.397   5.561  0.3528 -0.6825 -0.0331
   24CHL1   H14 2899   3.839   1.478   5.593  0.3866 -0.8192  0.2520
   24CHL1   C15 2900   3.700   1.440   5.434 -0.1319  0.1191  0.3302
   24CHL1  H15A 2901   3.617   1.382   5.388 -0.3419 -0.9142  1.9334
   24CHL1  H15B 2902   3.682   1.549   5.445  3.2953  0.8248  0.3029
   24CHL1   C16 2903   3.816   1.428   5.332 -0.3388 -0.0871  0.1887
   24CHL1  H16A 2904   3.778   1.366   5.248 -0.1134  1.4984 -1.1499
   24CHL1  H16B 2905   3.868   1.519   5.293  1.1776 -1.2030 -0.4663
   24CHL1   C17 2906   3.929   1.340   5.399 -0.4685  0.6293  0.3788
   24CHL1   H17 2907   4.013   1.408   5.425  0.4500  0.1025 -1.0892
   24CHL1   C13 2908   3.862   1.282   5.518  0.2045 -0.2149  0.2063
   24CHL1   C18 2909   3.785   1.158   5.476 -0.4889  0.0533 -0.6246
   24CHL1  H18A 2910   3.710   1.124   5.550 -1.1756  2.2479 -0.2472
   24CHL1  H18B 2911   3.727   1.170   5.382 -1.3520 -0.2094 -0.1353
   24CHL1  H18C 2912   3.856   1.073   5.461 -1.1344 -1.0546  2.1034
   24CHL1   C12 2913   3.951   1.248   5.635 -0.2808 -0.0954 -0.1211
   24CHL1  H12A 2914   4.032   1.172   5.628 -1.9168 -1.9880  0.4737
   24CHL1  H12B 2915   3.993   1.346   5.666 -0.1800  0.3189 -1.4955
   24CHL1   C11 2916   3.864   1.223   5.762  0.0880 -0.6532 -0.2046
   24CHL1  H11A 2917   3.810   1.129   5.740 -0.3693 -0.0596 -1.7238
   24CHL1  H11B 2918   3.935   1.209   5.846 -1.2028  1.9508  1.4541
   24CHL1    C9 2919   3.767   1.347   5.800 -0.3746 -0.1731 -0.6810
   24CHL1    H9 2920   3.836   1.432   5.814 -1.9997  0.6758  3.6074
   24CHL1   C10 2921   3.689   1.338   5.932  0.0907  0.1382  1.1325
   24CHL1   C19 2922   3.609   1.203   5.921  0.1744 -0.8164  0.2274
   24CHL1  H19A 2923   3.559   1.177   6.016  0.4451 -1.9690  0.0733
   24CHL1  H19B 2924   3.530   1.204   5.842  0.1414 -4.4955  0.0292
   24CHL1  H19C 2925   3.674   1.114   5.905  0.7147 -0.4719  0.4934
   24CHL1    C1 2926   3.786   1.332   6.055  0.3311 -0.1420 -0.2625
   24CHL1   H1A 2927   3.843   1.237   6.056  0.3806 -0.2992 -4.1699
   24CHL1   H1B 2928   3.858   1.416   6.041  0.9179 -0.5386  0.3093
   24CHL1    C2 2929   3.716   1.342   6.194 -0.1181  0.1465 -0.3516
   24CHL1   H2A 2930   3.805   1.344   6.260  0.0225 -0.6744 -0.5017
   24CHL1   H2B 2931   3.657   1.248   6.202  1.7836 -1.4120 -3.1136
   24CHL1   C20 2932   4.002   1.259   5.289  0.0199  0.0355 -0.2239
   24CHL1   H20 2933   3.932   1.179   5.257 -0.7569  0.3669  0.5803
   24CHL1   C21 2934   4.126   1.183   5.337 -0.8447  0.3865 -0.0342
   24CHL1  H21A 2935   4.169   1.130   5.249 -0.7375  0.2788  0.0832
   24CHL1  H21B 2936   4.109   1.111   5.420 -0.5403  1.1960  0.7520
   24CHL1  H21C 2937   4.203   1.249   5.381  3.0991 -1.8837 -2.9533
   24CHL1   C22 2938   4.038   1.335   5.159 -0.6032 -0.0238 -0.1050
   24CHL1  H22A 2939   4.099   1.269   5.094 -1.9597  0.0033 -1.4754
   24CHL1  H22B 2940   3.946   1.357   5.101  0.5586  1.3671 -1.5053
   24CHL1   C23 2941   4.128   1.459   5.177 -0.3472 -0.1335  0.1286
   24CHL1  H23A 2942   4.076   1.537   5.237  0.8950  0.3844  0.5783
   24CHL1  H23B 2943   4.223   1.433   5.228  0.6597  1.4337 -0.8418
   24CHL1   C24 2944   4.172   1.521   5.037  0.1398 -0.8417 -0.4592
   24CHL1  H24A 2945   4.211   1.452   4.960  1.2165  0.8331 -1.4742
   24CHL1  H24B 2946   4.074   1.564   5.004 -0.2648 -1.2861  0.1379
   24CHL1   C25 2947   4.275   1.634   5.055 -0.3344 -0.5303 -0.2072
   24CHL1   H25 2948   4.248   1.698   5.142 -1.4010 -2.4438  0.9362
   24CHL1   C26 2949   4.417   1.581   5.071  0.5646  0.2474  0.0479
   24CHL1  H26A 2950   4.408   1.527   5.168 -1.0134  0.9657  0.3407
   24CHL1  H26B 2951   4.453   1.524   4.983 -0.0884  0.2171 -0.2055
   24CHL1  H26C 2952   4.485   1.669   5.082 -0.9877  1.8241 -2.0397
   24CHL1   C27 2953   4.274   1.727   4.932  0.1106 -0.5981  0.7614
   24CHL1  H27A 2954   4.360   1.796   4.925 -0.5410  0.1358 -0.4640
   24CHL1  H27B 2955   4.287   1.669   4.838  2.2229  0.2078  0.5112
   24CHL1  H27C 2956   4.177   1.782   4.935 -0.8809 -2.2139 -0.3467
   25CHL1    C3 2957   6.866   3.399   5.695  0.2638  0.4233 -0.5314
   25CHL1    H3 2958   6.961   3.369   5.647  0.8303  0.7907  0.3352
   25CHL1    O3 2959   6.854   3.330   5.814  0.0584  0.3324 -0.6813
   25CHL1   H3' 2960   6.765   3.337   5.850  1.0044  2.4787  1.4887
   25CHL1    C4 2961   6.873   3.553   5.715  0.3360  0.0785  0.3524
   25CHL1   H4A 2962   6.775   3.585   5.758  0.4310 -0.1469  0.7415
   25CHL1   H4B 2963   6.941   3.575   5.800 -0.4296  1.8942  0.5497
   25CHL1    C5 2964   6.905   3.626   5.593  0.8551 -0.0426  0.5388
   25CHL1    C6 2965   7.005   3.713   5.583 -0.3408  0.0412  0.0506
   25CHL1    H6 2966   7.062   3.738   5.674  0.1775 -1.4058  0.1379
   25CHL1    C7 2967   7.040   3.792   5.452 -0.1294  0.6620 -0.3607
   25CHL1   H7A 2968   7.058   3.901   5.462 -1.7447  0.8844  0.6177
   25CHL1   H7B 2969   7.132   3.742   5.415 -0.5909 -1.6321  1.4172
   25CHL1    C8 2970   6.924   3.781   5.348 -0.2984  0.4776  0.4163
   25CHL1    H8 2971   6.844   3.856   5.366  1.9294  2.9942  0.4871
   25CHL1   C14 2972   6.978   3.834   5.214 -0.4983 -0.5784 -0.1093
   25CHL1   H14 2973   7.063   3.768   5.185 -0.4013 -0.1258 -0.8732
   25CHL1   C15 2974   7.033   3.977   5.213 -0.0269  0.2191  0.2951
   25CHL1  H15A 2975   6.956   4.029   5.274  0.8893  0.6185  1.1473
   25CHL1  H15B 2976   7.137   3.994   5.248  0.0885 -0.0384  0.0821
   25CHL1   C16 2977   7.024   4.023   5.070  0.4378  0.5886 -0.1281
   25CHL1  H16A 2978   6.949   4.105   5.071 -0.1606  0.1463  3.2138
   25CHL1  H16B 2979   7.120   4.067   5.036  1.6066 -0.9398  1.0684
   25CHL1   C17 2980   6.965   3.895   4.998 -0.9957  0.4079  0.0370
   25CHL1   H17 2981   7.049   3.828   4.970 -0.6202  0.5611  0.7790
   25CHL1   C13 2982   6.879   3.828   5.099 -0.6744 -0.5110 -0.6002
   25CHL1   C18 2983   6.749   3.915   5.123 -0.5890 -0.2690  0.2304
   25CHL1  H18A 2984   6.764   4.021   5.155 -0.4439 -0.4541  0.7951
   25CHL1  H18B 2985   6.688   3.915   5.030  0.8411 -1.2071 -0.7413
   25CHL1  H18C 2986   6.692   3.874   5.210 -0.9285 -2.7042 -1.0666
   25CHL1   C12 2987   6.839   3.684   5.084  0.3779  0.4641 -0.2778
   25CHL1  H12A 2988   6.761   3.679   5.005  1.1974  0.4089 -1.0989
   25CHL1  H12B 2989   6.927   3.628   5.047  0.3156 -0.1624  0.5140
   25CHL1   C11 2990   6.780   3.613   5.208  0.3241  0.1286 -0.1387
   25CHL1  H11A 2991   6.674   3.643   5.224  0.9283  1.8997  0.8856
   25CHL1  H11B 2992   6.765   3.505   5.190 -2.7733  0.3967  0.3657
   25CHL1    C9 2993   6.870   3.640   5.336 -0.5904  0.4294  0.1063
   25CHL1    H9 2994   6.957   3.575   5.310  0.5266  2.8275 -2.7029
   25CHL1   C10 2995   6.810   3.590   5.474 -0.4502  0.4069 -0.1526
   25CHL1   C19 2996   6.678   3.663   5.493 -0.0526  1.0339 -0.9231
   25CHL1  H19A 2997   6.605   3.621   5.420  1.9845 -0.7776 -2.0192
   25CHL1  H19B 2998   6.634   3.650   5.594  0.6474  0.6444 -0.6652
   25CHL1  H19C 2999   6.684   3.773   5.476 -0.2052  1.4409  1.3276
   25CHL1    C1 3000   6.788   3.432   5.466  0.2202  0.2707 -0.6481
   25CHL1   H1A 3001   6.712   3.405   5.389 -0.3289 -0.8659  0.2631
   25CHL1   H1B 3002   6.885   3.388   5.434  0.5759  0.7923 -0.3005
   25CHL1    C2 3003   6.748   3.368   5.595 -0.1101  0.1115 -0.2955
   25CHL1   H2A 3004   6.744   3.257   5.589 -2.4717  0.2281 -2.3980
   25CHL1   H2B 3005   6.652   3.396   5.644  0.0050  1.2902 -0.7126
   25CHL1   C20 3006   6.900   3.933   4.851 -0.2602  1.2299 -0.7518
   25CHL1   H20 3007   6.796   3.966   4.871 -0.6129 -0.3317  0.2177
   25CHL1   C21 3008   6.878   3.809   4.760 -0.3677  0.3523  0.1234
   25CHL1  H21A 3009   6.974   3.763   4.730 -1.2512 -1.1746 -0.4692
   25CHL1  H21B 3010   6.823   3.843   4.669 -0.3440 -1.1933 -0.4989
   25CHL1  H21C 3011   6.821   3.738   4.824  0.8920 -0.4324  0.3912
   25CHL1   C22 3012   6.977   4.040   4.773 -0.3970  0.3398 -0.2909
   25CHL1  H22A 3013   6.922   4.068   4.680  3.6675 -0.3942 -3.1600
   25CHL1  H22B 3014   6.966   4.127   4.840  1.4054  0.3027  0.0837
   25CHL1   C23 3015   7.120   4.002   4.738 -0.4375  0.1606 -0.0291
   25CHL1  H23A 3016   7.172   3.974   4.832  0.7295  1.0184 -0.4103
   25CHL1  H23B 3017   7.111   3.909   4.677  2.7259  0.2268 -0.7424
   25CHL1   C24 3018   7.197   4.108   4.652  0.3715  0.2204 -0.2951
   25CHL1  H24A 3019   7.156   4.114   4.548  1.7418 -0.2657 -0.8874
   25CHL1  H24B 3020   7.182   4.207   4.701 -0.3279 -0.1415  0.2456
   25CHL1   C25 3021   7.346   4.085   4.634  0.8808  0.2409 -0.4420
   25CHL1   H25 3022   7.386   4.063   4.735 -0.9186  0.8144  0.4365
   25CHL1   C26 3023   7.366   3.948   4.552  0.0490  0.9827 -0.3285
   25CHL1  H26A 3024   7.329   3.951   4.447  1.0955 -1.8457 -0.8604
   25CHL1  H26B 3025   7.472   3.914   4.550 -0.6251 -1.3964  0.8977
   25CHL1  H26C 3026   7.305   3.866   4.596  0.6363  0.8216  0.1913
   25CHL1   C27 3027   7.419   4.202   4.557  0.2665  0.4402 -0.3281
   25CHL1  H27A 3028   7.529   4.193   4.542  0.5296 -0.5381  1.8374
   25CHL1  H27B 3029   7.366   4.208   4.459 -0.4018 -1.1686 -0.0937
   25CHL1  H27C 3030   7.383   4.296   4.605 -0.5168  1.1200 -2.1341
   26CHL1    C3 3031   3.994   1.032   6.477  0.0392  0.1809 -0.0667
   26CHL1    H3 3032   3.973   1.136   6.446 -2.0744 -0.0773  0.3417
   26CHL1    O3 3033   3.946   1.028   6.611 -1.1295 -0.5291  0.5839
   26CHL1   H3' 3034   4.000   0.961   6.653 -2.7120 -4.4421 -2.9457
   26CHL1    C4 3035   3.908   0.924   6.396  0.6127  0.0500 -0.2641
   26CHL1   H4A 3036   3.924   0.832   6.455 -1.8453  0.7026  1.5744
   26CHL1   H4B 3037   3.801   0.955   6.399  0.6271  0.0432  0.5932
   26CHL1    C5 3038   3.952   0.908   6.251  0.1603  0.2929 -1.1404
   26CHL1    C6 3039   3.866   0.937   6.151 -0.3000  0.1543 -0.2364
   26CHL1    H6 3040   3.763   0.969   6.172  0.2064  0.6171  1.8231
   26CHL1    C7 3041   3.898   0.927   6.008 -1.4330  0.0652  0.3539
   26CHL1   H7A 3042   3.819   0.869   5.954 -0.3550 -0.8395 -0.2912
   26CHL1   H7B 3043   3.901   1.027   5.961 -0.7873  0.8624  2.0415
   26CHL1    C8 3044   4.041   0.848   5.992  1.0823  0.0543 -0.9625
   26CHL1    H8 3045   4.039   0.740   6.015  0.5097  0.5630  1.8906
   26CHL1   C14 3046   4.076   0.874   5.848 -1.1401  0.1708 -0.5024
   26CHL1   H14 3047   4.085   0.983   5.831 -1.6050 -0.1510 -3.1615
   26CHL1   C15 3048   3.981   0.824   5.742  0.6914  0.0020 -0.3815
   26CHL1  H15A 3049   3.952   0.717   5.758 -1.1644  0.7693  2.0156
   26CHL1  H15B 3050   3.891   0.887   5.752  0.7977 -0.1745  3.0274
   26CHL1   C16 3051   4.058   0.827   5.609  0.3100  0.0522  0.0704
   26CHL1  H16A 3052   4.051   0.726   5.564 -0.8238 -0.4683  1.3588
   26CHL1  H16B 3053   4.031   0.909   5.539 -1.2148 -0.6018 -0.1455
   26CHL1   C17 3054   4.208   0.858   5.650  0.3130 -0.0210 -0.3680
   26CHL1   H17 3055   4.211   0.966   5.628 -1.1914  0.9431  3.4070
   26CHL1   C13 3056   4.214   0.821   5.804 -0.0407 -0.2136  0.1232
   26CHL1   C18 3057   4.214   0.670   5.820 -0.3861  0.3918  0.9000
   26CHL1  H18A 3058   4.198   0.645   5.927 -1.0671 -0.5741  0.5859
   26CHL1  H18B 3059   4.135   0.615   5.765  0.3269  0.8867 -0.6766
   26CHL1  H18C 3060   4.303   0.622   5.774 -0.5408 -1.5473  2.5252
   26CHL1   C12 3061   4.314   0.906   5.891 -0.0895 -0.0930  0.1904
   26CHL1  H12A 3062   4.419   0.873   5.881 -0.2448 -0.6366  0.3036
   26CHL1  H12B 3063   4.304   1.012   5.861 -1.6799 -0.5009 -0.8454
   26CHL1   C11 3064   4.283   0.889   6.040 -0.2799 -0.1910  0.0094
   26CHL1  H11A 3065   4.329   0.799   6.085  3.3129  1.0194 -0.8748
   26CHL1  H11B 3066   4.343   0.975   6.077 -0.1970 -0.6070  0.8555
   26CHL1    C9 3067   4.139   0.918   6.085 -0.2083 -0.1309  0.4927
   26CHL1    H9 3068   4.122   1.027   6.070  1.1635  0.1844  1.0649
   26CHL1   C10 3069   4.096   0.889   6.229 -1.1592 -0.2984 -0.1575
   26CHL1   C19 3070   4.129   0.747   6.270  0.2331  0.2206 -0.2225
   26CHL1  H19A 3071   4.228   0.706   6.241  0.7287  0.5371  0.9615
   26CHL1  H19B 3072   4.127   0.738   6.381 -3.2056  0.9998 -0.1104
   26CHL1  H19C 3073   4.053   0.675   6.233 -2.9827  1.8382  2.6736
   26CHL1    C1 3074   4.180   0.985   6.327 -0.1435  0.5457  0.5041
   26CHL1   H1A 3075   4.290   0.971   6.318 -0.1637  0.1071  0.8885
   26CHL1   H1B 3076   4.162   1.092   6.301 -1.0258 -0.0182 -1.3316
   26CHL1    C2 3077   4.146   0.996   6.471 -0.3033 -0.6022 -0.1637
   26CHL1   H2A 3078   4.191   1.077   6.533 -0.1979  0.0200 -1.0356
   26CHL1   H2B 3079   4.170   0.900   6.522  0.3619 -1.4329 -1.9765
   26CHL1   C20 3080   4.319   0.793   5.567 -0.6961 -0.4109 -0.1408
   26CHL1   H20 3081   4.314   0.682   5.562 -0.5367 -0.3704 -2.0682
   26CHL1   C21 3082   4.462   0.836   5.618  0.1580  0.6981 -0.0867
   26CHL1  H21A 3083   4.466   0.947   5.619 -0.9797  0.7522 -0.0792
   26CHL1  H21B 3084   4.535   0.792   5.547 -0.7059 -0.6366 -0.1903
   26CHL1  H21C 3085   4.490   0.803   5.721 -1.2072  0.2070  0.1606
   26CHL1   C22 3086   4.329   0.834   5.413 -0.1043 -0.3252 -0.4696
   26CHL1  H22A 3087   4.324   0.944   5.403  0.6722 -0.1694  0.6179
   26CHL1  H22B 3088   4.429   0.811   5.369  0.4184  0.8727  0.0381
   26CHL1   C23 3089   4.224   0.764   5.326 -0.9137  0.4265 -0.4503
   26CHL1  H23A 3090   4.250   0.656   5.323 -2.2786  0.0684 -0.0605
   26CHL1  H23B 3091   4.122   0.773   5.370 -1.0678 -2.0148 -0.1694
   26CHL1   C24 3092   4.196   0.819   5.182 -0.3074 -0.6882  0.2295
   26CHL1  H24A 3093   4.201   0.930   5.188 -0.7495 -0.6738  0.3846
   26CHL1  H24B 3094   4.277   0.779   5.118  0.5197  0.9197  0.2218
   26CHL1   C25 3095   4.057   0.781   5.131 -0.3503  0.0829  0.8636
   26CHL1   H25 3096   4.063   0.671   5.143  2.1324  0.3639  3.2636
   26CHL1   C26 3097   3.936   0.836   5.213 -0.7523  0.5578  0.2259
   26CHL1  H26A 3098   3.915   0.781   5.307 -4.0099 -1.3795 -1.4467
   26CHL1  H26B 3099   3.932   0.946   5.231  2.6119  0.5878  1.3411
   26CHL1  H26C 3100   3.849   0.822   5.144  0.9157 -0.4214 -1.8088
   26CHL1   C27 3101   4.037   0.809   4.984  0.2192  0.7904 -0.2142
   26CHL1  H27A 3102   4.041   0.919   4.967  0.2771  0.7310 -0.5933
   26CHL1  H27B 3103   4.121   0.766   4.925 -0.2250 -0.3184 -0.0671
   26CHL1  H27C 3104   3.940   0.767   4.948  0.1982  1.1729 -0.6197
   27CHL1    C3 3105   4.086   6.338   6.255 -0.7259  0.1946 -0.3455
   27CHL1    H3 3106   4.143   6.433   6.243 -1.3388  0.3406 -2.5070
   27CHL1    O3 3107   4.075   6.314   6.394  0.4915  0.4146  0.2824
   27CHL1   H3' 3108   4.086   6.218   6.394  0.6461  0.3958  2.0542
   27CHL1    C4 3109   3.951   6.347   6.189  0.5738 -0.2215  0.1485
   27CHL1   H4A 3110   3.906   6.246   6.203  2.2532 -0.8196  1.6217
   27CHL1   H4B 3111   3.881   6.412   6.244  2.7974  0.1270  2.7562
   27CHL1    C5 3112   3.961   6.387   6.046  0.8403  0.3516  0.1282
   27CHL1    C6 3113   3.887   6.490   5.999  0.0018 -0.1103  0.3020
   27CHL1    H6 3114   3.821   6.548   6.066  2.0272  2.1640  0.4435
   27CHL1    C7 3115   3.892   6.540   5.859  0.6053 -0.4393  0.0333
   27CHL1   H7A 3116   3.786   6.557   5.832  0.8298  1.0696  0.0156
   27CHL1   H7B 3117   3.944   6.637   5.850 -1.3092  0.5577 -0.8793
   27CHL1    C8 3118   3.960   6.438   5.764  0.1767  0.0698  0.2429
   27CHL1    H8 3119   3.895   6.350   5.745  2.0395 -0.9952 -1.5789
   27CHL1   C14 3120   3.984   6.503   5.628  0.1799  0.1322 -0.2423
   27CHL1   H14 3121   4.041   6.597   5.648  0.3941 -0.2761  1.1828
   27CHL1   C15 3122   3.858   6.550   5.554 -0.5133 -0.0422  0.3183
   27CHL1  H15A 3123   3.784   6.467   5.553 -0.4414 -0.1226 -1.6043
   27CHL1  H15B 3124   3.805   6.641   5.590  1.0974  0.2193  2.1550
   27CHL1   C16 3125   3.909   6.585   5.415  0.3951  0.4355  0.2613
   27CHL1  H16A 3126   3.832   6.542   5.347  0.8346  0.2368 -0.1165
   27CHL1  H16B 3127   3.929   6.691   5.392  0.1172  0.3632 -0.3242
   27CHL1   C17 3128   4.055   6.513   5.404 -0.2516 -0.0409 -0.1531
   27CHL1   H17 3129   4.115   6.605   5.416  0.1000 -0.5470  2.4313
   27CHL1   C13 3130   4.066   6.426   5.528 -0.2392  0.7986 -0.6815
   27CHL1   C18 3131   3.991   6.292   5.487 -0.2787  0.1272  0.2606
   27CHL1  H18A 3132   3.971   6.218   5.567  1.1502  1.2482  1.7326
   27CHL1  H18B 3133   3.893   6.308   5.438 -1.0295  1.4911  2.1192
   27CHL1  H18C 3134   4.059   6.237   5.417 -2.3900  0.9195 -2.5873
   27CHL1   C12 3135   4.200   6.384   5.595 -0.2277  0.6225  0.1000
   27CHL1  H12A 3136   4.260   6.321   5.527 -1.3810  0.7405 -1.0707
   27CHL1  H12B 3137   4.250   6.483   5.605 -0.8735  1.2553 -2.3597
   27CHL1   C11 3138   4.184   6.315   5.732 -0.0555 -0.2570 -0.1198
   27CHL1  H11A 3139   4.142   6.214   5.711 -0.1904 -0.3645  0.6234
   27CHL1  H11B 3140   4.281   6.288   5.778 -0.1134  0.4271  0.4272
   27CHL1    C9 3141   4.083   6.383   5.835 -0.9869  0.9829 -0.1506
   27CHL1    H9 3142   4.143   6.469   5.873  1.8831 -1.0678  0.3066
   27CHL1   C10 3143   4.053   6.296   5.968 -0.5102 -0.1820  0.1966
   27CHL1   C19 3144   4.004   6.155   5.928  0.4559 -0.2499  0.0340
   27CHL1  H19A 3145   4.091   6.092   5.898  1.4854  1.3698 -0.4997
   27CHL1  H19B 3146   3.949   6.107   6.012 -0.6239 -1.4644 -1.3128
   27CHL1  H19C 3147   3.934   6.171   5.844 -1.7073  2.4359  2.1527
   27CHL1    C1 3148   4.188   6.282   6.047 -0.1376 -0.2546 -0.8111
   27CHL1   H1A 3149   4.268   6.214   6.010 -0.1152 -0.5534 -0.2371
   27CHL1   H1B 3150   4.223   6.387   6.058 -0.0472 -0.1808 -1.7328
   27CHL1    C2 3151   4.175   6.229   6.190  0.7237 -0.3148 -0.2350
   27CHL1   H2A 3152   4.279   6.228   6.231  0.1832 -1.3003  1.1977
   27CHL1   H2B 3153   4.135   6.126   6.198  0.9983 -0.2589  3.3219
   27CHL1   C20 3154   4.102   6.454   5.270  0.6553  0.3063  0.2103
   27CHL1   H20 3155   4.106   6.343   5.279  2.9809  0.4972  3.7884
   27CHL1   C21 3156   4.250   6.485   5.233  0.1913 -0.0834  0.8690
   27CHL1  H21A 3157   4.274   6.591   5.213  0.6005 -0.3086  0.1434
   27CHL1  H21B 3158   4.278   6.426   5.143 -1.1578 -1.6417  1.4246
   27CHL1  H21C 3159   4.312   6.448   5.318 -0.2140 -0.6861  0.9054
   27CHL1   C22 3160   4.018   6.485   5.139 -0.3766  0.0342 -0.5190
   27CHL1  H22A 3161   4.058   6.419   5.059  0.8701 -1.0561  0.9327
   27CHL1  H22B 3162   3.914   6.449   5.151 -0.0588 -0.9332 -0.5698
   27CHL1   C23 3163   4.010   6.625   5.083 -0.6306  0.2187 -1.5231
   27CHL1  H23A 3164   3.965   6.693   5.159  0.1761 -0.1926 -0.6478
   27CHL1  H23B 3165   4.104   6.673   5.051 -2.0704  3.0709 -1.8228
   27CHL1   C24 3166   3.931   6.614   4.954 -0.4359  0.1791  0.5979
   27CHL1  H24A 3167   3.979   6.555   4.872 -1.6894 -0.5507  0.3578
   27CHL1  H24B 3168   3.834   6.559   4.955 -0.8825  0.8757 -0.9650
   27CHL1   C25 3169   3.894   6.754   4.897 -0.3420 -0.0116  0.4794
   27CHL1   H25 3170   3.841   6.819   4.969  0.5008  2.0013 -0.6249
   27CHL1   C26 3171   4.021   6.822   4.845 -0.4795  0.1851  1.1270
   27CHL1  H26A 3172   4.087   6.839   4.933 -0.3426  0.4111  0.9818
   27CHL1  H26B 3173   4.070   6.764   4.765 -1.8005 -0.0083  0.4315
   27CHL1  H26C 3174   3.983   6.916   4.800 -1.3869 -0.4911  0.4420
   27CHL1   C27 3175   3.794   6.735   4.784  0.0280  0.0283 -0.1241
   27CHL1  H27A 3176   3.779   6.834   4.734 -0.4915  0.8929  1.6545
   27CHL1  H27B 3177   3.700   6.700   4.833 -0.0248 -1.5158 -1.2561
   27CHL1  H27C 3178   3.825   6.662   4.706 -1.0821  1.5782 -2.1181
   28CHL1    C3 3179   6.727   6.434   6.484  0.0744 -0.4308 -0.1103
   28CHL1    H3 3180   6.765   6.527   6.532 -1.2091 -0.4645  1.0381
   28CHL1    O3 3181   6.686   6.343   6.582  0.0213  0.1764 -0.6185
   28CHL1   H3' 3182   6.759   6.283   6.603 -0.3741  0.2168  1.0641
   28CHL1    C4 3183   6.599   6.472   6.404 -0.6239  0.3537  0.8462
   28CHL1   H4A 3184   6.562   6.383   6.349  2.0411 -0.0269 -0.5027
   28CHL1   H4B 3185   6.527   6.514   6.477  0.3111 -0.4259  2.2853
   28CHL1    C5 3186   6.644   6.568   6.296  0.1351  0.1316  0.0906
   28CHL1    C6 3187   6.583   6.689   6.286  0.2731 -0.5989  0.4609
   28CHL1    H6 3188   6.503   6.720   6.355 -0.5035  1.2782 -1.1563
   28CHL1    C7 3189   6.592   6.776   6.160 -0.3916 -0.6361  0.1097
   28CHL1   H7A 3190   6.497   6.820   6.122  0.3570 -0.8942 -2.2499
   28CHL1   H7B 3191   6.658   6.862   6.185 -0.4646 -1.0323  1.7449
   28CHL1    C8 3192   6.666   6.708   6.038  0.2267  0.4854 -0.4758
   28CHL1    H8 3193   6.590   6.637   5.999  1.2042 -0.4626 -0.6910
   28CHL1   C14 3194   6.712   6.806   5.936 -0.1474  0.0107  0.7064
   28CHL1   H14 3195   6.784   6.868   5.995 -0.0488  0.5805 -0.0021
   28CHL1   C15 3196   6.615   6.910   5.889 -0.5828  0.4634 -0.5631
   28CHL1  H15A 3197   6.520   6.857   5.865  0.6840 -0.5038 -4.1120
   28CHL1  H15B 3198   6.597   6.993   5.961  2.7422  0.2610  0.6799
   28CHL1   C16 3199   6.670   6.973   5.758 -0.4032  0.4382  0.6029
   28CHL1  H16A 3200   6.600   6.972   5.671 -0.0084  0.9934  0.2735
   28CHL1  H16B 3201   6.705   7.076   5.778  3.3897 -0.3440 -1.0607
   28CHL1   C17 3202   6.802   6.884   5.735  0.6245  0.1638 -0.4899
   28CHL1   H17 3203   6.882   6.942   5.786  1.4676 -1.5578  0.1964
   28CHL1   C13 3204   6.784   6.749   5.815  0.1441 -0.5981 -0.1663
   28CHL1   C18 3205   6.681   6.655   5.742  0.4517 -0.4611 -0.2558
   28CHL1  H18A 3206   6.578   6.694   5.754  1.1129  0.9047  1.5738
   28CHL1  H18B 3207   6.715   6.649   5.636  0.8076 -0.8635 -0.1208
   28CHL1  H18C 3208   6.683   6.552   5.783 -0.7581 -1.1635 -1.8319
   28CHL1   C12 3209   6.904   6.670   5.864  0.7389 -0.7206  0.1165
   28CHL1  H12A 3210   6.942   6.606   5.780  0.6863 -0.3226 -0.2134
   28CHL1  H12B 3211   6.980   6.741   5.903  0.7910 -1.5962  1.6903
   28CHL1   C11 3212   6.871   6.565   5.971  0.1272 -0.4964  0.1447
   28CHL1  H11A 3213   6.819   6.481   5.919  0.7024 -0.8782  0.1784
   28CHL1  H11B 3214   6.968   6.528   6.011  1.4984  0.1817 -2.3309
   28CHL1    C9 3215   6.782   6.623   6.089  0.2051  0.3281 -0.1472
   28CHL1    H9 3216   6.850   6.693   6.141 -0.9447 -0.4436  2.6156
   28CHL1   C10 3217   6.742   6.518   6.195 -0.1527  0.2914 -0.2124
   28CHL1   C19 3218   6.697   6.391   6.120 -0.3594 -0.2616 -1.1474
   28CHL1  H19A 3219   6.771   6.350   6.048 -0.6712  1.0041 -2.2437
   28CHL1  H19B 3220   6.664   6.308   6.186 -0.4853  0.5053 -0.2200
   28CHL1  H19C 3221   6.616   6.424   6.050  0.0925  4.4048  0.1760
   28CHL1    C1 3222   6.869   6.477   6.285 -0.1552 -0.0002 -0.0106
   28CHL1   H1A 3223   6.952   6.436   6.224 -0.6750  0.4919 -1.0857
   28CHL1   H1B 3224   6.898   6.571   6.337  2.2105 -0.7560  0.1438
   28CHL1    C2 3225   6.839   6.380   6.393  0.6674 -0.4870 -0.2762
   28CHL1   H2A 3226   6.931   6.360   6.452  0.1800 -1.6462  0.1083
   28CHL1   H2B 3227   6.810   6.284   6.345 -0.6239 -1.1467  1.7049
   28CHL1   C20 3228   6.848   6.882   5.589 -0.3479 -0.9050  0.2185
   28CHL1   H20 3229   6.772   6.826   5.531  1.9553 -1.8797 -2.0288
   28CHL1   C21 3230   6.990   6.808   5.569  0.6659 -0.4125 -0.3779
   28CHL1  H21A 3231   6.971   6.699   5.585 -1.1326 -0.4196 -2.0806
   28CHL1  H21B 3232   7.068   6.840   5.641 -0.9363 -1.9903  2.2402
   28CHL1  H21C 3233   7.026   6.814   5.464  2.8088  0.7002  0.3710
   28CHL1   C22 3234   6.859   7.030   5.540 -0.2565 -0.5938  0.3258
   28CHL1  H22A 3235   6.770   7.086   5.575  0.3879  1.5307 -1.2246
   28CHL1  H22B 3236   6.949   7.073   5.590 -1.0269  1.5446  0.0082
   28CHL1   C23 3237   6.868   7.057   5.390 -0.9931  0.2453 -0.0377
   28CHL1  H23A 3238   6.972   7.031   5.357 -0.0957  2.7423  0.6261
   28CHL1  H23B 3239   6.814   6.970   5.346 -1.2791 -1.1712  2.8656
   28CHL1   C24 3240   6.819   7.193   5.347 -0.2989 -0.3417 -0.7071
   28CHL1  H24A 3241   6.716   7.209   5.386 -0.0762 -1.0245  0.1881
   28CHL1  H24B 3242   6.889   7.266   5.394 -1.5522 -1.0482  2.5062
   28CHL1   C25 3243   6.813   7.228   5.201 -0.4401  0.6329  0.6514
   28CHL1   H25 3244   6.750   7.146   5.161  0.2824 -0.7076  2.1933
   28CHL1   C26 3245   6.756   7.362   5.154 -0.3076 -0.0880  0.4516
   28CHL1  H26A 3246   6.651   7.358   5.190  0.3707  0.2791  2.6498
   28CHL1  H26B 3247   6.802   7.452   5.201  0.3007 -0.5913  0.8398
   28CHL1  H26C 3248   6.762   7.371   5.044  1.9870  0.9340  0.5854
   28CHL1   C27 3249   6.960   7.225   5.142 -0.0963 -0.0227  0.8723
   28CHL1  H27A 3250   7.002   7.122   5.148  0.2359  0.1219  1.0241
   28CHL1  H27B 3251   6.952   7.258   5.037 -1.4783 -1.2864  0.5406
   28CHL1  H27C 3252   7.027   7.289   5.204 -2.1563  2.3411  0.8239
   29CHL1    C3 3253   1.285   0.598   6.193  0.0598 -0.0780 -0.3247
   29CHL1    H3 3254   1.212   0.518   6.169  0.6577 -1.5028  2.1608
   29CHL1    O3 3255   1.274   0.639   6.327  0.2853  0.0249 -1.2853
   29CHL1   H3' 3256   1.357   0.632   6.375  0.0414  0.2725 -0.8324
   29CHL1    C4 3257   1.430   0.549   6.163 -0.7631  0.0704 -0.0636
   29CHL1   H4A 3258   1.499   0.627   6.201  1.1750 -1.2886 -0.6429
   29CHL1   H4B 3259   1.444   0.466   6.236 -0.1929 -0.6000 -0.9104
   29CHL1    C5 3260   1.462   0.514   6.019 -0.3491  0.9662 -2.0585
   29CHL1    C6 3261   1.515   0.391   5.996 -0.0103 -0.9557 -0.8612
   29CHL1    H6 3262   1.540   0.319   6.076  2.3317 -0.1328 -0.7727
   29CHL1    C7 3263   1.556   0.356   5.856 -0.4037  0.1906  0.5529
   29CHL1   H7A 3264   1.660   0.318   5.845  0.0766  1.6681 -0.1836
   29CHL1   H7B 3265   1.495   0.269   5.822  0.9786 -1.0873  1.2017
   29CHL1    C8 3266   1.551   0.477   5.758  0.5969  0.5754 -0.0671
   29CHL1    H8 3267   1.644   0.536   5.773  1.2124  0.3031 -2.3115
   29CHL1   C14 3268   1.554   0.431   5.609  0.2584 -0.1514 -0.7753
   29CHL1   H14 3269   1.456   0.380   5.604 -0.2141  0.7391 -0.7678
   29CHL1   C15 3270   1.666   0.338   5.567  0.1335  0.5082  0.6706
   29CHL1  H15A 3271   1.768   0.370   5.599  0.9852 -0.7332 -0.6647
   29CHL1  H15B 3272   1.653   0.230   5.592  2.4454 -0.3747 -1.4944
   29CHL1   C16 3273   1.653   0.344   5.411  0.3852 -0.3145 -0.2007
   29CHL1  H16A 3274   1.754   0.358   5.367  0.7926 -0.6428  0.6073
   29CHL1  H16B 3275   1.617   0.242   5.387  1.0161 -1.1607  2.1295
   29CHL1   C17 3276   1.554   0.454   5.375  1.0664 -0.4129 -1.1288
   29CHL1   H17 3277   1.457   0.399   5.365  0.5571  0.4329 -0.9253
   29CHL1   C13 3278   1.551   0.543   5.501  0.2088 -0.2495 -1.1190
   29CHL1   C18 3279   1.683   0.623   5.518 -0.2597  0.1330  0.7212
   29CHL1  H18A 3280   1.656   0.720   5.471 -2.5827 -0.0594  1.4821
   29CHL1  H18B 3281   1.713   0.635   5.624  1.3410  0.7005  0.2275
   29CHL1  H18C 3282   1.767   0.571   5.468 -0.0432  0.3424  0.8637
   29CHL1   C12 3283   1.421   0.618   5.526 -0.2909  0.1066 -0.2126
   29CHL1  H12A 3284   1.411   0.706   5.458 -0.3081 -0.8787 -1.5368
   29CHL1  H12B 3285   1.338   0.545   5.520  1.2831 -1.7381 -0.6256
   29CHL1   C11 3286   1.424   0.682   5.665  0.4199  0.4968  0.2795
   29CHL1  H11A 3287   1.514   0.742   5.688  1.4504 -0.8207 -0.2154
   29CHL1  H11B 3288   1.332   0.743   5.676  0.7983  1.0894  0.1795
   29CHL1    C9 3289   1.428   0.571   5.776  0.3154 -0.1530  0.2297
   29CHL1    H9 3290   1.345   0.500   5.758 -0.6136  0.8952  0.2264
   29CHL1   C10 3291   1.426   0.625   5.927 -0.1325  0.9100 -0.4006
   29CHL1   C19 3292   1.526   0.740   5.942  0.0198  0.0451 -1.0150
   29CHL1  H19A 3293   1.626   0.713   5.902 -0.7433 -3.3105 -0.9053
   29CHL1  H19B 3294   1.490   0.834   5.895  1.1619  1.4235  0.7173
   29CHL1  H19C 3295   1.536   0.751   6.053 -1.4108 -4.3774 -0.2559
   29CHL1    C1 3296   1.278   0.674   5.956 -0.2471  0.3430  0.5085
   29CHL1   H1A 3297   1.275   0.768   5.897  3.0428  2.1112  2.8093
   29CHL1   H1B 3298   1.195   0.603   5.938 -0.5712  1.1567 -1.5216
   29CHL1    C2 3299   1.256   0.713   6.101 -0.9464 -0.6217 -0.1025
   29CHL1   H2A 3300   1.156   0.761   6.110  0.3277  1.9607  1.4774
   29CHL1   H2B 3301   1.330   0.788   6.135  0.5646 -2.0238 -0.1999
   29CHL1   C20 3302   1.558   0.530   5.240 -0.6868 -0.1802 -0.2752
   29CHL1   H20 3303   1.620   0.622   5.254 -3.3775  1.8489 -0.8689
   29CHL1   C21 3304   1.412   0.571   5.193 -0.2807  0.2723  0.3549
   29CHL1  H21A 3305   1.345   0.483   5.184 -1.0157  0.8767 -0.2296
   29CHL1  H21B 3306   1.430   0.618   5.094 -1.0172  0.0709  0.1208
   29CHL1  H21C 3307   1.364   0.648   5.257 -1.2534  0.0219 -0.0574
   29CHL1   C22 3308   1.629   0.460   5.124  0.9648 -0.3051  0.2040
   29CHL1  H22A 3309   1.646   0.539   5.048 -2.0895 -1.0741 -1.4415
   29CHL1  H22B 3310   1.730   0.427   5.157  1.5779  1.9172  0.7603
   29CHL1   C23 3311   1.557   0.335   5.068 -0.2361  0.7262  0.1327
   29CHL1  H23A 3312   1.515   0.273   5.150 -1.5870  2.7571  1.0802
   29CHL1  H23B 3313   1.473   0.377   5.007  0.9784  1.3191 -1.1870
   29CHL1   C24 3314   1.650   0.247   4.982  0.2962 -0.4222 -0.2275
   29CHL1  H24A 3315   1.719   0.304   4.917  1.1146 -0.3122  0.7130
   29CHL1  H24B 3316   1.712   0.175   5.039 -1.2585 -2.5845 -1.1170
   29CHL1   C25 3317   1.571   0.133   4.911 -1.0053  0.4233  0.0552
   29CHL1   H25 3318   1.528   0.064   4.987 -1.3114  0.6635  0.1021
   29CHL1   C26 3319   1.458   0.181   4.823 -0.1264 -0.2437 -0.0572
   29CHL1  H26A 3320   1.366   0.218   4.871  0.2145  1.1431 -0.4153
   29CHL1  H26B 3321   1.496   0.261   4.755  1.1919  0.3844  1.3675
   29CHL1  H26C 3322   1.435   0.095   4.755  1.9818  0.4898 -1.8171
   29CHL1   C27 3323   1.675   0.057   4.821  0.6603  0.1643  0.6538
   29CHL1  H27A 3324   1.631  -0.019   4.754 -0.9359  2.6064 -1.2497
   29CHL1  H27B 3325   1.718   0.140   4.761 -0.7376  0.3870 -0.0693
   29CHL1  H27C 3326   1.764   0.020   4.877  0.7758  2.4125  2.1158
   30CHL1    C3 3327   4.233   1.537   6.442 -0.4250 -0.1492 -0.0456
   30CHL1    H3 3328   4.318   1.607   6.458  0.4719 -1.4450  1.0951
   30CHL1    O3 3329   4.150   1.532   6.564  0.1803 -0.0774 -0.1895
   30CHL1   H3' 3330   4.095   1.610   6.564  0.1124 -0.1056  1.2420
   30CHL1    C4 3331   4.148   1.582   6.323 -0.3912 -0.0986  0.1374
   30CHL1   H4A 3332   4.057   1.518   6.328 -0.9075  0.7075  1.7257
   30CHL1   H4B 3333   4.104   1.683   6.336 -0.8685 -0.1363 -1.0591
   30CHL1    C5 3334   4.218   1.569   6.188  0.5520  0.1915  0.2893
   30CHL1    C6 3335   4.243   1.672   6.107  1.0443 -0.4071 -0.3204
   30CHL1    H6 3336   4.201   1.769   6.136 -1.1399 -1.1594 -0.7404
   30CHL1    C7 3337   4.311   1.669   5.974 -0.2445  0.0336  0.7059
   30CHL1   H7A 3338   4.262   1.729   5.894  3.7443  0.4105 -1.7308
   30CHL1   H7B 3339   4.413   1.712   5.986 -0.6358  0.8635  1.0710
   30CHL1    C8 3340   4.319   1.522   5.923 -0.3133  0.1620 -0.1688
   30CHL1    H8 3341   4.216   1.498   5.887 -0.2132 -1.4614  0.4954
   30CHL1   C14 3342   4.409   1.512   5.799  0.9500  0.0827 -0.3562
   30CHL1   H14 3343   4.508   1.549   5.833  0.8237  0.4060 -0.3423
   30CHL1   C15 3344   4.369   1.590   5.679  0.3474  0.3727 -0.3024
   30CHL1  H15A 3345   4.268   1.565   5.641 -0.9511  1.9434  1.8686
   30CHL1  H15B 3346   4.372   1.698   5.706 -0.2173  0.3092  0.0237
   30CHL1   C16 3347   4.472   1.542   5.575 -0.8485 -0.2406  0.2289
   30CHL1  H16A 3348   4.419   1.504   5.484 -0.3709 -1.2750  0.3657
   30CHL1  H16B 3349   4.549   1.614   5.540 -1.4313  0.6018  0.6675
   30CHL1   C17 3350   4.536   1.412   5.632 -0.1691  0.0468 -0.3531
   30CHL1   H17 3351   4.622   1.456   5.687  0.1378  2.4352 -2.5730
   30CHL1   C13 3352   4.438   1.374   5.747 -0.9594 -0.4493 -0.0089
   30CHL1   C18 3353   4.320   1.302   5.677 -0.7345 -0.8452  0.5730
   30CHL1  H18A 3354   4.338   1.195   5.653  3.8049 -0.3550  0.8546
   30CHL1  H18B 3355   4.240   1.318   5.753 -2.1381  0.7362 -1.1224
   30CHL1  H18C 3356   4.286   1.351   5.583  2.3445 -0.1478 -0.3064
   30CHL1   C12 3357   4.485   1.283   5.861  0.3375 -0.6490  0.3618
   30CHL1  H12A 3358   4.506   1.185   5.814 -0.0758  0.3575 -2.0820
   30CHL1  H12B 3359   4.578   1.305   5.916  2.2678 -1.8518 -2.2256
   30CHL1   C11 3360   4.386   1.279   5.981  0.6041  0.2073 -0.2632
   30CHL1  H11A 3361   4.286   1.237   5.952 -0.0811  1.6538 -0.0774
   30CHL1  H11B 3362   4.424   1.215   6.063  0.8801  0.2920 -0.3275
   30CHL1    C9 3363   4.354   1.424   6.033 -0.0687 -0.1677  0.1202
   30CHL1    H9 3364   4.454   1.464   6.058 -0.3432  0.5815  0.0254
   30CHL1   C10 3365   4.272   1.427   6.160  0.3749  0.5219 -0.4835
   30CHL1   C19 3366   4.147   1.329   6.136 -0.3318  0.6037 -0.1957
   30CHL1  H19A 3367   4.130   1.339   6.027  0.9548  1.4865 -0.3323
   30CHL1  H19B 3368   4.181   1.225   6.155  2.4207  1.2250 -1.2442
   30CHL1  H19C 3369   4.050   1.334   6.190 -1.1459  0.1817 -1.5544
   30CHL1    C1 3370   4.360   1.384   6.281 -0.4693 -0.1290  0.7336
   30CHL1   H1A 3371   4.394   1.278   6.277  0.9129  0.3231 -1.8641
   30CHL1   H1B 3372   4.443   1.457   6.285  0.4885 -0.9579 -1.5975
   30CHL1    C2 3373   4.293   1.398   6.421  0.5047  0.3281 -0.9011
   30CHL1   H2A 3374   4.356   1.391   6.512 -3.6855  2.2695  2.5006
   30CHL1   H2B 3375   4.214   1.322   6.438  0.5552  0.6274  0.9185
   30CHL1   C20 3376   4.582   1.298   5.535 -0.2617 -0.0744  0.3076
   30CHL1   H20 3377   4.521   1.209   5.560 -1.8099  0.5230 -1.1455
   30CHL1   C21 3378   4.726   1.255   5.569 -0.7872  0.2208 -0.4385
   30CHL1  H21A 3379   4.747   1.156   5.523  2.3569  1.4987 -2.0523
   30CHL1  H21B 3380   4.734   1.252   5.679 -1.8870 -0.6663 -0.3565
   30CHL1  H21C 3381   4.793   1.331   5.523 -0.5424 -0.2630 -0.8938
   30CHL1   C22 3382   4.564   1.321   5.382 -0.1939  0.2644 -0.2943
   30CHL1  H22A 3383   4.455   1.328   5.360 -0.1377 -0.2316 -0.7499
   30CHL1  H22B 3384   4.606   1.419   5.350  0.4024  0.5223  1.2233
   30CHL1   C23 3385   4.609   1.209   5.286 -0.3558 -0.9895  0.4042
   30CHL1  H23A 3386   4.718   1.190   5.285  0.2212  1.6932  2.1714
   30CHL1  H23B 3387   4.578   1.109   5.325 -1.6185 -1.9900 -2.8236
   30CHL1   C24 3388   4.562   1.234   5.144  0.0059 -0.1865  0.0116
   30CHL1  H24A 3389   4.454   1.255   5.134 -0.0587  0.4022  1.6758
   30CHL1  H24B 3390   4.611   1.330   5.120 -2.8129  1.0253 -1.2367
   30CHL1   C25 3391   4.587   1.112   5.051  0.2779  0.4315 -0.1972
   30CHL1   H25 3392   4.560   1.153   4.951 -1.7102 -1.1685 -0.3786
   30CHL1   C26 3393   4.726   1.061   5.059 -0.2822 -0.1361 -0.3080
   30CHL1  H26A 3394   4.751   1.012   5.155 -0.5938  2.1571  1.0188
   30CHL1  H26B 3395   4.752   0.990   4.978  2.2421  2.1884 -1.7217
   30CHL1  H26C 3396   4.788   1.153   5.048  1.1532 -1.1711 -1.2789
   30CHL1   C27 3397   4.496   0.993   5.086 -0.1945 -0.7534  0.4112
   30CHL1  H27A 3398   4.532   0.941   5.177  3.1743 -1.9375 -1.4192
   30CHL1  H27B 3399   4.390   1.023   5.075 -1.2370 -3.8761  0.8897
   30CHL1  H27C 3400   4.509   0.918   5.005 -0.3413  0.6189 -0.9394
   31CHL1    C3 3401   3.680   0.619   6.308 -1.2557 -0.3220  0.0378
   31CHL1    H3 3402   3.774   0.678   6.305 -1.6433  0.6023  2.9599
   31CHL1    O3 3403   3.657   0.616   6.446  0.0137 -0.2016  0.1012
   31CHL1   H3' 3404   3.742   0.637   6.486 -0.8960  1.5248  1.2250
   31CHL1    C4 3405   3.565   0.697   6.246 -0.4595  0.0864 -0.2715
   31CHL1   H4A 3406   3.465   0.659   6.276 -0.6330 -0.5463 -1.6028
   31CHL1   H4B 3407   3.567   0.801   6.286 -2.5448 -0.4013  1.2790
   31CHL1    C5 3408   3.567   0.706   6.097  0.4522  1.0023  0.2161
   31CHL1    C6 3409   3.569   0.822   6.034 -0.5136 -0.2739  0.1866
   31CHL1    H6 3410   3.566   0.917   6.089  0.8789  1.4268 -2.4534
   31CHL1    C7 3411   3.562   0.832   5.886 -1.5560  0.3009 -0.2666
   31CHL1   H7A 3412   3.478   0.895   5.848 -1.1198  0.7597 -0.4742
   31CHL1   H7B 3413   3.657   0.856   5.835 -2.1622  1.2577 -0.9874
   31CHL1    C8 3414   3.532   0.695   5.814  0.0823  0.3210  0.1489
   31CHL1    H8 3415   3.425   0.669   5.833  1.2159 -5.9947 -0.0263
   31CHL1   C14 3416   3.571   0.706   5.666  0.1247 -0.6206  0.1038
   31CHL1   H14 3417   3.682   0.716   5.668  0.1692 -1.2013  0.6846
   31CHL1   C15 3418   3.519   0.831   5.585 -0.1731  0.6429 -0.3255
   31CHL1  H15A 3419   3.415   0.847   5.619 -0.6216 -2.1856 -0.1516
   31CHL1  H15B 3420   3.581   0.917   5.619  1.2194  0.1077 -1.4160
   31CHL1   C16 3421   3.537   0.787   5.443  0.3723  0.4449 -0.4281
   31CHL1  H16A 3422   3.440   0.806   5.392 -1.2396 -0.0095  2.2704
   31CHL1  H16B 3423   3.622   0.841   5.396  0.8842  1.0120  1.1151
   31CHL1   C17 3424   3.569   0.638   5.442 -0.2026 -0.1257 -0.4888
   31CHL1   H17 3425   3.679   0.632   5.436 -0.3164 -2.7383 -0.8760
   31CHL1   C13 3426   3.534   0.584   5.590 -0.2248 -0.8129  0.2646
   31CHL1   C18 3427   3.389   0.556   5.591  0.3335  0.2263  0.2161
   31CHL1  H18A 3428   3.358   0.538   5.696 -0.1247  1.2547  0.2739
   31CHL1  H18B 3429   3.323   0.639   5.557  0.5668  0.6845  0.8587
   31CHL1  H18C 3430   3.351   0.462   5.546 -1.8531  0.2199  1.8639
   31CHL1   C12 3431   3.624   0.470   5.652  0.0500 -0.0078  0.2779
   31CHL1  H12A 3432   3.594   0.380   5.595  1.5350 -1.4163  1.6187
   31CHL1  H12B 3433   3.731   0.498   5.641  0.9644 -2.8186  1.1734
   31CHL1   C11 3434   3.592   0.441   5.798  0.2745 -0.6975  0.0501
   31CHL1  H11A 3435   3.488   0.403   5.810 -0.9701  2.0573 -1.1338
   31CHL1  H11B 3436   3.657   0.362   5.841  0.9027  0.0928  0.5611
   31CHL1    C9 3437   3.599   0.571   5.877 -0.0788 -1.1293  0.0530
   31CHL1    H9 3438   3.704   0.609   5.873 -0.4933  0.0346 -0.0066
   31CHL1   C10 3439   3.576   0.564   6.027  0.4320  0.7151 -0.2978
   31CHL1   C19 3440   3.444   0.484   6.060 -0.3346  0.1767  0.6358
   31CHL1  H19A 3441   3.421   0.498   6.167 -0.5897 -0.9594  0.7446
   31CHL1  H19B 3442   3.358   0.507   5.994 -0.6606 -0.2151  0.9225
   31CHL1  H19C 3443   3.464   0.375   6.051  0.8024  0.4339 -0.3402
   31CHL1    C1 3444   3.695   0.491   6.100  0.3318  0.5823 -0.6248
   31CHL1   H1A 3445   3.709   0.390   6.056 -0.3894  0.1509  0.1031
   31CHL1   H1B 3446   3.791   0.543   6.080  0.6973  0.2124  0.1175
   31CHL1    C2 3447   3.683   0.480   6.254  0.2253  0.0382 -0.4259
   31CHL1   H2A 3448   3.766   0.418   6.296  0.1350  0.0883 -0.1717
   31CHL1   H2B 3449   3.585   0.434   6.279  0.3712  0.7028  1.5328
   31CHL1   C20 3450   3.516   0.571   5.318  0.4409 -0.6337 -0.2844
   31CHL1   H20 3451   3.407   0.566   5.333  0.4276  0.5700  0.1965
   31CHL1   C21 3452   3.564   0.426   5.312 -0.6404  0.3129 -0.3439
   31CHL1  H21A 3453   3.520   0.373   5.399  1.0273 -0.1289  0.2675
   31CHL1  H21B 3454   3.675   0.432   5.315 -0.6234 -0.1763 -0.0825
   31CHL1  H21C 3455   3.528   0.374   5.221  0.0464  0.8792 -0.9519
   31CHL1   C22 3456   3.557   0.642   5.190 -0.2472 -0.3787  0.0292
   31CHL1  H22A 3457   3.521   0.747   5.185  0.8130 -0.0447 -1.2020
   31CHL1  H22B 3458   3.667   0.650   5.203 -0.3938  0.4215  0.9146
   31CHL1   C23 3459   3.527   0.578   5.058 -0.1079  0.0131 -0.1529
   31CHL1  H23A 3460   3.583   0.641   4.985 -0.2175  2.2902  1.6100
   31CHL1  H23B 3461   3.579   0.481   5.045  0.3994 -0.1056  2.3858
   31CHL1   C24 3462   3.377   0.576   5.016  0.4327  0.5863  0.5321
   31CHL1  H24A 3463   3.319   0.529   5.097  1.1735 -0.8172  0.2770
   31CHL1  H24B 3464   3.357   0.685   5.001 -0.1279  0.5417  0.9439
   31CHL1   C25 3465   3.361   0.510   4.876  0.4013 -0.8632  0.7542
   31CHL1   H25 3466   3.439   0.431   4.869  0.4075 -0.7641 -0.5716
   31CHL1   C26 3467   3.227   0.459   4.836 -0.4177 -0.4869 -0.1703
   31CHL1  H26A 3468   3.157   0.545   4.846 -2.6399 -2.3272  1.0091
   31CHL1  H26B 3469   3.238   0.425   4.730  0.1210  0.6826 -0.5044
   31CHL1  H26C 3470   3.187   0.383   4.907 -1.0493 -0.7383 -0.7813
   31CHL1   C27 3471   3.407   0.626   4.776 -0.3419 -0.4973 -1.2048
   31CHL1  H27A 3472   3.402   0.584   4.673  1.4762 -0.3870 -1.3720
   31CHL1  H27B 3473   3.339   0.713   4.784 -0.5383 -0.7618  0.3249
   31CHL1  H27C 3474   3.511   0.660   4.795 -1.0122  0.5884  0.7611
   32CHL1    C3 3475   4.357   5.673   6.318 -0.7986 -0.1954 -0.3457
   32CHL1    H3 3476   4.360   5.563   6.301  2.9151 -0.7048  2.5071
   32CHL1    O3 3477   4.354   5.690   6.458  0.4660  0.0195 -0.6178
   32CHL1   H3' 3478   4.438   5.731   6.478  1.0825 -1.4051 -0.1429
   32CHL1    C4 3479   4.488   5.729   6.270  0.0029 -0.3986 -1.0450
   32CHL1   H4A 3480   4.494   5.832   6.311 -0.0267 -0.8512  0.1279
   32CHL1   H4B 3481   4.576   5.679   6.316 -0.8913  0.1951  1.4899
   32CHL1    C5 3482   4.493   5.750   6.121 -0.5486  0.0286  0.0473
   32CHL1    C6 3483   4.602   5.690   6.049  0.1660 -0.1306  0.2558
   32CHL1    H6 3484   4.693   5.653   6.098  1.3331  1.4331 -0.6178
   32CHL1    C7 3485   4.599   5.705   5.895 -0.1118  0.0832 -0.3358
   32CHL1   H7A 3486   4.707   5.726   5.879  0.4388 -0.8834  1.7692
   32CHL1   H7B 3487   4.568   5.609   5.848  0.7162 -1.0066  1.2556
   32CHL1    C8 3488   4.507   5.810   5.831 -0.5247 -0.6784 -0.2027
   32CHL1    H8 3489   4.561   5.905   5.851 -0.7197 -0.3533 -1.1753
   32CHL1   C14 3490   4.488   5.790   5.674  0.3652  0.6088 -0.4353
   32CHL1   H14 3491   4.426   5.698   5.678 -0.3572  1.1263  1.3076
   32CHL1   C15 3492   4.602   5.764   5.579  0.7549 -0.4907  0.6172
   32CHL1  H15A 3493   4.680   5.843   5.582  0.8035 -0.4127 -1.4320
   32CHL1  H15B 3494   4.648   5.667   5.608 -3.4141 -2.1499  2.4728
   32CHL1   C16 3495   4.539   5.780   5.436 -0.1217 -0.3929  0.3124
   32CHL1  H16A 3496   4.612   5.834   5.372 -0.6656  0.0883  0.0884
   32CHL1  H16B 3497   4.519   5.678   5.395 -1.0997 -0.7463  1.5856
   32CHL1   C17 3498   4.405   5.858   5.458  0.5975 -0.4051  0.9521
   32CHL1   H17 3499   4.326   5.780   5.451 -0.2073  0.4173  0.5709
   32CHL1   C13 3500   4.398   5.894   5.607 -0.1705 -0.3224  0.0652
   32CHL1   C18 3501   4.457   6.037   5.634 -0.5351  0.1240 -0.2048
   32CHL1  H18A 3502   4.387   6.119   5.605 -1.7803 -1.0340 -0.5464
   32CHL1  H18B 3503   4.494   6.053   5.737 -0.2864  0.8694 -0.4005
   32CHL1  H18C 3504   4.541   6.061   5.565 -1.0033  1.4692 -0.3476
   32CHL1   C12 3505   4.258   5.886   5.673  0.6229  0.0328 -0.0362
   32CHL1  H12A 3506   4.193   5.968   5.637  0.0241  0.7592  2.5172
   32CHL1  H12B 3507   4.214   5.785   5.658  1.5153 -0.5067  0.8306
   32CHL1   C11 3508   4.269   5.902   5.835 -0.0288  0.4394 -0.8323
   32CHL1  H11A 3509   4.287   6.009   5.858  1.0252  0.6346 -2.4170
   32CHL1  H11B 3510   4.170   5.868   5.870  0.2786 -0.4089 -0.7667
   32CHL1    C9 3511   4.371   5.806   5.900  0.3286  0.8487  0.0520
   32CHL1    H9 3512   4.333   5.704   5.878  0.5892  1.0299 -1.3136
   32CHL1   C10 3513   4.375   5.817   6.055  0.0345 -0.2312 -0.6768
   32CHL1   C19 3514   4.392   5.968   6.090 -0.0205 -0.0739  0.6936
   32CHL1  H19A 3515   4.301   6.029   6.073 -0.2801 -0.4753  0.6026
   32CHL1  H19B 3516   4.428   5.985   6.194 -1.7942 -0.8481  1.4788
   32CHL1  H19C 3517   4.467   6.016   6.024  1.0122  0.5018  2.2208
   32CHL1    C1 3518   4.242   5.758   6.113  0.2300  0.4464  0.2378
   32CHL1   H1A 3519   4.160   5.827   6.083  0.1824  1.0383  1.6276
   32CHL1   H1B 3520   4.228   5.657   6.068 -1.9725 -0.2435  2.2556
   32CHL1    C2 3521   4.234   5.750   6.266  0.0585 -0.0380  0.3932
   32CHL1   H2A 3522   4.132   5.710   6.280  0.5282 -3.1028 -3.2488
   32CHL1   H2B 3523   4.243   5.849   6.316 -1.9604  0.7224 -0.6527
   32CHL1   C20 3524   4.374   5.966   5.340  0.4022 -0.1180  0.2108
   32CHL1   H20 3525   4.449   6.047   5.349  1.2280 -0.9322  0.9310
   32CHL1   C21 3526   4.237   6.039   5.360  0.6577 -0.2252 -0.1683
   32CHL1  H21A 3527   4.228   6.131   5.300  0.2712  0.7037  1.2576
   32CHL1  H21B 3528   4.233   6.073   5.466  2.7080 -1.5226  0.4102
   32CHL1  H21C 3529   4.155   5.966   5.341  0.0551  0.4649 -0.2237
   32CHL1   C22 3530   4.395   5.922   5.188 -0.5608  1.0200 -0.4016
   32CHL1  H22A 3531   4.498   5.885   5.171 -0.3567  1.2978  0.1962
   32CHL1  H22B 3532   4.325   5.838   5.166  0.0981  0.5849 -0.8743
   32CHL1   C23 3533   4.358   6.030   5.086 -0.1690 -0.4446 -0.7441
   32CHL1  H23A 3534   4.247   6.044   5.087 -0.1564 -0.3289  1.1015
   32CHL1  H23B 3535   4.400   6.125   5.126 -0.4746 -0.1730 -1.0584
   32CHL1   C24 3536   4.410   6.003   4.950  0.2767  0.2138  0.4709
   32CHL1  H24A 3537   4.520   6.011   4.964  0.1564  0.1042  1.5786
   32CHL1  H24B 3538   4.393   5.900   4.912  1.7724 -0.3245  1.1852
   32CHL1   C25 3539   4.360   6.103   4.839  0.4254  0.1170  0.1989
   32CHL1   H25 3540   4.347   6.201   4.891  1.2856  1.4970 -2.0682
   32CHL1   C26 3541   4.470   6.128   4.731 -0.1221 -0.1461 -0.1927
   32CHL1  H26A 3542   4.491   6.036   4.673  2.2163  1.2726 -1.7544
   32CHL1  H26B 3543   4.436   6.208   4.661 -0.8643 -1.0492 -0.8897
   32CHL1  H26C 3544   4.563   6.165   4.779 -2.0808 -0.3488  4.2978
   32CHL1   C27 3545   4.233   6.050   4.776  0.1463  0.2155 -0.4017
   32CHL1  H27A 3546   4.263   5.958   4.721 -1.0763 -0.5782  0.2299
   32CHL1  H27B 3547   4.159   6.030   4.856  2.1932 -2.3735  0.9884
   32CHL1  H27C 3548   4.198   6.117   4.694  2.0790  0.7082 -0.8924
   33CHL1    C3 3549   2.597   5.566   5.912 -0.3418 -0.3615 -0.3899
   33CHL1    H3 3550   2.601   5.455   5.915  1.2867 -0.3156  0.5055
   33CHL1    O3 3551   2.569   5.605   6.043  0.4397 -0.2889 -0.2700
   33CHL1   H3' 3552   2.622   5.552   6.103  0.2799 -0.0334  0.1038
   33CHL1    C4 3553   2.734   5.629   5.877  0.8804  0.0371  0.1141
   33CHL1   H4A 3554   2.731   5.734   5.915 -0.3963  0.7793 -1.8556
   33CHL1   H4B 3555   2.812   5.585   5.943  0.1513  1.2649  1.8637
   33CHL1    C5 3556   2.769   5.627   5.726 -0.5522  0.8758 -0.9718
   33CHL1    C6 3557   2.886   5.572   5.693  0.3812 -0.4254  0.0916
   33CHL1    H6 3558   2.959   5.534   5.766 -1.1596  0.0969  2.0192
   33CHL1    C7 3559   2.930   5.569   5.552  0.4926  0.1660 -0.2101
   33CHL1   H7A 3560   3.039   5.592   5.546  1.5488 -3.9713 -0.2265
   33CHL1   H7B 3561   2.927   5.461   5.524  2.6092 -0.2443  0.9050
   33CHL1    C8 3562   2.840   5.644   5.447  1.0190  0.0926 -0.6844
   33CHL1    H8 3563   2.873   5.750   5.440  1.1096 -0.0022 -1.9449
   33CHL1   C14 3564   2.848   5.587   5.299 -0.1319  0.2077 -0.3286
   33CHL1   H14 3565   2.813   5.481   5.305  0.6855 -0.0084  1.0238
   33CHL1   C15 3566   2.987   5.587   5.241 -0.1981 -0.1572 -0.1209
   33CHL1  H15A 3567   3.049   5.674   5.274  0.0307 -0.9880  1.7544
   33CHL1  H15B 3568   3.035   5.497   5.285 -2.3272 -0.4767  1.7461
   33CHL1   C16 3569   2.962   5.578   5.089  0.3178  0.5905 -0.0682
   33CHL1  H16A 3570   3.021   5.662   5.045  0.6185 -0.9237 -2.7812
   33CHL1  H16B 3571   2.988   5.480   5.043 -0.5347  0.4375 -0.2546
   33CHL1   C17 3572   2.805   5.577   5.069  0.0373 -0.0093 -0.8808
   33CHL1   H17 3573   2.783   5.470   5.084  0.1003  0.0696 -0.2158
   33CHL1   C13 3574   2.758   5.655   5.193  0.1040  0.0867  0.0608
   33CHL1   C18 3575   2.795   5.802   5.185  0.7582 -0.0004  0.0062
   33CHL1  H18A 3576   2.752   5.857   5.099 -0.7203  1.7656  1.7751
   33CHL1  H18B 3577   2.768   5.855   5.279  0.6089  2.6174 -1.3971
   33CHL1  H18C 3578   2.902   5.828   5.169  0.4704  0.9752 -0.4436
   33CHL1   C12 3579   2.607   5.626   5.230  0.0478  0.1840 -0.5805
   33CHL1  H12A 3580   2.544   5.690   5.165 -0.1952  0.8418  0.2811
   33CHL1  H12B 3581   2.577   5.519   5.222 -1.5052  0.5700 -0.3109
   33CHL1   C11 3582   2.584   5.677   5.377  0.0849 -0.0353  0.2052
   33CHL1  H11A 3583   2.583   5.788   5.385  0.9092 -0.1141  1.9168
   33CHL1  H11B 3584   2.484   5.643   5.410  0.4257  0.8447  2.3126
   33CHL1    C9 3585   2.691   5.628   5.484 -0.3949 -0.1354  0.0103
   33CHL1    H9 3586   2.694   5.517   5.487 -1.7942 -0.1604  1.3153
   33CHL1   C10 3587   2.654   5.660   5.633 -0.2837 -0.8265  0.0470
   33CHL1   C19 3588   2.649   5.814   5.637 -0.1431  0.0102  0.6905
   33CHL1  H19A 3589   2.558   5.861   5.593  1.3804  2.6186  0.1399
   33CHL1  H19B 3590   2.657   5.843   5.744 -1.7289 -1.4223  1.2541
   33CHL1  H19C 3591   2.725   5.852   5.566 -1.2022 -1.6545 -1.4733
   33CHL1    C1 3592   2.523   5.592   5.679 -0.1066  0.9495  0.0185
   33CHL1   H1A 3593   2.441   5.621   5.610  1.2499  0.4754 -1.8890
   33CHL1   H1B 3594   2.545   5.486   5.656  2.1746  1.1168  1.1052
   33CHL1    C2 3595   2.486   5.617   5.823  0.1355 -0.0406 -0.4038
   33CHL1   H2A 3596   2.396   5.560   5.853 -1.2709 -0.0501 -4.1428
   33CHL1   H2B 3597   2.463   5.726   5.824 -1.0249 -0.2773  0.3356
   33CHL1   C20 3598   2.756   5.623   4.926  0.1126  0.3038  0.5713
   33CHL1   H20 3599   2.647   5.639   4.935 -0.0655 -0.7814  0.5586
   33CHL1   C21 3600   2.764   5.496   4.840  0.0650  0.8260 -0.1396
   33CHL1  H21A 3601   2.707   5.418   4.895  2.0962 -0.6692 -0.0388
   33CHL1  H21B 3602   2.871   5.469   4.830  0.2843  0.8207  1.8082
   33CHL1  H21C 3603   2.725   5.494   4.736  2.4983 -3.0602 -1.1937
   33CHL1   C22 3604   2.831   5.731   4.850  0.0402  0.1694  0.3001
   33CHL1  H22A 3605   2.885   5.789   4.927  0.9613 -0.4427  0.1279
   33CHL1  H22B 3606   2.911   5.691   4.784  1.3200  0.4695  1.6116
   33CHL1   C23 3607   2.729   5.827   4.779  0.4167 -0.1845 -0.2975
   33CHL1  H23A 3608   2.653   5.864   4.851 -0.2813 -0.9618 -0.6127
   33CHL1  H23B 3609   2.788   5.912   4.738  2.1187 -1.1444  0.0794
   33CHL1   C24 3610   2.649   5.766   4.663  0.2298 -0.2093 -0.3187
   33CHL1  H24A 3611   2.731   5.733   4.596  1.6965  2.3275  0.1090
   33CHL1  H24B 3612   2.591   5.675   4.690  2.6541 -1.4302  1.1929
   33CHL1   C25 3613   2.555   5.864   4.602 -0.3332 -0.5353 -0.3996
   33CHL1   H25 3614   2.609   5.956   4.570 -0.4240 -0.3837 -0.1126
   33CHL1   C26 3615   2.485   5.794   4.483  0.2685 -0.8432 -0.1118
   33CHL1  H26A 3616   2.560   5.749   4.414  0.5253  0.9271 -1.0788
   33CHL1  H26B 3617   2.416   5.719   4.525  0.8890 -0.6743  1.2980
   33CHL1  H26C 3618   2.418   5.859   4.422  1.8905  2.3578  1.2538
   33CHL1   C27 3619   2.447   5.918   4.696  0.1307  0.0932 -0.2682
   33CHL1  H27A 3620   2.397   5.837   4.754  0.3365  0.2300  0.1086
   33CHL1  H27B 3621   2.498   5.987   4.768 -1.6796  1.5744 -0.3389
   33CHL1  H27C 3622   2.373   5.978   4.639 -0.2644  0.3840  0.5223
   34CHL1    C3 3623   3.809   1.885   6.166  0.1685 -0.7427  0.5646
   34CHL1    H3 3624   3.719   1.838   6.121 -1.5984  4.4306 -2.0658
   34CHL1    O3 3625   3.792   1.870   6.304 -0.0438 -0.5075  0.4909
   34CHL1   H3' 3626   3.850   1.930   6.353 -0.6762  1.1949 -0.7466
   34CHL1    C4 3627   3.942   1.829   6.122 -0.2316  0.5490  1.0236
   34CHL1   H4A 3628   4.018   1.889   6.175  0.7582 -0.6785  1.0231
   34CHL1   H4B 3629   3.944   1.723   6.154  1.2705  0.1818 -0.1703
   34CHL1    C5 3630   3.942   1.832   5.966 -0.9601 -0.1860 -0.0925
   34CHL1    C6 3631   3.934   1.722   5.885 -0.4665  0.0754  0.2018
   34CHL1    H6 3632   3.941   1.624   5.935  0.2617  1.5337  3.1386
   34CHL1    C7 3633   3.938   1.724   5.733  0.0928 -0.2886 -0.9250
   34CHL1   H7A 3634   4.005   1.645   5.693  1.0320 -0.1435  0.3020
   34CHL1   H7B 3635   3.839   1.708   5.683 -1.1196  3.0751  0.1289
   34CHL1    C8 3636   3.992   1.858   5.685  0.0008  0.4395  0.1738
   34CHL1    H8 3637   4.102   1.869   5.693  0.1707  0.9444 -2.0307
   34CHL1   C14 3638   3.962   1.874   5.536  0.5616  0.3354  0.5437
   34CHL1   H14 3639   3.853   1.859   5.523  0.5727  0.8051 -0.1785
   34CHL1   C15 3640   4.014   1.760   5.449 -0.2795  0.4737 -0.5680
   34CHL1  H15A 3641   4.117   1.732   5.479 -1.0779 -1.6220  0.4595
   34CHL1  H15B 3642   3.951   1.670   5.468 -0.0309  0.8225  2.4397
   34CHL1   C16 3643   3.993   1.812   5.311  0.6373 -0.7091 -0.3075
   34CHL1  H16A 3644   4.090   1.808   5.257 -0.3842 -0.1594 -2.3063
   34CHL1  H16B 3645   3.929   1.739   5.257  0.3826 -2.5219  2.2351
   34CHL1   C17 3646   3.940   1.962   5.322 -0.0844 -0.0144  0.3668
   34CHL1   H17 3647   3.830   1.967   5.334 -0.2102  0.4017 -0.8797
   34CHL1   C13 3648   3.990   2.005   5.463  0.1922  0.1203  0.4094
   34CHL1   C18 3649   4.145   2.022   5.463  0.0964 -0.3749 -0.3862
   34CHL1  H18A 3650   4.188   2.117   5.424  0.5194 -0.2874  0.2860
   34CHL1  H18B 3651   4.181   2.025   5.568 -0.9369  3.3111  0.0131
   34CHL1  H18C 3652   4.194   1.932   5.421 -0.6279 -1.5061  1.1155
   34CHL1   C12 3653   3.908   2.117   5.529  0.1153 -0.4810 -0.6004
   34CHL1  H12A 3654   3.942   2.217   5.494  0.9239  0.3538  2.2310
   34CHL1  H12B 3655   3.801   2.090   5.516 -0.0880 -0.0068 -0.0119
   34CHL1   C11 3656   3.952   2.112   5.680  0.2374  0.6511  0.5159
   34CHL1  H11A 3657   4.059   2.142   5.689 -0.0579  2.3426 -0.9558
   34CHL1  H11B 3658   3.893   2.195   5.725 -0.2567  1.3847 -1.4110
   34CHL1    C9 3659   3.914   1.975   5.754 -0.5907 -1.1125  1.2328
   34CHL1    H9 3660   3.806   1.957   5.733 -0.5986 -1.3022  1.4369
   34CHL1   C10 3661   3.933   1.976   5.909 -0.1896 -0.2251  0.4854
   34CHL1   C19 3662   4.062   2.051   5.951  0.4143 -0.6297  0.5797
   34CHL1  H19A 3663   4.085   2.135   5.882 -0.3156 -0.1838  0.8661
   34CHL1  H19B 3664   4.052   2.095   6.053  0.3080  2.3542 -0.6309
   34CHL1  H19C 3665   4.146   1.979   5.938 -0.7217 -2.2705  1.8468
   34CHL1    C1 3666   3.814   2.047   5.976  0.1730  0.0490  0.2576
   34CHL1   H1A 3667   3.828   2.157   5.964  1.5177 -0.1553 -0.2897
   34CHL1   H1B 3668   3.725   2.000   5.929  1.1105  0.3503 -1.9721
   34CHL1    C2 3669   3.800   2.028   6.125 -0.3976  0.4016 -0.0265
   34CHL1   H2A 3670   3.700   2.065   6.154 -0.7301 -0.8281  0.4163
   34CHL1   H2B 3671   3.879   2.083   6.181  0.5031 -0.0953 -0.7730
   34CHL1   C20 3672   3.975   2.052   5.197 -0.2011 -0.5476 -0.0010
   34CHL1   H20 3673   4.083   2.079   5.204 -0.4346  0.8439 -1.3274
   34CHL1   C21 3674   3.889   2.180   5.185 -0.0761  0.0210  0.2856
   34CHL1  H21A 3675   3.881   2.232   5.284 -2.1850 -1.2843  0.8568
   34CHL1  H21B 3676   3.781   2.155   5.178 -0.1233 -0.2050  1.5784
   34CHL1  H21C 3677   3.927   2.254   5.111  3.2010 -2.8889 -1.2152
   34CHL1   C22 3678   3.966   1.981   5.062  0.3620  0.1135  0.0566
   34CHL1  H22A 3679   4.028   1.889   5.061  0.9059  0.4730 -0.9637
   34CHL1  H22B 3680   3.862   1.946   5.045  0.9345 -1.8929  0.3973
   34CHL1   C23 3681   4.010   2.059   4.935 -0.0094  0.2332 -0.3401
   34CHL1  H23A 3682   3.983   1.998   4.846 -0.2218 -0.6824  0.3338
   34CHL1  H23B 3683   3.949   2.152   4.929 -0.6111  0.0117  1.7588
   34CHL1   C24 3684   4.158   2.110   4.945  0.2970 -0.0696  0.2232
   34CHL1  H24A 3685   4.150   2.195   5.016 -1.1852  1.8589 -2.1121
   34CHL1  H24B 3686   4.216   2.028   4.995  0.7136 -0.7281 -1.2994
   34CHL1   C25 3687   4.225   2.154   4.810 -0.5154 -0.3344  0.1313
   34CHL1   H25 3688   4.311   2.218   4.841 -0.8105 -0.0303  0.3350
   34CHL1   C26 3689   4.267   2.038   4.723  0.4021  0.8148 -0.3742
   34CHL1  H26A 3690   4.180   1.976   4.691  0.6566  0.4237 -0.3181
   34CHL1  H26B 3691   4.318   2.068   4.630 -0.6694 -1.2893 -1.7120
   34CHL1  H26C 3692   4.329   1.968   4.783 -0.0330  1.4556  0.8610
   34CHL1   C27 3693   4.142   2.258   4.736 -0.2860  0.5421  0.5978
   34CHL1  H27A 3694   4.207   2.301   4.657 -0.8965  1.3485  0.5304
   34CHL1  H27B 3695   4.060   2.210   4.679  1.8253 -0.6441 -1.6216
   34CHL1  H27C 3696   4.116   2.338   4.809  0.1086 -0.1035  1.4601
   35CHL1    C3 3697   5.816   1.887   6.039  0.0184 -0.6545  0.5450
   35CHL1    H3 3698   5.711   1.852   6.029 -0.6199  0.9822  1.3151
   35CHL1    O3 3699   5.831   1.898   6.176 -0.0321 -0.5385 -0.7405
   35CHL1   H3' 3700   5.909   1.953   6.185  1.4333 -2.7141  0.8571
   35CHL1    C4 3701   5.922   1.791   5.965 -0.6515 -0.1413 -0.2397
   35CHL1   H4A 3702   6.026   1.826   5.983 -0.8053 -1.1242  3.5700
   35CHL1   H4B 3703   5.917   1.687   6.004 -0.7103 -0.1566 -0.2902
   35CHL1    C5 3704   5.900   1.784   5.811 -0.1994 -0.5625 -0.8015
   35CHL1    C6 3705   5.887   1.660   5.753  0.1125 -0.2566 -0.2366
   35CHL1    H6 3706   5.909   1.567   5.807  0.0748 -0.8997 -1.2977
   35CHL1    C7 3707   5.872   1.641   5.605  0.0192 -1.1620  0.6482
   35CHL1   H7A 3708   5.942   1.565   5.564  0.8135  0.2226 -0.6633
   35CHL1   H7B 3709   5.768   1.605   5.590 -0.2937 -0.1155  0.2285
   35CHL1    C8 3710   5.888   1.768   5.517  0.1780  0.1953 -0.4008
   35CHL1    H8 3711   5.994   1.795   5.495  0.3186 -0.8427 -1.0434
   35CHL1   C14 3712   5.826   1.753   5.374  0.1159  0.3481 -0.1308
   35CHL1   H14 3713   5.718   1.748   5.397  0.0165  3.6269  0.6383
   35CHL1   C15 3714   5.862   1.635   5.276  0.2391 -0.1913 -0.3652
   35CHL1  H15A 3715   5.971   1.623   5.262  0.4212  0.4295  0.4462
   35CHL1  H15B 3716   5.821   1.542   5.321  2.3720 -0.9284  0.1617
   35CHL1   C16 3717   5.793   1.679   5.144  0.0008  0.0609 -0.8808
   35CHL1  H16A 3718   5.872   1.661   5.067  0.2921 -3.4498  0.0706
   35CHL1  H16B 3719   5.707   1.614   5.117 -1.0771  1.1142 -0.0765
   35CHL1   C17 3720   5.758   1.835   5.155 -0.2632 -0.5020  0.4755
   35CHL1   H17 3721   5.652   1.827   5.185 -0.2339  0.5193  0.8763
   35CHL1   C13 3722   5.836   1.876   5.283  0.9442 -0.0824  0.2775
   35CHL1   C18 3723   5.980   1.914   5.250 -0.4706 -0.2112 -0.5578
   35CHL1  H18A 3724   5.984   2.014   5.204  0.6182  1.5300  2.9597
   35CHL1  H18B 3725   6.036   1.917   5.346 -1.0534 -1.1042 -0.1743
   35CHL1  H18C 3726   6.030   1.834   5.191 -1.5003 -1.9892  0.8395
   35CHL1   C12 3727   5.770   1.996   5.357  0.0949 -0.9638  1.0191
   35CHL1  H12A 3728   5.801   2.091   5.309  0.6830 -0.0668  3.0281
   35CHL1  H12B 3729   5.659   1.989   5.363 -0.4517  2.2724 -2.0110
   35CHL1   C11 3730   5.824   2.021   5.502  0.2618  0.4431 -0.6326
   35CHL1  H11A 3731   5.926   2.067   5.495  1.2211 -1.4174  0.3611
   35CHL1  H11B 3732   5.759   2.095   5.552  0.5932  0.7073 -0.5873
   35CHL1    C9 3733   5.823   1.890   5.593 -0.5542 -0.5747  0.2674
   35CHL1    H9 3734   5.713   1.873   5.600 -0.9558  2.0212  1.8288
   35CHL1   C10 3735   5.878   1.914   5.735 -0.0469  0.2609  0.2947
   35CHL1   C19 3736   6.012   1.992   5.730 -0.3960  0.1883 -0.0036
   35CHL1  H19A 3737   6.051   1.992   5.834 -2.8453  1.3222  0.9918
   35CHL1  H19B 3738   6.088   1.949   5.660  2.4099 -0.4349  3.1696
   35CHL1  H19C 3739   6.003   2.099   5.703 -1.0644  0.4001  0.9959
   35CHL1    C1 3740   5.779   2.000   5.816  0.7703 -0.1769 -0.3704
   35CHL1   H1A 3741   5.773   2.094   5.756  4.0228 -0.3119 -1.1401
   35CHL1   H1B 3742   5.682   1.948   5.814  1.1349 -0.9145  0.3288
   35CHL1    C2 3743   5.817   2.023   5.968  0.5497  0.1657  0.9856
   35CHL1   H2A 3744   5.737   2.093   5.999 -2.0105 -0.7008 -3.0023
   35CHL1   H2B 3745   5.910   2.082   5.982  0.4005  0.4228  0.8880
   35CHL1   C20 3746   5.770   1.909   5.021  0.6163 -0.1450 -0.1333
   35CHL1   H20 3747   5.877   1.919   4.995  0.6668  0.3638  0.2570
   35CHL1   C21 3748   5.701   2.047   5.042  0.0645 -0.2845  0.2807
   35CHL1  H21A 3749   5.755   2.119   5.108 -1.6391  0.8391  0.4889
   35CHL1  H21B 3750   5.605   2.028   5.095  0.2076  2.3959  1.6903
   35CHL1  H21C 3751   5.681   2.104   4.949  1.0068 -0.2656  0.0711
   35CHL1   C22 3752   5.710   1.834   4.898 -0.5046 -0.0991 -0.2496
   35CHL1  H22A 3753   5.776   1.746   4.881  0.7867  0.7014  0.4974
   35CHL1  H22B 3754   5.607   1.800   4.920 -0.5454  0.3142  0.2168
   35CHL1   C23 3755   5.716   1.902   4.759 -0.0503 -0.0308  0.7427
   35CHL1  H23A 3756   5.679   2.005   4.770 -1.7303 -0.6783  1.4334
   35CHL1  H23B 3757   5.822   1.910   4.726 -0.5970  1.6258 -0.7112
   35CHL1   C24 3758   5.626   1.837   4.654 -0.1946  0.5977 -0.1476
   35CHL1  H24A 3759   5.637   1.727   4.667  0.1519  0.7449  0.9261
   35CHL1  H24B 3760   5.522   1.861   4.685  0.1090 -1.3021  2.8157
   35CHL1   C25 3761   5.649   1.886   4.510 -0.1091 -0.5030 -0.2584
   35CHL1   H25 3762   5.670   1.994   4.527  1.1562 -0.9631  1.4085
   35CHL1   C26 3763   5.776   1.823   4.449 -0.2100  0.0599 -0.0928
   35CHL1  H26A 3764   5.787   1.857   4.344 -0.1776  1.2591  0.2733
   35CHL1  H26B 3765   5.868   1.850   4.504 -0.7387 -0.7158  1.2072
   35CHL1  H26C 3766   5.763   1.713   4.446  0.5381 -0.0293 -0.1365
   35CHL1   C27 3767   5.532   1.869   4.408 -1.0928 -0.1169  0.0005
   35CHL1  H27A 3768   5.440   1.907   4.457 -1.5452 -0.7237 -0.3747
   35CHL1  H27B 3769   5.566   1.927   4.319  1.9823 -1.8135 -0.0740
   35CHL1  H27C 3770   5.535   1.764   4.372 -0.0046  0.0139 -0.3192
   36CHL1    C3 3771   2.602   6.256   6.288  0.0512 -0.7281 -0.6537
   36CHL1    H3 3772   2.496   6.285   6.268 -0.5178 -1.3088  1.2981
   36CHL1    O3 3773   2.619   6.216   6.423 -0.0711  0.2520 -0.2850
   36CHL1   H3' 3774   2.712   6.218   6.447 -0.0158 -1.5164 -0.1652
   36CHL1    C4 3775   2.654   6.150   6.189  0.5651  0.4278  0.0340
   36CHL1   H4A 3776   2.745   6.103   6.231 -0.3494 -0.9271  0.5619
   36CHL1   H4B 3777   2.584   6.064   6.193 -0.6553  1.4357  1.1895
   36CHL1    C5 3778   2.667   6.203   6.047 -0.5092  0.3249 -0.4817
   36CHL1    C6 3779   2.610   6.131   5.948 -0.0048 -0.2521  0.0551
   36CHL1    H6 3780   2.559   6.038   5.975 -1.4829  0.2517 -0.8898
   36CHL1    C7 3781   2.606   6.173   5.806  0.3516  0.1087 -0.5612
   36CHL1   H7A 3782   2.613   6.088   5.735 -0.2659  1.3625 -2.1878
   36CHL1   H7B 3783   2.507   6.220   5.792  0.2633  0.9397  2.3593
   36CHL1    C8 3784   2.712   6.283   5.774  0.2252 -0.0564 -0.3642
   36CHL1    H8 3785   2.812   6.235   5.774  1.8829  3.0574 -1.8750
   36CHL1   C14 3786   2.686   6.342   5.639  0.0858  0.9069  0.1624
   36CHL1   H14 3787   2.586   6.390   5.646 -0.3698  0.7418 -3.2084
   36CHL1   C15 3788   2.689   6.245   5.520  0.0004  0.0903 -0.4453
   36CHL1  H15A 3789   2.784   6.189   5.517 -0.2314 -0.2649 -1.4907
   36CHL1  H15B 3790   2.605   6.172   5.525  0.0347  0.0994  0.4567
   36CHL1   C16 3791   2.693   6.338   5.397  0.4538 -0.7679 -0.0105
   36CHL1  H16A 3792   2.765   6.304   5.319  1.7334  1.7913 -0.0478
   36CHL1  H16B 3793   2.593   6.328   5.350  0.6876 -0.8602 -0.4926
   36CHL1   C17 3794   2.725   6.481   5.446 -0.2544  0.4064 -0.7317
   36CHL1   H17 3795   2.629   6.537   5.456 -0.6423 -0.0844 -1.5716
   36CHL1   C13 3796   2.772   6.456   5.595 -0.9700  0.4951  1.0079
   36CHL1   C18 3797   2.926   6.414   5.586 -0.3862 -0.4850  0.6903
   36CHL1  H18A 3798   2.990   6.496   5.546 -1.4828  0.8580  1.6067
   36CHL1  H18B 3799   2.959   6.381   5.687 -1.3900  0.9649  1.5211
   36CHL1  H18C 3800   2.951   6.328   5.520 -1.2379 -0.0168 -0.2667
   36CHL1   C12 3801   2.741   6.564   5.698 -0.8090 -1.0953 -0.1895
   36CHL1  H12A 3802   2.796   6.657   5.673 -0.5755 -0.7857  1.3288
   36CHL1  H12B 3803   2.636   6.599   5.692  0.1609  2.1638  0.2489
   36CHL1   C11 3804   2.778   6.521   5.842 -0.0565  0.3537  0.0073
   36CHL1  H11A 3805   2.887   6.499   5.853  0.5362  0.9328 -3.5253
   36CHL1  H11B 3806   2.756   6.590   5.926 -0.4113  0.7329 -0.3891
   36CHL1    C9 3807   2.707   6.393   5.878  0.6411 -0.1272 -0.0831
   36CHL1    H9 3808   2.603   6.431   5.890  1.4861  2.0980  0.8312
   36CHL1   C10 3809   2.733   6.341   6.024 -0.0840 -0.0748 -0.3990
   36CHL1   C19 3810   2.894   6.323   6.040  0.3264 -0.1562 -0.2928
   36CHL1  H19A 3811   2.915   6.261   6.130 -2.3458  0.3752  0.7755
   36CHL1  H19B 3812   2.939   6.283   5.946  1.0048  0.4060 -0.2185
   36CHL1  H19C 3813   2.961   6.408   6.063 -0.8448  0.7757 -0.2551
   36CHL1    C1 3814   2.669   6.440   6.126 -0.6044  0.3083 -0.7483
   36CHL1   H1A 3815   2.721   6.538   6.117 -0.3460  0.0101 -3.5075
   36CHL1   H1B 3816   2.560   6.445   6.104 -0.6922 -3.3258 -1.7325
   36CHL1    C2 3817   2.683   6.389   6.272 -0.5031  0.1091  0.0666
   36CHL1   H2A 3818   2.646   6.468   6.341 -2.8767 -0.0584 -0.9172
   36CHL1   H2B 3819   2.789   6.369   6.298 -1.1326 -1.7327  1.4378
   36CHL1   C20 3820   2.812   6.551   5.338  0.8373  0.0859 -0.2272
   36CHL1   H20 3821   2.903   6.491   5.320 -1.0070 -2.4539 -1.6833
   36CHL1   C21 3822   2.853   6.693   5.379  0.2486  0.5149 -0.8370
   36CHL1  H21A 3823   2.765   6.757   5.355  0.0342  0.9946  1.0432
   36CHL1  H21B 3824   2.928   6.734   5.308 -0.7605  0.9777 -1.6596
   36CHL1  H21C 3825   2.876   6.705   5.487  1.1552 -1.0482 -0.8271
   36CHL1   C22 3826   2.745   6.557   5.204  0.2321  0.3994 -0.0209
   36CHL1  H22A 3827   2.715   6.456   5.171  1.3567  0.2832 -0.7428
   36CHL1  H22B 3828   2.648   6.611   5.204 -0.4642 -0.8246 -0.6802
   36CHL1   C23 3829   2.825   6.608   5.087  0.7774 -0.1568  0.1628
   36CHL1  H23A 3830   2.825   6.719   5.079  0.8209  0.0419  2.3926
   36CHL1  H23B 3831   2.930   6.574   5.096 -0.1173 -3.6491 -0.8151
   36CHL1   C24 3832   2.784   6.555   4.947  0.1522  0.4708 -0.0537
   36CHL1  H24A 3833   2.791   6.444   4.942 -1.6273  0.2971  0.6717
   36CHL1  H24B 3834   2.676   6.579   4.941  0.0272  0.3528  1.4867
   36CHL1   C25 3835   2.871   6.634   4.843 -0.5185 -0.2797  0.5935
   36CHL1   H25 3836   2.852   6.742   4.864 -2.0540 -0.5779  0.8645
   36CHL1   C26 3837   3.017   6.609   4.856 -0.2895 -0.1488 -0.4360
   36CHL1  H26A 3838   3.067   6.640   4.950 -0.2888 -1.2177 -0.0727
   36CHL1  H26B 3839   3.036   6.500   4.847  2.0534  0.2393 -0.9159
   36CHL1  H26C 3840   3.070   6.657   4.771  1.5055 -2.7314 -0.8926
   36CHL1   C27 3841   2.829   6.592   4.697  0.0020  0.0878 -0.1141
   36CHL1  H27A 3842   2.852   6.485   4.675  1.5545  0.2546  0.5912
   36CHL1  H27B 3843   2.726   6.621   4.666 -0.0873 -0.7698 -0.6675
   36CHL1  H27C 3844   2.893   6.640   4.621  3.1871 -0.7630  1.8508
   37CHL1    C3 3845   5.586   4.922   6.375  0.3295 -0.4030 -0.1439
   37CHL1    H3 3846   5.587   5.022   6.325  0.5325 -0.5011 -0.3361
   37CHL1    O3 3847   5.651   4.951   6.500 -0.0472  0.1390  0.4770
   37CHL1   H3' 3848   5.636   4.871   6.551 -1.0444  0.3243  0.4983
   37CHL1    C4 3849   5.440   4.882   6.403  0.4760  0.0747 -0.2324
   37CHL1   H4A 3850   5.427   4.784   6.454 -0.6639  0.3851  0.0924
   37CHL1   H4B 3851   5.376   4.951   6.461  2.0177  1.3916 -0.0524
   37CHL1    C5 3852   5.377   4.860   6.265 -0.6023 -0.0615  0.0092
   37CHL1    C6 3853   5.276   4.941   6.221  0.2193  0.4216  0.1828
   37CHL1    H6 3854   5.235   5.015   6.292  0.4263 -0.3703  1.1523
   37CHL1    C7 3855   5.210   4.922   6.088 -0.1539 -0.5251 -1.1523
   37CHL1   H7A 3856   5.101   4.929   6.108 -0.1714  0.7556 -1.6256
   37CHL1   H7B 3857   5.224   5.005   6.016 -0.0538 -0.9185 -1.5952
   37CHL1    C8 3858   5.242   4.787   6.014  0.2917 -0.7477 -0.2572
   37CHL1    H8 3859   5.190   4.707   6.072  1.2624  0.3348  2.2600
   37CHL1   C14 3860   5.202   4.808   5.868  0.6967 -0.2886 -1.0231
   37CHL1   H14 3861   5.271   4.882   5.821  0.8872 -0.3905 -0.9056
   37CHL1   C15 3862   5.060   4.846   5.831  0.7067 -0.1752  0.4909
   37CHL1  H15A 3863   4.995   4.775   5.888  2.1327 -1.7822  0.2043
   37CHL1  H15B 3864   5.032   4.948   5.865 -0.3751 -1.0799  2.5002
   37CHL1   C16 3865   5.041   4.825   5.685 -0.1742  0.2446  0.1711
   37CHL1  H16A 3866   4.940   4.783   5.662 -0.1659 -0.1404  0.8106
   37CHL1  H16B 3867   5.048   4.920   5.628  0.2700  1.7975  2.6741
   37CHL1   C17 3868   5.161   4.729   5.648 -0.3009  0.5391 -0.2491
   37CHL1   H17 3869   5.240   4.800   5.616 -0.9460  1.0777 -0.6742
   37CHL1   C13 3870   5.225   4.680   5.780  0.2671 -0.5529 -0.9372
   37CHL1   C18 3871   5.148   4.553   5.827  0.0023  0.2436 -0.0547
   37CHL1  H18A 3872   5.158   4.525   5.933 -3.4927 -0.4101  0.2241
   37CHL1  H18B 3873   5.039   4.566   5.811  0.2967  2.1208 -0.8414
   37CHL1  H18C 3874   5.179   4.470   5.761  1.8610  0.7094  0.1788
   37CHL1   C12 3875   5.374   4.654   5.782 -0.5727 -0.1096  0.0161
   37CHL1  H12A 3876   5.394   4.555   5.737 -1.4804 -0.1959 -0.2149
   37CHL1  H12B 3877   5.426   4.739   5.732 -0.3772 -0.4882 -0.4270
   37CHL1   C11 3878   5.431   4.655   5.924 -0.9313  0.1696 -0.3119
   37CHL1  H11A 3879   5.407   4.557   5.970  2.1388 -0.6902 -0.3459
   37CHL1  H11B 3880   5.542   4.660   5.920 -0.9091  0.0585  0.1514
   37CHL1    C9 3881   5.390   4.771   6.013  0.1942 -0.0568 -0.2696
   37CHL1    H9 3882   5.425   4.867   5.970 -0.2601  0.4875  0.5512
   37CHL1   C10 3883   5.446   4.764   6.163  0.1708 -0.2159 -0.0388
   37CHL1   C19 3884   5.402   4.623   6.228 -0.6028 -0.7606 -0.2778
   37CHL1  H19A 3885   5.438   4.626   6.333  0.0317  1.1837 -0.5116
   37CHL1  H19B 3886   5.291   4.616   6.236 -0.6969  1.2410  1.0360
   37CHL1  H19C 3887   5.445   4.535   6.176 -0.8561 -1.5382  0.7940
   37CHL1    C1 3888   5.599   4.791   6.165 -0.9636 -0.5307  0.1352
   37CHL1   H1A 3889   5.654   4.708   6.116 -0.3120 -1.0296  1.6335
   37CHL1   H1B 3890   5.609   4.888   6.112 -0.3834  0.3602  1.8032
   37CHL1    C2 3891   5.659   4.815   6.305 -0.3747 -0.2728  0.3899
   37CHL1   H2A 3892   5.767   4.841   6.296 -0.1658 -0.8072  1.2175
   37CHL1   H2B 3893   5.655   4.724   6.368 -0.2122 -0.7911 -0.3392
   37CHL1   C20 3894   5.125   4.634   5.533  0.8311  0.2060 -0.0083
   37CHL1   H20 3895   5.039   4.568   5.560  1.7042 -2.4175 -3.0052
   37CHL1   C21 3896   5.232   4.528   5.509 -0.0811 -0.6914  0.7375
   37CHL1  H21A 3897   5.328   4.583   5.494 -0.3494 -0.4235 -0.0526
   37CHL1  H21B 3898   5.200   4.471   5.419 -0.2993 -0.8240  0.8988
   37CHL1  H21C 3899   5.259   4.452   5.585  1.1723 -2.8858 -1.7413
   37CHL1   C22 3900   5.081   4.713   5.398 -0.1860  0.5941  0.0049
   37CHL1  H22A 3901   5.080   4.824   5.405  0.2821  0.6551 -0.8081
   37CHL1  H22B 3902   5.161   4.690   5.324  1.2861  2.2045  1.0180
   37CHL1   C23 3903   4.953   4.655   5.342  0.6720 -0.4253  0.1748
   37CHL1  H23A 3904   4.973   4.556   5.295  1.5086 -0.7554  1.1846
   37CHL1  H23B 3905   4.878   4.642   5.422  1.5842 -0.9115  0.9647
   37CHL1   C24 3906   4.887   4.742   5.237  0.5015 -0.0559 -0.2896
   37CHL1  H24A 3907   4.872   4.849   5.263  1.0182  0.5504 -2.2723
   37CHL1  H24B 3908   4.960   4.735   5.153 -0.4740  0.3292 -1.1956
   37CHL1   C25 3909   4.762   4.680   5.178  0.0549  0.3615  0.0865
   37CHL1   H25 3910   4.690   4.660   5.261 -0.3714 -1.2046 -0.6152
   37CHL1   C26 3911   4.698   4.783   5.085  0.7800 -0.1068  0.5461
   37CHL1  H26A 3912   4.673   4.861   5.160  0.7372 -1.4108  1.9534
   37CHL1  H26B 3913   4.765   4.826   5.008 -0.5556 -0.1689 -0.6891
   37CHL1  H26C 3914   4.602   4.744   5.043  1.2766 -0.5919 -0.1634
   37CHL1   C27 3915   4.791   4.554   5.090  0.2345  0.1900 -0.4105
   37CHL1  H27A 3916   4.703   4.488   5.080 -1.5387  2.4002 -0.1518
   37CHL1  H27B 3917   4.825   4.583   4.988 -1.1645 -0.0313 -0.9553
   37CHL1  H27C 3918   4.865   4.493   5.147  1.1103  2.3429  0.8508
   38CHL1    C3 3919   4.943   5.344   6.377  0.3970  0.4680 -0.1936
   38CHL1    H3 3920   5.053   5.359   6.373  0.4981 -0.3915 -1.3200
   38CHL1    O3 3921   4.892   5.351   6.515  0.2403  0.0530  0.4375
   38CHL1   H3' 3922   4.808   5.305   6.512  0.9738 -1.2768 -0.5319
   38CHL1    C4 3923   4.891   5.468   6.302  0.1900 -0.1960 -0.1845
   38CHL1   H4A 3924   4.780   5.475   6.311 -0.1694 -1.3441 -2.8108
   38CHL1   H4B 3925   4.933   5.558   6.352  2.5944 -1.4062  0.0737
   38CHL1    C5 3926   4.930   5.455   6.159 -0.4755 -0.0339  0.2088
   38CHL1    C6 3927   5.005   5.544   6.100  0.3276 -0.4596 -0.6740
   38CHL1    H6 3928   5.038   5.630   6.158  0.1333 -1.7252  1.4007
   38CHL1    C7 3929   5.043   5.540   5.955 -0.1218 -0.0475 -1.0630
   38CHL1   H7A 3930   5.024   5.645   5.921 -1.0639 -0.1730 -0.9514
   38CHL1   H7B 3931   5.151   5.519   5.943  0.1233 -0.3305  1.2263
   38CHL1    C8 3932   4.960   5.452   5.863 -0.1552 -0.5355  0.3553
   38CHL1    H8 3933   4.861   5.500   5.849 -0.0451 -0.9006 -2.0984
   38CHL1   C14 3934   5.032   5.434   5.731 -0.4491  0.2061  0.1341
   38CHL1   H14 3935   5.130   5.385   5.753 -0.7209  0.0650  1.0815
   38CHL1   C15 3936   5.054   5.560   5.648 -0.2730  0.2289 -0.0129
   38CHL1  H15A 3937   4.961   5.620   5.649 -2.1828 -2.5289  0.4214
   38CHL1  H15B 3938   5.147   5.612   5.678  0.4173 -1.3301  0.6976
   38CHL1   C16 3939   5.086   5.500   5.509  0.2326  0.1598 -0.1221
   38CHL1  H16A 3940   5.022   5.560   5.441  1.1153  1.4628  0.1591
   38CHL1  H16B 3941   5.191   5.510   5.473  0.9793 -2.2645  1.1669
   38CHL1   C17 3942   5.047   5.345   5.514 -0.3290 -0.3037  0.6252
   38CHL1   H17 3943   5.143   5.292   5.535  1.2929  1.0879 -2.5199
   38CHL1   C13 3944   4.958   5.337   5.634 -0.6602  0.5111  0.4973
   38CHL1   C18 3945   4.818   5.386   5.595 -0.4625  0.2048  0.1786
   38CHL1  H18A 3946   4.835   5.470   5.525  0.0327  0.3048  0.4093
   38CHL1  H18B 3947   4.769   5.307   5.534 -0.1791 -0.0938  0.3322
   38CHL1  H18C 3948   4.757   5.420   5.681  0.5463  0.9312  0.6306
   38CHL1   C12 3949   4.943   5.199   5.707  0.0281 -0.0690  0.2142
   38CHL1  H12A 3950   4.887   5.130   5.641  0.2262  1.2182 -1.3465
   38CHL1  H12B 3951   5.048   5.168   5.726  0.4162  0.9343 -0.2798
   38CHL1   C11 3952   4.877   5.217   5.848  0.6652  0.7590  0.5388
   38CHL1  H11A 3953   4.774   5.248   5.818  0.6745  1.4928  1.2498
   38CHL1  H11B 3954   4.876   5.113   5.888 -0.6947  0.2274 -0.7545
   38CHL1    C9 3955   4.951   5.318   5.935  0.2523  0.1192 -0.3115
   38CHL1    H9 3956   5.058   5.295   5.950  0.5099  0.9317 -0.8307
   38CHL1   C10 3957   4.889   5.332   6.081  0.0491 -0.5074  0.9093
   38CHL1   C19 3958   4.734   5.332   6.061 -0.0541 -0.3917  0.1723
   38CHL1  H19A 3959   4.687   5.232   6.044 -0.8086 -0.1987  1.0644
   38CHL1  H19B 3960   4.684   5.359   6.156  0.4790 -0.0357  0.3586
   38CHL1  H19C 3961   4.702   5.411   5.989 -0.7392 -0.3419  0.5244
   38CHL1    C1 3962   4.929   5.204   6.163  0.2448  0.2086 -0.2333
   38CHL1   H1A 3963   4.873   5.123   6.111 -1.7722  1.2364  0.2254
   38CHL1   H1B 3964   5.039   5.189   6.162  0.3153  0.5756  0.9358
   38CHL1    C2 3965   4.884   5.216   6.305 -1.0507  0.0080  0.5241
   38CHL1   H2A 3966   4.917   5.129   6.365  0.4196 -0.7717 -1.3149
   38CHL1   H2B 3967   4.774   5.221   6.293 -0.9080  2.7500 -0.6528
   38CHL1   C20 3968   5.012   5.289   5.378 -0.0777  0.2585  0.1404
   38CHL1   H20 3969   4.902   5.286   5.365 -0.0347  0.7627 -0.3860
   38CHL1   C21 3970   5.059   5.130   5.376  0.3104  0.2174  0.5407
   38CHL1  H21A 3971   5.019   5.079   5.466 -0.2120  0.3959  0.4118
   38CHL1  H21B 3972   5.170   5.128   5.377  0.3466  0.6783 -0.6085
   38CHL1  H21C 3973   5.030   5.079   5.281  1.4499  1.0178 -0.2667
   38CHL1   C22 3974   5.061   5.364   5.252 -0.4615  0.3055  0.4233
   38CHL1  H22A 3975   4.998   5.454   5.238  0.4327  0.9736  0.5886
   38CHL1  H22B 3976   5.168   5.393   5.253  0.3971 -2.3146 -1.9319
   38CHL1   C23 3977   5.043   5.279   5.121 -0.2062  0.0249 -0.7728
   38CHL1  H23A 3978   5.128   5.207   5.125  1.4953  1.9882  1.5488
   38CHL1  H23B 3979   4.951   5.218   5.131  0.4675 -1.0000 -0.5436
   38CHL1   C24 3980   5.043   5.366   4.998  0.1251 -0.8006  0.6428
   38CHL1  H24A 3981   4.964   5.443   5.008  0.9034  0.1060 -0.0157
   38CHL1  H24B 3982   5.142   5.415   4.989 -0.0429 -0.4144  0.8842
   38CHL1   C25 3983   5.004   5.294   4.863  0.0671 -0.9017  0.2500
   38CHL1   H25 3984   5.084   5.224   4.830 -1.3626 -1.2197 -2.9314
   38CHL1   C26 3985   4.872   5.213   4.864 -0.7982 -0.0723 -0.7060
   38CHL1  H26A 3986   4.830   5.187   4.765  2.6565 -1.4301 -1.9578
   38CHL1  H26B 3987   4.883   5.118   4.921  3.2773  0.1534 -0.8126
   38CHL1  H26C 3988   4.795   5.272   4.918 -1.1600 -0.6159 -0.6199
   38CHL1   C27 3989   5.010   5.407   4.756  0.1004 -0.4005  0.4384
   38CHL1  H27A 3990   5.114   5.438   4.734  0.2814 -1.0763  0.3399
   38CHL1  H27B 3991   4.982   5.359   4.661  0.0530  0.4395  0.0153
   38CHL1  H27C 3992   4.939   5.491   4.776 -2.1455 -2.2022  0.5298
   39CHL1    C3 3993   5.348   5.748   6.194 -0.0628 -0.1876 -0.1672
   39CHL1    H3 3994   5.276   5.668   6.166 -2.0413  1.8789 -1.3680
   39CHL1    O3 3995   5.370   5.742   6.334  0.0443  0.9082 -0.6659
   39CHL1   H3' 3996   5.375   5.832   6.368  0.3944  0.5223  0.3463
   39CHL1    C4 3997   5.483   5.732   6.124 -0.0863 -0.5324 -0.2050
   39CHL1   H4A 3998   5.556   5.808   6.160  1.3554 -2.1479  0.3867
   39CHL1   H4B 3999   5.515   5.627   6.137  2.6730  0.4468  1.6979
   39CHL1    C5 4000   5.469   5.768   5.976 -0.0927  0.1264  0.0550
   39CHL1    C6 4001   5.501   5.678   5.889 -0.6385  0.5874  0.2801
   39CHL1    H6 4002   5.541   5.581   5.922 -2.9842 -1.4599 -2.4008
   39CHL1    C7 4003   5.489   5.686   5.744  0.0802  0.0417  0.4579
   39CHL1   H7A 4004   5.567   5.642   5.677 -0.8461 -0.1495 -0.5367
   39CHL1   H7B 4005   5.401   5.628   5.707  0.9195 -0.6948 -0.4649
   39CHL1    C8 4006   5.470   5.826   5.688  0.3407 -0.0361  0.0730
   39CHL1    H8 4007   5.570   5.872   5.702 -0.0376  0.5542  1.0140
   39CHL1   C14 4008   5.425   5.826   5.542 -0.1650  0.3109  0.1780
   39CHL1   H14 4009   5.324   5.782   5.558 -0.3845  0.8654  0.3327
   39CHL1   C15 4010   5.491   5.736   5.438 -0.3804 -0.3040 -0.1234
   39CHL1  H15A 4011   5.596   5.769   5.445 -0.5003  0.3590 -1.1330
   39CHL1  H15B 4012   5.485   5.625   5.446 -0.6750 -0.5434 -2.6847
   39CHL1   C16 4013   5.424   5.792   5.311  0.9187  0.5747 -0.7951
   39CHL1  H16A 4014   5.492   5.792   5.223  2.1159  3.6868 -0.0197
   39CHL1  H16B 4015   5.340   5.723   5.292  2.0002 -1.3484  1.0001
   39CHL1   C17 4016   5.366   5.935   5.341  0.0449  0.2042 -0.0809
   39CHL1   H17 4017   5.258   5.912   5.352 -0.1388  1.2507  0.4351
   39CHL1   C13 4018   5.410   5.969   5.481  0.1130  0.2242 -0.8302
   39CHL1   C18 4019   5.545   6.042   5.474 -0.4417 -0.9468 -0.2241
   39CHL1  H18A 4020   5.534   6.151   5.456  0.5017 -0.2754  2.6120
   39CHL1  H18B 4021   5.597   6.034   5.573  0.3334  1.2982 -0.4040
   39CHL1  H18C 4022   5.608   5.991   5.399  3.0448  1.0325  1.1122
   39CHL1   C12 4023   5.310   6.043   5.568  0.0491 -0.1537 -0.3251
   39CHL1  H12A 4024   5.298   6.151   5.542 -1.5616 -0.2466 -0.0719
   39CHL1  H12B 4025   5.207   6.002   5.558  0.0429 -0.0230 -0.8746
   39CHL1   C11 4026   5.338   6.040   5.720 -0.4909 -0.6947  0.2605
   39CHL1  H11A 4027   5.438   6.089   5.723 -1.3122  1.7382 -3.8547
   39CHL1  H11B 4028   5.256   6.093   5.773 -2.1692  0.2123 -3.0291
   39CHL1    C9 4029   5.369   5.900   5.778 -0.6738  0.7064  0.2729
   39CHL1    H9 4030   5.275   5.840   5.769 -1.9118  2.6724 -0.6872
   39CHL1   C10 4031   5.402   5.899   5.935  0.1108 -0.4029  0.4115
   39CHL1   C19 4032   5.503   6.011   5.971  0.1085  0.6498  0.3670
   39CHL1  H19A 4033   5.469   6.112   5.939  2.6919  2.3052  2.3939
   39CHL1  H19B 4034   5.537   6.019   6.077  1.5655  0.9856 -0.0910
   39CHL1  H19C 4035   5.591   6.004   5.903  0.1178 -0.4230  0.4670
   39CHL1    C1 4036   5.271   5.919   6.021 -0.9102 -0.6923  0.2452
   39CHL1   H1A 4037   5.251   6.028   6.028 -0.7303 -0.7575  2.6559
   39CHL1   H1B 4038   5.184   5.864   5.978 -0.8946  0.3273 -1.1437
   39CHL1    C2 4039   5.278   5.883   6.170  0.2015 -0.3179  0.7604
   39CHL1   H2A 4040   5.175   5.861   6.207  0.3316  0.4245  1.5987
   39CHL1   H2B 4041   5.329   5.971   6.215 -1.2245  0.9492  0.0218
   39CHL1   C20 4042   5.378   6.034   5.228  0.8759 -0.4610  0.8935
   39CHL1   H20 4043   5.485   6.056   5.209  0.1251 -0.2970 -4.5967
   39CHL1   C21 4044   5.304   6.164   5.275 -0.0311  0.0613 -0.1165
   39CHL1  H21A 4045   5.347   6.225   5.357  1.7147 -2.6578  1.1134
   39CHL1  H21B 4046   5.198   6.144   5.305 -0.0656  0.7316  0.2272
   39CHL1  H21C 4047   5.291   6.241   5.195 -0.9586  1.4688  1.3302
   39CHL1   C22 4048   5.317   5.982   5.092  0.4577 -0.1059  0.4954
   39CHL1  H22A 4049   5.343   5.876   5.070 -0.2541  0.1936 -2.1087
   39CHL1  H22B 4050   5.209   5.975   5.118  1.4761 -2.7995  5.1789
   39CHL1   C23 4051   5.329   6.074   4.971 -0.4254  0.3543  0.6091
   39CHL1  H23A 4052   5.253   6.049   4.894 -0.8833 -2.0659  1.7541
   39CHL1  H23B 4053   5.303   6.180   4.996 -1.5590  0.9466 -2.5578
   39CHL1   C24 4054   5.470   6.058   4.920  0.0241  0.0523  0.6161
   39CHL1  H24A 4055   5.539   6.076   5.005 -0.0526 -1.2831  0.9776
   39CHL1  H24B 4056   5.487   5.949   4.904 -0.8900 -0.1856  1.1902
   39CHL1   C25 4057   5.508   6.148   4.798 -0.1252  0.1483 -0.4001
   39CHL1   H25 4058   5.459   6.247   4.805  0.5967  0.3862  1.7463
   39CHL1   C26 4059   5.661   6.167   4.798 -0.9521 -0.4515 -0.8714
   39CHL1  H26A 4060   5.702   6.204   4.702  0.2957 -4.0348 -1.8774
   39CHL1  H26B 4061   5.698   6.227   4.883  2.5002 -0.2240 -2.3763
   39CHL1  H26C 4062   5.712   6.069   4.801 -1.5675 -0.7608  1.0798
   39CHL1   C27 4063   5.463   6.080   4.671 -0.6241 -0.1204 -0.1381
   39CHL1  H27A 4064   5.353   6.069   4.677 -0.6932  1.0965  3.6708
   39CHL1  H27B 4065   5.487   6.134   4.577  1.5320 -1.3431 -0.3611
   39CHL1  H27C 4066   5.514   5.982   4.668  3.1513  1.5260  2.3706
   40CHL1    C3 4067   6.472   2.424   6.161  0.0262 -0.0275 -0.6191
   40CHL1    H3 4068   6.535   2.508   6.125  1.6465 -0.8430  0.2074
   40CHL1    O3 4069   6.462   2.436   6.303 -0.7371  0.5392  0.3357
   40CHL1   H3' 4070   6.518   2.508   6.333 -1.1852  0.5706  1.1174
   40CHL1    C4 4071   6.327   2.455   6.116  0.7176 -0.6909  1.2074
   40CHL1   H4A 4072   6.255   2.389   6.168  0.2969 -1.3022 -0.0950
   40CHL1   H4B 4073   6.303   2.559   6.147 -1.0582 -1.2330  1.7865
   40CHL1    C5 4074   6.319   2.442   5.965 -0.0044 -0.0306 -0.6549
   40CHL1    C6 4075   6.275   2.541   5.889  0.4177  0.0872 -1.0070
   40CHL1    H6 4076   6.232   2.629   5.939  2.3851 -0.3056  1.5638
   40CHL1    C7 4077   6.263   2.542   5.738 -0.3572  0.0317  0.7198
   40CHL1   H7A 4078   6.165   2.584   5.708 -0.7726 -0.3382  1.5451
   40CHL1   H7B 4079   6.342   2.613   5.704 -1.0859 -0.6611 -2.8732
   40CHL1    C8 4080   6.294   2.406   5.671  0.2717  0.1712  0.1034
   40CHL1    H8 4081   6.201   2.349   5.692  0.5737 -0.7937 -1.0193
   40CHL1   C14 4082   6.325   2.410   5.523  0.2330 -0.0391 -0.4757
   40CHL1   H14 4083   6.428   2.451   5.528  0.8911 -1.7682  1.7848
   40CHL1   C15 4084   6.247   2.510   5.431 -0.0198 -0.0655 -0.4172
   40CHL1  H15A 4085   6.140   2.512   5.458  0.0430  0.5481 -0.1954
   40CHL1  H15B 4086   6.292   2.612   5.435 -1.0740  0.5185 -2.3114
   40CHL1   C16 4087   6.271   2.451   5.290 -0.5998  0.1599 -0.9301
   40CHL1  H16A 4088   6.167   2.419   5.265 -1.6464  1.2209  1.6390
   40CHL1  H16B 4089   6.319   2.514   5.213  0.9998 -1.1729 -1.0779
   40CHL1   C17 4090   6.357   2.324   5.310 -1.0375 -1.0949  0.2785
   40CHL1   H17 4091   6.458   2.371   5.303 -1.9063  0.7820 -0.3741
   40CHL1   C13 4092   6.338   2.279   5.451  0.2718  0.1902 -0.2376
   40CHL1   C18 4093   6.205   2.197   5.460  1.2939 -0.2787  0.7149
   40CHL1  H18A 4094   6.116   2.258   5.431  1.0495 -0.6572  0.6674
   40CHL1  H18B 4095   6.205   2.109   5.393 -1.7539  0.0700  0.0970
   40CHL1  H18C 4096   6.191   2.158   5.563 -0.3614  0.9833  1.0160
   40CHL1   C12 4097   6.457   2.206   5.526  1.1779  0.7530  0.2360
   40CHL1  H12A 4098   6.467   2.101   5.489  1.2525  0.6192  0.6387
   40CHL1  H12B 4099   6.548   2.270   5.515  1.5760 -0.0964 -2.2528
   40CHL1   C11 4100   6.440   2.190   5.675  0.3093 -0.7104 -0.1285
   40CHL1  H11A 4101   6.365   2.109   5.682 -0.5022 -0.4536 -3.8389
   40CHL1  H11B 4102   6.531   2.144   5.718 -0.1887 -1.4514  0.1465
   40CHL1    C9 4103   6.406   2.333   5.748  0.4071 -0.6193 -0.5180
   40CHL1    H9 4104   6.497   2.394   5.728 -0.5002  1.4677  1.3341
   40CHL1   C10 4105   6.388   2.317   5.901 -0.1023 -0.2309  0.1700
   40CHL1   C19 4106   6.298   2.205   5.923 -0.0728 -0.4895  0.0955
   40CHL1  H19A 4107   6.346   2.108   5.895 -0.3517 -0.3985 -0.7166
   40CHL1  H19B 4108   6.267   2.189   6.028  0.9444 -2.6288  0.1368
   40CHL1  H19C 4109   6.212   2.218   5.854  0.6070  2.5279 -0.3139
   40CHL1    C1 4110   6.534   2.292   5.961 -0.2594  0.2146  0.4762
   40CHL1   H1A 4111   6.573   2.193   5.929  1.0061  1.4163 -1.9737
   40CHL1   H1B 4112   6.608   2.369   5.929 -1.0542  0.0911 -1.8045
   40CHL1    C2 4113   6.526   2.291   6.118 -0.0492 -0.9975 -0.0048
   40CHL1   H2A 4114   6.625   2.281   6.168 -0.0237 -0.2460  0.0964
   40CHL1   H2B 4115   6.452   2.211   6.141 -0.9919 -1.0370 -2.7969
   40CHL1   C20 4116   6.342   2.230   5.187  0.2178  0.2243  1.3172
   40CHL1   H20 4117   6.238   2.192   5.189 -0.7220  2.4282 -0.7011
   40CHL1   C21 4118   6.432   2.111   5.209  0.0782 -0.6688 -0.0687
   40CHL1  H21A 4119   6.539   2.141   5.214 -0.5546  1.6416  1.9758
   40CHL1  H21B 4120   6.432   2.041   5.123  0.0991 -0.9226  0.1361
   40CHL1  H21C 4121   6.397   2.052   5.296  0.5390  0.6724  1.0719
   40CHL1   C22 4122   6.359   2.289   5.040 -0.0601 -0.5230 -0.2817
   40CHL1  H22A 4123   6.271   2.358   5.042 -0.6361 -1.2484  1.5789
   40CHL1  H22B 4124   6.453   2.347   5.044  0.2879 -0.8180 -2.5822
   40CHL1   C23 4125   6.346   2.190   4.927  0.1083  0.2000  0.7013
   40CHL1  H23A 4126   6.448   2.170   4.889 -1.1088 -0.0706 -2.8436
   40CHL1  H23B 4127   6.295   2.099   4.965 -0.1041 -1.4435 -3.0198
   40CHL1   C24 4128   6.285   2.251   4.804  0.4736  0.0730 -0.3243
   40CHL1  H24A 4129   6.184   2.286   4.835  1.2442  2.2639 -0.1106
   40CHL1  H24B 4130   6.341   2.345   4.785 -0.4189  1.1093  1.8346
   40CHL1   C25 4131   6.281   2.149   4.686 -0.1389 -0.4078  0.1638
   40CHL1   H25 4132   6.387   2.123   4.668  0.3235  0.9849  0.6996
   40CHL1   C26 4133   6.181   2.036   4.720 -0.1891 -0.1928  0.1086
   40CHL1  H26A 4134   6.172   1.974   4.628 -1.9275 -0.4562  0.4369
   40CHL1  H26B 4135   6.219   1.964   4.795  1.4277  0.0265 -0.4396
   40CHL1  H26C 4136   6.080   2.068   4.752  0.5005  0.3234  1.8858
   40CHL1   C27 4137   6.227   2.218   4.563  0.0186  0.0719 -0.8460
   40CHL1  H27A 4138   6.124   2.254   4.584  0.5307  0.2056  1.6817
   40CHL1  H27B 4139   6.303   2.293   4.530  1.9224 -2.2041 -1.9235
   40CHL1  H27C 4140   6.227   2.135   4.489  0.2200 -2.2101  1.5620
   41CHL1    C3 4141   1.589   2.084   6.209  0.5925  0.2536  0.2406
   41CHL1    H3 4142   1.637   2.176   6.251 -0.6362  0.8847  0.3018
   41CHL1    O3 4143   1.517   2.018   6.316 -0.0737  0.2404  0.1394
   41CHL1   H3' 4144   1.570   1.940   6.333 -1.1101 -0.5232  0.0024
   41CHL1    C4 4145   1.495   2.125   6.092 -0.0920 -0.8078 -0.9014
   41CHL1   H4A 4146   1.414   2.051   6.071 -1.2853  0.0417  0.5429
   41CHL1   H4B 4147   1.441   2.214   6.130  0.5118 -0.4927 -0.7653
   41CHL1    C5 4148   1.560   2.158   5.952 -0.7960 -0.5518  0.3872
   41CHL1    C6 4149   1.537   2.278   5.894  0.3317 -0.9225 -0.5218
   41CHL1    H6 4150   1.459   2.344   5.936  2.1961  0.5296  0.8124
   41CHL1    C7 4151   1.612   2.320   5.770  1.1366  0.0344  0.5432
   41CHL1   H7A 4152   1.553   2.376   5.695  0.7672 -1.8671 -0.6679
   41CHL1   H7B 4153   1.687   2.391   5.811 -1.9764  2.3836  2.6370
   41CHL1    C8 4154   1.684   2.203   5.698 -0.9442 -0.4307 -0.0375
   41CHL1    H8 4155   1.599   2.142   5.658 -0.7544  0.6080 -2.1547
   41CHL1   C14 4156   1.776   2.254   5.594 -0.1216 -0.2218  0.5463
   41CHL1   H14 4157   1.853   2.315   5.646 -0.3004 -0.5058  1.1527
   41CHL1   C15 4158   1.733   2.357   5.478 -0.7164 -0.4874  0.8160
   41CHL1  H15A 4159   1.628   2.332   5.451  0.1438 -0.3090 -3.1730
   41CHL1  H15B 4160   1.751   2.457   5.524 -0.9416  0.1593 -0.4575
   41CHL1   C16 4161   1.834   2.332   5.370  0.4350 -0.4601 -0.3053
   41CHL1  H16A 4162   1.781   2.286   5.284  0.1421 -0.9000  0.1055
   41CHL1  H16B 4163   1.889   2.424   5.342  0.3271 -0.3788 -0.2532
   41CHL1   C17 4164   1.937   2.231   5.417 -0.7066 -0.1281 -0.5711
   41CHL1   H17 4165   2.017   2.290   5.467 -1.5607  0.1922  0.4557
   41CHL1   C13 4166   1.854   2.149   5.525  0.2289  0.7041 -0.0138
   41CHL1   C18 4167   1.761   2.056   5.450  1.3235 -0.0935  0.3534
   41CHL1  H18A 4168   1.814   1.968   5.407  0.7088 -0.1845 -0.2415
   41CHL1  H18B 4169   1.688   2.013   5.522  1.0641  0.6329  0.5266
   41CHL1  H18C 4170   1.695   2.110   5.378 -1.0047 -1.0561  1.6496
   41CHL1   C12 4171   1.940   2.082   5.632 -0.3050 -0.1982 -0.4648
   41CHL1  H12A 4172   2.007   2.001   5.597  0.3693  0.0663  0.1853
   41CHL1  H12B 4173   2.001   2.151   5.694 -1.9690 -1.4614  2.8369
   41CHL1   C11 4174   1.852   2.016   5.731  0.4963  0.1516 -0.6718
   41CHL1  H11A 4175   1.803   1.927   5.685 -0.4069 -1.4988  3.0724
   41CHL1  H11B 4176   1.911   1.976   5.816 -0.0313 -0.4980 -0.6043
   41CHL1    C9 4177   1.757   2.120   5.802 -0.2945  0.6289  0.1573
   41CHL1    H9 4178   1.829   2.191   5.848 -1.4911  1.9525  0.0479
   41CHL1   C10 4179   1.670   2.059   5.910  0.3659 -0.0017  0.1263
   41CHL1   C19 4180   1.610   1.923   5.858 -0.6015 -0.4360 -0.2597
   41CHL1  H19A 4181   1.692   1.849   5.865  0.2974  0.6248  0.7620
   41CHL1  H19B 4182   1.526   1.883   5.920 -0.5192 -0.3832 -0.1119
   41CHL1  H19C 4183   1.574   1.936   5.754  0.9685  0.0238 -0.7651
   41CHL1    C1 4184   1.759   2.037   6.030  0.0733  0.6676 -0.0500
   41CHL1   H1A 4185   1.832   1.956   6.008 -1.6668 -1.0903  0.4271
   41CHL1   H1B 4186   1.804   2.136   6.054 -0.2662  1.1168 -1.2131
   41CHL1    C2 4187   1.691   1.986   6.160 -0.3962 -0.1217  0.1080
   41CHL1   H2A 4188   1.769   1.970   6.239 -1.1841 -1.4337  0.6643
   41CHL1   H2B 4189   1.638   1.890   6.140 -0.0427  0.2225 -2.9260
   41CHL1   C20 4190   2.005   2.160   5.301  0.2097  0.2038 -0.0779
   41CHL1   H20 4191   1.937   2.100   5.237  1.1067  0.5724 -1.4157
   41CHL1   C21 4192   2.112   2.062   5.351 -0.3447  0.5757  0.1126
   41CHL1  H21A 4193   2.066   1.983   5.413 -0.4014  0.8868  0.4684
   41CHL1  H21B 4194   2.184   2.114   5.418  1.8770  0.1932 -1.8200
   41CHL1  H21C 4195   2.166   2.018   5.264 -1.8580 -3.7893  1.1560
   41CHL1   C22 4196   2.065   2.253   5.193  0.4696 -0.1273  0.6302
   41CHL1  H22A 4197   2.087   2.196   5.100 -2.0597 -0.8555  0.4124
   41CHL1  H22B 4198   1.991   2.330   5.162  1.2536  0.2240 -0.4443
   41CHL1   C23 4199   2.187   2.334   5.235 -0.2707  0.7874 -0.1112
   41CHL1  H23A 4200   2.171   2.357   5.342 -0.5913 -2.9807  0.8063
   41CHL1  H23B 4201   2.274   2.265   5.230 -1.2571 -0.4194 -1.4120
   41CHL1   C24 4202   2.215   2.462   5.158 -0.5924  0.2636 -0.2584
   41CHL1  H24A 4203   2.233   2.445   5.049 -2.1069 -0.4777 -0.4237
   41CHL1  H24B 4204   2.132   2.534   5.166 -0.3396  0.3084  2.7864
   41CHL1   C25 4205   2.335   2.539   5.228  0.1173 -0.5755  0.4580
   41CHL1   H25 4206   2.306   2.557   5.333 -0.5078  2.8048 -0.1804
   41CHL1   C26 4207   2.464   2.463   5.217 -0.1849 -0.0948 -0.1347
   41CHL1  H26A 4208   2.473   2.414   5.118 -3.4961  1.2196 -1.2234
   41CHL1  H26B 4209   2.541   2.544   5.215 -1.1968  0.9094  0.2893
   41CHL1  H26C 4210   2.479   2.395   5.303  2.1539  1.8580  1.1442
   41CHL1   C27 4211   2.352   2.668   5.159  0.1052 -0.0329  0.1483
   41CHL1  H27A 4212   2.417   2.650   5.071  0.0063 -1.0869  0.2786
   41CHL1  H27B 4213   2.255   2.705   5.120 -0.1794  0.3398  1.1704
   41CHL1  H27C 4214   2.404   2.746   5.217  2.4250 -0.9906 -0.5156
   42CHL1    C3 4215   0.532   2.458   5.779 -0.1688  0.6235  0.1367
   42CHL1    H3 4216   0.450   2.498   5.716 -0.5163  0.7011  0.6364
   42CHL1    O3 4217   0.479   2.386   5.888  0.6412  0.7164 -0.1400
   42CHL1   H3' 4218   0.427   2.446   5.941  2.4845  1.7312  0.6154
   42CHL1    C4 4219   0.615   2.359   5.691  0.2563  0.6764  0.4084
   42CHL1   H4A 4220   0.705   2.331   5.750  0.3245 -0.8627 -0.3782
   42CHL1   H4B 4221   0.552   2.270   5.676 -0.4617  0.5564  3.5608
   42CHL1    C5 4222   0.660   2.431   5.565  0.0420  0.7952  0.6731
   42CHL1    C6 4223   0.609   2.400   5.439  0.0679 -0.4693 -0.5740
   42CHL1    H6 4224   0.534   2.321   5.422  0.1684 -0.2978 -1.9346
   42CHL1    C7 4225   0.646   2.480   5.315  0.4029  0.8532 -0.2435
   42CHL1   H7A 4226   0.674   2.399   5.245  0.4393  1.6939 -1.2190
   42CHL1   H7B 4227   0.555   2.533   5.279 -0.0736  0.9455  1.0503
   42CHL1    C8 4228   0.775   2.561   5.336 -0.1864  0.0193 -0.4964
   42CHL1    H8 4229   0.855   2.487   5.356  0.4986  1.1994  1.3818
   42CHL1   C14 4230   0.803   2.649   5.215 -0.4646 -0.4889  0.5138
   42CHL1   H14 4231   0.709   2.700   5.186 -1.3351 -1.8804  0.7842
   42CHL1   C15 4232   0.835   2.580   5.083  0.9504 -0.4451 -0.4408
   42CHL1  H15A 4233   0.920   2.509   5.090  1.0414 -0.2426  0.7125
   42CHL1  H15B 4234   0.749   2.522   5.044 -1.2799  1.9555  0.5806
   42CHL1   C16 4235   0.875   2.703   4.998 -0.4927 -0.1061 -0.6296
   42CHL1  H16A 4236   0.971   2.678   4.946 -0.0947  2.4730 -1.2896
   42CHL1  H16B 4237   0.791   2.739   4.935 -2.4352 -3.1737  0.0167
   42CHL1   C17 4238   0.906   2.819   5.091 -0.0007 -1.2177 -0.1215
   42CHL1   H17 4239   0.821   2.891   5.093 -0.1263 -1.3537  2.7651
   42CHL1   C13 4240   0.905   2.753   5.228  1.3160 -0.0851 -0.5792
   42CHL1   C18 4241   1.047   2.692   5.240 -0.2692 -0.3082 -0.1586
   42CHL1  H18A 4242   1.125   2.768   5.260  2.2980 -2.7426 -0.2751
   42CHL1  H18B 4243   1.048   2.619   5.324 -0.0369 -0.2258 -0.0901
   42CHL1  H18C 4244   1.073   2.648   5.142  1.0902 -0.1662  0.1273
   42CHL1   C12 4245   0.878   2.847   5.352  0.3457  1.1241  0.1683
   42CHL1  H12A 4246   0.970   2.905   5.373  1.3050 -0.3518  0.2032
   42CHL1  H12B 4247   0.787   2.908   5.336 -1.0100 -0.6672  0.5899
   42CHL1   C11 4248   0.870   2.761   5.479  0.1754 -0.3164 -0.7799
   42CHL1  H11A 4249   0.967   2.709   5.490 -0.0012 -0.0554  5.0624
   42CHL1  H11B 4250   0.863   2.819   5.574  0.4568  1.8096 -1.9978
   42CHL1    C9 4251   0.763   2.640   5.469 -0.4851 -0.8142 -0.2374
   42CHL1    H9 4252   0.673   2.703   5.455 -0.2346 -0.5192 -0.5391
   42CHL1   C10 4253   0.748   2.557   5.591 -0.5616 -0.2679  0.4204
   42CHL1   C19 4254   0.887   2.521   5.646  0.1172 -0.4970 -0.2202
   42CHL1  H19A 4255   0.934   2.617   5.678  2.3805 -2.0712  1.4953
   42CHL1  H19B 4256   0.885   2.464   5.741  2.7463  2.0480  1.5430
   42CHL1  H19C 4257   0.957   2.466   5.580 -0.6412 -3.2362  1.1307
   42CHL1    C1 4258   0.680   2.639   5.696  0.1408  0.4130  0.5569
   42CHL1   H1A 4259   0.745   2.722   5.729  0.4175  0.0766  0.8524
   42CHL1   H1B 4260   0.588   2.681   5.650 -1.5244 -0.8745  2.5280
   42CHL1    C2 4261   0.616   2.571   5.826 -0.3175 -0.2147  0.7494
   42CHL1   H2A 4262   0.570   2.643   5.897 -0.8751 -0.1212  0.2989
   42CHL1   H2B 4263   0.698   2.526   5.886 -0.9230 -4.1859 -1.0730
   42CHL1   C20 4264   1.014   2.912   5.035 -0.5728  0.3926 -0.6422
   42CHL1   H20 4265   1.112   2.860   5.033  1.0046  2.9611  1.7424
   42CHL1   C21 4266   1.023   3.046   5.120 -0.2839  0.2149 -0.7154
   42CHL1  H21A 4267   1.116   3.104   5.105  0.1963 -0.5586 -0.8112
   42CHL1  H21B 4268   1.024   3.024   5.229 -1.7579 -0.2122 -0.7726
   42CHL1  H21C 4269   0.935   3.109   5.095 -0.0980  1.5064  1.5723
   42CHL1   C22 4270   1.004   2.947   4.880  0.0928  0.2683 -0.2427
   42CHL1  H22A 4271   1.011   2.854   4.820  0.2812 -0.6592  1.1512
   42CHL1  H22B 4272   0.909   3.002   4.865 -0.8181 -1.5826 -1.5856
   42CHL1   C23 4273   1.119   3.038   4.831 -0.8097  0.4778 -0.2468
   42CHL1  H23A 4274   1.123   3.139   4.877 -0.4571  0.6322 -0.6145
   42CHL1  H23B 4275   1.213   2.989   4.863  0.1749  3.3574  1.6951
   42CHL1   C24 4276   1.140   3.056   4.677 -0.3446  0.9763 -0.0012
   42CHL1  H24A 4277   1.137   2.956   4.630  0.8177  1.2446 -0.6651
   42CHL1  H24B 4278   1.052   3.111   4.637 -1.6576 -0.3553  0.9480
   42CHL1   C25 4279   1.273   3.118   4.636 -0.1449  0.0219  0.9557
   42CHL1   H25 4280   1.273   3.210   4.698 -1.3205 -0.6654  2.0201
   42CHL1   C26 4281   1.389   3.020   4.653  0.0358  0.6679  0.4178
   42CHL1  H26A 4282   1.389   2.990   4.760  1.5877  0.6181  0.4259
   42CHL1  H26B 4283   1.370   2.934   4.585  0.9266  0.0051  0.9910
   42CHL1  H26C 4284   1.487   3.062   4.622  0.1145  0.7025  0.7064
   42CHL1   C27 4285   1.272   3.168   4.489  0.6205  0.0790  0.2489
   42CHL1  H27A 4286   1.376   3.196   4.462  0.4366 -0.7787 -1.4886
   42CHL1  H27B 4287   1.237   3.091   4.417  1.5459  1.0574 -1.2733
   42CHL1  H27C 4288   1.209   3.260   4.484  1.5536  0.7894  1.2147
   43CHL1    C3 4289   0.312   0.987   6.314  0.3752 -0.4889  0.5432
   43CHL1    H3 4290   0.201   0.990   6.315  0.3846  0.2366  0.3803
   43CHL1    O3 4291   0.348   1.028   6.446  0.3571  0.1366  0.0681
   43CHL1   H3' 4292   0.433   0.986   6.457 -0.1938 -0.7834  1.0483
   43CHL1    C4 4293   0.384   0.851   6.299  0.3752  0.4979  0.8238
   43CHL1   H4A 4294   0.492   0.861   6.326  0.1562 -0.2516  2.0283
   43CHL1   H4B 4295   0.334   0.781   6.369  1.4562  0.5669  1.6990
   43CHL1    C5 4296   0.383   0.794   6.152  0.1299  0.3979 -0.3973
   43CHL1    C6 4297   0.340   0.669   6.121  0.5377  0.6015 -0.1404
   43CHL1    H6 4298   0.320   0.609   6.211 -0.9452 -1.4744 -1.7551
   43CHL1    C7 4299   0.334   0.606   5.989  0.2680 -0.0879 -0.4502
   43CHL1   H7A 4300   0.374   0.503   5.984  2.9852  0.8370  0.5461
   43CHL1   H7B 4301   0.227   0.594   5.961 -0.8675 -1.9686  3.9451
   43CHL1    C8 4302   0.415   0.690   5.882 -0.2772  0.4472  0.6263
   43CHL1    H8 4303   0.521   0.663   5.903 -1.0602 -3.2243  0.6699
   43CHL1   C14 4304   0.373   0.639   5.747  0.0547  0.7802  0.3682
   43CHL1   H14 4305   0.269   0.671   5.725 -0.3668 -2.7682 -4.3672
   43CHL1   C15 4306   0.384   0.485   5.734  0.2086  0.4332  0.2275
   43CHL1  H15A 4307   0.479   0.459   5.784  1.0237  2.8216  0.0363
   43CHL1  H15B 4308   0.294   0.438   5.781 -0.9979  2.6676  0.2776
   43CHL1   C16 4309   0.377   0.470   5.586  0.4294  0.3250 -0.5570
   43CHL1  H16A 4310   0.459   0.401   5.557 -0.2832 -1.0290  0.4665
   43CHL1  H16B 4311   0.277   0.431   5.558 -0.2861  0.4735  1.5720
   43CHL1   C17 4312   0.403   0.606   5.519  0.6690 -0.5797 -0.2758
   43CHL1   H17 4313   0.301   0.647   5.506  0.6637 -0.4394  0.1893
   43CHL1   C13 4314   0.457   0.702   5.638  0.4029 -0.4320  0.0041
   43CHL1   C18 4315   0.608   0.676   5.649 -1.1429  0.3010 -0.2356
   43CHL1  H18A 4316   0.675   0.716   5.569 -1.7830 -1.7420 -1.8873
   43CHL1  H18B 4317   0.635   0.710   5.751  0.0832 -1.0261 -0.0758
   43CHL1  H18C 4318   0.634   0.568   5.655 -2.7163 -0.1826 -1.4603
   43CHL1   C12 4319   0.429   0.854   5.636  0.7014 -0.4507 -0.3583
   43CHL1  H12A 4320   0.492   0.901   5.558  0.4328 -1.9837 -1.5632
   43CHL1  H12B 4321   0.322   0.871   5.613  0.7259  0.3601  0.1076
   43CHL1   C11 4322   0.457   0.926   5.775  0.2856  0.6673 -0.5770
   43CHL1  H11A 4323   0.567   0.936   5.784  0.3341  1.7305 -2.0077
   43CHL1  H11B 4324   0.422   1.031   5.774 -0.4873  0.4347  0.4387
   43CHL1    C9 4325   0.386   0.844   5.891 -0.5720 -0.0281 -0.3260
   43CHL1    H9 4326   0.277   0.857   5.877 -0.3630  0.1333 -2.1594
   43CHL1   C10 4327   0.421   0.898   6.034  0.4892  0.3556 -0.1351
   43CHL1   C19 4328   0.576   0.922   6.035  0.3623 -0.0079  0.0643
   43CHL1  H19A 4329   0.640   0.838   6.000  2.3197  1.9796 -1.4335
   43CHL1  H19B 4330   0.595   1.015   5.977  0.8393 -1.2239 -1.7939
   43CHL1  H19C 4331   0.602   0.938   6.142 -1.2634 -0.0256  0.4822
   43CHL1    C1 4332   0.351   1.033   6.058  0.3316 -0.1593  0.5480
   43CHL1   H1A 4333   0.395   1.105   5.986  0.6881 -0.9543 -0.0454
   43CHL1   H1B 4334   0.244   1.018   6.032  0.2290  0.1985  0.7541
   43CHL1    C2 4335   0.360   1.088   6.201 -0.1339 -0.1083  0.6715
   43CHL1   H2A 4336   0.307   1.184   6.218  0.4813  0.2228  0.7477
   43CHL1   H2B 4337   0.470   1.104   6.213 -0.1599 -0.4676  1.4872
   43CHL1   C20 4338   0.481   0.597   5.389  0.6673 -0.3187  0.2522
   43CHL1   H20 4339   0.581   0.556   5.415  0.1408 -0.4514  2.2738
   43CHL1   C21 4340   0.496   0.738   5.334  0.0645 -0.5375  0.2827
   43CHL1  H21A 4341   0.554   0.790   5.413 -0.6403 -1.6529  1.5804
   43CHL1  H21B 4342   0.397   0.788   5.325 -0.2923 -1.3310 -0.2965
   43CHL1  H21C 4343   0.563   0.743   5.246  1.0809 -0.3215  1.0555
   43CHL1   C22 4344   0.418   0.501   5.288  0.2531  0.3791 -0.0181
   43CHL1  H22A 4345   0.381   0.402   5.321 -0.4135  0.8978  0.8437
   43CHL1  H22B 4346   0.321   0.548   5.259 -0.2032 -1.4428 -1.6903
   43CHL1   C23 4347   0.500   0.476   5.166  0.3260 -0.5754  0.0684
   43CHL1  H23A 4348   0.545   0.571   5.131 -0.6128  0.6711  2.0375
   43CHL1  H23B 4349   0.584   0.412   5.200  0.9977 -1.1113 -2.3995
   43CHL1   C24 4350   0.421   0.409   5.054  0.2994 -0.6018 -0.8707
   43CHL1  H24A 4351   0.395   0.303   5.076  1.2895 -0.7716 -0.4687
   43CHL1  H24B 4352   0.324   0.463   5.055 -0.0437 -1.1798  0.6577
   43CHL1   C25 4353   0.502   0.414   4.924 -0.2685 -0.0844  0.0432
   43CHL1   H25 4354   0.528   0.519   4.902 -0.7725  0.7111  2.8236
   43CHL1   C26 4355   0.626   0.332   4.941 -0.0022 -0.3209  0.4091
   43CHL1  H26A 4356   0.597   0.227   4.967 -1.7948 -0.4489 -1.7998
   43CHL1  H26B 4357   0.691   0.341   4.852 -0.8408  3.0886  0.0144
   43CHL1  H26C 4358   0.690   0.375   5.020 -0.5940 -1.1452  1.3725
   43CHL1   C27 4359   0.406   0.354   4.816  0.5233 -0.2456  0.3603
   43CHL1  H27A 4360   0.433   0.379   4.711 -3.1542 -0.6053 -0.8341
   43CHL1  H27B 4361   0.386   0.245   4.816 -0.3488 -0.2687 -3.8150
   43CHL1  H27C 4362   0.306   0.403   4.822  0.7095  0.5822 -2.0983
   44CHL1    C3 4363   2.179   6.572   6.237 -0.1206 -0.0280 -0.6042
   44CHL1    H3 4364   2.133   6.673   6.228 -2.4836 -1.0722 -0.9562
   44CHL1    O3 4365   2.185   6.530   6.373 -0.5143  0.7104  0.0428
   44CHL1   H3' 4366   2.249   6.459   6.378 -0.4561  0.5895 -1.7702
   44CHL1    C4 4367   2.071   6.479   6.176  0.6250 -0.1605 -0.6109
   44CHL1   H4A 4368   2.083   6.376   6.214 -0.0945  0.2185  0.7048
   44CHL1   H4B 4369   1.975   6.514   6.220  1.7096  0.2523  1.5182
   44CHL1    C5 4370   2.069   6.488   6.021  0.0729  0.3976  0.0500
   44CHL1    C6 4371   1.957   6.512   5.953  0.5264  0.3252  0.5055
   44CHL1    H6 4372   1.862   6.529   6.006  0.4672  1.5637  0.0292
   44CHL1    C7 4373   1.950   6.539   5.806  0.4075 -0.6100  0.1994
   44CHL1   H7A 4374   1.859   6.496   5.760 -0.1639  0.2114  0.5386
   44CHL1   H7B 4375   1.934   6.649   5.802  1.7042 -0.2352  3.0276
   44CHL1    C8 4376   2.069   6.483   5.730  0.3304 -0.2540  0.2790
   44CHL1    H8 4377   2.060   6.373   5.726  1.3000 -0.3260 -0.3324
   44CHL1   C14 4378   2.069   6.537   5.585 -0.0872 -0.7981 -0.1239
   44CHL1   H14 4379   2.076   6.648   5.589  2.6476 -0.7832 -2.2686
   44CHL1   C15 4380   1.944   6.501   5.504 -0.6800  0.0997 -0.3786
   44CHL1  H15A 4381   1.916   6.396   5.526 -1.7675  0.7729  1.7358
   44CHL1  H15B 4382   1.853   6.555   5.538 -0.9368 -0.4551 -0.1666
   44CHL1   C16 4383   1.982   6.536   5.360  0.5488 -0.1305  0.2188
   44CHL1  H16A 4384   1.976   6.451   5.289  0.4555 -0.7299  0.9341
   44CHL1  H16B 4385   1.928   6.626   5.322  0.3702 -0.4581 -0.3120
   44CHL1   C17 4386   2.136   6.566   5.361  0.2240 -0.0588 -0.4229
   44CHL1   H17 4387   2.157   6.675   5.374 -1.5267  0.0585  2.0036
   44CHL1   C13 4388   2.189   6.504   5.496  0.2022  0.4299  0.2737
   44CHL1   C18 4389   2.199   6.350   5.487 -0.2968 -0.5382 -0.2736
   44CHL1  H18A 4390   2.225   6.304   5.584 -1.0932 -4.3843 -1.6787
   44CHL1  H18B 4391   2.109   6.299   5.446 -0.9811 -0.4927  1.1233
   44CHL1  H18C 4392   2.280   6.320   5.417 -0.6504  1.0506 -1.4283
   44CHL1   C12 4393   2.311   6.569   5.567  0.1707  0.4546 -0.5673
   44CHL1  H12A 4394   2.395   6.545   5.499 -0.5265  1.0905 -1.6864
   44CHL1  H12B 4395   2.315   6.680   5.576 -2.6010  0.5001  1.5135
   44CHL1   C11 4396   2.337   6.512   5.713  0.7629 -0.6714  0.2751
   44CHL1  H11A 4397   2.376   6.408   5.707  0.7783 -0.7613  1.6642
   44CHL1  H11B 4398   2.411   6.575   5.767 -0.9721  0.9311  0.8897
   44CHL1    C9 4399   2.201   6.526   5.806  0.2263  0.1360  0.2151
   44CHL1    H9 4400   2.188   6.636   5.810 -0.1209  0.0928  0.2844
   44CHL1   C10 4401   2.207   6.482   5.959  0.2631  0.1173  0.3798
   44CHL1   C19 4402   2.256   6.334   5.950  0.4090 -0.8988  0.1274
   44CHL1  H19A 4403   2.209   6.275   5.868 -1.2852  0.7788 -0.1602
   44CHL1  H19B 4404   2.363   6.327   5.919  0.6214  2.4220 -0.2160
   44CHL1  H19C 4405   2.263   6.289   6.051  0.9536 -0.5714  0.2380
   44CHL1    C1 4406   2.313   6.574   6.025 -0.3111 -0.0500  0.1444
   44CHL1   H1A 4407   2.419   6.552   6.000 -0.3749 -1.5982  1.0714
   44CHL1   H1B 4408   2.285   6.679   6.004 -1.8341 -0.1812  1.3293
   44CHL1    C2 4409   2.315   6.558   6.178 -0.1773 -0.4878  0.0057
   44CHL1   H2A 4410   2.377   6.638   6.223  0.7739 -1.1507 -0.0941
   44CHL1   H2B 4411   2.371   6.468   6.210  0.2766  0.1990  1.2038
   44CHL1   C20 4412   2.209   6.519   5.229 -0.3740 -0.6314 -0.4259
   44CHL1   H20 4413   2.177   6.415   5.209  0.1001 -1.3329  2.1448
   44CHL1   C21 4414   2.367   6.533   5.238  0.6509 -0.5045 -0.3065
   44CHL1  H21A 4415   2.434   6.509   5.153  3.1419  0.0362  1.4003
   44CHL1  H21B 4416   2.399   6.459   5.314  1.4431  0.6225  0.4960
   44CHL1  H21C 4417   2.374   6.637   5.277 -2.3455 -0.8163  1.3668
   44CHL1   C22 4418   2.152   6.592   5.104  0.2381  0.1007  0.2989
   44CHL1  H22A 4419   2.043   6.599   5.121  0.1432  0.9055 -0.5689
   44CHL1  H22B 4420   2.186   6.698   5.100  1.3702 -0.2712 -0.8106
   44CHL1   C23 4421   2.184   6.523   4.978  0.3130  0.2058 -0.2948
   44CHL1  H23A 4422   2.286   6.550   4.942 -0.5577 -0.5993 -3.6720
   44CHL1  H23B 4423   2.174   6.415   4.999 -2.2741  0.7720  1.9229
   44CHL1   C24 4424   2.085   6.557   4.863 -0.2589 -0.7511 -0.2569
   44CHL1  H24A 4425   1.985   6.566   4.911 -1.6328 -1.7891 -2.7438
   44CHL1  H24B 4426   2.109   6.660   4.829  0.2258 -1.2389 -1.4832
   44CHL1   C25 4427   2.077   6.472   4.735 -0.3942 -0.1546  0.5222
   44CHL1   H25 4428   2.023   6.531   4.658  0.9566 -0.8262 -1.0188
   44CHL1   C26 4429   2.218   6.447   4.680  0.7175  0.0382  0.9053
   44CHL1  H26A 4430   2.213   6.383   4.589  2.0217 -0.6116  1.2674
   44CHL1  H26B 4431   2.266   6.542   4.647  0.4364  0.4540  1.6823
   44CHL1  H26C 4432   2.282   6.399   4.757 -1.8184 -1.4993  2.2027
   44CHL1   C27 4433   2.000   6.343   4.757 -0.1561 -0.4843  0.9096
   44CHL1  H27A 4434   2.008   6.286   4.662  0.9020  1.3545 -0.1729
   44CHL1  H27B 4435   2.051   6.283   4.836  0.2744 -1.4841 -0.1079
   44CHL1  H27C 4436   1.896   6.355   4.795 -0.9960 -0.5427 -1.2831
   45CHL1    C3 4437   1.441   6.936   6.152 -0.0356  0.4007 -0.3303
   45CHL1    H3 4438   1.375   7.019   6.119 -1.0933  0.2586  1.3292
   45CHL1    O3 4439   1.450   6.942   6.292  0.0333 -0.4024 -0.3189
   45CHL1   H3' 4440   1.369   6.912   6.333 -2.6775  1.8545 -3.4917
   45CHL1    C4 4441   1.381   6.810   6.111 -0.2471  0.2081 -0.2133
   45CHL1   H4A 4442   1.439   6.732   6.166 -1.3663 -1.4584 -1.3369
   45CHL1   H4B 4443   1.281   6.788   6.154 -0.1757  1.5081  0.6664
   45CHL1    C5 4444   1.388   6.787   5.966  0.1900  0.2176 -0.1225
   45CHL1    C6 4445   1.278   6.760   5.894 -0.3375  0.5079  0.0932
   45CHL1    H6 4446   1.182   6.746   5.945 -0.1948  0.1185  0.2648
   45CHL1    C7 4447   1.282   6.719   5.753  0.2515 -0.2170  0.7532
   45CHL1   H7A 4448   1.222   6.629   5.728 -0.7727  0.1818  1.7069
   45CHL1   H7B 4449   1.234   6.798   5.692  0.7222 -1.4617 -1.3288
   45CHL1    C8 4450   1.422   6.691   5.693  0.2725  0.1388 -1.0322
   45CHL1    H8 4451   1.452   6.585   5.708 -0.3681 -0.0827 -1.2872
   45CHL1   C14 4452   1.417   6.702   5.543  0.2156 -0.4315 -0.3367
   45CHL1   H14 4453   1.414   6.811   5.525  0.8736 -0.6209 -1.7317
   45CHL1   C15 4454   1.303   6.645   5.463  0.9827 -0.3480 -0.5148
   45CHL1  H15A 4455   1.265   6.547   5.498 -1.2167  0.9982  1.1195
   45CHL1  H15B 4456   1.210   6.706   5.469  1.1403 -0.1673  0.0741
   45CHL1   C16 4457   1.350   6.631   5.319 -0.1159 -0.1318  0.1471
   45CHL1  H16A 4458   1.346   6.524   5.290 -2.2309 -0.1804  0.4551
   45CHL1  H16B 4459   1.281   6.680   5.247  1.0518 -1.6586 -2.1426
   45CHL1   C17 4460   1.498   6.682   5.326  1.0354  0.3992  0.2050
   45CHL1   H17 4461   1.487   6.790   5.303  1.2239  0.3116 -0.3214
   45CHL1   C13 4462   1.538   6.665   5.471 -0.4425 -0.1758 -0.2281
   45CHL1   C18 4463   1.578   6.519   5.511  0.0405  0.2105  0.1313
   45CHL1  H18A 4464   1.503   6.440   5.489  1.3236 -0.3816 -2.4797
   45CHL1  H18B 4465   1.661   6.488   5.444 -1.1724  0.8110 -1.7316
   45CHL1  H18C 4466   1.620   6.513   5.614 -2.6846  2.0089  1.5013
   45CHL1   C12 4467   1.646   6.764   5.519  0.4087  0.0945  0.8879
   45CHL1  H12A 4468   1.746   6.754   5.473 -0.3044  0.9792 -0.9709
   45CHL1  H12B 4469   1.615   6.863   5.480 -0.8840 -0.4479  0.4746
   45CHL1   C11 4470   1.666   6.776   5.676  0.2050 -0.4708  0.8077
   45CHL1  H11A 4471   1.726   6.687   5.705 -0.3401 -0.8310  0.8506
   45CHL1  H11B 4472   1.727   6.865   5.701 -0.6595  0.5710 -0.6845
   45CHL1    C9 4473   1.528   6.790   5.744  0.4069 -0.5523  0.0919
   45CHL1    H9 4474   1.500   6.892   5.710 -0.3840 -1.5361 -2.4619
   45CHL1   C10 4475   1.528   6.786   5.901  0.3673  0.7067  0.0315
   45CHL1   C19 4476   1.597   6.656   5.945 -0.4221  0.0826 -0.5496
   45CHL1  H19A 4477   1.606   6.655   6.056 -0.1428  1.8988 -0.5353
   45CHL1  H19B 4478   1.541   6.566   5.912  0.9033 -0.3472 -1.7297
   45CHL1  H19C 4479   1.700   6.658   5.903  0.1693 -0.6236  0.7996
   45CHL1    C1 4480   1.593   6.924   5.947 -0.1780 -0.6697  0.2584
   45CHL1   H1A 4481   1.698   6.932   5.911 -0.0568 -0.0581  0.7308
   45CHL1   H1B 4482   1.536   6.998   5.887  0.5059 -0.5684 -0.2797
   45CHL1    C2 4483   1.585   6.948   6.097 -0.0737 -0.5008  0.2581
   45CHL1   H2A 4484   1.639   7.042   6.120  0.3629 -0.6991  0.0524
   45CHL1   H2B 4485   1.647   6.871   6.149 -0.6198 -0.3916  1.0888
   45CHL1   C20 4486   1.596   6.633   5.214  0.2193  0.7045  0.4867
   45CHL1   H20 4487   1.699   6.635   5.255  1.2811 -0.1544 -1.9635
   45CHL1   C21 4488   1.601   6.739   5.099 -0.1013 -0.9507 -0.5448
   45CHL1  H21A 4489   1.678   6.717   5.021 -0.4171  0.1721 -1.1979
   45CHL1  H21B 4490   1.625   6.838   5.144  1.2689 -1.2983 -0.4793
   45CHL1  H21C 4491   1.496   6.747   5.062 -0.0935 -0.2812 -0.4465
   45CHL1   C22 4492   1.562   6.496   5.157 -0.2153 -0.0435  0.2359
   45CHL1  H22A 4493   1.539   6.425   5.239 -0.7264 -0.4474 -0.2535
   45CHL1  H22B 4494   1.476   6.484   5.088 -1.7631 -0.9760  2.2184
   45CHL1   C23 4495   1.691   6.424   5.102 -0.4195  0.1257  0.2943
   45CHL1  H23A 4496   1.739   6.489   5.026  0.5117 -2.0454 -1.0321
   45CHL1  H23B 4497   1.760   6.415   5.189  0.9718  3.9207 -0.1969
   45CHL1   C24 4498   1.658   6.281   5.043 -0.4216 -0.5975 -0.0663
   45CHL1  H24A 4499   1.751   6.227   5.013 -0.3650 -0.3296 -0.3731
   45CHL1  H24B 4500   1.615   6.230   5.132  0.9616 -0.4664  0.7034
   45CHL1   C25 4501   1.556   6.257   4.930 -0.5053  0.0779  0.1223
   45CHL1   H25 4502   1.464   6.263   4.992 -1.0069  1.0540 -0.7000
   45CHL1   C26 4503   1.566   6.351   4.811 -0.4664 -0.3751  0.7614
   45CHL1  H26A 4504   1.562   6.454   4.852  0.8897  0.4780 -1.1382
   45CHL1  H26B 4505   1.655   6.344   4.746 -1.0607 -0.5053 -0.0622
   45CHL1  H26C 4506   1.484   6.333   4.738  0.9374 -0.2042 -0.9135
   45CHL1   C27 4507   1.568   6.108   4.883  0.5248 -0.4699 -0.0073
   45CHL1  H27A 4508   1.502   6.080   4.798 -0.7306  1.2445  0.3428
   45CHL1  H27B 4509   1.672   6.086   4.849  1.6903  3.6386  0.3274
   45CHL1  H27C 4510   1.555   6.033   4.964  1.7591 -3.5728 -2.4666
   46CHL1    C3 4511   3.120   1.844   6.116  0.8319 -0.2330  0.0045
   46CHL1    H3 4512   3.220   1.801   6.136  1.4137  2.1483  3.1549
   46CHL1    O3 4513   3.066   1.871   6.241  0.2087 -0.5623 -0.6958
   46CHL1   H3' 4514   3.028   1.959   6.245  0.3877 -0.5146  2.4747
   46CHL1    C4 4515   3.138   1.976   6.039  0.8972  0.3409 -0.4225
   46CHL1   H4A 4516   3.040   2.027   6.024  0.4210  0.1687  1.7947
   46CHL1   H4B 4517   3.197   2.061   6.079 -0.8945  1.6527 -0.3943
   46CHL1    C5 4518   3.206   1.935   5.912  0.3730  0.7968 -0.6300
   46CHL1    C6 4519   3.319   1.985   5.879 -0.5690  0.2761  0.3609
   46CHL1    H6 4520   3.363   2.054   5.952 -0.5226 -1.8611  2.4623
   46CHL1    C7 4521   3.393   1.963   5.748  0.5034  0.4115  0.1572
   46CHL1   H7A 4522   3.445   2.053   5.707  0.5425  0.2918 -0.0586
   46CHL1   H7B 4523   3.471   1.890   5.777 -0.9103 -0.9667  0.5741
   46CHL1    C8 4524   3.297   1.896   5.641 -0.5499 -0.2186 -0.5566
   46CHL1    H8 4525   3.222   1.968   5.603  0.1958  1.2231  0.6268
   46CHL1   C14 4526   3.376   1.852   5.527 -0.1352 -0.4955  0.1388
   46CHL1   H14 4527   3.446   1.781   5.576  0.3489  0.5283  0.9844
   46CHL1   C15 4528   3.468   1.960   5.459  0.5766  0.3766 -0.4615
   46CHL1  H15A 4529   3.413   2.053   5.432 -0.7167 -0.2432 -0.0362
   46CHL1  H15B 4530   3.552   1.988   5.527  0.0870 -1.1942  0.8561
   46CHL1   C16 4531   3.517   1.885   5.339 -0.0847 -0.1317 -0.1029
   46CHL1  H16A 4532   3.507   1.947   5.247 -1.0742 -0.3276 -0.1401
   46CHL1  H16B 4533   3.624   1.855   5.345  0.4928  1.7306 -0.3656
   46CHL1   C17 4534   3.426   1.758   5.322 -0.2075  0.3094 -0.1060
   46CHL1   H17 4535   3.475   1.671   5.370  0.3952 -0.0011 -1.2460
   46CHL1   C13 4536   3.302   1.781   5.415  0.3885  0.4998 -0.2011
   46CHL1   C18 4537   3.200   1.871   5.346  0.3059  0.1031 -0.2187
   46CHL1  H18A 4538   3.249   1.937   5.271  1.2366  0.4839  0.6992
   46CHL1  H18B 4539   3.136   1.808   5.281  0.1512  1.6811 -1.6783
   46CHL1  H18C 4540   3.142   1.936   5.415 -0.9498  1.2416 -2.2331
   46CHL1   C12 4541   3.229   1.657   5.475 -0.2132 -0.3879 -0.1638
   46CHL1  H12A 4542   3.167   1.602   5.401 -1.0354  0.5637 -0.2022
   46CHL1  H12B 4543   3.305   1.582   5.505  0.7181  0.4756 -0.2932
   46CHL1   C11 4544   3.139   1.703   5.593 -0.1148  0.0989  0.0713
   46CHL1  H11A 4545   3.059   1.766   5.550 -0.5134 -1.0776 -0.9628
   46CHL1  H11B 4546   3.095   1.609   5.633 -0.0878 -0.2402 -0.6818
   46CHL1    C9 4547   3.215   1.783   5.703 -0.1387  0.2806 -0.6332
   46CHL1    H9 4548   3.294   1.718   5.747  0.4130  0.6516 -1.0627
   46CHL1   C10 4549   3.129   1.830   5.827 -0.3440 -0.0892  0.1480
   46CHL1   C19 4550   3.007   1.902   5.762 -0.0558  0.1443 -0.6908
   46CHL1  H19A 4551   2.942   1.824   5.718  1.7553 -0.8641 -1.7220
   46CHL1  H19B 4552   2.946   1.975   5.819 -0.8156 -1.7442  1.0065
   46CHL1  H19C 4553   3.041   1.960   5.673 -0.3673 -0.9720 -1.5620
   46CHL1    C1 4554   3.083   1.705   5.910  0.0273  0.4494 -0.3386
   46CHL1   H1A 4555   3.008   1.645   5.854  1.7147 -2.4078  0.2860
   46CHL1   H1B 4556   3.168   1.635   5.925 -0.5704  0.1044  1.8717
   46CHL1    C2 4557   3.031   1.738   6.047  0.0754 -1.3139 -0.0021
   46CHL1   H2A 4558   3.032   1.651   6.117  1.8274 -0.2577  1.3704
   46CHL1   H2B 4559   2.926   1.772   6.037  0.1758 -0.8058  0.5939
   46CHL1   C20 4560   3.400   1.718   5.173  0.3540 -0.5891 -0.4541
   46CHL1   H20 4561   3.336   1.790   5.119 -1.0178 -1.6496 -0.2897
   46CHL1   C21 4562   3.315   1.584   5.162 -0.0352 -0.3587  0.2692
   46CHL1  H21A 4563   3.328   1.528   5.257 -2.9159 -0.1696  0.8802
   46CHL1  H21B 4564   3.348   1.528   5.072  0.7070 -0.1009  0.3794
   46CHL1  H21C 4565   3.205   1.594   5.147  0.0011  1.1309  0.8589
   46CHL1   C22 4566   3.534   1.693   5.094  0.1792 -0.0782  0.7178
   46CHL1  H22A 4567   3.580   1.793   5.106  1.0970 -0.3627 -0.3239
   46CHL1  H22B 4568   3.599   1.614   5.137  0.8468  0.5033  0.7724
   46CHL1   C23 4569   3.517   1.662   4.942 -0.3879  0.2777 -0.3361
   46CHL1  H23A 4570   3.503   1.552   4.932  3.4498 -0.6678  2.6148
   46CHL1  H23B 4571   3.422   1.716   4.919 -0.9569  0.2453  1.7429
   46CHL1   C24 4572   3.632   1.697   4.860  0.1808  0.7718  0.0922
   46CHL1  H24A 4573   3.602   1.682   4.754  0.4078  3.5278 -0.4426
   46CHL1  H24B 4574   3.662   1.804   4.852 -1.3664  1.0859 -3.0605
   46CHL1   C25 4575   3.762   1.619   4.890  0.0356  0.3216  0.0796
   46CHL1   H25 4576   3.806   1.647   4.988  2.0849  2.8325 -1.3968
   46CHL1   C26 4577   3.748   1.466   4.887 -0.4609 -0.7163  0.3330
   46CHL1  H26A 4578   3.688   1.441   4.977  0.0155  1.9634  1.4838
   46CHL1  H26B 4579   3.687   1.439   4.798 -1.4337 -0.9371  1.0533
   46CHL1  H26C 4580   3.850   1.421   4.882  1.1492  2.5146  1.1432
   46CHL1   C27 4581   3.865   1.667   4.779 -0.5691 -0.1641 -0.4168
   46CHL1  H27A 4582   3.949   1.595   4.785 -1.5436 -1.2270  3.5738
   46CHL1  H27B 4583   3.818   1.668   4.678  0.1688  0.1834 -0.7590
   46CHL1  H27C 4584   3.902   1.767   4.811  1.4543 -1.1589  0.5053
   47CHL1    C3 4585   5.465   1.911   6.233  0.1306  0.2258 -0.5737
   47CHL1    H3 4586   5.566   1.916   6.187 -0.0601  0.6729 -0.9479
   47CHL1    O3 4587   5.478   1.908   6.375 -0.0216  0.1045 -0.2098
   47CHL1   H3' 4588   5.390   1.895   6.412  0.2271  0.2240  0.4473
   47CHL1    C4 4589   5.387   2.032   6.197  0.0439  0.6088  0.1836
   47CHL1   H4A 4590   5.283   2.027   6.237 -0.4847  0.2242 -1.1995
   47CHL1   H4B 4591   5.437   2.120   6.242 -0.8236  1.6464 -0.8493
   47CHL1    C5 4592   5.368   2.048   6.044 -0.3383 -0.0549 -0.2933
   47CHL1    C6 4593   5.409   2.155   5.978 -0.6405 -0.1230 -0.4880
   47CHL1    H6 4594   5.444   2.245   6.031 -1.9055  0.6015 -0.8439
   47CHL1    C7 4595   5.415   2.165   5.829  0.6826  0.2137 -0.3767
   47CHL1   H7A 4596   5.404   2.270   5.794 -1.3188  0.4278  0.7558
   47CHL1   H7B 4597   5.521   2.135   5.810  0.6366  0.0986 -0.4494
   47CHL1    C8 4598   5.319   2.064   5.764  0.1557  0.4199 -0.3758
   47CHL1    H8 4599   5.215   2.098   5.782 -0.3529  0.1190 -2.4773
   47CHL1   C14 4600   5.351   2.069   5.612 -0.1142 -0.3795 -0.9215
   47CHL1   H14 4601   5.451   2.030   5.583 -0.6284 -2.4605 -0.1073
   47CHL1   C15 4602   5.345   2.199   5.540 -0.7560  0.4358  1.0792
   47CHL1  H15A 4603   5.255   2.262   5.558 -0.4038  1.0134  0.8423
   47CHL1  H15B 4604   5.433   2.267   5.542 -0.6827  0.3528  0.8105
   47CHL1   C16 4605   5.325   2.151   5.394  0.0078  0.5433  0.7805
   47CHL1  H16A 4606   5.221   2.173   5.360 -1.3387 -1.6267  3.1844
   47CHL1  H16B 4607   5.404   2.186   5.324 -0.1788  0.3199  0.4529
   47CHL1   C17 4608   5.320   1.993   5.388  0.1288 -0.2239 -0.6262
   47CHL1   H17 4609   5.427   1.964   5.391  0.3936  0.7149  2.0052
   47CHL1   C13 4610   5.270   1.965   5.537 -0.1804  0.4992  0.6532
   47CHL1   C18 4611   5.119   1.983   5.542  0.5484  0.3029  0.4669
   47CHL1  H18A 4612   5.086   2.085   5.513  0.8155 -0.1659 -1.6410
   47CHL1  H18B 4613   5.056   1.904   5.494  1.1567 -1.2227  2.0659
   47CHL1  H18C 4614   5.089   1.981   5.649  1.9971 -1.3964  0.9012
   47CHL1   C12 4615   5.306   1.824   5.593  0.5674 -0.5833 -0.0453
   47CHL1  H12A 4616   5.245   1.745   5.544  0.0672 -0.4186  0.3148
   47CHL1  H12B 4617   5.410   1.787   5.577  0.3220 -1.0818 -0.5460
   47CHL1   C11 4618   5.284   1.800   5.743 -0.4756 -0.4236 -0.5909
   47CHL1  H11A 4619   5.176   1.792   5.770 -0.5074 -0.8990 -0.8585
   47CHL1  H11B 4620   5.333   1.707   5.778  1.0137  0.4382 -0.3024
   47CHL1    C9 4621   5.348   1.927   5.827 -0.5685  0.2936 -0.0236
   47CHL1    H9 4622   5.454   1.904   5.805 -1.5236 -3.0116 -2.0114
   47CHL1   C10 4623   5.323   1.916   5.976 -0.1883  0.1982 -0.7917
   47CHL1   C19 4624   5.174   1.914   6.009 -0.5095 -0.6549  0.0459
   47CHL1  H19A 4625   5.154   1.917   6.119 -1.2992 -0.3662 -0.0955
   47CHL1  H19B 4626   5.126   2.008   5.973  0.4445  0.4445  1.5446
   47CHL1  H19C 4627   5.116   1.829   5.969  1.3412 -1.6161 -0.6768
   47CHL1    C1 4628   5.385   1.787   6.035 -0.2751 -0.0335  0.9367
   47CHL1   H1A 4629   5.317   1.710   5.993 -0.6488  0.9292 -0.2720
   47CHL1   H1B 4630   5.490   1.768   6.006 -0.1604 -0.8070  1.8042
   47CHL1    C2 4631   5.391   1.785   6.185 -0.1291 -0.5737 -0.1038
   47CHL1   H2A 4632   5.446   1.700   6.230  1.4887  0.2864 -0.3754
   47CHL1   H2B 4633   5.290   1.781   6.231  0.5608 -1.6078  1.3818
   47CHL1   C20 4634   5.251   1.928   5.270  0.3617  0.0283  0.5293
   47CHL1   H20 4635   5.147   1.968   5.278 -0.7541 -2.7406  1.0213
   47CHL1   C21 4636   5.232   1.776   5.269 -0.2408  0.8064 -0.1770
   47CHL1  H21A 4637   5.142   1.741   5.325 -0.5156 -0.8509 -1.5877
   47CHL1  H21B 4638   5.329   1.729   5.296  0.6747  1.7728 -1.6640
   47CHL1  H21C 4639   5.199   1.748   5.167 -1.3420 -1.2971  0.7016
   47CHL1   C22 4640   5.312   1.960   5.131 -0.4039 -0.6636  0.5755
   47CHL1  H22A 4641   5.369   2.055   5.140  0.9267 -1.5569  1.9696
   47CHL1  H22B 4642   5.392   1.886   5.111 -1.6337 -2.0772  0.7271
   47CHL1   C23 4643   5.218   1.957   5.010 -0.6114 -0.6742 -0.3444
   47CHL1  H23A 4644   5.182   1.854   4.987  1.0217 -1.2757 -0.3516
   47CHL1  H23B 4645   5.127   2.013   5.039 -1.1735 -2.1003  0.7662
   47CHL1   C24 4646   5.283   2.027   4.887  0.0717  0.2853 -0.1005
   47CHL1  H24A 4647   5.335   2.117   4.928 -0.1059  1.0668 -1.5422
   47CHL1  H24B 4648   5.364   1.970   4.837 -0.5342 -0.5829 -0.1135
   47CHL1   C25 4649   5.182   2.072   4.784 -0.2659  0.1645 -0.0601
   47CHL1   H25 4650   5.105   2.135   4.833  0.9322  1.2788  0.4380
   47CHL1   C26 4651   5.249   2.165   4.682 -0.1862 -0.4419  0.6911
   47CHL1  H26A 4652   5.171   2.203   4.613  0.7283 -0.0461 -0.1635
   47CHL1  H26B 4653   5.300   2.246   4.738 -1.4861  2.5986 -2.1773
   47CHL1  H26C 4654   5.320   2.110   4.616 -0.1289  0.5151 -0.0681
   47CHL1   C27 4655   5.101   1.956   4.710 -0.3309  0.3136 -0.0884
   47CHL1  H27A 4656   5.054   1.886   4.782  0.9225  0.4200  0.8636
   47CHL1  H27B 4657   5.015   2.008   4.663  0.3541  2.1429  0.5771
   47CHL1  H27C 4658   5.160   1.904   4.631  0.0409 -0.0827  0.4467
   48CHL1    C3 4659   0.572   1.844   5.785 -0.3257  0.1033  0.6401
   48CHL1    H3 4660   0.470   1.874   5.752 -0.5379 -0.7673  0.4925
   48CHL1    O3 4661   0.558   1.787   5.914 -0.4903  0.4192 -0.5509
   48CHL1   H3' 4662   0.645   1.763   5.944 -0.2845  1.6907 -0.0397
   48CHL1    C4 4663   0.636   1.738   5.691  0.2347  0.4043 -1.0670
   48CHL1   H4A 4664   0.725   1.697   5.742  0.0124  0.5348 -0.5683
   48CHL1   H4B 4665   0.563   1.655   5.689 -0.4810  0.9802  0.1282
   48CHL1    C5 4666   0.656   1.790   5.553  0.3489 -0.3869  0.6063
   48CHL1    C6 4667   0.606   1.731   5.442  0.1962  0.2708 -0.0894
   48CHL1    H6 4668   0.527   1.655   5.451 -0.2093  0.7075  0.0765
   48CHL1    C7 4669   0.647   1.752   5.304  0.0568 -0.1362  0.2873
   48CHL1   H7A 4670   0.681   1.658   5.256 -0.5235 -0.8011  1.1584
   48CHL1   H7B 4671   0.566   1.803   5.247  1.3828  0.7914 -0.8281
   48CHL1    C8 4672   0.770   1.857   5.297 -0.4086  0.0762 -0.4518
   48CHL1    H8 4673   0.867   1.804   5.310 -0.1736  0.9486  1.8342
   48CHL1   C14 4674   0.770   1.911   5.153  0.0620 -0.4673  0.4469
   48CHL1   H14 4675   0.673   1.964   5.147  0.8825  1.5316  3.0260
   48CHL1   C15 4676   0.765   1.812   5.038  0.2701 -0.3390  0.4289
   48CHL1  H15A 4677   0.839   1.730   5.044  0.9856  0.0440 -1.8885
   48CHL1  H15B 4678   0.666   1.763   5.028  0.8709 -1.6543  0.8055
   48CHL1   C16 4679   0.803   1.897   4.919  0.1747 -0.4778  0.4304
   48CHL1  H16A 4680   0.894   1.862   4.866  0.6468  0.0032  0.9047
   48CHL1  H16B 4681   0.721   1.909   4.845  1.0169  0.2838 -0.4121
   48CHL1   C17 4682   0.835   2.046   4.975 -0.3553  0.0948 -0.3770
   48CHL1   H17 4683   0.739   2.101   4.980 -0.4261 -0.0264 -0.4116
   48CHL1   C13 4684   0.869   2.028   5.121  0.3569  0.7263 -0.0833
   48CHL1   C18 4685   1.019   1.967   5.126  0.9106  0.4969  0.1049
   48CHL1  H18A 4686   1.030   1.889   5.048  0.5620 -0.8554  1.3621
   48CHL1  H18B 4687   1.097   2.040   5.097 -0.4501  1.5504 -1.0762
   48CHL1  H18C 4688   1.039   1.924   5.226  1.8260 -0.2446 -0.3875
   48CHL1   C12 4689   0.838   2.141   5.223  0.1115  0.2010  0.3115
   48CHL1  H12A 4690   0.913   2.222   5.210  1.9644 -1.3614  0.8780
   48CHL1  H12B 4691   0.734   2.179   5.215  0.0959  0.0746 -0.1154
   48CHL1   C11 4692   0.849   2.085   5.367  0.6244  0.4418  0.3540
   48CHL1  H11A 4693   0.953   2.059   5.394  0.2214 -0.6628  0.9130
   48CHL1  H11B 4694   0.820   2.168   5.434 -2.1128  0.5874 -0.8781
   48CHL1    C9 4695   0.757   1.969   5.396 -0.0038  0.4862  0.3731
   48CHL1    H9 4696   0.655   2.006   5.373 -0.2068 -2.7658 -6.1479
   48CHL1   C10 4697   0.755   1.911   5.541 -0.3747 -0.5238 -0.2822
   48CHL1   C19 4698   0.895   1.856   5.576  0.5954 -0.5488 -0.0518
   48CHL1  H19A 4699   0.894   1.815   5.679  0.0440 -0.4051  0.0037
   48CHL1  H19B 4700   0.916   1.771   5.508 -0.2979 -0.7072 -0.1454
   48CHL1  H19C 4701   0.972   1.935   5.576 -0.8313  0.9430 -1.8970
   48CHL1    C1 4702   0.698   2.016   5.645 -0.1986 -0.1265 -0.4443
   48CHL1   H1A 4703   0.763   2.106   5.640 -0.0448 -0.2980 -1.9736
   48CHL1   H1B 4704   0.609   2.067   5.602  1.1145  0.8389 -2.1030
   48CHL1    C2 4705   0.662   1.964   5.787  0.5802 -0.0284 -0.0442
   48CHL1   H2A 4706   0.627   2.054   5.841  0.3540  0.4203 -0.9389
   48CHL1   H2B 4707   0.753   1.921   5.835  0.3759 -1.9772 -1.2752
   48CHL1   C20 4708   0.932   2.136   4.893 -0.2392  0.1820  0.1023
   48CHL1   H20 4709   0.991   2.187   4.972  0.3130  0.9585 -0.7872
   48CHL1   C21 4710   0.849   2.252   4.833  0.7300 -0.0716 -0.2283
   48CHL1  H21A 4711   0.764   2.218   4.770  0.1901  1.8457 -0.6271
   48CHL1  H21B 4712   0.801   2.296   4.924 -1.3147  0.1766 -1.3680
   48CHL1  H21C 4713   0.921   2.317   4.779  1.8615 -0.0989  1.1870
   48CHL1   C22 4714   1.036   2.070   4.790  0.0786  0.4024 -0.5371
   48CHL1  H22A 4715   1.086   1.989   4.846  1.2565  0.6951 -1.1399
   48CHL1  H22B 4716   0.972   2.027   4.709 -0.5257  1.5907 -0.7237
   48CHL1   C23 4717   1.144   2.161   4.739  0.6484 -0.9052 -0.1031
   48CHL1  H23A 4718   1.091   2.227   4.667 -0.2718 -0.7422  0.7137
   48CHL1  H23B 4719   1.186   2.225   4.819 -0.5111  0.3514 -0.4553
   48CHL1   C24 4720   1.261   2.092   4.669  0.2026  0.2065 -0.0014
   48CHL1  H24A 4721   1.299   2.016   4.741  1.3678 -0.3144 -1.1279
   48CHL1  H24B 4722   1.218   2.048   4.576  0.4905 -1.3372  0.5682
   48CHL1   C25 4723   1.383   2.177   4.613  0.5929 -0.0613  0.5801
   48CHL1   H25 4724   1.416   2.246   4.694  1.7638 -0.1456  0.1967
   48CHL1   C26 4725   1.497   2.097   4.559  0.2374 -0.0688  0.6041
   48CHL1  H26A 4726   1.465   2.002   4.510 -0.1327 -0.1316  0.9649
   48CHL1  H26B 4727   1.540   2.163   4.480 -3.0155  0.9844 -0.4650
   48CHL1  H26C 4728   1.567   2.069   4.640  0.0161 -0.2324  0.7403
   48CHL1   C27 4729   1.329   2.261   4.497  0.6266  0.4568  0.4629
   48CHL1  H27A 4730   1.256   2.335   4.536  0.0297 -0.5225  1.2562
   48CHL1  H27B 4731   1.412   2.319   4.451 -0.3895  0.4479 -1.4613
   48CHL1  H27C 4732   1.285   2.198   4.417 -0.8300  1.3931  0.5023
   49CHL1    C3 4733   4.288   1.299   3.158  0.6812  1.5377  0.1835
   49CHL1    H3 4734   4.359   1.214   3.153 -0.0433  0.7438  2.2073
   49CHL1    O3 4735   4.285   1.347   3.028  0.6277  0.0433  0.2042
   49CHL1   H3' 4736   4.194   1.364   3.003  0.6178  2.7122  1.6352
   49CHL1    C4 4737   4.154   1.244   3.200  0.3495  0.3440  0.3744
   49CHL1   H4A 4738   4.077   1.324   3.192  0.1590  0.1808  0.5651
   49CHL1   H4B 4739   4.121   1.170   3.125  0.1958  0.8995 -0.1143
   49CHL1    C5 4740   4.157   1.196   3.344 -0.1179  0.4571  0.4324
   49CHL1    C6 4741   4.139   1.068   3.356  0.1134  0.3007 -0.0745
   49CHL1    H6 4742   4.103   1.004   3.275 -0.1186  0.3349 -0.0005
   49CHL1    C7 4743   4.149   1.007   3.493 -0.7123  0.1894  0.1945
   49CHL1   H7A 4744   4.074   0.928   3.516 -0.5981  0.4681  1.5867
   49CHL1   H7B 4745   4.245   0.952   3.498 -0.8486 -0.4473 -2.5684
   49CHL1    C8 4746   4.148   1.105   3.610 -0.1050 -0.5803 -0.0357
   49CHL1    H8 4747   4.048   1.154   3.614  0.3484  0.4323 -0.6286
   49CHL1   C14 4748   4.188   1.048   3.743  1.0445  0.3858 -0.3129
   49CHL1   H14 4749   4.293   1.012   3.743  0.7531 -0.5928 -2.1159
   49CHL1   C15 4750   4.108   0.924   3.785  0.9478  0.3598  0.3121
   49CHL1  H15A 4751   3.999   0.944   3.783  0.4200 -2.0852  0.8963
   49CHL1  H15B 4752   4.132   0.840   3.717 -0.2706  1.3289 -1.3816
   49CHL1   C16 4753   4.142   0.913   3.931  0.1108 -0.0744 -0.2798
   49CHL1  H16A 4754   4.052   0.895   3.994  0.6699 -1.4652  0.1613
   49CHL1  H16B 4755   4.218   0.838   3.961  1.1504  1.3317  0.7417
   49CHL1   C17 4756   4.216   1.046   3.976  0.6030 -0.4683  0.5079
   49CHL1   H17 4757   4.325   1.030   3.963  0.9595  0.8014  1.6754
   49CHL1   C13 4758   4.185   1.148   3.861  0.2194 -0.0846  0.4385
   49CHL1   C18 4759   4.044   1.197   3.892  0.0721 -0.6413  0.1360
   49CHL1  H18A 4760   3.965   1.121   3.911 -1.2373  0.6128 -0.2157
   49CHL1  H18B 4761   4.058   1.282   3.962  0.5207 -0.0561 -0.6579
   49CHL1  H18C 4762   4.001   1.252   3.806  0.8724  0.7551  0.5991
   49CHL1   C12 4763   4.291   1.255   3.831  0.2070  0.8498  0.0426
   49CHL1  H12A 4764   4.304   1.337   3.905 -0.2891  1.0486 -0.0893
   49CHL1  H12B 4765   4.392   1.209   3.819  0.1471  0.9305 -0.8002
   49CHL1   C11 4766   4.252   1.331   3.700  0.8317  0.2778 -0.1504
   49CHL1  H11A 4767   4.156   1.383   3.720  1.3602  1.7442 -1.2558
   49CHL1  H11B 4768   4.324   1.416   3.693  2.2066 -0.9142 -1.4057
   49CHL1    C9 4769   4.234   1.229   3.576 -0.7947  0.2102 -0.8878
   49CHL1    H9 4770   4.334   1.179   3.568 -2.0868 -2.7307 -0.1439
   49CHL1   C10 4771   4.204   1.295   3.448  0.1747  0.0013 -0.0539
   49CHL1   C19 4772   4.082   1.389   3.475 -0.0360 -0.7375  0.0074
   49CHL1  H19A 4773   4.106   1.480   3.534  0.0317 -0.2437 -0.7725
   49CHL1  H19B 4774   4.057   1.426   3.373  2.2285 -0.1907 -0.3903
   49CHL1  H19C 4775   3.996   1.330   3.515  0.6801 -1.5819  0.3189
   49CHL1    C1 4776   4.336   1.366   3.399 -0.1659 -1.2164  0.1934
   49CHL1   H1A 4777   4.362   1.451   3.465  1.4078 -1.5779  0.0958
   49CHL1   H1B 4778   4.426   1.300   3.405  0.0520 -0.7649  3.1200
   49CHL1    C2 4779   4.330   1.407   3.247 -0.3349  0.6241 -0.0703
   49CHL1   H2A 4780   4.430   1.447   3.222  0.0467 -0.9008 -1.1373
   49CHL1   H2B 4781   4.252   1.486   3.253  0.4824  1.3137  2.8190
   49CHL1   C20 4782   4.196   1.096   4.121 -0.1790 -0.2257  0.5609
   49CHL1   H20 4783   4.087   1.109   4.139 -0.4442 -0.2758 -0.8444
   49CHL1   C21 4784   4.266   1.226   4.147  0.2328  0.1079  0.7473
   49CHL1  H21A 4785   4.367   1.227   4.102 -0.9842 -2.1228 -2.4049
   49CHL1  H21B 4786   4.257   1.255   4.254  0.5846 -1.7672  1.3143
   49CHL1  H21C 4787   4.216   1.309   4.092  1.5208  0.6567  0.3636
   49CHL1   C22 4788   4.236   0.977   4.222  0.2649 -0.7747 -0.3709
   49CHL1  H22A 4789   4.160   0.896   4.211 -1.9377  0.7820  2.1471
   49CHL1  H22B 4790   4.341   0.953   4.196  1.1988  2.0303  0.3922
   49CHL1   C23 4791   4.227   1.029   4.364  0.4283 -0.1147  0.3882
   49CHL1  H23A 4792   4.319   1.085   4.390  2.2332 -3.0603  0.7391
   49CHL1  H23B 4793   4.142   1.100   4.375  1.1399  0.7943  0.1964
   49CHL1   C24 4794   4.215   0.928   4.474 -0.0460  0.8365  0.1054
   49CHL1  H24A 4795   4.129   0.860   4.462  0.5782  0.1296 -0.4797
   49CHL1  H24B 4796   4.308   0.869   4.457 -0.0937  1.1440 -1.3832
   49CHL1   C25 4797   4.208   1.014   4.607 -0.1644 -0.6462  0.1211
   49CHL1   H25 4798   4.260   1.109   4.582 -2.8668  0.1319 -3.3327
   49CHL1   C26 4799   4.067   1.054   4.653  0.8199 -0.7973  0.1459
   49CHL1  H26A 4800   4.009   0.963   4.678 -0.4844  0.0684  0.3828
   49CHL1  H26B 4801   4.067   1.123   4.740 -1.6382 -0.2013 -0.2628
   49CHL1  H26C 4802   4.000   1.099   4.577 -1.2084  1.3970  3.0257
   49CHL1   C27 4803   4.295   0.945   4.715  0.4686 -0.6743  0.3306
   49CHL1  H27A 4804   4.243   0.851   4.743 -1.0623 -0.0479 -0.2380
   49CHL1  H27B 4805   4.393   0.930   4.666  0.5093  2.2031 -0.6598
   49CHL1  H27C 4806   4.296   1.004   4.810 -0.9745 -0.4145  0.2149
   50CHL1    C3 4807   4.496   4.382   2.852 -0.6974  0.0652 -0.0685
   50CHL1    H3 4808   4.530   4.279   2.878 -1.2887 -0.3662 -0.9702
   50CHL1    O3 4809   4.502   4.401   2.711  0.4330 -0.0360 -0.5312
   50CHL1   H3' 4810   4.469   4.491   2.699  0.6991 -0.0006 -1.0555
   50CHL1    C4 4811   4.349   4.381   2.891 -0.3121  0.4484 -0.4558
   50CHL1   H4A 4812   4.309   4.475   2.848  0.9219  1.7152  1.0150
   50CHL1   H4B 4813   4.307   4.297   2.832  1.0728 -0.3883 -0.2876
   50CHL1    C5 4814   4.337   4.361   3.043 -0.5458  0.4307  0.1048
   50CHL1    C6 4815   4.268   4.261   3.094  0.6735  0.3272 -0.2229
   50CHL1    H6 4816   4.209   4.198   3.026 -0.8890  0.7283  0.7129
   50CHL1    C7 4817   4.248   4.237   3.240 -0.5296 -0.1096  0.2562
   50CHL1   H7A 4818   4.139   4.223   3.252 -0.2346 -2.5088  0.7027
   50CHL1   H7B 4819   4.284   4.136   3.267  0.7147  0.7888  2.2217
   50CHL1    C8 4820   4.305   4.351   3.332 -0.0587 -0.1255  0.0913
   50CHL1    H8 4821   4.228   4.431   3.328  0.2582  0.4039  3.0167
   50CHL1   C14 4822   4.329   4.302   3.472 -0.3887  0.2100  0.2406
   50CHL1   H14 4823   4.416   4.234   3.464 -0.5798 -0.2384  1.7209
   50CHL1   C15 4824   4.221   4.222   3.534  0.2721  0.1425  0.3937
   50CHL1  H15A 4825   4.129   4.284   3.529 -0.2359 -0.6892 -1.1097
   50CHL1  H15B 4826   4.209   4.120   3.493  0.6068  0.1557  0.2557
   50CHL1   C16 4827   4.265   4.221   3.680  0.5381  0.0017 -0.4440
   50CHL1  H16A 4828   4.182   4.260   3.743  0.7926  1.2072 -0.8457
   50CHL1  H16B 4829   4.296   4.119   3.711 -0.3659 -0.4166 -0.8703
   50CHL1   C17 4830   4.388   4.313   3.704 -0.3417  0.7571 -0.0572
   50CHL1   H17 4831   4.477   4.250   3.682 -1.4791 -1.4772  1.4314
   50CHL1   C13 4832   4.385   4.404   3.578 -0.3390 -0.7028  0.1663
   50CHL1   C18 4833   4.278   4.516   3.601 -0.3761 -0.0601 -0.1221
   50CHL1  H18A 4834   4.333   4.597   3.654  0.1567 -1.3432  1.3467
   50CHL1  H18B 4835   4.243   4.558   3.504 -2.5558  0.8851  0.9857
   50CHL1  H18C 4836   4.189   4.489   3.662  1.4974 -2.2690  1.8111
   50CHL1   C12 4837   4.520   4.462   3.515  1.1946 -0.1001 -0.0244
   50CHL1  H12A 4838   4.571   4.537   3.579 -0.0117 -0.7150  1.7211
   50CHL1  H12B 4839   4.583   4.372   3.502 -0.2887 -0.8182 -3.3598
   50CHL1   C11 4840   4.490   4.520   3.373  0.2288 -0.0868  0.4545
   50CHL1  H11A 4841   4.410   4.596   3.384 -0.8683 -1.2164  0.4945
   50CHL1  H11B 4842   4.589   4.552   3.334  0.8557  0.5914  2.4747
   50CHL1    C9 4843   4.432   4.415   3.270 -1.0365  0.7721 -0.2235
   50CHL1    H9 4844   4.510   4.336   3.273  0.2199  2.0062  1.4627
   50CHL1   C10 4845   4.421   4.460   3.123 -0.0419 -1.3324 -0.6606
   50CHL1   C19 4846   4.350   4.598   3.116  0.2796  0.9212  0.4370
   50CHL1  H19A 4847   4.250   4.602   3.164  0.1069  0.0987  0.1567
   50CHL1  H19B 4848   4.406   4.686   3.153  0.4494  1.0741 -0.1657
   50CHL1  H19C 4849   4.344   4.639   3.013 -3.4953  0.7419  0.4378
   50CHL1    C1 4850   4.567   4.487   3.066  0.0982 -0.1227 -0.1215
   50CHL1   H1A 4851   4.597   4.586   3.107 -2.0457  0.7609 -0.5423
   50CHL1   H1B 4852   4.645   4.415   3.099  1.5461  1.1320 -0.6932
   50CHL1    C2 4853   4.578   4.492   2.917  0.5850  0.1236  0.2946
   50CHL1   H2A 4854   4.680   4.506   2.875  0.5658 -0.4268  0.0638
   50CHL1   H2B 4855   4.526   4.585   2.886  1.3851  0.9683  1.4249
   50CHL1   C20 4856   4.401   4.384   3.836 -0.3493 -0.9318 -0.5926
   50CHL1   H20 4857   4.325   4.465   3.848  2.3545  1.3666  2.5684
   50CHL1   C21 4858   4.536   4.454   3.857  0.4617  0.2113 -0.3054
   50CHL1  H21A 4859   4.557   4.537   3.786  1.3559 -0.6019 -1.0196
   50CHL1  H21B 4860   4.611   4.374   3.845 -0.8229 -0.9873 -0.6179
   50CHL1  H21C 4861   4.538   4.501   3.958 -0.3514  2.9894 -1.4841
   50CHL1   C22 4862   4.376   4.296   3.957 -0.6991  0.1516  0.3657
   50CHL1  H22A 4863   4.398   4.343   4.055  2.6868 -0.7457  0.1400
   50CHL1  H22B 4864   4.266   4.283   3.969 -0.6016 -1.3252 -0.1471
   50CHL1   C23 4865   4.431   4.156   3.962 -0.1189 -0.1740 -0.2918
   50CHL1  H23A 4866   4.410   4.090   3.874  0.3278 -0.7722  0.0404
   50CHL1  H23B 4867   4.541   4.154   3.977 -0.0116  0.6413 -0.8962
   50CHL1   C24 4868   4.375   4.085   4.089 -0.8370  0.3358  0.4103
   50CHL1  H24A 4869   4.392   4.156   4.173  1.7941  1.7544 -1.1992
   50CHL1  H24B 4870   4.266   4.061   4.087 -0.1458 -3.3734 -0.6276
   50CHL1   C25 4871   4.445   3.953   4.139 -0.0453 -0.7114  0.7209
   50CHL1   H25 4872   4.554   3.973   4.130  0.1491 -2.0868 -0.4266
   50CHL1   C26 4873   4.417   3.913   4.283 -0.0118 -0.0294  0.0861
   50CHL1  H26A 4874   4.475   3.823   4.312  1.2043  0.8172  0.3522
   50CHL1  H26B 4875   4.443   4.000   4.347  0.5507 -0.2531  0.1667
   50CHL1  H26C 4876   4.311   3.889   4.308 -0.4841  2.6244  0.9945
   50CHL1   C27 4877   4.399   3.832   4.053 -0.2035 -0.2556  0.4555
   50CHL1  H27A 4878   4.436   3.844   3.949  1.5115  0.6339  1.1093
   50CHL1  H27B 4879   4.446   3.734   4.078  1.7669  0.3058 -0.7736
   50CHL1  H27C 4880   4.288   3.834   4.056 -0.2098  0.8712 -0.0840
   51CHL1    C3 4881   2.470   6.438   2.855 -0.0227  0.1825 -0.1861
   51CHL1    H3 4882   2.562   6.492   2.822  1.3079 -1.7637  0.1813
   51CHL1    O3 4883   2.380   6.413   2.750 -0.0611 -0.2644 -0.0110
   51CHL1   H3' 4884   2.305   6.471   2.766  1.4696  1.5938  0.8998
   51CHL1    C4 4885   2.511   6.302   2.923 -0.5689  0.3290 -0.0386
   51CHL1   H4A 4886   2.420   6.241   2.938  1.4224 -3.2114 -1.1944
   51CHL1   H4B 4887   2.577   6.248   2.852  0.1530  1.3906 -0.1986
   51CHL1    C5 4888   2.589   6.333   3.048  0.3662  0.6822 -0.0159
   51CHL1    C6 4889   2.720   6.312   3.068 -0.0158  0.0220  0.7891
   51CHL1    H6 4890   2.780   6.267   2.988 -0.1400 -0.0207  0.7186
   51CHL1    C7 4891   2.793   6.353   3.193  0.5468 -0.3421 -0.0532
   51CHL1   H7A 4892   2.862   6.268   3.211  1.7206  0.5755 -0.0870
   51CHL1   H7B 4893   2.847   6.450   3.183 -0.4696  0.7094  3.2275
   51CHL1    C8 4894   2.698   6.350   3.316 -0.5529  0.1856  0.1812
   51CHL1    H8 4895   2.675   6.245   3.343 -2.3313  0.4712 -0.0553
   51CHL1   C14 4896   2.775   6.405   3.432 -0.4586  0.2585 -0.1748
   51CHL1   H14 4897   2.823   6.500   3.400  3.6065 -1.2163  0.8745
   51CHL1   C15 4898   2.904   6.329   3.483  0.2337 -0.7351 -0.4792
   51CHL1  H15A 4899   2.872   6.222   3.484  2.0097 -1.3041  0.3536
   51CHL1  H15B 4900   2.983   6.355   3.410 -0.3737  0.4061 -0.7488
   51CHL1   C16 4901   2.926   6.371   3.623 -0.7570  0.0205  0.1913
   51CHL1  H16A 4902   2.935   6.278   3.682  0.6979  0.0151  0.0138
   51CHL1  H16B 4903   3.020   6.427   3.643 -1.0563 -0.3586  3.1495
   51CHL1   C17 4904   2.809   6.463   3.667 -0.0792 -0.5178  0.0420
   51CHL1   H17 4905   2.834   6.569   3.644 -0.3100 -0.4605  0.0534
   51CHL1   C13 4906   2.705   6.425   3.559  0.8335 -0.2891 -0.3038
   51CHL1   C18 4907   2.637   6.299   3.617  0.5798 -0.1450  0.3048
   51CHL1  H18A 4908   2.587   6.235   3.542  0.9881  0.0980 -0.1798
   51CHL1  H18B 4909   2.712   6.235   3.668 -0.7345 -2.5442 -0.6496
   51CHL1  H18C 4910   2.564   6.332   3.694 -2.2204 -3.9082 -0.4709
   51CHL1   C12 4911   2.595   6.527   3.538 -0.0024 -0.3077  0.4143
   51CHL1  H12A 4912   2.521   6.530   3.621  0.3430  0.0985  0.7121
   51CHL1  H12B 4913   2.643   6.626   3.523  0.7197 -0.2854  2.5249
   51CHL1   C11 4914   2.502   6.479   3.417 -0.6203 -0.1729  0.0356
   51CHL1  H11A 4915   2.448   6.386   3.442  1.0913 -2.1548 -2.9499
   51CHL1  H11B 4916   2.433   6.564   3.398 -0.4249 -0.0195  0.0084
   51CHL1    C9 4917   2.584   6.449   3.283 -0.3173 -0.3547 -0.3746
   51CHL1    H9 4918   2.631   6.547   3.262 -1.3603 -0.3267 -2.8747
   51CHL1   C10 4919   2.505   6.405   3.159  0.6775 -0.7717 -0.7286
   51CHL1   C19 4920   2.383   6.321   3.211 -0.5580  0.4311 -0.1696
   51CHL1  H19A 4921   2.434   6.244   3.272  1.8781  1.6209 -0.5985
   51CHL1  H19B 4922   2.322   6.374   3.287  0.8484 -1.0441  2.0948
   51CHL1  H19C 4923   2.323   6.287   3.123 -0.9099  0.4329  0.0654
   51CHL1    C1 4924   2.453   6.539   3.089 -0.9865  0.3454 -0.1285
   51CHL1   H1A 4925   2.381   6.586   3.158 -1.1597 -0.8809  0.5642
   51CHL1   H1B 4926   2.543   6.603   3.075  0.7605 -1.6594  1.1841
   51CHL1    C2 4927   2.384   6.522   2.955  0.5091 -0.0795  0.1071
   51CHL1   H2A 4928   2.361   6.623   2.916 -1.9729 -0.2879  0.8680
   51CHL1   H2B 4929   2.287   6.474   2.982  0.7973 -0.1788  1.0161
   51CHL1   C20 4930   2.773   6.475   3.816  0.6643 -0.4718 -0.2094
   51CHL1   H20 4931   2.704   6.392   3.841  1.7600 -1.0577  0.9438
   51CHL1   C21 4932   2.696   6.610   3.844  0.0758 -0.1241 -0.3700
   51CHL1  H21A 4933   2.601   6.612   3.787 -0.4409  1.6382  0.4940
   51CHL1  H21B 4934   2.753   6.693   3.799 -1.2112 -0.6829 -3.3035
   51CHL1  H21C 4935   2.678   6.619   3.953  1.8204 -1.9784  0.1336
   51CHL1   C22 4936   2.896   6.468   3.910 -0.9786  0.5635  0.3870
   51CHL1  H22A 4937   2.964   6.382   3.894 -0.3500  1.3389 -1.2569
   51CHL1  H22B 4938   2.968   6.551   3.894 -3.0474  2.1239 -1.4631
   51CHL1   C23 4939   2.872   6.463   4.063 -0.1405 -0.0873 -0.5252
   51CHL1  H23A 4940   2.834   6.565   4.088 -0.5631 -0.0352 -1.3277
   51CHL1  H23B 4941   2.786   6.395   4.084  0.7908 -0.4578  2.4984
   51CHL1   C24 4942   2.992   6.432   4.147 -0.7194  0.8203  0.4718
   51CHL1  H24A 4943   3.031   6.328   4.150  0.5976  1.2855  0.1182
   51CHL1  H24B 4944   3.084   6.477   4.103  1.3531 -2.4377  1.1468
   51CHL1   C25 4945   2.974   6.472   4.294  0.6061 -0.5328  0.7426
   51CHL1   H25 4946   2.869   6.448   4.323  0.4076 -0.4240  0.1410
   51CHL1   C26 4947   3.075   6.397   4.378 -0.3108 -0.5755  0.0200
   51CHL1  H26A 4948   3.172   6.416   4.328 -0.6884 -0.9469 -0.8814
   51CHL1  H26B 4949   3.075   6.428   4.485 -1.8514  0.6150 -0.2984
   51CHL1  H26C 4950   3.048   6.289   4.384 -2.1971 -0.1125  0.7027
   51CHL1   C27 4951   2.992   6.627   4.311  0.2855  0.3467 -0.5027
   51CHL1  H27A 4952   2.912   6.680   4.255 -1.3197 -0.4365  0.9724
   51CHL1  H27B 4953   2.982   6.649   4.419 -2.3053  0.8850 -0.7864
   51CHL1  H27C 4954   3.089   6.673   4.282 -1.0789  2.6586 -1.5965
   52CHL1    C3 4955   2.216   0.917   2.819  0.1741  0.5268 -0.6446
   52CHL1    H3 4956   2.270   1.013   2.833 -0.2665  0.6633  0.1738
   52CHL1    O3 4957   2.180   0.902   2.683 -0.3066  0.5922  0.0787
   52CHL1   H3' 4958   2.122   0.826   2.687  0.2665  0.0991 -0.7024
   52CHL1    C4 4959   2.300   0.793   2.867 -1.4847  0.6349  0.1000
   52CHL1   H4A 4960   2.243   0.699   2.849  0.7043 -1.2643  2.2380
   52CHL1   H4B 4961   2.383   0.782   2.794 -0.8795 -1.6663  1.0363
   52CHL1    C5 4962   2.338   0.801   3.015  0.1865  0.3721 -0.3015
   52CHL1    C6 4963   2.460   0.796   3.061 -0.3441  0.0557 -0.0401
   52CHL1    H6 4964   2.548   0.792   2.995 -0.6210  2.6522 -0.6912
   52CHL1    C7 4965   2.496   0.785   3.209 -0.2823  0.1483 -0.2453
   52CHL1   H7A 4966   2.577   0.709   3.215 -0.1019  0.3395 -0.2495
   52CHL1   H7B 4967   2.553   0.873   3.246  0.3900  1.0034 -3.0691
   52CHL1    C8 4968   2.379   0.762   3.302  0.9297  0.7980  0.6646
   52CHL1    H8 4969   2.362   0.652   3.300  2.5897  0.5234  0.0219
   52CHL1   C14 4970   2.413   0.783   3.445 -0.0004 -0.1513  0.0639
   52CHL1   H14 4971   2.435   0.891   3.456  0.8406 -0.5731  4.0771
   52CHL1   C15 4972   2.535   0.706   3.498  0.3540  0.3831  0.9425
   52CHL1  H15A 4973   2.522   0.604   3.456  0.6883  0.8874 -0.4427
   52CHL1  H15B 4974   2.638   0.740   3.473  1.3787 -3.3853 -0.7062
   52CHL1   C16 4975   2.505   0.709   3.649 -0.7010  0.3815 -0.1757
   52CHL1  H16A 4976   2.499   0.601   3.675 -2.1072  0.4656 -0.0733
   52CHL1  H16B 4977   2.582   0.762   3.709 -1.4645  2.8760 -1.2808
   52CHL1   C17 4978   2.366   0.764   3.681 -0.6175 -0.4757  0.1947
   52CHL1   H17 4979   2.376   0.873   3.703  3.9068 -0.3136 -1.7138
   52CHL1   C13 4980   2.294   0.756   3.542 -0.4463 -0.0084 -0.3240
   52CHL1   C18 4981   2.236   0.616   3.535  0.2198 -0.4073 -0.0581
   52CHL1  H18A 4982   2.301   0.534   3.573 -0.7371 -0.6611  1.1028
   52CHL1  H18B 4983   2.138   0.614   3.589  0.6111  0.2686  0.6867
   52CHL1  H18C 4984   2.203   0.592   3.431 -2.3700  1.0502  0.3224
   52CHL1   C12 4985   2.189   0.864   3.508 -0.3156  0.6942  0.5742
   52CHL1  H12A 4986   2.106   0.841   3.578  1.0233 -3.6620  1.0288
   52CHL1  H12B 4987   2.224   0.969   3.522  2.0293 -0.1541  1.4937
   52CHL1   C11 4988   2.133   0.840   3.362 -0.4713  0.1182 -0.7138
   52CHL1  H11A 4989   2.070   0.749   3.353  0.5262 -0.6201 -0.3330
   52CHL1  H11B 4990   2.077   0.930   3.330 -0.8706  0.8515  1.7838
   52CHL1    C9 4991   2.249   0.837   3.256  0.4995 -0.8140  0.0465
   52CHL1    H9 4992   2.283   0.942   3.254 -4.1719  0.9667  0.9677
   52CHL1   C10 4993   2.210   0.809   3.108 -0.3940 -0.7890  0.1122
   52CHL1   C19 4994   2.134   0.675   3.105 -0.1449  1.3720 -0.2937
   52CHL1  H19A 4995   2.202   0.593   3.136  0.9131  1.6442 -1.7381
   52CHL1  H19B 4996   2.041   0.670   3.165  1.3425  0.9423  2.1263
   52CHL1  H19C 4997   2.106   0.657   2.999  3.5914  1.5475 -1.4433
   52CHL1    C1 4998   2.119   0.924   3.052 -0.4116  0.1528  0.3094
   52CHL1   H1A 4999   2.020   0.926   3.102 -1.2562  0.8383 -1.3316
   52CHL1   H1B 5000   2.169   1.021   3.073 -2.3413  1.4181 -0.6675
   52CHL1    C2 5001   2.089   0.913   2.902  0.1539 -0.0434 -0.0512
   52CHL1   H2A 5002   2.018   0.993   2.873 -0.0430  0.1442  0.9107
   52CHL1   H2B 5003   2.031   0.822   2.878  0.9018 -0.9124  1.3171
   52CHL1   C20 5004   2.302   0.699   3.806 -0.4697 -0.4287  0.0901
   52CHL1   H20 5005   2.279   0.594   3.777  1.7167 -0.4715 -1.6945
   52CHL1   C21 5006   2.170   0.773   3.848  0.3731  0.2345  0.7054
   52CHL1  H21A 5007   2.089   0.734   3.782  1.5082 -1.0369  0.0085
   52CHL1  H21B 5008   2.181   0.883   3.836  0.7929  0.2567  1.2780
   52CHL1  H21C 5009   2.136   0.757   3.953 -1.9777  0.1232 -0.0067
   52CHL1   C22 5010   2.392   0.701   3.934 -0.6836 -0.4695  0.6892
   52CHL1  H22A 5011   2.339   0.645   4.014  0.4044 -1.6418  0.6170
   52CHL1  H22B 5012   2.478   0.633   3.919 -1.3792 -1.4652  1.0830
   52CHL1   C23 5013   2.438   0.838   3.994 -0.1376 -0.0361 -0.0600
   52CHL1  H23A 5014   2.492   0.899   3.919  1.9074 -0.1634  1.2220
   52CHL1  H23B 5015   2.353   0.897   4.035 -1.0406 -0.5923 -1.0580
   52CHL1   C24 5016   2.546   0.821   4.104 -0.6498  0.1532 -0.1992
   52CHL1  H24A 5017   2.637   0.776   4.058  0.8487  1.5373  1.2917
   52CHL1  H24B 5018   2.585   0.923   4.127 -1.4387  0.5121 -0.4132
   52CHL1   C25 5019   2.507   0.744   4.236 -0.0537  0.4743 -0.7159
   52CHL1   H25 5020   2.459   0.649   4.202  1.6573  0.1134 -2.2526
   52CHL1   C26 5021   2.624   0.709   4.332  0.0853 -1.1096 -0.2687
   52CHL1  H26A 5022   2.696   0.792   4.346 -0.1302 -0.8845 -0.4817
   52CHL1  H26B 5023   2.593   0.669   4.431  4.3935 -2.2107  0.8352
   52CHL1  H26C 5024   2.672   0.618   4.291 -3.0504 -2.5036 -1.2424
   52CHL1   C27 5025   2.387   0.810   4.309 -0.3167  0.2818 -0.1887
   52CHL1  H27A 5026   2.348   0.750   4.394 -2.5877 -0.1361 -1.4275
   52CHL1  H27B 5027   2.421   0.909   4.347 -0.1895 -0.2958  1.2583
   52CHL1  H27C 5028   2.301   0.815   4.239  0.2588 -0.2440 -0.9444
   53CHL1    C3 5029   0.870   0.704   2.978  0.2921  0.3682  0.3014
   53CHL1    H3 5030   0.761   0.686   2.987  0.3970  0.7011  2.8283
   53CHL1    O3 5031   0.897   0.717   2.838 -0.4171  0.3370  0.0473
   53CHL1   H3' 5032   0.992   0.730   2.839 -0.6582  2.9017  2.5243
   53CHL1    C4 5033   0.908   0.834   3.053  0.1010  0.3671  0.5452
   53CHL1   H4A 5034   1.003   0.873   3.012  0.2545  0.0223  0.5734
   53CHL1   H4B 5035   0.824   0.902   3.027 -0.9095 -1.2515 -0.6885
   53CHL1    C5 5036   0.918   0.825   3.203 -0.4185  0.0800 -0.8430
   53CHL1    C6 5037   0.851   0.912   3.285  0.0667 -1.4950 -0.7655
   53CHL1    H6 5038   0.794   0.993   3.238 -0.0781 -1.2465 -0.1630
   53CHL1    C7 5039   0.855   0.909   3.435  0.1934  0.4356 -0.2335
   53CHL1   H7A 5040   0.877   1.011   3.473  0.8139  2.4342 -5.1881
   53CHL1   H7B 5041   0.763   0.859   3.471  2.1184 -2.8351  0.5776
   53CHL1    C8 5042   0.978   0.829   3.487  0.0956  0.0930 -0.4918
   53CHL1    H8 5043   1.069   0.888   3.468 -0.9838  1.1821 -2.5835
   53CHL1   C14 5044   0.975   0.803   3.639 -0.4365  0.6400 -0.1998
   53CHL1   H14 5045   0.881   0.745   3.655  0.2551 -0.6473 -0.6351
   53CHL1   C15 5046   0.941   0.921   3.735  1.0644 -0.4651  0.2557
   53CHL1  H15A 5047   1.008   1.005   3.707 -0.7137  0.9197 -0.0821
   53CHL1  H15B 5048   0.833   0.946   3.730  1.3063  0.8867  1.0231
   53CHL1   C16 5049   0.990   0.864   3.870  0.2663 -0.1063  0.4667
   53CHL1  H16A 5050   1.065   0.936   3.910 -1.0405  2.0964 -0.8069
   53CHL1  H16B 5051   0.898   0.848   3.932 -0.8453  0.8058 -0.8827
   53CHL1   C17 5052   1.063   0.726   3.851 -0.5253 -0.4284  0.5826
   53CHL1   H17 5053   0.992   0.643   3.871 -0.4050 -1.0998 -1.6099
   53CHL1   C13 5054   1.080   0.715   3.701  0.2038 -0.1786  0.1309
   53CHL1   C18 5055   1.220   0.767   3.665 -1.1489 -0.5389  0.2720
   53CHL1  H18A 5056   1.237   0.776   3.555 -1.4335  0.8382  0.3225
   53CHL1  H18B 5057   1.239   0.870   3.700 -0.6751 -0.1043 -1.1888
   53CHL1  H18C 5058   1.301   0.700   3.703 -0.4692  0.6513  0.9957
   53CHL1   C12 5059   1.058   0.581   3.639  0.8027 -0.4180  1.3954
   53CHL1  H12A 5060   1.127   0.503   3.677 -0.8240 -2.1381  0.9492
   53CHL1  H12B 5061   0.955   0.556   3.672  0.7862 -0.3983  1.3588
   53CHL1   C11 5062   1.068   0.589   3.483 -0.4939 -0.1698 -1.1665
   53CHL1  H11A 5063   1.178   0.598   3.465 -0.4658  0.1379 -0.8471
   53CHL1  H11B 5064   1.036   0.493   3.437  1.3977 -1.6494  0.4073
   53CHL1    C9 5065   0.980   0.693   3.417 -1.0276  0.0647 -0.3808
   53CHL1    H9 5066   0.879   0.649   3.426 -0.3104 -1.8514 -1.0503
   53CHL1   C10 5067   0.998   0.705   3.261  0.3822  0.1135  0.1499
   53CHL1   C19 5068   1.150   0.730   3.231  0.6308 -0.2814  0.0919
   53CHL1  H19A 5069   1.212   0.640   3.251 -1.3274 -1.6412  0.4342
   53CHL1  H19B 5070   1.170   0.753   3.124 -1.2586 -1.1174 -0.4848
   53CHL1  H19C 5071   1.193   0.814   3.289  3.1577 -0.9961 -0.6284
   53CHL1    C1 5072   0.959   0.581   3.184  0.8076  0.3455 -0.0489
   53CHL1   H1A 5073   1.022   0.495   3.212  0.4138 -0.0823 -0.4565
   53CHL1   H1B 5074   0.858   0.561   3.225  1.1044  1.4388  1.2928
   53CHL1    C2 5075   0.951   0.589   3.030 -0.9768  0.5319 -0.2304
   53CHL1   H2A 5076   0.915   0.493   2.988 -1.3373  0.4414  0.2843
   53CHL1   H2B 5077   1.052   0.597   2.983  0.1445  3.1118  2.3040
   53CHL1   C20 5078   1.183   0.711   3.947  0.2593 -0.1718  0.2506
   53CHL1   H20 5079   1.270   0.771   3.913 -0.2731  1.0557  1.0017
   53CHL1   C21 5080   1.229   0.562   3.948  0.2827 -0.4121  0.5907
   53CHL1  H21A 5081   1.144   0.494   3.967 -0.0539 -1.1949 -3.0300
   53CHL1  H21B 5082   1.299   0.544   4.033  0.8216 -1.9270 -0.1421
   53CHL1  H21C 5083   1.274   0.525   3.854 -0.3854 -2.6692  1.1089
   53CHL1   C22 5084   1.162   0.758   4.095  0.4024  0.4273  1.1841
   53CHL1  H22A 5085   1.257   0.747   4.151  0.3766 -2.2041  0.8503
   53CHL1  H22B 5086   1.146   0.868   4.093  1.2511  0.5782 -2.0149
   53CHL1   C23 5087   1.045   0.697   4.176 -0.1590  0.5856  0.0818
   53CHL1  H23A 5088   0.947   0.731   4.134 -0.8763 -0.2913  0.9982
   53CHL1  H23B 5089   1.046   0.586   4.177 -0.9200  0.5679  0.7009
   53CHL1   C24 5090   1.042   0.743   4.320 -0.2777  0.4164 -0.4188
   53CHL1  H24A 5091   1.144   0.735   4.363 -0.8496  0.6930  1.0267
   53CHL1  H24B 5092   1.037   0.854   4.321 -1.0365  0.3824  0.5030
   53CHL1   C25 5093   0.926   0.685   4.413  0.0729  0.3077  0.0646
   53CHL1   H25 5094   0.828   0.707   4.365 -1.1429 -0.1773  2.1936
   53CHL1   C26 5095   0.953   0.539   4.446 -0.1227  0.4162 -0.1631
   53CHL1  H26A 5096   1.043   0.530   4.512  0.1295 -0.4215 -0.6137
   53CHL1  H26B 5097   0.858   0.492   4.478 -0.6297  0.1569 -1.9654
   53CHL1  H26C 5098   0.974   0.488   4.350 -0.2332  0.8147 -0.3981
   53CHL1   C27 5099   0.920   0.760   4.552 -0.0305 -0.1466  0.8335
   53CHL1  H27A 5100   1.019   0.782   4.597  0.6986 -0.3201 -0.6039
   53CHL1  H27B 5101   0.873   0.860   4.537  0.2535 -0.2268 -0.7773
   53CHL1  H27C 5102   0.844   0.705   4.611 -1.3627 -1.0718 -1.5908
   54CHL1    C3 5103   1.754   0.701   2.974 -0.1357 -0.4330  0.2063
   54CHL1    H3 5104   1.862   0.672   2.974 -0.5826 -2.3598 -1.2852
   54CHL1    O3 5105   1.714   0.706   2.842 -0.0273 -0.4270  0.0016
   54CHL1   H3' 5106   1.618   0.703   2.845 -0.0641  0.7661  2.8415
   54CHL1    C4 5107   1.672   0.596   3.044  0.0733 -0.2889 -0.2441
   54CHL1   H4A 5108   1.565   0.622   3.032 -0.0525 -1.3520 -1.7063
   54CHL1   H4B 5109   1.684   0.497   2.994 -2.1683  0.7256 -3.0296
   54CHL1    C5 5110   1.712   0.583   3.190  0.1447  1.3315 -0.5920
   54CHL1    C6 5111   1.767   0.476   3.250  0.5085 -0.2777  0.2335
   54CHL1    H6 5112   1.775   0.383   3.191 -0.6903 -0.5875  0.5241
   54CHL1    C7 5113   1.790   0.446   3.402  0.0693  0.4390 -0.0684
   54CHL1   H7A 5114   1.748   0.346   3.427 -1.5767  1.1091 -0.0592
   54CHL1   H7B 5115   1.899   0.447   3.426  0.3319  2.0484 -1.1629
   54CHL1    C8 5116   1.720   0.556   3.482 -0.4569  0.2280 -0.3070
   54CHL1    H8 5117   1.611   0.535   3.475 -1.0056  2.6268 -0.0672
   54CHL1   C14 5118   1.766   0.561   3.623 -0.0459 -0.7751  0.8013
   54CHL1   H14 5119   1.870   0.600   3.628  0.1582 -0.8294 -1.7494
   54CHL1   C15 5120   1.776   0.431   3.698 -0.6515 -0.1348 -0.3225
   54CHL1  H15A 5121   1.693   0.360   3.682 -2.3729  1.7162  0.0028
   54CHL1  H15B 5122   1.873   0.385   3.670 -0.3792  0.0461  0.3086
   54CHL1   C16 5123   1.780   0.469   3.842 -0.2798  0.4944 -0.0045
   54CHL1  H16A 5124   1.694   0.420   3.893 -1.1792  2.7911  0.7899
   54CHL1  H16B 5125   1.875   0.445   3.894 -0.3842 -0.4522 -0.2366
   54CHL1   C17 5126   1.766   0.617   3.851 -0.2122 -0.0795  0.0305
   54CHL1   H17 5127   1.874   0.645   3.846  0.2174 -1.7172 -0.4058
   54CHL1   C13 5128   1.702   0.658   3.716 -0.0125  0.2230 -0.1633
   54CHL1   C18 5129   1.545   0.632   3.731 -0.2716 -0.4638 -0.7510
   54CHL1  H18A 5130   1.508   0.535   3.770 -0.2652  0.6264  2.2580
   54CHL1  H18B 5131   1.503   0.703   3.805  0.3409 -0.0359 -0.8008
   54CHL1  H18C 5132   1.497   0.650   3.632 -1.4237 -0.8752 -0.2738
   54CHL1   C12 5133   1.740   0.797   3.654  0.3685  0.0127  0.0190
   54CHL1  H12A 5134   1.702   0.883   3.714  1.0334  0.9239 -0.8241
   54CHL1  H12B 5135   1.849   0.810   3.637  0.8838  0.3294  3.0267
   54CHL1   C11 5136   1.699   0.809   3.506 -0.3883 -0.0994  0.6011
   54CHL1  H11A 5137   1.588   0.813   3.510 -0.5167  1.9632 -2.2978
   54CHL1  H11B 5138   1.732   0.909   3.469 -0.7273 -0.4914 -0.8133
   54CHL1    C9 5139   1.740   0.694   3.415  0.4344  0.1234 -0.6687
   54CHL1    H9 5140   1.851   0.704   3.415  0.4834 -0.2332 -2.0422
   54CHL1   C10 5141   1.684   0.706   3.268  0.7515  0.6313 -0.2043
   54CHL1   C19 5142   1.531   0.736   3.263  0.3558  0.4307  0.0900
   54CHL1  H19A 5143   1.483   0.766   3.167  0.0109  0.5598  0.3009
   54CHL1  H19B 5144   1.475   0.646   3.297  0.4595 -0.8429 -2.8310
   54CHL1  H19C 5145   1.511   0.825   3.327  0.3472  1.1487 -0.8865
   54CHL1    C1 5146   1.755   0.815   3.193 -0.3859  0.0563  0.7667
   54CHL1   H1A 5147   1.732   0.911   3.244 -1.3021 -0.3353  1.0984
   54CHL1   H1B 5148   1.863   0.799   3.214 -0.3249 -0.3090  0.1703
   54CHL1    C2 5149   1.726   0.833   3.042  0.0640  0.2959  0.3449
   54CHL1   H2A 5150   1.800   0.909   3.008 -0.2954  0.2641 -0.5298
   54CHL1   H2B 5151   1.623   0.870   3.025 -0.0583  0.2770  1.0171
   54CHL1   C20 5152   1.709   0.675   3.983 -0.1754  0.3885 -0.5290
   54CHL1   H20 5153   1.598   0.669   3.991 -0.2982 -1.1762 -2.6737
   54CHL1   C21 5154   1.717   0.835   3.998  0.5526 -0.2398 -0.1201
   54CHL1  H21A 5155   1.668   0.874   3.906  0.6676  0.6691  0.1963
   54CHL1  H21B 5156   1.824   0.863   3.994  0.7581 -1.0111 -0.3183
   54CHL1  H21C 5157   1.666   0.876   4.087  0.3053  0.2448 -0.4851
   54CHL1   C22 5158   1.767   0.602   4.114 -0.6948  0.2248 -0.9389
   54CHL1  H22A 5159   1.774   0.492   4.102 -0.7465 -0.0005  0.8524
   54CHL1  H22B 5160   1.870   0.642   4.125 -0.3422 -0.6653 -0.9374
   54CHL1   C23 5161   1.686   0.631   4.238 -0.7740 -0.1358 -0.0033
   54CHL1  H23A 5162   1.681   0.740   4.255  0.5570 -0.1284  0.4794
   54CHL1  H23B 5163   1.583   0.592   4.221 -0.5072 -0.4457 -0.9563
   54CHL1   C24 5164   1.757   0.569   4.364 -0.0523  0.4077  0.7617
   54CHL1  H24A 5165   1.810   0.482   4.320  1.3459  0.4185  2.3341
   54CHL1  H24B 5166   1.827   0.645   4.406 -1.7382  0.9525  2.7143
   54CHL1   C25 5167   1.670   0.506   4.472 -0.3728 -0.2609 -0.1810
   54CHL1   H25 5168   1.613   0.593   4.510  1.8600  0.7808  1.0019
   54CHL1   C26 5169   1.575   0.405   4.409 -0.6173  0.2506  0.1409
   54CHL1  H26A 5170   1.491   0.460   4.361 -0.0308  0.9943 -0.0454
   54CHL1  H26B 5171   1.634   0.330   4.352  1.9140  1.0343  1.5828
   54CHL1  H26C 5172   1.531   0.342   4.489 -0.2963  0.6582  0.6402
   54CHL1   C27 5173   1.751   0.460   4.596 -0.4891  0.1509  0.4857
   54CHL1  H27A 5174   1.817   0.379   4.558 -0.7268  1.2400 -2.4310
   54CHL1  H27B 5175   1.819   0.542   4.628  0.3881 -0.8639  1.2958
   54CHL1  H27C 5176   1.677   0.436   4.676 -0.0763 -0.7005  0.6227
   55CHL1    C3 5177   5.891   3.965   3.209  0.1789  0.2946 -0.0275
   55CHL1    H3 5178   5.854   4.069   3.221  3.0108  1.3567  0.0903
   55CHL1    O3 5179   5.881   3.928   3.070  0.2146  0.0903 -0.0681
   55CHL1   H3' 5180   5.889   3.834   3.055  2.7373  0.4196 -1.4226
   55CHL1    C4 5181   6.046   3.956   3.245 -0.6705  0.3149  0.2546
   55CHL1   H4A 5182   6.077   3.853   3.221 -0.0673  0.3246  0.9345
   55CHL1   H4B 5183   6.102   4.030   3.183  1.6160 -1.0282  0.6122
   55CHL1    C5 5184   6.066   3.979   3.394 -0.4278  0.3092 -0.2888
   55CHL1    C6 5185   6.153   4.073   3.433 -0.2890  0.0043 -0.5039
   55CHL1    H6 5186   6.219   4.117   3.357 -0.2058 -1.6948 -1.4473
   55CHL1    C7 5187   6.188   4.105   3.578  0.5515 -0.1729  0.0904
   55CHL1   H7A 5188   6.297   4.102   3.597  0.8792 -0.8853 -1.7534
   55CHL1   H7B 5189   6.153   4.205   3.612 -0.0650 -1.2500  2.9874
   55CHL1    C8 5190   6.118   4.002   3.680  0.7354  0.3871 -0.5948
   55CHL1    H8 5191   6.179   3.909   3.678  1.3785  0.8049 -0.8169
   55CHL1   C14 5192   6.103   4.059   3.815  0.0768  0.0860 -0.3397
   55CHL1   H14 5193   6.039   4.148   3.802 -1.1917 -0.8261 -0.5185
   55CHL1   C15 5194   6.235   4.117   3.878  0.9464  0.2089 -0.4384
   55CHL1  H15A 5195   6.306   4.034   3.860  0.6642  0.2073 -1.6689
   55CHL1  H15B 5196   6.276   4.209   3.830 -4.0209  2.8862 -0.2143
   55CHL1   C16 5197   6.203   4.123   4.029 -0.7908 -0.2872 -0.5235
   55CHL1  H16A 5198   6.283   4.069   4.085  0.5707  2.8763  0.7925
   55CHL1  H16B 5199   6.209   4.223   4.076 -1.3898 -0.9517  1.0557
   55CHL1   C17 5200   6.066   4.057   4.041 -0.0097 -0.2667 -0.0696
   55CHL1   H17 5201   5.991   4.138   4.036  0.3343  0.0762  0.2484
   55CHL1   C13 5202   6.043   3.971   3.915  0.6532 -0.7093  0.1295
   55CHL1   C18 5203   6.119   3.835   3.928 -0.8062  0.2058  0.3330
   55CHL1  H18A 5204   6.228   3.850   3.947 -1.1186  1.2408  1.4434
   55CHL1  H18B 5205   6.074   3.778   4.012 -1.2764  1.5000  0.9786
   55CHL1  H18C 5206   6.099   3.782   3.832  1.0446  1.8481 -1.0487
   55CHL1   C12 5207   5.896   3.948   3.873  0.1973 -0.2188 -0.6679
   55CHL1  H12A 5208   5.835   3.881   3.937  1.4720 -0.0577  0.7595
   55CHL1  H12B 5209   5.838   4.042   3.861 -2.6313 -1.4519  1.9097
   55CHL1   C11 5210   5.892   3.886   3.729 -0.3430 -0.4003 -0.3009
   55CHL1  H11A 5211   5.923   3.780   3.737  1.8775  0.1983 -0.1231
   55CHL1  H11B 5212   5.787   3.878   3.695  0.7017 -2.2342 -3.5383
   55CHL1    C9 5213   5.976   3.971   3.629 -0.0738 -0.3003 -0.9549
   55CHL1    H9 5214   5.917   4.065   3.619  1.5989  0.9947  0.7720
   55CHL1   C10 5215   5.974   3.901   3.489  0.0867  0.1432 -0.0982
   55CHL1   C19 5216   6.026   3.758   3.503 -0.2606  0.7902 -0.1819
   55CHL1  H19A 5217   5.947   3.698   3.552  0.0541 -0.5740 -1.2729
   55CHL1  H19B 5218   6.037   3.711   3.402 -2.9570 -0.6108  0.0982
   55CHL1  H19C 5219   6.126   3.759   3.553 -0.1165  1.0265 -0.4709
   55CHL1    C1 5220   5.828   3.900   3.433 -0.1379  0.3023  0.3400
   55CHL1   H1A 5221   5.772   3.819   3.483  0.8297 -1.1571 -0.8724
   55CHL1   H1B 5222   5.774   3.996   3.452 -1.3394 -0.1833 -0.5025
   55CHL1    C2 5223   5.811   3.861   3.286  0.5437  0.4416 -0.2125
   55CHL1   H2A 5224   5.704   3.867   3.256  0.0399  1.0151  1.5663
   55CHL1   H2B 5225   5.853   3.763   3.257  0.2295  0.9461 -2.5140
   55CHL1   C20 5226   6.032   3.986   4.169 -0.8621 -0.2255 -0.2185
   55CHL1   H20 5227   5.942   3.924   4.149 -2.3008  1.5649  0.3926
   55CHL1   C21 5228   5.980   4.095   4.268  0.3730 -0.3944 -0.5167
   55CHL1  H21A 5229   5.932   4.042   4.353 -1.2151  3.6714  1.4219
   55CHL1  H21B 5230   5.905   4.167   4.228  0.3847  0.3125  0.6794
   55CHL1  H21C 5231   6.069   4.147   4.309  1.0422 -2.5457  0.9227
   55CHL1   C22 5232   6.151   3.920   4.252  0.3448 -0.0712  0.4313
   55CHL1  H22A 5233   6.218   3.866   4.182 -0.8963 -1.8805  0.5646
   55CHL1  H22B 5234   6.217   3.993   4.305  1.3553 -1.1513  0.7004
   55CHL1   C23 5235   6.103   3.805   4.339 -0.2468  0.1456  0.0167
   55CHL1  H23A 5236   6.046   3.848   4.424 -0.4210 -1.6962  0.8844
   55CHL1  H23B 5237   6.028   3.745   4.283 -1.7668  1.7423  0.2644
   55CHL1   C24 5238   6.217   3.706   4.378 -0.0762  0.6828  0.1418
   55CHL1  H24A 5239   6.266   3.667   4.285  1.3106 -0.2695  1.2243
   55CHL1  H24B 5240   6.294   3.753   4.443 -0.6126  1.9593 -0.1049
   55CHL1   C25 5241   6.163   3.590   4.456  0.2695  0.1140 -0.9065
   55CHL1   H25 5242   6.074   3.545   4.407 -0.2203 -0.0221  0.0764
   55CHL1   C26 5243   6.270   3.483   4.483 -0.1613  0.3204  0.1910
   55CHL1  H26A 5244   6.226   3.429   4.569 -3.3252  0.5884 -1.1291
   55CHL1  H26B 5245   6.296   3.419   4.395  2.3155  2.3344 -0.6522
   55CHL1  H26C 5246   6.359   3.533   4.526 -0.7787 -0.6900  2.8469
   55CHL1   C27 5247   6.121   3.645   4.598  0.0459  0.1895 -0.3910
   55CHL1  H27A 5248   6.195   3.675   4.675 -1.0499  3.9889 -0.6072
   55CHL1  H27B 5249   6.058   3.736   4.588  1.7385  1.3214 -1.2624
   55CHL1  H27C 5250   6.056   3.571   4.650  0.0551  0.3284 -0.1789
   56CHL1    C3 5251   5.559   4.339   3.163 -0.0017  0.3011 -0.2962
   56CHL1    H3 5252   5.452   4.324   3.141 -0.6015  1.5930  1.4778
   56CHL1    O3 5253   5.630   4.338   3.042  0.0759  0.5949  0.1319
   56CHL1   H3' 5254   5.614   4.424   3.002 -0.9533  0.6062  0.5577
   56CHL1    C4 5255   5.586   4.466   3.241 -0.4942 -0.2046 -0.0407
   56CHL1   H4A 5256   5.695   4.484   3.239  0.0004 -2.5838 -3.5717
   56CHL1   H4B 5257   5.551   4.553   3.181  4.1828  1.0217 -1.3755
   56CHL1    C5 5258   5.542   4.456   3.386  0.0870 -0.3350 -0.0543
   56CHL1    C6 5259   5.461   4.547   3.440 -0.0996 -0.4948 -1.0827
   56CHL1    H6 5260   5.428   4.636   3.384 -2.4026 -0.1390  0.6519
   56CHL1    C7 5261   5.425   4.547   3.584  0.3725  0.1236 -0.5940
   56CHL1   H7A 5262   5.439   4.647   3.630  0.6399  0.3261 -1.1092
   56CHL1   H7B 5263   5.321   4.513   3.600  1.5189 -3.5191  0.1964
   56CHL1    C8 5264   5.510   4.444   3.673  0.1807  0.5483  0.9122
   56CHL1    H8 5265   5.609   4.489   3.699 -0.3783  1.9733  0.6729
   56CHL1   C14 5266   5.437   4.405   3.802  0.0090 -0.6564  0.0560
   56CHL1   H14 5267   5.351   4.346   3.764  0.2682 -1.8049  1.1767
   56CHL1   C15 5268   5.384   4.519   3.888  0.0786  0.4587  0.1359
   56CHL1  H15A 5269   5.470   4.588   3.900  0.4942 -0.1524  0.7102
   56CHL1  H15B 5270   5.296   4.577   3.852  1.8154  2.8950 -0.3827
   56CHL1   C16 5271   5.357   4.448   4.026  0.7351  0.7527  0.0533
   56CHL1  H16A 5272   5.413   4.510   4.099  1.3627  0.3648 -0.0923
   56CHL1  H16B 5273   5.250   4.430   4.052  0.7950  0.5867  0.1779
   56CHL1   C17 5274   5.420   4.305   4.009 -0.0834 -0.3824  0.0756
   56CHL1   H17 5275   5.339   4.243   3.965  1.9720 -2.5480 -0.9052
   56CHL1   C13 5276   5.524   4.318   3.896  0.8214  0.0969 -0.4203
   56CHL1   C18 5277   5.646   4.397   3.941  0.1376 -0.0438  0.4000
   56CHL1  H18A 5278   5.633   4.493   3.996  0.3437  0.4373 -0.3624
   56CHL1  H18B 5279   5.711   4.334   4.005  0.3576 -0.1367  0.0866
   56CHL1  H18C 5280   5.715   4.430   3.860  2.6369 -0.2589  2.3529
   56CHL1   C12 5281   5.555   4.189   3.830  0.2899 -0.6566 -0.8082
   56CHL1  H12A 5282   5.613   4.128   3.903 -0.9573  0.7693  1.4823
   56CHL1  H12B 5283   5.463   4.130   3.812 -1.6645  2.2844 -1.2355
   56CHL1   C11 5284   5.615   4.200   3.688  0.1011 -1.0029  0.4866
   56CHL1  H11A 5285   5.719   4.239   3.696 -0.6600  1.9960 -2.2304
   56CHL1  H11B 5286   5.633   4.101   3.643  2.3776 -1.1040  1.4622
   56CHL1    C9 5287   5.542   4.311   3.601  0.9530  0.6090  0.0811
   56CHL1    H9 5288   5.446   4.258   3.587  0.8540  0.4530  1.2279
   56CHL1   C10 5289   5.603   4.328   3.464  0.4814 -0.4414 -0.8394
   56CHL1   C19 5290   5.751   4.355   3.479  0.1407 -0.8005  0.1656
   56CHL1  H19A 5291   5.780   4.438   3.547  2.0076  0.0760 -1.5978
   56CHL1  H19B 5292   5.806   4.262   3.504 -0.6273 -1.2655  0.1537
   56CHL1  H19C 5293   5.799   4.375   3.381 -0.5864 -2.4005 -0.5461
   56CHL1    C1 5294   5.563   4.203   3.377 -0.5927 -0.0047  0.0604
   56CHL1   H1A 5295   5.604   4.111   3.423  0.2291 -0.0954 -0.8064
   56CHL1   H1B 5296   5.453   4.196   3.367 -0.5409  0.8456 -1.7527
   56CHL1    C2 5297   5.622   4.218   3.235 -0.0696  0.8173 -0.2917
   56CHL1   H2A 5298   5.583   4.130   3.179  0.0909  0.2749  0.4273
   56CHL1   H2B 5299   5.733   4.222   3.241 -0.0949  0.4193  0.5034
   56CHL1   C20 5300   5.460   4.240   4.146 -0.5323  0.4449 -0.4624
   56CHL1   H20 5301   5.525   4.153   4.121  1.1236  0.8677  2.0148
   56CHL1   C21 5302   5.338   4.185   4.215  0.0050  0.2728  0.0157
   56CHL1  H21A 5303   5.363   4.119   4.301 -1.1506 -0.6837 -0.3591
   56CHL1  H21B 5304   5.284   4.123   4.140  2.8397 -0.2223 -1.7416
   56CHL1  H21C 5305   5.267   4.264   4.250 -0.4024 -0.1757  0.2170
   56CHL1   C22 5306   5.539   4.320   4.249 -0.7905 -0.1283 -0.5109
   56CHL1  H22A 5307   5.637   4.355   4.209 -0.6118 -0.3179 -0.2429
   56CHL1  H22B 5308   5.478   4.411   4.264  1.9532  2.0888 -1.7561
   56CHL1   C23 5309   5.567   4.238   4.378 -0.6537  0.1656  0.2715
   56CHL1  H23A 5310   5.476   4.233   4.442  0.2428  0.0499  1.5809
   56CHL1  H23B 5311   5.599   4.134   4.356 -0.8370 -0.0811  1.1501
   56CHL1   C24 5312   5.679   4.293   4.469 -0.0469  0.8392 -1.1408
   56CHL1  H24A 5313   5.776   4.309   4.417 -0.0686  0.4085 -1.3189
   56CHL1  H24B 5314   5.647   4.392   4.509 -1.6915 -0.7628  1.8933
   56CHL1   C25 5315   5.712   4.204   4.589  0.0713 -0.1134  0.7938
   56CHL1   H25 5316   5.748   4.106   4.550 -1.3848 -0.7359  0.9510
   56CHL1   C26 5317   5.827   4.268   4.674  0.4416  0.6075  0.0567
   56CHL1  H26A 5318   5.917   4.269   4.608 -0.8025 -1.5592 -1.8374
   56CHL1  H26B 5319   5.815   4.377   4.693  0.3190  0.5455  0.3353
   56CHL1  H26C 5320   5.833   4.201   4.762 -2.2918  1.8291  1.2721
   56CHL1   C27 5321   5.583   4.169   4.670 -0.8294 -0.5878  0.0478
   56CHL1  H27A 5322   5.538   4.262   4.710  1.0604  0.9240 -1.1794
   56CHL1  H27B 5323   5.511   4.112   4.607 -0.0339 -1.7727  0.1893
   56CHL1  H27C 5324   5.613   4.121   4.766 -1.7270  1.3998  1.3925
   57CHL1    C3 5325   5.530   1.585   2.793 -0.3515  1.3327 -0.0684
   57CHL1    H3 5326   5.449   1.520   2.833  0.8543  0.1490  0.5962
   57CHL1    O3 5327   5.539   1.572   2.649  0.4245 -0.4108 -0.2981
   57CHL1   H3' 5328   5.562   1.480   2.632 -0.3247 -0.4727 -1.0753
   57CHL1    C4 5329   5.507   1.726   2.832 -0.8189  0.8799  0.2863
   57CHL1   H4A 5330   5.591   1.779   2.781  1.4022 -1.7176  0.9808
   57CHL1   H4B 5331   5.410   1.760   2.790 -1.2935 -0.9632 -0.1770
   57CHL1    C5 5332   5.507   1.732   2.987  0.4178  0.5152  0.1553
   57CHL1    C6 5333   5.403   1.780   3.054 -0.8398  0.1067  0.1384
   57CHL1    H6 5334   5.318   1.815   2.993 -0.7211 -0.1461 -0.1734
   57CHL1    C7 5335   5.388   1.791   3.200  0.0895  0.4657 -0.3408
   57CHL1   H7A 5336   5.335   1.885   3.225 -2.1073 -0.2881 -1.8697
   57CHL1   H7B 5337   5.327   1.704   3.233  0.6704  0.1470 -0.0813
   57CHL1    C8 5338   5.524   1.785   3.268 -0.4623  0.6920 -0.1017
   57CHL1    H8 5339   5.588   1.873   3.243  3.7461 -2.0566  0.0062
   57CHL1   C14 5340   5.513   1.786   3.418 -0.5409 -0.1556 -0.5258
   57CHL1   H14 5341   5.447   1.699   3.435 -1.9471  0.6809 -1.5004
   57CHL1   C15 5342   5.435   1.905   3.481  0.3621  0.6803 -0.2428
   57CHL1  H15A 5343   5.470   2.000   3.437 -1.4673  0.6597 -1.8384
   57CHL1  H15B 5344   5.328   1.887   3.458  0.7005 -1.2412 -0.4823
   57CHL1   C16 5345   5.478   1.900   3.630  0.6586 -0.2561 -0.1883
   57CHL1  H16A 5346   5.519   2.001   3.651  0.5352 -0.3758  0.6675
   57CHL1  H16B 5347   5.393   1.882   3.698  0.3507  0.4866 -0.3618
   57CHL1   C17 5348   5.590   1.785   3.637  0.2207 -0.0445 -0.2703
   57CHL1   H17 5349   5.533   1.694   3.664  1.1348  0.1258  2.5377
   57CHL1   C13 5350   5.642   1.769   3.496  0.3472  0.6220  0.4545
   57CHL1   C18 5351   5.747   1.880   3.469  0.0115 -0.2493 -0.0989
   57CHL1  H18A 5352   5.847   1.846   3.502  0.2962 -2.4006 -2.8186
   57CHL1  H18B 5353   5.741   1.898   3.359 -0.9957 -1.1431 -0.2053
   57CHL1  H18C 5354   5.712   1.978   3.510 -0.9615  0.8204 -3.1867
   57CHL1   C12 5355   5.702   1.630   3.448  0.0326  0.2448  0.4119
   57CHL1  H12A 5356   5.801   1.610   3.494  1.0138  1.1061 -1.2010
   57CHL1  H12B 5357   5.637   1.547   3.482  0.1235  0.0764  0.1780
   57CHL1   C11 5358   5.731   1.635   3.300  0.3946 -0.2691  0.2053
   57CHL1  H11A 5359   5.795   1.725   3.283 -0.9624  0.9713  1.4409
   57CHL1  H11B 5360   5.769   1.540   3.257 -2.5349 -1.2080 -0.5590
   57CHL1    C9 5361   5.604   1.665   3.215  0.1741 -0.2372  0.0409
   57CHL1    H9 5362   5.540   1.575   3.233  1.2375 -1.0938 -0.3439
   57CHL1   C10 5363   5.626   1.674   3.060  0.1229  0.4204  0.0673
   57CHL1   C19 5364   5.745   1.770   3.026  0.1153 -0.5275 -0.1763
   57CHL1  H19A 5365   5.730   1.856   3.095 -1.3103  0.2918 -1.4623
   57CHL1  H19B 5366   5.847   1.733   3.052  0.1002  1.3643  3.1745
   57CHL1  H19C 5367   5.752   1.790   2.917  1.3381  0.1968  0.0160
   57CHL1    C1 5368   5.651   1.527   3.007  0.0660 -0.3198 -0.2704
   57CHL1   H1A 5369   5.752   1.504   3.048  1.0490  2.3372 -1.0406
   57CHL1   H1B 5370   5.577   1.456   3.051 -0.3856  0.4458  0.2185
   57CHL1    C2 5371   5.661   1.522   2.858 -0.8537  0.6413 -0.7439
   57CHL1   H2A 5372   5.663   1.416   2.825 -0.6390  0.8589 -1.4387
   57CHL1   H2B 5373   5.744   1.578   2.808 -1.6145  2.7766  0.2546
   57CHL1   C20 5374   5.690   1.813   3.752  0.1668  0.0755  0.4555
   57CHL1   H20 5375   5.740   1.909   3.725  0.3231  0.1097  0.8609
   57CHL1   C21 5376   5.785   1.695   3.769 -0.0981 -0.4818 -0.2378
   57CHL1  H21A 5377   5.863   1.697   3.689  2.2663 -1.4398  1.9019
   57CHL1  H21B 5378   5.735   1.596   3.764  0.1803 -0.7525  1.5795
   57CHL1  H21C 5379   5.852   1.706   3.856  0.7947  1.4873 -1.1161
   57CHL1   C22 5380   5.631   1.844   3.890 -0.2166  0.2724  0.1143
   57CHL1  H22A 5381   5.544   1.908   3.863 -0.0630  0.4352  0.0084
   57CHL1  H22B 5382   5.575   1.758   3.933 -0.0942 -0.9615 -2.0414
   57CHL1   C23 5383   5.719   1.907   3.998  0.4236 -0.2240 -0.3651
   57CHL1  H23A 5384   5.650   1.944   4.077 -0.2272 -1.3588 -0.3812
   57CHL1  H23B 5385   5.776   1.821   4.039 -0.2651 -1.8830 -2.6471
   57CHL1   C24 5386   5.806   2.029   3.968  0.6299  0.2518  0.1267
   57CHL1  H24A 5387   5.877   2.006   3.885  0.6812  0.7626  0.0211
   57CHL1  H24B 5388   5.751   2.121   3.939  1.1116  0.7288  0.6952
   57CHL1   C25 5389   5.899   2.075   4.090 -0.5171 -0.0454 -1.0846
   57CHL1   H25 5390   5.941   1.980   4.130 -0.3859  0.7802  0.8016
   57CHL1   C26 5391   6.014   2.164   4.038  0.4852 -0.6472 -0.0615
   57CHL1  H26A 5392   5.977   2.256   3.989 -1.7048 -1.8485 -0.7986
   57CHL1  H26B 5393   6.076   2.186   4.127  0.5733  1.7100 -0.6599
   57CHL1  H26C 5394   6.078   2.113   3.962 -0.0006 -0.1633 -0.8058
   57CHL1   C27 5395   5.801   2.152   4.180  0.0105 -0.1485 -0.0987
   57CHL1  H27A 5396   5.740   2.085   4.244 -2.8940  2.7494  0.3916
   57CHL1  H27B 5397   5.865   2.214   4.246  0.7425 -0.2595 -0.6785
   57CHL1  H27C 5398   5.729   2.216   4.125  1.2980  0.4968 -1.1002
   58CHL1    C3 5399   4.622   2.015   3.124 -0.5927 -0.7078  0.1742
   58CHL1    H3 5400   4.530   2.055   3.172  0.4524 -0.0454  1.7094
   58CHL1    O3 5401   4.608   2.011   2.983 -0.2057 -0.1676 -0.2058
   58CHL1   H3' 5402   4.680   1.961   2.944 -0.2632  0.3371 -0.9884
   58CHL1    C4 5403   4.756   2.101   3.135  0.5656  0.5505 -0.0630
   58CHL1   H4A 5404   4.834   2.043   3.081  2.6623  0.8994  2.3975
   58CHL1   H4B 5405   4.745   2.196   3.079  0.7916  0.9794  0.6110
   58CHL1    C5 5406   4.804   2.116   3.279  0.2520  0.0584 -0.1046
   58CHL1    C6 5407   4.794   2.232   3.338  0.6597 -0.2812 -0.1221
   58CHL1    H6 5408   4.775   2.325   3.282 -0.5913  0.4526  1.4560
   58CHL1    C7 5409   4.838   2.244   3.479  0.3647 -0.3333 -0.0525
   58CHL1   H7A 5410   4.921   2.317   3.481  0.5281 -0.3804 -2.1850
   58CHL1   H7B 5411   4.757   2.283   3.545  0.4963  3.2455 -1.7912
   58CHL1    C8 5412   4.905   2.125   3.550 -0.2797  0.0241  0.0390
   58CHL1    H8 5413   5.013   2.117   3.522 -0.1857 -1.5772  0.7278
   58CHL1   C14 5414   4.905   2.137   3.696 -0.0166 -0.2086  0.4542
   58CHL1   H14 5415   4.801   2.135   3.735  0.1391  0.1752  0.8995
   58CHL1   C15 5416   4.952   2.273   3.760  0.1762  0.0570  0.4439
   58CHL1  H15A 5417   5.042   2.324   3.722 -0.6333  1.4952  0.3893
   58CHL1  H15B 5418   4.862   2.338   3.752 -0.0272 -0.3523 -0.8215
   58CHL1   C16 5419   4.984   2.239   3.907 -0.3673  0.6577 -0.6049
   58CHL1  H16A 5420   5.091   2.253   3.935 -0.0980  0.5260 -1.5360
   58CHL1  H16B 5421   4.919   2.298   3.976  1.5776  0.8666  1.1589
   58CHL1   C17 5422   4.959   2.084   3.923  0.5493  0.2493  0.3567
   58CHL1   H17 5423   4.851   2.066   3.942  0.2148  0.8102 -0.9116
   58CHL1   C13 5424   4.975   2.032   3.777  0.2600 -0.1213 -0.0473
   58CHL1   C18 5425   5.129   2.014   3.743 -0.1163 -0.3814 -0.1653
   58CHL1  H18A 5426   5.172   2.115   3.760 -1.8063  0.3058  0.2236
   58CHL1  H18B 5427   5.161   1.936   3.815 -1.8381  0.0213  1.0964
   58CHL1  H18C 5428   5.146   1.989   3.636 -3.3659 -0.4957 -0.7434
   58CHL1   C12 5429   4.897   1.904   3.740  0.3696  0.7513 -0.0834
   58CHL1  H12A 5430   4.944   1.814   3.785  0.0887  0.2005 -0.8718
   58CHL1  H12B 5431   4.795   1.913   3.782  1.1506 -1.3516  2.5190
   58CHL1   C11 5432   4.889   1.883   3.592  0.7136  0.3010  0.4803
   58CHL1  H11A 5433   4.994   1.864   3.560 -0.0077  1.0038 -2.5840
   58CHL1  H11B 5434   4.844   1.784   3.570 -1.1212  0.2116  4.0145
   58CHL1    C9 5435   4.831   1.995   3.507  0.0610 -0.4494 -0.1649
   58CHL1    H9 5436   4.727   2.007   3.544  0.1588  3.4542 -0.7927
   58CHL1   C10 5437   4.829   1.977   3.350  0.4219 -0.5502 -0.8820
   58CHL1   C19 5438   4.963   1.935   3.297 -0.2630  1.2124  0.2253
   58CHL1  H19A 5439   4.953   1.907   3.189  2.2741  0.2081  0.1586
   58CHL1  H19B 5440   5.038   2.017   3.292  0.1511  0.7845 -2.1492
   58CHL1  H19C 5441   4.996   1.844   3.352 -0.3141  0.9869 -0.1143
   58CHL1    C1 5442   4.715   1.873   3.317 -0.2918 -0.1818  0.5553
   58CHL1   H1A 5443   4.748   1.770   3.342  0.4886 -0.3543 -1.0620
   58CHL1   H1B 5444   4.631   1.916   3.376 -0.8856  1.3525 -1.3039
   58CHL1    C2 5445   4.660   1.877   3.172 -0.5112  0.1700 -0.7466
   58CHL1   H2A 5446   4.568   1.816   3.185 -0.6506  0.4366 -0.4424
   58CHL1   H2B 5447   4.722   1.831   3.093  1.9503 -3.2117  2.7659
   58CHL1   C20 5448   5.031   2.021   4.040 -0.0730 -0.2906 -0.6689
   58CHL1   H20 5449   5.140   2.019   4.017 -0.3321 -0.7096 -1.9302
   58CHL1   C21 5450   4.994   1.872   4.069  0.7611  0.7929 -0.5948
   58CHL1  H21A 5451   4.892   1.853   4.029  1.4799 -2.0458 -1.3035
   58CHL1  H21B 5452   5.009   1.848   4.176  1.3324  0.1896 -0.8043
   58CHL1  H21C 5453   5.057   1.795   4.019 -1.5409 -2.4505  1.1318
   58CHL1   C22 5454   5.015   2.105   4.172  0.3352 -0.1349 -0.0338
   58CHL1  H22A 5455   5.072   2.063   4.259 -0.0514  0.6055  0.5895
   58CHL1  H22B 5456   5.083   2.193   4.161  1.1448 -0.5013  1.6173
   58CHL1   C23 5457   4.873   2.126   4.222 -0.3183 -0.7216  0.2985
   58CHL1  H23A 5458   4.805   2.177   4.150 -0.5011 -1.4185 -0.0229
   58CHL1  H23B 5459   4.834   2.026   4.249 -1.2900 -0.5720 -0.5352
   58CHL1   C24 5460   4.872   2.206   4.357 -0.1371  0.1891 -0.1249
   58CHL1  H24A 5461   4.768   2.237   4.383 -0.4229 -2.2061  1.9357
   58CHL1  H24B 5462   4.924   2.157   4.441 -1.8134  0.5611  1.1874
   58CHL1   C25 5463   4.938   2.348   4.351  0.5781 -0.5476 -0.2099
   58CHL1   H25 5464   5.035   2.337   4.298 -0.2218 -0.6051 -1.7253
   58CHL1   C26 5465   4.852   2.442   4.261  0.5095  0.2294 -0.0725
   58CHL1  H26A 5466   4.883   2.548   4.268  0.2585  0.3620 -0.9280
   58CHL1  H26B 5467   4.870   2.414   4.155  1.4064  0.5130 -0.0061
   58CHL1  H26C 5468   4.743   2.436   4.282  0.5300  0.0764 -0.0126
   58CHL1   C27 5469   4.942   2.414   4.491 -0.3283  0.1818 -0.3567
   58CHL1  H27A 5470   5.034   2.381   4.545 -0.8943 -1.1168 -0.1634
   58CHL1  H27B 5471   4.934   2.524   4.477 -0.8033  0.2685  0.4994
   58CHL1  H27C 5472   4.854   2.376   4.548  0.3661 -1.7272 -0.4698
   59CHL1    C3 5473   4.283   2.451   3.015  0.4368  0.7693 -0.0403
   59CHL1    H3 5474   4.329   2.536   3.069 -1.4497  1.2365  0.9316
   59CHL1    O3 5475   4.309   2.469   2.875  0.3204 -0.1497 -0.2146
   59CHL1   H3' 5476   4.275   2.390   2.831 -0.1533 -0.8989  1.3791
   59CHL1    C4 5477   4.339   2.311   3.057 -0.0147 -0.6252  0.0920
   59CHL1   H4A 5478   4.280   2.235   3.001  0.8719 -0.1724 -1.4916
   59CHL1   H4B 5479   4.445   2.297   3.027 -0.2078 -0.2629 -0.7897
   59CHL1    C5 5480   4.313   2.292   3.210 -0.5038  0.4952  0.7942
   59CHL1    C6 5481   4.413   2.269   3.303  0.7336  0.5817 -0.1835
   59CHL1    H6 5482   4.517   2.266   3.268 -0.2098 -2.7556 -3.3513
   59CHL1    C7 5483   4.385   2.256   3.454  0.9805 -0.5737  0.2456
   59CHL1   H7A 5484   4.436   2.165   3.490 -0.7639 -2.3515 -1.4965
   59CHL1   H7B 5485   4.413   2.349   3.508 -0.4126  0.6631 -1.0295
   59CHL1    C8 5486   4.235   2.236   3.486 -0.8394  0.0759 -0.2206
   59CHL1    H8 5487   4.210   2.131   3.459  2.8665 -0.8953 -0.3903
   59CHL1   C14 5488   4.204   2.252   3.631 -0.1831  0.3506 -0.2536
   59CHL1   H14 5489   4.218   2.360   3.655 -2.0238  0.1059  2.4223
   59CHL1   C15 5490   4.300   2.185   3.731 -0.2400  0.1760 -0.5005
   59CHL1  H15A 5491   4.337   2.087   3.694  1.7177  0.6516  0.0792
   59CHL1  H15B 5492   4.388   2.252   3.740  0.5175 -0.5864 -1.8808
   59CHL1   C16 5493   4.210   2.182   3.860  0.3045  0.5737 -0.6843
   59CHL1  H16A 5494   4.201   2.079   3.901 -1.6739  0.7547 -0.5376
   59CHL1  H16B 5495   4.255   2.256   3.929  0.2446 -0.6801  0.7644
   59CHL1   C17 5496   4.064   2.238   3.824  0.2096  0.4028  0.0867
   59CHL1   H17 5497   4.077   2.347   3.844  2.1931 -0.0133  1.3285
   59CHL1   C13 5498   4.062   2.210   3.674 -0.8630  0.8623  0.4100
   59CHL1   C18 5499   4.035   2.057   3.649 -0.3087 -0.4676  0.3603
   59CHL1  H18A 5500   4.038   2.043   3.539  1.3483  1.7762  0.0567
   59CHL1  H18B 5501   4.113   1.999   3.705 -1.0811 -0.5496  1.3910
   59CHL1  H18C 5502   3.929   2.037   3.676 -0.0460 -0.8326  1.1620
   59CHL1   C12 5503   3.968   2.307   3.593 -0.4725  0.1726 -0.3557
   59CHL1  H12A 5504   3.865   2.265   3.598 -0.2630 -0.4588 -1.0325
   59CHL1  H12B 5505   3.970   2.411   3.632  0.2410  0.7994 -1.9786
   59CHL1   C11 5506   3.998   2.295   3.446  0.1273 -0.1846  0.4418
   59CHL1  H11A 5507   3.953   2.198   3.416 -3.4281  1.3816  0.2402
   59CHL1  H11B 5508   3.937   2.376   3.399  3.4818  1.7464 -0.9001
   59CHL1    C9 5509   4.144   2.318   3.405  0.1239 -0.6056 -0.1731
   59CHL1    H9 5510   4.186   2.419   3.428 -1.0203 -0.6820  2.7662
   59CHL1   C10 5511   4.158   2.307   3.255 -0.6684  0.4375  0.2510
   59CHL1   C19 5512   4.090   2.174   3.195  0.4724 -0.1268  0.8546
   59CHL1  H19A 5513   3.979   2.175   3.199  0.3414  0.4541 -1.3287
   59CHL1  H19B 5514   4.117   2.165   3.087 -1.2147 -0.3407  0.4225
   59CHL1  H19C 5515   4.136   2.085   3.241  1.3718  0.5507  1.2993
   59CHL1    C1 5516   4.094   2.431   3.191 -0.3765  0.3625 -0.4248
   59CHL1   H1A 5517   3.984   2.424   3.201 -0.3863  1.1290  0.0621
   59CHL1   H1B 5518   4.120   2.524   3.246  0.2955  1.8467 -3.0644
   59CHL1    C2 5519   4.127   2.455   3.037 -0.1543 -0.0855 -0.3700
   59CHL1   H2A 5520   4.089   2.553   3.000 -0.7677 -0.0635  0.3046
   59CHL1   H2B 5521   4.089   2.376   2.969  3.2844 -0.9586 -1.4764
   59CHL1   C20 5522   3.949   2.176   3.910 -0.1521  0.1635 -0.4228
   59CHL1   H20 5523   3.949   2.069   3.879  1.4397  0.1654 -0.5540
   59CHL1   C21 5524   3.816   2.248   3.872  0.0442 -0.1453  0.5512
   59CHL1  H21A 5525   3.832   2.358   3.871  0.7611 -0.2484  0.5211
   59CHL1  H21B 5526   3.736   2.220   3.944 -2.0622  2.4521 -0.5990
   59CHL1  H21C 5527   3.767   2.209   3.780 -1.5725 -1.6797  1.9910
   59CHL1   C22 5528   3.978   2.184   4.061 -0.4905 -0.4205 -0.6105
   59CHL1  H22A 5529   4.080   2.142   4.071  0.5726  1.6973 -1.8795
   59CHL1  H22B 5530   3.976   2.289   4.097  2.8386 -0.7575  0.9852
   59CHL1   C23 5531   3.884   2.102   4.150 -0.2521  0.7069  0.4727
   59CHL1  H23A 5532   3.779   2.140   4.151  0.1812  1.9754 -0.0930
   59CHL1  H23B 5533   3.888   2.000   4.108  2.7787  0.7965  0.3227
   59CHL1   C24 5534   3.929   2.101   4.294  0.9208 -0.6340 -0.1746
   59CHL1  H24A 5535   4.029   2.056   4.279  0.1345 -1.9031 -1.9656
   59CHL1  H24B 5536   3.928   2.206   4.329 -1.7624 -0.3255 -0.9344
   59CHL1   C25 5537   3.852   2.024   4.403  0.5278 -0.5533  1.1696
   59CHL1   H25 5538   3.748   2.060   4.413  0.7111  0.0247  1.0502
   59CHL1   C26 5539   3.849   1.879   4.370  0.0080 -0.2356 -0.1800
   59CHL1  H26A 5540   3.955   1.848   4.367  0.0996  0.0463  0.0917
   59CHL1  H26B 5541   3.792   1.823   4.448  0.8825  1.7398  2.0032
   59CHL1  H26C 5542   3.805   1.848   4.273 -1.9026 -0.3043  0.6545
   59CHL1   C27 5543   3.929   2.051   4.533  0.1521  0.1169  0.1076
   59CHL1  H27A 5544   3.906   1.974   4.610 -1.3240  0.3850 -0.0198
   59CHL1  H27B 5545   4.036   2.044   4.505 -0.2788  0.3954 -1.7124
   59CHL1  H27C 5546   3.897   2.153   4.565 -2.7013 -0.0518 -1.8615
   60CHL1    C3 5547   4.327   0.719   3.012 -0.3272 -0.0339  1.0479
   60CHL1    H3 5548   4.437   0.706   3.026 -0.1725  0.7178  0.5808
   60CHL1    O3 5549   4.317   0.793   2.887 -0.0725  0.5851 -0.4690
   60CHL1   H3' 5550   4.251   0.860   2.905 -1.3212 -0.5892 -0.5901
   60CHL1    C4 5551   4.254   0.581   3.011  0.4095  0.4216  0.0496
   60CHL1   H4A 5552   4.144   0.580   2.993 -0.1666  0.2910  3.1042
   60CHL1   H4B 5553   4.298   0.526   2.925 -0.8782  0.4546 -0.6545
   60CHL1    C5 5554   4.289   0.507   3.134  0.2339  0.5215 -0.4482
   60CHL1    C6 5555   4.355   0.389   3.124  0.2321  0.3136 -0.7179
   60CHL1    H6 5556   4.385   0.342   3.028 -0.3975 -1.8911  0.0964
   60CHL1    C7 5557   4.393   0.314   3.253  0.3054  0.0044  0.2439
   60CHL1   H7A 5558   4.385   0.204   3.240  0.8549 -0.4393  3.0023
   60CHL1   H7B 5559   4.500   0.341   3.267  1.2585 -2.6171 -1.2891
   60CHL1    C8 5560   4.312   0.351   3.383  0.4595 -1.0403  0.0064
   60CHL1    H8 5561   4.205   0.319   3.383 -0.1719  0.6927 -2.6665
   60CHL1   C14 5562   4.383   0.294   3.502 -0.1141  0.6806 -0.3021
   60CHL1   H14 5563   4.486   0.337   3.501 -0.3006  1.1909 -2.3275
   60CHL1   C15 5564   4.404   0.141   3.491 -1.0126  0.2069 -1.3829
   60CHL1  H15A 5565   4.306   0.089   3.477 -0.8990 -0.6733  0.6732
   60CHL1  H15B 5566   4.486   0.111   3.422  0.0728 -1.8583  0.6469
   60CHL1   C16 5567   4.455   0.108   3.638  0.1656  0.2936  0.8155
   60CHL1  H16A 5568   4.382   0.031   3.671 -0.3621  0.4121 -0.0567
   60CHL1  H16B 5569   4.559   0.069   3.638 -0.1640 -0.6254 -0.3951
   60CHL1   C17 5570   4.430   0.235   3.730 -0.1893 -0.2778  0.2547
   60CHL1   H17 5571   4.525   0.293   3.725  0.1163 -0.8502 -1.7318
   60CHL1   C13 5572   4.324   0.319   3.643 -0.3164  0.2394 -0.2650
   60CHL1   C18 5573   4.191   0.250   3.672  0.3703  0.8538 -0.6855
   60CHL1  H18A 5574   4.138   0.271   3.767 -2.2798  0.2253 -1.9210
   60CHL1  H18B 5575   4.111   0.282   3.601 -2.8861  1.0588  2.7712
   60CHL1  H18C 5576   4.209   0.141   3.670  4.4958  1.3419  0.6004
   60CHL1   C12 5577   4.323   0.478   3.657  0.3684  0.5063  0.4493
   60CHL1  H12A 5578   4.267   0.492   3.751  0.6138 -2.3735  1.1403
   60CHL1  H12B 5579   4.430   0.505   3.670  0.0539  1.1344  1.9136
   60CHL1   C11 5580   4.250   0.553   3.537  0.1901  0.6938  0.7317
   60CHL1  H11A 5581   4.145   0.517   3.539  0.7132 -0.8934  1.7208
   60CHL1  H11B 5582   4.255   0.664   3.549 -1.8470  0.7567  1.3243
   60CHL1    C9 5583   4.314   0.507   3.397  0.1233  0.1414 -0.5781
   60CHL1    H9 5584   4.424   0.526   3.388  0.4088 -1.4231 -0.5898
   60CHL1   C10 5585   4.248   0.578   3.265 -0.4894 -0.2280  0.2444
   60CHL1   C19 5586   4.095   0.585   3.286 -0.7088  0.0407  0.2230
   60CHL1  H19A 5587   4.077   0.661   3.364 -1.7656  0.3739 -0.3291
   60CHL1  H19B 5588   4.030   0.620   3.203  0.6564  0.3111 -0.7650
   60CHL1  H19C 5589   4.045   0.491   3.319  1.7038 -2.5639 -2.8696
   60CHL1    C1 5590   4.297   0.726   3.257  0.0556 -0.0016 -0.0093
   60CHL1   H1A 5591   4.253   0.776   3.345 -0.3547  0.7000 -0.6012
   60CHL1   H1B 5592   4.407   0.718   3.270  0.2575  1.4341 -0.6407
   60CHL1    C2 5593   4.264   0.801   3.123  0.2530  0.1724 -0.4022
   60CHL1   H2A 5594   4.306   0.902   3.137 -0.8257  1.0546 -2.9336
   60CHL1   H2B 5595   4.155   0.820   3.110  0.3521  0.3842 -0.9726
   60CHL1   C20 5596   4.409   0.196   3.875 -0.5241  0.4341 -0.5987
   60CHL1   H20 5597   4.320   0.130   3.888 -0.5909  0.8563  1.4180
   60CHL1   C21 5598   4.374   0.333   3.952 -0.1591  0.5534  0.0778
   60CHL1  H21A 5599   4.377   0.314   4.061  2.4338 -1.5603 -0.2651
   60CHL1  H21B 5600   4.269   0.360   3.930 -1.6125 -3.8845  0.5393
   60CHL1  H21C 5601   4.444   0.413   3.921  1.9253 -0.9021  0.7531
   60CHL1   C22 5602   4.533   0.120   3.936 -0.6199 -0.8398 -0.0074
   60CHL1  H22A 5603   4.522   0.088   4.042  0.3658  0.0065  0.3671
   60CHL1  H22B 5604   4.551   0.030   3.874  0.5746 -0.5758 -0.0579
   60CHL1   C23 5605   4.675   0.195   3.943  0.5239  0.4792  0.5451
   60CHL1  H23A 5606   4.683   0.233   3.839  1.8737 -2.0678 -0.3571
   60CHL1  H23B 5607   4.661   0.287   4.005 -0.9520  0.2842  0.5430
   60CHL1   C24 5608   4.793   0.110   3.988  0.6949  0.6417  0.2041
   60CHL1  H24A 5609   4.785   0.099   4.099 -1.8638 -0.1022  0.0068
   60CHL1  H24B 5610   4.783   0.013   3.937 -0.4951  0.8725 -0.0271
   60CHL1   C25 5611   4.933   0.167   3.959  0.1113  0.6448 -0.1781
   60CHL1   H25 5612   5.014   0.108   4.009 -0.6058  0.8893  1.3479
   60CHL1   C26 5613   4.957   0.165   3.806  0.2400 -0.3440 -0.0415
   60CHL1  H26A 5614   5.053   0.214   3.778 -1.8547  3.9116 -0.5601
   60CHL1  H26B 5615   4.950   0.059   3.772 -1.7643  0.0945 -1.1494
   60CHL1  H26C 5616   4.871   0.223   3.766  0.3995  0.6889  1.0848
   60CHL1   C27 5617   4.952   0.312   4.008 -0.6496 -0.6517  0.1748
   60CHL1  H27A 5618   5.054   0.350   3.983 -1.0620  0.3175 -0.0878
   60CHL1  H27B 5619   4.884   0.387   3.962 -1.0523 -0.6016  0.8309
   60CHL1  H27C 5620   4.961   0.314   4.119 -0.3204 -0.8960  0.1534
   61CHL1    C3 5621   5.187   4.680   3.002  0.0971 -0.0847  0.2528
   61CHL1    H3 5622   5.293   4.694   3.031 -0.1884  1.3082  0.6702
   61CHL1    O3 5623   5.174   4.725   2.867 -0.2973 -0.2254 -0.1443
   61CHL1   H3' 5624   5.181   4.646   2.813  3.0726  0.3172 -0.7005
   61CHL1    C4 5625   5.149   4.532   3.015 -0.0190  0.5821  1.1791
   61CHL1   H4A 5626   5.047   4.525   2.971 -0.4490  3.0262  1.5987
   61CHL1   H4B 5627   5.218   4.471   2.954 -0.9805  1.9024 -1.3819
   61CHL1    C5 5628   5.132   4.480   3.151  0.7511 -0.1309  0.0803
   61CHL1    C6 5629   5.194   4.370   3.191 -0.3499 -0.0714  0.3112
   61CHL1    H6 5630   5.241   4.315   3.109 -2.3225  1.5396 -2.0527
   61CHL1    C7 5631   5.189   4.313   3.332 -0.3887 -0.2378  0.8892
   61CHL1   H7A 5632   5.183   4.202   3.335  2.8530 -0.4952  1.3001
   61CHL1   H7B 5633   5.277   4.338   3.395  0.1415 -0.3683  0.2067
   61CHL1    C8 5634   5.062   4.365   3.406 -0.5016  0.2180  0.3103
   61CHL1    H8 5635   4.982   4.316   3.347 -0.2582 -1.3658  1.2315
   61CHL1   C14 5636   5.078   4.319   3.553 -0.1842 -0.1242 -0.1044
   61CHL1   H14 5637   5.171   4.369   3.586  0.0492  0.3807 -1.4662
   61CHL1   C15 5638   5.096   4.166   3.595 -0.0611 -0.6252 -0.0480
   61CHL1  H15A 5639   5.025   4.106   3.535 -2.3688 -0.7273  2.5947
   61CHL1  H15B 5640   5.202   4.135   3.578  0.1401 -0.8394  1.4578
   61CHL1   C16 5641   5.066   4.164   3.740 -0.2071  0.3817 -0.2066
   61CHL1  H16A 5642   4.991   4.082   3.749  0.0826  0.1423  0.0210
   61CHL1  H16B 5643   5.157   4.138   3.797 -0.3419 -0.3500 -0.3137
   61CHL1   C17 5644   5.011   4.302   3.774  0.1361  0.5142 -0.4626
   61CHL1   H17 5645   5.099   4.358   3.813 -0.9883  0.7811  1.8279
   61CHL1   C13 5646   4.970   4.363   3.645 -0.3725 -0.0645 -0.8008
   61CHL1   C18 5647   4.831   4.302   3.591 -0.4833 -0.3878  0.5337
   61CHL1  H18A 5648   4.753   4.370   3.631 -0.0308 -0.6148  1.8757
   61CHL1  H18B 5649   4.835   4.294   3.480 -1.4402  1.9095  0.2726
   61CHL1  H18C 5650   4.811   4.203   3.637 -2.1298 -0.7230 -0.8102
   61CHL1   C12 5651   4.960   4.516   3.635  0.0667 -0.0108  0.8381
   61CHL1  H12A 5652   4.874   4.562   3.688 -0.6215 -1.7026  1.2528
   61CHL1  H12B 5653   5.055   4.559   3.673 -0.3121  0.1679  1.5894
   61CHL1   C11 5654   4.947   4.570   3.494  0.8901 -0.2420  0.9189
   61CHL1  H11A 5655   4.845   4.544   3.459  0.7024  0.2769  1.0674
   61CHL1  H11B 5656   4.951   4.681   3.493  3.1745 -0.2041 -2.5002
   61CHL1    C9 5657   5.054   4.516   3.391  1.1778 -0.3781 -0.3440
   61CHL1    H9 5658   5.152   4.553   3.429 -0.4653  2.6104  1.3309
   61CHL1   C10 5659   5.044   4.569   3.248 -0.2639 -0.4089 -0.6264
   61CHL1   C19 5660   4.897   4.554   3.201 -0.2255  0.0977  0.6186
   61CHL1  H19A 5661   4.867   4.449   3.221  1.1501 -0.7379 -1.3707
   61CHL1  H19B 5662   4.829   4.622   3.256  2.1116  1.2143  2.2762
   61CHL1  H19C 5663   4.878   4.577   3.094 -1.2394  1.9640  1.1495
   61CHL1    C1 5664   5.095   4.718   3.238  0.5737  0.5216  0.6500
   61CHL1   H1A 5665   5.021   4.773   3.299 -1.0988 -0.8357 -0.0746
   61CHL1   H1B 5666   5.194   4.729   3.287  0.4901 -1.7842  1.4953
   61CHL1    C2 5667   5.094   4.770   3.095 -0.7255  1.0856 -0.3076
   61CHL1   H2A 5668   5.134   4.874   3.088  2.2251  0.1031  0.2134
   61CHL1   H2B 5669   4.989   4.775   3.060 -0.9780  1.8231  0.5314
   61CHL1   C20 5670   4.921   4.306   3.895  0.3226  0.2621 -0.1815
   61CHL1   H20 5671   4.816   4.276   3.873  0.4903  0.2765 -1.0347
   61CHL1   C21 5672   4.894   4.450   3.945 -0.1145 -0.1886  0.0341
   61CHL1  H21A 5673   4.835   4.455   4.039  0.6775  1.4675  0.5015
   61CHL1  H21B 5674   4.837   4.506   3.868  0.8003  1.5565  0.5642
   61CHL1  H21C 5675   4.988   4.508   3.964 -0.3383  0.4026 -0.6310
   61CHL1   C22 5676   4.974   4.215   4.010 -0.4546  0.2693  0.0999
   61CHL1  H22A 5677   4.988   4.115   3.963  0.1114  0.6127 -0.4669
   61CHL1  H22B 5678   5.074   4.254   4.042 -0.4592  1.0008 -0.7499
   61CHL1   C23 5679   4.884   4.196   4.129  0.2318  0.1207  0.1405
   61CHL1  H23A 5680   4.825   4.289   4.146  0.8656  1.2774 -3.2522
   61CHL1  H23B 5681   4.815   4.118   4.092 -0.8016  1.1934 -0.2684
   61CHL1   C24 5682   4.966   4.139   4.239  0.7683  0.9480 -0.2716
   61CHL1  H24A 5683   5.005   4.040   4.207  0.1449  1.1202 -1.6202
   61CHL1  H24B 5684   5.048   4.213   4.253 -0.5798  2.1705  1.6599
   61CHL1   C25 5685   4.889   4.114   4.371  0.1453  0.3154  0.1768
   61CHL1   H25 5686   4.853   4.215   4.399  0.4943  0.8763 -1.3330
   61CHL1   C26 5687   4.769   4.017   4.355 -0.1525  0.4478  0.3901
   61CHL1  H26A 5688   4.729   4.016   4.459  0.7840 -0.6609  0.7753
   61CHL1  H26B 5689   4.693   4.046   4.280  2.0025  1.8812 -1.3637
   61CHL1  H26C 5690   4.814   3.918   4.330  1.3095  1.0159  0.6327
   61CHL1   C27 5691   4.980   4.078   4.481 -0.1320  0.4177  0.0887
   61CHL1  H27A 5692   5.021   3.975   4.466  2.8940  1.5189  0.0675
   61CHL1  H27B 5693   5.063   4.150   4.496 -0.0966  0.4188 -0.1201
   61CHL1  H27C 5694   4.924   4.075   4.577 -2.1628 -0.4915 -1.0538
   62CHL1    C3 5695   5.860   2.687   2.879  0.2116  0.0613  0.4153
   62CHL1    H3 5696   5.868   2.582   2.914  1.3997  0.3323  1.0162
   62CHL1    O3 5697   5.890   2.681   2.741  0.3756  0.3137 -0.5568
   62CHL1   H3' 5698   5.909   2.772   2.714 -1.3642  1.4650  1.7790
   62CHL1    C4 5699   5.716   2.738   2.901 -0.0390  0.6517  0.2189
   62CHL1   H4A 5700   5.698   2.838   2.857  0.1795  1.5655  2.1083
   62CHL1   H4B 5701   5.647   2.663   2.857  0.8425 -0.8853  1.3572
   62CHL1    C5 5702   5.684   2.749   3.049  0.1639  0.1482 -0.2921
   62CHL1    C6 5703   5.573   2.699   3.102  0.3059  0.6752 -0.0469
   62CHL1    H6 5704   5.500   2.646   3.039 -0.1982  0.0263  1.0698
   62CHL1    C7 5705   5.531   2.708   3.251  0.6312  0.7390 -0.8933
   62CHL1   H7A 5706   5.424   2.735   3.259  0.5790  0.5768 -1.0348
   62CHL1   H7B 5707   5.539   2.620   3.318  0.9567  1.5117  0.1003
   62CHL1    C8 5708   5.617   2.816   3.328 -0.1318 -0.2176 -0.7546
   62CHL1    H8 5709   5.573   2.916   3.310  3.4577  1.4946 -0.8478
   62CHL1   C14 5710   5.598   2.800   3.479 -0.2673  0.0929  0.1916
   62CHL1   H14 5711   5.643   2.703   3.509  0.1596  0.4604  0.7739
   62CHL1   C15 5712   5.455   2.806   3.532  0.4632  0.4508  0.4321
   62CHL1  H15A 5713   5.414   2.901   3.492  2.2227  0.6928 -0.9001
   62CHL1  H15B 5714   5.394   2.715   3.511  1.4814  0.1856 -1.6448
   62CHL1   C16 5715   5.475   2.807   3.686 -0.2243  0.1908 -0.4448
   62CHL1  H16A 5716   5.407   2.885   3.726 -1.5066 -1.4040  0.5688
   62CHL1  H16B 5717   5.456   2.712   3.741  0.9034  1.5099  2.4283
   62CHL1   C17 5718   5.622   2.851   3.716  0.5499 -0.4951 -0.1419
   62CHL1   H17 5719   5.684   2.762   3.739  1.7274  0.0260 -1.2262
   62CHL1   C13 5720   5.679   2.899   3.577 -0.3623  0.5042 -0.0197
   62CHL1   C18 5721   5.643   3.052   3.559 -0.0339 -0.1571  0.6908
   62CHL1  H18A 5722   5.535   3.063   3.581 -0.0493 -1.4824  1.3465
   62CHL1  H18B 5723   5.707   3.118   3.622  0.3345  0.5595 -0.4142
   62CHL1  H18C 5724   5.679   3.092   3.462  1.1379  1.5956  1.7737
   62CHL1   C12 5725   5.827   2.872   3.540  0.2173 -0.0639 -0.8993
   62CHL1  H12A 5726   5.886   2.954   3.586 -1.1825 -0.3115  1.5691
   62CHL1  H12B 5727   5.853   2.771   3.579  0.3823  0.6139  0.8723
   62CHL1   C11 5728   5.858   2.887   3.390  0.0451  0.2520 -0.1490
   62CHL1  H11A 5729   5.864   2.996   3.370  2.9920  0.0097 -1.1132
   62CHL1  H11B 5730   5.965   2.855   3.390  0.1984  0.5824  2.1059
   62CHL1    C9 5731   5.760   2.805   3.295 -0.0623 -0.4205 -0.5333
   62CHL1    H9 5732   5.776   2.698   3.318 -1.9020 -0.4877  0.6607
   62CHL1   C10 5733   5.788   2.822   3.142 -0.7499 -0.3019  0.3021
   62CHL1   C19 5734   5.764   2.971   3.112 -0.2551  0.5158 -0.5485
   62CHL1  H19A 5735   5.658   2.999   3.130 -0.8360 -0.3685 -2.3435
   62CHL1  H19B 5736   5.831   3.039   3.168 -1.1464  0.1861  0.9677
   62CHL1  H19C 5737   5.787   2.996   3.006 -2.2418  3.4331 -0.4050
   62CHL1    C1 5738   5.931   2.782   3.106 -0.3270  0.1797  0.3378
   62CHL1   H1A 5739   5.999   2.862   3.142  1.3197 -0.5998 -0.8659
   62CHL1   H1B 5740   5.969   2.691   3.158 -0.2572  0.5044  0.8578
   62CHL1    C2 5741   5.956   2.778   2.952 -0.6126 -0.1735 -0.4381
   62CHL1   H2A 5742   6.062   2.756   2.930 -0.4309 -0.8498  1.0079
   62CHL1   H2B 5743   5.928   2.877   2.909 -0.7318  2.0197  4.0980
   62CHL1   C20 5744   5.645   2.941   3.848 -0.4630 -0.1556  0.6548
   62CHL1   H20 5745   5.601   3.038   3.818  0.6622 -0.0541 -0.7762
   62CHL1   C21 5746   5.798   2.967   3.870  0.6457  0.0698 -0.3045
   62CHL1  H21A 5747   5.850   2.872   3.893 -0.7627 -1.3401 -2.5580
   62CHL1  H21B 5748   5.799   3.038   3.955  2.4395 -0.4679  0.1641
   62CHL1  H21C 5749   5.850   3.013   3.783  2.8643 -1.3542  0.1886
   62CHL1   C22 5750   5.583   2.875   3.969  0.3657  0.3717  0.2112
   62CHL1  H22A 5751   5.475   2.854   3.962  0.4335  0.0180  0.2266
   62CHL1  H22B 5752   5.640   2.781   3.983  0.8886  0.6180 -0.1819
   62CHL1   C23 5753   5.597   2.956   4.098  0.1357 -1.5877  0.1473
   62CHL1  H23A 5754   5.699   2.997   4.112  0.0424 -1.3275  0.0645
   62CHL1  H23B 5755   5.531   3.045   4.087  2.1927  0.0417  0.4644
   62CHL1   C24 5756   5.566   2.885   4.235 -0.1931 -0.1760  0.1344
   62CHL1  H24A 5757   5.464   2.842   4.230  0.8110 -2.8588  1.0336
   62CHL1  H24B 5758   5.642   2.804   4.238  0.5834  0.5719  1.1328
   62CHL1   C25 5759   5.599   2.975   4.357 -0.3611  0.6557  0.8441
   62CHL1   H25 5760   5.701   3.017   4.343 -0.9645  1.8879 -0.0186
   62CHL1   C26 5761   5.510   3.089   4.385  1.1102  0.1786  0.4117
   62CHL1  H26A 5762   5.506   3.171   4.310 -0.6638  0.7728  1.1143
   62CHL1  H26B 5763   5.405   3.056   4.398  0.7820  2.0628  3.7117
   62CHL1  H26C 5764   5.524   3.145   4.480 -2.1892  2.5527 -0.3060
   62CHL1   C27 5765   5.619   2.873   4.477  0.0057 -0.3552 -0.4233
   62CHL1  H27A 5766   5.636   2.932   4.569  0.1695  0.1226 -0.7561
   62CHL1  H27B 5767   5.519   2.826   4.489  0.3525 -1.4558 -1.5673
   62CHL1  H27C 5768   5.699   2.796   4.468 -0.6973 -1.1513 -0.0358
   63CHL1    C3 5769   6.258   0.277   2.891  0.4219  0.1708 -0.0019
   63CHL1    H3 5770   6.350   0.220   2.918  0.1723  0.2106  0.9513
   63CHL1    O3 5771   6.205   0.261   2.755  0.4640 -0.8895  0.2459
   63CHL1   H3' 5772   6.129   0.319   2.752  2.7157  2.5530  2.6342
   63CHL1    C4 5773   6.147   0.215   2.985 -0.3147 -0.6124  1.1358
   63CHL1   H4A 5774   6.050   0.252   2.945 -1.5269 -3.1337  1.5294
   63CHL1   H4B 5775   6.153   0.105   2.967 -2.2450 -0.7905  1.3598
   63CHL1    C5 5776   6.180   0.240   3.134 -0.2129 -0.0065  0.2938
   63CHL1    C6 5777   6.196   0.130   3.214 -0.2086 -0.6208  0.6319
   63CHL1    H6 5778   6.182   0.024   3.190  0.5024 -0.9572  1.6489
   63CHL1    C7 5779   6.235   0.140   3.354  0.1421  0.1859 -0.4582
   63CHL1   H7A 5780   6.184   0.063   3.416  2.1070  0.3676  1.5143
   63CHL1   H7B 5781   6.342   0.117   3.370 -0.1228  0.8287  3.0020
   63CHL1    C8 5782   6.204   0.285   3.407  0.1208  0.6447 -0.1692
   63CHL1    H8 5783   6.095   0.304   3.405  0.1869  0.9476 -1.2121
   63CHL1   C14 5784   6.257   0.288   3.548  0.5986 -0.4552  0.3554
   63CHL1   H14 5785   6.363   0.257   3.550  0.6191 -0.5227 -1.1723
   63CHL1   C15 5786   6.210   0.191   3.657  0.3429 -0.5887  0.2177
   63CHL1  H15A 5787   6.102   0.172   3.675  0.4710  0.0081  1.6887
   63CHL1  H15B 5788   6.253   0.090   3.640 -2.8007 -1.8943 -0.6436
   63CHL1   C16 5789   6.259   0.258   3.788 -0.4590  0.5613  0.2033
   63CHL1  H16A 5790   6.172   0.262   3.858  1.0257  0.8671  2.1252
   63CHL1  H16B 5791   6.338   0.199   3.839 -2.4240 -1.5954  0.8935
   63CHL1   C17 5792   6.297   0.406   3.752 -0.5977 -0.5040 -0.2795
   63CHL1   H17 5793   6.408   0.407   3.742 -0.4665  0.9367  0.9585
   63CHL1   C13 5794   6.251   0.434   3.608 -0.1434 -0.3401  0.5208
   63CHL1   C18 5795   6.103   0.493   3.610 -0.5414  0.0847  0.4419
   63CHL1  H18A 5796   6.049   0.480   3.513 -0.1860  0.0073  0.2508
   63CHL1  H18B 5797   6.053   0.432   3.688  1.6564 -1.4770  0.7198
   63CHL1  H18C 5798   6.105   0.600   3.638 -0.1269 -0.1090  1.1505
   63CHL1   C12 5799   6.344   0.519   3.521  0.2911 -0.4611 -0.0390
   63CHL1  H12A 5800   6.354   0.627   3.545  1.0372 -0.2559 -1.2112
   63CHL1  H12B 5801   6.443   0.470   3.519 -0.0522 -1.1499 -0.2926
   63CHL1   C11 5802   6.296   0.526   3.378 -0.9727  0.6141  0.2661
   63CHL1  H11A 5803   6.200   0.580   3.363 -0.2464  1.3842 -2.0748
   63CHL1  H11B 5804   6.370   0.582   3.318 -1.1414  1.6649  1.0082
   63CHL1    C9 5805   6.269   0.382   3.314 -0.4088 -0.4126  0.1298
   63CHL1    H9 5806   6.372   0.344   3.301 -0.3646 -0.2394 -0.0196
   63CHL1   C10 5807   6.207   0.387   3.170  0.2800 -0.5532 -0.3019
   63CHL1   C19 5808   6.070   0.456   3.181 -0.5246 -0.2275  0.0281
   63CHL1  H19A 5809   6.008   0.445   3.089 -0.7006 -1.4884  0.2768
   63CHL1  H19B 5810   6.018   0.413   3.269  0.1766 -0.7904  0.1757
   63CHL1  H19C 5811   6.093   0.562   3.205  1.0644 -0.6031  0.2949
   63CHL1    C1 5812   6.299   0.457   3.075  0.0238 -0.2942  0.6412
   63CHL1   H1A 5813   6.291   0.565   3.100 -0.1083 -0.0368 -0.4333
   63CHL1   H1B 5814   6.404   0.424   3.093  0.4185  0.5269 -0.1123
   63CHL1    C2 5815   6.274   0.427   2.921  0.0431 -0.3546 -0.2608
   63CHL1   H2A 5816   6.352   0.477   2.860 -1.7575  0.7530 -1.7510
   63CHL1   H2B 5817   6.182   0.479   2.887 -1.3847 -1.5629  1.5315
   63CHL1   C20 5818   6.263   0.516   3.862 -0.0718  0.0838 -0.3692
   63CHL1   H20 5819   6.153   0.522   3.875 -0.1917 -2.2565  0.1706
   63CHL1   C21 5820   6.329   0.650   3.824  0.0867  0.1830 -0.0665
   63CHL1  H21A 5821   6.270   0.691   3.739  0.9404  1.1761 -0.1942
   63CHL1  H21B 5822   6.430   0.627   3.784  0.7123 -0.2685  1.7236
   63CHL1  H21C 5823   6.331   0.719   3.910 -3.2415  1.5489 -0.9085
   63CHL1   C22 5824   6.334   0.478   3.992  0.2989  0.2135 -0.7625
   63CHL1  H22A 5825   6.314   0.370   4.008  1.0325 -0.0581 -1.6138
   63CHL1  H22B 5826   6.445   0.477   3.990  0.3823 -1.9141  1.0821
   63CHL1   C23 5827   6.284   0.552   4.113  0.4954  0.6389  0.5221
   63CHL1  H23A 5828   6.317   0.657   4.101 -1.1044  0.9855 -1.1466
   63CHL1  H23B 5829   6.173   0.555   4.105  0.5016 -1.2190 -0.8692
   63CHL1   C24 5830   6.322   0.493   4.243 -0.1764  0.1903  0.5152
   63CHL1  H24A 5831   6.274   0.393   4.250 -1.7686  0.8554 -0.3494
   63CHL1  H24B 5832   6.431   0.476   4.256 -0.6739 -3.6230  0.6461
   63CHL1   C25 5833   6.270   0.567   4.369 -0.3008 -0.4030 -1.0481
   63CHL1   H25 5834   6.290   0.676   4.356  0.3925 -0.4738 -0.6539
   63CHL1   C26 5835   6.125   0.537   4.403  0.3350  0.5353  0.9121
   63CHL1  H26A 5836   6.062   0.545   4.312  0.5104  0.2375  0.7605
   63CHL1  H26B 5837   6.119   0.430   4.432  0.1955  0.0189 -0.8946
   63CHL1  H26C 5838   6.091   0.601   4.487 -0.4764  0.8046  0.3926
   63CHL1   C27 5839   6.357   0.534   4.491  0.0850  0.2007  0.0104
   63CHL1  H27A 5840   6.325   0.604   4.571  0.8092 -2.0785  2.4106
   63CHL1  H27B 5841   6.362   0.428   4.523 -1.5930  0.4441  1.2455
   63CHL1  H27C 5842   6.462   0.560   4.465  0.4973  0.5350  1.8440
   64CHL1    C3 5843   1.726   1.315   3.109 -0.7849  0.5511 -0.5582
   64CHL1    H3 5844   1.630   1.259   3.110  1.2134 -3.2261 -1.6510
   64CHL1    O3 5845   1.766   1.338   2.980 -0.3778 -0.7414  0.3403
   64CHL1   H3' 5846   1.752   1.433   2.971 -2.2443 -1.0305 -0.2077
   64CHL1    C4 5847   1.729   1.445   3.190 -0.0429 -0.1833 -0.7138
   64CHL1   H4A 5848   1.803   1.520   3.157 -2.9431  2.8359 -0.8505
   64CHL1   H4B 5849   1.630   1.479   3.151 -1.6703 -1.8868  1.6311
   64CHL1    C5 5850   1.731   1.435   3.337 -0.6985  0.8921 -0.5801
   64CHL1    C6 5851   1.639   1.501   3.411 -0.0313 -0.1776 -0.4052
   64CHL1    H6 5852   1.584   1.582   3.361 -0.9184 -1.3920 -1.4523
   64CHL1    C7 5853   1.648   1.507   3.563 -0.0996 -0.0191 -0.0853
   64CHL1   H7A 5854   1.616   1.602   3.611 -1.5266 -0.5749  0.0819
   64CHL1   H7B 5855   1.566   1.444   3.601 -1.1286  1.3505  0.0184
   64CHL1    C8 5856   1.795   1.450   3.614  0.2661  0.4834 -0.9589
   64CHL1    H8 5857   1.867   1.534   3.598 -0.3124  1.7838  2.2830
   64CHL1   C14 5858   1.788   1.419   3.770  0.7237 -0.6157  0.6317
   64CHL1   H14 5859   1.715   1.335   3.781  0.2005 -0.0809  1.3388
   64CHL1   C15 5860   1.735   1.537   3.861  0.4154  0.0281 -0.1285
   64CHL1  H15A 5861   1.788   1.630   3.833  0.7023  0.3280  1.3447
   64CHL1  H15B 5862   1.624   1.548   3.856 -0.0003 -2.7540  1.1179
   64CHL1   C16 5863   1.796   1.500   3.997 -0.0042 -0.3308 -0.4022
   64CHL1  H16A 5864   1.850   1.585   4.045  3.6445 -3.2496  1.2003
   64CHL1  H16B 5865   1.715   1.467   4.065  0.3894 -1.6719 -0.5605
   64CHL1   C17 5866   1.886   1.379   3.977  0.3093 -0.2907  0.3162
   64CHL1   H17 5867   1.820   1.292   3.996 -0.2929 -0.2109 -1.2092
   64CHL1   C13 5868   1.918   1.375   3.828 -0.2828 -0.4370 -0.1766
   64CHL1   C18 5869   2.033   1.488   3.812 -0.4838 -0.2352 -0.3319
   64CHL1  H18A 5870   2.132   1.451   3.847 -0.7110  0.9029  1.6801
   64CHL1  H18B 5871   2.047   1.516   3.706  0.4643 -0.7055 -0.3436
   64CHL1  H18C 5872   2.012   1.581   3.868  0.7904  0.4505 -0.9493
   64CHL1   C12 5873   1.952   1.238   3.761  0.1344 -0.1251  0.2219
   64CHL1  H12A 5874   2.045   1.184   3.790  2.4768  2.2008 -2.3914
   64CHL1  H12B 5875   1.872   1.168   3.793  1.6117 -1.5389  0.9955
   64CHL1   C11 5876   1.965   1.254   3.608 -0.4375 -0.2166  0.6963
   64CHL1  H11A 5877   2.052   1.320   3.588 -1.4214  0.8098 -0.3101
   64CHL1  H11B 5878   1.986   1.158   3.556  1.1313  1.4830 -2.0601
   64CHL1    C9 5879   1.840   1.324   3.545  0.7107  0.5091 -0.1028
   64CHL1    H9 5880   1.760   1.249   3.565  1.1608  0.2668  0.8613
   64CHL1   C10 5881   1.848   1.352   3.393 -0.4247  0.1711  0.0993
   64CHL1   C19 5882   1.977   1.432   3.355  0.6725 -0.7075 -0.4397
   64CHL1  H19A 5883   1.986   1.457   3.247 -0.8248 -1.0061 -0.6533
   64CHL1  H19B 5884   1.981   1.529   3.407  1.8446 -0.6786 -0.5523
   64CHL1  H19C 5885   2.069   1.387   3.398 -0.7631 -0.7624  2.8020
   64CHL1    C1 5886   1.832   1.216   3.323 -1.1056 -0.1454  0.4710
   64CHL1   H1A 5887   1.912   1.145   3.353 -0.0835  0.5134 -0.6249
   64CHL1   H1B 5888   1.737   1.166   3.352  0.5852 -4.2026 -0.3651
   64CHL1    C2 5889   1.832   1.223   3.170 -0.2912  0.0201  0.2908
   64CHL1   H2A 5890   1.813   1.121   3.129  0.8611  0.2083 -0.7645
   64CHL1   H2B 5891   1.935   1.240   3.131 -0.4992 -0.1390 -0.3348
   64CHL1   C20 5892   1.994   1.352   4.081  0.8920  0.0083 -0.4680
   64CHL1   H20 5893   2.078   1.421   4.061  0.4830  0.3636 -0.9889
   64CHL1   C21 5894   2.042   1.206   4.067 -0.2304  0.6774 -0.3300
   64CHL1  H21A 5895   2.092   1.165   4.157 -2.3748 -1.2604  0.0845
   64CHL1  H21B 5896   2.110   1.201   3.979 -0.2968 -0.2306 -0.3412
   64CHL1  H21C 5897   1.956   1.138   4.047 -1.6022  2.6072 -1.3372
   64CHL1   C22 5898   1.948   1.371   4.224 -0.0576  0.0703 -0.7258
   64CHL1  H22A 5899   1.851   1.424   4.225 -0.0738  0.0657 -1.3383
   64CHL1  H22B 5900   1.931   1.271   4.270 -1.4513 -0.5903 -2.5428
   64CHL1   C23 5901   2.042   1.469   4.291 -0.3064 -0.8507 -0.6410
   64CHL1  H23A 5902   2.142   1.429   4.265 -0.5155 -1.5132 -0.4384
   64CHL1  H23B 5903   2.021   1.570   4.250 -2.7958 -0.0905  2.1966
   64CHL1   C24 5904   2.023   1.483   4.448  0.2461  0.1930 -0.4212
   64CHL1  H24A 5905   1.922   1.501   4.491  0.1106  0.9078 -0.9962
   64CHL1  H24B 5906   2.045   1.386   4.497 -0.9305  1.2250  2.3485
   64CHL1   C25 5907   2.127   1.575   4.514  0.1116 -0.6547  0.3563
   64CHL1   H25 5908   2.120   1.574   4.625 -0.4484 -1.3067  0.3204
   64CHL1   C26 5909   2.271   1.538   4.474 -0.5912 -0.0439 -0.2572
   64CHL1  H26A 5910   2.281   1.427   4.479 -0.2355 -0.1213 -2.1296
   64CHL1  H26B 5911   2.291   1.564   4.368  1.6058 -0.9747 -0.1252
   64CHL1  H26C 5912   2.360   1.583   4.524 -0.3484 -0.1654 -0.5795
   64CHL1   C27 5913   2.098   1.721   4.463  0.0524 -0.1902 -0.8242
   64CHL1  H27A 5914   1.995   1.755   4.488 -0.4957 -1.6356 -1.0203
   64CHL1  H27B 5915   2.162   1.799   4.510 -0.2161  0.6197 -1.7748
   64CHL1  H27C 5916   2.113   1.735   4.354 -1.6013  3.2139 -0.7642
   65CHL1    C3 5917   1.104   6.018   2.828 -0.1607  0.9692 -0.0432
   65CHL1    H3 5918   1.203   6.029   2.876 -0.1552 -2.1025  0.8632
   65CHL1    O3 5919   1.111   6.055   2.692  0.4392  0.1351  0.0573
   65CHL1   H3' 5920   1.071   5.983   2.642 -0.5804  1.0954 -0.5463
   65CHL1    C4 5921   1.053   5.881   2.859  0.5808 -0.0177  0.5236
   65CHL1   H4A 5922   0.949   5.873   2.823  0.0939  0.9483  1.6655
   65CHL1   H4B 5923   1.108   5.801   2.804 -1.2276  0.8301 -2.7037
   65CHL1    C5 5924   1.055   5.847   3.006 -0.1178  0.5140 -0.1606
   65CHL1    C6 5925   1.133   5.746   3.057  0.9480 -0.0807  0.1317
   65CHL1    H6 5926   1.187   5.679   2.988  0.3779  0.6600 -1.0827
   65CHL1    C7 5927   1.139   5.713   3.196 -0.3616 -0.3516 -0.0838
   65CHL1   H7A 5928   1.124   5.603   3.205  0.9157 -0.5813 -0.6587
   65CHL1   H7B 5929   1.235   5.755   3.230 -0.9834  1.9320 -0.9591
   65CHL1    C8 5930   1.035   5.790   3.280 -0.2346 -0.7938 -0.1253
   65CHL1    H8 5931   0.938   5.737   3.264 -0.1311 -0.8083 -0.7254
   65CHL1   C14 5932   1.074   5.773   3.424  0.2646 -0.4875 -0.1585
   65CHL1   H14 5933   1.173   5.822   3.425  1.6727 -3.1821 -0.0295
   65CHL1   C15 5934   1.090   5.630   3.481  0.2419 -0.1555  0.5409
   65CHL1  H15A 5935   1.005   5.569   3.443  0.2656 -1.0882  1.9168
   65CHL1  H15B 5936   1.186   5.586   3.447  0.3475  1.4761 -1.4230
   65CHL1   C16 5937   1.078   5.643   3.634  0.2729 -0.1110 -0.0047
   65CHL1  H16A 5938   0.998   5.576   3.673  0.0998  0.6377  0.9664
   65CHL1  H16B 5939   1.173   5.616   3.685  0.5272  0.9399  0.0938
   65CHL1   C17 5940   1.036   5.792   3.656 -0.5237 -0.7557 -0.1320
   65CHL1   H17 5941   1.122   5.859   3.677 -0.3161 -1.4705  1.3907
   65CHL1   C13 5942   0.980   5.845   3.526 -0.0780  0.2404 -0.1151
   65CHL1   C18 5943   0.829   5.806   3.512 -0.1973  0.4226 -0.9087
   65CHL1  H18A 5944   0.791   5.821   3.409  0.0731  2.0690 -0.8014
   65CHL1  H18B 5945   0.828   5.700   3.544  0.7625  0.9002  0.9123
   65CHL1  H18C 5946   0.760   5.864   3.577 -0.0983 -2.1020  1.6412
   65CHL1   C12 5947   1.009   5.994   3.493  0.4789 -0.3368  1.5173
   65CHL1  H12A 5948   0.934   6.057   3.547 -0.2460  1.3821 -1.2789
   65CHL1  H12B 5949   1.116   6.010   3.518  0.9540 -0.3510 -0.3431
   65CHL1   C11 5950   0.964   6.037   3.349  0.2285 -0.0231 -0.0347
   65CHL1  H11A 5951   0.855   6.013   3.350  0.4917 -1.2714  0.0464
   65CHL1  H11B 5952   0.974   6.143   3.317 -1.4811  0.2001  0.0654
   65CHL1    C9 5953   1.027   5.939   3.244 -0.3681  0.4003 -0.0105
   65CHL1    H9 5954   1.134   5.969   3.245 -0.5275  0.9833  0.7736
   65CHL1   C10 5955   0.981   5.953   3.092  0.2167 -0.9353 -0.4849
   65CHL1   C19 5956   0.826   5.936   3.087 -0.7664  0.4042 -0.0311
   65CHL1  H19A 5957   0.772   5.848   3.129  0.5379 -0.6864 -0.5823
   65CHL1  H19B 5958   0.794   6.014   3.160 -1.0885  1.3998 -1.2020
   65CHL1  H19C 5959   0.796   5.977   2.988  0.5809 -0.1107 -0.6673
   65CHL1    C1 5960   1.017   6.104   3.048 -0.5210  0.1137 -0.2232
   65CHL1   H1A 5961   0.934   6.166   3.087 -1.6570 -0.5632 -1.4615
   65CHL1   H1B 5962   1.119   6.125   3.088 -1.4701 -0.6559  2.8333
   65CHL1    C2 5963   1.021   6.127   2.896 -0.0676 -0.8796 -0.0545
   65CHL1   H2A 5964   1.052   6.228   2.862 -2.5443 -0.5809 -1.7290
   65CHL1   H2B 5965   0.921   6.119   2.848 -0.8217  0.4871  1.1991
   65CHL1   C20 5966   0.947   5.804   3.786  0.1226 -0.2607  0.4239
   65CHL1   H20 5967   0.850   5.753   3.771  0.2514 -0.9215  1.7486
   65CHL1   C21 5968   0.915   5.951   3.820  0.6381  0.5421 -0.4392
   65CHL1  H21A 5969   1.005   6.016   3.817 -0.2374  1.9524  1.3907
   65CHL1  H21B 5970   0.874   5.968   3.922  0.6126  2.5655 -0.7402
   65CHL1  H21C 5971   0.849   5.975   3.734 -0.3610  0.4717  0.2906
   65CHL1   C22 5972   1.011   5.738   3.901 -0.0252  0.6048  0.8058
   65CHL1  H22A 5973   1.056   5.640   3.874 -1.7897  0.3787 -1.6541
   65CHL1  H22B 5974   1.089   5.799   3.951  0.4492 -1.4946  2.7562
   65CHL1   C23 5975   0.915   5.702   4.019 -0.0286  0.0179  0.1425
   65CHL1  H23A 5976   0.867   5.797   4.050  0.4444  0.3768 -0.2005
   65CHL1  H23B 5977   0.838   5.637   3.972 -0.0009  0.9688 -1.2647
   65CHL1   C24 5978   0.969   5.625   4.140 -0.8476 -0.2923  0.0102
   65CHL1  H24A 5979   1.036   5.699   4.188 -2.7115  2.2058 -1.0060
   65CHL1  H24B 5980   0.883   5.610   4.210  1.2720 -0.4631  2.7734
   65CHL1   C25 5981   1.038   5.490   4.131 -0.5116 -0.1283  0.8786
   65CHL1   H25 5982   0.978   5.418   4.070  0.2017 -0.4533  0.5520
   65CHL1   C26 5983   1.180   5.504   4.075 -0.6148  0.1547  0.2434
   65CHL1  H26A 5984   1.182   5.521   3.966 -1.1742  1.2942  0.4001
   65CHL1  H26B 5985   1.234   5.583   4.132  1.6060 -1.3951  0.4199
   65CHL1  H26C 5986   1.239   5.411   4.091 -0.3720  0.4427  1.0977
   65CHL1   C27 5987   1.041   5.442   4.278  0.0474  0.0262 -0.1767
   65CHL1  H27A 5988   1.075   5.524   4.346 -1.4936 -1.2550  2.2534
   65CHL1  H27B 5989   0.941   5.424   4.323 -0.5431 -0.9291 -1.8300
   65CHL1  H27C 5990   1.114   5.358   4.283 -0.4198 -0.3634  0.1806
   66CHL1    C3 5991   6.428   4.631   2.787  0.0274 -0.7135  0.1375
   66CHL1    H3 5992   6.352   4.575   2.846 -1.5729  0.7871 -0.4353
   66CHL1    O3 5993   6.450   4.588   2.655  0.2648  0.4536  0.3112
   66CHL1   H3' 5994   6.362   4.607   2.622 -0.1516  1.4333  1.8678
   66CHL1    C4 5995   6.370   4.777   2.793  0.4461  0.3065  0.1386
   66CHL1   H4A 5996   6.459   4.833   2.758  0.8457  0.3724  1.2026
   66CHL1   H4B 5997   6.281   4.793   2.729  1.4443  1.8062 -0.9568
   66CHL1    C5 5998   6.354   4.823   2.934  0.7902 -0.5406 -0.2651
   66CHL1    C6 5999   6.232   4.868   2.967  0.2646 -0.3566  0.1366
   66CHL1    H6 6000   6.154   4.874   2.890  1.6373  0.3185 -1.2498
   66CHL1    C7 6001   6.208   4.933   3.097 -0.4195  0.3749 -0.5642
   66CHL1   H7A 6002   6.173   5.037   3.081  1.0881  0.7769 -1.3926
   66CHL1   H7B 6003   6.134   4.876   3.158 -0.1706  0.9461  0.2785
   66CHL1    C8 6004   6.336   4.947   3.187  0.2957  0.0469  0.2993
   66CHL1    H8 6005   6.388   5.042   3.162  0.2325 -0.3020 -1.2543
   66CHL1   C14 6006   6.293   4.966   3.331  0.0608  0.2831  0.4098
   66CHL1   H14 6007   6.231   4.876   3.350 -1.5305  0.7137 -2.2491
   66CHL1   C15 6008   6.197   5.077   3.350 -0.3767  0.2759 -0.3684
   66CHL1  H15A 6009   6.234   5.166   3.295  0.8774 -0.1778 -0.3012
   66CHL1  H15B 6010   6.093   5.055   3.318 -0.2299  0.2998 -0.8788
   66CHL1   C16 6011   6.222   5.104   3.506  0.0645  0.0281  0.0328
   66CHL1  H16A 6012   6.272   5.203   3.510 -1.8045  0.9865  0.6366
   66CHL1  H16B 6013   6.122   5.116   3.553  0.0488 -0.6849  0.1942
   66CHL1   C17 6014   6.325   5.000   3.562 -0.3664  0.2541 -0.3383
   66CHL1   H17 6015   6.261   4.913   3.590 -0.5901 -0.0787 -1.7931
   66CHL1   C13 6016   6.407   4.967   3.435  0.4374  0.4347  0.2305
   66CHL1   C18 6017   6.504   5.089   3.400 -0.1223 -0.6138 -0.3192
   66CHL1  H18A 6018   6.593   5.080   3.466 -0.6680  1.1538  0.7257
   66CHL1  H18B 6019   6.552   5.087   3.300 -0.5312  1.8755 -0.6219
   66CHL1  H18C 6020   6.461   5.190   3.420  2.4242  0.1703  1.7945
   66CHL1   C12 6021   6.474   4.835   3.418 -0.1861  0.0544  0.0304
   66CHL1  H12A 6022   6.561   4.829   3.487  0.8728  0.6061 -1.2214
   66CHL1  H12B 6023   6.412   4.745   3.439  0.6689 -1.2255 -2.4791
   66CHL1   C11 6024   6.529   4.825   3.274 -0.0590  0.1329 -0.4510
   66CHL1  H11A 6025   6.608   4.900   3.252 -0.7325  0.6479 -1.1790
   66CHL1  H11B 6026   6.582   4.728   3.260 -0.0887  0.2965 -1.9260
   66CHL1    C9 6027   6.426   4.829   3.165  0.4935 -0.2021  0.2111
   66CHL1    H9 6028   6.359   4.744   3.193 -0.1791  0.2282 -0.0666
   66CHL1   C10 6029   6.478   4.812   3.028  1.0559  0.4010  0.6320
   66CHL1   C19 6030   6.580   4.932   2.991 -0.4729 -0.0691  0.0596
   66CHL1  H19A 6031   6.675   4.916   3.045  0.2276 -0.9348 -1.3453
   66CHL1  H19B 6032   6.604   4.929   2.882  0.8285  0.6925  0.3120
   66CHL1  H19C 6033   6.548   5.035   3.017  1.9547  0.1176  2.6183
   66CHL1    C1 6034   6.541   4.672   3.014  0.1586  0.2021 -0.2084
   66CHL1   H1A 6035   6.640   4.672   3.065  0.2805 -0.3176 -0.4327
   66CHL1   H1B 6036   6.478   4.592   3.061  1.0436 -0.0801  0.5257
   66CHL1    C2 6037   6.563   4.634   2.866 -0.1432 -0.0857 -0.5327
   66CHL1   H2A 6038   6.618   4.538   2.858  1.5416  0.7886  0.1325
   66CHL1   H2B 6039   6.633   4.713   2.832  1.5666 -1.2105  0.2660
   66CHL1   C20 6040   6.402   5.052   3.687 -0.6618 -0.0846 -0.3317
   66CHL1   H20 6041   6.463   5.143   3.667  0.0606 -0.5428 -0.2575
   66CHL1   C21 6042   6.500   4.942   3.742  0.1827  0.2615 -0.0156
   66CHL1  H21A 6043   6.548   5.001   3.823 -0.8272  0.8457  0.1740
   66CHL1  H21B 6044   6.579   4.904   3.674  0.3274 -0.3742  0.4952
   66CHL1  H21C 6045   6.456   4.849   3.784  2.1005 -1.1842 -1.0470
   66CHL1   C22 6046   6.300   5.095   3.798 -1.4157 -0.4119 -0.7051
   66CHL1  H22A 6047   6.354   5.151   3.878 -0.2637 -1.0053 -1.0455
   66CHL1  H22B 6048   6.241   5.169   3.741 -1.1935 -1.2914 -2.1118
   66CHL1   C23 6049   6.221   4.981   3.859  0.1592  0.1152  0.1707
   66CHL1  H23A 6050   6.189   4.895   3.797  1.2499 -1.2472  1.4423
   66CHL1  H23B 6051   6.284   4.941   3.941 -0.2206  0.9614  0.8956
   66CHL1   C24 6052   6.089   5.033   3.922  0.6400 -0.4010 -0.1772
   66CHL1  H24A 6053   6.014   5.072   3.850 -0.1296  1.0456  1.3291
   66CHL1  H24B 6054   6.048   4.944   3.974  0.4184 -0.3548 -0.2728
   66CHL1   C25 6055   6.118   5.144   4.033  0.6961  0.5123  0.4255
   66CHL1   H25 6056   6.158   5.236   3.984 -0.9909  1.6692  1.1210
   66CHL1   C26 6057   5.985   5.190   4.100 -0.0264  0.2715 -0.3458
   66CHL1  H26A 6058   5.907   5.219   4.026 -0.1378 -0.3833 -0.4996
   66CHL1  H26B 6059   5.948   5.108   4.165  1.7764 -1.3419 -1.2611
   66CHL1  H26C 6060   6.012   5.267   4.175 -1.0011  0.5890 -0.3127
   66CHL1   C27 6061   6.215   5.093   4.140 -0.1098  0.0798  0.4535
   66CHL1  H27A 6062   6.317   5.095   4.096 -0.6736  0.1718 -0.8982
   66CHL1  H27B 6063   6.192   4.990   4.173  2.0059 -0.6339 -0.1632
   66CHL1  H27C 6064   6.223   5.151   4.235 -1.1411  0.3330  0.4009
   67CHL1    C3 6065   6.638   1.579   2.986  0.1179  0.3077 -0.1935
   67CHL1    H3 6066   6.696   1.484   2.980 -0.5649 -0.0505 -1.5903
   67CHL1    O3 6067   6.602   1.625   2.858 -0.1635 -1.2699 -0.3462
   67CHL1   H3' 6068   6.574   1.712   2.887 -1.5367 -2.0683  0.8469
   67CHL1    C4 6069   6.506   1.532   3.061 -0.5964 -0.1019  0.8547
   67CHL1   H4A 6070   6.436   1.618   3.058 -0.1190  0.2621 -0.6173
   67CHL1   H4B 6071   6.452   1.452   3.006  0.7256 -0.5882  0.2211
   67CHL1    C5 6072   6.531   1.479   3.200 -0.1374 -0.1131 -0.4101
   67CHL1    C6 6073   6.490   1.363   3.244 -0.1577  1.1075 -0.4976
   67CHL1    H6 6074   6.435   1.292   3.180 -0.8721 -0.0943  1.3698
   67CHL1    C7 6075   6.511   1.315   3.386  0.2965  0.1091  0.3611
   67CHL1   H7A 6076   6.419   1.264   3.423  0.0296 -0.1079 -0.5725
   67CHL1   H7B 6077   6.589   1.237   3.372 -0.5805 -0.4718 -1.6158
   67CHL1    C8 6078   6.548   1.434   3.481 -0.3106 -0.2361 -0.6834
   67CHL1    H8 6079   6.460   1.494   3.512  1.3525  0.1741  4.2318
   67CHL1   C14 6080   6.595   1.386   3.624  0.4190  0.9052  0.6174
   67CHL1   H14 6081   6.686   1.325   3.610 -1.4205 -1.5475 -1.8665
   67CHL1   C15 6082   6.504   1.284   3.702  0.3162 -0.2645  0.4602
   67CHL1  H15A 6083   6.394   1.289   3.688  0.2364 -2.4839 -0.0961
   67CHL1  H15B 6084   6.536   1.187   3.659 -1.2824 -0.0047 -1.4304
   67CHL1   C16 6085   6.547   1.297   3.849 -0.0571 -0.4358  0.8142
   67CHL1  H16A 6086   6.457   1.345   3.894 -0.8438  1.4048 -2.4459
   67CHL1  H16B 6087   6.585   1.202   3.893  2.2309 -1.0651 -2.1758
   67CHL1   C17 6088   6.651   1.409   3.852  0.3417  0.7923  0.2587
   67CHL1   H17 6089   6.751   1.361   3.849 -0.1548 -0.7358  3.4166
   67CHL1   C13 6090   6.627   1.491   3.725 -0.3732 -0.1134  1.0868
   67CHL1   C18 6091   6.517   1.592   3.760 -0.2928  0.1612  0.1799
   67CHL1  H18A 6092   6.482   1.642   3.668  0.8012  0.7418  0.0587
   67CHL1  H18B 6093   6.433   1.545   3.815 -0.1137 -0.2114  0.1367
   67CHL1  H18C 6094   6.566   1.673   3.818  0.4474  0.2178 -0.5033
   67CHL1   C12 6095   6.747   1.571   3.659  0.2781 -0.4167  0.3426
   67CHL1  H12A 6096   6.793   1.648   3.725 -2.3737  1.0477  0.6235
   67CHL1  H12B 6097   6.827   1.493   3.650  0.9774  0.3009  0.2235
   67CHL1   C11 6098   6.707   1.636   3.519  0.5626 -0.6399  0.1522
   67CHL1  H11A 6099   6.627   1.712   3.532  0.1038 -1.1197  0.1604
   67CHL1  H11B 6100   6.796   1.690   3.481 -1.9274  1.7972 -2.8134
   67CHL1    C9 6101   6.656   1.530   3.416  1.0745  0.9663  0.4975
   67CHL1    H9 6102   6.733   1.454   3.391  0.0050 -0.2872  0.8970
   67CHL1   C10 6103   6.605   1.588   3.286 -0.1556  0.8910 -0.2774
   67CHL1   C19 6104   6.502   1.700   3.309 -0.3184  0.0258 -0.7893
   67CHL1  H19A 6105   6.556   1.779   3.364 -0.2087 -1.6353  1.6816
   67CHL1  H19B 6106   6.455   1.748   3.221  0.5647  1.1831 -0.6442
   67CHL1  H19C 6107   6.429   1.660   3.383  0.0460  0.1175 -0.3788
   67CHL1    C1 6108   6.728   1.647   3.214  0.2869 -0.6794  0.0382
   67CHL1   H1A 6109   6.775   1.738   3.258  0.3228 -0.8008  0.2539
   67CHL1   H1B 6110   6.805   1.567   3.211  0.1639 -0.7882 -0.2248
   67CHL1    C2 6111   6.696   1.691   3.070  0.2627 -0.2163  0.0925
   67CHL1   H2A 6112   6.795   1.726   3.033 -0.0446  0.6107  0.0474
   67CHL1   H2B 6113   6.629   1.779   3.065  0.4740 -0.0899 -0.7084
   67CHL1   C20 6114   6.662   1.473   3.994 -0.0222 -0.1227  0.0073
   67CHL1   H20 6115   6.565   1.524   4.012 -1.5910 -2.1725 -2.0768
   67CHL1   C21 6116   6.784   1.577   3.995  0.0518 -0.3472 -0.0057
   67CHL1  H21A 6117   6.762   1.661   3.925 -0.1566  2.3857  3.0510
   67CHL1  H21B 6118   6.880   1.525   3.979  0.8858  1.3463 -0.7997
   67CHL1  H21C 6119   6.793   1.621   4.097 -2.0599 -0.1583  0.1568
   67CHL1   C22 6120   6.681   1.371   4.102 -0.2796  0.8407  0.0387
   67CHL1  H22A 6121   6.598   1.297   4.097  0.8802 -0.4528 -1.2253
   67CHL1  H22B 6122   6.772   1.308   4.092 -1.2788 -0.6458 -0.1499
   67CHL1   C23 6123   6.683   1.426   4.242 -0.3936 -0.1570 -0.7784
   67CHL1  H23A 6124   6.770   1.487   4.272 -0.4705  0.8716 -2.5525
   67CHL1  H23B 6125   6.593   1.490   4.258 -0.9507 -0.3196 -2.8954
   67CHL1   C24 6126   6.668   1.316   4.353 -0.3066 -0.2721 -0.1336
   67CHL1  H24A 6127   6.638   1.352   4.453 -1.8919  0.6585 -0.9120
   67CHL1  H24B 6128   6.582   1.251   4.327 -0.1477 -0.5260 -0.0369
   67CHL1   C25 6129   6.788   1.226   4.370 -0.3279 -0.2012 -0.4320
   67CHL1   H25 6130   6.836   1.202   4.273  0.8785 -1.0994  0.3650
   67CHL1   C26 6131   6.898   1.299   4.451 -0.6777 -0.3032 -0.0571
   67CHL1  H26A 6132   6.976   1.226   4.483 -1.0068 -1.4626 -1.7454
   67CHL1  H26B 6133   6.944   1.376   4.386  2.0833 -1.6354  0.1614
   67CHL1  H26C 6134   6.865   1.350   4.544  0.6195  1.9941 -0.7706
   67CHL1   C27 6135   6.753   1.095   4.446  0.8331 -0.9932 -0.4805
   67CHL1  H27A 6136   6.667   1.037   4.406 -1.2266 -0.5358  2.8657
   67CHL1  H27B 6137   6.839   1.025   4.448 -0.1934 -2.3006  1.6483
   67CHL1  H27C 6138   6.735   1.110   4.555 -0.0968  2.6843 -1.0046
   68CHL1    C3 6139   3.289   2.952   3.191  0.0991  0.1482 -1.8519
   68CHL1    H3 6140   3.395   2.972   3.163  0.8039 -0.5360  0.1061
   68CHL1    O3 6141   3.217   2.878   3.098  0.9995 -1.1201  0.3162
   68CHL1   H3' 6142   3.128   2.904   3.121  2.4676  1.5133  4.0891
   68CHL1    C4 6143   3.300   2.861   3.322  0.0580 -0.5844  0.3170
   68CHL1   H4A 6144   3.194   2.839   3.344 -0.3131  0.0011 -0.7998
   68CHL1   H4B 6145   3.348   2.765   3.291 -0.1059  0.0193 -2.0452
   68CHL1    C5 6146   3.374   2.936   3.430 -0.6293 -0.3659 -0.1026
   68CHL1    C6 6147   3.470   2.876   3.505 -0.3898 -0.5886  0.1604
   68CHL1    H6 6148   3.503   2.774   3.479  1.8337  0.1657 -0.1657
   68CHL1    C7 6149   3.547   2.925   3.622  0.4562 -0.1797 -0.2435
   68CHL1   H7A 6150   3.523   2.860   3.708 -0.7106  2.0197  1.1862
   68CHL1   H7B 6151   3.656   2.913   3.601  0.5223 -1.0519  0.5233
   68CHL1    C8 6152   3.509   3.074   3.656  0.9230 -0.0343 -0.1109
   68CHL1    H8 6153   3.427   3.067   3.732  0.0115  1.0205 -0.9578
   68CHL1   C14 6154   3.611   3.142   3.727 -0.5156  0.9694  0.4343
   68CHL1   H14 6155   3.692   3.165   3.654 -1.2158 -1.1207 -1.1520
   68CHL1   C15 6156   3.683   3.067   3.842 -0.0435  0.7300  0.3773
   68CHL1  H15A 6157   3.599   3.009   3.886 -0.2607  0.7010 -0.0728
   68CHL1  H15B 6158   3.757   2.989   3.812 -0.0179  0.8804  0.0496
   68CHL1   C16 6159   3.750   3.179   3.924  0.1302  0.4433 -0.1736
   68CHL1  H16A 6160   3.737   3.168   4.034  1.2682 -1.1758 -0.1660
   68CHL1  H16B 6161   3.860   3.172   3.908  0.0238 -1.3480 -0.2679
   68CHL1   C17 6162   3.710   3.316   3.856  0.0274  0.3403  0.0783
   68CHL1   H17 6163   3.777   3.331   3.769 -1.9143  2.3443 -1.1803
   68CHL1   C13 6164   3.575   3.276   3.785 -0.9493  0.1714 -0.1354
   68CHL1   C18 6165   3.471   3.258   3.899 -0.1052 -0.0593  0.0289
   68CHL1  H18A 6166   3.450   3.351   3.955  0.9424  1.1220 -1.4473
   68CHL1  H18B 6167   3.376   3.218   3.859 -0.9421  1.3682  0.5240
   68CHL1  H18C 6168   3.501   3.187   3.979 -2.3609  1.2973  2.2057
   68CHL1   C12 6169   3.524   3.369   3.673  0.4074  0.3106  0.2505
   68CHL1  H12A 6170   3.481   3.461   3.719 -1.5984  0.6889 -2.1297
   68CHL1  H12B 6171   3.606   3.410   3.611  0.1368  2.9224  1.4554
   68CHL1   C11 6172   3.412   3.301   3.584  0.5959  0.0413  0.1902
   68CHL1  H11A 6173   3.325   3.291   3.652 -1.6206 -0.5788 -2.5698
   68CHL1  H11B 6174   3.383   3.370   3.501 -0.9386  1.1300  1.5738
   68CHL1    C9 6175   3.455   3.159   3.536 -0.1596 -0.1717  0.3537
   68CHL1    H9 6176   3.529   3.178   3.455 -1.2004 -2.0209 -1.1288
   68CHL1   C10 6177   3.340   3.092   3.452 -0.6509 -1.0115  0.5442
   68CHL1   C19 6178   3.199   3.100   3.517 -0.1456  0.0020  0.6416
   68CHL1  H19A 6179   3.145   3.196   3.505 -3.0807 -1.7199 -1.3615
   68CHL1  H19B 6180   3.132   3.030   3.463  0.5661 -0.1197 -0.1033
   68CHL1  H19C 6181   3.215   3.089   3.626  0.7802  2.4606  0.8209
   68CHL1    C1 6182   3.338   3.161   3.312  0.2369 -0.1390  0.3459
   68CHL1   H1A 6183   3.318   3.269   3.324  1.2822  0.0346  0.6512
   68CHL1   H1B 6184   3.444   3.167   3.281  0.2311  0.0103  0.3569
   68CHL1    C2 6185   3.237   3.095   3.217 -0.1817 -0.7239  0.0413
   68CHL1   H2A 6186   3.240   3.151   3.121  0.1728 -0.6305  0.1046
   68CHL1   H2B 6187   3.132   3.088   3.252  0.0142 -0.2640  0.7588
   68CHL1   C20 6188   3.723   3.449   3.937 -0.5300  0.0214 -0.2715
   68CHL1   H20 6189   3.626   3.461   3.989 -0.7728 -1.2520 -0.4027
   68CHL1   C21 6190   3.746   3.563   3.838  0.7634  0.3089 -0.0568
   68CHL1  H21A 6191   3.738   3.665   3.881  2.6942  1.1524 -1.5421
   68CHL1  H21B 6192   3.693   3.549   3.741  0.2937 -0.6403  0.3203
   68CHL1  H21C 6193   3.854   3.563   3.814  1.3594  0.3089  2.4186
   68CHL1   C22 6194   3.834   3.445   4.043  0.1402 -0.4593 -0.0115
   68CHL1  H22A 6195   3.811   3.365   4.117 -0.6741 -0.9813 -0.8069
   68CHL1  H22B 6196   3.923   3.422   3.980 -0.0785  2.3393 -1.5095
   68CHL1   C23 6197   3.845   3.575   4.125  0.4269  1.2890 -0.1970
   68CHL1  H23A 6198   3.886   3.655   4.061  0.9403  1.1447 -0.0477
   68CHL1  H23B 6199   3.741   3.599   4.157  0.8344  0.4046  1.9504
   68CHL1   C24 6200   3.923   3.564   4.252  0.0687  0.6063  0.3828
   68CHL1  H24A 6201   3.918   3.657   4.312 -0.1553  0.5605  0.4340
   68CHL1  H24B 6202   3.863   3.488   4.307  0.2540  1.5159  1.8956
   68CHL1   C25 6203   4.065   3.521   4.238 -0.1636 -0.7509  0.4176
   68CHL1   H25 6204   4.056   3.425   4.182  2.3294 -0.7878 -0.0140
   68CHL1   C26 6205   4.150   3.617   4.152  0.4413 -0.0914 -0.0534
   68CHL1  H26A 6206   4.163   3.714   4.205  2.4409 -0.3751  0.0341
   68CHL1  H26B 6207   4.254   3.580   4.141  0.2079 -0.5201 -0.8650
   68CHL1  H26C 6208   4.111   3.629   4.049 -1.3636  0.9612  0.6976
   68CHL1   C27 6209   4.133   3.486   4.373 -0.2553  0.4441  0.4854
   68CHL1  H27A 6210   4.164   3.575   4.433  0.1324  1.2051 -0.8203
   68CHL1  H27B 6211   4.050   3.442   4.433  0.4973 -1.0629  0.4411
   68CHL1  H27C 6212   4.213   3.411   4.358 -0.5572  0.3410 -0.7033
   69CHL1    C3 6213   1.397   1.898   3.458  0.0962  0.8032 -0.0201
   69CHL1    H3 6214   1.404   1.793   3.422 -2.3913  0.0729  1.4122
   69CHL1    O3 6215   1.365   1.970   3.336  0.3023 -0.2901  0.4178
   69CHL1   H3' 6216   1.383   2.063   3.354 -0.0860 -0.7062  3.5035
   69CHL1    C4 6217   1.274   1.913   3.549 -0.1676 -1.2921 -0.2013
   69CHL1   H4A 6218   1.256   2.021   3.568  3.4446 -0.5872 -0.0759
   69CHL1   H4B 6219   1.182   1.869   3.506 -1.7421  0.6229  1.0081
   69CHL1    C5 6220   1.301   1.848   3.681 -0.2760 -0.0620 -0.3624
   69CHL1    C6 6221   1.234   1.737   3.715 -0.2062 -0.1346  0.0393
   69CHL1    H6 6222   1.162   1.687   3.649  1.0075 -0.7749 -0.8369
   69CHL1    C7 6223   1.253   1.673   3.852  0.2170  0.1367 -0.4719
   69CHL1   H7A 6224   1.157   1.661   3.907  1.0093  1.6503  1.3672
   69CHL1   H7B 6225   1.297   1.571   3.850  1.3577  0.5107  2.0481
   69CHL1    C8 6226   1.329   1.760   3.958  0.6306  0.0066  0.2149
   69CHL1    H8 6227   1.261   1.842   3.989 -1.4650 -1.9797  1.1583
   69CHL1   C14 6228   1.376   1.693   4.083 -0.1972 -0.0462  0.2918
   69CHL1   H14 6229   1.446   1.612   4.053 -0.5959  0.6140 -2.7804
   69CHL1   C15 6230   1.273   1.611   4.160 -0.2705  0.1460 -0.0785
   69CHL1  H15A 6231   1.172   1.656   4.175 -0.0904  0.0262  1.7479
   69CHL1  H15B 6232   1.256   1.509   4.120  2.3680  0.5982 -2.6792
   69CHL1   C16 6233   1.342   1.590   4.297  0.6404 -0.9153 -0.2074
   69CHL1  H16A 6234   1.274   1.642   4.367 -0.3212 -1.6601 -0.5689
   69CHL1  H16B 6235   1.359   1.482   4.321  1.0167 -0.8673 -0.2490
   69CHL1   C17 6236   1.478   1.664   4.289 -0.1887 -0.6814 -0.3932
   69CHL1   H17 6237   1.540   1.585   4.239  0.2397 -0.4337 -0.2619
   69CHL1   C13 6238   1.456   1.776   4.179  0.5592 -0.0166  0.0867
   69CHL1   C18 6239   1.377   1.899   4.233 -0.1220 -0.1722  0.5875
   69CHL1  H18A 6240   1.283   1.862   4.280 -0.0563 -1.3646 -0.1900
   69CHL1  H18B 6241   1.441   1.964   4.297 -1.0235 -0.2450  1.6015
   69CHL1  H18C 6242   1.342   1.960   4.147  4.1911  0.3326 -1.0798
   69CHL1   C12 6243   1.582   1.817   4.105 -0.1114  0.6426  0.6447
   69CHL1  H12A 6244   1.653   1.883   4.159  1.6155  0.3626 -1.1551
   69CHL1  H12B 6245   1.634   1.723   4.073 -1.2056  0.7309 -1.6233
   69CHL1   C11 6246   1.542   1.900   3.979 -0.0761  0.5891  0.1921
   69CHL1  H11A 6247   1.482   1.982   4.026 -1.8049 -0.5791  0.1129
   69CHL1  H11B 6248   1.630   1.942   3.927 -0.4882 -0.2786 -1.2586
   69CHL1    C9 6249   1.453   1.821   3.888  0.7700  0.4217  0.3342
   69CHL1    H9 6250   1.513   1.737   3.847  1.4706 -0.0815  2.2545
   69CHL1   C10 6251   1.418   1.910   3.762 -0.4104  0.3538  0.2821
   69CHL1   C19 6252   1.385   2.055   3.800 -0.1630  0.7059 -0.2545
   69CHL1  H19A 6253   1.471   2.100   3.855  0.0713  0.0904 -0.1124
   69CHL1  H19B 6254   1.365   2.117   3.710 -0.2583  1.1880  0.0946
   69CHL1  H19C 6255   1.292   2.050   3.861 -0.9413  1.1151 -1.3660
   69CHL1    C1 6256   1.544   1.909   3.669  0.5846 -0.3985 -0.0923
   69CHL1   H1A 6257   1.629   1.963   3.716 -1.2884  0.1108  2.9598
   69CHL1   H1B 6258   1.574   1.803   3.652 -0.4526 -1.2831  2.9365
   69CHL1    C2 6259   1.519   1.963   3.527  0.1329  1.1432  0.2415
   69CHL1   H2A 6260   1.609   1.962   3.462  0.8948  1.6607  1.2658
   69CHL1   H2B 6261   1.514   2.074   3.529  2.7703  1.4736 -2.9692
   69CHL1   C20 6262   1.541   1.699   4.424 -0.6131  0.0401 -0.0454
   69CHL1   H20 6263   1.468   1.764   4.477  0.2149  1.4800 -0.6006
   69CHL1   C21 6264   1.669   1.783   4.399  0.0452  0.4890 -0.6692
   69CHL1  H21A 6265   1.637   1.888   4.379 -1.2786  0.4761  1.1017
   69CHL1  H21B 6266   1.719   1.737   4.311 -1.4304 -2.2755 -0.1710
   69CHL1  H21C 6267   1.743   1.764   4.480  1.6949 -0.5863 -2.3477
   69CHL1   C22 6268   1.573   1.566   4.514 -0.1065 -0.3192 -0.4406
   69CHL1  H22A 6269   1.473   1.518   4.519 -0.5130  0.6149  3.7322
   69CHL1  H22B 6270   1.648   1.504   4.459 -1.1157 -1.9021 -0.0923
   69CHL1   C23 6271   1.628   1.594   4.652 -0.0078  0.1513 -0.2461
   69CHL1  H23A 6272   1.716   1.662   4.649 -1.0054  1.5125 -0.1453
   69CHL1  H23B 6273   1.553   1.658   4.703  0.2051  2.0033 -2.1061
   69CHL1   C24 6274   1.654   1.482   4.741  0.0602 -0.7432  0.1531
   69CHL1  H24A 6275   1.563   1.419   4.740 -2.6061  2.7783  1.0995
   69CHL1  H24B 6276   1.741   1.415   4.724 -0.1463 -1.5382  1.9457
   69CHL1   C25 6277   1.677   1.517   4.892  0.0379  0.2300 -0.0673
   69CHL1   H25 6278   1.735   1.611   4.904 -1.0320  0.9819 -0.5853
   69CHL1   C26 6279   1.542   1.542   4.966 -0.1621  1.0996  0.1669
   69CHL1  H26A 6280   1.481   1.449   4.960 -1.4513  1.9747 -0.8584
   69CHL1  H26B 6281   1.555   1.572   5.072  0.9001  1.7396 -0.1295
   69CHL1  H26C 6282   1.488   1.623   4.912 -0.6094  0.6220 -0.1105
   69CHL1   C27 6283   1.755   1.405   4.961 -0.1460  0.0671  0.1649
   69CHL1  H27A 6284   1.809   1.448   5.048 -1.9978  0.5927  1.1096
   69CHL1  H27B 6285   1.694   1.318   4.991 -3.2209  2.2780  0.8540
   69CHL1  H27C 6286   1.822   1.353   4.889  0.5991  1.0254  0.1456
   70CHL1    C3 6287   2.512   5.311   2.648  0.5137  0.3888  0.2319
   70CHL1    H3 6288   2.422   5.247   2.655  1.2381 -0.5188  1.5577
   70CHL1    O3 6289   2.531   5.331   2.513 -0.1967 -0.0361 -0.0945
   70CHL1   H3' 6290   2.475   5.269   2.466  0.9879 -0.1722 -1.4050
   70CHL1    C4 6291   2.490   5.450   2.708  0.4616  0.1085 -0.0362
   70CHL1   H4A 6292   2.569   5.521   2.678  2.2313 -1.1285  1.4866
   70CHL1   H4B 6293   2.400   5.496   2.661  0.0997 -0.2348  0.3056
   70CHL1    C5 6294   2.469   5.441   2.861 -0.8846  0.1124  0.2068
   70CHL1    C6 6295   2.360   5.486   2.925  0.5296  0.2464 -0.4282
   70CHL1    H6 6296   2.283   5.536   2.864 -1.5502 -2.6962 -0.4483
   70CHL1    C7 6297   2.355   5.493   3.072  0.0745  0.3783 -0.1835
   70CHL1   H7A 6298   2.314   5.591   3.105  0.6968 -0.0735  2.1152
   70CHL1   H7B 6299   2.290   5.409   3.105  0.3564  0.0358 -0.4925
   70CHL1    C8 6300   2.496   5.469   3.141  0.4164 -0.4113  0.3985
   70CHL1    H8 6301   2.560   5.558   3.123  1.2609 -0.6318  2.0679
   70CHL1   C14 6302   2.478   5.431   3.291 -0.1964  0.2872 -0.9836
   70CHL1   H14 6303   2.417   5.338   3.287 -1.0559  0.8537 -1.5922
   70CHL1   C15 6304   2.392   5.513   3.393  0.3086  0.5334  0.0591
   70CHL1  H15A 6305   2.418   5.619   3.375  0.8471  0.2953 -0.5899
   70CHL1  H15B 6306   2.285   5.514   3.363  0.1568  0.0015  0.5676
   70CHL1   C16 6307   2.414   5.456   3.532  0.5664 -0.2883  0.2161
   70CHL1  H16A 6308   2.429   5.533   3.610  3.4133  0.4036 -0.9163
   70CHL1  H16B 6309   2.325   5.398   3.565 -0.4037 -0.4376 -2.4104
   70CHL1   C17 6310   2.538   5.363   3.512 -0.3388 -0.3325  0.5492
   70CHL1   H17 6311   2.500   5.261   3.495 -0.3010 -0.2673  0.0573
   70CHL1   C13 6312   2.602   5.402   3.370 -0.2464  0.1139 -0.1540
   70CHL1   C18 6313   2.696   5.524   3.380 -0.7673  0.7696  0.6187
   70CHL1  H18A 6314   2.783   5.503   3.446 -0.2727  1.3113  0.1439
   70CHL1  H18B 6315   2.733   5.541   3.277 -0.6715  0.4815  0.6038
   70CHL1  H18C 6316   2.634   5.612   3.408 -0.0069  1.5640 -0.1435
   70CHL1   C12 6317   2.682   5.282   3.303  0.0310  0.0091  0.5667
   70CHL1  H12A 6318   2.773   5.265   3.365 -0.6408 -1.6178  1.1826
   70CHL1  H12B 6319   2.618   5.191   3.309  0.5546 -0.3045  1.6120
   70CHL1   C11 6320   2.702   5.303   3.152  0.2635 -0.6132  0.1372
   70CHL1  H11A 6321   2.784   5.378   3.149  0.5213 -0.7429  2.2701
   70CHL1  H11B 6322   2.742   5.205   3.119  0.7252 -1.0152  1.8203
   70CHL1    C9 6323   2.576   5.352   3.072 -0.0733 -0.2208 -0.1622
   70CHL1    H9 6324   2.508   5.264   3.073 -0.1322 -0.2565 -2.4554
   70CHL1   C10 6325   2.595   5.385   2.919 -0.4094  0.2115 -0.3691
   70CHL1   C19 6326   2.721   5.477   2.909  0.4343 -0.5157 -0.7827
   70CHL1  H19A 6327   2.715   5.571   2.967  1.0887 -1.0178  0.1125
   70CHL1  H19B 6328   2.808   5.420   2.947 -1.0518 -2.3362  0.1018
   70CHL1  H19C 6329   2.735   5.499   2.801  0.3656  1.3991 -0.4334
   70CHL1    C1 6330   2.634   5.250   2.861  0.5814 -0.5445 -0.6954
   70CHL1   H1A 6331   2.736   5.220   2.894  0.2799  1.3653  2.4870
   70CHL1   H1B 6332   2.563   5.173   2.900  1.3381 -0.7850  0.2536
   70CHL1    C2 6333   2.643   5.248   2.707  0.5641  0.2871  0.5525
   70CHL1   H2A 6334   2.666   5.147   2.665 -1.6304  0.6585 -1.8558
   70CHL1   H2B 6335   2.726   5.316   2.681  1.1912  0.7140  3.3678
   70CHL1   C20 6336   2.633   5.344   3.630 -0.2639  0.4855  0.8350
   70CHL1   H20 6337   2.709   5.276   3.585 -1.2499 -0.9308  1.2255
   70CHL1   C21 6338   2.562   5.261   3.734  0.1640 -0.4492  0.3237
   70CHL1  H21A 6339   2.530   5.159   3.703 -1.2023 -0.3405  1.2954
   70CHL1  H21B 6340   2.463   5.303   3.763  0.3181  0.4161 -0.3497
   70CHL1  H21C 6341   2.619   5.252   3.829  2.5284 -0.7759 -1.0384
   70CHL1   C22 6342   2.691   5.471   3.701 -0.1544 -0.3174  0.0425
   70CHL1  H22A 6343   2.700   5.554   3.627 -0.1254 -1.7675 -1.6338
   70CHL1  H22B 6344   2.615   5.508   3.773 -0.7577 -0.1121 -0.6763
   70CHL1   C23 6345   2.818   5.449   3.782  0.3167  0.3872  0.4101
   70CHL1  H23A 6346   2.808   5.358   3.845  2.2326  0.1253  0.4186
   70CHL1  H23B 6347   2.910   5.437   3.719  0.8580  1.6238  0.9367
   70CHL1   C24 6348   2.861   5.569   3.878 -0.4112  1.2794 -0.2273
   70CHL1  H24A 6349   2.894   5.653   3.813  0.7579  0.5618 -0.5758
   70CHL1  H24B 6350   2.769   5.600   3.933  0.6415 -0.2709  2.6479
   70CHL1   C25 6351   2.980   5.539   3.975  0.4525 -0.3861  0.0021
   70CHL1   H25 6352   2.938   5.454   4.033  0.3917 -0.2356  0.1795
   70CHL1   C26 6353   3.099   5.482   3.895 -0.5197  0.1794  0.2481
   70CHL1  H26A 6354   3.107   5.539   3.800 -1.4337 -0.7124 -0.3821
   70CHL1  H26B 6355   3.196   5.487   3.949 -0.0552 -3.1123 -0.0917
   70CHL1  H26C 6356   3.091   5.376   3.864  0.9870 -0.3553  1.5680
   70CHL1   C27 6357   3.024   5.648   4.077  0.0486 -0.5325 -0.8147
   70CHL1  H27A 6358   3.087   5.605   4.157  0.9440  0.5062 -0.9404
   70CHL1  H27B 6359   3.078   5.731   4.026 -1.5800  0.7246 -0.5734
   70CHL1  H27C 6360   2.941   5.688   4.140  2.2229  0.8632  1.3373
   71CHL1    C3 6361   1.996   4.033   2.933 -0.3244 -0.5326 -0.1074
   71CHL1    H3 6362   1.901   3.976   2.946 -1.4687  1.2911 -0.0614
   71CHL1    O3 6363   2.031   4.041   2.795  0.2158 -0.1600 -0.1107
   71CHL1   H3' 6364   2.123   4.064   2.808  0.9290 -1.7252 -1.8994
   71CHL1    C4 6365   1.973   4.178   2.981  0.2056  0.5279 -0.1800
   71CHL1   H4A 6366   2.063   4.241   2.965  0.2049  0.5452 -0.1174
   71CHL1   H4B 6367   1.900   4.225   2.912 -0.6237 -1.7839 -0.9819
   71CHL1    C5 6368   1.930   4.177   3.123 -0.1265 -0.2268  0.1798
   71CHL1    C6 6369   1.816   4.235   3.165  0.3806  0.3536 -0.1751
   71CHL1    H6 6370   1.742   4.258   3.087  0.2652  1.8144  0.3420
   71CHL1    C7 6371   1.772   4.244   3.312 -0.3509 -0.2597 -0.4854
   71CHL1   H7A 6372   1.735   4.349   3.320 -1.4769 -0.5080 -1.8217
   71CHL1   H7B 6373   1.681   4.180   3.321  0.0062 -0.6115  0.7027
   71CHL1    C8 6374   1.889   4.222   3.406  0.1691 -0.0260  0.0761
   71CHL1    H8 6375   1.959   4.308   3.408  0.5040 -0.2992  0.3301
   71CHL1   C14 6376   1.831   4.197   3.545 -0.3505 -0.5197  0.2804
   71CHL1   H14 6377   1.769   4.105   3.546  0.7551 -1.2904 -0.6293
   71CHL1   C15 6378   1.728   4.304   3.599 -0.1904  0.3279  0.0314
   71CHL1  H15A 6379   1.775   4.403   3.584 -0.2440  0.9012  2.9498
   71CHL1  H15B 6380   1.630   4.307   3.547 -0.5599 -1.0974  0.5889
   71CHL1   C16 6381   1.726   4.284   3.753 -0.3978  0.2485 -0.1615
   71CHL1  H16A 6382   1.753   4.373   3.814  0.9521 -1.2984  1.6497
   71CHL1  H16B 6383   1.634   4.231   3.787 -0.0730 -0.3578 -0.2162
   71CHL1   C17 6384   1.842   4.179   3.785 -0.1891  0.0892 -0.1128
   71CHL1   H17 6385   1.795   4.079   3.776 -0.6377  0.4014 -1.5917
   71CHL1   C13 6386   1.935   4.178   3.656  0.0312 -0.8919  0.1264
   71CHL1   C18 6387   2.041   4.293   3.668  0.3135  0.6208  0.8791
   71CHL1  H18A 6388   2.094   4.308   3.571 -1.0267  2.0720  0.3188
   71CHL1  H18B 6389   1.995   4.391   3.694 -2.5097 -0.0985 -0.8692
   71CHL1  H18C 6390   2.112   4.274   3.751  0.7812  1.3365  0.6522
   71CHL1   C12 6391   2.007   4.045   3.618  0.2502 -0.0470  0.1945
   71CHL1  H12A 6392   2.094   4.041   3.688  0.4334  0.6112  0.0207
   71CHL1  H12B 6393   1.944   3.957   3.639  0.4122  0.3345  2.5247
   71CHL1   C11 6394   2.063   4.044   3.474 -0.0987 -0.1788  0.1948
   71CHL1  H11A 6395   2.153   4.109   3.472  1.1807 -1.8633  0.7732
   71CHL1  H11B 6396   2.091   3.939   3.454  0.2936 -0.2438  1.0323
   71CHL1    C9 6397   1.959   4.088   3.364  0.3312  0.5599  0.1296
   71CHL1    H9 6398   1.876   4.015   3.368  0.6260  0.0272 -2.1086
   71CHL1   C10 6399   2.020   4.102   3.218 -0.4296  0.1386  0.3016
   71CHL1   C19 6400   2.152   4.180   3.235 -0.5565  0.2899  0.6053
   71CHL1  H19A 6401   2.196   4.218   3.141 -1.5608  0.0636  0.0255
   71CHL1  H19B 6402   2.134   4.272   3.295 -2.5051  0.7257 -0.5660
   71CHL1  H19C 6403   2.228   4.118   3.288 -1.8434 -2.0248 -0.0896
   71CHL1    C1 6404   2.058   3.963   3.169  0.2784 -0.5987 -0.1962
   71CHL1   H1A 6405   2.144   3.934   3.233 -0.0914  1.2008  1.1968
   71CHL1   H1B 6406   1.967   3.901   3.169  1.6320 -2.8430 -3.1451
   71CHL1    C2 6407   2.106   3.964   3.021 -0.7197  0.0576  0.3860
   71CHL1   H2A 6408   2.125   3.866   2.974 -0.8758 -1.2101  2.8242
   71CHL1   H2B 6409   2.203   4.019   3.023  0.7795 -2.4050  2.5498
   71CHL1   C20 6410   1.902   4.186   3.929  0.7414 -0.1633  0.7564
   71CHL1   H20 6411   1.959   4.280   3.946 -0.0369  1.2765 -3.4395
   71CHL1   C21 6412   2.004   4.071   3.950  0.5053 -0.4771  0.0441
   71CHL1  H21A 6413   2.097   4.100   3.897 -0.9985  3.0201 -0.9837
   71CHL1  H21B 6414   1.968   3.976   3.905  2.5773 -1.3722  0.1896
   71CHL1  H21C 6415   2.019   4.063   4.060 -2.2288  0.3904  0.5672
   71CHL1   C22 6416   1.785   4.167   4.027 -0.6423 -0.0479  0.3134
   71CHL1  H22A 6417   1.705   4.100   3.989 -0.2722 -0.3781  0.1175
   71CHL1  H22B 6418   1.814   4.108   4.116 -1.1292 -1.5972 -0.5303
   71CHL1   C23 6419   1.725   4.300   4.080 -0.0226  0.4133 -0.5532
   71CHL1  H23A 6420   1.802   4.376   4.106  0.1548  0.1739 -0.3727
   71CHL1  H23B 6421   1.682   4.359   3.997  0.6697  0.2659 -1.0308
   71CHL1   C24 6422   1.637   4.302   4.202  0.5063  0.1874  0.1235
   71CHL1  H24A 6423   1.704   4.261   4.281  0.5925 -1.5294 -0.7883
   71CHL1  H24B 6424   1.604   4.404   4.232  1.3676  0.8771 -1.2134
   71CHL1   C25 6425   1.519   4.204   4.181 -0.0949 -0.6228 -0.5531
   71CHL1   H25 6426   1.556   4.101   4.160 -1.4706 -1.2992  0.1590
   71CHL1   C26 6427   1.452   4.195   4.320  0.2791 -0.0284 -0.3887
   71CHL1  H26A 6428   1.365   4.127   4.307 -0.3133  1.0982 -2.9989
   71CHL1  H26B 6429   1.528   4.163   4.394  0.0150 -0.0893 -0.1431
   71CHL1  H26C 6430   1.425   4.297   4.355  1.9839  0.5880 -0.7869
   71CHL1   C27 6431   1.426   4.251   4.067  0.4237  0.4544  0.2497
   71CHL1  H27A 6432   1.350   4.173   4.042  0.5445 -1.1676  4.1981
   71CHL1  H27B 6433   1.363   4.338   4.096 -4.2226 -2.0035 -1.3016
   71CHL1  H27C 6434   1.482   4.263   3.972  1.1663 -0.5002  0.5489
   72CHL1    C3 6435   0.823   0.006   3.045 -0.1508 -0.0730  0.5997
   72CHL1    H3 6436   0.928  -0.026   3.027 -0.1738 -0.2220  0.7267
   72CHL1    O3 6437   0.745   0.003   2.926  0.5808 -0.0884  0.3059
   72CHL1   H3' 6438   0.766   0.089   2.887  0.6837  0.1434  0.8587
   72CHL1    C4 6439   0.762  -0.091   3.147 -0.0732  0.0639  0.1860
   72CHL1   H4A 6440   0.654  -0.068   3.157 -0.6156 -0.6156 -3.0034
   72CHL1   H4B 6441   0.761  -0.196   3.111 -1.1816 -1.1360  3.3773
   72CHL1    C5 6442   0.814  -0.083   3.291  0.0251 -0.1986 -0.2052
   72CHL1    C6 6443   0.856  -0.194   3.354  0.1736 -0.3593 -0.2306
   72CHL1    H6 6444   0.846  -0.290   3.303 -0.7271 -0.4055  0.0044
   72CHL1    C7 6445   0.910  -0.192   3.499  0.0698 -0.2322 -0.1735
   72CHL1   H7A 6446   0.865  -0.269   3.565  0.0634  1.3842  1.7975
   72CHL1   H7B 6447   1.021  -0.196   3.498  0.3136  3.1173 -0.8661
   72CHL1    C8 6448   0.858  -0.065   3.573 -0.5591  0.3817  0.2954
   72CHL1    H8 6449   0.749  -0.071   3.593 -0.5457 -2.1976 -0.1143
   72CHL1   C14 6450   0.930  -0.046   3.711  0.6755  0.7875  0.7302
   72CHL1   H14 6451   1.040  -0.052   3.692  0.8547 -2.2315  2.0774
   72CHL1   C15 6452   0.917  -0.165   3.809  0.4238  0.2564 -0.2642
   72CHL1  H15A 6453   0.814  -0.203   3.825  0.1319  0.3374 -1.8267
   72CHL1  H15B 6454   0.978  -0.254   3.782  1.1998  1.0206 -1.0845
   72CHL1   C16 6455   0.953  -0.098   3.942 -0.9076  0.2175  0.0634
   72CHL1  H16A 6456   0.863  -0.108   4.007 -0.9570 -0.2448 -0.0726
   72CHL1  H16B 6457   1.040  -0.151   3.987 -0.9692 -0.0044 -0.0821
   72CHL1   C17 6458   0.970   0.053   3.916  0.0444 -0.7134  0.9918
   72CHL1   H17 6459   1.078   0.070   3.895  0.0944 -1.1007  0.9343
   72CHL1   C13 6460   0.907   0.084   3.781 -0.1883 -0.2936 -0.1747
   72CHL1   C18 6461   0.759   0.105   3.802  0.9024  0.4320 -0.5375
   72CHL1  H18A 6462   0.703   0.115   3.706  1.9814  0.0330 -1.2290
   72CHL1  H18B 6463   0.714   0.023   3.863  0.5349  1.2438  0.3078
   72CHL1  H18C 6464   0.737   0.196   3.862 -2.5806 -0.6602  0.0637
   72CHL1   C12 6465   0.963   0.196   3.684 -0.5653 -1.0365  0.1468
   72CHL1  H12A 6466   0.942   0.298   3.721 -1.7962 -1.1262 -0.2519
   72CHL1  H12B 6467   1.070   0.166   3.691  0.1408  1.3293  0.4893
   72CHL1   C11 6468   0.895   0.195   3.549  0.1994 -0.3467 -0.5195
   72CHL1  H11A 6469   0.797   0.244   3.566  1.4005  1.6275  1.1584
   72CHL1  H11B 6470   0.958   0.259   3.483 -0.5931 -0.4677 -1.4133
   72CHL1    C9 6471   0.889   0.054   3.480 -0.1977  0.3256  0.2056
   72CHL1    H9 6472   0.994   0.034   3.447 -0.3360 -0.4944  0.2400
   72CHL1   C10 6473   0.809   0.055   3.348 -0.3399  0.2846  0.2391
   72CHL1   C19 6474   0.662   0.094   3.364  0.7849 -0.6084 -0.2148
   72CHL1  H19A 6475   0.648   0.202   3.339 -1.9794 -0.8386  0.0062
   72CHL1  H19B 6476   0.594   0.044   3.292 -0.2267  1.3386 -0.6878
   72CHL1  H19C 6477   0.625   0.082   3.468  0.0876 -0.2305 -0.4066
   72CHL1    C1 6478   0.870   0.158   3.240  0.9449  0.8190 -0.8493
   72CHL1   H1A 6479   0.847   0.261   3.275  0.4673  0.0857  1.0857
   72CHL1   H1B 6480   0.979   0.142   3.257  0.8410  1.2365  0.2897
   72CHL1    C2 6481   0.821   0.145   3.102 -0.0220  0.0652  0.7448
   72CHL1   H2A 6482   0.877   0.214   3.035 -1.7585  1.0743  0.2590
   72CHL1   H2B 6483   0.720   0.191   3.112 -0.3603 -0.8289  1.6357
   72CHL1   C20 6484   0.937   0.136   4.039 -0.6488 -0.3420 -0.1176
   72CHL1   H20 6485   0.829   0.124   4.061 -0.9651  0.6122 -1.0409
   72CHL1   C21 6486   0.949   0.287   4.011  0.1701  0.0837 -0.1951
   72CHL1  H21A 6487   1.053   0.311   3.979 -0.7547  2.2878 -1.8278
   72CHL1  H21B 6488   0.924   0.345   4.102  0.1931  0.4674 -0.4309
   72CHL1  H21C 6489   0.874   0.314   3.933 -0.3263 -0.6239  0.0292
   72CHL1   C22 6490   1.028   0.097   4.162 -0.0346  0.1510  0.1833
   72CHL1  H22A 6491   1.026  -0.010   4.193  4.1637 -1.0411 -2.8263
   72CHL1  H22B 6492   1.131   0.109   4.124 -0.0048  3.6881  1.0574
   72CHL1   C23 6493   1.004   0.166   4.294  0.1970 -0.6259 -0.4178
   72CHL1  H23A 6494   1.063   0.260   4.287 -0.3800 -0.2604 -0.4040
   72CHL1  H23B 6495   0.894   0.175   4.309  0.4499 -1.7009  2.7916
   72CHL1   C24 6496   1.065   0.089   4.410 -0.4354  0.5197 -0.4896
   72CHL1  H24A 6497   0.997   0.004   4.432 -0.3176  0.2305 -1.1982
   72CHL1  H24B 6498   1.166   0.047   4.392 -0.4284  0.5965 -0.6304
   72CHL1   C25 6499   1.067   0.185   4.532 -0.3485  0.2254 -0.4594
   72CHL1   H25 6500   1.131   0.269   4.498 -0.6796  0.7387  0.1560
   72CHL1   C26 6501   0.932   0.230   4.590  0.3848  0.1995  0.6791
   72CHL1  H26A 6502   0.870   0.276   4.510  2.4578  2.3455  0.2071
   72CHL1  H26B 6503   0.869   0.143   4.618  0.2697  0.0695  0.0471
   72CHL1  H26C 6504   0.934   0.308   4.669 -0.4758  2.3431 -1.3049
   72CHL1   C27 6505   1.149   0.130   4.650  0.0825  0.3448  0.6059
   72CHL1  H27A 6506   1.112   0.027   4.670  1.1972  0.4224  3.7128
   72CHL1  H27B 6507   1.255   0.121   4.618 -0.9905 -2.2186 -2.9042
   72CHL1  H27C 6508   1.144   0.194   4.741 -2.1630  0.4451  0.4627
   73CHL1    C3 6509   2.204   3.295   3.008 -0.8315 -0.8247  0.3731
   73CHL1    H3 6510   2.105   3.251   3.033 -1.5723  0.1643 -0.7110
   73CHL1    O3 6511   2.221   3.278   2.864 -0.8602 -0.5654 -0.0334
   73CHL1   H3' 6512   2.302   3.323   2.839 -0.2747 -1.7405 -0.3490
   73CHL1    C4 6513   2.229   3.442   3.037  0.5220 -0.2320 -0.3202
   73CHL1   H4A 6514   2.325   3.478   2.993  0.2236  1.1799  0.1674
   73CHL1   H4B 6515   2.148   3.500   2.989 -0.0620 -0.3424  0.5238
   73CHL1    C5 6516   2.234   3.460   3.187 -0.3928 -0.7465  0.4900
   73CHL1    C6 6517   2.161   3.563   3.231 -0.1768 -0.3300  0.5510
   73CHL1    H6 6518   2.091   3.614   3.163 -1.2285  0.2189  1.9737
   73CHL1    C7 6519   2.168   3.616   3.371 -0.0127  0.0643 -0.6443
   73CHL1   H7A 6520   2.172   3.727   3.381 -0.0589 -0.1542  3.4240
   73CHL1   H7B 6521   2.078   3.578   3.424  1.1671 -0.9231  0.7142
   73CHL1    C8 6522   2.281   3.552   3.463 -0.1007 -0.5211  0.7940
   73CHL1    H8 6523   2.372   3.606   3.430  0.3602 -0.7688  1.6521
   73CHL1   C14 6524   2.258   3.572   3.605 -0.2740  0.4466 -0.6942
   73CHL1   H14 6525   2.157   3.530   3.619  0.2990 -0.1700  2.2305
   73CHL1   C15 6526   2.251   3.712   3.660 -0.4725 -0.3494  0.3849
   73CHL1  H15A 6527   2.329   3.772   3.608  1.6679 -1.2845  2.3533
   73CHL1  H15B 6528   2.150   3.756   3.647 -0.1745 -0.1568 -1.5423
   73CHL1   C16 6529   2.289   3.703   3.807  0.2575 -0.2478 -0.0054
   73CHL1  H16A 6530   2.361   3.781   3.841 -1.0243 -0.1897  2.8017
   73CHL1  H16B 6531   2.201   3.727   3.870 -1.2733  0.2813 -2.2427
   73CHL1   C17 6532   2.331   3.553   3.828 -0.0206  0.0072 -0.5332
   73CHL1   H17 6533   2.237   3.500   3.857  0.3945 -1.7651 -2.2452
   73CHL1   C13 6534   2.364   3.497   3.688  0.5659  0.0632  0.6935
   73CHL1   C18 6535   2.503   3.547   3.656 -0.0555  0.4044 -0.4327
   73CHL1  H18A 6536   2.532   3.516   3.553 -0.3061 -0.5536 -0.2265
   73CHL1  H18B 6537   2.514   3.656   3.669 -1.4692  0.6177 -0.8689
   73CHL1  H18C 6538   2.576   3.487   3.716 -0.3822  0.1999 -0.2399
   73CHL1   C12 6539   2.358   3.344   3.666  0.0715  1.2659 -0.5704
   73CHL1  H12A 6540   2.427   3.286   3.731 -0.6768  2.5430  1.4555
   73CHL1  H12B 6541   2.256   3.320   3.702 -0.0079  0.1308 -1.4899
   73CHL1   C11 6542   2.369   3.306   3.518 -0.9436 -0.0623  0.6427
   73CHL1  H11A 6543   2.471   3.307   3.474 -0.9026 -0.0898  0.7369
   73CHL1  H11B 6544   2.331   3.202   3.511  0.7056 -0.7470  1.3236
   73CHL1    C9 6545   2.293   3.401   3.429  0.2706  0.3650  0.5751
   73CHL1    H9 6546   2.191   3.356   3.440  0.3700  0.1450  0.6113
   73CHL1   C10 6547   2.327   3.372   3.276  1.2294 -0.4866 -0.3250
   73CHL1   C19 6548   2.469   3.419   3.249  0.1336 -0.8760  0.1737
   73CHL1  H19A 6549   2.486   3.428   3.139  2.5800 -3.0562  0.2606
   73CHL1  H19B 6550   2.484   3.522   3.287 -2.4418 -0.1008 -0.7016
   73CHL1  H19C 6551   2.550   3.356   3.293  0.6670 -0.3188 -0.0002
   73CHL1    C1 6552   2.311   3.223   3.232  0.0730 -0.9108  0.2141
   73CHL1   H1A 6553   2.402   3.166   3.261 -0.3086 -2.4113 -1.3679
   73CHL1   H1B 6554   2.218   3.189   3.282 -0.9230  1.4421  0.1224
   73CHL1    C2 6555   2.303   3.204   3.082  0.2605 -0.2865  0.4299
   73CHL1   H2A 6556   2.293   3.098   3.050 -1.2214 -0.7733  2.2991
   73CHL1   H2B 6557   2.402   3.237   3.043  0.5102 -1.4716  0.0285
   73CHL1   C20 6558   2.426   3.508   3.941 -0.0739 -1.0276  0.1447
   73CHL1   H20 6559   2.483   3.418   3.911  0.5184 -1.2934  1.9881
   73CHL1   C21 6560   2.339   3.481   4.059  0.0817 -0.0456 -1.4839
   73CHL1  H21A 6561   2.276   3.572   4.076  1.5803  0.5230  1.6299
   73CHL1  H21B 6562   2.396   3.456   4.150  0.5230  0.3780 -1.6421
   73CHL1  H21C 6563   2.274   3.394   4.035 -0.6880 -0.1861  0.8811
   73CHL1   C22 6564   2.531   3.616   3.973 -0.2069 -0.2141 -0.2107
   73CHL1  H22A 6565   2.572   3.663   3.881 -2.5394  0.7641 -0.8258
   73CHL1  H22B 6566   2.482   3.705   4.018 -0.1825  0.5600 -1.6636
   73CHL1   C23 6567   2.642   3.577   4.067 -0.2261  0.6890  0.0980
   73CHL1  H23A 6568   2.593   3.534   4.158 -0.4831 -0.9789 -0.7794
   73CHL1  H23B 6569   2.684   3.488   4.015 -0.6441  0.1173  0.7052
   73CHL1   C24 6570   2.745   3.687   4.102  0.7232 -0.2683  0.1610
   73CHL1  H24A 6571   2.785   3.728   4.007  1.9191 -0.6410  0.4800
   73CHL1  H24B 6572   2.691   3.775   4.143 -1.1484 -0.9176 -0.7999
   73CHL1   C25 6573   2.856   3.639   4.194 -0.2063  0.3578 -0.0522
   73CHL1   H25 6574   2.809   3.596   4.285 -0.3369  0.1680 -0.2083
   73CHL1   C26 6575   2.951   3.531   4.134 -0.3209  0.6520 -0.5387
   73CHL1  H26A 6576   2.899   3.433   4.144 -0.0981  0.7259  1.8311
   73CHL1  H26B 6577   2.977   3.549   4.028  2.1329  0.9859  0.0574
   73CHL1  H26C 6578   3.051   3.535   4.181  0.1257 -0.0030 -1.4039
   73CHL1   C27 6579   2.940   3.762   4.246 -0.0643  0.2224  0.1755
   73CHL1  H27A 6580   3.023   3.729   4.312  2.3733  0.7825 -2.4420
   73CHL1  H27B 6581   2.984   3.812   4.158 -0.9244  0.9224  0.1208
   73CHL1  H27C 6582   2.874   3.837   4.296 -0.3475  0.6618 -0.8387
   74CHL1    C3 6583   2.505   1.738   3.324  0.3851 -0.6520 -0.4020
   74CHL1    H3 6584   2.607   1.782   3.322 -0.8377  2.6017 -3.9212
   74CHL1    O3 6585   2.487   1.696   3.193  0.1995 -0.0900  0.7881
   74CHL1   H3' 6586   2.402   1.736   3.174  0.7349  1.0249  0.6400
   74CHL1    C4 6587   2.488   1.625   3.418  0.2107  0.3490 -0.0338
   74CHL1   H4A 6588   2.383   1.589   3.412  0.4292 -0.4084  0.5741
   74CHL1   H4B 6589   2.549   1.536   3.390 -1.8935 -0.1432 -3.7485
   74CHL1    C5 6590   2.513   1.671   3.561  0.1118  0.2575  0.3693
   74CHL1    C6 6591   2.612   1.609   3.634 -0.1778  0.2061 -0.4883
   74CHL1    H6 6592   2.671   1.524   3.598 -2.0882 -1.3637 -0.0628
   74CHL1    C7 6593   2.632   1.641   3.783  0.0993  0.5436  0.0020
   74CHL1   H7A 6594   2.632   1.546   3.840  2.1244  0.2737 -0.3635
   74CHL1   H7B 6595   2.729   1.692   3.800  1.9874 -3.1559  1.3600
   74CHL1    C8 6596   2.530   1.736   3.851  0.7021 -0.2394  0.4308
   74CHL1    H8 6597   2.441   1.680   3.885 -0.3524  1.3166  0.3137
   74CHL1   C14 6598   2.595   1.806   3.972  0.1745 -0.0109  0.2810
   74CHL1   H14 6599   2.681   1.863   3.931  2.1870 -1.2866  2.5048
   74CHL1   C15 6600   2.661   1.707   4.074 -0.2138 -0.5834  0.2881
   74CHL1  H15A 6601   2.590   1.623   4.089 -1.6338  0.2948 -1.2067
   74CHL1  H15B 6602   2.762   1.670   4.043  0.8003  2.5032 -0.4797
   74CHL1   C16 6603   2.671   1.791   4.204  0.3277  0.5789  0.3247
   74CHL1  H16A 6604   2.630   1.730   4.287  1.2470 -1.6440 -0.7569
   74CHL1  H16B 6605   2.775   1.816   4.234  0.7639  0.4723 -1.0156
   74CHL1   C17 6606   2.597   1.930   4.182 -0.0037 -0.0083  0.3327
   74CHL1   H17 6607   2.679   2.002   4.160  0.1369 -0.6265 -1.2331
   74CHL1   C13 6608   2.510   1.898   4.059  0.3791  0.9207  0.8601
   74CHL1   C18 6609   2.391   1.823   4.120  0.2197  0.5526  0.5822
   74CHL1  H18A 6610   2.303   1.890   4.137 -1.7034 -1.9092  0.8971
   74CHL1  H18B 6611   2.337   1.756   4.049 -1.5053  2.1005  0.3385
   74CHL1  H18C 6612   2.417   1.756   4.204 -2.3539 -1.9840 -0.4510
   74CHL1   C12 6613   2.467   2.003   3.956 -0.1893  0.0842 -0.4442
   74CHL1  H12A 6614   2.395   2.077   3.998 -0.6056 -0.3264 -0.4220
   74CHL1  H12B 6615   2.550   2.071   3.928  0.8084 -0.0055  2.0770
   74CHL1   C11 6616   2.394   1.946   3.829 -0.1075  1.0522  1.4024
   74CHL1  H11A 6617   2.315   1.878   3.868  1.0975  0.1989  2.4638
   74CHL1  H11B 6618   2.352   2.028   3.767 -0.5142  1.2568  1.9381
   74CHL1    C9 6619   2.485   1.845   3.748  0.5707 -0.5257 -0.5188
   74CHL1    H9 6620   2.573   1.906   3.718  0.0479 -0.2836 -1.6209
   74CHL1   C10 6621   2.425   1.792   3.612  0.3300 -0.4277  0.5555
   74CHL1   C19 6622   2.284   1.740   3.639 -0.4052  0.2708 -0.4833
   74CHL1  H19A 6623   2.219   1.830   3.643  1.8770  1.9591  1.2806
   74CHL1  H19B 6624   2.249   1.675   3.555  0.0048  1.5694 -1.6862
   74CHL1  H19C 6625   2.284   1.675   3.730 -0.3540  0.5226 -0.3038
   74CHL1    C1 6626   2.432   1.907   3.508 -0.1550  0.3570 -0.5540
   74CHL1   H1A 6627   2.356   1.980   3.543  2.6953  1.8694  3.2413
   74CHL1   H1B 6628   2.533   1.953   3.519 -0.6141  1.0078  1.6176
   74CHL1    C2 6629   2.411   1.853   3.363  0.3468  0.0350  0.2119
   74CHL1   H2A 6630   2.420   1.940   3.295 -0.6263  0.1582  0.2289
   74CHL1   H2B 6631   2.313   1.805   3.382  0.9849 -1.4298 -0.0260
   74CHL1   C20 6632   2.527   1.991   4.302  0.1937 -0.5880 -0.1362
   74CHL1   H20 6633   2.452   1.919   4.339 -1.2692  0.7154 -0.4497
   74CHL1   C21 6634   2.458   2.126   4.252 -0.2296 -0.4282 -0.1158
   74CHL1  H21A 6635   2.437   2.187   4.342 -1.7976 -0.4599 -0.4337
   74CHL1  H21B 6636   2.368   2.090   4.198 -0.2028 -1.6540  0.6209
   74CHL1  H21C 6637   2.524   2.185   4.185 -0.7280 -0.0199 -0.2508
   74CHL1   C22 6638   2.612   2.020   4.431 -0.2403 -0.4930 -0.3738
   74CHL1  H22A 6639   2.694   1.946   4.442  0.5943  0.4623  0.0194
   74CHL1  H22B 6640   2.667   2.116   4.422  0.5186 -0.7489  1.1608
   74CHL1   C23 6641   2.531   2.027   4.558  0.0132 -0.5007  1.0743
   74CHL1  H23A 6642   2.459   2.111   4.552  0.6277 -0.0595 -1.6830
   74CHL1  H23B 6643   2.475   1.932   4.569 -1.7756  0.7476  3.4737
   74CHL1   C24 6644   2.622   2.040   4.687  0.6148 -0.0954  0.5143
   74CHL1  H24A 6645   2.718   1.989   4.662  1.3226  2.1881 -1.8337
   74CHL1  H24B 6646   2.644   2.148   4.700 -1.8092  0.4740  0.3077
   74CHL1   C25 6647   2.558   1.991   4.817  0.1881  0.1456  0.0497
   74CHL1   H25 6648   2.455   2.031   4.831  0.1884  0.4750 -0.8217
   74CHL1   C26 6649   2.534   1.837   4.823  0.3787  0.3382  0.6351
   74CHL1  H26A 6650   2.467   1.798   4.902 -0.2435 -3.0486 -1.3575
   74CHL1  H26B 6651   2.479   1.813   4.730 -1.3031  4.7931  0.2382
   74CHL1  H26C 6652   2.629   1.778   4.819 -0.3672 -0.8572 -2.1508
   74CHL1   C27 6653   2.644   2.038   4.939  0.5802  0.0137  0.3957
   74CHL1  H27A 6654   2.579   2.041   5.029 -0.7977 -1.3545 -0.5023
   74CHL1  H27B 6655   2.742   1.988   4.953  0.8783  0.9666  1.9956
   74CHL1  H27C 6656   2.670   2.143   4.913 -0.3223  0.3636  0.8491
   75CHL1    C3 6657   2.778   1.440   2.896 -0.3544  0.0227  0.3502
   75CHL1    H3 6658   2.856   1.507   2.938 -0.7159 -0.1997  1.4075
   75CHL1    O3 6659   2.735   1.480   2.763 -1.0690 -0.0003 -0.1055
   75CHL1   H3' 6660   2.721   1.574   2.758  0.4858  0.1969 -1.4850
   75CHL1    C4 6661   2.838   1.300   2.885 -0.0563  0.2755  0.4926
   75CHL1   H4A 6662   2.772   1.231   2.828  0.0350  2.0951 -1.9687
   75CHL1   H4B 6663   2.925   1.323   2.820 -0.0979 -1.4216 -0.2249
   75CHL1    C5 6664   2.886   1.237   3.016 -0.0502  0.0122  0.0501
   75CHL1    C6 6665   3.007   1.183   3.029 -0.4846  0.1967  0.5278
   75CHL1    H6 6666   3.065   1.191   2.936 -3.0942 -2.8832 -1.5728
   75CHL1    C7 6667   3.063   1.153   3.161  1.1139 -0.1205  0.6476
   75CHL1   H7A 6668   3.104   1.051   3.149  0.6148 -0.0798 -1.7826
   75CHL1   H7B 6669   3.152   1.217   3.182  0.6647  0.6442  0.2674
   75CHL1    C8 6670   2.961   1.151   3.276 -0.1764  0.0902 -0.1952
   75CHL1    H8 6671   2.909   1.053   3.266  0.3412 -0.1375 -0.7162
   75CHL1   C14 6672   3.036   1.150   3.405  0.0347 -0.7440 -0.8925
   75CHL1   H14 6673   3.089   1.248   3.409  0.2927 -0.8772 -1.0470
   75CHL1   C15 6674   3.150   1.051   3.436 -0.2838 -0.6156  0.3202
   75CHL1  H15A 6675   3.116   0.949   3.406 -1.3210 -0.1959  0.0219
   75CHL1  H15B 6676   3.244   1.083   3.387  0.1193  1.9018  2.4939
   75CHL1   C16 6677   3.169   1.051   3.592 -0.7185  0.0164 -0.6508
   75CHL1  H16A 6678   3.182   0.948   3.631  2.0245  0.4396 -0.2298
   75CHL1  H16B 6679   3.262   1.113   3.595 -0.8088  0.1181  0.3487
   75CHL1   C17 6680   3.055   1.145   3.644 -0.3311  0.6578  0.4067
   75CHL1   H17 6681   3.103   1.244   3.633  3.3207 -0.9944 -0.1738
   75CHL1   C13 6682   2.947   1.150   3.535  0.5418 -0.5442  1.0743
   75CHL1   C18 6683   2.867   1.024   3.541 -0.0063 -0.0257  0.1024
   75CHL1  H18A 6684   2.813   1.009   3.445 -0.1696  1.0574  0.0109
   75CHL1  H18B 6685   2.934   0.938   3.560  0.8176  0.8310  1.2555
   75CHL1  H18C 6686   2.799   1.021   3.629  0.9746 -3.5134  0.8809
   75CHL1   C12 6687   2.852   1.268   3.525 -0.4410  0.0156 -0.6174
   75CHL1  H12A 6688   2.777   1.274   3.607 -0.0849 -1.1809 -0.1850
   75CHL1  H12B 6689   2.908   1.362   3.546  0.0196 -0.5034  0.6163
   75CHL1   C11 6690   2.773   1.275   3.394  0.2646 -0.2968  0.4111
   75CHL1  H11A 6691   2.691   1.200   3.391  0.0298 -0.0204 -0.8102
   75CHL1  H11B 6692   2.728   1.377   3.402 -0.6008 -0.7190  1.0095
   75CHL1    C9 6693   2.862   1.267   3.270  0.4464  0.2360 -1.1916
   75CHL1    H9 6694   2.932   1.353   3.273  0.3163  0.3277  1.6540
   75CHL1   C10 6695   2.778   1.262   3.136  0.7870 -0.4430 -0.0137
   75CHL1   C19 6696   2.680   1.142   3.128  0.1145  0.3484 -0.0760
   75CHL1  H19A 6697   2.592   1.157   3.194  0.1980  0.8380 -0.0745
   75CHL1  H19B 6698   2.640   1.137   3.025  0.9100  3.8358 -0.6822
   75CHL1  H19C 6699   2.716   1.045   3.169 -0.7590 -0.3333 -0.8820
   75CHL1    C1 6700   2.708   1.398   3.128 -0.3214 -0.2265  0.5569
   75CHL1   H1A 6701   2.625   1.402   3.201 -2.0118 -1.1241 -1.2407
   75CHL1   H1B 6702   2.793   1.468   3.148  1.6547 -1.1452 -3.5745
   75CHL1    C2 6703   2.660   1.448   2.991 -0.1046 -0.5828  0.7079
   75CHL1   H2A 6704   2.614   1.549   2.990 -1.6096 -1.2060  2.1470
   75CHL1   H2B 6705   2.577   1.381   2.960  0.7244 -1.0705 -0.5236
   75CHL1   C20 6706   3.023   1.118   3.792 -0.6987 -0.2422 -0.7591
   75CHL1   H20 6707   2.985   1.018   3.821  1.8339 -0.9174  0.5228
   75CHL1   C21 6708   2.920   1.215   3.851 -0.1959  0.0469  1.2550
   75CHL1  H21A 6709   2.956   1.317   3.825 -0.6987 -0.0261  0.2414
   75CHL1  H21B 6710   2.894   1.211   3.959 -1.6449 -2.5738  0.9127
   75CHL1  H21C 6711   2.827   1.199   3.791  0.1680 -0.4566  0.8176
   75CHL1   C22 6712   3.148   1.133   3.885 -0.1246 -0.1390 -0.2025
   75CHL1  H22A 6713   3.242   1.096   3.839 -1.1870 -1.5836 -1.3116
   75CHL1  H22B 6714   3.162   1.241   3.907  0.5462 -0.4085  0.7750
   75CHL1   C23 6715   3.139   1.071   4.026  0.4478  0.4498 -0.2128
   75CHL1  H23A 6716   3.043   1.096   4.075  0.0717 -1.8810  0.3742
   75CHL1  H23B 6717   3.138   0.960   4.021  2.9203  0.2457  1.7200
   75CHL1   C24 6718   3.261   1.114   4.106  0.0057 -0.3554  0.5692
   75CHL1  H24A 6719   3.339   1.035   4.102  0.2525 -0.1244  0.7943
   75CHL1  H24B 6720   3.307   1.204   4.062 -0.0155  0.5737  2.3478
   75CHL1   C25 6721   3.243   1.154   4.254  0.5136 -0.6243 -0.0582
   75CHL1   H25 6722   3.186   1.249   4.264  0.1178 -0.9612  0.9775
   75CHL1   C26 6723   3.161   1.046   4.334 -0.6464 -0.1685  0.2849
   75CHL1  H26A 6724   3.065   1.048   4.278 -0.0608 -0.1371 -0.7480
   75CHL1  H26B 6725   3.204   0.944   4.331 -2.2611 -0.9332  1.8777
   75CHL1  H26C 6726   3.149   1.076   4.440  0.3382  0.6152  0.1969
   75CHL1   C27 6727   3.379   1.181   4.325  0.7422  0.3587  0.2735
   75CHL1  H27A 6728   3.447   1.252   4.274  0.8049 -1.0683 -1.7764
   75CHL1  H27B 6729   3.350   1.229   4.421  0.8855  0.8033  0.0951
   75CHL1  H27C 6730   3.435   1.084   4.330 -1.3659 -0.9641 -0.4708
   76CHL1    C3 6731   2.038   2.276   3.105 -0.5482  0.0990 -0.1119
   76CHL1    H3 6732   2.139   2.316   3.124  0.2789 -1.6039 -0.7576
   76CHL1    O3 6733   2.016   2.232   2.970 -0.2449 -0.1295 -0.1286
   76CHL1   H3' 6734   1.922   2.239   2.951 -0.6840 -2.6605  0.6747
   76CHL1    C4 6735   2.020   2.160   3.200  0.4177  0.2055  0.0617
   76CHL1   H4A 6736   1.924   2.108   3.180  0.4700 -0.0957  0.5627
   76CHL1   H4B 6737   2.099   2.089   3.165  0.5770  0.6776 -0.5412
   76CHL1    C5 6738   2.046   2.212   3.344  0.0085  0.9792 -0.2476
   76CHL1    C6 6739   2.139   2.163   3.427 -0.8957 -0.0690  0.5782
   76CHL1    H6 6740   2.185   2.071   3.390 -2.0499 -1.0359  1.4844
   76CHL1    C7 6741   2.167   2.205   3.575  0.1388  0.4083  0.4564
   76CHL1   H7A 6742   2.185   2.127   3.652  0.4243  1.2678  1.2693
   76CHL1   H7B 6743   2.259   2.266   3.565  0.5386 -0.3563 -0.7997
   76CHL1    C8 6744   2.063   2.304   3.626  0.0686 -0.0808 -0.6572
   76CHL1    H8 6745   1.978   2.236   3.650  0.4987 -0.5864 -0.5592
   76CHL1   C14 6746   2.109   2.386   3.743  0.2347 -0.0376 -0.2426
   76CHL1   H14 6747   2.195   2.451   3.716 -0.7018  1.4539  0.2811
   76CHL1   C15 6748   2.165   2.306   3.863 -0.5838 -0.5774 -0.5945
   76CHL1  H15A 6749   2.095   2.223   3.885 -1.7308  0.3948 -0.4059
   76CHL1  H15B 6750   2.267   2.263   3.858 -1.4461 -2.6697 -0.9578
   76CHL1   C16 6751   2.151   2.396   3.983 -0.8293 -0.3093  0.4838
   76CHL1  H16A 6752   2.124   2.352   4.081 -1.0553  1.9682  1.5075
   76CHL1  H16B 6753   2.251   2.443   3.998 -0.8056 -0.0207 -0.4707
   76CHL1   C17 6754   2.068   2.523   3.935  0.0222  0.0175 -0.4168
   76CHL1   H17 6755   2.144   2.600   3.912 -0.8288  1.4345  1.2985
   76CHL1   C13 6756   1.999   2.478   3.803  0.2805  0.4150 -0.3735
   76CHL1   C18 6757   1.882   2.393   3.839  0.6685 -0.0004 -0.3257
   76CHL1  H18A 6758   1.796   2.462   3.855 -0.9444 -2.0587  0.3719
   76CHL1  H18B 6759   1.839   2.327   3.760  1.0706  0.6204 -1.0842
   76CHL1  H18C 6760   1.890   2.336   3.933 -1.3522 -0.3289 -0.3146
   76CHL1   C12 6761   1.962   2.579   3.698  0.7478  0.4699  0.5185
   76CHL1  H12A 6762   1.886   2.654   3.728  2.8528  2.6308  0.7520
   76CHL1  H12B 6763   2.045   2.647   3.669 -0.2997  1.4642 -0.2536
   76CHL1   C11 6764   1.915   2.513   3.573  0.2618  0.4865  0.2120
   76CHL1  H11A 6765   1.817   2.467   3.597  1.2652 -2.5173 -1.0278
   76CHL1  H11B 6766   1.886   2.597   3.506 -0.6074  0.1250  0.1222
   76CHL1    C9 6767   2.008   2.406   3.516 -0.4097  0.5003 -0.0086
   76CHL1    H9 6768   2.100   2.462   3.486  1.4971 -2.0735  0.6844
   76CHL1   C10 6769   1.962   2.336   3.388  0.4546 -0.4337  0.8600
   76CHL1   C19 6770   1.816   2.287   3.401 -0.2568 -0.0396 -0.0010
   76CHL1  H19A 6771   1.777   2.238   3.309  0.8097 -1.3650  0.2189
   76CHL1  H19B 6772   1.808   2.217   3.487  2.0075 -1.7963 -1.1039
   76CHL1  H19C 6773   1.746   2.371   3.420 -0.5211 -0.5522  1.4144
   76CHL1    C1 6774   1.950   2.440   3.274 -0.3171  0.2613 -0.6808
   76CHL1   H1A 6775   1.875   2.516   3.304 -0.6716 -1.0208  1.8972
   76CHL1   H1B 6776   2.046   2.496   3.267 -0.5195  0.6821 -0.1230
   76CHL1    C2 6777   1.929   2.379   3.134 -0.2577  0.1780  0.9285
   76CHL1   H2A 6778   1.934   2.460   3.059  1.0095  0.4040  1.2328
   76CHL1   H2B 6779   1.828   2.333   3.127 -0.7230  0.9728  2.0502
   76CHL1   C20 6780   1.974   2.574   4.047  0.7380 -0.6083 -0.3481
   76CHL1   H20 6781   1.897   2.495   4.065 -0.4172  0.2552 -1.3839
   76CHL1   C21 6782   1.907   2.702   3.988 -0.4599 -0.6828  0.0026
   76CHL1  H21A 6783   1.861   2.766   4.066 -2.5487  1.5555 -2.8344
   76CHL1  H21B 6784   1.821   2.671   3.925  0.8258  2.4770 -3.7063
   76CHL1  H21C 6785   1.970   2.764   3.921 -2.1000  1.6625  0.5193
   76CHL1   C22 6786   2.046   2.598   4.183  0.2259 -0.8910  0.1745
   76CHL1  H22A 6787   1.969   2.638   4.253  1.1243 -1.1795  1.3508
   76CHL1  H22B 6788   2.080   2.500   4.223  1.0032 -1.0101 -0.7495
   76CHL1   C23 6789   2.168   2.693   4.182  0.1230  0.3396 -0.4504
   76CHL1  H23A 6790   2.248   2.651   4.118  1.7160  1.5176  0.6958
   76CHL1  H23B 6791   2.132   2.787   4.135  1.2373  0.0471 -1.9559
   76CHL1   C24 6792   2.233   2.709   4.323 -0.2011 -0.6260 -1.0225
   76CHL1  H24A 6793   2.158   2.765   4.383 -1.8598 -2.1932 -1.5227
   76CHL1  H24B 6794   2.261   2.614   4.374 -0.5100 -0.9740 -1.4830
   76CHL1   C25 6795   2.357   2.793   4.330  0.0672  0.6829 -0.0476
   76CHL1   H25 6796   2.431   2.752   4.258  0.8311 -2.2379  2.1991
   76CHL1   C26 6797   2.329   2.938   4.286 -0.3479 -0.1697  0.4003
   76CHL1  H26A 6798   2.239   2.973   4.342 -0.2332 -0.2402  0.6276
   76CHL1  H26B 6799   2.416   2.997   4.321  1.9345 -2.9624 -0.2841
   76CHL1  H26C 6800   2.316   2.949   4.176 -1.6270  0.6810  0.6049
   76CHL1   C27 6801   2.414   2.795   4.466 -0.0667 -0.0840 -0.7238
   76CHL1  H27A 6802   2.421   2.696   4.515 -1.8661 -1.4662 -3.0314
   76CHL1  H27B 6803   2.518   2.833   4.460  0.0784  0.1425  2.0279
   76CHL1  H27C 6804   2.363   2.868   4.532  3.2674  0.6958  1.2232
   77SOPE     N 6805   5.477   1.419   6.649 -0.3279  0.0248 -0.1460
   77SOPE   HN1 6806   5.538   1.335   6.652 -0.2560 -0.1913 -3.4231
   77SOPE   HN2 6807   5.523   1.496   6.701 -0.7455  2.2441 -2.7687
   77SOPE   HN3 6808   5.385   1.396   6.690 -0.7555  1.0552 -0.4741
   77SOPE   C12 6809   5.453   1.473   6.505  0.1200 -0.1815  0.2002
   77SOPE  H12A 6810   5.396   1.390   6.459  1.0105 -1.1161  0.7492
   77SOPE  H12B 6811   5.556   1.478   6.463  0.7095  1.0364  1.7097
   77SOPE   C11 6812   5.363   1.600   6.514  0.0325  0.0357 -0.0654
   77SOPE  H11A 6813   5.266   1.567   6.556  0.0170 -0.1031 -0.2072
   77SOPE  H11B 6814   5.337   1.638   6.413  0.6249  1.5721  0.3329
   77SOPE     P 6815   5.336   1.806   6.668  0.4629 -0.1833 -0.1168
   77SOPE   O13 6816   5.413   1.936   6.680  0.4802  0.2220 -0.5633
   77SOPE   O14 6817   5.275   1.755   6.791 -0.3700 -0.0927 -0.6450
   77SOPE   O12 6818   5.422   1.697   6.603  0.3446  0.8612  0.1625
   77SOPE   O11 6819   5.226   1.822   6.555 -0.2936  0.0829  0.4922
   77SOPE    C1 6820   5.089   1.798   6.578 -0.1906 -0.4259 -0.6946
   77SOPE    HA 6821   5.041   1.886   6.625  0.3996 -0.7962  0.6493
   77SOPE    HB 6822   5.079   1.711   6.647  1.6711  1.0033  1.5521
   77SOPE    C2 6823   5.006   1.778   6.446 -0.5623  0.8819 -0.5459
   77SOPE    HS 6824   4.901   1.756   6.475 -0.2868  0.8274  0.4240
   77SOPE   O21 6825   5.072   1.665   6.383  0.4398  0.3711  0.5291
   77SOPE   C21 6826   4.991   1.585   6.319  0.2321 -0.0929  0.0114
   77SOPE   O22 6827   4.869   1.579   6.327 -0.1458 -0.1986  0.0642
   77SOPE   C22 6828   5.080   1.497   6.236 -0.1009 -0.3702  0.1712
   77SOPE   H2R 6829   5.151   1.435   6.295 -2.4712 -2.4144  1.0755
   77SOPE   H2S 6830   5.138   1.573   6.181 -0.4562 -0.4690 -0.3469
   77SOPE    C3 6831   5.018   1.903   6.351  0.0559 -0.3688  0.9616
   77SOPE    HX 6832   5.123   1.918   6.322  0.0477  1.6455  1.8217
   77SOPE    HY 6833   4.995   1.991   6.414 -0.7364 -0.4992  0.8721
   77SOPE   O31 6834   4.935   1.901   6.233 -0.7365 -0.4353  0.5120
   77SOPE   C31 6835   4.801   1.916   6.243  0.1190 -0.4048 -0.4713
   77SOPE   O32 6836   4.738   1.918   6.344  0.7081  0.1166  0.4298
   77SOPE   C32 6837   4.748   1.916   6.102  0.2797  0.0088 -1.4861
   77SOPE   H2X 6838   4.801   1.997   6.046  0.4686 -0.6974 -2.3556
   77SOPE   H2Y 6839   4.638   1.929   6.109  0.2434 -1.0878  1.1468
   77SOPE   C23 6840   5.012   1.420   6.127 -0.1637  0.6921 -0.7905
   77SOPE   H3R 6841   4.939   1.483   6.071 -0.3223  0.5170 -0.7813
   77SOPE   H3S 6842   4.962   1.336   6.179 -0.7824  0.9667 -0.9299
   77SOPE   C24 6843   5.112   1.355   6.032  0.1256 -0.4137  0.4944
   77SOPE   H4R 6844   5.165   1.441   5.987 -0.2402  0.4971  1.7419
   77SOPE   H4S 6845   5.195   1.298   6.078  1.9010  1.9008  0.3140
   77SOPE   C25 6846   5.041   1.273   5.921 -0.2189  0.5187  0.3106
   77SOPE   H5R 6847   5.012   1.175   5.965  0.0251 -0.3027 -1.2688
   77SOPE   H5S 6848   4.950   1.320   5.879 -0.1654  1.0376  0.7724
   77SOPE   C26 6849   5.135   1.235   5.804  0.4391 -0.7800 -0.0362
   77SOPE   H6R 6850   5.171   1.331   5.761  2.0219 -0.5166  1.7256
   77SOPE   H6S 6851   5.222   1.180   5.844  0.0382  1.2480  4.1583
   77SOPE   C27 6852   5.053   1.155   5.700 -0.3568  0.1032 -0.2606
   77SOPE   H7R 6853   5.007   1.070   5.756 -0.3266  0.0562 -0.3066
   77SOPE   H7S 6854   4.976   1.213   5.646  1.7126  2.1392 -1.1775
   77SOPE   C28 6855   5.149   1.087   5.594 -0.2549  0.3100 -0.3035
   77SOPE   H8R 6856   5.247   1.058   5.637 -0.9099 -2.2548 -0.3743
   77SOPE   H8S 6857   5.111   0.993   5.549  0.2697 -1.1692  2.1734
   77SOPE   C29 6858   5.180   1.176   5.481  0.0288 -0.0306  0.0144
   77SOPE   H91 6859   5.251   1.257   5.499 -0.0632  0.6235 -2.2975
   77SOPE  C210 6860   5.117   1.181   5.362  0.5964 -0.2755  0.3654
   77SOPE  H101 6861   5.167   1.255   5.299 -1.0809 -0.8933 -1.7894
   77SOPE  C211 6862   5.009   1.098   5.307 -0.0018  0.1767  0.1259
   77SOPE  H11R 6863   4.933   1.166   5.262  0.5985  1.1585  0.5615
   77SOPE  H11S 6864   4.958   1.036   5.384  0.6237  0.3754  0.7106
   77SOPE  C212 6865   5.059   1.004   5.200  0.2866 -0.1162  0.2917
   77SOPE  H12R 6866   4.977   0.942   5.158  1.7273 -2.2379  0.4444
   77SOPE  H12S 6867   5.123   0.928   5.248 -0.1430 -2.1094 -2.0812
   77SOPE  C213 6868   5.133   1.078   5.082  0.5231 -0.1204  0.3678
   77SOPE  H13R 6869   5.226   1.134   5.105  1.2294 -0.4764 -1.4314
   77SOPE  H13S 6870   5.058   1.141   5.030 -0.1910 -0.6728  0.7128
   77SOPE  C214 6871   5.181   0.979   4.979  0.2227 -0.4933 -0.2522
   77SOPE  H14R 6872   5.111   0.897   4.953  1.7608 -2.0787  0.4355
   77SOPE  H14S 6873   5.276   0.929   5.007  1.2121  1.7535  0.6439
   77SOPE  C215 6874   5.216   1.063   4.852  0.1363 -0.0271 -0.7302
   77SOPE  H15R 6875   5.278   1.150   4.883 -0.8056  0.3453  0.1947
   77SOPE  H15S 6876   5.125   1.116   4.815  0.3984  2.1077  1.4480
   77SOPE  C216 6877   5.274   0.972   4.743 -0.2230  0.1759 -0.5118
   77SOPE  H16R 6878   5.197   0.899   4.711 -1.2594  0.0015  2.1056
   77SOPE  H16S 6879   5.369   0.928   4.780 -0.0175  1.3378  0.4320
   77SOPE  C217 6880   5.302   1.050   4.619 -0.2845  0.1603 -0.2522
   77SOPE  H17R 6881   5.329   1.156   4.637  0.1694 -0.0470  0.3181
   77SOPE  H17S 6882   5.208   1.046   4.560 -0.3805 -1.6597 -0.0186
   77SOPE  C218 6883   5.411   0.984   4.537 -0.4500  0.5536 -0.0609
   77SOPE  H18R 6884   5.371   0.891   4.491  1.4789  1.2828 -3.5134
   77SOPE  H18S 6885   5.500   0.953   4.596 -1.2352 -1.8998 -0.0296
   77SOPE  H18T 6886   5.435   1.047   4.450 -1.2265  1.8153  0.6181
   77SOPE   C33 6887   4.783   1.795   6.025 -0.1352  0.0630 -0.5717
   77SOPE   H3X 6888   4.727   1.710   6.068 -1.2465  1.4677  0.8870
   77SOPE   H3Y 6889   4.891   1.781   6.047  0.0313 -0.8903 -1.8917
   77SOPE   C34 6890   4.757   1.811   5.877 -0.6891  0.6988  0.8612
   77SOPE   H4X 6891   4.809   1.899   5.833  0.0130 -0.6224 -1.0740
   77SOPE   H4Y 6892   4.649   1.821   5.849 -0.0272  0.1851 -2.2181
   77SOPE   C35 6893   4.814   1.699   5.798  0.1397 -0.2722  0.7103
   77SOPE   H5X 6894   4.754   1.608   5.818 -0.0707 -0.2472  0.2036
   77SOPE   H5Y 6895   4.922   1.681   5.820 -0.1532 -1.2270  1.4580
   77SOPE   C36 6896   4.812   1.727   5.649  0.1952 -0.2279  0.6037
   77SOPE   H6X 6897   4.869   1.820   5.628  0.2907 -1.1225 -4.5092
   77SOPE   H6Y 6898   4.707   1.747   5.619  0.5318 -0.2799 -0.6480
   77SOPE   C37 6899   4.864   1.621   5.557  0.9873  0.1966  0.2132
   77SOPE   H7X 6900   4.798   1.533   5.570 -0.4681  0.9257 -1.6710
   77SOPE   H7Y 6901   4.963   1.578   5.584  1.2721  0.2944 -0.6485
   77SOPE   C38 6902   4.855   1.646   5.406  0.0391  0.1271 -0.3994
   77SOPE   H8X 6903   4.912   1.739   5.382 -0.3877  0.5416  0.1851
   77SOPE   H8Y 6904   4.750   1.661   5.372 -0.6849 -0.7632  1.3209
   77SOPE   C39 6905   4.921   1.534   5.328  0.6149 -0.1869  0.8436
   77SOPE   H9X 6906   4.865   1.442   5.353  2.7216 -1.5179  0.8539
   77SOPE   H9Y 6907   5.028   1.521   5.354  1.1044 -3.4658 -2.1616
   77SOPE  C310 6908   4.929   1.553   5.173 -0.5716 -0.1656  1.0964
   77SOPE  H10X 6909   5.008   1.627   5.148  0.4752 -1.3767  0.7447
   77SOPE  H10Y 6910   4.832   1.589   5.131 -0.7768 -0.2366  1.5061
   77SOPE  C311 6911   4.971   1.428   5.102  0.2000  0.3906 -0.4720
   77SOPE  H11X 6912   4.887   1.357   5.112  0.2495  0.2658 -0.9401
   77SOPE  H11Y 6913   5.058   1.382   5.154 -0.5251 -1.6125 -0.9609
   77SOPE  C312 6914   5.001   1.437   4.946 -0.5949  0.1562 -0.3871
   77SOPE  H12X 6915   5.064   1.350   4.918 -0.1539  0.1317  0.6321
   77SOPE  H12Y 6916   5.055   1.534   4.934  0.5854  0.0025  2.7695
   77SOPE  C313 6917   4.866   1.421   4.867  0.0322  0.0964  0.6855
   77SOPE  H13X 6918   4.829   1.522   4.839 -0.1843  0.5215  2.3977
   77SOPE  H13Y 6919   4.790   1.365   4.924 -2.1844  0.7807 -1.4191
   77SOPE  C314 6920   4.880   1.353   4.723  0.1326 -0.3972  0.2317
   77SOPE  H14X 6921   4.915   1.249   4.741 -1.1197 -1.2655 -1.9209
   77SOPE  H14Y 6922   4.964   1.398   4.666  0.3905 -2.0932 -0.8095
   77SOPE  C315 6923   4.748   1.323   4.649 -0.1192  0.6242 -0.4647
   77SOPE  H15X 6924   4.709   1.416   4.602  0.6339  0.1499 -2.1024
   77SOPE  H15Y 6925   4.674   1.303   4.730 -0.6457  2.8643 -0.3301
   77SOPE  C316 6926   4.759   1.223   4.528 -1.3211 -0.4412  0.4945
   77SOPE  H16X 6927   4.775   1.119   4.564 -3.2991 -1.4834 -1.3870
   77SOPE  H16Y 6928   4.839   1.261   4.461 -0.4348  1.3807  2.4710
   77SOPE  C317 6929   4.637   1.207   4.434 -0.0951  0.1736  0.0066
   77SOPE  H17X 6930   4.622   1.301   4.377 -2.3122  0.6643  1.2638
   77SOPE  H17Y 6931   4.553   1.201   4.506  0.0527  0.3470  0.1931
   77SOPE  C318 6932   4.635   1.083   4.346  0.3894 -0.1544 -0.1183
   77SOPE  H18X 6933   4.549   1.090   4.276  0.0138  0.3182  0.3807
   77SOPE  H18Y 6934   4.617   0.993   4.408  0.6887 -0.3258 -0.2816
   77SOPE  H18Z 6935   4.716   1.077   4.270 -0.1413  1.1423 -0.8354
   78SOPE     N 6936   5.300   0.122   6.928 -0.8773 -0.1575  0.0977
   78SOPE   HN1 6937   5.235   0.123   7.010  1.0215  0.6985  1.6809
   78SOPE   HN2 6938   5.385   0.071   6.960 -0.8240  0.2784  0.6769
   78SOPE   HN3 6939   5.328   0.220   6.907 -2.2726  0.1862 -0.2356
   78SOPE   C12 6940   5.223   0.055   6.812 -0.3677  0.1459  0.4393
   78SOPE  H12A 6941   5.189  -0.045   6.847  0.6037  0.0661  1.1826
   78SOPE  H12B 6942   5.294   0.030   6.730 -2.1947 -1.0950 -0.8608
   78SOPE   C11 6943   5.089   0.122   6.782 -0.1411  0.1833  0.0873
   78SOPE  H11A 6944   5.038   0.054   6.710 -0.6107  2.1441 -1.5271
   78SOPE  H11B 6945   5.113   0.218   6.732  0.8314 -1.0558 -1.9801
   78SOPE     P 6946   4.891   0.236   6.913  0.0535 -0.2926 -0.5376
   78SOPE   O13 6947   4.851   0.235   7.052  0.8069 -0.1379 -0.5678
   78SOPE   O14 6948   4.788   0.183   6.818 -0.6708 -0.0873 -0.3535
   78SOPE   O12 6949   5.014   0.141   6.900 -0.1490  0.7359 -0.3756
   78SOPE   O11 6950   4.947   0.379   6.875  0.1843 -0.3281 -0.7810
   78SOPE    C1 6951   4.864   0.476   6.821 -0.1108  0.6705  0.4104
   78SOPE    HA 6952   4.864   0.567   6.886  3.4783  0.0406  1.5193
   78SOPE    HB 6953   4.759   0.442   6.809 -0.5040  2.0703 -0.3244
   78SOPE    C2 6954   4.910   0.507   6.671  0.0884 -0.1775  0.3077
   78SOPE    HS 6955   4.848   0.588   6.628  0.9259 -0.9302 -2.5407
   78SOPE   O21 6956   4.894   0.383   6.595 -0.5010  0.0945  0.0208
   78SOPE   C21 6957   4.768   0.349   6.554  0.6057 -0.7229 -0.5034
   78SOPE   O22 6958   4.663   0.410   6.576  0.3987 -0.0960 -0.6073
   78SOPE   C22 6959   4.776   0.223   6.477  0.3505  0.1658  0.4579
   78SOPE   H2R 6960   4.805   0.149   6.555 -0.1403  0.5144  0.9866
   78SOPE   H2S 6961   4.859   0.238   6.406 -0.3543 -2.2651 -0.9873
   78SOPE    C3 6962   5.058   0.547   6.655 -0.3647  0.5729  0.6252
   78SOPE    HX 6963   5.122   0.473   6.708  0.2355 -1.0359 -2.1814
   78SOPE    HY 6964   5.085   0.647   6.695  0.0755  1.8210 -2.4904
   78SOPE   O31 6965   5.115   0.537   6.523 -0.0934 -0.7004  0.9375
   78SOPE   C31 6966   5.069   0.628   6.421 -0.8976  0.5635  0.0427
   78SOPE   O32 6967   4.993   0.719   6.448 -0.0282 -0.1354  0.5018
   78SOPE   C32 6968   5.142   0.595   6.290 -0.0465  0.6960  0.1786
   78SOPE   H2X 6969   5.189   0.496   6.303 -1.4700 -0.0332 -0.0872
   78SOPE   H2Y 6970   5.222   0.672   6.280  1.7827 -1.0974  0.5449
   78SOPE   C23 6971   4.644   0.187   6.405 -0.0154  0.2208 -0.0413
   78SOPE   H3R 6972   4.607   0.273   6.344  1.4910  1.6643  0.9800
   78SOPE   H3S 6973   4.561   0.170   6.477 -1.0449  2.4845 -0.5854
   78SOPE   C24 6974   4.659   0.065   6.315 -0.1948 -0.2473  1.2821
   78SOPE   H4R 6975   4.684  -0.024   6.377 -0.8016  0.1444  2.1051
   78SOPE   H4S 6976   4.562   0.057   6.261 -0.4392  1.4133  1.4451
   78SOPE   C25 6977   4.771   0.080   6.208  0.3558  0.2395  0.5508
   78SOPE   H5R 6978   4.754   0.162   6.135 -1.3306 -0.8681 -0.3648
   78SOPE   H5S 6979   4.866   0.117   6.252  0.5450 -0.9981  1.2070
   78SOPE   C26 6980   4.803  -0.057   6.128 -0.4418 -0.4309 -0.2967
   78SOPE   H6R 6981   4.871  -0.040   6.042  0.8892  0.5836  0.9060
   78SOPE   H6S 6982   4.862  -0.135   6.179 -1.6243 -1.1513  0.0231
   78SOPE   C27 6983   4.673  -0.107   6.060  0.4194 -0.0519 -0.2112
   78SOPE   H7R 6984   4.677  -0.201   6.000  0.1252  0.1178 -0.4959
   78SOPE   H7S 6985   4.611  -0.134   6.148  0.5834 -0.2131 -0.1443
   78SOPE   C28 6986   4.599  -0.009   5.973 -0.3427  0.4405 -0.4245
   78SOPE   H8R 6987   4.511  -0.048   5.917 -1.1963 -0.2174  1.3147
   78SOPE   H8S 6988   4.558   0.066   6.044  0.3204 -1.2187  1.8392
   78SOPE   C29 6989   4.700   0.053   5.877  0.4250  0.4391  0.3291
   78SOPE   H91 6990   4.731   0.157   5.896 -0.4781  0.6932  0.4531
   78SOPE  C210 6991   4.740   0.013   5.758 -0.4397 -0.3786  0.5851
   78SOPE  H101 6992   4.793   0.081   5.689 -2.5097  0.7261 -0.0039
   78SOPE  C211 6993   4.687  -0.115   5.698 -0.5746  0.4026  0.5907
   78SOPE  H11R 6994   4.579  -0.124   5.725 -0.6883 -2.5375 -0.5234
   78SOPE  H11S 6995   4.744  -0.201   5.738 -1.3079 -0.7950 -0.8662
   78SOPE  C212 6996   4.692  -0.117   5.542  0.8243 -0.1798 -0.1868
   78SOPE  H12R 6997   4.783  -0.072   5.497 -0.0756 -0.4318 -2.4281
   78SOPE  H12S 6998   4.610  -0.049   5.513  1.0708  0.5050  0.6857
   78SOPE  C213 6999   4.681  -0.260   5.489  0.4530  0.2035  0.0964
   78SOPE  H13R 7000   4.572  -0.280   5.503  0.5494  0.2255  0.9296
   78SOPE  H13S 7001   4.745  -0.320   5.557 -0.3582  0.7277  1.3593
   78SOPE  C214 7002   4.727  -0.294   5.346 -0.3895 -0.2564 -0.6806
   78SOPE  H14R 7003   4.716  -0.404   5.337  1.6118 -0.7531  1.9768
   78SOPE  H14S 7004   4.836  -0.271   5.344 -0.6397  1.0015 -1.1387
   78SOPE  C215 7005   4.646  -0.208   5.257 -0.2781  0.0644 -0.0993
   78SOPE  H15R 7006   4.644  -0.098   5.273  1.9539  0.3272 -1.2339
   78SOPE  H15S 7007   4.545  -0.248   5.232  1.0657 -2.3411 -2.2140
   78SOPE  C216 7008   4.720  -0.200   5.120  0.5239 -0.2312 -0.1275
   78SOPE  H16R 7009   4.821  -0.154   5.124  1.2150 -1.5862 -1.0333
   78SOPE  H16S 7010   4.668  -0.127   5.054 -0.2615 -0.1910  0.5272
   78SOPE  C217 7011   4.741  -0.336   5.043 -0.2817  0.1510 -0.3846
   78SOPE  H17R 7012   4.646  -0.392   5.031  1.5299 -3.4848  0.6699
   78SOPE  H17S 7013   4.801  -0.401   5.109  1.1766  0.0491 -1.7616
   78SOPE  C218 7014   4.822  -0.332   4.914 -0.4331  0.1665 -0.4044
   78SOPE  H18R 7015   4.764  -0.288   4.830 -0.7953 -1.2175 -0.9137
   78SOPE  H18S 7016   4.844  -0.437   4.881  0.6455 -0.0697  0.9854
   78SOPE  H18T 7017   4.913  -0.271   4.927  1.2228 -2.1716 -0.3159
   78SOPE   C33 7018   5.050   0.613   6.159  0.5917 -0.4563 -0.3861
   78SOPE   H3X 7019   5.114   0.638   6.071  0.9708 -0.3672 -0.0875
   78SOPE   H3Y 7020   4.988   0.704   6.171  0.8121 -0.4677  1.0505
   78SOPE   C34 7021   4.968   0.487   6.118 -0.3347  0.0656 -0.2300
   78SOPE   H4X 7022   5.046   0.409   6.105 -2.1588 -1.6418 -1.5986
   78SOPE   H4Y 7023   4.924   0.502   6.017  2.4076 -3.1844 -2.1348
   78SOPE   C35 7024   4.862   0.442   6.215 -0.2288  0.9054  0.0384
   78SOPE   H5X 7025   4.910   0.430   6.315  0.3100  0.8790 -0.2227
   78SOPE   H5Y 7026   4.826   0.340   6.189  2.1426  0.0594 -0.2064
   78SOPE   C36 7027   4.748   0.543   6.232  0.2097 -0.0547 -0.6697
   78SOPE   H6X 7028   4.780   0.639   6.277 -0.6075 -0.8309  1.6990
   78SOPE   H6Y 7029   4.675   0.503   6.305  0.1863 -0.7565 -1.0679
   78SOPE   C37 7030   4.667   0.570   6.106 -0.4256  0.0708 -0.1599
   78SOPE   H7X 7031   4.734   0.640   6.052  0.3974 -1.6602 -1.5348
   78SOPE   H7Y 7032   4.565   0.607   6.130 -0.5250  0.5759 -1.2811
   78SOPE   C38 7033   4.639   0.445   6.017  0.2474  0.5704 -0.8389
   78SOPE   H8X 7034   4.630   0.352   6.077 -1.0668  0.0188 -1.8332
   78SOPE   H8Y 7035   4.728   0.436   5.951 -0.0423 -3.1646 -0.9200
   78SOPE   C39 7036   4.524   0.462   5.927 -0.2549 -0.8697  0.7318
   78SOPE   H9X 7037   4.552   0.547   5.860  1.0139 -1.9553 -0.1839
   78SOPE   H9Y 7038   4.432   0.464   5.988 -2.1335  1.0688 -1.9387
   78SOPE  C310 7039   4.520   0.344   5.830 -0.9904  0.4911  0.5482
   78SOPE  H10X 7040   4.500   0.250   5.884  0.1277 -0.9799 -1.4460
   78SOPE  H10Y 7041   4.623   0.331   5.788 -1.3844  0.9253 -0.6146
   78SOPE  C311 7042   4.434   0.346   5.705  0.9286 -0.3055 -0.1075
   78SOPE  H11X 7043   4.349   0.414   5.729  2.4233  1.9885 -0.9079
   78SOPE  H11Y 7044   4.388   0.249   5.679  0.5752  0.0166 -0.7244
   78SOPE  C312 7045   4.499   0.412   5.580 -0.2073  0.2225  0.0533
   78SOPE  H12X 7046   4.590   0.359   5.547  0.4768  0.2446  1.7946
   78SOPE  H12Y 7047   4.538   0.515   5.593 -0.8127  0.3234  1.2316
   78SOPE  C313 7048   4.405   0.402   5.460  0.2669  0.6509 -0.0517
   78SOPE  H13X 7049   4.311   0.456   5.485  0.3296 -0.1362  2.0508
   78SOPE  H13Y 7050   4.381   0.294   5.461 -0.4762  0.7924 -0.9079
   78SOPE  C314 7051   4.460   0.433   5.320  0.0158 -0.2690 -0.6853
   78SOPE  H14X 7052   4.556   0.381   5.300  1.1276  1.4955 -0.1074
   78SOPE  H14Y 7053   4.483   0.541   5.320 -0.4768 -0.0800  2.3639
   78SOPE  C315 7054   4.367   0.397   5.203  0.3660  0.6696 -0.4543
   78SOPE  H15X 7055   4.269   0.447   5.218  0.0732  0.2064 -0.8015
   78SOPE  H15Y 7056   4.358   0.288   5.220  2.2197 -0.0204 -3.3535
   78SOPE  C316 7057   4.412   0.426   5.060  0.7361 -0.6377 -0.0692
   78SOPE  H16X 7058   4.372   0.347   4.993 -0.3375  0.2280 -0.4889
   78SOPE  H16Y 7059   4.521   0.401   5.060  0.9200  0.1436  0.2495
   78SOPE  C317 7060   4.398   0.575   5.018  0.3598 -0.1269  0.0536
   78SOPE  H17X 7061   4.445   0.639   5.096  1.2234 -1.7276  0.9044
   78SOPE  H17Y 7062   4.291   0.601   5.003  0.1147 -0.5017  1.0258
   78SOPE  C318 7063   4.457   0.604   4.876  0.0504 -0.0590  0.2818
   78SOPE  H18X 7064   4.412   0.542   4.796  0.6288  0.3753 -0.3964
   78SOPE  H18Y 7065   4.566   0.583   4.872  0.0212 -0.4831  1.3139
   78SOPE  H18Z 7066   4.442   0.710   4.847 -0.8045 -0.3506 -0.3817
   79SOPE     N 7067   6.006   6.126   6.718  0.5930  0.6465 -0.1073
   79SOPE   HN1 7068   5.976   6.077   6.805 -0.7563 -0.4513 -1.1590
   79SOPE   HN2 7069   6.103   6.161   6.737  0.5298  1.6330 -1.4480
   79SOPE   HN3 7070   5.938   6.202   6.698  0.7674  0.9952  0.5840
   79SOPE   C12 7071   6.020   6.024   6.607 -0.3125 -0.3139 -0.3842
   79SOPE  H12A 7072   6.044   6.081   6.514 -0.1759 -0.8344 -0.6702
   79SOPE  H12B 7073   5.917   5.983   6.600  0.2791 -1.8180 -0.6981
   79SOPE   C11 7074   6.116   5.909   6.645  0.5092 -0.5120  0.5625
   79SOPE  H11A 7075   6.208   5.961   6.679  0.2292  1.0551 -0.9147
   79SOPE  H11B 7076   6.143   5.843   6.559 -0.8772  0.6600 -0.8178
   79SOPE     P 7077   6.151   5.751   6.852 -0.2310 -0.0493  0.3252
   79SOPE   O13 7078   6.068   5.657   6.929  0.2463  0.0554  0.5794
   79SOPE   O14 7079   6.235   5.845   6.922  0.1284 -0.2689  0.3739
   79SOPE   O12 7080   6.065   5.830   6.752 -0.4827 -0.2646 -0.3805
   79SOPE   O11 7081   6.245   5.682   6.750  0.2436  0.1390 -0.1043
   79SOPE    C1 7082   6.191   5.559   6.688 -0.1234  0.0960  0.7445
   79SOPE    HA 7083   6.102   5.587   6.626 -0.0010  1.5425  1.1752
   79SOPE    HB 7084   6.164   5.484   6.765 -1.9761  0.6609  0.7016
   79SOPE    C2 7085   6.286   5.487   6.598 -0.9426  0.3940  0.1142
   79SOPE    HS 7086   6.381   5.464   6.652 -1.4471 -0.6599  0.5758
   79SOPE   O21 7087   6.307   5.572   6.493 -0.0862 -0.5795 -0.6008
   79SOPE   C21 7088   6.421   5.561   6.428  0.1884 -0.1669 -0.5139
   79SOPE   O22 7089   6.521   5.513   6.471 -0.1745 -0.5968 -0.0262
   79SOPE   C22 7090   6.388   5.586   6.282 -0.5584  0.3392 -0.2518
   79SOPE   H2R 7091   6.455   5.517   6.227 -0.3106  0.8638 -0.6104
   79SOPE   H2S 7092   6.420   5.689   6.257  1.8526 -0.6802 -1.7284
   79SOPE    C3 7093   6.237   5.342   6.562  0.8355 -0.2140 -0.0641
   79SOPE    HX 7094   6.245   5.291   6.660  0.5703 -0.5806 -0.2320
   79SOPE    HY 7095   6.293   5.289   6.483  0.1711 -1.4770  0.2852
   79SOPE   O31 7096   6.103   5.353   6.514  0.8797 -0.1340  0.6753
   79SOPE   C31 7097   6.035   5.239   6.523  0.9624 -0.3103  0.0696
   79SOPE   O32 7098   6.070   5.144   6.589 -0.7728  0.9340 -0.3621
   79SOPE   C32 7099   5.898   5.257   6.449 -0.4024 -0.0265  0.1810
   79SOPE   H2X 7100   5.890   5.360   6.407 -0.4326 -0.9483 -2.2753
   79SOPE   H2Y 7101   5.823   5.240   6.529  1.5770 -1.9239  1.7533
   79SOPE   C23 7102   6.246   5.561   6.230  0.0750  0.3425 -0.4081
   79SOPE   H3R 7103   6.166   5.632   6.261 -0.8491 -0.2680 -1.3013
   79SOPE   H3S 7104   6.200   5.468   6.270 -1.6036  0.6938 -1.4112
   79SOPE   C24 7105   6.242   5.542   6.076  0.2106 -0.3596 -0.2535
   79SOPE   H4R 7106   6.292   5.626   6.024  1.4203 -1.0359 -0.1986
   79SOPE   H4S 7107   6.292   5.444   6.063  3.5044  0.7741  2.4817
   79SOPE   C25 7108   6.102   5.554   6.018 -0.2322  0.3512 -0.3917
   79SOPE   H5R 7109   6.037   5.476   6.065 -3.7379  2.8652 -0.6457
   79SOPE   H5S 7110   6.056   5.654   6.036 -1.4506  0.0053 -1.4897
   79SOPE   C26 7111   6.093   5.527   5.864 -0.3748  0.0821  0.0213
   79SOPE   H6R 7112   6.111   5.625   5.817 -1.3878  0.4769  0.4330
   79SOPE   H6S 7113   6.163   5.446   5.833  0.1321  0.0657  1.1654
   79SOPE   C27 7114   5.955   5.471   5.834  0.5999  0.1633  0.1965
   79SOPE   H7R 7115   5.944   5.376   5.890  0.0267  1.2345  1.9667
   79SOPE   H7S 7116   5.874   5.539   5.869 -0.1522 -0.6292  0.0278
   79SOPE   C28 7117   5.929   5.453   5.685  0.2217  0.5972  0.6124
   79SOPE   H8R 7118   6.013   5.391   5.646 -0.4654 -0.4198  0.7033
   79SOPE   H8S 7119   5.835   5.398   5.666  0.1520  1.7850 -3.2313
   79SOPE   C29 7120   5.916   5.581   5.607  0.0005 -0.4456  0.7026
   79SOPE   H91 7121   5.890   5.673   5.661  1.3958  0.5919 -0.3022
   79SOPE  C210 7122   5.946   5.593   5.478 -0.0616  0.1740 -0.3525
   79SOPE  H101 7123   5.931   5.691   5.429 -0.3321  0.3272  0.0351
   79SOPE  C211 7124   5.982   5.483   5.382  0.4944 -0.2026  0.4214
   79SOPE  H11R 7125   5.950   5.384   5.419 -0.1294  0.5437  1.9783
   79SOPE  H11S 7126   6.090   5.487   5.355  0.2375  1.1025 -0.5564
   79SOPE  C212 7127   5.912   5.513   5.250  0.2886 -0.0078  0.3164
   79SOPE  H12R 7128   5.993   5.577   5.207  4.5326 -4.2552  1.0590
   79SOPE  H12S 7129   5.816   5.566   5.263  0.1555 -0.6591  2.2988
   79SOPE  C213 7130   5.904   5.393   5.159  0.4650  0.2253 -0.5436
   79SOPE  H13R 7131   5.811   5.341   5.189  0.2188 -0.0360 -1.6984
   79SOPE  H13S 7132   5.993   5.329   5.177  0.0080  0.2758  2.3839
   79SOPE  C214 7133   5.886   5.414   5.006 -0.0494  0.4960  0.2675
   79SOPE  H14R 7134   5.957   5.487   4.962 -0.0673  0.0011 -0.6090
   79SOPE  H14S 7135   5.783   5.452   4.988 -0.5859 -0.7460  0.5685
   79SOPE  C215 7136   5.915   5.285   4.929  0.5031  0.5649  0.7764
   79SOPE  H15R 7137   5.874   5.192   4.975  3.8210 -2.2856 -1.4980
   79SOPE  H15S 7138   6.026   5.276   4.925  0.3722 -0.6567 -1.5991
   79SOPE  C216 7139   5.863   5.302   4.783 -0.0960 -0.1759 -0.2962
   79SOPE  H16R 7140   5.827   5.407   4.773 -0.2875 -0.1467  0.6400
   79SOPE  H16S 7141   5.777   5.236   4.758  0.1018 -0.2063 -0.9100
   79SOPE  C217 7142   5.960   5.284   4.669  0.0599 -0.1065 -0.0948
   79SOPE  H17R 7143   6.047   5.349   4.696  0.8368 -1.3161  0.4025
   79SOPE  H17S 7144   5.916   5.337   4.582  0.9129 -0.1717 -0.5715
   79SOPE  C218 7145   5.997   5.137   4.646 -0.0729 -0.5926  0.3174
   79SOPE  H18R 7146   6.041   5.087   4.735  0.6919 -0.4681  0.0133
   79SOPE  H18S 7147   6.077   5.144   4.569 -0.4513 -1.8818 -0.2276
   79SOPE  H18T 7148   5.908   5.078   4.616 -1.1180  0.9840  0.2191
   79SOPE   C33 7149   5.874   5.158   6.332  0.0508 -0.4484 -0.1846
   79SOPE   H3X 7150   5.764   5.157   6.317 -0.1389  2.0627  0.5007
   79SOPE   H3Y 7151   5.906   5.053   6.348  1.3364 -0.1867 -0.8961
   79SOPE   C34 7152   5.944   5.209   6.214 -1.1741 -0.2095  0.0781
   79SOPE   H4X 7153   6.043   5.159   6.202  0.0210  1.3166  2.7168
   79SOPE   H4Y 7154   5.951   5.320   6.205  2.2970 -0.4888 -3.6780
   79SOPE   C35 7155   5.884   5.166   6.075 -0.5501  0.8165  0.0435
   79SOPE   H5X 7156   5.966   5.210   6.014  0.4942  0.5903  1.2334
   79SOPE   H5Y 7157   5.789   5.218   6.052 -1.0045  0.0335  0.1440
   79SOPE   C36 7158   5.888   5.016   6.034  0.5249  0.0388 -0.2537
   79SOPE   H6X 7159   5.797   4.978   6.084  0.5038  1.9866  1.2905
   79SOPE   H6Y 7160   5.973   4.960   6.078  0.4659 -0.6121 -0.9417
   79SOPE   C37 7161   5.899   5.001   5.882 -0.5134  0.3416  0.1418
   79SOPE   H7X 7162   5.970   5.078   5.845 -1.4492  0.3849 -1.6977
   79SOPE   H7Y 7163   5.801   5.017   5.832 -0.2907  0.8836 -0.1318
   79SOPE   C38 7164   5.940   4.856   5.843  0.3635  0.4240 -0.3645
   79SOPE   H8X 7165   5.891   4.773   5.898  2.5554 -0.1457  0.8589
   79SOPE   H8Y 7166   6.048   4.848   5.867 -0.0308 -2.9942  0.8424
   79SOPE   C39 7167   5.939   4.843   5.694  0.4426 -0.6688 -0.3728
   79SOPE   H9X 7168   6.008   4.760   5.667  2.2053  0.3863  0.6774
   79SOPE   H9Y 7169   5.981   4.936   5.649  1.7822 -1.1889 -0.2285
   79SOPE  C310 7170   5.800   4.816   5.636 -0.5278  0.4873 -0.2536
   79SOPE  H10X 7171   5.725   4.882   5.685 -2.7375 -1.2765 -1.0850
   79SOPE  H10Y 7172   5.785   4.712   5.672 -2.0537  1.0899  0.9650
   79SOPE  C311 7173   5.791   4.837   5.482  0.3171 -0.1215  0.1207
   79SOPE  H11X 7174   5.849   4.763   5.424  0.7520 -0.4390  0.9479
   79SOPE  H11Y 7175   5.830   4.940   5.464 -0.4433  0.1198 -0.2015
   79SOPE  C312 7176   5.647   4.854   5.433  0.3437  0.1585  0.2324
   79SOPE  H12X 7177   5.602   4.928   5.503  1.5956 -0.1350  1.3880
   79SOPE  H12Y 7178   5.583   4.764   5.449 -0.6683  0.5366 -1.4734
   79SOPE  C313 7179   5.638   4.927   5.297  0.3931  0.0432 -0.1025
   79SOPE  H13X 7180   5.689   4.862   5.223 -0.4712 -0.6381 -0.1226
   79SOPE  H13Y 7181   5.683   5.028   5.312 -0.6693  0.7923 -1.7045
   79SOPE  C314 7182   5.494   4.957   5.258 -0.6340 -0.2412 -0.1103
   79SOPE  H14X 7183   5.450   5.044   5.311  2.0198  0.9026  0.4174
   79SOPE  H14Y 7184   5.437   4.865   5.283 -1.0524  0.1136  0.2502
   79SOPE  C315 7185   5.479   4.990   5.107 -0.0137 -0.6072 -0.1779
   79SOPE  H15X 7186   5.543   4.925   5.043  1.0677  0.2675 -0.0186
   79SOPE  H15Y 7187   5.512   5.094   5.088 -1.4365  0.3227  1.9727
   79SOPE  C316 7188   5.334   4.972   5.073  0.1653 -0.1311  0.2050
   79SOPE  H16X 7189   5.272   5.045   5.129  0.8341  0.7144 -0.1209
   79SOPE  H16Y 7190   5.314   4.871   5.115  0.4347  0.5920  2.1587
   79SOPE  C317 7191   5.301   4.978   4.928  0.0700  0.6169  0.2804
   79SOPE  H17X 7192   5.376   4.916   4.873  0.6250  0.4630  1.1831
   79SOPE  H17Y 7193   5.317   5.081   4.892 -0.4588  0.3476 -0.7472
   79SOPE  C318 7194   5.151   4.948   4.897 -0.0580  0.1672 -0.2559
   79SOPE  H18X 7195   5.131   4.841   4.919  0.2025  0.4247  1.3473
   79SOPE  H18Y 7196   5.132   4.953   4.788 -1.4060  4.4920 -0.0156
   79SOPE  H18Z 7197   5.085   5.014   4.959  1.1952  1.5745 -0.3496
   80SOPE     N 7198   3.830   6.574   6.786  0.0378 -0.5873  0.9052
   80SOPE   HN1 7199   3.857   6.526   6.697 -0.5900 -0.4056  0.6167
   80SOPE   HN2 7200   3.893   6.544   6.864  1.1653  0.6606  0.5088
   80SOPE   HN3 7201   3.734   6.539   6.803 -0.3699  0.4142  0.7167
   80SOPE   C12 7202   3.807   6.724   6.755 -0.2290 -0.5835 -0.3520
   80SOPE  H12A 7203   3.873   6.739   6.668 -0.4186  1.0357 -0.2359
   80SOPE  H12B 7204   3.846   6.769   6.849  0.9624 -2.5085  0.1500
   80SOPE   C11 7205   3.659   6.745   6.730  0.0798  0.2036 -0.5978
   80SOPE  H11A 7206   3.631   6.845   6.689 -1.2148  0.4926  0.8687
   80SOPE  H11B 7207   3.602   6.732   6.825  1.5098 -0.0317  0.2519
   80SOPE     P 7208   3.587   6.668   6.483 -0.0202 -0.1203 -0.0074
   80SOPE   O13 7209   3.488   6.774   6.469  0.1763 -0.0450  0.0079
   80SOPE   O14 7210   3.571   6.539   6.416 -0.4943 -0.3473  0.2140
   80SOPE   O12 7211   3.597   6.652   6.638 -0.7505  0.4075 -0.5022
   80SOPE   O11 7212   3.723   6.730   6.452  0.2742 -0.9224  0.0232
   80SOPE    C1 7213   3.745   6.865   6.414 -0.3523 -0.5667  0.1522
   80SOPE    HA 7214   3.772   6.924   6.504  0.1111 -0.5462  0.0018
   80SOPE    HB 7215   3.656   6.921   6.376  1.0057  1.3067 -0.3916
   80SOPE    C2 7216   3.863   6.880   6.311 -0.6530 -0.1673  0.4880
   80SOPE    HS 7217   3.914   6.978   6.319 -4.4172  2.0045 -0.2036
   80SOPE   O21 7218   3.811   6.856   6.176  0.3888  0.1521 -0.7816
   80SOPE   C21 7219   3.743   6.952   6.125  0.3059 -0.5999  0.5129
   80SOPE   O22 7220   3.741   7.069   6.156 -0.4287 -0.0850 -0.4021
   80SOPE   C22 7221   3.666   6.897   6.004 -0.4092 -0.0657  0.5533
   80SOPE   H2R 7222   3.560   6.931   6.003 -0.0722  1.0280  0.9669
   80SOPE   H2S 7223   3.678   6.786   6.009 -0.9746 -0.2028 -0.7128
   80SOPE    C3 7224   3.974   6.775   6.346 -0.6918 -0.7967 -0.4826
   80SOPE    HX 7225   3.924   6.680   6.317 -2.8087  0.5007 -1.2655
   80SOPE    HY 7226   3.992   6.770   6.455 -1.5426  0.9502 -0.2457
   80SOPE   O31 7227   4.089   6.783   6.256  0.5358  0.1200 -0.6882
   80SOPE   C31 7228   4.181   6.875   6.275  0.5526 -0.1982 -0.1294
   80SOPE   O32 7229   4.184   6.959   6.361 -0.2258 -0.5826  0.0289
   80SOPE   C32 7230   4.296   6.851   6.177 -0.8744  0.7986 -0.5532
   80SOPE   H2X 7231   4.347   6.766   6.228 -0.8336  0.7139 -0.7387
   80SOPE   H2Y 7232   4.358   6.943   6.165 -0.7295  1.0684  1.7067
   80SOPE   C23 7233   3.722   6.947   5.868 -0.1154 -0.5379  0.1253
   80SOPE   H3R 7234   3.829   6.915   5.871 -0.5798 -2.1962  2.5123
   80SOPE   H3S 7235   3.702   7.056   5.873  0.0329 -0.4773 -0.4695
   80SOPE   C24 7236   3.658   6.888   5.744  0.0422  0.4946  0.6359
   80SOPE   H4R 7237   3.674   6.778   5.740 -0.4347  0.4550 -0.6685
   80SOPE   H4S 7238   3.550   6.906   5.761 -0.4817  0.6044 -2.2759
   80SOPE   C25 7239   3.699   6.965   5.620 -0.0507 -0.1686 -0.1640
   80SOPE   H5R 7240   3.663   7.070   5.626 -0.9480 -0.5544  1.8981
   80SOPE   H5S 7241   3.810   6.969   5.609 -0.1487  2.5890 -0.8439
   80SOPE   C26 7242   3.647   6.909   5.483 -0.7598  0.3936  0.1464
   80SOPE   H6R 7243   3.674   6.804   5.460 -1.2627  0.5300 -1.1352
   80SOPE   H6S 7244   3.536   6.913   5.484 -0.8185  0.1518 -2.1620
   80SOPE   C27 7245   3.680   7.003   5.369  0.3682  0.2492  0.1537
   80SOPE   H7R 7246   3.597   7.077   5.358  0.7799  0.6127 -0.5580
   80SOPE   H7S 7247   3.772   7.058   5.398 -0.2976  1.6261 -0.2334
   80SOPE   C28 7248   3.698   6.935   5.235  0.3615  0.5525  1.0985
   80SOPE   H8R 7249   3.770   6.850   5.240 -1.5241 -1.1370  1.1138
   80SOPE   H8S 7250   3.601   6.892   5.203 -0.1786  1.8661  0.9110
   80SOPE   C29 7251   3.739   7.032   5.127  0.1858  0.2876  0.2877
   80SOPE   H91 7252   3.842   7.071   5.140 -0.0794  0.5922  1.6443
   80SOPE  C210 7253   3.650   7.084   5.031 -0.4820 -0.6633  0.1650
   80SOPE  H101 7254   3.690   7.160   4.962 -0.3116 -1.1534 -0.2847
   80SOPE  C211 7255   3.511   7.044   4.993  1.3332 -0.2003  0.8535
   80SOPE  H11R 7256   3.444   7.133   4.993  0.1767 -1.0415  0.5868
   80SOPE  H11S 7257   3.477   6.966   5.064  1.3266 -0.0988  0.9608
   80SOPE  C212 7258   3.513   6.981   4.854 -0.2469  0.3221 -0.1004
   80SOPE  H12R 7259   3.414   6.936   4.837 -0.2234 -0.2615  1.2295
   80SOPE  H12S 7260   3.581   6.895   4.867  0.7211  1.1977  0.9000
   80SOPE  C213 7261   3.541   7.080   4.732 -0.2277 -0.2767 -0.4133
   80SOPE  H13R 7262   3.647   7.113   4.731  0.1160 -1.1965 -3.3200
   80SOPE  H13S 7263   3.477   7.167   4.760  1.9470  0.8273  1.4734
   80SOPE  C214 7264   3.495   7.025   4.592  1.0762  0.4827  0.3151
   80SOPE  H14R 7265   3.395   6.983   4.614  0.9984 -0.1308 -1.1118
   80SOPE  H14S 7266   3.550   6.943   4.541 -0.2511  0.2684 -0.8326
   80SOPE  C215 7267   3.463   7.132   4.477  0.2433  0.1306  0.7179
   80SOPE  H15R 7268   3.373   7.196   4.489  0.0881  0.4478 -1.6444
   80SOPE  H15S 7269   3.446   7.087   4.377  1.1210  0.2717  0.5006
   80SOPE  C216 7270   3.587   7.225   4.462  0.7268 -0.8499  0.7630
   80SOPE  H16R 7271   3.685   7.173   4.462  0.1314 -2.0138 -0.0627
   80SOPE  H16S 7272   3.591   7.300   4.544 -0.4585 -0.2638  0.3123
   80SOPE  C217 7273   3.585   7.305   4.325  0.3563  0.4609  1.0121
   80SOPE  H17R 7274   3.491   7.364   4.321 -0.4633 -0.8683 -1.5694
   80SOPE  H17S 7275   3.580   7.225   4.248  0.5613 -1.7334  3.1466
   80SOPE  C218 7276   3.708   7.392   4.306 -0.2129  0.1271 -0.7831
   80SOPE  H18R 7277   3.683   7.458   4.221  0.0174  0.3745 -0.6583
   80SOPE  H18S 7278   3.803   7.337   4.293 -0.1964 -0.5805  1.7499
   80SOPE  H18T 7279   3.729   7.463   4.389 -2.0004  0.7374 -0.8070
   80SOPE   C33 7280   4.253   6.796   6.040 -0.7896  0.1372  0.6546
   80SOPE   H3X 7281   4.170   6.722   6.043  0.8063 -1.7933 -0.4135
   80SOPE   H3Y 7282   4.341   6.742   5.998 -0.1741  1.5121  0.1236
   80SOPE   C34 7283   4.206   6.907   5.947 -0.2987 -0.4396  0.0094
   80SOPE   H4X 7284   4.256   7.003   5.972  1.3607 -1.2681 -0.0081
   80SOPE   H4Y 7285   4.096   6.917   5.959 -0.4324 -0.8894 -0.7437
   80SOPE   C35 7286   4.233   6.886   5.793  0.1176  0.0570  0.2703
   80SOPE   H5X 7287   4.166   6.804   5.758  0.3510 -0.1156  0.2204
   80SOPE   H5Y 7288   4.335   6.845   5.777  0.0425  0.1622 -0.5628
   80SOPE   C36 7289   4.219   7.013   5.706 -0.1097  0.5205  0.9225
   80SOPE   H6X 7290   4.258   7.102   5.761 -2.9564  1.9725  0.7806
   80SOPE   H6Y 7291   4.109   7.026   5.693  0.1561  1.4185 -0.7393
   80SOPE   C37 7292   4.290   7.010   5.571  0.0105 -0.1111  0.8074
   80SOPE   H7X 7293   4.399   7.002   5.590  0.2381  2.7417  1.0939
   80SOPE   H7Y 7294   4.269   7.107   5.522  2.1274  1.1375  2.2351
   80SOPE   C38 7295   4.223   6.887   5.499 -0.3701  0.3001 -0.5748
   80SOPE   H8X 7296   4.112   6.891   5.505 -0.3927 -1.6494  2.7163
   80SOPE   H8Y 7297   4.256   6.796   5.553 -3.0159  0.5319  1.6984
   80SOPE   C39 7298   4.274   6.866   5.354  0.1864  0.2741  0.1504
   80SOPE   H9X 7299   4.224   6.778   5.308  2.0397 -1.0941  0.5886
   80SOPE   H9Y 7300   4.384   6.849   5.353  0.1757  0.0874  1.0029
   80SOPE  C310 7301   4.247   6.997   5.274  0.6245  0.4825  0.1256
   80SOPE  H10X 7302   4.304   7.083   5.316 -0.7270  1.0061  0.9376
   80SOPE  H10Y 7303   4.139   7.014   5.260  0.3809 -2.2044 -2.1810
   80SOPE  C311 7304   4.293   6.984   5.129 -0.4320 -0.1417  0.0363
   80SOPE  H11X 7305   4.258   6.884   5.095 -2.4422 -0.0802  1.7082
   80SOPE  H11Y 7306   4.404   6.975   5.123 -0.0656  2.7674  0.9969
   80SOPE  C312 7307   4.236   7.088   5.027  0.1037  0.0274  0.1776
   80SOPE  H12X 7308   4.242   7.191   5.068 -2.8568  0.5172 -0.4259
   80SOPE  H12Y 7309   4.132   7.055   5.007  0.1105 -0.0822  0.3217
   80SOPE  C313 7310   4.315   7.085   4.894  0.3185 -0.1547 -0.0784
   80SOPE  H13X 7311   4.302   6.976   4.877  0.2210 -0.1315 -0.1546
   80SOPE  H13Y 7312   4.415   7.117   4.931 -0.5367  1.9327  0.5554
   80SOPE  C314 7313   4.266   7.167   4.769  0.6688  0.5582 -0.1221
   80SOPE  H14X 7314   4.272   7.277   4.780  0.1981  1.2395 -4.8524
   80SOPE  H14Y 7315   4.161   7.130   4.762  0.2130  1.8817 -0.4122
   80SOPE  C315 7316   4.343   7.123   4.649 -0.5503  0.0346 -0.1081
   80SOPE  H15X 7317   4.349   7.015   4.625 -2.7703  0.3155 -2.3275
   80SOPE  H15Y 7318   4.442   7.170   4.665 -0.5191  0.9015 -2.4867
   80SOPE  C316 7319   4.288   7.177   4.512  0.0789 -0.4602  0.1177
   80SOPE  H16X 7320   4.230   7.272   4.522 -0.9064 -0.9865 -0.4652
   80SOPE  H16Y 7321   4.204   7.115   4.475  0.9873 -1.2439 -0.6461
   80SOPE  C317 7322   4.380   7.197   4.394 -0.5185  0.6502 -0.0655
   80SOPE  H17X 7323   4.446   7.284   4.416  0.3144  0.0167  0.0165
   80SOPE  H17Y 7324   4.321   7.220   4.303 -0.5410  0.0390 -0.2104
   80SOPE  C318 7325   4.477   7.078   4.383 -0.3698  0.3206 -0.0363
   80SOPE  H18X 7326   4.426   6.983   4.358  2.1553 -0.6573 -1.8350
   80SOPE  H18Y 7327   4.520   7.062   4.484  1.4795  1.9210 -0.4896
   80SOPE  H18Z 7328   4.560   7.087   4.309  1.3000 -1.9260  1.4198
   81SOPE     N 7329   0.388   2.977   6.892 -0.4678  0.2045  0.0485
   81SOPE   HN1 7330   0.327   3.000   6.973 -0.0621 -0.3686  0.5178
   81SOPE   HN2 7331   0.325   2.979   6.809  0.9095 -0.1552 -1.0333
   81SOPE   HN3 7332   0.434   2.888   6.921 -0.4420  0.2593  0.1753
   81SOPE   C12 7333   0.498   3.081   6.869  0.2009 -0.8253  0.1464
   81SOPE  H12A 7334   0.589   3.022   6.888 -1.3545 -2.3047  3.9052
   81SOPE  H12B 7335   0.493   3.162   6.945  1.1065 -0.1046 -0.5389
   81SOPE   C11 7336   0.502   3.151   6.730 -0.0893 -0.2342 -0.1166
   81SOPE  H11A 7337   0.583   3.227   6.734 -1.3785  1.4358 -2.8499
   81SOPE  H11B 7338   0.405   3.202   6.710 -1.4626 -2.6837 -0.0377
   81SOPE     P 7339   0.580   3.094   6.492 -0.3661  0.1841  0.3881
   81SOPE   O13 7340   0.608   2.971   6.417  0.8318  0.3636 -0.4115
   81SOPE   O14 7341   0.698   3.187   6.513 -0.0803 -0.3740 -0.6425
   81SOPE   O12 7342   0.528   3.049   6.631  0.4334 -0.1706 -0.0031
   81SOPE   O11 7343   0.461   3.173   6.431  0.6330  0.9283  0.7191
   81SOPE    C1 7344   0.388   3.120   6.314 -0.0075 -0.7988  0.5303
   81SOPE    HA 7345   0.296   3.182   6.303  0.4544 -0.1756  0.0896
   81SOPE    HB 7346   0.368   3.011   6.319  1.2579 -1.0634  0.1470
   81SOPE    C2 7347   0.459   3.156   6.179 -0.1982 -0.1397 -0.8337
   81SOPE    HS 7348   0.563   3.120   6.192 -1.3462 -4.1658 -1.1438
   81SOPE   O21 7349   0.446   3.295   6.157 -0.7849 -0.1244 -0.1865
   81SOPE   C21 7350   0.549   3.370   6.192  1.0060 -0.1865  0.8306
   81SOPE   O22 7351   0.668   3.335   6.203  0.5896  0.3704  0.9824
   81SOPE   C22 7352   0.504   3.521   6.198 -0.2345  0.3487 -0.3063
   81SOPE   H2R 7353   0.421   3.521   6.272  0.5031 -0.6196  0.5413
   81SOPE   H2S 7354   0.475   3.559   6.098  1.1560  2.1825 -0.0744
   81SOPE    C3 7355   0.403   3.080   6.054  0.0905  0.0038  1.5222
   81SOPE    HX 7356   0.292   3.075   6.062 -0.0633 -1.7375 -0.7599
   81SOPE    HY 7357   0.437   2.975   6.057 -1.8767 -0.8025 -1.0243
   81SOPE   O31 7358   0.439   3.136   5.924  0.2658 -0.0666  0.7316
   81SOPE   C31 7359   0.555   3.096   5.868 -0.8615  0.3044 -0.2784
   81SOPE   O32 7360   0.637   3.022   5.922  0.9315  0.2443  0.0734
   81SOPE   C32 7361   0.579   3.181   5.738  0.0431 -0.4215  0.3151
   81SOPE   H2X 7362   0.669   3.240   5.763  0.7127 -0.7395 -1.2493
   81SOPE   H2Y 7363   0.500   3.258   5.731  0.9209  0.5342  0.7395
   81SOPE   C23 7364   0.623   3.612   6.240  0.5579 -0.2529 -0.3919
   81SOPE   H3R 7365   0.703   3.624   6.164  2.8292 -2.2588  1.4831
   81SOPE   H3S 7366   0.678   3.561   6.323  1.4536 -1.2224 -1.5325
   81SOPE   C24 7367   0.570   3.755   6.284 -0.0217  0.0488  0.3898
   81SOPE   H4R 7368   0.486   3.769   6.212 -0.8962 -1.4605  1.0846
   81SOPE   H4S 7369   0.517   3.744   6.381 -0.2126  1.4905  0.4709
   81SOPE   C25 7370   0.674   3.870   6.280 -0.6117  0.2723 -0.1539
   81SOPE   H5R 7371   0.611   3.960   6.301  1.6290  2.2141 -1.2368
   81SOPE   H5S 7372   0.753   3.859   6.357  1.1543  0.4362 -1.8628
   81SOPE   C26 7373   0.747   3.875   6.148 -0.3327 -0.8179  0.1801
   81SOPE   H6R 7374   0.812   3.965   6.142 -1.1829  0.0592  2.7019
   81SOPE   H6S 7375   0.820   3.791   6.142 -0.4036 -0.7674 -2.0191
   81SOPE   C27 7376   0.662   3.865   6.028 -0.6176 -0.0939  0.7930
   81SOPE   H7R 7377   0.735   3.871   5.944 -0.3593 -1.4825  0.8831
   81SOPE   H7S 7378   0.611   3.766   6.031  0.5284 -0.7102  3.5307
   81SOPE   C28 7379   0.562   3.977   6.013  0.4739  0.3362 -0.0592
   81SOPE   H8R 7380   0.504   3.955   5.920  0.3235  1.1483 -0.1689
   81SOPE   H8S 7381   0.488   3.965   6.095 -0.1359 -0.8417 -0.7519
   81SOPE   C29 7382   0.617   4.114   5.993 -0.2668 -0.5827 -0.0154
   81SOPE   H91 7383   0.581   4.194   6.059 -0.7946 -0.1403 -0.8312
   81SOPE  C210 7384   0.674   4.160   5.874  0.2312  0.1893 -0.7925
   81SOPE  H101 7385   0.706   4.265   5.874  1.4105 -0.1568 -0.0104
   81SOPE  C211 7386   0.706   4.070   5.755  0.6479  0.4213  0.6579
   81SOPE  H11R 7387   0.650   4.100   5.664 -0.0182  0.4624  1.0714
   81SOPE  H11S 7388   0.683   3.963   5.774 -0.4524 -0.0011 -2.4329
   81SOPE  C212 7389   0.858   4.066   5.724 -0.2697  0.2226 -0.3898
   81SOPE  H12R 7390   0.926   4.023   5.800 -1.2346 -1.3689 -0.3893
   81SOPE  H12S 7391   0.890   4.171   5.705 -2.4185  0.6962 -1.6929
   81SOPE  C213 7392   0.898   3.988   5.591  0.5358  0.1683 -0.1507
   81SOPE  H13R 7393   0.827   4.041   5.524 -1.9851 -1.0922  1.3768
   81SOPE  H13S 7394   0.860   3.884   5.587 -0.6454  0.5931 -0.3298
   81SOPE  C214 7395   1.040   4.002   5.538  0.3544  0.1066  0.0352
   81SOPE  H14R 7396   1.119   3.981   5.613  0.9711 -0.7084 -0.8104
   81SOPE  H14S 7397   1.045   4.107   5.499 -2.9745  0.1301 -0.6217
   81SOPE  C215 7398   1.053   3.905   5.419  0.5207  0.3938 -0.4095
   81SOPE  H15R 7399   0.967   3.928   5.353 -0.9463  0.9099  1.5891
   81SOPE  H15S 7400   1.049   3.797   5.447  2.2184  0.1060 -1.1143
   81SOPE  C216 7401   1.174   3.920   5.328 -0.7355 -0.5852  0.4592
   81SOPE  H16R 7402   1.192   4.019   5.283 -0.0343 -0.5585  0.7787
   81SOPE  H16S 7403   1.152   3.848   5.246  1.4538 -1.5407  0.6264
   81SOPE  C217 7404   1.309   3.884   5.389 -0.5392  0.3798 -0.0355
   81SOPE  H17R 7405   1.300   3.816   5.476  2.6803  0.5168  0.4955
   81SOPE  H17S 7406   1.368   3.973   5.418  1.0218 -0.5434 -0.3156
   81SOPE  C218 7407   1.399   3.816   5.285 -0.1303  0.2291  0.0757
   81SOPE  H18R 7408   1.340   3.779   5.199  0.0653 -0.7277  0.3369
   81SOPE  H18S 7409   1.462   3.736   5.330 -2.1953 -0.8392  1.1881
   81SOPE  H18T 7410   1.468   3.894   5.245 -0.3872  0.6094  0.3714
   81SOPE   C33 7411   0.592   3.107   5.609 -0.6037 -0.2103  0.0091
   81SOPE   H3X 7412   0.633   3.006   5.630  0.4568  0.3777  0.9101
   81SOPE   H3Y 7413   0.658   3.162   5.539 -2.1860 -1.1558 -2.3604
   81SOPE   C34 7414   0.455   3.095   5.535 -0.0333  0.1787  0.6700
   81SOPE   H4X 7415   0.409   3.195   5.521 -0.8360 -0.1008  1.2397
   81SOPE   H4Y 7416   0.390   3.037   5.604 -1.6079 -0.3809 -1.1913
   81SOPE   C35 7417   0.464   3.010   5.410  0.0995  0.0602  0.6787
   81SOPE   H5X 7418   0.359   3.008   5.373  1.2833  0.9114 -3.1985
   81SOPE   H5Y 7419   0.509   2.914   5.443 -0.4101 -0.2162  0.5873
   81SOPE   C36 7420   0.542   3.081   5.302  0.4514  0.2334  0.7563
   81SOPE   H6X 7421   0.646   3.088   5.341  0.7493 -1.8442  0.4803
   81SOPE   H6Y 7422   0.503   3.183   5.280 -0.6616 -0.4838 -0.7726
   81SOPE   C37 7423   0.554   3.003   5.172  0.0897  0.7160  0.1447
   81SOPE   H7X 7424   0.597   2.901   5.177  0.0198  0.1950 -4.9501
   81SOPE   H7Y 7425   0.615   3.066   5.104  1.8042  0.2336  1.1786
   81SOPE   C38 7426   0.421   2.991   5.095 -0.0161 -0.3993  0.3316
   81SOPE   H8X 7427   0.361   3.081   5.119 -0.3069 -0.5924  0.3348
   81SOPE   H8Y 7428   0.375   2.893   5.122 -0.6917 -0.1611  0.0798
   81SOPE   C39 7429   0.449   2.989   4.944 -0.6200 -0.4890 -0.2126
   81SOPE   H9X 7430   0.519   2.904   4.930 -0.0364 -0.4661  2.1574
   81SOPE   H9Y 7431   0.500   3.080   4.906 -0.2466 -0.8786 -0.6761
   81SOPE  C310 7432   0.327   2.968   4.857 -1.0283  0.3350 -0.3369
   81SOPE  H10X 7433   0.279   3.068   4.853 -0.2836  0.7294  0.2730
   81SOPE  H10Y 7434   0.251   2.893   4.890  1.0878 -1.6121  0.3879
   81SOPE  C311 7435   0.368   2.951   4.710  0.1573 -0.1434  0.1719
   81SOPE  H11X 7436   0.440   2.867   4.699  0.4264  0.3942 -3.3990
   81SOPE  H11Y 7437   0.440   3.033   4.692  0.3352 -0.6578 -1.6648
   81SOPE  C312 7438   0.261   2.935   4.608 -0.0046 -0.7143  0.9050
   81SOPE  H12X 7439   0.190   3.019   4.622 -0.8331 -0.4325 -3.6145
   81SOPE  H12Y 7440   0.196   2.847   4.626 -1.2668 -0.1209 -0.5078
   81SOPE  C313 7441   0.297   2.953   4.462  0.1842  0.3687  1.0930
   81SOPE  H13X 7442   0.367   2.868   4.446  0.3407  0.5157  0.9959
   81SOPE  H13Y 7443   0.360   3.045   4.452  0.4623 -0.0326 -1.4153
   81SOPE  C314 7444   0.177   2.935   4.367 -0.1009 -0.1535  0.1725
   81SOPE  H14X 7445   0.101   2.864   4.406 -0.7564 -0.0841 -0.9276
   81SOPE  H14Y 7446   0.220   2.897   4.271  0.1303  0.2352  0.1209
   81SOPE  C315 7447   0.110   3.071   4.353 -0.1555 -0.8851  0.1280
   81SOPE  H15X 7448   0.197   3.137   4.335 -0.3340 -1.0762 -1.5290
   81SOPE  H15Y 7449   0.065   3.101   4.451  0.0304  3.8046 -0.9790
   81SOPE  C316 7450   0.016   3.087   4.230 -0.4193  0.1020  0.0492
   81SOPE  H16X 7451  -0.036   3.186   4.228 -1.0369 -0.1669  1.6810
   81SOPE  H16Y 7452  -0.066   3.012   4.236 -1.4485  1.1605 -0.3571
   81SOPE  C317 7453   0.084   3.066   4.095  0.3576  0.2611  0.1245
   81SOPE  H17X 7454   0.004   3.055   4.019 -1.3106 -1.7039  2.0375
   81SOPE  H17Y 7455   0.146   2.973   4.098 -0.2010 -0.2458 -2.0629
   81SOPE  C318 7456   0.174   3.179   4.047 -0.2845  0.0025  0.8341
   81SOPE  H18X 7457   0.258   3.208   4.115 -0.6565 -0.2749  1.4286
   81SOPE  H18Y 7458   0.103   3.263   4.034 -1.8863 -1.2478  1.2037
   81SOPE  H18Z 7459   0.228   3.140   3.958 -1.7270 -2.2374  0.8668
   82SOPE     N 7460   4.487   3.451   7.179 -0.2911  0.2616  0.1774
   82SOPE   HN1 7461   4.519   3.382   7.250  1.1955  2.5768  1.9364
   82SOPE   HN2 7462   4.558   3.527   7.178 -0.1978  0.1708 -0.4287
   82SOPE   HN3 7463   4.393   3.484   7.209 -0.6214  0.2517 -0.7951
   82SOPE   C12 7464   4.483   3.400   7.032 -0.2882 -0.5418 -0.2214
   82SOPE  H12A 7465   4.379   3.363   7.015 -0.4999  0.9183 -2.5613
   82SOPE  H12B 7466   4.561   3.322   7.020  4.1186  3.4332 -0.0810
   82SOPE   C11 7467   4.499   3.510   6.929  0.5763 -0.1454  1.0300
   82SOPE  H11A 7468   4.503   3.469   6.825  2.9382 -1.9383  1.7448
   82SOPE  H11B 7469   4.604   3.548   6.933  0.5028  0.3802 -0.8462
   82SOPE     P 7470   4.314   3.667   6.829 -0.4178  0.0604 -0.1190
   82SOPE   O13 7471   4.258   3.795   6.870 -0.2225 -0.1848 -0.2672
   82SOPE   O14 7472   4.223   3.559   6.794 -0.0027  0.8981 -1.0675
   82SOPE   O12 7473   4.400   3.606   6.957  0.6769 -0.6265 -0.4884
   82SOPE   O11 7474   4.417   3.696   6.711 -0.3853  0.2932  0.4182
   82SOPE    C1 7475   4.515   3.795   6.709  0.0087 -0.0579 -0.8891
   82SOPE    HA 7476   4.582   3.777   6.796  1.0313  0.5928 -1.5260
   82SOPE    HB 7477   4.469   3.896   6.712 -2.3558 -1.0411 -1.6173
   82SOPE    C2 7478   4.600   3.776   6.576  0.2037  0.8471  0.1946
   82SOPE    HS 7479   4.643   3.877   6.556  0.6345  0.4643 -0.8636
   82SOPE   O21 7480   4.519   3.726   6.463  0.4494 -0.4756 -0.0873
   82SOPE   C21 7481   4.414   3.811   6.434 -0.1651 -0.7581  0.9959
   82SOPE   O22 7482   4.414   3.933   6.460 -0.1351  0.9201  0.3820
   82SOPE   C22 7483   4.305   3.726   6.366 -1.0583 -0.0917  0.0532
   82SOPE   H2R 7484   4.283   3.638   6.430  2.0197 -0.1325  1.2572
   82SOPE   H2S 7485   4.348   3.696   6.268  0.1094  2.4471 -0.3022
   82SOPE    C3 7486   4.720   3.675   6.609  0.6321 -0.0753 -0.0299
   82SOPE    HX 7487   4.663   3.593   6.659  0.3912  0.7240  1.0352
   82SOPE    HY 7488   4.787   3.731   6.678 -0.6854  2.4582 -0.6849
   82SOPE   O31 7489   4.785   3.617   6.493 -0.6457 -0.5067  0.6599
   82SOPE   C31 7490   4.885   3.699   6.444 -0.2887 -0.2604  0.3025
   82SOPE   O32 7491   4.916   3.807   6.494  0.2396  0.6440  0.3477
   82SOPE   C32 7492   4.955   3.645   6.317  0.0802  0.0466 -0.3492
   82SOPE   H2X 7493   4.880   3.620   6.239  0.8234  0.7550 -1.3104
   82SOPE   H2Y 7494   5.013   3.554   6.346 -1.3429 -2.0482 -3.5265
   82SOPE   C23 7495   4.171   3.800   6.339  0.3519  0.0161 -0.2740
   82SOPE   H3R 7496   4.133   3.835   6.438 -1.2094 -1.7055 -0.2166
   82SOPE   H3S 7497   4.098   3.722   6.310  0.3560  0.6568 -2.1614
   82SOPE   C24 7498   4.171   3.903   6.221 -0.2131  0.3775 -0.6216
   82SOPE   H4R 7499   4.258   3.972   6.214  1.7221 -2.0279 -2.2245
   82SOPE   H4S 7500   4.190   3.833   6.137 -1.2781  0.7325 -1.1829
   82SOPE   C25 7501   4.040   3.983   6.213  0.3251  0.8223  0.2510
   82SOPE   H5R 7502   3.963   3.909   6.243  0.3839  0.7953  0.3353
   82SOPE   H5S 7503   4.059   4.053   6.297  3.9920 -1.0167  1.1812
   82SOPE   C26 7504   4.001   4.041   6.076 -0.4231  0.1706  0.5507
   82SOPE   H6R 7505   4.081   4.109   6.041 -2.7640  2.3409 -0.9295
   82SOPE   H6S 7506   3.984   3.961   6.001 -1.2151  0.7396  0.1194
   82SOPE   C27 7507   3.870   4.125   6.085 -0.0244 -0.4958 -0.4807
   82SOPE   H7R 7508   3.788   4.063   6.125  0.7207 -0.6749  0.8285
   82SOPE   H7S 7509   3.886   4.208   6.157  2.2580  0.3192 -1.8128
   82SOPE   C28 7510   3.821   4.183   5.950 -0.3401  0.3591  0.0041
   82SOPE   H8R 7511   3.891   4.251   5.898  0.6077 -0.2390  0.4548
   82SOPE   H8S 7512   3.807   4.101   5.876  0.9925  1.7950 -1.9005
   82SOPE   C29 7513   3.698   4.271   5.978 -0.7331  0.4882  0.0682
   82SOPE   H91 7514   3.710   4.339   6.063 -0.2520  0.7908 -0.2355
   82SOPE  C210 7515   3.577   4.264   5.909 -0.1958  0.0152 -0.0125
   82SOPE  H101 7516   3.504   4.343   5.932  1.3457  1.6003 -0.3817
   82SOPE  C211 7517   3.560   4.178   5.788 -0.2325 -0.1605 -0.2688
   82SOPE  H11R 7518   3.453   4.156   5.764  0.1739 -1.3524 -1.0707
   82SOPE  H11S 7519   3.610   4.079   5.795 -0.2138 -0.1435 -0.1646
   82SOPE  C212 7520   3.611   4.248   5.669  0.4181 -0.2938 -0.1422
   82SOPE  H12R 7521   3.720   4.264   5.677  0.1983  1.2298  0.1874
   82SOPE  H12S 7522   3.563   4.348   5.660  0.8108 -0.1866 -1.2453
   82SOPE  C213 7523   3.576   4.183   5.537 -0.8359 -0.5921 -0.2179
   82SOPE  H13R 7524   3.467   4.189   5.518 -0.8978 -1.0440 -0.0016
   82SOPE  H13S 7525   3.590   4.073   5.543 -1.3461 -0.9520 -3.4576
   82SOPE  C214 7526   3.669   4.236   5.423  0.2370  1.4183 -0.1109
   82SOPE  H14R 7527   3.771   4.244   5.468 -0.7342 -1.2783  2.9356
   82SOPE  H14S 7528   3.637   4.339   5.395 -0.5281  0.7959 -1.6318
   82SOPE  C215 7529   3.674   4.146   5.306 -0.0087  0.6304 -0.0137
   82SOPE  H15R 7530   3.579   4.175   5.257  0.7502  1.4133 -1.0948
   82SOPE  H15S 7531   3.680   4.039   5.337  1.2550  1.3053  2.2747
   82SOPE  C216 7532   3.793   4.173   5.206  0.3285 -0.0279 -0.4845
   82SOPE  H16R 7533   3.887   4.156   5.262  0.1695  0.7423  0.0299
   82SOPE  H16S 7534   3.784   4.278   5.170 -3.0176 -0.0446 -0.0033
   82SOPE  C217 7535   3.788   4.076   5.092 -0.2301 -0.0902  0.3306
   82SOPE  H17R 7536   3.698   4.105   5.033  1.3534  4.2487 -0.3826
   82SOPE  H17S 7537   3.777   3.974   5.133  0.2863 -0.2605  0.0524
   82SOPE  C218 7538   3.911   4.081   5.001  0.0298  0.0632  0.6320
   82SOPE  H18R 7539   3.909   3.998   4.926  0.5971  0.0910  0.5774
   82SOPE  H18S 7540   4.006   4.071   5.059  1.3269 -1.1817 -1.5459
   82SOPE  H18T 7541   3.914   4.184   4.959 -1.4705  0.2841  1.0067
   82SOPE   C33 7542   5.047   3.753   6.262 -0.1445 -0.4275 -0.0897
   82SOPE   H3X 7543   5.115   3.784   6.344  0.6930 -1.0717 -0.5399
   82SOPE   H3Y 7544   4.987   3.833   6.213  0.7957  0.5808  0.3514
   82SOPE   C34 7545   5.130   3.690   6.146 -0.1344  0.3135 -0.4094
   82SOPE   H4X 7546   5.160   3.591   6.185 -0.6614 -0.0628 -0.9536
   82SOPE   H4Y 7547   5.226   3.745   6.142  0.7786 -0.6834  3.4950
   82SOPE   C35 7548   5.075   3.681   6.010  0.1738  0.3130 -0.2165
   82SOPE   H5X 7549   5.041   3.766   5.947 -0.2321 -0.7078 -1.4267
   82SOPE   H5Y 7550   4.984   3.619   6.019 -1.1313  2.2362  0.4460
   82SOPE   C36 7551   5.153   3.593   5.912  0.1287  0.6238  0.1863
   82SOPE   H6X 7552   5.182   3.493   5.948 -0.2361  0.5969  0.4103
   82SOPE   H6Y 7553   5.253   3.637   5.895  1.0897 -0.4813  2.5982
   82SOPE   C37 7554   5.080   3.578   5.777 -0.5622  0.0727 -0.0798
   82SOPE   H7X 7555   5.045   3.673   5.730 -4.3344 -0.3556  1.4913
   82SOPE   H7Y 7556   4.988   3.517   5.789 -1.2301  0.6512 -1.8892
   82SOPE   C38 7557   5.183   3.527   5.675 -0.0807 -0.3098  0.2356
   82SOPE   H8X 7558   5.228   3.426   5.688 -1.0648 -0.6775  0.9073
   82SOPE   H8Y 7559   5.269   3.596   5.663 -0.7444  0.1290 -3.2539
   82SOPE   C39 7560   5.133   3.553   5.520  0.1343 -0.4984 -0.5570
   82SOPE   H9X 7561   5.198   3.621   5.461 -0.0445  1.1122  1.0204
   82SOPE   H9Y 7562   5.033   3.601   5.529  0.4924  0.1224  0.2164
   82SOPE  C310 7563   5.124   3.417   5.448  0.0075  0.0413  0.2423
   82SOPE  H10X 7564   5.047   3.349   5.489  0.3712 -0.3269  0.3190
   82SOPE  H10Y 7565   5.214   3.353   5.461 -1.0361 -1.2058  1.6929
   82SOPE  C311 7566   5.119   3.435   5.290  0.0295 -0.0065  0.3091
   82SOPE  H11X 7567   5.215   3.483   5.263  1.1317 -3.1240 -1.8501
   82SOPE  H11Y 7568   5.045   3.512   5.257  0.0897  0.4553  1.2044
   82SOPE  C312 7569   5.093   3.304   5.217  0.3369  0.8633 -0.1959
   82SOPE  H12X 7570   5.009   3.256   5.273  0.5285  1.4958  0.6544
   82SOPE  H12Y 7571   5.176   3.232   5.236  0.4850  1.7886  3.3955
   82SOPE  C313 7572   5.050   3.325   5.063 -0.0303  0.1749  0.2134
   82SOPE  H13X 7573   5.104   3.417   5.031  1.0586  0.0981  1.7252
   82SOPE  H13Y 7574   4.945   3.360   5.069 -0.4540 -1.2307  1.5659
   82SOPE  C314 7575   5.075   3.212   4.965  0.2260 -0.9142 -0.2429
   82SOPE  H14X 7576   5.020   3.125   5.007  0.2501 -0.4333  0.8259
   82SOPE  H14Y 7577   5.185   3.200   4.967  0.8463  3.2218 -0.8030
   82SOPE  C315 7578   5.045   3.245   4.817 -0.0041 -0.0237  0.1909
   82SOPE  H15X 7579   4.939   3.272   4.801 -0.0512 -0.6506 -0.6161
   82SOPE  H15Y 7580   5.066   3.159   4.749 -2.3141 -2.7033  2.6058
   82SOPE  C316 7581   5.150   3.352   4.768 -0.4653  0.0270  0.0476
   82SOPE  H16X 7582   5.247   3.301   4.791  1.7281  3.0516 -1.6807
   82SOPE  H16Y 7583   5.147   3.451   4.819  1.1492 -0.9488  2.2316
   82SOPE  C317 7584   5.128   3.377   4.619  0.2298 -0.0945  1.0006
   82SOPE  H17X 7585   5.172   3.472   4.583 -1.0794 -0.4416 -1.7791
   82SOPE  H17Y 7586   5.018   3.385   4.601  0.2797 -1.7065 -0.2686
   82SOPE  C318 7587   5.186   3.266   4.528 -0.4479 -0.3740  0.0314
   82SOPE  H18X 7588   5.296   3.278   4.532 -0.4269 -0.5447 -0.0118
   82SOPE  H18Y 7589   5.165   3.292   4.422  2.6554  0.4961 -0.4654
   82SOPE  H18Z 7590   5.148   3.163   4.543 -0.5909 -0.5560 -1.3892
   83SOPE     N 7591   0.579   0.612   2.414  0.2590 -0.6966 -0.4673
   83SOPE   HN1 7592   0.639   0.534   2.380 -1.0576 -1.1907 -1.7640
   83SOPE   HN2 7593   0.609   0.657   2.503  0.2001  2.9688 -2.1077
   83SOPE   HN3 7594   0.492   0.561   2.441  1.3009 -0.7496  3.3396
   83SOPE   C12 7595   0.553   0.706   2.294  0.2995  0.0155  0.3522
   83SOPE  H12A 7596   0.459   0.759   2.321 -0.3117 -1.2837  0.8753
   83SOPE  H12B 7597   0.527   0.642   2.208  1.0422  0.3455 -0.1251
   83SOPE   C11 7598   0.663   0.806   2.264 -0.8234 -0.0845 -0.3140
   83SOPE  H11A 7599   0.650   0.862   2.170 -0.5794 -0.1148 -0.3682
   83SOPE  H11B 7600   0.748   0.736   2.243 -2.4873 -2.2351 -0.2190
   83SOPE     P 7601   0.725   1.035   2.363  0.0715 -0.1824  0.4379
   83SOPE   O13 7602   0.605   1.100   2.306 -0.2575 -0.4869 -0.1548
   83SOPE   O14 7603   0.854   1.029   2.286  0.2122 -0.1600 -0.7860
   83SOPE   O12 7604   0.705   0.882   2.380  0.5368 -0.0198 -0.6840
   83SOPE   O11 7605   0.748   1.073   2.519  0.2825 -0.1613 -0.0319
   83SOPE    C1 7606   0.806   0.979   2.610 -0.3012 -0.2635  0.6201
   83SOPE    HA 7607   0.887   0.929   2.553  0.6653 -0.1821  1.8728
   83SOPE    HB 7608   0.731   0.902   2.638 -0.7955  0.7532  2.2366
   83SOPE    C2 7609   0.860   1.054   2.733  0.7187 -0.4194  0.5201
   83SOPE    HS 7610   0.900   0.980   2.805  0.3872 -0.1583  0.9794
   83SOPE   O21 7611   0.752   1.120   2.804 -0.3209 -0.3460 -0.1075
   83SOPE   C21 7612   0.645   1.041   2.849 -0.5402 -0.8020 -0.2889
   83SOPE   O22 7613   0.645   0.919   2.842  0.5671 -1.1418 -0.1786
   83SOPE   C22 7614   0.523   1.126   2.898 -0.5721  0.1730 -0.0664
   83SOPE   H2R 7615   0.462   1.155   2.810 -0.3681 -0.2729 -0.3598
   83SOPE   H2S 7616   0.569   1.210   2.955 -0.1144 -0.1509  0.0454
   83SOPE    C3 7617   0.983   1.143   2.701 -0.4071 -0.5780  0.7330
   83SOPE    HX 7618   0.948   1.211   2.621 -1.8175 -1.0299  0.9441
   83SOPE    HY 7619   1.056   1.081   2.645 -1.0980  0.2431 -1.1442
   83SOPE   O31 7620   1.046   1.212   2.817  0.1507 -0.5200 -0.0217
   83SOPE   C31 7621   1.136   1.134   2.881  0.8252  0.1947 -0.5237
   83SOPE   O32 7622   1.155   1.015   2.859 -0.1800 -0.1908 -0.3681
   83SOPE   C32 7623   1.188   1.218   3.001  0.3454 -0.1599 -0.1525
   83SOPE   H2X 7624   1.110   1.297   3.012 -0.9348 -1.4974  0.9590
   83SOPE   H2Y 7625   1.283   1.262   2.965  0.2434  0.4420  0.3020
   83SOPE   C23 7626   0.433   1.041   2.992  0.4053  0.4650  0.1730
   83SOPE   H3R 7627   0.422   0.936   2.956  1.0484  0.4600 -0.0138
   83SOPE   H3S 7628   0.332   1.088   2.990 -0.3713 -0.9000  2.7362
   83SOPE   C24 7629   0.471   1.033   3.145 -0.1173 -0.9337 -0.3842
   83SOPE   H4R 7630   0.526   0.938   3.162  0.2151 -0.8620 -1.0436
   83SOPE   H4S 7631   0.547   1.111   3.165 -1.6646  0.3591  0.7363
   83SOPE   C25 7632   0.351   1.045   3.237  0.3465  0.1028 -0.2258
   83SOPE   H5R 7633   0.329   1.154   3.230  0.3138  0.2845  2.0684
   83SOPE   H5S 7634   0.272   0.980   3.194 -0.4926  1.1609 -0.3201
   83SOPE   C26 7635   0.374   1.024   3.384 -0.4980  0.5716 -0.1354
   83SOPE   H6R 7636   0.282   1.058   3.436 -0.4897 -0.4492  0.5798
   83SOPE   H6S 7637   0.388   0.917   3.409  2.0186  1.1461  1.2760
   83SOPE   C27 7638   0.503   1.103   3.437 -0.4486 -0.3334  0.1358
   83SOPE   H7R 7639   0.592   1.052   3.395 -1.0246  1.0619 -3.0797
   83SOPE   H7S 7640   0.508   1.212   3.416  0.7911 -0.3413  0.3095
   83SOPE   C28 7641   0.510   1.109   3.593 -0.2582 -0.2119  0.4288
   83SOPE   H8R 7642   0.594   1.174   3.626 -1.7820  0.7120  2.7171
   83SOPE   H8S 7643   0.408   1.139   3.627 -0.1080 -0.6930  1.3267
   83SOPE   C29 7644   0.530   0.970   3.643 -0.1241  0.1985  0.7289
   83SOPE   H91 7645   0.550   0.889   3.572  0.2224  2.0379 -1.3770
   83SOPE  C210 7646   0.522   0.941   3.772  0.6285 -0.8531 -0.3604
   83SOPE  H101 7647   0.526   0.842   3.821  2.5311 -0.3398  0.6047
   83SOPE  C211 7648   0.492   1.051   3.876 -0.1422  0.3249 -0.0904
   83SOPE  H11R 7649   0.385   1.078   3.863 -0.3121 -1.4809 -3.3970
   83SOPE  H11S 7650   0.551   1.144   3.862  1.3990  0.1501  3.8533
   83SOPE  C212 7651   0.530   1.000   4.020  0.1093 -0.0290  0.6649
   83SOPE  H12R 7652   0.633   0.959   4.015 -0.2997 -0.9421 -1.6621
   83SOPE  H12S 7653   0.446   0.929   4.037 -0.3780 -0.5833 -3.2398
   83SOPE  C213 7654   0.519   1.107   4.121  0.3440 -0.1255 -0.4764
   83SOPE  H13R 7655   0.428   1.167   4.101  2.0228  2.3919 -1.1781
   83SOPE  H13S 7656   0.603   1.180   4.107  0.2280  0.0889 -0.0677
   83SOPE  C214 7657   0.543   1.046   4.268 -0.5535 -0.0806  0.3404
   83SOPE  H14R 7658   0.651   1.039   4.293 -0.8089  1.1722  2.0138
   83SOPE  H14S 7659   0.513   0.939   4.271 -0.9839 -0.0157 -0.8124
   83SOPE  C215 7660   0.466   1.122   4.381 -0.6259  1.5352  0.0735
   83SOPE  H15R 7661   0.473   1.232   4.374 -2.1310  1.7677  1.6956
   83SOPE  H15S 7662   0.515   1.093   4.477  1.6369  2.1508 -0.8207
   83SOPE  C216 7663   0.315   1.081   4.381 -0.6828  0.5027  0.2746
   83SOPE  H16R 7664   0.271   1.079   4.279  0.0999  1.6526 -0.1052
   83SOPE  H16S 7665   0.268   1.170   4.427 -1.0993  0.4865 -0.1164
   83SOPE  C217 7666   0.281   0.949   4.455 -0.1916  0.2626 -0.4435
   83SOPE  H17R 7667   0.330   0.941   4.555 -1.3134  0.9466  0.1834
   83SOPE  H17S 7668   0.309   0.870   4.382 -1.0065 -0.6771  0.2337
   83SOPE  C218 7669   0.135   0.933   4.472 -0.2164 -0.1591 -0.6198
   83SOPE  H18R 7670   0.084   0.943   4.374  2.5577 -0.3227 -2.1622
   83SOPE  H18S 7671   0.092   1.006   4.544  0.7266  0.7677 -0.9831
   83SOPE  H18T 7672   0.099   0.837   4.516  0.6018 -0.4581 -0.5922
   83SOPE   C33 7673   1.213   1.136   3.137 -0.2889 -0.0472  0.3961
   83SOPE   H3X 7674   1.270   1.044   3.110 -0.9451 -0.1149 -0.8394
   83SOPE   H3Y 7675   1.114   1.106   3.179  0.1919 -0.4230  1.2784
   83SOPE   C34 7676   1.286   1.220   3.240  0.1129 -0.0351  0.1837
   83SOPE   H4X 7677   1.218   1.304   3.267 -0.7757 -0.4851 -0.5978
   83SOPE   H4Y 7678   1.378   1.257   3.190 -0.9834 -0.5850 -2.3848
   83SOPE   C35 7679   1.325   1.122   3.353 -0.4128  0.4370 -1.0434
   83SOPE   H5X 7680   1.383   1.030   3.328  0.1002  0.4413  0.0688
   83SOPE   H5Y 7681   1.229   1.079   3.387 -0.1903 -0.2289 -1.2340
   83SOPE   C36 7682   1.415   1.195   3.457 -0.2406  0.0173 -0.2553
   83SOPE   H6X 7683   1.382   1.301   3.459 -0.5087 -0.0214 -1.5790
   83SOPE   H6Y 7684   1.524   1.192   3.434  0.4827 -1.4412  2.7769
   83SOPE   C37 7685   1.405   1.125   3.600 -0.4461 -0.1453 -0.0473
   83SOPE   H7X 7686   1.449   1.025   3.581  1.2878  0.3045  1.2738
   83SOPE   H7Y 7687   1.297   1.120   3.624 -0.4898  0.5795 -0.0564
   83SOPE   C38 7688   1.469   1.199   3.719  0.0176 -0.0239 -0.2012
   83SOPE   H8X 7689   1.395   1.282   3.733 -0.5581 -0.4634 -0.5796
   83SOPE   H8Y 7690   1.572   1.237   3.700  0.3504 -0.3680  0.8879
   83SOPE   C39 7691   1.462   1.128   3.861  0.0479 -0.2413  0.5377
   83SOPE   H9X 7692   1.512   1.030   3.845  0.9464  0.2879 -0.0659
   83SOPE   H9Y 7693   1.354   1.118   3.884 -0.3776  1.9347 -0.2581
   83SOPE  C310 7694   1.542   1.185   3.979 -0.0309  0.1469 -0.9057
   83SOPE  H10X 7695   1.540   1.295   3.968 -0.9037  0.1738 -0.5408
   83SOPE  H10Y 7696   1.646   1.151   3.961  0.9277  2.3982  0.0195
   83SOPE  C311 7697   1.482   1.140   4.111 -0.3872  0.0960 -0.0097
   83SOPE  H11X 7698   1.470   1.031   4.101 -0.8607  0.1529 -0.0471
   83SOPE  H11Y 7699   1.391   1.203   4.115  0.7644  1.7956  1.4640
   83SOPE  C312 7700   1.576   1.170   4.232 -0.4804 -0.1555  0.2385
   83SOPE  H12X 7701   1.595   1.279   4.234  3.4583 -0.5341 -3.1180
   83SOPE  H12Y 7702   1.671   1.115   4.211 -1.3690 -0.8985 -2.1516
   83SOPE  C313 7703   1.527   1.121   4.357 -0.0507  0.0616 -0.1691
   83SOPE  H13X 7704   1.508   1.012   4.353  2.1114 -0.3536 -0.1787
   83SOPE  H13Y 7705   1.431   1.172   4.381  0.7456  0.7063  1.9144
   83SOPE  C314 7706   1.637   1.139   4.473  0.7010 -0.1070  0.0779
   83SOPE  H14X 7707   1.645   1.244   4.508  3.8182 -0.0875 -0.4163
   83SOPE  H14Y 7708   1.731   1.135   4.414 -0.2354  1.4942 -1.6281
   83SOPE  C315 7709   1.617   1.056   4.600  0.1462 -0.0123 -0.1476
   83SOPE  H15X 7710   1.593   0.952   4.570  0.9081 -1.1341  2.8689
   83SOPE  H15Y 7711   1.533   1.096   4.661 -1.1330 -2.0503 -0.4832
   83SOPE  C316 7712   1.747   1.047   4.694  0.1037 -0.1769  0.5797
   83SOPE  H16X 7713   1.807   1.136   4.723  2.5575 -0.7751 -2.2608
   83SOPE  H16Y 7714   1.822   0.995   4.631  0.1173  2.1299 -1.4457
   83SOPE  C317 7715   1.714   0.966   4.817 -0.0788  0.0433 -0.5359
   83SOPE  H17X 7716   1.720   0.861   4.780 -0.9117 -0.3115  0.2884
   83SOPE  H17Y 7717   1.612   0.981   4.857 -0.1314 -1.4365 -0.0254
   83SOPE  C318 7718   1.813   0.994   4.930  0.4062  0.2732  0.0053
   83SOPE  H18X 7719   1.815   0.912   5.004 -0.8288 -0.3720 -0.6454
   83SOPE  H18Y 7720   1.794   1.092   4.980 -1.2250 -0.3312  0.6337
   83SOPE  H18Z 7721   1.914   1.001   4.885 -0.0322  0.9227 -0.9284
   84SOPE     N 7722   1.501   5.504   2.312 -0.0821 -0.0986 -0.0588
   84SOPE   HN1 7723   1.407   5.545   2.295 -0.4674 -0.2813  1.4023
   84SOPE   HN2 7724   1.574   5.566   2.351  1.4267 -1.5489 -0.4638
   84SOPE   HN3 7725   1.539   5.459   2.227 -0.8301 -3.5937  1.2803
   84SOPE   C12 7726   1.483   5.382   2.405 -0.4420  0.4926  0.5156
   84SOPE  H12A 7727   1.451   5.425   2.502  0.7128  1.6145  0.4371
   84SOPE  H12B 7728   1.581   5.330   2.394  0.4072  1.7500  1.7977
   84SOPE   C11 7729   1.385   5.274   2.351 -0.0910 -0.5670  0.5360
   84SOPE  H11A 7730   1.388   5.189   2.423 -1.0620 -1.4502 -0.4352
   84SOPE  H11B 7731   1.438   5.252   2.257 -1.5553  1.0727 -0.7590
   84SOPE     P 7732   1.124   5.277   2.389 -0.0904 -0.0543 -0.0737
   84SOPE   O13 7733   1.123   5.127   2.379  0.5826 -0.0670  0.1540
   84SOPE   O14 7734   1.013   5.357   2.323  0.1050  0.0784 -0.1972
   84SOPE   O12 7735   1.257   5.335   2.328 -0.4502 -0.2395 -0.2202
   84SOPE   O11 7736   1.126   5.318   2.537 -0.7230 -0.0737 -0.2516
   84SOPE    C1 7737   1.089   5.457   2.565  0.2765 -0.1393  0.2993
   84SOPE    HA 7738   0.987   5.476   2.526 -0.5842 -2.2252  1.3905
   84SOPE    HB 7739   1.160   5.526   2.515  0.2288 -0.8546 -0.7856
   84SOPE    C2 7740   1.085   5.492   2.718  0.8820  0.5734 -0.0553
   84SOPE    HS 7741   1.070   5.602   2.724  3.9389  0.9987  1.6089
   84SOPE   O21 7742   1.203   5.448   2.788  0.3664 -0.1800  0.7386
   84SOPE   C21 7743   1.301   5.534   2.784  0.0049 -0.0733  0.7025
   84SOPE   O22 7744   1.310   5.642   2.723  0.5252 -0.3462 -0.5688
   84SOPE   C22 7745   1.416   5.474   2.864 -0.6959 -0.5170  0.5335
   84SOPE   H2R 7746   1.510   5.502   2.811 -1.5308  0.3021 -0.5464
   84SOPE   H2S 7747   1.410   5.364   2.870  2.0586 -0.7781 -0.2288
   84SOPE    C3 7748   0.964   5.424   2.790  0.1850  0.4895 -0.4438
   84SOPE    HX 7749   0.995   5.318   2.804  2.2672  1.0583 -0.3153
   84SOPE    HY 7750   0.878   5.441   2.722  1.9701 -0.7289 -3.2117
   84SOPE   O31 7751   0.938   5.481   2.917  0.5927  0.3462 -0.1486
   84SOPE   C31 7752   0.833   5.422   2.981  0.3854 -0.6488 -0.0206
   84SOPE   O32 7753   0.773   5.332   2.935  0.0011  0.5759 -0.1530
   84SOPE   C32 7754   0.814   5.491   3.120  0.9116  0.4834  0.4253
   84SOPE   H2X 7755   0.780   5.594   3.096 -1.1368 -0.0172  1.0008
   84SOPE   H2Y 7756   0.914   5.502   3.166  0.3809 -0.3061  1.8296
   84SOPE   C23 7757   1.435   5.540   3.007  0.6144 -0.0954 -0.1211
   84SOPE   H3R 7758   1.343   5.546   3.069  1.2591 -0.2757  0.8742
   84SOPE   H3S 7759   1.459   5.645   2.982  2.5895 -1.0178 -2.6207
   84SOPE   C24 7760   1.539   5.463   3.091  0.3182 -0.0200 -0.3305
   84SOPE   H4R 7761   1.508   5.361   3.123  0.7649  0.1787  0.7856
   84SOPE   H4S 7762   1.630   5.452   3.028  1.6040 -0.4668  1.5093
   84SOPE   C25 7763   1.588   5.541   3.211  0.2942  0.2936  0.1404
   84SOPE   H5R 7764   1.685   5.496   3.242  0.3433 -0.2296 -0.7452
   84SOPE   H5S 7765   1.617   5.644   3.184 -0.2623  1.1132  2.4292
   84SOPE   C26 7766   1.492   5.538   3.336  0.0959 -0.7927  0.1520
   84SOPE   H6R 7767   1.392   5.553   3.289  0.0105  0.1856  0.6213
   84SOPE   H6S 7768   1.482   5.436   3.378 -2.2046 -1.2032 -1.1477
   84SOPE   C27 7769   1.520   5.640   3.441 -0.4118 -0.3304 -0.1241
   84SOPE   H7R 7770   1.605   5.705   3.409 -0.6171 -0.1620 -0.3333
   84SOPE   H7S 7771   1.435   5.710   3.455 -2.1882 -2.1796 -1.1636
   84SOPE   C28 7772   1.575   5.577   3.571 -0.0081 -0.6084 -0.7703
   84SOPE   H8R 7773   1.638   5.491   3.536  2.5753  0.5659  0.6898
   84SOPE   H8S 7774   1.644   5.647   3.623  0.8331 -0.1134 -2.4788
   84SOPE   C29 7775   1.475   5.533   3.673 -0.3849  0.4001 -0.2872
   84SOPE   H91 7776   1.368   5.541   3.649 -0.3339 -1.2640 -1.2435
   84SOPE  C210 7777   1.510   5.468   3.788  0.1643  0.1475  0.1825
   84SOPE  H101 7778   1.436   5.433   3.862 -0.9009  0.3090 -0.7872
   84SOPE  C211 7779   1.650   5.441   3.835  0.3793 -0.6012 -0.5223
   84SOPE  H11R 7780   1.732   5.494   3.781  1.9095 -3.1590 -0.8503
   84SOPE  H11S 7781   1.664   5.332   3.818  0.0951 -1.0262  1.7250
   84SOPE  C212 7782   1.665   5.458   3.989 -0.3717  0.1904 -0.3403
   84SOPE  H12R 7783   1.635   5.558   4.026  2.0558  1.4464 -1.5135
   84SOPE  H12S 7784   1.774   5.459   4.012 -0.8321  2.1106  2.2210
   84SOPE  C213 7785   1.585   5.347   4.067  0.2768  0.8445 -0.8048
   84SOPE  H13R 7786   1.611   5.247   4.025 -1.8927  0.2295 -0.8163
   84SOPE  H13S 7787   1.477   5.359   4.044 -0.4083  0.7267  1.9767
   84SOPE  C214 7788   1.603   5.358   4.224 -0.2037  0.5463  0.3722
   84SOPE  H14R 7789   1.540   5.291   4.287 -0.9754  1.9258  1.1410
   84SOPE  H14S 7790   1.582   5.464   4.250  0.2645  0.8191 -0.3232
   84SOPE  C215 7791   1.742   5.324   4.265 -0.4420  0.7486  0.9124
   84SOPE  H15R 7792   1.822   5.392   4.228  0.8048 -0.6874  0.8205
   84SOPE  H15S 7793   1.773   5.224   4.225 -0.3254  1.2618 -0.3387
   84SOPE  C216 7794   1.749   5.310   4.421  0.4733 -0.2792 -0.2194
   84SOPE  H16R 7795   1.657   5.255   4.453  1.0048 -1.3075 -0.4264
   84SOPE  H16S 7796   1.736   5.410   4.468 -0.5659 -0.0544 -0.9468
   84SOPE  C217 7797   1.876   5.251   4.472 -0.4597 -0.7410 -0.2943
   84SOPE  H17R 7798   1.958   5.315   4.435 -1.1017  0.4515  0.3060
   84SOPE  H17S 7799   1.882   5.153   4.419  0.7415 -0.2464 -1.1237
   84SOPE  C218 7800   1.876   5.226   4.625  0.4694  0.5181 -0.1029
   84SOPE  H18R 7801   1.821   5.302   4.683  0.4291  0.8874 -0.6141
   84SOPE  H18S 7802   1.985   5.225   4.649  0.6590  1.7768 -0.8337
   84SOPE  H18T 7803   1.827   5.127   4.640  0.5860 -0.2461 -3.6917
   84SOPE   C33 7804   0.712   5.420   3.214 -0.4077 -0.0135 -0.2341
   84SOPE   H3X 7805   0.756   5.319   3.231 -0.1641 -0.0290 -0.9234
   84SOPE   H3Y 7806   0.611   5.401   3.172  0.0130  1.9845 -2.3091
   84SOPE   C34 7807   0.693   5.497   3.347 -0.3069  0.2824  0.0098
   84SOPE   H4X 7808   0.613   5.573   3.328 -1.8869 -1.4023 -0.3712
   84SOPE   H4Y 7809   0.790   5.545   3.371 -0.5230  0.7382 -0.0046
   84SOPE   C35 7810   0.650   5.411   3.467 -0.5825  0.8391 -0.0491
   84SOPE   H5X 7811   0.713   5.320   3.480  0.1179  1.2764 -0.3232
   84SOPE   H5Y 7812   0.558   5.357   3.437 -0.3226 -0.2687  1.0280
   84SOPE   C36 7813   0.631   5.490   3.593 -0.0661 -0.0202 -0.7167
   84SOPE   H6X 7814   0.558   5.568   3.562 -0.4590 -0.5786 -1.2177
   84SOPE   H6Y 7815   0.720   5.540   3.637  0.2753 -0.8685 -0.4114
   84SOPE   C37 7816   0.585   5.402   3.713 -0.1381 -0.1448 -0.4549
   84SOPE   H7X 7817   0.632   5.302   3.720 -1.0809 -0.4891  1.7265
   84SOPE   H7Y 7818   0.478   5.381   3.690 -0.7664  1.9495  0.2519
   84SOPE   C38 7819   0.597   5.467   3.852 -0.4192  0.3396 -0.1097
   84SOPE   H8X 7820   0.557   5.571   3.844  0.4403  0.6732 -0.2289
   84SOPE   H8Y 7821   0.708   5.470   3.856 -0.2265 -1.3195 -2.4316
   84SOPE   C39 7822   0.536   5.389   3.974 -0.1670 -0.3387  0.2991
   84SOPE   H9X 7823   0.556   5.279   3.979 -1.3195 -0.7855 -2.6856
   84SOPE   H9Y 7824   0.430   5.402   3.947  0.2204 -2.9759 -3.2670
   84SOPE  C310 7825   0.566   5.453   4.106  0.6551 -0.0994  0.8881
   84SOPE  H10X 7826   0.529   5.557   4.098 -0.8891 -0.6677  0.3814
   84SOPE  H10Y 7827   0.676   5.459   4.117  0.8554 -2.3667  0.6333
   84SOPE  C311 7828   0.499   5.378   4.218  0.4562  0.8912 -0.2008
   84SOPE  H11X 7829   0.545   5.277   4.215  0.4914  0.9236 -2.6922
   84SOPE  H11Y 7830   0.390   5.365   4.207  0.5347 -0.9775  0.7409
   84SOPE  C312 7831   0.533   5.443   4.351  0.2235  0.1744  0.3091
   84SOPE  H12X 7832   0.641   5.427   4.372  0.6429  0.6417 -1.3147
   84SOPE  H12Y 7833   0.476   5.386   4.427  1.6819 -0.5599  0.9024
   84SOPE  C313 7834   0.480   5.584   4.371 -1.0012 -0.0922 -0.0884
   84SOPE  H13X 7835   0.369   5.576   4.369 -0.9852 -0.8665  0.9353
   84SOPE  H13Y 7836   0.526   5.650   4.294 -3.4763  0.8162 -0.8980
   84SOPE  C314 7837   0.520   5.630   4.509 -0.2854 -0.0690 -0.6956
   84SOPE  H14X 7838   0.496   5.556   4.587  5.0801 -1.4321  0.0988
   84SOPE  H14Y 7839   0.469   5.727   4.524 -0.1666 -0.0683 -0.2986
   84SOPE  C315 7840   0.671   5.663   4.518 -0.2410 -0.1370  0.1070
   84SOPE  H15X 7841   0.696   5.732   4.434  0.0317 -0.0441  0.2621
   84SOPE  H15Y 7842   0.731   5.571   4.504  0.1423  0.0983  0.1804
   84SOPE  C316 7843   0.706   5.732   4.653  0.2494  0.0840 -0.0062
   84SOPE  H16X 7844   0.696   5.647   4.725 -0.4642 -1.3167 -1.6914
   84SOPE  H16Y 7845   0.625   5.805   4.676  0.3486 -0.4744  2.4046
   84SOPE  C317 7846   0.844   5.799   4.660  0.4723  0.2583 -0.2128
   84SOPE  H17X 7847   0.916   5.725   4.620 -0.1710 -0.3395 -0.2818
   84SOPE  H17Y 7848   0.873   5.818   4.765 -1.2965  3.2077 -0.1524
   84SOPE  C318 7849   0.862   5.927   4.569  0.7487  0.1200 -0.2235
   84SOPE  H18X 7850   0.965   5.969   4.579  0.5572  1.2654 -2.3720
   84SOPE  H18Y 7851   0.800   6.014   4.600  1.8751  1.3792 -1.3794
   84SOPE  H18Z 7852   0.829   5.914   4.464 -2.1777 -0.0770  0.6430
   85SOPE     N 7853   5.052   6.059   2.175 -0.4541 -0.6357  0.1558
   85SOPE   HN1 7854   4.952   6.086   2.165 -0.4499  0.1518  1.7907
   85SOPE   HN2 7855   5.077   6.012   2.086 -3.1321 -1.6512 -0.1381
   85SOPE   HN3 7856   5.064   5.988   2.250 -1.1161 -1.1014 -0.1724
   85SOPE   C12 7857   5.121   6.193   2.197  0.3992  0.1579 -0.5989
   85SOPE  H12A 7858   5.158   6.226   2.098  0.5605 -1.2390 -1.0329
   85SOPE  H12B 7859   5.209   6.171   2.260  0.6615 -1.0500 -1.3528
   85SOPE   C11 7860   5.021   6.289   2.264 -0.2121  0.0465  0.3389
   85SOPE  H11A 7861   4.961   6.326   2.178  0.1444 -0.7993 -0.2913
   85SOPE  H11B 7862   5.073   6.379   2.303 -0.4899  0.6867 -0.7154
   85SOPE     P 7863   4.850   6.306   2.454  0.0003  0.0815 -0.4057
   85SOPE   O13 7864   4.745   6.214   2.507 -0.2110 -0.2257  0.4683
   85SOPE   O14 7865   4.809   6.433   2.384 -0.2739 -0.5883 -0.1252
   85SOPE   O12 7866   4.942   6.221   2.357 -0.3073 -0.2214  0.5535
   85SOPE   O11 7867   4.952   6.341   2.565 -0.0137 -0.3598  0.0177
   85SOPE    C1 7868   5.041   6.241   2.612 -0.3774 -0.2914  0.1021
   85SOPE    HA 7869   5.144   6.251   2.572  0.6808 -2.3054  2.0718
   85SOPE    HB 7870   5.010   6.137   2.586  0.6380 -0.1508 -1.8150
   85SOPE    C2 7871   5.053   6.249   2.764  0.6632 -0.5631 -0.2428
   85SOPE    HS 7872   5.115   6.165   2.803 -1.0846 -1.2139  1.2733
   85SOPE   O21 7873   4.926   6.247   2.838  0.0307  0.3515  0.0485
   85SOPE   C21 7874   4.847   6.143   2.828  0.6106  0.2823  0.6851
   85SOPE   O22 7875   4.876   6.035   2.779 -0.1735  0.2337  0.5116
   85SOPE   C22 7876   4.710   6.181   2.889 -0.9573 -0.0708  0.3027
   85SOPE   H2R 7877   4.640   6.152   2.807 -2.3708 -0.7920  1.7146
   85SOPE   H2S 7878   4.714   6.289   2.918  0.2488 -0.4019  1.4689
   85SOPE    C3 7879   5.127   6.383   2.801  0.4419  0.8860  0.1377
   85SOPE    HX 7880   5.057   6.470   2.792  0.5695  1.0009  0.2591
   85SOPE    HY 7881   5.204   6.395   2.722 -0.8724 -0.2935 -1.3909
   85SOPE   O31 7882   5.177   6.373   2.934  0.8308  0.2452 -0.3865
   85SOPE   C31 7883   5.304   6.395   2.952 -0.3319 -0.0746  0.4883
   85SOPE   O32 7884   5.386   6.434   2.871 -0.4285  0.1291 -0.3512
   85SOPE   C32 7885   5.337   6.349   3.095  0.1465 -0.1322  0.4334
   85SOPE   H2X 7886   5.327   6.239   3.094 -0.4819 -0.0690 -0.4614
   85SOPE   H2Y 7887   5.267   6.393   3.169 -1.6369 -2.6925  0.3905
   85SOPE   C23 7888   4.681   6.092   3.008  0.4094 -0.0234 -0.1563
   85SOPE   H3R 7889   4.720   5.989   2.993  2.2962  0.8827 -2.0022
   85SOPE   H3S 7890   4.570   6.079   3.007  0.6120 -2.1290 -1.0029
   85SOPE   C24 7891   4.732   6.149   3.139 -0.1323 -0.0669 -0.3008
   85SOPE   H4R 7892   4.715   6.258   3.152  0.1560  0.0082 -0.5404
   85SOPE   H4S 7893   4.665   6.104   3.216  1.4454 -0.1220  1.0773
   85SOPE   C25 7894   4.880   6.122   3.167  0.0361  0.5384 -0.9988
   85SOPE   H5R 7895   4.900   6.014   3.150  1.0287  0.1381  2.1744
   85SOPE   H5S 7896   4.946   6.176   3.096  1.0404 -1.2561 -1.4799
   85SOPE   C26 7897   4.904   6.164   3.317  1.0700  0.3254  0.1106
   85SOPE   H6R 7898   4.879   6.270   3.338 -0.9355 -0.2171  0.6604
   85SOPE   H6S 7899   4.836   6.097   3.374 -0.5973  1.2459 -0.7335
   85SOPE   C27 7900   5.052   6.142   3.352  0.0692 -0.3690 -0.5310
   85SOPE   H7R 7901   5.083   6.043   3.313  2.4008 -0.5723  1.6017
   85SOPE   H7S 7902   5.117   6.209   3.291  0.1690  0.5690  0.5729
   85SOPE   C28 7903   5.084   6.167   3.493 -0.9261  0.3652 -0.5666
   85SOPE   H8R 7904   5.072   6.276   3.513  1.1240  0.6423 -0.5798
   85SOPE   H8S 7905   5.024   6.101   3.559  0.0804 -0.7636 -0.7316
   85SOPE   C29 7906   5.228   6.141   3.530 -0.2381  0.2561 -0.0124
   85SOPE   H91 7907   5.279   6.072   3.462 -2.2694 -1.9644  0.5925
   85SOPE  C210 7908   5.286   6.198   3.636 -0.2247 -0.0377 -0.2303
   85SOPE  H101 7909   5.394   6.175   3.636  0.2951  1.7338 -3.2585
   85SOPE  C211 7910   5.232   6.306   3.738 -0.2273 -0.3990 -0.0438
   85SOPE  H11R 7911   5.121   6.316   3.732 -0.2085 -0.3229 -0.2742
   85SOPE  H11S 7912   5.283   6.404   3.728 -0.7385 -0.1390 -0.1571
   85SOPE  C212 7913   5.263   6.247   3.875 -0.7438 -0.5580 -0.2334
   85SOPE  H12R 7914   5.371   6.221   3.874 -0.2650  1.3094 -0.1939
   85SOPE  H12S 7915   5.202   6.156   3.897 -0.6577 -0.0683  2.2743
   85SOPE  C213 7916   5.227   6.336   3.990  0.6369 -0.0251  0.3153
   85SOPE  H13R 7917   5.118   6.354   3.979  0.7268  0.9800  1.0021
   85SOPE  H13S 7918   5.274   6.435   3.976 -0.2830  0.4114  0.2055
   85SOPE  C214 7919   5.246   6.293   4.139 -0.1960  0.2263 -0.2592
   85SOPE  H14R 7920   5.342   6.238   4.148 -1.4844 -2.2488 -0.7085
   85SOPE  H14S 7921   5.169   6.219   4.171  0.1447  0.1967  0.5088
   85SOPE  C215 7922   5.238   6.424   4.220 -0.2146 -1.0311 -0.0399
   85SOPE  H15R 7923   5.160   6.484   4.167 -0.0253 -0.0132  0.8050
   85SOPE  H15S 7924   5.333   6.477   4.198 -0.6703 -0.2612 -0.2022
   85SOPE  C216 7925   5.213   6.419   4.373 -0.7627 -0.0478 -0.2203
   85SOPE  H16R 7926   5.264   6.507   4.419  0.3203 -1.2647  0.9995
   85SOPE  H16S 7927   5.255   6.330   4.424  1.0302  0.2044 -1.1625
   85SOPE  C217 7928   5.068   6.413   4.406  0.0791 -0.1084 -0.1757
   85SOPE  H17R 7929   5.019   6.339   4.339 -2.3989  1.6164 -0.4204
   85SOPE  H17S 7930   5.020   6.507   4.370 -0.7466  0.4321  2.1368
   85SOPE  C218 7931   5.032   6.370   4.546 -0.3601  0.5648 -0.3717
   85SOPE  H18R 7932   5.072   6.444   4.619  0.9116  1.7648 -2.2135
   85SOPE  H18S 7933   5.079   6.272   4.569 -2.2382 -0.7348 -1.7388
   85SOPE  H18T 7934   4.926   6.342   4.566 -0.2694 -1.9658 -2.8534
   85SOPE   C33 7935   5.480   6.380   3.132  0.3886  0.7136 -0.0128
   85SOPE   H3X 7936   5.494   6.489   3.150  0.6521  0.7122 -0.2048
   85SOPE   H3Y 7937   5.553   6.333   3.063  0.7194  1.0415  0.1090
   85SOPE   C34 7938   5.503   6.318   3.270 -0.1827 -0.2401 -0.5928
   85SOPE   H4X 7939   5.481   6.209   3.274 -0.0107 -0.2305  1.6560
   85SOPE   H4Y 7940   5.447   6.367   3.353  0.6417 -1.3485  0.6520
   85SOPE   C35 7941   5.646   6.345   3.324  0.1512  0.0016  0.4837
   85SOPE   H5X 7942   5.663   6.448   3.284  0.0681 -0.5377 -0.9864
   85SOPE   H5Y 7943   5.709   6.272   3.269 -1.1362 -0.7483 -0.0171
   85SOPE   C36 7944   5.656   6.316   3.469 -0.0224 -0.0139 -0.0289
   85SOPE   H6X 7945   5.657   6.205   3.480 -0.3521 -0.0273 -0.1234
   85SOPE   H6Y 7946   5.568   6.369   3.511 -0.9271 -0.5135 -1.2447
   85SOPE   C37 7947   5.780   6.384   3.533 -0.7681 -0.3933 -0.0031
   85SOPE   H7X 7948   5.749   6.488   3.557  0.0808  0.1305 -1.1036
   85SOPE   H7Y 7949   5.864   6.366   3.462  0.5575  2.9426  0.5359
   85SOPE   C38 7950   5.829   6.318   3.664  0.6657  0.1736 -0.2671
   85SOPE   H8X 7951   5.927   6.368   3.682 -0.4938  2.4553  0.0323
   85SOPE   H8Y 7952   5.835   6.207   3.657 -1.0962 -0.0179  0.8364
   85SOPE   C39 7953   5.729   6.359   3.769  0.0689  0.1812 -0.1905
   85SOPE   H9X 7954   5.630   6.320   3.735  0.3764 -0.0192 -0.8797
   85SOPE   H9Y 7955   5.709   6.466   3.750  1.9684  0.2811 -1.8876
   85SOPE  C310 7956   5.758   6.321   3.917 -0.0888 -0.3144 -0.1899
   85SOPE  H10X 7957   5.822   6.401   3.960  1.0462 -0.3091 -1.7922
   85SOPE  H10Y 7958   5.820   6.229   3.910 -0.6558 -0.7388  0.2243
   85SOPE  C311 7959   5.636   6.285   4.004 -0.4112 -0.1413  0.3351
   85SOPE  H11X 7960   5.568   6.222   3.943 -0.0389  0.1843 -0.4258
   85SOPE  H11Y 7961   5.566   6.370   4.018  1.3284  2.3387 -3.9257
   85SOPE  C312 7962   5.667   6.208   4.126 -0.1828  0.1124 -0.5662
   85SOPE  H12X 7963   5.725   6.119   4.092 -0.5865  0.7646 -3.1824
   85SOPE  H12Y 7964   5.576   6.157   4.164  0.8286 -0.2924  1.4587
   85SOPE  C313 7965   5.727   6.303   4.235 -0.7127 -0.2809 -0.1444
   85SOPE  H13X 7966   5.833   6.325   4.208 -0.5154 -1.7113 -0.6172
   85SOPE  H13Y 7967   5.736   6.249   4.331  0.4891  2.1580  1.2179
   85SOPE  C314 7968   5.650   6.433   4.270  0.0642 -0.5571  0.0663
   85SOPE  H14X 7969   5.548   6.403   4.302 -0.4549  3.1806  2.4761
   85SOPE  H14Y 7970   5.640   6.501   4.183 -0.9318  1.0717  1.4005
   85SOPE  C315 7971   5.694   6.515   4.392 -0.1946 -0.6291 -0.1514
   85SOPE  H15X 7972   5.799   6.551   4.384 -0.8188  1.1999 -0.6111
   85SOPE  H15Y 7973   5.675   6.451   4.481  1.9182 -1.0371  0.0611
   85SOPE  C316 7974   5.612   6.640   4.409 -0.1485 -0.5025 -0.2545
   85SOPE  H16X 7975   5.507   6.603   4.406 -0.1572 -0.4890 -0.0901
   85SOPE  H16Y 7976   5.629   6.711   4.325  0.7471 -0.5233 -0.0980
   85SOPE  C317 7977   5.641   6.730   4.531 -0.5301  0.1829 -0.1386
   85SOPE  H17X 7978   5.750   6.747   4.544 -0.4496  1.4360 -1.9454
   85SOPE  H17Y 7979   5.601   6.674   4.618 -0.5762  0.6584  0.1477
   85SOPE  C318 7980   5.568   6.865   4.518 -0.4730  0.1525 -0.8331
   85SOPE  H18X 7981   5.576   6.923   4.612 -1.7050 -2.2999  0.9008
   85SOPE  H18Y 7982   5.460   6.843   4.502 -0.6654  0.6273 -0.1972
   85SOPE  H18Z 7983   5.604   6.912   4.424  2.0831 -1.9167 -1.0057
   86SOPE     N 7984   4.895   4.603   2.499 -0.8590  1.0284 -0.3646
   86SOPE   HN1 7985   4.926   4.683   2.558  0.3510  1.3160 -1.3585
   86SOPE   HN2 7986   4.979   4.543   2.487 -1.2868  0.8264 -2.8108
   86SOPE   HN3 7987   4.873   4.636   2.403 -2.2025  3.0567  0.5599
   86SOPE   C12 7988   4.786   4.528   2.567  0.2008 -0.4873  0.2065
   86SOPE  H12A 7989   4.711   4.493   2.493 -0.7798  0.4720  0.7225
   86SOPE  H12B 7990   4.730   4.597   2.633 -1.7935 -0.1424 -1.7289
   86SOPE   C11 7991   4.840   4.401   2.645  0.2957 -0.3618  0.3031
   86SOPE  H11A 7992   4.842   4.320   2.569  1.0111  0.2597 -0.3491
   86SOPE  H11B 7993   4.761   4.374   2.719  0.3038  0.1258  0.4944
   86SOPE     P 7994   5.113   4.401   2.644  0.1657 -0.2743  0.0600
   86SOPE   O13 7995   5.191   4.512   2.697 -0.0493 -0.5900 -0.0575
   86SOPE   O14 7996   5.102   4.409   2.497 -0.1977  0.0660  0.2105
   86SOPE   O12 7997   4.966   4.418   2.709  0.4837  0.2590  0.2289
   86SOPE   O11 7998   5.177   4.270   2.693  0.1343  0.2118  0.1822
   86SOPE    C1 7999   5.119   4.141   2.665  0.0850  0.9683 -0.1335
   86SOPE    HA 8000   5.167   4.087   2.580  0.4028 -0.2475  0.7824
   86SOPE    HB 8001   5.010   4.140   2.644  0.0010  0.6015  0.2918
   86SOPE    C2 8002   5.141   4.049   2.795 -0.5369  0.0644 -0.1652
   86SOPE    HS 8003   5.105   3.945   2.780  1.9185 -0.6335 -1.7759
   86SOPE   O21 8004   5.091   4.102   2.914  0.0326  0.2067 -0.8586
   86SOPE   C21 8005   4.958   4.118   2.919  0.2416  0.4310 -0.3529
   86SOPE   O22 8006   4.879   4.077   2.834  0.0749  0.0734  0.5561
   86SOPE   C22 8007   4.916   4.226   3.024 -0.8062  0.5683  0.1598
   86SOPE   H2R 8008   4.876   4.307   2.959 -2.6528 -0.0682  0.4520
   86SOPE   H2S 8009   5.000   4.269   3.082  0.8868  2.2734 -3.2737
   86SOPE    C3 8010   5.295   4.035   2.813  0.2281  0.1071 -0.1124
   86SOPE    HX 8011   5.343   4.134   2.827 -3.2247  1.5647  3.1046
   86SOPE    HY 8012   5.329   3.986   2.719  1.3959 -0.7341  0.7118
   86SOPE   O31 8013   5.344   3.951   2.925  0.6460 -0.0408  0.1210
   86SOPE   C31 8014   5.307   3.823   2.931 -0.1190  0.4801  0.3000
   86SOPE   O32 8015   5.242   3.763   2.846  0.6749  0.0726 -0.1743
   86SOPE   C32 8016   5.333   3.775   3.067  0.0183 -0.3834  0.1228
   86SOPE   H2X 8017   5.443   3.767   3.080  0.3486 -1.6053 -2.6416
   86SOPE   H2Y 8018   5.287   3.676   3.089 -1.5385  0.1890 -0.4099
   86SOPE   C23 8019   4.804   4.183   3.118  0.3662 -0.1740  0.3936
   86SOPE   H3R 8020   4.709   4.156   3.068 -1.2290  0.1849  2.9919
   86SOPE   H3S 8021   4.794   4.274   3.182  1.9317  0.0280  0.3703
   86SOPE   C24 8022   4.838   4.064   3.208 -0.8553  0.5903  0.1772
   86SOPE   H4R 8023   4.866   3.979   3.142  3.2160  0.6077  1.6400
   86SOPE   H4S 8024   4.940   4.072   3.250 -0.1334  0.2547 -1.4329
   86SOPE   C25 8025   4.743   4.044   3.314  0.3607  0.5287 -0.3975
   86SOPE   H5R 8026   4.724   4.133   3.377 -4.5042 -0.6999  0.2550
   86SOPE   H5S 8027   4.643   4.025   3.270 -0.3290  0.5415  1.1241
   86SOPE   C26 8028   4.771   3.923   3.403  0.5588 -0.2044 -0.1162
   86SOPE   H6R 8029   4.752   3.826   3.352  1.9508  0.4958 -2.1223
   86SOPE   H6S 8030   4.879   3.926   3.432  0.0925  1.6507  1.6517
   86SOPE   C27 8031   4.684   3.918   3.535  1.4232 -0.5239  0.1954
   86SOPE   H7R 8032   4.689   4.017   3.585 -1.4922 -0.3279  0.2537
   86SOPE   H7S 8033   4.575   3.904   3.515  1.0833  1.0210  0.8530
   86SOPE   C28 8034   4.740   3.821   3.634  0.1703 -0.1567 -0.2409
   86SOPE   H8R 8035   4.849   3.840   3.643  0.3729 -1.8261  1.7383
   86SOPE   H8S 8036   4.695   3.847   3.732  0.3223  0.2641 -0.2815
   86SOPE   C29 8037   4.735   3.676   3.595  0.0668 -0.6736 -0.3757
   86SOPE   H91 8038   4.755   3.653   3.489 -0.1241  0.7351 -0.7309
   86SOPE  C210 8039   4.680   3.574   3.670 -0.5055 -0.4676  0.5343
   86SOPE  H101 8040   4.675   3.474   3.623  1.8898 -0.4432  0.0851
   86SOPE  C211 8041   4.631   3.592   3.817  0.6236  0.0966 -0.0098
   86SOPE  H11R 8042   4.528   3.633   3.818  0.8510  0.7399  2.4065
   86SOPE  H11S 8043   4.685   3.668   3.878  2.1077  0.6662 -1.9241
   86SOPE  C212 8044   4.635   3.449   3.881 -0.6152  0.0205 -0.5353
   86SOPE  H12R 8045   4.739   3.414   3.896  0.4567  3.3856  0.8431
   86SOPE  H12S 8046   4.572   3.380   3.821 -1.5930 -0.9241  1.4814
   86SOPE  C213 8047   4.548   3.460   4.007 -0.5810  0.8622  0.1797
   86SOPE  H13R 8048   4.441   3.479   3.987 -1.2821 -1.5179  1.2736
   86SOPE  H13S 8049   4.590   3.531   4.081 -0.1403 -0.0220  0.8129
   86SOPE  C214 8050   4.552   3.330   4.092 -1.0100 -0.1163 -0.9266
   86SOPE  H14R 8051   4.513   3.357   4.193 -0.1725 -1.3786 -0.2418
   86SOPE  H14S 8052   4.655   3.297   4.115 -0.6566  2.1594  1.2383
   86SOPE  C215 8053   4.468   3.218   4.035  0.1301 -0.2526  0.5869
   86SOPE  H15R 8054   4.522   3.195   3.940  3.4695  0.4692  2.1643
   86SOPE  H15S 8055   4.367   3.260   4.013 -0.5597 -2.9294 -2.1677
   86SOPE  C216 8056   4.466   3.091   4.105  0.3276  0.7047  0.5601
   86SOPE  H16R 8057   4.405   3.103   4.197 -1.8575 -1.6983 -0.4360
   86SOPE  H16S 8058   4.569   3.056   4.125  0.7071  0.9378 -0.8786
   86SOPE  C217 8059   4.394   2.991   4.008 -0.4882  0.8080  0.8500
   86SOPE  H17R 8060   4.442   2.988   3.908  0.3362  1.3331  1.2199
   86SOPE  H17S 8061   4.296   3.041   3.998  0.0899  1.8121  0.0341
   86SOPE  C218 8062   4.392   2.847   4.065  0.1319  0.1835  0.0786
   86SOPE  H18R 8063   4.490   2.796   4.062 -0.6122 -1.2695 -0.5553
   86SOPE  H18S 8064   4.315   2.786   4.014 -1.1990  0.0282  2.1493
   86SOPE  H18T 8065   4.347   2.848   4.167 -1.8286 -0.6489 -0.7162
   86SOPE   C33 8066   5.270   3.863   3.181  0.3086 -0.6866  0.7716
   86SOPE   H3X 8067   5.163   3.841   3.203  0.5130  0.1557  2.8638
   86SOPE   H3Y 8068   5.283   3.969   3.152 -1.4325 -1.1918 -2.3854
   86SOPE   C34 8069   5.338   3.821   3.314 -0.1929  0.2337 -0.2799
   86SOPE   H4X 8070   5.449   3.823   3.305 -0.3396  1.8380 -2.3755
   86SOPE   H4Y 8071   5.308   3.720   3.348  0.0687  0.7917  1.7345
   86SOPE   C35 8072   5.283   3.908   3.430  0.0076 -0.0681 -0.1379
   86SOPE   H5X 8073   5.172   3.901   3.434 -0.0919 -0.1592 -1.9768
   86SOPE   H5Y 8074   5.304   4.015   3.411 -0.7590 -0.0554 -1.0149
   86SOPE   C36 8075   5.351   3.878   3.561 -0.3537  0.9023  0.3136
   86SOPE   H6X 8076   5.336   3.956   3.638  2.1346  0.3293  1.4909
   86SOPE   H6Y 8077   5.459   3.877   3.535  0.2180  0.9978  2.5353
   86SOPE   C37 8078   5.306   3.743   3.630  0.0133  0.1562  0.0606
   86SOPE   H7X 8079   5.382   3.722   3.708 -2.0490 -1.9542  1.6694
   86SOPE   H7Y 8080   5.287   3.661   3.557 -0.6643 -1.3522  1.8326
   86SOPE   C38 8081   5.175   3.754   3.707 -0.5128  0.3330 -0.6184
   86SOPE   H8X 8082   5.098   3.804   3.645 -0.4578  1.7198  0.4069
   86SOPE   H8Y 8083   5.198   3.824   3.789  1.2189  1.7080 -2.2020
   86SOPE   C39 8084   5.135   3.614   3.763 -0.0314  0.1617  0.6174
   86SOPE   H9X 8085   5.223   3.559   3.801  1.3530  2.0935  0.3783
   86SOPE   H9Y 8086   5.094   3.556   3.677 -2.4702 -0.4857  2.1034
   86SOPE  C310 8087   5.018   3.624   3.868  0.1152  0.2452 -0.1273
   86SOPE  H10X 8088   4.983   3.522   3.896  1.0804  0.1330  0.7338
   86SOPE  H10Y 8089   4.932   3.688   3.837 -1.6406 -0.9899  1.8714
   86SOPE  C311 8090   5.064   3.686   3.998 -0.0348  0.1804 -0.4852
   86SOPE  H11X 8091   5.103   3.790   3.990  1.9807 -0.4913  0.0687
   86SOPE  H11Y 8092   5.155   3.631   4.032 -0.4247  0.2446  0.7216
   86SOPE  C312 8093   4.954   3.671   4.099 -0.0627  0.7723  0.5560
   86SOPE  H12X 8094   4.900   3.576   4.079 -0.1236  0.4518  2.0642
   86SOPE  H12Y 8095   4.878   3.751   4.086 -0.4750  0.3242  0.1652
   86SOPE  C313 8096   5.014   3.667   4.243 -0.5106  0.5871 -0.4157
   86SOPE  H13X 8097   5.069   3.761   4.265  1.0351 -0.9114  2.8019
   86SOPE  H13Y 8098   5.079   3.578   4.230 -0.0124  0.9953 -0.7198
   86SOPE  C314 8099   4.918   3.640   4.359 -0.1034 -0.8075  0.2732
   86SOPE  H14X 8100   4.846   3.724   4.346 -0.1509 -0.9851 -0.6391
   86SOPE  H14Y 8101   4.954   3.647   4.464 -1.0063 -1.5379  0.6578
   86SOPE  C315 8102   4.839   3.507   4.351 -0.4555 -0.7211 -0.4201
   86SOPE  H15X 8103   4.919   3.430   4.352 -0.4723 -0.7638 -1.3179
   86SOPE  H15Y 8104   4.802   3.503   4.246  0.9157 -1.1724 -0.9111
   86SOPE  C316 8105   4.720   3.497   4.446 -0.3754 -0.0455  0.6137
   86SOPE  H16X 8106   4.750   3.518   4.550 -0.0218 -0.6513  0.6372
   86SOPE  H16Y 8107   4.671   3.398   4.440  1.3282 -0.9538  1.0896
   86SOPE  C317 8108   4.610   3.606   4.425  0.3827 -1.0651  0.9540
   86SOPE  H17X 8109   4.591   3.604   4.316 -0.1522  1.0140  0.9688
   86SOPE  H17Y 8110   4.639   3.707   4.461  1.0072 -1.0473  0.4086
   86SOPE  C318 8111   4.470   3.586   4.493 -0.2014  0.2330 -0.5774
   86SOPE  H18X 8112   4.474   3.544   4.595 -1.1835  0.6091 -0.3721
   86SOPE  H18Y 8113   4.418   3.510   4.431 -0.3970 -1.4598  1.5721
   86SOPE  H18Z 8114   4.403   3.674   4.502 -0.1452  0.3464 -1.2073
   87SOPE     N 8115   6.594   2.886   2.303  0.1755 -0.0580  0.2562
   87SOPE   HN1 8116   6.620   2.787   2.322 -2.3837 -0.7025  0.7709
   87SOPE   HN2 8117   6.517   2.918   2.366  0.5686  2.2735 -0.3503
   87SOPE   HN3 8118   6.548   2.886   2.209 -0.0857  0.5438  0.3776
   87SOPE   C12 8119   6.714   2.978   2.291 -0.3794  0.3900  0.0013
   87SOPE  H12A 8120   6.685   3.080   2.256  4.4990  1.1142 -2.8168
   87SOPE  H12B 8121   6.776   2.943   2.206 -0.1934  0.5455  0.0726
   87SOPE   C11 8122   6.796   2.963   2.419  0.2937  0.0801  0.1343
   87SOPE  H11A 8123   6.736   2.980   2.511 -2.9284 -0.2969 -1.7512
   87SOPE  H11B 8124   6.872   3.043   2.408 -1.5490  1.8281 -0.4997
   87SOPE     P 8125   7.017   2.815   2.438 -0.1581  0.1220  0.1243
   87SOPE   O13 8126   7.091   2.858   2.319 -0.0231  0.0255  0.8871
   87SOPE   O14 8127   7.033   2.674   2.475 -0.3152  0.1255  0.2009
   87SOPE   O12 8128   6.860   2.839   2.437  0.6954 -0.1284  0.3048
   87SOPE   O11 8129   7.058   2.907   2.563 -0.0352  0.0347 -0.1948
   87SOPE    C1 8130   6.983   2.916   2.680 -0.2401 -0.0463  0.1229
   87SOPE    HA 8131   6.923   2.823   2.693  1.1723 -1.0772 -0.5014
   87SOPE    HB 8132   6.917   3.006   2.674 -0.6228 -0.3348 -0.0250
   87SOPE    C2 8133   7.060   2.949   2.812  0.2778  0.1974  0.1726
   87SOPE    HS 8134   7.139   3.025   2.791 -0.3291  0.7561 -0.1232
   87SOPE   O21 8135   7.104   2.822   2.862  0.0937  0.6225  0.1283
   87SOPE   C21 8136   7.206   2.819   2.940  0.6224 -0.0995 -0.5451
   87SOPE   O22 8137   7.271   2.916   2.977 -0.1327  0.2201 -0.0352
   87SOPE   C22 8138   7.219   2.679   2.993  0.2819  0.0398  0.6019
   87SOPE   H2R 8139   7.290   2.681   3.078  1.9818  3.7096 -0.6934
   87SOPE   H2S 8140   7.259   2.614   2.911  1.8678  1.0622  0.5243
   87SOPE    C3 8141   6.965   3.020   2.915  0.2910 -0.3151  0.1821
   87SOPE    HX 8142   6.874   2.956   2.923 -1.7269  2.3795  0.0798
   87SOPE    HY 8143   6.926   3.112   2.867 -0.0118  0.0972  1.1831
   87SOPE   O31 8144   7.022   3.046   3.045  0.7782 -0.0936  0.2046
   87SOPE   C31 8145   7.088   3.156   3.048 -0.8100 -0.1603  0.7139
   87SOPE   O32 8146   7.123   3.219   2.945 -0.0008 -0.4080  0.1108
   87SOPE   C32 8147   7.117   3.200   3.189 -0.3033  0.9865 -0.0890
   87SOPE   H2X 8148   7.023   3.241   3.231  0.2187  2.2671 -0.1457
   87SOPE   H2Y 8149   7.200   3.273   3.178 -0.4557  1.0161 -1.1045
   87SOPE   C23 8150   7.087   2.611   3.041  0.3065 -0.0845 -0.2141
   87SOPE   H3R 8151   7.015   2.592   2.959  0.1066  0.4405 -0.1639
   87SOPE   H3S 8152   7.033   2.674   3.114 -2.6521 -1.8031 -0.7721
   87SOPE   C24 8153   7.108   2.472   3.109 -0.6154 -0.3271 -0.1871
   87SOPE   H4R 8154   7.181   2.415   3.048 -0.3570  0.9012 -1.0742
   87SOPE   H4S 8155   7.148   2.509   3.206  1.3683  0.3129 -1.1906
   87SOPE   C25 8156   6.974   2.391   3.114  0.3885 -0.1154 -0.0129
   87SOPE   H5R 8157   6.905   2.470   3.152  0.4395  0.0280 -0.2215
   87SOPE   H5S 8158   6.943   2.374   3.009  0.1784  0.3539 -0.0265
   87SOPE   C26 8159   6.998   2.257   3.180  0.8115  0.3664 -0.3187
   87SOPE   H6R 8160   7.075   2.194   3.130 -0.5140 -1.3270 -0.3212
   87SOPE   H6S 8161   7.036   2.260   3.285  1.7317  0.3900 -0.6425
   87SOPE   C27 8162   6.876   2.168   3.178 -0.5331  0.1633 -0.4423
   87SOPE   H7R 8163   6.843   2.175   3.072 -0.4264  0.2384 -0.4702
   87SOPE   H7S 8164   6.904   2.064   3.206 -1.1382  0.2208  0.4106
   87SOPE   C28 8165   6.758   2.214   3.263 -0.0768 -0.8393 -0.1954
   87SOPE   H8R 8166   6.792   2.278   3.347 -0.8898 -0.6414 -0.0032
   87SOPE   H8S 8167   6.703   2.286   3.199 -2.6158 -2.3418  0.1472
   87SOPE   C29 8168   6.684   2.090   3.314  0.4415 -0.5622  0.3818
   87SOPE   H91 8169   6.636   2.031   3.235 -0.1348  0.6747 -0.2282
   87SOPE  C210 8170   6.681   2.045   3.440  0.3878  0.0181  0.0249
   87SOPE  H101 8171   6.614   1.960   3.455 -2.0366  1.3715 -2.3536
   87SOPE  C211 8172   6.762   2.105   3.555  0.7209  0.1389 -0.3786
   87SOPE  H11R 8173   6.699   2.164   3.626 -0.1740 -0.8006 -0.3679
   87SOPE  H11S 8174   6.846   2.169   3.520  0.2272  0.8375 -0.3275
   87SOPE  C212 8175   6.822   1.997   3.639 -0.2853 -0.8457  0.2529
   87SOPE  H12R 8176   6.865   1.923   3.568  0.4249  0.1399 -0.3610
   87SOPE  H12S 8177   6.755   1.943   3.709 -1.5457 -1.1627 -1.1507
   87SOPE  C213 8178   6.939   2.047   3.725 -0.1672  0.0227 -0.1464
   87SOPE  H13R 8179   6.905   2.113   3.808 -0.3491 -1.1181  0.7108
   87SOPE  H13S 8180   6.992   2.120   3.659 -0.3204  0.0945 -0.1902
   87SOPE  C214 8181   7.037   1.939   3.769  0.0594  0.3355 -0.0183
   87SOPE  H14R 8182   7.057   1.878   3.679 -3.0042 -1.2772  0.2512
   87SOPE  H14S 8183   6.988   1.867   3.839 -0.1291 -1.3204 -1.7694
   87SOPE  C215 8184   7.157   2.001   3.840  0.6582  0.2362 -0.7381
   87SOPE  H15R 8185   7.216   1.929   3.901 -0.2037  0.9216  0.9951
   87SOPE  H15S 8186   7.124   2.086   3.904 -2.1947  2.0702 -4.2788
   87SOPE  C216 8187   7.253   2.062   3.737 -0.4394 -0.1350  0.3270
   87SOPE  H16R 8188   7.199   2.146   3.689 -3.2993 -1.6111  0.8006
   87SOPE  H16S 8189   7.290   1.991   3.660  2.8260  1.6410  0.0515
   87SOPE  C217 8190   7.385   2.109   3.808 -0.0070 -0.6493  0.2098
   87SOPE  H17R 8191   7.425   2.019   3.859 -0.4244 -1.6318 -1.1328
   87SOPE  H17S 8192   7.354   2.184   3.885 -0.5258  0.3203 -0.9127
   87SOPE  C218 8193   7.485   2.176   3.717  0.3236 -0.2322  0.5899
   87SOPE  H18R 8194   7.522   2.102   3.642  1.1682  0.4588  0.3043
   87SOPE  H18S 8195   7.565   2.228   3.774  0.1156  1.3043 -0.4775
   87SOPE  H18T 8196   7.428   2.260   3.672 -0.6390 -0.2346  1.7634
   87SOPE   C33 8197   7.177   3.081   3.272  0.3438 -0.3236  0.1549
   87SOPE   H3X 8198   7.266   3.036   3.224 -0.3505 -1.5650 -0.0173
   87SOPE   H3Y 8199   7.103   3.000   3.289  1.0099 -0.7743  0.9921
   87SOPE   C34 8200   7.220   3.129   3.418 -0.0303  0.4685 -0.4131
   87SOPE   H4X 8201   7.131   3.177   3.464  1.2019  1.2751  1.2545
   87SOPE   H4Y 8202   7.308   3.195   3.400  1.0780 -1.0323 -0.7138
   87SOPE   C35 8203   7.251   3.022   3.521  0.1657 -0.0172  0.2757
   87SOPE   H5X 8204   7.185   2.937   3.491 -2.1740  2.1819 -1.2058
   87SOPE   H5Y 8205   7.235   3.049   3.628  1.2517 -1.3983  0.8189
   87SOPE   C36 8206   7.405   2.987   3.530  0.0595  0.0454 -0.4190
   87SOPE   H6X 8207   7.473   3.075   3.526  1.6574 -1.0832  0.8870
   87SOPE   H6Y 8208   7.421   2.936   3.432  0.8152  0.4921 -0.5369
   87SOPE   C37 8209   7.449   2.890   3.645  0.5575  0.0841  0.2970
   87SOPE   H7X 8210   7.529   2.827   3.601  0.7927 -0.3730  1.3462
   87SOPE   H7Y 8211   7.362   2.826   3.670  1.1563 -1.4937 -1.4910
   87SOPE   C38 8212   7.478   2.961   3.774  0.4595 -0.3749  0.2278
   87SOPE   H8X 8213   7.388   3.015   3.809  1.1687  2.1992 -1.5697
   87SOPE   H8Y 8214   7.565   3.029   3.761 -1.3639  1.6360 -2.9394
   87SOPE   C39 8215   7.519   2.858   3.881 -0.0126  0.0567 -0.3713
   87SOPE   H9X 8216   7.572   2.767   3.846 -1.2251 -0.5508 -0.6896
   87SOPE   H9Y 8217   7.425   2.807   3.912 -0.4559  0.6021 -0.7981
   87SOPE  C310 8218   7.574   2.926   4.003  0.2813  0.3233  0.3018
   87SOPE  H10X 8219   7.502   3.003   4.037  1.1534  0.2123  2.5669
   87SOPE  H10Y 8220   7.674   2.967   3.975  0.9940 -1.1127  0.6764
   87SOPE  C311 8221   7.592   2.837   4.128 -0.3027 -0.1205 -0.3934
   87SOPE  H11X 8222   7.630   2.734   4.115  2.8293  0.8871 -0.0838
   87SOPE  H11Y 8223   7.494   2.839   4.179 -0.2848 -0.3152 -0.3533
   87SOPE  C312 8224   7.695   2.898   4.230  0.4291  1.1452 -0.3610
   87SOPE  H12X 8225   7.783   2.897   4.162 -0.2077 -1.4307 -1.2627
   87SOPE  H12Y 8226   7.720   2.827   4.310 -0.3370 -1.1280 -2.0409
   87SOPE  C313 8227   7.660   3.040   4.275  0.6417  0.4017 -0.5032
   87SOPE  H13X 8228   7.554   3.035   4.308  0.4274 -2.8369 -1.3342
   87SOPE  H13Y 8229   7.663   3.106   4.186 -0.5087  1.8454  0.4738
   87SOPE  C314 8230   7.754   3.094   4.383  0.3630 -0.1811 -0.0064
   87SOPE  H14X 8231   7.859   3.101   4.348  0.7654  1.5336  1.4165
   87SOPE  H14Y 8232   7.764   3.025   4.470  0.9796  1.6832  1.4706
   87SOPE  C315 8233   7.720   3.234   4.434  0.6707 -0.4474  0.2571
   87SOPE  H15X 8234   7.615   3.238   4.470  0.4244 -0.0229 -0.4685
   87SOPE  H15Y 8235   7.718   3.300   4.344 -0.6720 -1.8785 -0.8107
   87SOPE  C316 8236   7.811   3.290   4.545  0.0700 -0.3856 -0.2754
   87SOPE  H16X 8237   7.805   3.401   4.545 -2.4767 -0.4211  1.7725
   87SOPE  H16Y 8238   7.913   3.253   4.522 -0.2719 -0.3807 -1.9216
   87SOPE  C317 8239   7.781   3.222   4.688  0.1508  0.2004  0.0922
   87SOPE  H17X 8240   7.868   3.217   4.757 -0.9003 -1.2583  1.3675
   87SOPE  H17Y 8241   7.755   3.117   4.662 -0.2830  0.5565 -0.9843
   87SOPE  C318 8242   7.675   3.296   4.768 -0.2517  0.2052 -0.2412
   87SOPE  H18X 8243   7.662   3.236   4.861  1.1259  0.9192  0.4301
   87SOPE  H18Y 8244   7.590   3.336   4.708  0.0299 -0.2031 -0.9220
   87SOPE  H18Z 8245   7.725   3.383   4.815 -0.2780  0.5526 -0.8514
   88SOPE     N 8246   2.173   4.356   2.488 -0.2281  0.6228 -0.0628
   88SOPE   HN1 8247   2.109   4.366   2.406 -0.8905 -0.0502  0.3674
   88SOPE   HN2 8248   2.184   4.452   2.528  0.0914  0.2719  0.7165
   88SOPE   HN3 8249   2.266   4.319   2.459 -0.1213 -1.1911  2.3096
   88SOPE   C12 8250   2.095   4.285   2.598 -0.6224 -0.2892 -0.4263
   88SOPE  H12A 8251   2.144   4.311   2.694  1.8222 -0.1151 -1.6646
   88SOPE  H12B 8252   2.108   4.174   2.592 -2.7670 -0.5658 -0.7226
   88SOPE   C11 8253   1.947   4.324   2.605 -0.1790 -0.0794  0.9343
   88SOPE  H11A 8254   1.933   4.433   2.618  1.4639  0.2647  0.1067
   88SOPE  H11B 8255   1.901   4.271   2.691  0.5531  0.2994  1.5722
   88SOPE     P 8256   1.744   4.330   2.449  0.1799 -0.0671 -0.0441
   88SOPE   O13 8257   1.665   4.220   2.392  0.0048 -0.2133 -0.1428
   88SOPE   O14 8258   1.765   4.448   2.361  0.0490  0.3003  0.2018
   88SOPE   O12 8259   1.883   4.270   2.485  0.2237  0.0908 -0.2892
   88SOPE   O11 8260   1.680   4.373   2.577  0.1772  0.0784 -0.2992
   88SOPE    C1 8261   1.657   4.514   2.606 -0.5275  0.0608  0.1545
   88SOPE    HA 8262   1.557   4.546   2.568  0.0562  1.6164 -0.1473
   88SOPE    HB 8263   1.732   4.580   2.557 -1.7923  1.6079  0.2180
   88SOPE    C2 8264   1.656   4.542   2.759  0.2641  0.4936 -0.2928
   88SOPE    HS 8265   1.621   4.646   2.774 -2.1528 -0.3813  0.6126
   88SOPE   O21 8266   1.794   4.533   2.812  0.1909  0.0517 -0.3115
   88SOPE   C21 8267   1.830   4.623   2.900 -0.3797 -0.6334 -0.1601
   88SOPE   O22 8268   1.758   4.715   2.946 -0.0698  0.2753 -0.7369
   88SOPE   C22 8269   1.981   4.613   2.927  0.1956  0.9590 -0.1656
   88SOPE   H2R 8270   2.038   4.649   2.838  2.3343  0.9212  1.1026
   88SOPE   H2S 8271   2.008   4.508   2.951  1.2803  1.4100  0.7007
   88SOPE    C3 8272   1.574   4.444   2.835 -0.0907  0.3551  0.6445
   88SOPE    HX 8273   1.616   4.342   2.818  1.5060  1.3488 -1.9760
   88SOPE    HY 8274   1.470   4.445   2.797 -0.6777  2.1698  2.1723
   88SOPE   O31 8275   1.570   4.464   2.980 -0.4754 -0.1353  0.2473
   88SOPE   C31 8276   1.495   4.565   3.017 -0.1749 -0.0947  0.9458
   88SOPE   O32 8277   1.402   4.617   2.960  0.0562  0.5226 -0.1087
   88SOPE   C32 8278   1.530   4.585   3.159  0.4194  0.8221 -0.4809
   88SOPE   H2X 8279   1.637   4.612   3.151  0.6940 -0.6981 -3.2039
   88SOPE   H2Y 8280   1.522   4.490   3.215 -0.0184  0.3238 -1.3675
   88SOPE   C23 8281   2.039   4.690   3.049 -0.0883 -0.0859  0.5134
   88SOPE   H3R 8282   2.037   4.801   3.036 -1.2666 -0.2693 -1.2780
   88SOPE   H3S 8283   2.149   4.682   3.060 -0.0875  1.7811  2.5857
   88SOPE   C24 8284   1.984   4.660   3.186 -0.0244 -0.5909  0.6506
   88SOPE   H4R 8285   1.885   4.615   3.163  0.6097 -1.2365 -1.0254
   88SOPE   H4S 8286   2.044   4.574   3.221  0.8652  0.6479  2.3001
   88SOPE   C25 8287   1.982   4.780   3.283  0.2257  0.4538 -0.2094
   88SOPE   H5R 8288   2.081   4.827   3.299 -1.0340  3.1957  0.1241
   88SOPE   H5S 8289   1.922   4.864   3.243 -1.0824  0.8224  2.3034
   88SOPE   C26 8290   1.904   4.738   3.411 -0.0906  0.6127  0.3409
   88SOPE   H6R 8291   1.802   4.705   3.381  0.0885  1.0601 -0.7877
   88SOPE   H6S 8292   1.966   4.651   3.441  1.1069  0.5917 -2.0086
   88SOPE   C27 8293   1.898   4.852   3.520  0.1581 -0.3716  0.2237
   88SOPE   H7R 8294   2.001   4.867   3.558  0.9810 -4.4326  0.0660
   88SOPE   H7S 8295   1.859   4.946   3.475  0.9094 -0.1539  0.0122
   88SOPE   C28 8296   1.815   4.806   3.635  0.3426  0.0318 -0.7347
   88SOPE   H8R 8297   1.708   4.801   3.606  0.0064  0.7983  0.3188
   88SOPE   H8S 8298   1.840   4.700   3.658 -2.6034 -0.6379 -0.1544
   88SOPE   C29 8299   1.825   4.906   3.745 -0.8812  0.3668 -0.6941
   88SOPE   H91 8300   1.793   5.008   3.720 -0.7599  0.2805 -1.2114
   88SOPE  C210 8301   1.850   4.878   3.873 -0.2343 -1.4410  0.6193
   88SOPE  H101 8302   1.849   4.962   3.943 -4.0622 -1.8707  1.3099
   88SOPE  C211 8303   1.857   4.743   3.945 -0.4582  0.2312 -0.1670
   88SOPE  H11R 8304   1.936   4.735   4.022  1.8492  1.7475 -2.2252
   88SOPE  H11S 8305   1.863   4.651   3.882  2.3374 -0.3937  0.8620
   88SOPE  C212 8306   1.724   4.712   4.018 -0.2725 -0.4026 -0.5344
   88SOPE  H12R 8307   1.727   4.602   4.031  3.2057 -0.3731 -0.2621
   88SOPE  H12S 8308   1.637   4.734   3.952  1.5986  2.3242 -2.3355
   88SOPE  C213 8309   1.719   4.792   4.139 -0.1238 -0.4762 -0.8267
   88SOPE  H13R 8310   1.700   4.897   4.107  1.0313  0.3602  1.0226
   88SOPE  H13S 8311   1.817   4.791   4.192  0.0911  0.9503 -1.1555
   88SOPE  C214 8312   1.613   4.743   4.233 -0.4426  0.5276 -0.2354
   88SOPE  H14R 8313   1.629   4.636   4.255  3.8381  0.8261 -1.0875
   88SOPE  H14S 8314   1.508   4.749   4.196  0.0329 -0.7795 -1.8863
   88SOPE  C215 8315   1.631   4.819   4.365  0.7053 -0.5208 -0.4561
   88SOPE  H15R 8316   1.640   4.927   4.340 -0.1187 -0.0477  1.1573
   88SOPE  H15S 8317   1.725   4.780   4.409 -0.1063 -0.6331  1.2864
   88SOPE  C216 8318   1.520   4.784   4.462  0.5866  0.1212 -0.1222
   88SOPE  H16R 8319   1.508   4.674   4.464 -0.2438  0.2106  0.4005
   88SOPE  H16S 8320   1.421   4.827   4.436  0.5360 -1.7084 -3.4932
   88SOPE  C217 8321   1.560   4.820   4.607  0.4539  0.1101 -0.6958
   88SOPE  H17R 8322   1.559   4.931   4.608 -1.5970  0.1397 -1.1197
   88SOPE  H17S 8323   1.667   4.792   4.616  1.8606  3.7954 -3.6321
   88SOPE  C218 8324   1.467   4.764   4.713 -0.1836  0.3929  0.5620
   88SOPE  H18R 8325   1.499   4.658   4.710  0.6365  0.6583 -0.4836
   88SOPE  H18S 8326   1.359   4.768   4.688  0.3431 -0.5239 -2.0992
   88SOPE  H18T 8327   1.490   4.790   4.819 -0.7074  0.6783  0.6091
   88SOPE   C33 8328   1.442   4.697   3.216 -0.4481  0.6611  0.1817
   88SOPE   H3X 8329   1.444   4.791   3.157  1.5659  0.2453 -0.4819
   88SOPE   H3Y 8330   1.490   4.723   3.313 -0.9110 -1.4795  1.0401
   88SOPE   C34 8331   1.297   4.665   3.247 -0.4688  0.1238  0.5674
   88SOPE   H4X 8332   1.285   4.559   3.278  0.7316  0.1028  1.0220
   88SOPE   H4Y 8333   1.238   4.678   3.154 -0.3872 -3.1145 -0.0338
   88SOPE   C35 8334   1.227   4.734   3.362 -0.4478  0.1725 -0.5158
   88SOPE   H5X 8335   1.215   4.843   3.349 -0.7530  0.4671  1.7762
   88SOPE   H5Y 8336   1.305   4.715   3.439  0.7483  0.1099 -1.6994
   88SOPE   C36 8337   1.093   4.663   3.405 -0.1461  0.1590 -0.1922
   88SOPE   H6X 8338   1.105   4.554   3.421  1.5644  0.1821 -1.0939
   88SOPE   H6Y 8339   1.019   4.664   3.322 -0.5872 -2.4065  0.0756
   88SOPE   C37 8340   1.030   4.730   3.530  0.0881  0.3543  0.7423
   88SOPE   H7X 8341   1.018   4.838   3.509 -0.9166  0.0195 -0.6006
   88SOPE   H7Y 8342   1.101   4.706   3.612 -1.0082  1.3460  2.0206
   88SOPE   C38 8343   0.897   4.669   3.582  0.1796  0.2896 -0.5983
   88SOPE   H8X 8344   0.914   4.566   3.619  1.3152  0.8497  0.5132
   88SOPE   H8Y 8345   0.825   4.656   3.498  0.9774 -3.2398 -0.8989
   88SOPE   C39 8346   0.834   4.734   3.706 -0.1335 -1.0260  0.3836
   88SOPE   H9X 8347   0.798   4.838   3.690  1.2955 -0.5882 -0.1765
   88SOPE   H9Y 8348   0.920   4.760   3.772  1.3920  0.6340 -2.0850
   88SOPE  C310 8349   0.737   4.638   3.784 -0.0660  0.2549  0.2043
   88SOPE  H10X 8350   0.793   4.551   3.824 -0.9489 -0.8479 -0.8566
   88SOPE  H10Y 8351   0.666   4.589   3.713  0.1567 -0.2948  0.3573
   88SOPE  C311 8352   0.650   4.719   3.885  0.0530 -0.7795 -0.2951
   88SOPE  H11X 8353   0.627   4.820   3.845  0.0581 -0.4710  0.4481
   88SOPE  H11Y 8354   0.724   4.725   3.968 -1.0579  1.4247  0.6164
   88SOPE  C312 8355   0.513   4.649   3.909 -0.1743  0.2614  0.9733
   88SOPE  H12X 8356   0.514   4.543   3.878  0.3684  0.2375  1.0584
   88SOPE  H12Y 8357   0.430   4.699   3.855 -0.3213 -0.8436  0.1359
   88SOPE  C313 8358   0.467   4.660   4.055 -0.8663 -0.6275  0.0912
   88SOPE  H13X 8359   0.359   4.637   4.057 -1.0686  0.3191  0.4691
   88SOPE  H13Y 8360   0.487   4.764   4.089 -1.5805 -0.7420  0.8959
   88SOPE  C314 8361   0.546   4.558   4.142  0.2212 -0.5106 -0.2063
   88SOPE  H14X 8362   0.652   4.588   4.124 -0.1739  0.5063 -0.9019
   88SOPE  H14Y 8363   0.525   4.450   4.128 -2.2823 -0.1880  0.6398
   88SOPE  C315 8364   0.534   4.582   4.294  0.0903  0.5783  0.4615
   88SOPE  H15X 8365   0.443   4.536   4.337 -0.0923  0.4185 -0.0988
   88SOPE  H15Y 8366   0.537   4.693   4.302 -1.4690  0.8332 -1.6412
   88SOPE  C316 8367   0.652   4.515   4.365 -0.3074 -0.4525  0.1276
   88SOPE  H16X 8368   0.752   4.559   4.345 -0.2177 -0.3318  0.8099
   88SOPE  H16Y 8369   0.662   4.411   4.327 -0.1844 -1.7443  3.4306
   88SOPE  C317 8370   0.622   4.518   4.518  0.0196 -1.2932 -0.4522
   88SOPE  H17X 8371   0.513   4.501   4.529 -0.8000  1.9037 -2.2788
   88SOPE  H17Y 8372   0.632   4.620   4.560 -2.3994 -1.2446  0.1676
   88SOPE  C318 8373   0.726   4.434   4.583  0.5995  0.3467  0.0510
   88SOPE  H18X 8374   0.825   4.482   4.569 -0.0900  1.1409 -2.8183
   88SOPE  H18Y 8375   0.731   4.329   4.546  2.1903  0.5648 -0.4520
   88SOPE  H18Z 8376   0.713   4.431   4.693 -0.6659  1.0940 -0.0571
   89SAPC     N 8377   5.906   0.038   7.463 -0.3799  0.0510  0.1308
   89SAPC   C12 8378   5.889  -0.114   7.449 -0.3829  0.5164 -0.1262
   89SAPC  H12A 8379   5.818  -0.150   7.521 -0.7259  0.8007 -0.3192
   89SAPC  H12B 8380   5.987  -0.157   7.464 -0.7569 -0.6975 -0.9457
   89SAPC   C13 8381   6.009   0.073   7.366 -0.0243 -0.6840  1.0956
   89SAPC  H13A 8382   6.106   0.030   7.387  0.7763  0.1403 -0.6680
   89SAPC  H13B 8383   5.977   0.021   7.276 -1.0995  0.7781  0.5874
   89SAPC  H13C 8384   6.013   0.178   7.341 -2.3987 -0.4496  1.4283
   89SAPC   C14 8385   5.782   0.108   7.430  0.4454  0.5970 -0.1997
   89SAPC  H14A 8386   5.701   0.073   7.493 -0.7918  1.2223 -1.3849
   89SAPC  H14B 8387   5.788   0.215   7.439 -0.3117  0.6326  0.0036
   89SAPC  H14C 8388   5.739   0.082   7.334 -0.7487 -1.9016  0.9072
   89SAPC   C15 8389   5.943   0.077   7.607 -0.6995 -0.1750 -0.4501
   89SAPC  H15A 8390   5.952   0.185   7.607  3.5720 -0.3527 -0.9192
   89SAPC  H15B 8391   5.867   0.047   7.677  0.7751 -1.2456  0.7340
   89SAPC  H15C 8392   6.041   0.042   7.634 -0.7426 -0.0864 -0.1809
   89SAPC   C11 8393   5.833  -0.175   7.321  0.4144  0.1665 -0.4646
   89SAPC  H11A 8394   5.743  -0.113   7.299 -1.0639 -1.9254 -0.6309
   89SAPC  H11B 8395   5.807  -0.278   7.352 -2.8601  1.1383  0.4266
   89SAPC     P 8396   5.886  -0.203   7.070 -0.0858 -0.1466  0.3672
   89SAPC   O13 8397   5.867  -0.350   7.059 -0.2815  0.5195  0.6917
   89SAPC   O14 8398   5.770  -0.119   7.038  0.4259 -0.3037  0.4007
   89SAPC   O12 8399   5.932  -0.166   7.215  0.1499 -0.1150  0.0328
   89SAPC   O11 8400   6.009  -0.160   6.978 -0.5312  0.0695 -1.3705
   89SAPC    C1 8401   6.114  -0.072   7.028  0.3048  0.2541  0.3310
   89SAPC    HA 8402   6.078   0.026   7.067 -0.6962  0.1380 -0.2483
   89SAPC    HB 8403   6.179  -0.122   7.102  4.0711  1.3582 -1.9705
   89SAPC    C2 8404   6.217  -0.054   6.912  0.3571 -0.9006  0.2911
   89SAPC    HS 8405   6.300   0.004   6.957 -0.7357 -0.3354  1.6505
   89SAPC   O21 8406   6.149   0.015   6.797 -0.6383 -0.0258 -0.9838
   89SAPC   C21 8407   6.143   0.146   6.810 -0.2787  0.6163  0.0920
   89SAPC   O22 8408   6.197   0.215   6.894 -0.3735 -0.3448 -0.4648
   89SAPC   C22 8409   6.058   0.202   6.702 -0.6095 -0.0965 -0.0574
   89SAPC   H2R 8410   6.050   0.141   6.610 -0.8003  1.6218 -1.2351
   89SAPC   H2S 8411   5.957   0.199   6.748  0.9323  0.5555  3.6785
   89SAPC    C3 8412   6.273  -0.194   6.881 -0.6054  0.3022 -0.5016
   89SAPC    HX 8413   6.189  -0.256   6.842  0.4795 -2.9662  1.8846
   89SAPC    HY 8414   6.299  -0.236   6.980 -0.5471  2.8018  0.6134
   89SAPC   O31 8415   6.382  -0.187   6.784 -0.1545  0.0400  0.4527
   89SAPC   C31 8416   6.505  -0.173   6.824 -0.5422 -0.4897 -0.0070
   89SAPC   O32 8417   6.540  -0.137   6.937 -0.1525  0.0183 -0.2271
   89SAPC   C32 8418   6.604  -0.199   6.712  0.3065  0.4116  0.2083
   89SAPC   H2X 8419   6.578  -0.127   6.632  1.8098  0.4615 -0.2768
   89SAPC   H2Y 8420   6.599  -0.308   6.689  1.0502  0.9207 -2.7234
   89SAPC   C23 8421   6.075   0.349   6.671  0.4100 -0.0795  0.3290
   89SAPC   H3R 8422   6.168   0.372   6.615 -0.7299 -2.1195 -2.6790
   89SAPC   H3S 8423   6.063   0.411   6.762 -2.8037  1.4849 -1.0223
   89SAPC   C24 8424   5.959   0.390   6.571 -0.0930 -0.3785 -0.3849
   89SAPC   H4R 8425   5.863   0.395   6.627  1.7173 -0.3837  2.9683
   89SAPC   H4S 8426   5.946   0.308   6.497  0.0087 -1.0120  0.2853
   89SAPC   C25 8427   5.975   0.525   6.512  0.3185  0.1210  0.1968
   89SAPC   H5R 8428   5.946   0.616   6.567  0.0006 -0.8068  1.6238
   89SAPC   C26 8429   6.044   0.550   6.397  0.7563  0.8766  0.3576
   89SAPC   H6R 8430   6.054   0.653   6.360 -2.4316  0.9080 -0.7233
   89SAPC   C27 8431   6.110   0.444   6.317  0.2894 -0.5504  0.0366
   89SAPC   H7R 8432   6.051   0.350   6.304  0.4430 -0.6937  0.3695
   89SAPC   H7S 8433   6.196   0.410   6.378 -0.1082  0.6905  1.3539
   89SAPC   C28 8434   6.171   0.482   6.185  0.3807  0.1806  0.5746
   89SAPC   H8R 8435   6.261   0.544   6.187  0.4439  0.2081 -1.3562
   89SAPC   C29 8436   6.132   0.451   6.059  0.2397  0.1952 -0.1477
   89SAPC   H9R 8437   6.188   0.488   5.972 -1.2237 -2.1519 -2.2546
   89SAPC  C210 8438   6.014   0.366   6.010 -0.4721 -0.5850 -0.2289
   89SAPC  H10R 8439   5.966   0.317   6.098  0.1455  2.6737  2.0999
   89SAPC  H10S 8440   6.064   0.282   5.957  1.8836  0.4028  0.2843
   89SAPC  C211 8441   5.913   0.443   5.919 -0.9951 -0.5248  0.6250
   89SAPC  H11R 8442   5.828   0.492   5.969 -0.4246  1.3683 -0.1553
   89SAPC  C212 8443   5.927   0.456   5.788 -0.2041  0.0697 -0.3028
   89SAPC  H12R 8444   5.846   0.498   5.726  0.5748  0.2286 -1.2356
   89SAPC  C213 8445   6.021   0.379   5.703 -0.1074 -0.3750 -0.2541
   89SAPC  H13R 8446   6.108   0.338   5.760  0.6617  1.2686 -0.1793
   89SAPC  H13S 8447   6.072   0.455   5.640 -1.1803 -0.2577 -1.0058
   89SAPC  C214 8448   5.963   0.270   5.625 -0.1365  0.3456  0.5809
   89SAPC  H14R 8449   5.957   0.176   5.682  0.2270  0.0484  0.1289
   89SAPC  C215 8450   5.955   0.261   5.493 -0.5074 -0.1885 -0.1966
   89SAPC  H15R 8451   5.899   0.176   5.451 -1.0279 -0.2358  0.5741
   89SAPC  C216 8452   5.990   0.375   5.399 -0.1839 -1.3746  1.7119
   89SAPC  H16R 8453   5.978   0.472   5.452  2.6496  0.6817 -0.9926
   89SAPC  H16S 8454   5.919   0.388   5.314 -0.5976  1.2149  2.3567
   89SAPC  C217 8455   6.134   0.372   5.341  0.1607 -0.2560 -0.7384
   89SAPC  H17R 8456   6.212   0.386   5.418  0.1046  0.4862 -0.8049
   89SAPC  H17S 8457   6.157   0.462   5.280 -1.3486 -0.2454 -1.3384
   89SAPC  C218 8458   6.159   0.245   5.259  0.2058 -0.5041  0.3510
   89SAPC  H18R 8459   6.090   0.241   5.172 -1.3078 -0.2288  1.4894
   89SAPC  H18S 8460   6.157   0.157   5.325  2.1761 -1.6552 -1.0256
   89SAPC  C219 8461   6.303   0.250   5.209  0.8284  0.0130 -0.1831
   89SAPC  H19R 8462   6.324   0.148   5.173  0.8850 -0.9023  2.2725
   89SAPC  H19S 8463   6.377   0.276   5.288 -0.9346 -1.8871  2.2410
   89SAPC  C220 8464   6.334   0.350   5.098 -0.8256  0.4793  0.2286
   89SAPC  H20R 8465   6.317   0.458   5.118  2.0668  1.4934 -2.1202
   89SAPC  H20S 8466   6.261   0.332   5.017 -2.1876 -1.5862  1.8001
   89SAPC  H20T 8467   6.437   0.325   5.066 -1.8671 -0.0396 -3.0819
   89SAPC   C33 8468   6.744  -0.165   6.772  0.0989  0.4014  0.2215
   89SAPC   H3X 8469   6.763  -0.235   6.857 -0.0607 -1.0672 -0.9127
   89SAPC   H3Y 8470   6.750  -0.063   6.817 -2.9518 -0.5815  3.2979
   89SAPC   C34 8471   6.854  -0.189   6.666 -0.1256  0.4288 -0.0541
   89SAPC   H4X 8472   6.829  -0.285   6.617 -2.4070  1.0926 -0.3075
   89SAPC   H4Y 8473   6.952  -0.185   6.717 -0.0217  1.7778 -0.3023
   89SAPC   C35 8474   6.843  -0.078   6.560  0.1637 -0.0233 -0.1693
   89SAPC   H5X 8475   6.859   0.026   6.596 -1.1626  0.8949 -2.0692
   89SAPC   H5Y 8476   6.734  -0.073   6.537 -0.2632 -0.4722  1.6118
   89SAPC   C36 8477   6.917  -0.111   6.433 -1.0056 -0.3353  0.0824
   89SAPC   H6X 8478   6.915  -0.029   6.359 -0.3487 -0.8237 -0.4917
   89SAPC   H6Y 8479   6.875  -0.205   6.391  0.0562 -1.4121  1.3249
   89SAPC   C37 8480   7.071  -0.151   6.448  0.3297  0.3854 -0.3421
   89SAPC   H7X 8481   7.072  -0.227   6.529  3.8147 -0.3096 -0.8585
   89SAPC   H7Y 8482   7.130  -0.067   6.492  4.1661 -2.7768  1.1469
   89SAPC   C38 8483   7.136  -0.209   6.320 -0.4035  0.8270  0.3090
   89SAPC   H8X 8484   7.083  -0.303   6.292  0.5847  0.3643 -0.0294
   89SAPC   H8Y 8485   7.241  -0.234   6.342 -0.5571  0.0137  0.1469
   89SAPC   C39 8486   7.131  -0.106   6.203 -1.0691 -0.4596 -0.5806
   89SAPC   H9X 8487   7.185  -0.017   6.243 -1.3435 -0.4006 -0.3351
   89SAPC   H9Y 8488   7.023  -0.082   6.191 -1.9075 -3.1281  0.8592
   89SAPC  C310 8489   7.199  -0.151   6.078  0.2218 -0.2427  0.3445
   89SAPC  H10X 8490   7.156  -0.248   6.045  1.9191 -0.3900 -1.6431
   89SAPC  H10Y 8491   7.304  -0.185   6.095  0.4295  0.1279 -0.1527
   89SAPC  C311 8492   7.199  -0.036   5.970  0.9170  0.1628  0.1954
   89SAPC  H11X 8493   7.235   0.064   6.000 -1.4321  1.8045 -2.0704
   89SAPC  H11Y 8494   7.092  -0.026   5.945  1.0286 -0.5293 -0.6180
   89SAPC  C312 8495   7.277  -0.076   5.849 -0.3303 -0.7551  0.4140
   89SAPC  H12X 8496   7.246  -0.176   5.810 -0.0629  0.0228 -1.9285
   89SAPC  H12Y 8497   7.381  -0.074   5.890  0.0020  2.2858 -0.3872
   89SAPC  C313 8498   7.257   0.032   5.737 -0.5836 -0.1524  0.4180
   89SAPC  H13X 8499   7.303   0.127   5.772  1.7562  0.1825 -3.1355
   89SAPC  H13Y 8500   7.146   0.033   5.728 -0.6219 -0.5084  0.8215
   89SAPC  C314 8501   7.326  -0.003   5.607 -0.0837 -0.5582  0.1490
   89SAPC  H14X 8502   7.298  -0.101   5.564 -0.3993 -0.9429  1.2045
   89SAPC  H14Y 8503   7.437  -0.008   5.617 -0.2069 -1.1477  1.5178
   89SAPC  C315 8504   7.299   0.095   5.495  0.1917 -0.0640 -0.8874
   89SAPC  H15X 8505   7.317   0.200   5.528 -0.7091  0.1955 -1.2186
   89SAPC  H15Y 8506   7.191   0.081   5.475  0.5683 -2.2657 -1.6781
   89SAPC  C316 8507   7.352   0.056   5.350  0.3074  0.3188 -0.2410
   89SAPC  H16X 8508   7.295   0.118   5.279 -0.9537 -0.5109  0.0082
   89SAPC  H16Y 8509   7.332  -0.051   5.327 -0.5554  0.3306  0.4101
   89SAPC  C317 8510   7.496   0.086   5.341  0.2789 -0.7753 -0.1799
   89SAPC  H17X 8511   7.550   0.049   5.431  0.5681 -0.5298 -0.2509
   89SAPC  H17Y 8512   7.509   0.196   5.336 -1.5205 -0.5540 -0.4384
   89SAPC  C318 8513   7.565   0.024   5.219 -0.2362 -0.0113  0.7282
   89SAPC  H18X 8514   7.556  -0.086   5.233 -0.4721 -0.4450 -2.1793
   89SAPC  H18Y 8515   7.668   0.066   5.219 -0.5984  0.9980  3.1085
   89SAPC  H18Z 8516   7.522   0.054   5.121  1.2006 -0.3205 -0.0372
   90SAPC     N 8517   5.176   2.066   6.954  0.2517 -0.6359  0.0814
   90SAPC   C12 8518   5.167   2.146   6.829  0.7720 -1.1827 -0.1621
   90SAPC  H12A 8519   5.228   2.102   6.751  1.1211 -2.5473  0.8511
   90SAPC  H12B 8520   5.205   2.247   6.841  0.6305 -1.0617 -0.7078
   90SAPC   C13 8521   5.138   2.146   7.081 -0.7517 -1.2331 -0.0835
   90SAPC  H13A 8522   5.035   2.179   7.072 -0.0158  1.0209 -1.1591
   90SAPC  H13B 8523   5.139   2.083   7.169  1.2966 -0.2472  0.6540
   90SAPC  H13C 8524   5.199   2.235   7.091  0.6477 -2.2903  1.1030
   90SAPC   C14 8525   5.097   1.944   6.945  0.1728  0.9104 -0.4085
   90SAPC  H14A 8526   5.123   1.881   6.861  0.3799 -0.0605  0.3756
   90SAPC  H14B 8527   5.116   1.881   7.030 -1.2529  1.6395  0.5030
   90SAPC  H14C 8528   4.992   1.966   6.931  0.4081  0.5879 -3.3347
   90SAPC   C15 8529   5.320   2.027   6.972 -0.2718 -0.3801  0.0480
   90SAPC  H15A 8530   5.347   1.989   7.069 -3.4179  2.4630  2.2635
   90SAPC  H15B 8531   5.350   1.952   6.901  0.5138  0.0660 -0.1087
   90SAPC  H15C 8532   5.394   2.104   6.955  0.3827 -1.1224 -0.4913
   90SAPC   C11 8533   5.033   2.179   6.767  0.4310  0.1318 -0.5817
   90SAPC  H11A 8534   4.980   2.083   6.752  0.5754 -0.2941  1.3108
   90SAPC  H11B 8535   5.044   2.216   6.663 -3.1790  0.3766 -0.9960
   90SAPC     P 8536   4.962   2.420   6.823  0.4397 -0.3435  0.2763
   90SAPC   O13 8537   4.904   2.496   6.937 -0.0130 -0.1994  0.4093
   90SAPC   O14 8538   5.091   2.469   6.773  0.6590 -0.1526 -0.4220
   90SAPC   O12 8539   4.953   2.264   6.853 -0.1235  0.0197 -0.9019
   90SAPC   O11 8540   4.867   2.434   6.708  0.2488  0.1281 -0.1990
   90SAPC    C1 8541   4.746   2.356   6.704  0.2042 -0.9270  0.6063
   90SAPC    HA 8542   4.779   2.254   6.673  1.6393 -0.1414 -0.5945
   90SAPC    HB 8543   4.687   2.350   6.798  1.0327 -2.0646  1.0801
   90SAPC    C2 8544   4.652   2.394   6.585  0.0103  0.2037 -0.0791
   90SAPC    HS 8545   4.589   2.306   6.558 -1.4465  1.2624 -0.1973
   90SAPC   O21 8546   4.734   2.421   6.464  0.1816  0.2720  0.0099
   90SAPC   C21 8547   4.820   2.328   6.426  0.2153 -0.5451 -0.2377
   90SAPC   O22 8548   4.817   2.213   6.448  0.1398  0.0076  0.2545
   90SAPC   C22 8549   4.937   2.388   6.344  0.3749  0.0086 -0.1047
   90SAPC   H2R 8550   4.999   2.455   6.407  1.8219 -1.1523 -0.2375
   90SAPC   H2S 8551   4.999   2.307   6.301  0.7028  0.1470  0.1093
   90SAPC    C3 8552   4.566   2.516   6.615  0.6653  1.0833  1.0939
   90SAPC    HX 8553   4.636   2.583   6.669  0.3561 -0.1067  3.0912
   90SAPC    HY 8554   4.479   2.485   6.678  1.0537 -1.6887  0.4091
   90SAPC   O31 8555   4.514   2.562   6.486 -0.3126  0.1629  0.1205
   90SAPC   C31 8556   4.537   2.694   6.462 -0.3277  0.3177  0.5136
   90SAPC   O32 8557   4.582   2.780   6.534  0.1997  0.0178  0.1226
   90SAPC   C32 8558   4.485   2.714   6.313 -0.1140  0.0382 -0.4050
   90SAPC   H2X 8559   4.385   2.757   6.336  1.1408  1.2301  3.6940
   90SAPC   H2Y 8560   4.476   2.620   6.254  2.6622  0.6679 -2.0177
   90SAPC   C23 8561   4.867   2.478   6.239  0.6535  0.5075 -0.1570
   90SAPC   H3R 8562   4.943   2.531   6.178  1.2134 -1.0528 -0.8778
   90SAPC   H3S 8563   4.805   2.564   6.273  2.5573  2.1009 -0.5783
   90SAPC   C24 8564   4.778   2.398   6.143  0.3489  0.5705  0.1801
   90SAPC   H4R 8565   4.719   2.474   6.087 -0.8897 -0.5957 -0.1669
   90SAPC   H4S 8566   4.695   2.340   6.189  0.8799  0.4038  0.9407
   90SAPC   C25 8567   4.855   2.311   6.043  0.3611  0.4443 -1.0216
   90SAPC   H5R 8568   4.872   2.213   6.092 -1.6275  0.3158 -0.5208
   90SAPC   C26 8569   4.896   2.344   5.924 -0.4286  0.1096  0.1357
   90SAPC   H6R 8570   4.930   2.268   5.853 -1.0283 -0.4815  0.4637
   90SAPC   C27 8571   4.874   2.479   5.863  0.0245  0.6569  0.3269
   90SAPC   H7R 8572   4.956   2.496   5.790 -1.9956 -0.3447 -2.3269
   90SAPC   H7S 8573   4.898   2.558   5.938 -0.3087 -0.3502  1.5106
   90SAPC   C28 8574   4.742   2.512   5.801  0.3481  0.2331  0.7995
   90SAPC   H8R 8575   4.656   2.502   5.869  0.1273  2.2637  0.8615
   90SAPC   C29 8576   4.716   2.505   5.670 -0.0727  0.3034  0.8620
   90SAPC   H9R 8577   4.612   2.525   5.641 -0.0115 -1.0649 -0.4755
   90SAPC  C210 8578   4.826   2.482   5.569  0.6832 -0.4236  0.0151
   90SAPC  H10R 8579   4.920   2.535   5.596  1.6692 -1.2107 -1.7304
   90SAPC  H10S 8580   4.794   2.534   5.477  2.2565 -1.0077 -0.9043
   90SAPC  C211 8581   4.851   2.335   5.536  0.6225  0.2104 -0.2230
   90SAPC  H11R 8582   4.811   2.263   5.608 -0.4862  0.8952 -0.1273
   90SAPC  C212 8583   4.895   2.288   5.417  0.5879 -0.0252  0.1111
   90SAPC  H12R 8584   4.912   2.179   5.407 -0.5168 -0.1936 -0.0939
   90SAPC  C213 8585   4.935   2.376   5.303 -0.3091  0.4356  0.2705
   90SAPC  H13R 8586   5.013   2.447   5.337  0.0205  0.2231 -0.0268
   90SAPC  H13S 8587   4.847   2.439   5.278  0.3694  2.4732  2.6708
   90SAPC  C214 8588   4.987   2.302   5.181 -0.3575  0.3993  0.4359
   90SAPC  H14R 8589   4.931   2.208   5.163  0.1652  0.0892  0.4031
   90SAPC  C215 8590   5.060   2.366   5.083 -0.1933  1.0964  0.6290
   90SAPC  H15R 8591   5.085   2.309   4.993 -0.5950  1.4372  0.3006
   90SAPC  C216 8592   5.132   2.505   5.095  0.2845 -0.0862 -0.3600
   90SAPC  H16R 8593   5.093   2.567   5.178  0.0974 -1.7410  0.8457
   90SAPC  H16S 8594   5.116   2.546   4.993 -2.4178 -0.8201 -0.3062
   90SAPC  C217 8595   5.283   2.488   5.121  0.7023  0.1473 -0.0324
   90SAPC  H17R 8596   5.302   2.427   5.212 -0.8318  0.0833  0.2724
   90SAPC  H17S 8597   5.316   2.593   5.138  0.9722 -0.2389  2.1649
   90SAPC  C218 8598   5.366   2.429   5.008  0.3476 -0.4989  0.3297
   90SAPC  H18R 8599   5.347   2.320   4.996  0.8440 -0.5970  0.4458
   90SAPC  H18S 8600   5.471   2.436   5.043  0.4440 -1.1525  0.1848
   90SAPC  C219 8601   5.355   2.503   4.874 -0.0376  0.2360  0.3040
   90SAPC  H19R 8602   5.322   2.609   4.880 -1.4280 -0.1251 -0.4587
   90SAPC  H19S 8603   5.268   2.462   4.817  1.1264  1.9211 -2.9849
   90SAPC  C220 8604   5.477   2.485   4.783 -0.2045  0.3283 -0.1013
   90SAPC  H20R 8605   5.459   2.528   4.682 -0.7527 -0.9698 -0.5684
   90SAPC  H20S 8606   5.518   2.384   4.764 -1.5266 -0.2130 -0.1867
   90SAPC  H20T 8607   5.556   2.540   4.838 -1.2874 -0.5537  2.4671
   90SAPC   C33 8608   4.579   2.819   6.242 -0.3687 -0.3797 -0.5131
   90SAPC   H3X 8609   4.677   2.767   6.237 -1.2261 -2.3539  1.3398
   90SAPC   H3Y 8610   4.606   2.908   6.303  0.8028  0.7063 -2.5098
   90SAPC   C34 8611   4.526   2.861   6.101 -0.3056  0.7259 -0.0036
   90SAPC   H4X 8612   4.421   2.895   6.116 -0.3398 -0.4698  3.2221
   90SAPC   H4Y 8613   4.524   2.773   6.032 -0.7903  0.3502  0.4778
   90SAPC   C35 8614   4.610   2.975   6.040 -1.2716 -0.3386  0.5526
   90SAPC   H5X 8615   4.708   2.926   6.024 -1.5378 -0.4260 -1.0278
   90SAPC   H5Y 8616   4.620   3.052   6.118  2.3282  0.0691 -0.1392
   90SAPC   C36 8617   4.562   3.043   5.910 -0.1451  0.7644 -0.5456
   90SAPC   H6X 8618   4.631   3.121   5.872  2.5502 -1.4104 -0.4427
   90SAPC   H6Y 8619   4.464   3.095   5.918 -2.0942 -2.5620 -1.0221
   90SAPC   C37 8620   4.538   2.940   5.803  0.4758  0.5681  0.0341
   90SAPC   H7X 8621   4.476   2.854   5.837  2.0988 -1.5790 -2.1000
   90SAPC   H7Y 8622   4.633   2.887   5.785 -0.1057 -0.1456 -1.0822
   90SAPC   C38 8623   4.477   2.995   5.672 -1.1691  0.2986  0.2404
   90SAPC   H8X 8624   4.369   3.014   5.684 -0.8781  1.6760  0.8742
   90SAPC   H8Y 8625   4.480   2.912   5.598 -2.7050  0.9866 -0.6406
   90SAPC   C39 8626   4.536   3.118   5.612 -0.4597 -0.0419  0.6735
   90SAPC   H9X 8627   4.643   3.120   5.643  0.1275  1.6655 -1.2964
   90SAPC   H9Y 8628   4.478   3.201   5.657 -0.7058  0.2477 -0.1777
   90SAPC  C310 8629   4.527   3.132   5.466 -0.6335  0.3292 -0.2084
   90SAPC  H10X 8630   4.420   3.136   5.436 -0.6234  0.4790 -0.2234
   90SAPC  H10Y 8631   4.578   3.054   5.405  0.7446  0.9850  0.0647
   90SAPC  C311 8632   4.596   3.256   5.421 -0.4554 -0.4753 -0.1301
   90SAPC  H11X 8633   4.696   3.271   5.465 -0.5577  2.9327 -0.7339
   90SAPC  H11Y 8634   4.543   3.351   5.445  1.7257  0.5982  0.7281
   90SAPC  C312 8635   4.622   3.271   5.271 -0.5007  0.6867  0.1700
   90SAPC  H12X 8636   4.704   3.202   5.240 -1.2320 -1.0018  1.7783
   90SAPC  H12Y 8637   4.674   3.367   5.253  3.1388 -0.7795  1.7084
   90SAPC  C313 8638   4.497   3.244   5.190  0.2339  0.3970  0.3531
   90SAPC  H13X 8639   4.422   3.322   5.216 -1.4930 -0.6379 -1.3075
   90SAPC  H13Y 8640   4.459   3.141   5.207  3.0060 -0.7201  0.3388
   90SAPC  C314 8641   4.540   3.270   5.034  0.8271 -0.4379  0.2890
   90SAPC  H14X 8642   4.610   3.187   5.012 -0.1157 -0.4875 -3.1403
   90SAPC  H14Y 8643   4.595   3.366   5.034 -0.0151  0.0676 -0.8951
   90SAPC  C315 8644   4.417   3.254   4.940  0.0953  0.3330  0.1790
   90SAPC  H15X 8645   4.340   3.329   4.970  0.0282 -0.0831  1.0825
   90SAPC  H15Y 8646   4.363   3.157   4.948  0.3281  0.1073 -0.8763
   90SAPC  C316 8647   4.444   3.282   4.791 -0.7725  0.0756  0.1746
   90SAPC  H16X 8648   4.514   3.199   4.764 -1.3240 -1.1235  2.2480
   90SAPC  H16Y 8649   4.503   3.376   4.784 -0.4545 -0.1336 -0.0155
   90SAPC  C317 8650   4.323   3.275   4.689 -0.2001  0.3561  0.1825
   90SAPC  H17X 8651   4.291   3.168   4.686  0.5210  0.0922  1.3842
   90SAPC  H17Y 8652   4.365   3.307   4.591  2.1666 -0.2584  0.9479
   90SAPC  C318 8653   4.201   3.363   4.727  0.0937  0.2568 -0.1441
   90SAPC  H18X 8654   4.118   3.344   4.656  0.9382 -0.6782 -0.9047
   90SAPC  H18Y 8655   4.206   3.473   4.715 -2.7039  0.6170  1.0930
   90SAPC  H18Z 8656   4.161   3.339   4.828 -0.4709  2.9627  0.3442
   91SAPC     N 8657   1.249   3.274   6.917  0.0153  0.6417 -0.0185
   91SAPC   C12 8658   1.127   3.296   6.831 -0.6911  0.3799  0.6327
   91SAPC  H12A 8659   1.054   3.353   6.887  0.4417  1.2206  1.2863
   91SAPC  H12B 8660   1.080   3.199   6.821  0.1455  0.0052  0.3099
   91SAPC   C13 8661   1.219   3.196   7.045 -0.0765 -0.7190  0.8621
   91SAPC  H13A 8662   1.121   3.227   7.076  0.3984  1.2439  0.5423
   91SAPC  H13B 8663   1.219   3.089   7.032 -2.0980 -0.4702 -2.3347
   91SAPC  H13C 8664   1.288   3.236   7.117 -0.9492 -0.3909  1.5261
   91SAPC   C14 8665   1.356   3.210   6.843  0.4139 -0.4637  0.3512
   91SAPC  H14A 8666   1.445   3.203   6.904  1.9799 -0.8140 -1.8169
   91SAPC  H14B 8667   1.329   3.113   6.804 -2.1301  0.9904 -1.8519
   91SAPC  H14C 8668   1.393   3.266   6.758 -1.0423 -0.9101 -0.6102
   91SAPC   C15 8669   1.301   3.408   6.959 -0.1369 -0.8396 -0.2256
   91SAPC  H15A 8670   1.397   3.402   7.010  0.1559 -3.9811 -1.0010
   91SAPC  H15B 8671   1.320   3.462   6.867 -0.0019 -1.5175 -0.5999
   91SAPC  H15C 8672   1.224   3.460   7.014 -1.6318 -2.4176 -0.7723
   91SAPC   C11 8673   1.134   3.350   6.687 -0.3531  0.7263 -0.3238
   91SAPC  H11A 8674   1.033   3.354   6.642 -0.3056 -1.0014 -0.6647
   91SAPC  H11B 8675   1.190   3.275   6.626 -1.9064  0.1056 -1.0332
   91SAPC     P 8676   1.338   3.516   6.602  0.4694 -0.0446  0.4110
   91SAPC   O13 8677   1.330   3.659   6.554 -0.5760  0.4390  0.1855
   91SAPC   O14 8678   1.451   3.488   6.692 -0.6255  0.3989 -0.5312
   91SAPC   O12 8679   1.204   3.474   6.675 -0.0036 -0.1748 -0.0316
   91SAPC   O11 8680   1.353   3.415   6.480 -0.6223 -0.5959  0.5470
   91SAPC    C1 8681   1.248   3.408   6.376 -0.2845  0.2843  0.1840
   91SAPC    HA 8682   1.260   3.312   6.321 -1.0530  0.2243  0.1102
   91SAPC    HB 8683   1.150   3.415   6.427 -0.0568 -0.0764  0.6743
   91SAPC    C2 8684   1.256   3.519   6.271  1.4269 -0.5572  0.3987
   91SAPC    HS 8685   1.240   3.617   6.322 -1.6508  0.7881 -2.6950
   91SAPC   O21 8686   1.158   3.492   6.166 -0.0904 -0.3412  0.0109
   91SAPC   C21 8687   1.094   3.596   6.118 -0.0408  0.8088  1.1520
   91SAPC   O22 8688   1.121   3.711   6.148 -0.1311 -0.2035  0.2941
   91SAPC   C22 8689   0.963   3.549   6.044 -0.7649  0.9454  1.2782
   91SAPC   H2R 8690   0.902   3.498   6.121 -1.4129 -1.3042 -0.6335
   91SAPC   H2S 8691   0.905   3.635   6.005 -2.4170 -0.0178  1.5326
   91SAPC    C3 8692   1.399   3.536   6.217 -0.4880  0.6066 -1.4758
   91SAPC    HX 8693   1.438   3.436   6.188  1.6009  0.8364  0.2901
   91SAPC    HY 8694   1.475   3.563   6.294  1.0777 -0.9497 -2.3945
   91SAPC   O31 8695   1.402   3.619   6.098 -0.3602  0.4227 -0.0411
   91SAPC   C31 8696   1.446   3.741   6.118  0.2106  0.0860 -0.6886
   91SAPC   O32 8697   1.473   3.788   6.229  0.5186  0.6236  0.2074
   91SAPC   C32 8698   1.485   3.807   5.984  0.4148 -0.0739 -0.1592
   91SAPC   H2X 8699   1.562   3.882   6.009  1.0291 -0.6822 -0.1828
   91SAPC   H2Y 8700   1.390   3.853   5.949  0.0934 -1.1421 -0.7529
   91SAPC   C23 8701   0.993   3.454   5.933 -0.0626  0.0401 -0.3013
   91SAPC   H3R 8702   1.057   3.373   5.973  1.6298  1.8497  0.7829
   91SAPC   H3S 8703   1.040   3.507   5.847 -3.9996  4.0788 -0.3069
   91SAPC   C24 8704   0.872   3.384   5.878 -0.9196 -0.3600 -1.1714
   91SAPC   H4R 8705   0.843   3.292   5.934  0.1827 -0.5070 -0.8222
   91SAPC   H4S 8706   0.900   3.333   5.783 -0.6545 -1.1040 -0.6985
   91SAPC   C25 8707   0.750   3.468   5.851  0.1304  0.0527  0.0003
   91SAPC   H5R 8708   0.682   3.489   5.935  0.6995  0.3941  0.3882
   91SAPC   C26 8709   0.720   3.552   5.744 -0.0985  0.4020 -0.5397
   91SAPC   H6R 8710   0.629   3.614   5.748  1.0326  2.1535 -1.1147
   91SAPC   C27 8711   0.811   3.561   5.622  0.4161  0.0766  0.5216
   91SAPC   H7R 8712   0.899   3.493   5.625  1.7931  1.7379 -0.2985
   91SAPC   H7S 8713   0.847   3.666   5.622  1.1166 -0.1224  2.7811
   91SAPC   C28 8714   0.726   3.538   5.492 -0.6233 -0.3167 -0.8486
   91SAPC   H8R 8715   0.618   3.558   5.497 -0.2362  1.6329  1.4836
   91SAPC   C29 8716   0.779   3.521   5.371  0.3016  0.0443 -0.1340
   91SAPC   H9R 8717   0.704   3.501   5.293 -1.4086  0.5749  1.3085
   91SAPC  C210 8718   0.923   3.504   5.336 -0.8499  0.4374  0.5422
   91SAPC  H10R 8719   0.980   3.484   5.430 -1.0890 -0.4653  0.5062
   91SAPC  H10S 8720   0.966   3.601   5.302  1.0728 -0.5570 -0.0415
   91SAPC  C211 8721   0.953   3.402   5.230 -0.0780 -0.1055 -0.1356
   91SAPC  H11R 8722   0.951   3.300   5.271 -0.7199  0.0281  0.1814
   91SAPC  C212 8723   0.971   3.416   5.092  0.1519 -0.4516 -0.3328
   91SAPC  H12R 8724   0.995   3.325   5.036  0.8726 -0.9443  0.7394
   91SAPC  C213 8725   0.976   3.543   5.013 -0.3226  0.2941 -0.1819
   91SAPC  H13R 8726   0.933   3.628   5.072 -0.1290 -1.0263  1.9616
   91SAPC  H13S 8727   0.927   3.540   4.913 -0.7101  2.6276 -0.1239
   91SAPC  C214 8728   1.122   3.591   5.005  0.1357  0.5069  0.4639
   91SAPC  H14R 8729   1.177   3.606   5.099  1.4958 -0.5692 -0.1264
   91SAPC  C215 8730   1.186   3.594   4.889  0.2682  0.7282  0.0343
   91SAPC  H15R 8731   1.295   3.598   4.905  0.1633 -0.0089  1.0124
   91SAPC  C216 8732   1.159   3.551   4.753 -0.5870 -0.4286  0.7138
   91SAPC  H16R 8733   1.053   3.520   4.742 -0.6264  0.0103 -0.2629
   91SAPC  H16S 8734   1.222   3.465   4.722  0.1709  0.7318 -1.1290
   91SAPC  C217 8735   1.195   3.666   4.658  0.6251  0.2741  0.0369
   91SAPC  H17R 8736   1.294   3.707   4.687  0.8290  1.8964 -2.6464
   91SAPC  H17S 8737   1.115   3.741   4.669  0.1044 -0.5385  2.4153
   91SAPC  C218 8738   1.202   3.615   4.507 -0.9949 -0.6984  0.1308
   91SAPC  H18R 8739   1.278   3.535   4.497 -1.3693 -0.8784 -1.6469
   91SAPC  H18S 8740   1.244   3.705   4.459 -0.1803 -0.9392  0.3871
   91SAPC  C219 8741   1.068   3.577   4.456  0.3699  0.1530 -0.0331
   91SAPC  H19R 8742   1.014   3.663   4.503  1.8296  0.7391  0.6191
   91SAPC  H19S 8743   1.036   3.482   4.504  0.0076 -0.4433 -1.3951
   91SAPC  C220 8744   1.052   3.571   4.306  0.4515 -0.7377 -0.7025
   91SAPC  H20R 8745   0.949   3.539   4.281 -0.1258  0.4455  0.0454
   91SAPC  H20S 8746   1.119   3.493   4.263 -2.0694 -2.4150 -1.8223
   91SAPC  H20T 8747   1.076   3.667   4.255  0.0081 -0.2144  0.0517
   91SAPC   C33 8748   1.514   3.702   5.876 -0.6974  0.3025 -0.4816
   91SAPC   H3X 8749   1.418   3.655   5.846 -0.3923 -1.0155  0.5656
   91SAPC   H3Y 8750   1.577   3.619   5.914 -2.7646 -0.1907  2.1373
   91SAPC   C34 8751   1.590   3.747   5.750  0.0182 -0.2017  0.7311
   91SAPC   H4X 8752   1.692   3.785   5.772  0.0157  0.1335  0.1816
   91SAPC   H4Y 8753   1.529   3.825   5.700  0.7420 -0.3344 -0.3816
   91SAPC   C35 8754   1.592   3.626   5.642  0.2371  0.4165  0.3939
   91SAPC   H5X 8755   1.582   3.663   5.538 -1.7079 -3.7628 -1.1179
   91SAPC   H5Y 8756   1.502   3.562   5.657  0.5877  0.3606  2.5495
   91SAPC   C36 8757   1.719   3.542   5.645  0.6826  0.3975  0.7346
   91SAPC   H6X 8758   1.715   3.444   5.593  2.2100 -0.3045  1.8372
   91SAPC   H6Y 8759   1.732   3.504   5.749  0.2420 -1.1263  0.2560
   91SAPC   C37 8760   1.841   3.623   5.606 -0.2042  0.1454  0.1035
   91SAPC   H7X 8761   1.934   3.575   5.642 -0.5375  1.3771  2.8893
   91SAPC   H7Y 8762   1.830   3.721   5.657 -0.2624  0.2973 -0.1943
   91SAPC   C38 8763   1.863   3.656   5.454 -0.2006  0.0422  0.5168
   91SAPC   H8X 8764   1.770   3.695   5.408  1.5857  0.8043 -2.8385
   91SAPC   H8Y 8765   1.881   3.560   5.400  4.1230  1.9423 -1.9835
   91SAPC   C39 8766   1.975   3.763   5.427  0.3032  0.1562 -0.1461
   91SAPC   H9X 8767   2.072   3.736   5.473  1.7391  1.1689 -2.4066
   91SAPC   H9Y 8768   1.944   3.857   5.477 -2.6526 -0.9773  0.3411
   91SAPC  C310 8769   2.016   3.791   5.278  0.9673  0.0671  0.3551
   91SAPC  H10X 8770   2.072   3.702   5.244 -0.1460 -0.4683 -0.1380
   91SAPC  H10Y 8771   2.083   3.880   5.278  0.7738  0.2166  0.0279
   91SAPC  C311 8772   1.899   3.810   5.181 -0.1346 -0.4993 -0.6316
   91SAPC  H11X 8773   1.833   3.887   5.227 -1.0291 -1.8293  0.3985
   91SAPC  H11Y 8774   1.831   3.724   5.162 -0.3084  0.0874 -2.8989
   91SAPC  C312 8775   1.942   3.841   5.041 -1.4090 -0.6271  1.2156
   91SAPC  H12X 8776   2.022   3.916   5.055 -2.2906  1.5049 -3.2835
   91SAPC  H12Y 8777   1.868   3.893   4.977 -2.1977  0.0536  2.6382
   91SAPC  C313 8778   2.015   3.727   4.967  0.1909  0.1193 -0.9025
   91SAPC  H13X 8779   1.960   3.632   4.988  0.8490 -0.1884 -0.5302
   91SAPC  H13Y 8780   2.115   3.716   5.015  0.1849 -0.3736 -0.9895
   91SAPC  C314 8781   2.033   3.759   4.815 -0.3414 -0.2879  0.6908
   91SAPC  H14X 8782   2.084   3.858   4.810 -0.4023 -0.1755  1.9737
   91SAPC  H14Y 8783   1.930   3.783   4.780 -1.1389 -0.6726  2.6442
   91SAPC  C315 8784   2.105   3.662   4.731 -0.1858  0.0985  0.1856
   91SAPC  H15X 8785   2.054   3.668   4.633 -0.8330 -1.2019  0.4262
   91SAPC  H15Y 8786   2.093   3.566   4.786 -3.4670  0.5860  0.5071
   91SAPC  C316 8787   2.254   3.703   4.700  0.0261 -0.0444  0.2933
   91SAPC  H16X 8788   2.321   3.689   4.788  1.3324  1.6111 -0.3858
   91SAPC  H16Y 8789   2.265   3.813   4.690  1.5608 -0.1035  1.0021
   91SAPC  C317 8790   2.311   3.639   4.577 -0.3367 -0.1727  0.3771
   91SAPC  H17X 8791   2.269   3.673   4.480  1.0059 -0.7041 -0.4159
   91SAPC  H17Y 8792   2.300   3.529   4.586 -0.2931 -0.0309  2.9490
   91SAPC  C318 8793   2.464   3.677   4.570 -0.5957  0.2416  0.2751
   91SAPC  H18X 8794   2.501   3.699   4.673  1.5795  2.3896 -0.8578
   91SAPC  H18Y 8795   2.474   3.759   4.495 -0.7149  0.5126  0.5505
   91SAPC  H18Z 8796   2.519   3.591   4.528  1.6399  0.2885  2.7891
   92SAPC     N 8797   2.130   0.368   7.059  0.2628  0.5263 -0.5164
   92SAPC   C12 8798   2.124   0.512   7.036 -0.4900  0.5659  0.2222
   92SAPC  H12A 8799   2.025   0.552   7.050 -0.8862 -0.0226 -0.7626
   92SAPC  H12B 8800   2.129   0.518   6.928 -1.1311  1.8869  0.2472
   92SAPC   C13 8801   2.128   0.345   7.208  0.0734  0.5093 -0.0962
   92SAPC  H13A 8802   2.032   0.358   7.256  0.1394 -1.9215  0.8449
   92SAPC  H13B 8803   2.161   0.244   7.227 -0.5586  0.1597 -0.8402
   92SAPC  H13C 8804   2.199   0.408   7.260  0.1411  0.4080 -0.0662
   92SAPC   C14 8805   2.005   0.307   6.998 -0.3118  0.8482 -0.2123
   92SAPC  H14A 8806   1.928   0.354   7.058 -1.0299 -0.3904 -0.1259
   92SAPC  H14B 8807   1.996   0.321   6.891 -0.0783  0.2981 -0.3087
   92SAPC  H14C 8808   2.009   0.200   7.014 -0.9267  1.0078  1.1653
   92SAPC   C15 8809   2.257   0.308   6.998 -0.0620  0.5940  0.2416
   92SAPC  H15A 8810   2.344   0.360   7.037  0.6540 -1.6404  1.8641
   92SAPC  H15B 8811   2.263   0.206   7.033 -0.3496  0.0463 -1.2381
   92SAPC  H15C 8812   2.262   0.316   6.891  1.6255 -2.5669 -0.0317
   92SAPC   C11 8813   2.235   0.604   7.094  0.4036 -0.5678  0.5399
   92SAPC  H11A 8814   2.238   0.590   7.204  1.9124  0.7207  0.6988
   92SAPC  H11B 8815   2.204   0.704   7.058  1.0815 -0.2077  0.9396
   92SAPC     P 8816   2.412   0.622   6.909  0.3483  0.3144 -0.1524
   92SAPC   O13 8817   2.504   0.735   6.930 -0.0114  0.2470  0.4425
   92SAPC   O14 8818   2.463   0.506   6.840  0.2342  0.5334  0.2680
   92SAPC   O12 8819   2.361   0.571   7.048 -0.8566  0.5461 -0.5762
   92SAPC   O11 8820   2.286   0.677   6.831  0.0316 -0.5117  0.2691
   92SAPC    C1 8821   2.274   0.803   6.769 -0.3234  0.1747 -0.4785
   92SAPC    HA 8822   2.177   0.853   6.789  0.9232  2.7343 -0.4766
   92SAPC    HB 8823   2.355   0.875   6.793 -1.3820  0.8296  1.3525
   92SAPC    C2 8824   2.278   0.798   6.612  0.3617 -0.1718  0.7326
   92SAPC    HS 8825   2.237   0.898   6.585 -0.4183 -0.6145  0.2524
   92SAPC   O21 8826   2.191   0.696   6.557 -0.3216 -0.0723 -0.7936
   92SAPC   C21 8827   2.105   0.743   6.462 -0.3452 -0.6680 -0.0501
   92SAPC   O22 8828   2.102   0.858   6.423  0.4369  0.3659 -0.0723
   92SAPC   C22 8829   2.028   0.619   6.403 -0.5134  0.1468  0.1283
   92SAPC   H2R 8830   2.098   0.538   6.374 -0.8895  0.4072 -1.6238
   92SAPC   H2S 8831   1.968   0.583   6.489  0.2220 -0.7817  0.2670
   92SAPC    C3 8832   2.419   0.794   6.565  0.3282 -0.0723 -1.1528
   92SAPC    HX 8833   2.448   0.688   6.585 -2.4594 -0.8605 -0.9375
   92SAPC    HY 8834   2.492   0.850   6.628 -0.0091  0.7637 -1.4892
   92SAPC   O31 8835   2.430   0.840   6.430  1.0121 -0.3126 -0.4846
   92SAPC   C31 8836   2.537   0.792   6.359 -0.2657  1.1402  0.0198
   92SAPC   O32 8837   2.629   0.733   6.411  0.6572  0.0315 -0.3631
   92SAPC   C32 8838   2.511   0.820   6.215  0.4455  0.3936  0.0157
   92SAPC   H2X 8839   2.472   0.923   6.200 -0.6598  0.0865  0.6527
   92SAPC   H2Y 8840   2.443   0.737   6.184 -0.4423  1.2966 -0.4937
   92SAPC   C23 8841   1.948   0.656   6.277  0.2473 -0.5553 -0.5153
   92SAPC   H3R 8842   2.020   0.694   6.202 -0.5282  2.3073  0.0422
   92SAPC   H3S 8843   1.873   0.737   6.292  0.3862 -0.7957  1.8120
   92SAPC   C24 8844   1.879   0.531   6.225  0.2475 -0.0515  0.7813
   92SAPC   H4R 8845   1.800   0.501   6.296 -1.0881  1.6617  0.0861
   92SAPC   H4S 8846   1.957   0.451   6.233  1.5815  1.1427  0.2002
   92SAPC   C25 8847   1.828   0.554   6.083 -0.3238 -0.1169  0.4984
   92SAPC   H5R 8848   1.740   0.617   6.062  0.4055  0.3716 -1.2753
   92SAPC   C26 8849   1.894   0.516   5.970 -0.7691  0.1158  0.2943
   92SAPC   H6R 8850   1.844   0.522   5.873 -0.0655  3.3566  0.0017
   92SAPC   C27 8851   2.030   0.452   5.955  0.6260 -0.7128 -0.1057
   92SAPC   H7R 8852   2.013   0.360   5.896  0.3054  0.0822 -1.2750
   92SAPC   H7S 8853   2.058   0.410   6.054 -0.9179  1.0895  1.1695
   92SAPC   C28 8854   2.129   0.537   5.882  0.2450 -0.3602 -0.3465
   92SAPC   H8R 8855   2.201   0.592   5.945  0.6128 -1.7906  0.5310
   92SAPC   C29 8856   2.141   0.556   5.747  0.5746  0.9576  0.3511
   92SAPC   H9R 8857   2.212   0.630   5.710  2.8817 -1.4080 -0.2826
   92SAPC  C210 8858   2.046   0.491   5.647 -0.7775 -0.0936  0.5625
   92SAPC  H10R 8859   1.998   0.574   5.591 -0.0323  0.5365  0.8421
   92SAPC  H10S 8860   1.961   0.435   5.693 -1.0628 -3.0025 -3.0631
   92SAPC  C211 8861   2.121   0.400   5.556 -0.2246 -0.5173 -0.0653
   92SAPC  H11R 8862   2.162   0.311   5.607 -1.3976 -0.6299  0.6975
   92SAPC  C212 8863   2.152   0.426   5.425  1.1039 -0.3296 -0.0464
   92SAPC  H12R 8864   2.205   0.341   5.378  0.8869 -2.0014  2.5182
   92SAPC  C213 8865   2.118   0.544   5.350  0.4446 -0.0653  0.5512
   92SAPC  H13R 8866   2.192   0.549   5.268  0.8853 -0.5161  0.9076
   92SAPC  H13S 8867   2.138   0.636   5.410 -0.3540  1.3546 -1.2862
   92SAPC  C214 8868   1.978   0.555   5.300  0.8039  0.0010  0.3504
   92SAPC  H14R 8869   1.904   0.493   5.352  0.5241 -0.4456 -0.5585
   92SAPC  C215 8870   1.942   0.625   5.188  0.7956 -0.2452  0.3313
   92SAPC  H15R 8871   1.837   0.644   5.159  1.6079  1.2830 -1.8308
   92SAPC  C216 8872   2.047   0.694   5.097  0.4718 -0.3575 -0.0987
   92SAPC  H16R 8873   2.152   0.658   5.104  0.5686 -0.0159  0.2869
   92SAPC  H16S 8874   2.040   0.804   5.115 -0.5919 -0.1010 -1.8880
   92SAPC  C217 8875   2.010   0.666   4.947  2.0661 -0.2656  0.3502
   92SAPC  H17R 8876   1.904   0.694   4.931  2.8440  2.3773 -0.6797
   92SAPC  H17S 8877   2.017   0.561   4.914 -3.0465 -0.6182 -0.2820
   92SAPC  C218 8878   2.083   0.742   4.836 -0.1243 -0.3125  0.0353
   92SAPC  H18R 8879   2.082   0.850   4.862  1.6908  0.0742 -1.3038
   92SAPC  H18S 8880   2.022   0.741   4.743  0.0636  0.8641 -0.1144
   92SAPC  C219 8881   2.221   0.696   4.809  0.5501 -0.5406 -0.2997
   92SAPC  H19R 8882   2.223   0.586   4.797  1.1985 -0.4544 -1.0904
   92SAPC  H19S 8883   2.284   0.710   4.899 -0.7029  3.3554  0.1803
   92SAPC  C220 8884   2.282   0.768   4.692  0.3260 -1.0467  0.6946
   92SAPC  H20R 8885   2.302   0.876   4.708  0.6069 -1.0901  0.6365
   92SAPC  H20S 8886   2.215   0.763   4.603 -0.5674  1.1835  1.1771
   92SAPC  H20T 8887   2.377   0.733   4.647  0.6548  0.3179  0.2833
   92SAPC   C33 8888   2.647   0.819   6.131  0.7660 -0.3522 -0.4328
   92SAPC   H3X 8889   2.697   0.725   6.165 -1.1841 -1.0065  0.8471
   92SAPC   H3Y 8890   2.703   0.912   6.155 -1.4906  1.1213 -0.5956
   92SAPC   C34 8891   2.615   0.810   5.979  0.2977  0.4192  0.4689
   92SAPC   H4X 8892   2.551   0.721   5.962 -1.9671  1.9647  0.5102
   92SAPC   H4Y 8893   2.714   0.798   5.930  0.1080 -0.6562  0.3358
   92SAPC   C35 8894   2.552   0.934   5.927  0.3124 -0.5136 -0.1762
   92SAPC   H5X 8895   2.612   1.023   5.953 -1.6665  0.9769 -0.4685
   92SAPC   H5Y 8896   2.452   0.942   5.975  0.2548 -1.0055 -0.2073
   92SAPC   C36 8897   2.514   0.936   5.774  0.6909  0.2044 -0.0424
   92SAPC   H6X 8898   2.606   0.915   5.715 -0.7033 -1.6147 -1.7472
   92SAPC   H6Y 8899   2.467   1.034   5.751  0.3922 -0.3137 -1.8392
   92SAPC   C37 8900   2.415   0.827   5.719  0.2306  0.2844 -0.1271
   92SAPC   H7X 8901   2.319   0.866   5.759 -0.5667 -1.2125 -0.5039
   92SAPC   H7Y 8902   2.429   0.726   5.762  1.8286  0.6796  0.3484
   92SAPC   C38 8903   2.427   0.815   5.569  0.3334  0.5821  0.0799
   92SAPC   H8X 8904   2.401   0.711   5.542 -1.0575  0.2513  2.3834
   92SAPC   H8Y 8905   2.531   0.835   5.537  0.3912 -0.1334 -0.1824
   92SAPC   C39 8906   2.331   0.902   5.493 -0.2756  0.3329 -0.0289
   92SAPC   H9X 8907   2.347   1.012   5.496 -0.1950  0.3228 -0.0817
   92SAPC   H9Y 8908   2.230   0.875   5.532  0.7249 -5.2134 -0.3913
   92SAPC  C310 8909   2.320   0.873   5.341  0.3415  0.0407  0.1270
   92SAPC  H10X 8910   2.231   0.929   5.307 -0.6420 -2.0979 -1.0366
   92SAPC  H10Y 8911   2.296   0.770   5.306 -2.5499  0.8876 -0.6474
   92SAPC  C311 8912   2.448   0.927   5.264  0.5844  0.5136  0.3886
   92SAPC  H11X 8913   2.529   0.860   5.302 -0.6288 -0.3406  1.5766
   92SAPC  H11Y 8914   2.458   1.037   5.273  0.7932  0.5925 -0.7404
   92SAPC  C312 8915   2.438   0.885   5.115 -0.0145 -0.3935 -0.0765
   92SAPC  H12X 8916   2.352   0.938   5.070  0.3988 -1.4039 -2.1803
   92SAPC  H12Y 8917   2.412   0.778   5.102  0.1265 -0.5860  1.1073
   92SAPC  C313 8918   2.574   0.902   5.038  0.1511 -0.1571  0.0257
   92SAPC  H13X 8919   2.653   0.834   5.076 -0.6718 -0.9279  0.4048
   92SAPC  H13Y 8920   2.616   1.003   5.054 -2.7445  1.2246 -0.4877
   92SAPC  C314 8921   2.554   0.896   4.885  0.5194 -0.2484 -0.8083
   92SAPC  H14X 8922   2.468   0.964   4.866  0.7797  1.1787  2.4815
   92SAPC  H14Y 8923   2.518   0.795   4.858 -0.9091  0.6061 -2.2760
   92SAPC  C315 8924   2.679   0.931   4.809  0.6127  0.5153  1.1153
   92SAPC  H15X 8925   2.765   0.869   4.844  1.3385 -0.5607 -2.2649
   92SAPC  H15Y 8926   2.711   1.036   4.829  0.2574  0.3682  2.5656
   92SAPC  C316 8927   2.669   0.908   4.661 -0.4834  0.0594  0.7319
   92SAPC  H16X 8928   2.570   0.865   4.636 -0.0532 -0.8822  0.5867
   92SAPC  H16Y 8929   2.748   0.835   4.634 -0.3132  0.5061 -0.0050
   92SAPC  C317 8930   2.709   1.040   4.587  0.7923 -0.3590 -0.2347
   92SAPC  H17X 8931   2.650   1.128   4.621  2.5358  0.4157  0.9063
   92SAPC  H17Y 8932   2.676   1.033   4.481 -4.5488 -0.7894  1.1519
   92SAPC  C318 8933   2.852   1.083   4.592  0.6525  0.5060  0.2265
   92SAPC  H18X 8934   2.881   1.104   4.697  0.7518 -0.3605  0.3817
   92SAPC  H18Y 8935   2.861   1.167   4.520  0.2409  0.0079 -0.4256
   92SAPC  H18Z 8936   2.921   0.998   4.572 -1.5907 -0.8390 -2.8191
   93SAPC     N 8937   2.958   4.006   6.900  0.7886 -0.4450 -0.3783
   93SAPC   C12 8938   2.897   3.909   6.801 -0.0252 -0.5034 -0.3902
   93SAPC  H12A 8939   2.790   3.903   6.820 -0.0357 -0.2137 -0.3620
   93SAPC  H12B 8940   2.941   3.813   6.826  1.2018 -0.0721 -0.8371
   93SAPC   C13 8941   2.912   4.151   6.869 -0.4451  0.0997  0.5699
   93SAPC  H13A 8942   2.805   4.161   6.879 -0.4893 -0.6720  0.9225
   93SAPC  H13B 8943   2.955   4.212   6.947 -0.8357 -0.7337  1.4650
   93SAPC  H13C 8944   2.951   4.182   6.773  2.3014  1.6726  2.0597
   93SAPC   C14 8945   2.907   3.968   7.041  0.0152 -1.1051  0.0897
   93SAPC  H14A 8946   2.931   3.866   7.067 -1.0965 -1.2608  0.5380
   93SAPC  H14B 8947   2.962   4.022   7.117  0.2646 -1.9009  0.4781
   93SAPC  H14C 8948   2.802   3.992   7.048  0.0211 -0.4502 -1.5591
   93SAPC   C15 8949   3.104   4.006   6.897 -0.1113  0.5968 -0.5916
   93SAPC  H15A 8950   3.139   4.004   6.794 -0.7201  1.3935 -0.8252
   93SAPC  H15B 8951   3.148   4.090   6.948  0.5816  0.1433 -0.4303
   93SAPC  H15C 8952   3.147   3.919   6.944  0.3491  0.5117 -1.1527
   93SAPC   C11 8953   2.917   3.930   6.650  0.8146 -0.1233 -0.3426
   93SAPC  H11A 8954   2.896   4.034   6.616 -1.4987 -0.1640  0.7606
   93SAPC  H11B 8955   2.854   3.853   6.601 -2.3488  1.5625  0.7447
   93SAPC     P 8956   3.142   3.972   6.523  0.0439 -0.2157  0.0004
   93SAPC   O13 8957   3.184   4.101   6.581  0.4870 -0.3087  0.1991
   93SAPC   O14 8958   3.247   3.889   6.474  0.4332  0.1350  0.1286
   93SAPC   O12 8959   3.050   3.893   6.622 -0.0846 -0.3581 -0.2053
   93SAPC   O11 8960   3.043   4.000   6.407 -0.6314 -0.1327 -0.1064
   93SAPC    C1 8961   2.972   3.909   6.322 -0.5165 -0.0683 -0.1542
   93SAPC    HA 8962   2.994   3.803   6.346  2.3187 -0.1200 -2.3939
   93SAPC    HB 8963   2.862   3.915   6.333 -0.5707  3.1781 -1.3180
   93SAPC    C2 8964   3.009   3.937   6.179 -0.8141 -0.9348  0.3808
   93SAPC    HS 8965   2.966   3.856   6.116  1.7358 -1.4260 -0.8406
   93SAPC   O21 8966   3.153   3.927   6.163  0.4737 -0.4060  0.1600
   93SAPC   C21 8967   3.201   3.808   6.166 -0.3202  0.4430  0.2079
   93SAPC   O22 8968   3.147   3.696   6.168  0.1619 -0.5216  0.2100
   93SAPC   C22 8969   3.352   3.815   6.178 -0.0194  0.1140 -0.5876
   93SAPC   H2R 8970   3.389   3.920   6.185  0.9724 -0.3082  0.6683
   93SAPC   H2S 8971   3.398   3.744   6.250  2.0175  0.5845 -1.3429
   93SAPC    C3 8972   2.962   4.074   6.111  1.0354  0.1101 -0.5226
   93SAPC    HX 8973   3.010   4.158   6.167 -0.1361 -0.7491  1.8845
   93SAPC    HY 8974   2.855   4.089   6.139  1.1622  1.4041 -0.6402
   93SAPC   O31 8975   2.979   4.067   5.966  0.0689 -0.1804  0.2217
   93SAPC   C31 8976   3.081   4.138   5.923  0.3363  0.3876 -0.6556
   93SAPC   O32 8977   3.172   4.176   5.994 -0.0319 -0.0057  0.7310
   93SAPC   C32 8978   3.075   4.168   5.773 -0.0217  0.2881  0.0363
   93SAPC   H2X 8979   2.975   4.161   5.724 -0.4429 -0.3368  0.9492
   93SAPC   H2Y 8980   3.124   4.080   5.724 -1.4998  0.8303 -2.6084
   93SAPC   C23 8981   3.402   3.768   6.038 -0.5021 -0.2320 -0.1451
   93SAPC   H3R 8982   3.373   3.663   6.015 -1.0475 -0.1967  0.3638
   93SAPC   H3S 8983   3.513   3.771   6.044 -0.5677 -0.2962  1.8631
   93SAPC   C24 8984   3.361   3.856   5.916 -0.0415 -0.1660  0.4588
   93SAPC   H4R 8985   3.361   3.963   5.945 -2.6366  0.5201 -1.6333
   93SAPC   H4S 8986   3.260   3.837   5.875 -0.0672 -2.7644  1.5862
   93SAPC   C25 8987   3.447   3.831   5.796 -0.2830 -0.1713  0.0519
   93SAPC   H5R 8988   3.552   3.814   5.825 -0.1145  0.6108 -0.0765
   93SAPC   C26 8989   3.413   3.819   5.666  0.2880 -0.4787  0.0846
   93SAPC   H6R 8990   3.485   3.782   5.592 -1.4388 -1.1179 -1.3479
   93SAPC   C27 8991   3.276   3.830   5.604 -0.0898  0.0445 -0.1511
   93SAPC   H7R 8992   3.244   3.932   5.576  0.0121 -0.0753 -0.7135
   93SAPC   H7S 8993   3.201   3.794   5.678 -1.4224  0.0704 -1.4336
   93SAPC   C28 8994   3.253   3.732   5.488 -0.0757 -0.1486 -0.3612
   93SAPC   H8R 8995   3.237   3.627   5.516  0.2209  0.4181  2.1889
   93SAPC   C29 8996   3.271   3.759   5.360 -0.4362  0.6840 -0.1275
   93SAPC   H9R 8997   3.270   3.680   5.283  0.0424  0.6027 -0.0522
   93SAPC  C210 8998   3.313   3.894   5.307  0.5452  0.7302 -0.6514
   93SAPC  H10R 8999   3.361   3.953   5.388  1.0699  0.6496 -0.8968
   93SAPC  H10S 9000   3.222   3.953   5.281 -0.8039 -1.2295 -0.5538
   93SAPC  C211 9001   3.398   3.895   5.183  0.3566  0.5858 -1.0164
   93SAPC  H11R 9002   3.505   3.918   5.192  0.5634 -0.2788 -1.1218
   93SAPC  C212 9003   3.343   3.872   5.060 -0.9164 -0.4669  0.0632
   93SAPC  H12R 9004   3.414   3.859   4.977 -2.1610  2.6237 -1.6506
   93SAPC  C213 9005   3.203   3.834   5.019 -0.2267  0.0471 -0.1884
   93SAPC  H13R 9006   3.131   3.912   5.050  0.2278  1.5991 -2.7712
   93SAPC  H13S 9007   3.183   3.746   5.084  2.6664 -0.1700  0.5689
   93SAPC  C214 9008   3.179   3.788   4.882 -0.5071  0.1714  0.0733
   93SAPC  H14R 9009   3.273   3.787   4.825  1.4267 -1.6598  3.0248
   93SAPC  C215 9010   3.069   3.737   4.830  0.1038 -0.4608 -0.0289
   93SAPC  H15R 9011   3.080   3.702   4.726  1.4524  0.2026 -0.1321
   93SAPC  C216 9012   2.941   3.705   4.897  0.3793 -0.1565  0.2117
   93SAPC  H16R 9013   2.855   3.763   4.857  1.5375  1.2527 -0.2906
   93SAPC  H16S 9014   2.942   3.738   5.003  0.7372  0.3191  0.0624
   93SAPC  C217 9015   2.891   3.557   4.898  0.6226  0.4498  0.5574
   93SAPC  H17R 9016   2.802   3.545   4.964 -0.0732 -2.4009 -0.7372
   93SAPC  H17S 9017   2.971   3.500   4.950  0.3022 -1.0634 -0.5457
   93SAPC  C218 9018   2.852   3.500   4.761 -0.2366  0.2301 -0.0410
   93SAPC  H18R 9019   2.941   3.455   4.712  0.9049  1.9430  0.3711
   93SAPC  H18S 9020   2.811   3.586   4.703 -1.6626  0.0371  0.6443
   93SAPC  C219 9021   2.738   3.397   4.780 -0.8485 -0.3286  0.4065
   93SAPC  H19R 9022   2.706   3.367   4.678  1.7188  1.8086 -1.1719
   93SAPC  H19S 9023   2.656   3.427   4.849  1.0728  0.1142  2.6202
   93SAPC  C220 9024   2.786   3.265   4.852 -0.0388 -0.3917  0.0257
   93SAPC  H20R 9025   2.865   3.218   4.790 -0.3636  2.2313 -2.5814
   93SAPC  H20S 9026   2.701   3.194   4.844 -1.3049  1.3045 -3.2634
   93SAPC  H20T 9027   2.819   3.285   4.956 -1.8205  1.1197  0.3481
   93SAPC   C33 9028   3.150   4.297   5.726 -0.2829  0.8305  1.0878
   93SAPC   H3X 9029   3.242   4.311   5.786  0.9707 -1.0568 -0.2825
   93SAPC   H3Y 9030   3.084   4.385   5.742  0.9944  1.5654  2.4951
   93SAPC   C34 9031   3.179   4.282   5.575 -0.3587  0.0576 -0.6364
   93SAPC   H4X 9032   3.086   4.247   5.525 -0.8040 -0.9081  0.8083
   93SAPC   H4Y 9033   3.253   4.201   5.558  0.5537  0.9198 -0.8867
   93SAPC   C35 9034   3.217   4.424   5.523  0.4908  0.1043  0.6517
   93SAPC   H5X 9035   3.321   4.447   5.553  0.1713  0.3078  1.6359
   93SAPC   H5Y 9036   3.159   4.506   5.570  0.6455  0.8313 -0.3834
   93SAPC   C36 9037   3.194   4.428   5.370 -0.1768  0.4869  0.1883
   93SAPC   H6X 9038   3.229   4.524   5.329 -1.3803  0.8964  0.0940
   93SAPC   H6Y 9039   3.085   4.431   5.350  0.1497  0.8302 -1.7360
   93SAPC   C37 9040   3.245   4.312   5.285 -0.4305 -0.5750 -0.4809
   93SAPC   H7X 9041   3.172   4.229   5.295 -1.4895  0.5656  2.2270
   93SAPC   H7Y 9042   3.344   4.282   5.325 -0.3303 -1.3038 -1.2433
   93SAPC   C38 9043   3.248   4.345   5.134  0.0094 -0.4152 -0.0020
   93SAPC   H8X 9044   3.295   4.445   5.116 -1.0596  0.5732  2.3071
   93SAPC   H8Y 9045   3.146   4.355   5.093  1.0801 -0.2616 -2.8942
   93SAPC   C39 9046   3.340   4.254   5.049  0.1609  0.5339 -0.8113
   93SAPC   H9X 9047   3.300   4.151   5.054 -0.3103  0.6852 -1.3483
   93SAPC   H9Y 9048   3.442   4.256   5.093 -1.2098  1.6582  2.5825
   93SAPC  C310 9049   3.349   4.308   4.912  0.4844 -0.5838 -0.5557
   93SAPC  H10X 9050   3.356   4.419   4.909 -1.7769 -0.3719 -0.0554
   93SAPC  H10Y 9051   3.256   4.280   4.858 -0.7679  1.3479  0.4524
   93SAPC  C311 9052   3.480   4.267   4.833  0.4249  0.3982 -0.2531
   93SAPC  H11X 9053   3.486   4.158   4.849 -0.4571  0.2673 -0.7923
   93SAPC  H11Y 9054   3.573   4.308   4.878  0.3666  0.0953  0.1481
   93SAPC  C312 9055   3.472   4.300   4.683  0.6935 -0.0106  0.3759
   93SAPC  H12X 9056   3.456   4.410   4.678  2.3901  0.2418 -0.5037
   93SAPC  H12Y 9057   3.385   4.245   4.641  1.6272 -1.7351  0.6167
   93SAPC  C313 9058   3.600   4.271   4.599  0.2023 -0.1096  0.3777
   93SAPC  H13X 9059   3.574   4.304   4.496  1.2900  0.4208  0.2642
   93SAPC  H13Y 9060   3.617   4.161   4.595  0.4705 -0.0685  0.3565
   93SAPC  C314 9061   3.721   4.354   4.635 -0.2457  0.2631 -0.6851
   93SAPC  H14X 9062   3.745   4.337   4.742 -0.4235 -0.8099 -0.7968
   93SAPC  H14Y 9063   3.694   4.461   4.626 -1.6674 -0.0656 -0.4739
   93SAPC  C315 9064   3.851   4.343   4.542  0.7607  0.5895 -0.1573
   93SAPC  H15X 9065   3.815   4.401   4.454  1.0997  0.2720 -0.5077
   93SAPC  H15Y 9066   3.873   4.238   4.512  4.3915  1.2701 -0.3333
   93SAPC  C316 9067   3.977   4.397   4.612 -0.7207  0.8421 -0.1731
   93SAPC  H16X 9068   4.022   4.307   4.659  0.9879  1.2757 -0.9154
   93SAPC  H16Y 9069   3.928   4.465   4.685 -2.9099  1.3898 -2.0255
   93SAPC  C317 9070   4.070   4.490   4.533 -0.3193  0.4166  0.0698
   93SAPC  H17X 9071   4.160   4.502   4.598 -2.3756 -1.8195  3.7158
   93SAPC  H17Y 9072   4.024   4.590   4.520  0.0620  0.4384 -1.2248
   93SAPC  C318 9073   4.108   4.432   4.395 -0.1858 -0.4963 -0.5263
   93SAPC  H18X 9074   4.204   4.477   4.360  0.5478 -0.7944  1.0023
   93SAPC  H18Y 9075   4.031   4.447   4.317 -1.4402 -1.1912  0.5425
   93SAPC  H18Z 9076   4.118   4.322   4.400 -1.4028 -0.6517 -1.1528
   94SAPC     N 9077   2.192   1.112   7.095 -0.6874  0.3720 -0.4825
   94SAPC   C12 9078   2.052   1.063   7.132  0.5799  0.3144  0.5062
   94SAPC  H12A 9079   1.969   1.109   7.080 -1.4247 -3.0525  0.4226
   94SAPC  H12B 9080   2.043   1.078   7.238 -1.7821  1.6771  0.1816
   94SAPC   C13 9081   2.190   1.261   7.103  0.2890  0.5067  0.0844
   94SAPC  H13A 9082   2.160   1.305   7.197 -2.4141  1.3217 -1.0389
   94SAPC  H13B 9083   2.289   1.298   7.080  0.3428  1.3397  1.5546
   94SAPC  H13C 9084   2.125   1.300   7.026  2.6117  0.2990 -2.1204
   94SAPC   C14 9085   2.302   1.059   7.187 -0.0503 -0.4063  0.4665
   94SAPC  H14A 9086   2.399   1.097   7.160  0.7612 -0.9389  2.3952
   94SAPC  H14B 9087   2.278   1.086   7.289 -1.4564 -0.7200  0.2462
   94SAPC  H14C 9088   2.302   0.951   7.179  0.6415 -0.3262 -0.8822
   94SAPC   C15 9089   2.235   1.082   6.957  0.2846 -0.2670  0.3109
   94SAPC  H15A 9090   2.177   1.127   6.877  0.4578  0.3298  0.5111
   94SAPC  H15B 9091   2.334   1.123   6.943 -0.2253  0.6192 -0.8329
   94SAPC  H15C 9092   2.239   0.976   6.938 -0.9019 -0.4306  0.8684
   94SAPC   C11 9093   2.025   0.912   7.104  0.4907  0.8113  0.7187
   94SAPC  H11A 9094   1.945   0.871   7.169  0.5978 -1.1488 -0.3214
   94SAPC  H11B 9095   2.117   0.862   7.143  1.2736  0.3474 -1.5804
   94SAPC     P 9096   1.880   0.826   6.906  0.3338 -0.2822  0.3859
   94SAPC   O13 9097   1.916   0.755   6.780 -0.1119 -0.2299  0.4617
   94SAPC   O14 9098   1.807   0.745   7.004 -0.5694  0.2726 -0.0851
   94SAPC   O12 9099   2.009   0.888   6.966 -0.5088  0.0772  0.2786
   94SAPC   O11 9100   1.788   0.958   6.857 -0.3759  0.1620  0.5355
   94SAPC    C1 9101   1.852   1.054   6.779  0.6217  0.5550  0.4735
   94SAPC    HA 9102   1.782   1.135   6.749 -0.2611 -0.8913 -1.5563
   94SAPC    HB 9103   1.938   1.104   6.830  0.8326 -0.1654  0.8333
   94SAPC    C2 9104   1.893   1.007   6.639 -0.2671 -0.9085 -0.2411
   94SAPC    HS 9105   1.975   0.932   6.638  0.0911 -0.7101 -4.3215
   94SAPC   O21 9106   1.930   1.119   6.559  0.2299  0.3931 -0.9089
   94SAPC   C21 9107   2.045   1.159   6.563 -0.3661 -0.6562  0.5867
   94SAPC   O22 9108   2.133   1.148   6.651  0.6750  0.6620  0.1690
   94SAPC   C22 9109   2.071   1.230   6.427  0.8668 -0.0184 -0.1983
   94SAPC   H2R 9110   1.975   1.232   6.371  0.5337  2.2688  0.3539
   94SAPC   H2S 9111   2.105   1.333   6.451  0.3892  0.2338 -0.5856
   94SAPC    C3 9112   1.775   0.945   6.567 -0.2731  0.1937  0.5654
   94SAPC    HX 9113   1.685   1.003   6.597 -0.0028 -0.1952  2.2133
   94SAPC    HY 9114   1.760   0.840   6.600 -1.1164  0.6474  1.6648
   94SAPC   O31 9115   1.797   0.954   6.423 -0.4359 -0.2742  0.1517
   94SAPC   C31 9116   1.687   0.938   6.351 -0.0536 -0.0082  0.6231
   94SAPC   O32 9117   1.590   0.878   6.389  0.6777 -0.0605  0.1384
   94SAPC   C32 9118   1.706   0.983   6.204  0.5038 -0.3810  0.0124
   94SAPC   H2X 9119   1.611   1.036   6.187  0.5157 -0.8273 -1.6082
   94SAPC   H2Y 9120   1.707   0.889   6.144 -1.2486 -1.0340  0.9409
   94SAPC   C23 9121   2.189   1.170   6.352 -0.5408 -0.1141 -0.1048
   94SAPC   H3R 9122   2.176   1.059   6.351  0.7906 -0.2899 -0.2362
   94SAPC   H3S 9123   2.281   1.201   6.406 -1.5233  1.6187  0.6511
   94SAPC   C24 9124   2.197   1.223   6.206 -0.3865  0.2001  0.4676
   94SAPC   H4R 9125   2.169   1.330   6.205 -0.8228  0.1080  1.6623
   94SAPC   H4S 9126   2.121   1.181   6.137 -0.5116  2.8493 -1.1629
   94SAPC   C25 9127   2.339   1.223   6.151 -0.1397  0.9932  0.6970
   94SAPC   H5R 9128   2.419   1.179   6.213  0.5239  0.7020 -0.3346
   94SAPC   C26 9129   2.370   1.288   6.038 -0.3234 -0.1376 -0.9452
   94SAPC   H6R 9130   2.475   1.286   6.005  0.0587  2.2215 -0.0562
   94SAPC   C27 9131   2.273   1.345   5.933 -0.2727 -0.0212  0.0707
   94SAPC   H7R 9132   2.315   1.444   5.906 -1.4097  0.8705  1.4544
   94SAPC   H7S 9133   2.173   1.363   5.976 -0.9782 -0.3730 -1.3501
   94SAPC   C28 9134   2.265   1.246   5.822  0.7119 -0.9561 -0.2982
   94SAPC   H8R 9135   2.242   1.143   5.853 -0.9434 -0.7135 -0.6255
   94SAPC   C29 9136   2.287   1.267   5.692  0.1689 -0.0435  0.4803
   94SAPC   H9R 9137   2.289   1.175   5.631  0.3782 -0.5193  1.1928
   94SAPC  C210 9138   2.327   1.402   5.625  0.1169  0.4590 -0.4062
   94SAPC  H10R 9139   2.435   1.420   5.638 -0.0586  1.8354 -0.7052
   94SAPC  H10S 9140   2.281   1.491   5.671  0.7535  0.5769  0.0066
   94SAPC  C211 9141   2.297   1.407   5.475  0.0625 -0.1434  0.1587
   94SAPC  H11R 9142   2.210   1.348   5.445  1.2870 -1.7126 -0.4690
   94SAPC  C212 9143   2.351   1.485   5.382 -0.8124  0.6109  0.4093
   94SAPC  H12R 9144   2.307   1.473   5.281  1.1603  0.4491 -0.4749
   94SAPC  C213 9145   2.468   1.577   5.393 -0.4846 -0.0278  0.2525
   94SAPC  H13R 9146   2.568   1.533   5.373  0.1130  0.7969  1.2832
   94SAPC  H13S 9147   2.473   1.602   5.502 -1.0811  1.4007 -0.0306
   94SAPC  C214 9148   2.465   1.701   5.308 -0.0456  0.4332 -0.6982
   94SAPC  H14R 9149   2.373   1.761   5.319  0.6559  1.1255  1.9533
   94SAPC  C215 9150   2.567   1.750   5.236  0.5911  0.2816 -0.3480
   94SAPC  H15R 9151   2.531   1.825   5.164  2.3108  1.7698  0.2874
   94SAPC  C216 9152   2.703   1.686   5.214  1.1889 -0.1052  0.4032
   94SAPC  H16R 9153   2.686   1.576   5.214  2.2351 -0.2847  1.3701
   94SAPC  H16S 9154   2.756   1.693   5.311 -0.2143  1.1715  1.1282
   94SAPC  C217 9155   2.778   1.740   5.086 -0.3037 -0.1094  0.1602
   94SAPC  H17R 9156   2.760   1.850   5.077  0.9810  0.2602  1.6999
   94SAPC  H17S 9157   2.735   1.696   4.994  0.4297  1.1465 -0.8155
   94SAPC  C218 9158   2.926   1.704   5.093 -1.0862 -0.2863  0.3393
   94SAPC  H18R 9159   2.920   1.594   5.089 -2.6438 -0.2059 -3.6343
   94SAPC  H18S 9160   2.963   1.755   5.185  0.0670 -1.4067  0.5288
   94SAPC  C219 9161   3.009   1.739   4.970  0.1597 -0.0762  0.8928
   94SAPC  H19R 9162   2.927   1.751   4.896  0.7622  0.2024  0.2519
   94SAPC  H19S 9163   3.083   1.660   4.948  0.7230  0.4498  0.8480
   94SAPC  C220 9164   3.080   1.870   4.992  0.9267 -1.0085  0.3177
   94SAPC  H20R 9165   3.158   1.857   5.071  0.3764  1.6067  1.3830
   94SAPC  H20S 9166   3.010   1.945   5.034  2.4693  1.0055 -0.5418
   94SAPC  H20T 9167   3.111   1.918   4.897 -3.8106 -0.5240 -1.2432
   94SAPC   C33 9168   1.822   1.074   6.167 -0.0907  0.7125  0.1885
   94SAPC   H3X 9169   1.917   1.020   6.186  1.6405  3.3506 -0.4668
   94SAPC   H3Y 9170   1.813   1.173   6.218  0.9578  0.0283  1.7916
   94SAPC   C34 9171   1.813   1.112   6.015  1.1615 -0.4538  0.3937
   94SAPC   H4X 9172   1.872   1.205   6.000 -0.6464  0.6504 -0.0845
   94SAPC   H4Y 9173   1.709   1.142   5.991  1.3094 -0.1924  0.0727
   94SAPC   C35 9174   1.850   0.997   5.919  0.2730 -0.4838 -0.0866
   94SAPC   H5X 9175   1.786   0.910   5.944  0.2949 -0.3783  0.3365
   94SAPC   H5Y 9176   1.954   0.963   5.940  0.4902 -1.7437 -2.7801
   94SAPC   C36 9177   1.835   1.024   5.767 -0.3478  0.2304 -0.3858
   94SAPC   H6X 9178   1.874   1.124   5.738 -1.5554  0.2682 -2.0159
   94SAPC   H6Y 9179   1.727   1.035   5.743 -0.4738  0.4257  0.2580
   94SAPC   C37 9180   1.894   0.908   5.673 -0.3004 -0.3655 -0.5548
   94SAPC   H7X 9181   1.851   0.809   5.699  0.3685 -1.0192 -1.8323
   94SAPC   H7Y 9182   1.997   0.898   5.714 -0.8700 -2.1528  0.5577
   94SAPC   C38 9183   1.890   0.936   5.523 -0.1292  0.4631  0.4753
   94SAPC   H8X 9184   1.787   0.969   5.499  0.0889 -0.7275 -2.5587
   94SAPC   H8Y 9185   1.906   0.841   5.468  0.2353 -0.1875  1.6843
   94SAPC   C39 9186   1.971   1.056   5.474 -0.1702  0.3769 -0.1435
   94SAPC   H9X 9187   2.079   1.036   5.488  0.2815  0.9022 -2.5039
   94SAPC   H9Y 9188   1.948   1.148   5.531  0.5916  0.3499  0.2199
   94SAPC  C310 9189   1.973   1.076   5.319  0.3504  0.6717  0.1302
   94SAPC  H10X 9190   1.868   1.099   5.289 -0.2854 -0.3135  1.4498
   94SAPC  H10Y 9191   2.008   0.979   5.278 -2.6817 -0.1231 -0.8713
   94SAPC  C311 9192   2.073   1.182   5.270  0.1888  0.5400  0.0814
   94SAPC  H11X 9193   2.175   1.166   5.309  0.8037  0.4456 -1.4659
   94SAPC  H11Y 9194   2.048   1.285   5.302 -2.1059  0.3599 -0.9075
   94SAPC  C312 9195   2.078   1.181   5.111  0.2478  0.0107 -0.1400
   94SAPC  H12X 9196   1.977   1.219   5.087 -0.4409 -1.4397  0.3555
   94SAPC  H12Y 9197   2.096   1.083   5.062  0.0472 -0.2823  0.3607
   94SAPC  C313 9198   2.190   1.269   5.048  0.4968 -0.6455  0.2303
   94SAPC  H13X 9199   2.276   1.219   5.099  1.8863  0.6638 -0.7588
   94SAPC  H13Y 9200   2.186   1.376   5.077 -0.1583 -0.3673 -0.8324
   94SAPC  C314 9201   2.211   1.260   4.897  0.1379  0.2281 -0.1305
   94SAPC  H14X 9202   2.118   1.290   4.846 -0.2165 -1.8096 -0.7586
   94SAPC  H14Y 9203   2.236   1.157   4.864 -0.5865 -1.4672  3.9910
   94SAPC  C315 9204   2.325   1.349   4.859  0.2011  0.1949  0.7124
   94SAPC  H15X 9205   2.316   1.446   4.914 -0.0148  0.3032  0.4907
   94SAPC  H15Y 9206   2.329   1.369   4.750 -1.6013 -1.2354  0.3358
   94SAPC  C316 9207   2.459   1.290   4.889 -0.3448  0.4932  0.1864
   94SAPC  H16X 9208   2.496   1.206   4.827 -1.8343  0.0216 -0.0991
   94SAPC  H16Y 9209   2.450   1.242   4.989 -1.3798 -4.0980 -1.8403
   94SAPC  C317 9210   2.561   1.397   4.902 -0.4235  0.1151 -0.7874
   94SAPC  H17X 9211   2.654   1.361   4.951  1.1093  3.1655 -1.1823
   94SAPC  H17Y 9212   2.525   1.481   4.966 -0.8236  0.7868 -1.8587
   94SAPC  C318 9213   2.599   1.460   4.770 -0.0757  0.7106 -0.1832
   94SAPC  H18X 9214   2.518   1.500   4.706  0.5149  1.2555 -0.5980
   94SAPC  H18Y 9215   2.656   1.392   4.704  0.9406 -1.6160  2.8311
   94SAPC  H18Z 9216   2.668   1.544   4.797  1.0210  0.2081 -1.3633
   95SAPC     N 9217   3.354   2.449   2.186 -0.7516 -0.6358  0.1507
   95SAPC   C12 9218   3.444   2.545   2.107  0.2225 -0.3640  0.1450
   95SAPC  H12A 9219   3.387   2.621   2.054  1.5966  0.4195 -0.2443
   95SAPC  H12B 9220   3.493   2.483   2.034  0.3814 -0.8768  0.6833
   95SAPC   C13 9221   3.436   2.372   2.280  0.1090 -1.0960  0.3636
   95SAPC  H13A 9222   3.523   2.338   2.227  0.1460 -0.9583  0.3352
   95SAPC  H13B 9223   3.481   2.430   2.359 -0.5290  1.6484 -1.1391
   95SAPC  H13C 9224   3.379   2.287   2.314 -1.9533 -1.1133 -2.7533
   95SAPC   C14 9225   3.259   2.535   2.270 -0.4067  0.1038  1.1002
   95SAPC  H14A 9226   3.228   2.463   2.345 -1.0374 -1.3153 -0.4564
   95SAPC  H14B 9227   3.307   2.614   2.326  0.1832  0.2380  0.4099
   95SAPC  H14C 9228   3.175   2.572   2.213  1.4689 -0.3519 -2.2331
   95SAPC   C15 9229   3.279   2.362   2.090 -0.4684 -0.3700 -0.1243
   95SAPC  H15A 9230   3.206   2.424   2.041 -0.7198  0.5598  1.3536
   95SAPC  H15B 9231   3.352   2.325   2.019  1.2571  1.4431  0.6149
   95SAPC  H15C 9232   3.238   2.277   2.143 -0.5683 -0.2549 -0.0162
   95SAPC   C11 9233   3.556   2.609   2.188 -0.1757  0.1262  0.3690
   95SAPC  H11A 9234   3.606   2.671   2.110 -1.6000  0.4172 -0.3333
   95SAPC  H11B 9235   3.624   2.528   2.224  0.5232  0.5340 -0.0093
   95SAPC     P 9236   3.584   2.709   2.432  0.1010 -0.1051 -0.2970
   95SAPC   O13 9237   3.523   2.815   2.510  0.2732  0.2937 -0.1533
   95SAPC   O14 9238   3.599   2.578   2.501  0.3030  0.5219  0.9034
   95SAPC   O12 9239   3.506   2.687   2.294 -0.5109  0.3010 -0.6142
   95SAPC   O11 9240   3.726   2.753   2.380 -0.2069 -0.5077  0.2407
   95SAPC    C1 9241   3.794   2.862   2.454  0.6802  0.1969 -0.4400
   95SAPC    HA 9242   3.852   2.924   2.382 -0.1673 -0.0183 -1.3220
   95SAPC    HB 9243   3.735   2.935   2.514 -0.5464  1.0127 -2.5301
   95SAPC    C2 9244   3.878   2.811   2.570  0.2379 -0.3664  0.6832
   95SAPC    HS 9245   3.954   2.756   2.510 -1.4930 -0.6595 -1.3386
   95SAPC   O21 9246   3.803   2.728   2.659  0.2629  0.6098  0.2121
   95SAPC   C21 9247   3.870   2.631   2.720 -0.8455 -1.0672  0.4657
   95SAPC   O22 9248   3.986   2.592   2.697  0.1556  0.0285 -0.4936
   95SAPC   C22 9249   3.787   2.578   2.825 -0.2413  1.2074 -0.4064
   95SAPC   H2R 9250   3.711   2.509   2.783 -0.2392  0.2634  1.0766
   95SAPC   H2S 9251   3.852   2.514   2.888 -1.2453 -0.0924 -0.6539
   95SAPC    C3 9252   3.960   2.923   2.649  0.0511  0.6684 -0.0813
   95SAPC    HX 9253   3.879   2.992   2.682  0.3741  1.2018 -0.3963
   95SAPC    HY 9254   4.015   2.976   2.569 -1.6431 -1.4497 -2.8342
   95SAPC   O31 9255   4.040   2.868   2.758  0.0030 -0.4925  0.2276
   95SAPC   C31 9256   4.074   2.964   2.846 -0.4973 -0.2986 -0.0826
   95SAPC   O32 9257   4.031   3.080   2.840 -0.3892  0.3366  0.1776
   95SAPC   C32 9258   4.167   2.901   2.950 -0.9850 -0.5043  0.4420
   95SAPC   H2X 9259   4.270   2.904   2.909 -0.9155  1.7593  0.6182
   95SAPC   H2Y 9260   4.136   2.795   2.953 -1.5190 -0.6527 -4.0095
   95SAPC   C23 9261   3.709   2.674   2.917 -0.4211 -0.1049  0.4245
   95SAPC   H3R 9262   3.642   2.617   2.984 -2.1869 -1.6581 -2.4320
   95SAPC   H3S 9263   3.641   2.734   2.853 -2.3257 -2.9026 -0.3641
   95SAPC   C24 9264   3.790   2.782   2.992  0.1704 -0.1430  0.2475
   95SAPC   H4R 9265   3.846   2.855   2.931  3.2269 -1.1076  1.6930
   95SAPC   H4S 9266   3.861   2.720   3.051 -0.0543 -0.2620  0.3968
   95SAPC   C25 9267   3.710   2.868   3.089 -0.7203  0.4048  0.4242
   95SAPC   H5R 9268   3.640   2.927   3.027  1.1730 -1.3249 -3.7671
   95SAPC   C26 9269   3.739   2.893   3.218 -0.3295 -0.2629  0.1432
   95SAPC   H6R 9270   3.669   2.959   3.272 -0.9745  0.5117 -1.5692
   95SAPC   C27 9271   3.850   2.838   3.295  0.3422 -0.5426  0.2531
   95SAPC   H7R 9272   3.940   2.828   3.231  0.8749 -0.7034  1.0061
   95SAPC   H7S 9273   3.825   2.737   3.335  1.4076 -0.5669  0.9157
   95SAPC   C28 9274   3.885   2.921   3.416  0.2837  0.2768 -0.5367
   95SAPC   H8R 9275   3.855   3.027   3.411  2.1381  0.8282 -0.8027
   95SAPC   C29 9276   3.969   2.876   3.510  0.7836 -0.3186 -0.1550
   95SAPC   H9R 9277   4.000   2.947   3.588  1.7961 -1.7568  0.7944
   95SAPC  C210 9278   4.028   2.733   3.503  0.0052 -1.0954  0.9356
   95SAPC  H10R 9279   4.042   2.704   3.397  0.3446  0.5390  0.5002
   95SAPC  H10S 9280   3.947   2.666   3.538 -1.6857 -1.4058 -3.1077
   95SAPC  C211 9281   4.147   2.704   3.593 -0.4661 -0.0322 -0.6541
   95SAPC  H11R 9282   4.236   2.683   3.532  1.7074  1.7404  1.6738
   95SAPC  C212 9283   4.158   2.707   3.725 -0.7467 -0.2758 -0.1542
   95SAPC  H12R 9284   4.256   2.690   3.774 -0.1894  0.3364 -1.0230
   95SAPC  C213 9285   4.048   2.748   3.818  0.4417 -0.6260  0.1695
   95SAPC  H13R 9286   3.949   2.739   3.768  2.0758 -4.7009 -2.9100
   95SAPC  H13S 9287   4.065   2.853   3.850  0.8991 -1.0476  1.3477
   95SAPC  C214 9288   4.039   2.685   3.959 -0.2065  0.1109  0.0032
   95SAPC  H14R 9289   4.075   2.583   3.978 -0.1834  0.4889  2.2829
   95SAPC  C215 9290   3.989   2.736   4.068  0.1195  0.2024  0.1539
   95SAPC  H15R 9291   4.001   2.682   4.164 -1.8684 -3.8822 -1.6110
   95SAPC  C216 9292   3.935   2.873   4.085 -0.2091  0.1596 -0.3091
   95SAPC  H16R 9293   3.824   2.866   4.095 -0.4005  0.6544 -1.7593
   95SAPC  H16S 9294   3.948   2.932   3.992 -0.4393  2.1307  0.8455
   95SAPC  C217 9295   4.009   2.967   4.188  0.3988 -0.4163 -0.2691
   95SAPC  H17R 9296   3.951   3.061   4.181  2.9487  1.2967  0.1449
   95SAPC  H17S 9297   4.111   2.984   4.148  1.4533 -3.5183  0.8243
   95SAPC  C218 9298   4.007   2.925   4.338 -0.0716  0.3296 -0.3412
   95SAPC  H18R 9299   4.066   2.833   4.357  1.2955  1.1777 -0.3276
   95SAPC  H18S 9300   3.902   2.900   4.365  0.4244 -0.9296  0.5630
   95SAPC  C219 9301   4.068   3.019   4.444  0.1436 -1.3209  0.6140
   95SAPC  H19R 9302   4.063   2.966   4.542 -3.1512 -3.5612 -0.6115
   95SAPC  H19S 9303   3.993   3.099   4.463 -0.9505 -2.5010  1.4144
   95SAPC  C220 9304   4.205   3.065   4.407 -0.2818 -0.0656  0.3998
   95SAPC  H20R 9305   4.201   3.132   4.318  0.6597 -1.6977 -0.9371
   95SAPC  H20S 9306   4.274   2.978   4.390 -0.1013  0.3321 -1.1023
   95SAPC  H20T 9307   4.251   3.126   4.487 -0.0364  0.0288  0.1895
   95SAPC   C33 9308   4.170   2.972   3.086  0.4841  0.1070  0.1167
   95SAPC   H3X 9309   4.068   2.994   3.123  0.2241 -0.3406 -0.3081
   95SAPC   H3Y 9310   4.226   3.067   3.077 -1.4211  1.2168 -0.3893
   95SAPC   C34 9311   4.237   2.892   3.205  0.1559 -0.6398  0.2108
   95SAPC   H4X 9312   4.174   2.807   3.238  0.2561 -1.4997 -1.6822
   95SAPC   H4Y 9313   4.242   2.975   3.277  0.3795  1.7833 -2.4151
   95SAPC   C35 9314   4.377   2.824   3.179  0.8330 -0.0400  0.6715
   95SAPC   H5X 9315   4.453   2.904   3.166  1.4544 -0.6813  0.2490
   95SAPC   H5Y 9316   4.372   2.771   3.081 -1.5363 -0.8905  1.1694
   95SAPC   C36 9317   4.407   2.734   3.299  0.4718  0.5611 -0.1086
   95SAPC   H6X 9318   4.336   2.649   3.309 -0.4079  0.7140 -3.7707
   95SAPC   H6Y 9319   4.404   2.796   3.392  0.7601  0.8908 -0.3184
   95SAPC   C37 9320   4.550   2.687   3.298  0.1643  0.2177  0.8380
   95SAPC   H7X 9321   4.632   2.762   3.291  1.5118 -1.2475  0.3315
   95SAPC   H7Y 9322   4.553   2.616   3.213 -1.2861 -0.6028  1.4368
   95SAPC   C38 9323   4.582   2.591   3.410 -0.3693 -0.3292 -0.4613
   95SAPC   H8X 9324   4.681   2.544   3.392 -0.0521 -0.2229  0.8723
   95SAPC   H8Y 9325   4.509   2.507   3.413  1.2577 -1.9262 -2.5835
   95SAPC   C39 9326   4.575   2.653   3.551 -0.0519  0.2798 -0.1981
   95SAPC   H9X 9327   4.473   2.694   3.569  0.3296  0.9587  0.5004
   95SAPC   H9Y 9328   4.640   2.743   3.558  0.4847 -0.1800  1.0762
   95SAPC  C310 9329   4.609   2.550   3.661 -0.7976 -0.4786 -0.3846
   95SAPC  H10X 9330   4.705   2.495   3.649 -0.9765 -0.5429 -1.5586
   95SAPC  H10Y 9331   4.523   2.481   3.672 -0.7766 -0.0756  5.2096
   95SAPC  C311 9332   4.613   2.628   3.794  0.1603  0.1042 -0.6756
   95SAPC  H11X 9333   4.532   2.704   3.794  2.2380  2.4924 -3.4302
   95SAPC  H11Y 9334   4.705   2.688   3.803  0.5477 -0.5266 -0.3562
   95SAPC  C312 9335   4.609   2.531   3.918  0.6520  0.1628  0.6939
   95SAPC  H12X 9336   4.681   2.566   3.995 -0.6988  0.0633  2.0410
   95SAPC  H12Y 9337   4.645   2.428   3.893  0.4049  0.5260 -1.3409
   95SAPC  C313 9338   4.474   2.507   3.988 -0.9481  0.9132  0.3399
   95SAPC  H13X 9339   4.415   2.429   3.936 -0.2634 -0.4844  1.5970
   95SAPC  H13Y 9340   4.417   2.603   3.992 -0.6977  1.0269  1.7463
   95SAPC  C314 9341   4.503   2.458   4.132  0.2949  0.6243 -0.3994
   95SAPC  H14X 9342   4.530   2.546   4.194 -1.0287  0.8594 -0.1245
   95SAPC  H14Y 9343   4.577   2.376   4.143 -0.0525  0.4663  1.0012
   95SAPC  C315 9344   4.376   2.389   4.185 -0.0683  1.0383  0.9380
   95SAPC  H15X 9345   4.347   2.310   4.112 -0.4277  0.4781  1.6762
   95SAPC  H15Y 9346   4.287   2.455   4.176 -0.2163  0.6531 -0.8448
   95SAPC  C316 9347   4.403   2.338   4.333 -0.5735 -0.9545  0.0739
   95SAPC  H16X 9348   4.303   2.336   4.381 -1.2013  0.8646 -1.0300
   95SAPC  H16Y 9349   4.473   2.414   4.375  0.4316 -0.2326 -2.7050
   95SAPC  C317 9350   4.458   2.197   4.339  0.4637  1.5159  0.4079
   95SAPC  H17X 9351   4.472   2.184   4.448  0.1020  0.7241  0.3728
   95SAPC  H17Y 9352   4.547   2.189   4.272  0.0080 -4.4854 -0.0488
   95SAPC  C318 9353   4.359   2.090   4.299  0.0912  0.4813 -0.0774
   95SAPC  H18X 9354   4.334   2.099   4.191  2.1905 -2.2930 -0.8980
   95SAPC  H18Y 9355   4.266   2.110   4.357 -1.0343  0.7316 -1.8574
   95SAPC  H18Z 9356   4.401   1.992   4.326 -1.3974 -0.1196  0.1605
   96SAPC     N 9357   4.217   4.263   2.181 -0.3925 -0.4553  0.2332
   96SAPC   C12 9358   4.090   4.242   2.265  0.5008 -0.4336  0.1151
   96SAPC  H12A 9359   4.012   4.180   2.223  0.9962  1.0657 -3.3658
   96SAPC  H12B 9360   4.044   4.337   2.289  2.7957  0.0997  3.0861
   96SAPC   C13 9361   4.279   4.142   2.113 -0.0319  0.5144  0.2306
   96SAPC  H13A 9362   4.311   4.069   2.185  4.2417  0.6450 -1.2345
   96SAPC  H13B 9363   4.201   4.104   2.049 -0.0316  0.5893  0.1852
   96SAPC  H13C 9364   4.356   4.165   2.040  0.4122 -0.6420  0.3202
   96SAPC   C14 9365   4.190   4.354   2.071 -0.1781 -0.4585  0.6951
   96SAPC  H14A 9366   4.143   4.445   2.106 -0.2864 -1.3295  3.0618
   96SAPC  H14B 9367   4.280   4.377   2.018  1.3192 -3.4451  1.7052
   96SAPC  H14C 9368   4.122   4.309   2.000  0.1898 -2.0701  1.3283
   96SAPC   C15 9369   4.319   4.336   2.269 -0.0165 -0.2068  0.1585
   96SAPC  H15A 9370   4.406   4.364   2.212 -1.5141  0.0471 -2.1013
   96SAPC  H15B 9371   4.286   4.435   2.295  3.1038  1.2479 -0.9688
   96SAPC  H15C 9372   4.342   4.274   2.355  0.9868  0.7726  0.6172
   96SAPC   C11 9373   4.115   4.169   2.403 -0.3514  0.2909  0.5402
   96SAPC  H11A 9374   4.015   4.155   2.449 -0.4879 -0.1916  0.1074
   96SAPC  H11B 9375   4.176   4.223   2.478  0.3714  1.9230 -1.1372
   96SAPC     P 9376   4.094   3.904   2.396  0.1752  0.1807  0.2202
   96SAPC   O13 9377   3.957   3.924   2.335  0.0438 -0.0233 -0.1399
   96SAPC   O14 9378   4.164   3.795   2.320 -0.1641 -0.4150  0.2186
   96SAPC   O12 9379   4.173   4.036   2.383 -0.2240 -0.5257 -0.6738
   96SAPC   O11 9380   4.089   3.875   2.552 -0.2418  0.0645 -0.1959
   96SAPC    C1 9381   4.199   3.885   2.633 -0.2234  0.0847 -0.5585
   96SAPC    HA 9382   4.200   3.799   2.703  0.7513 -0.4755 -1.2331
   96SAPC    HB 9383   4.297   3.882   2.581  1.0197  0.5239  1.6551
   96SAPC    C2 9384   4.201   4.009   2.722  0.5790 -0.0355 -0.2086
   96SAPC    HS 9385   4.222   4.099   2.662 -0.2100 -0.8638 -1.7768
   96SAPC   O21 9386   4.299   3.990   2.831  0.4070  0.1435 -0.3691
   96SAPC   C21 9387   4.420   4.017   2.800 -0.5001 -0.1103  0.6044
   96SAPC   O22 9388   4.464   4.051   2.692 -0.2163 -0.0150  0.4014
   96SAPC   C22 9389   4.515   3.984   2.913 -0.4314 -0.4185 -0.2101
   96SAPC   H2R 9390   4.617   4.013   2.879 -0.6712 -0.8807 -1.3830
   96SAPC   H2S 9391   4.489   4.045   3.002 -0.0370  3.5154 -2.5121
   96SAPC    C3 9392   4.059   4.030   2.782  0.6487  0.7724 -0.4974
   96SAPC    HX 9393   4.038   3.943   2.848 -0.4367  0.9608 -0.5848
   96SAPC    HY 9394   3.985   4.014   2.701  1.0010 -1.5335 -0.4233
   96SAPC   O31 9395   4.044   4.155   2.852  0.2494 -0.0033 -0.1332
   96SAPC   C31 9396   4.004   4.250   2.776  0.1005 -1.1433  0.0177
   96SAPC   O32 9397   3.972   4.245   2.660  0.3207  0.5977 -0.0213
   96SAPC   C32 9398   4.001   4.370   2.866 -0.4875 -0.2789 -0.7560
   96SAPC   H2X 9399   4.060   4.452   2.821 -0.0788 -0.4299 -0.5005
   96SAPC   H2Y 9400   4.049   4.349   2.964  1.0073  2.0562 -0.9176
   96SAPC   C23 9401   4.519   3.832   2.952 -0.1588 -0.0877  0.5081
   96SAPC   H3R 9402   4.545   3.771   2.863 -0.3358  3.3103 -2.0653
   96SAPC   H3S 9403   4.427   3.796   3.003  1.6028 -0.0516  4.0242
   96SAPC   C24 9404   4.632   3.792   3.045  0.1402 -0.0292 -0.2999
   96SAPC   H4R 9405   4.618   3.820   3.151 -0.0417 -2.8010  0.4937
   96SAPC   H4S 9406   4.722   3.840   3.000 -0.7372  0.5292 -1.5184
   96SAPC   C25 9407   4.650   3.640   3.046 -0.4002  0.7325 -0.2791
   96SAPC   H5R 9408   4.567   3.580   3.007 -1.8265  1.2738  1.7457
   96SAPC   C26 9409   4.759   3.588   3.101  0.0912  0.5442  0.5752
   96SAPC   H6R 9410   4.770   3.479   3.105  1.8972  0.7231  1.4259
   96SAPC   C27 9411   4.876   3.648   3.172  1.0442 -0.2023  0.3857
   96SAPC   H7R 9412   4.856   3.638   3.281  0.0940  0.8235  0.3138
   96SAPC   H7S 9413   4.878   3.759   3.165  0.2002 -0.0572  1.9439
   96SAPC   C28 9414   5.005   3.585   3.124  0.3446 -0.4003  0.1960
   96SAPC   H8R 9415   5.015   3.591   3.014  1.5589 -0.2487  0.3022
   96SAPC   C29 9416   5.092   3.518   3.200  0.4009 -0.6169 -0.2359
   96SAPC   H9R 9417   5.181   3.475   3.150 -1.8285 -2.2035 -3.1807
   96SAPC  C210 9418   5.082   3.503   3.350 -0.7739  0.2892  0.4650
   96SAPC  H10R 9419   4.994   3.437   3.364  0.5566 -1.3874  1.3753
   96SAPC  H10S 9420   5.074   3.606   3.392 -0.1417  0.6960 -0.3879
   96SAPC  C211 9421   5.202   3.429   3.399  0.2943  0.6783  0.4879
   96SAPC  H11R 9422   5.290   3.490   3.425 -0.9372  1.7573  2.3904
   96SAPC  C212 9423   5.219   3.294   3.421 -0.5633  0.0707 -0.2860
   96SAPC  H12R 9424   5.316   3.271   3.467  0.4346 -0.3158 -2.4629
   96SAPC  C213 9425   5.114   3.184   3.406 -0.1930 -0.3032 -0.7299
   96SAPC  H13R 9426   5.172   3.091   3.424 -2.1827 -1.3338  0.6727
   96SAPC  H13S 9427   5.076   3.183   3.301  1.2458  0.4366 -1.2955
   96SAPC  C214 9428   5.009   3.193   3.512 -0.6141  0.3198  0.2672
   96SAPC  H14R 9429   4.923   3.257   3.485 -2.2647 -1.1709  1.7562
   96SAPC  C215 9430   5.025   3.138   3.636  0.3999 -0.2545 -0.5094
   96SAPC  H15R 9431   4.948   3.155   3.712  1.4080 -1.4715  0.8394
   96SAPC  C216 9432   5.139   3.052   3.689  0.5250 -0.7795 -0.3556
   96SAPC  H16R 9433   5.185   2.998   3.604 -0.1618 -0.0627 -1.1992
   96SAPC  H16S 9434   5.110   2.975   3.764  0.4555  0.2900  0.7448
   96SAPC  C217 9435   5.242   3.135   3.771 -0.0056  0.0562 -0.1523
   96SAPC  H17R 9436   5.266   3.232   3.721  1.2768  0.7596  1.7119
   96SAPC  H17S 9437   5.330   3.070   3.789 -0.3832 -0.2102  0.7521
   96SAPC  C218 9438   5.193   3.177   3.910 -0.0026  0.1092 -0.0244
   96SAPC  H18R 9439   5.161   3.087   3.967  3.2916 -0.8930  0.4887
   96SAPC  H18S 9440   5.105   3.242   3.893 -0.2300  0.6447  2.6583
   96SAPC  C219 9441   5.303   3.252   3.989 -0.2056 -0.0134  0.7626
   96SAPC  H19R 9442   5.328   3.347   3.937  2.5308 -0.9310  0.2302
   96SAPC  H19S 9443   5.387   3.180   3.977 -0.2630 -0.0042  0.2797
   96SAPC  C220 9444   5.260   3.282   4.128 -0.2171  0.1907 -0.1551
   96SAPC  H20R 9445   5.342   3.345   4.166 -0.5709  0.7943 -0.3804
   96SAPC  H20S 9446   5.243   3.190   4.189 -2.3105  3.3095  4.5657
   96SAPC  H20T 9447   5.166   3.341   4.125 -0.1225  0.3578 -3.5179
   96SAPC   C33 9448   3.863   4.440   2.885 -0.2936 -0.5017 -0.2214
   96SAPC   H3X 9449   3.817   4.441   2.784 -1.5942  0.7380  0.3552
   96SAPC   H3Y 9450   3.877   4.543   2.925  0.6444 -0.7565  0.1474
   96SAPC   C34 9451   3.771   4.361   2.974 -0.5133 -0.3977 -0.2261
   96SAPC   H4X 9452   3.827   4.337   3.068 -3.3843  0.4157  1.8215
   96SAPC   H4Y 9453   3.759   4.259   2.932 -0.1797  0.2319 -1.9025
   96SAPC   C35 9454   3.641   4.416   3.023 -0.2658 -0.2181  0.2074
   96SAPC   H5X 9455   3.563   4.400   2.946 -1.4679 -0.2309  1.3730
   96SAPC   H5Y 9456   3.654   4.524   3.047  0.8742 -0.7415  2.1313
   96SAPC   C36 9457   3.590   4.342   3.146  0.5070  0.1106  0.7309
   96SAPC   H6X 9458   3.664   4.354   3.228  0.4135  1.0128  0.6930
   96SAPC   H6Y 9459   3.590   4.234   3.119  0.5873 -0.1745  1.8250
   96SAPC   C37 9460   3.453   4.403   3.187 -0.7193  0.5216 -0.1549
   96SAPC   H7X 9461   3.392   4.397   3.095 -0.0958  0.4917 -0.5787
   96SAPC   H7Y 9462   3.467   4.505   3.230  1.1056 -0.9395  3.0890
   96SAPC   C38 9463   3.382   4.311   3.291 -0.1998 -0.7634 -0.5304
   96SAPC   H8X 9464   3.398   4.204   3.265  0.8224 -0.9498  0.7738
   96SAPC   H8Y 9465   3.277   4.345   3.305  0.1509  0.0759  0.1676
   96SAPC   C39 9466   3.445   4.327   3.435 -0.1343  0.0800  0.2670
   96SAPC   H9X 9467   3.437   4.437   3.450 -1.5499  0.0660 -0.1801
   96SAPC   H9Y 9468   3.554   4.311   3.424  0.0888  1.1993  0.7551
   96SAPC  C310 9469   3.370   4.241   3.538 -0.0050  0.0652  0.3026
   96SAPC  H10X 9470   3.357   4.135   3.507 -0.4471  0.4608 -0.9463
   96SAPC  H10Y 9471   3.271   4.281   3.570 -1.1010 -2.9662  0.9648
   96SAPC  C311 9472   3.454   4.236   3.668  0.0838  0.0933 -0.1790
   96SAPC  H11X 9473   3.486   4.341   3.686 -0.2859  0.1566  0.1188
   96SAPC  H11Y 9474   3.541   4.168   3.655  0.5167  0.0368  2.3642
   96SAPC  C312 9475   3.369   4.177   3.781  0.4800  0.8344  0.5545
   96SAPC  H12X 9476   3.367   4.067   3.766 -0.2633  0.7405  1.2886
   96SAPC  H12Y 9477   3.268   4.222   3.777  1.2416  2.5834  0.0783
   96SAPC  C313 9478   3.431   4.220   3.919  0.3225  0.0096 -0.2173
   96SAPC  H13X 9479   3.436   4.330   3.934  1.6772 -0.0176 -0.3234
   96SAPC  H13Y 9480   3.531   4.173   3.908 -0.1520 -1.1758  0.3512
   96SAPC  C314 9481   3.349   4.147   4.027 -0.6357  0.0538  0.7687
   96SAPC  H14X 9482   3.345   4.037   4.011  3.4031 -0.4737  2.2321
   96SAPC  H14Y 9483   3.254   4.204   4.023 -1.0726 -0.7154 -0.4614
   96SAPC  C315 9484   3.411   4.159   4.164  0.4856 -0.0911 -0.1127
   96SAPC  H15X 9485   3.431   4.262   4.199 -1.2705 -0.0476  0.8641
   96SAPC  H15Y 9486   3.497   4.090   4.175  0.4441 -0.0446  0.5247
   96SAPC  C316 9487   3.318   4.091   4.270 -0.3752  0.2828  0.7621
   96SAPC  H16X 9488   3.287   3.994   4.225  1.0047  1.2164 -2.4542
   96SAPC  H16Y 9489   3.224   4.151   4.270  1.1687  2.8669  1.9077
   96SAPC  C317 9490   3.368   4.064   4.416  0.5706  0.7775  0.2860
   96SAPC  H17X 9491   3.410   4.159   4.456 -0.2372  1.4650 -0.4505
   96SAPC  H17Y 9492   3.452   3.992   4.407  0.3509  0.3616  1.4272
   96SAPC  C318 9493   3.259   4.008   4.517 -0.1765 -0.2341 -0.3314
   96SAPC  H18X 9494   3.167   4.070   4.528 -0.0733 -0.2106  0.4924
   96SAPC  H18Y 9495   3.303   4.012   4.619 -0.3469  1.5351 -0.3022
   96SAPC  H18Z 9496   3.233   3.904   4.490 -0.3691 -0.9271  2.2331
   97SAPC     N 9497   3.004   2.950   2.635 -0.6300  0.2027  0.6263
   97SAPC   C12 9498   3.072   3.085   2.616 -0.8403  0.6287  0.4723
   97SAPC  H12A 9499   3.045   3.121   2.518 -1.1474 -0.9525 -0.0446
   97SAPC  H12B 9500   3.180   3.077   2.621 -0.5351  1.2360 -2.9605
   97SAPC   C13 9501   3.035   2.905   2.774  0.4055  0.6570 -0.8204
   97SAPC  H13A 9502   2.992   2.809   2.801  2.8454  0.1857  2.0397
   97SAPC  H13B 9503   3.141   2.894   2.791  0.7399  1.4696 -2.2702
   97SAPC  H13C 9504   2.984   2.967   2.847 -1.4204 -1.9865  0.3412
   97SAPC   C14 9505   2.857   2.956   2.606  0.2922 -0.0640  0.0688
   97SAPC  H14A 9506   2.806   2.863   2.626 -0.2396  0.5520  1.7806
   97SAPC  H14B 9507   2.819   3.044   2.656 -1.1494  0.5086 -1.8862
   97SAPC  H14C 9508   2.837   2.983   2.503  0.7319  1.9509  0.4725
   97SAPC   C15 9509   3.065   2.850   2.534  0.5562  0.1695  0.7633
   97SAPC  H15A 9510   3.019   2.753   2.535 -1.9298  1.2688  0.0619
   97SAPC  H15B 9511   3.063   2.892   2.435 -1.3180 -0.3534  0.5521
   97SAPC  H15C 9512   3.170   2.832   2.551  1.0096  0.3537 -1.5975
   97SAPC   C11 9513   3.037   3.194   2.718 -0.3561 -0.4713  0.0399
   97SAPC  H11A 9514   3.109   3.274   2.691 -0.9621 -0.5345 -1.8720
   97SAPC  H11B 9515   3.068   3.165   2.821 -1.1982 -0.1095  0.4113
   97SAPC     P 9516   2.851   3.358   2.634  0.3304  0.1651 -0.2937
   97SAPC   O13 9517   2.863   3.308   2.493  0.3526  0.0015  0.1875
   97SAPC   O14 9518   2.712   3.386   2.688 -0.2125 -0.0788 -0.3752
   97SAPC   O12 9519   2.898   3.244   2.726  0.3171  0.0058 -0.2176
   97SAPC   O11 9520   2.937   3.486   2.646 -0.3310  0.4466 -0.2754
   97SAPC    C1 9521   2.897   3.606   2.704  0.7472  0.2743 -0.5650
   97SAPC    HA 9522   2.956   3.690   2.660  2.9235 -2.1802 -2.6764
   97SAPC    HB 9523   2.789   3.625   2.684  0.9721  0.4833 -1.6902
   97SAPC    C2 9524   2.916   3.617   2.857  0.1922  0.1149 -0.2800
   97SAPC    HS 9525   2.913   3.720   2.899  1.9044 -0.0337  0.2634
   97SAPC   O21 9526   3.038   3.550   2.890 -0.2005 -0.4378  0.3977
   97SAPC   C21 9527   3.146   3.606   2.842 -0.4376 -0.0926  0.3595
   97SAPC   O22 9528   3.151   3.720   2.801  0.4417 -0.2342 -0.0053
   97SAPC   C22 9529   3.258   3.509   2.851  0.5771  0.1135 -0.7100
   97SAPC   H2R 9530   3.234   3.415   2.797 -2.1134  0.5273 -0.4105
   97SAPC   H2S 9531   3.355   3.555   2.824 -0.4284  1.7397 -1.7432
   97SAPC    C3 9532   2.806   3.547   2.936  0.3306 -0.8938 -0.0133
   97SAPC    HX 9533   2.808   3.438   2.916  0.7591 -0.4156 -2.9296
   97SAPC    HY 9534   2.707   3.571   2.894 -0.1736 -0.0803  1.5364
   97SAPC   O31 9535   2.811   3.594   3.072  0.1890 -0.1935 -0.0522
   97SAPC   C31 9536   2.839   3.502   3.170 -0.9186  0.1021 -0.8268
   97SAPC   O32 9537   2.834   3.378   3.153 -0.1857 -0.1424  0.2066
   97SAPC   C32 9538   2.880   3.575   3.300  0.9858  0.5004 -0.1456
   97SAPC   H2X 9539   2.785   3.612   3.344  0.6709 -0.5229  0.0595
   97SAPC   H2Y 9540   2.940   3.663   3.269 -0.1331  1.1341 -0.5805
   97SAPC   C23 9541   3.273   3.450   2.998 -0.1540 -0.9193  0.5751
   97SAPC   H3R 9542   3.373   3.402   3.001  0.5474  0.5295  2.8677
   97SAPC   H3S 9543   3.198   3.370   3.015 -2.8704  1.0756 -1.1824
   97SAPC   C24 9544   3.252   3.552   3.112  0.5691  0.5427 -0.1689
   97SAPC   H4R 9545   3.248   3.488   3.202 -1.7100 -1.9319 -1.8694
   97SAPC   H4S 9546   3.145   3.583   3.111 -0.3141 -2.1930 -1.3538
   97SAPC   C25 9547   3.366   3.659   3.120 -0.1170  0.1066 -0.1876
   97SAPC   H5R 9548   3.385   3.708   3.023 -0.1603 -1.6146 -1.1093
   97SAPC   C26 9549   3.433   3.690   3.237 -0.5389 -1.1875  0.1907
   97SAPC   H6R 9550   3.498   3.779   3.233 -0.3145 -1.3814 -0.6473
   97SAPC   C27 9551   3.409   3.632   3.372  0.0419 -0.3015 -0.6698
   97SAPC   H7R 9552   3.500   3.583   3.412 -0.6492 -0.5380  0.6652
   97SAPC   H7S 9553   3.330   3.554   3.360 -1.3270  1.0958 -1.1805
   97SAPC   C28 9554   3.357   3.736   3.466 -0.1341  0.1871 -0.1877
   97SAPC   H8R 9555   3.257   3.777   3.446  0.4710  2.0015  0.3012
   97SAPC   C29 9556   3.414   3.781   3.573 -0.0481  0.8365 -0.3676
   97SAPC   H9R 9557   3.359   3.858   3.630  0.0414  0.3353  0.4060
   97SAPC  C210 9558   3.545   3.738   3.643 -0.4003  0.3901  0.8245
   97SAPC  H10R 9559   3.609   3.670   3.583  0.0256 -0.8954  2.6589
   97SAPC  H10S 9560   3.508   3.674   3.726 -3.0536 -0.9724 -1.2481
   97SAPC  C211 9561   3.629   3.855   3.690  0.6705  0.8655  0.5597
   97SAPC  H11R 9562   3.590   3.897   3.784  1.1957  0.5173  0.9370
   97SAPC  C212 9563   3.731   3.909   3.632 -0.0865  0.0645  0.6714
   97SAPC  H12R 9564   3.780   3.985   3.695 -0.8321  0.3617  0.9115
   97SAPC  C213 9565   3.792   3.870   3.504  0.4068 -0.0761  0.2728
   97SAPC  H13R 9566   3.711   3.887   3.431 -0.6218 -1.8311  0.9519
   97SAPC  H13S 9567   3.796   3.764   3.472  0.8396  0.8691 -3.1488
   97SAPC  C214 9568   3.919   3.929   3.460  0.1854  0.0547  0.5653
   97SAPC  H14R 9569   4.008   3.889   3.510  3.0715 -2.0367 -5.3202
   97SAPC  C215 9570   3.942   4.005   3.350 -0.2489  0.7284  0.0639
   97SAPC  H15R 9571   4.046   4.027   3.322 -0.6213  1.2317 -0.9630
   97SAPC  C216 9572   3.840   4.058   3.242 -0.1283  0.6911  0.0003
   97SAPC  H16R 9573   3.823   4.167   3.242 -0.9769  0.5687  0.5017
   97SAPC  H16S 9574   3.744   4.004   3.254  0.6146 -0.5153  0.7616
   97SAPC  C217 9575   3.879   4.010   3.106  0.1382  0.2688 -0.5694
   97SAPC  H17R 9576   3.981   4.046   3.081 -0.3841  2.0916 -0.2757
   97SAPC  H17S 9577   3.806   4.052   3.033  0.9776  1.4350 -0.7693
   97SAPC  C218 9578   3.888   3.852   3.083  0.5394 -0.4427  0.1492
   97SAPC  H18R 9579   3.959   3.814   3.160  3.5762  1.3174 -1.5759
   97SAPC  H18S 9580   3.917   3.833   2.977  1.2959 -0.4577  0.3517
   97SAPC  C219 9581   3.745   3.786   3.103  0.6136 -0.6140  0.4935
   97SAPC  H19R 9582   3.690   3.813   3.010  0.4104 -2.3367  0.0916
   97SAPC  H19S 9583   3.697   3.824   3.196 -0.3972  0.1511 -0.3136
   97SAPC  C220 9584   3.762   3.636   3.134 -0.0047 -0.5153  0.6743
   97SAPC  H20R 9585   3.767   3.628   3.245 -1.8595  1.8159  1.0070
   97SAPC  H20S 9586   3.855   3.589   3.097  0.4108  1.1977 -0.5489
   97SAPC  H20T 9587   3.675   3.575   3.101  0.2898 -0.3968 -0.3320
   97SAPC   C33 9588   2.961   3.483   3.406  0.3097  0.2581  0.4673
   97SAPC   H3X 9589   3.042   3.423   3.360  0.1962 -0.0637  0.6880
   97SAPC   H3Y 9590   2.892   3.404   3.444  2.1602 -1.6178  0.1152
   97SAPC   C34 9591   3.013   3.565   3.522 -0.9201 -0.5279  0.3540
   97SAPC   H4X 9592   2.929   3.608   3.581 -0.9418 -1.7350  1.2321
   97SAPC   H4Y 9593   3.074   3.653   3.492  0.3120 -0.9424  1.5599
   97SAPC   C35 9594   3.095   3.487   3.622 -0.4307 -0.3573  0.2474
   97SAPC   H5X 9595   3.202   3.514   3.608 -0.4322  0.1270  1.0896
   97SAPC   H5Y 9596   3.092   3.379   3.597  2.3220 -0.7673  1.3005
   97SAPC   C36 9597   3.058   3.505   3.772 -0.0879  0.1224 -0.6645
   97SAPC   H6X 9598   3.098   3.420   3.831 -3.4590 -0.8659  0.4179
   97SAPC   H6Y 9599   2.947   3.507   3.776 -0.0451  1.2667  2.4407
   97SAPC   C37 9600   3.116   3.640   3.819  0.9921  0.1913  0.3149
   97SAPC   H7X 9601   3.053   3.683   3.900  1.5082 -0.5977  1.1409
   97SAPC   H7Y 9602   3.126   3.714   3.736 -0.5340  1.8010  1.4809
   97SAPC   C38 9603   3.249   3.612   3.899 -0.3258 -0.7366  0.1928
   97SAPC   H8X 9604   3.325   3.574   3.826  1.4370  2.5006  0.1650
   97SAPC   H8Y 9605   3.234   3.526   3.967  0.6582 -1.2565 -0.2245
   97SAPC   C39 9606   3.301   3.735   3.960 -0.2879  0.0416  0.3042
   97SAPC   H9X 9607   3.220   3.781   4.019 -0.5869  1.8611 -1.4125
   97SAPC   H9Y 9608   3.324   3.800   3.872 -1.1544 -1.4866 -1.1166
   97SAPC  C310 9609   3.434   3.715   4.032 -0.0926 -0.1563 -0.2118
   97SAPC  H10X 9610   3.472   3.819   4.048  1.4115 -0.8842  1.2545
   97SAPC  H10Y 9611   3.502   3.668   3.958  1.3322  2.6063 -0.8103
   97SAPC  C311 9612   3.410   3.633   4.152  0.2043 -0.5649  0.1851
   97SAPC  H11X 9613   3.485   3.551   4.161 -0.4318 -1.0794  0.8751
   97SAPC  H11Y 9614   3.308   3.590   4.151  0.7000 -1.7903 -1.4029
   97SAPC  C312 9615   3.424   3.707   4.287 -0.3490 -0.4444  0.5007
   97SAPC  H12X 9616   3.346   3.786   4.296  0.7557  0.8717 -0.7927
   97SAPC  H12Y 9617   3.525   3.751   4.295 -0.7249  0.4947  0.2321
   97SAPC  C313 9618   3.413   3.605   4.402 -0.2737 -1.0826 -0.6996
   97SAPC  H13X 9619   3.479   3.518   4.383 -0.9998 -1.6686 -0.5743
   97SAPC  H13Y 9620   3.310   3.568   4.384 -1.3014  1.1183  0.2086
   97SAPC  C314 9621   3.412   3.658   4.546  0.4338 -0.3851 -0.1253
   97SAPC  H14X 9622   3.404   3.579   4.623  0.3946  0.7311  1.0603
   97SAPC  H14Y 9623   3.326   3.728   4.558  1.0773  0.9095 -2.4748
   97SAPC  C315 9624   3.543   3.721   4.586  0.0207  0.1897  0.5781
   97SAPC  H15X 9625   3.541   3.763   4.689  0.2860  0.2563  0.5570
   97SAPC  H15Y 9626   3.571   3.799   4.511  0.0459 -2.2543 -2.1463
   97SAPC  C316 9627   3.670   3.634   4.579 -0.5119  0.4325  0.2602
   97SAPC  H16X 9628   3.679   3.593   4.476 -3.5587  1.2393 -0.4242
   97SAPC  H16Y 9629   3.666   3.549   4.651 -0.3605  0.5355  0.3915
   97SAPC  C317 9630   3.799   3.711   4.619 -0.9141  0.1534  0.8182
   97SAPC  H17X 9631   3.774   3.786   4.697 -2.3228  0.1053  0.4388
   97SAPC  H17Y 9632   3.837   3.762   4.528 -3.6876  0.4005 -0.3005
   97SAPC  C318 9633   3.919   3.621   4.664  0.2174  0.0355  0.0582
   97SAPC  H18X 9634   4.009   3.681   4.686  0.3055  0.0516 -0.3344
   97SAPC  H18Y 9635   3.943   3.543   4.587  3.0963 -1.9108  2.6803
   97SAPC  H18Z 9636   3.900   3.561   4.755  0.5499 -1.7138 -0.9690
   98SAPC     N 9637   5.752   4.592   2.438  0.2244  0.5052  0.3572
   98SAPC   C12 9638   5.658   4.711   2.477  1.2651  0.3818 -1.0182
   98SAPC  H12A 9639   5.576   4.671   2.535  1.9811  2.0344  1.3362
   98SAPC  H12B 9640   5.611   4.753   2.389 -0.7106  1.8340  0.5907
   98SAPC   C13 9641   5.682   4.473   2.369 -0.3993  0.2928 -0.7840
   98SAPC  H13A 9642   5.627   4.501   2.280 -0.4798  0.7647 -0.5861
   98SAPC  H13B 9643   5.752   4.393   2.348  0.2362  0.8518 -0.8585
   98SAPC  H13C 9644   5.611   4.426   2.435  1.8482 -0.1878  1.4344
   98SAPC   C14 9645   5.870   4.631   2.357 -0.8486  0.8582 -0.6948
   98SAPC  H14A 9646   5.946   4.555   2.362  0.0046  1.5590 -2.4050
   98SAPC  H14B 9647   5.847   4.627   2.252  2.5066 -2.2498 -1.4787
   98SAPC  H14C 9648   5.909   4.727   2.388 -1.7156  0.8158  0.6442
   98SAPC   C15 9649   5.808   4.544   2.565 -0.1963  0.7415 -0.1084
   98SAPC  H15A 9650   5.741   4.515   2.645  0.4120 -1.0496 -0.2133
   98SAPC  H15B 9651   5.864   4.454   2.547 -2.3439 -0.3498 -1.7362
   98SAPC  H15C 9652   5.876   4.613   2.613 -1.7717  2.6088 -0.4324
   98SAPC   C11 9653   5.721   4.837   2.543  0.5737 -0.3377 -0.2180
   98SAPC  H11A 9654   5.760   4.807   2.643  2.3811 -0.7727 -1.0076
   98SAPC  H11B 9655   5.641   4.913   2.555  2.1254  1.3053  0.1233
   98SAPC     P 9656   5.941   4.966   2.539 -0.1469 -0.1973  0.2608
   98SAPC   O13 9657   6.062   4.879   2.536 -0.2355  0.1124  0.3420
   98SAPC   O14 9658   5.954   5.099   2.472 -0.1631 -0.3175  0.0855
   98SAPC   O12 9659   5.823   4.892   2.465  0.2048 -0.5442  0.2352
   98SAPC   O11 9660   5.900   4.981   2.686 -0.6017 -0.1871 -0.8561
   98SAPC    C1 9661   5.827   5.102   2.731 -0.1954 -0.4015 -1.0249
   98SAPC    HA 9662   5.822   5.186   2.659 -1.6804 -0.4857 -1.0521
   98SAPC    HB 9663   5.721   5.071   2.736 -0.7901  1.5007 -1.3449
   98SAPC    C2 9664   5.872   5.150   2.874  0.2598  0.0447 -0.1163
   98SAPC    HS 9665   5.832   5.253   2.879 -2.4114 -0.9571  1.2648
   98SAPC   O21 9666   6.017   5.163   2.874 -0.1628 -0.0128 -0.4405
   98SAPC   C21 9667   6.075   5.245   2.785  0.0283  0.3959  0.2773
   98SAPC   O22 9668   6.017   5.313   2.701  0.0758  0.4101 -0.4223
   98SAPC   C22 9669   6.223   5.252   2.829  0.6194  0.1870 -0.5094
   98SAPC   H2R 9670   6.239   5.205   2.929 -0.5387 -1.3309 -0.9956
   98SAPC   H2S 9671   6.276   5.186   2.757  0.5155  0.4723 -0.8519
   98SAPC    C3 9672   5.825   5.067   2.991 -0.3278 -0.1122 -0.7324
   98SAPC    HX 9673   5.860   5.114   3.086  2.7503  0.5184 -2.0259
   98SAPC    HY 9674   5.884   4.973   2.990  3.2648  1.9024  0.2854
   98SAPC   O31 9675   5.683   5.054   3.003  0.4541  0.4500  0.4392
   98SAPC   C31 9676   5.639   4.930   3.003 -0.6352  0.3416 -0.2413
   98SAPC   O32 9677   5.710   4.832   3.016  0.0530  0.0578  0.6270
   98SAPC   C32 9678   5.486   4.931   2.988  0.8110 -0.3674 -0.4752
   98SAPC   H2X 9679   5.454   4.825   2.984  0.6891 -0.3019 -1.6617
   98SAPC   H2Y 9680   5.471   4.974   2.886  0.4081  1.8720  0.4650
   98SAPC   C23 9681   6.277   5.405   2.831  0.5578  0.7692 -0.0853
   98SAPC   H3R 9682   6.263   5.466   2.740 -2.1727 -2.9367 -2.4343
   98SAPC   H3S 9683   6.388   5.398   2.837  0.5470  1.2876  1.1316
   98SAPC   C24 9684   6.234   5.490   2.948  0.2514  0.0889 -0.2810
   98SAPC   H4R 9685   6.280   5.591   2.944  0.2904  0.2958  2.7356
   98SAPC   H4S 9686   6.272   5.437   3.038 -2.1644 -2.1330 -0.4579
   98SAPC   C25 9687   6.086   5.511   2.958  0.0216 -0.5768 -0.0786
   98SAPC   H5R 9688   6.042   5.556   2.868  1.2033  2.1069  0.5979
   98SAPC   C26 9689   6.005   5.472   3.055  0.2555  0.5583  0.5374
   98SAPC   H6R 9690   5.897   5.491   3.047  0.5276  1.5679 -1.2550
   98SAPC   C27 9691   6.046   5.416   3.188 -0.4639 -0.2438  0.1664
   98SAPC   H7R 9692   6.117   5.486   3.238 -0.0527 -2.1404  2.4262
   98SAPC   H7S 9693   6.114   5.329   3.177 -1.0792 -0.6433 -0.4727
   98SAPC   C28 9694   5.935   5.378   3.276  0.5833 -0.1537 -0.1994
   98SAPC   H8R 9695   5.840   5.351   3.227  1.2188 -0.9313 -1.0301
   98SAPC   C29 9696   5.937   5.378   3.406 -0.1434 -0.4496  0.5901
   98SAPC   H9R 9697   5.846   5.347   3.459 -0.1841 -1.3684  0.0057
   98SAPC  C210 9698   6.055   5.416   3.495  0.2129  0.7136  0.9110
   98SAPC  H10R 9699   6.150   5.435   3.440 -0.1124 -1.0713 -0.3626
   98SAPC  H10S 9700   6.074   5.333   3.567 -0.2952  0.5206  0.8240
   98SAPC  C211 9701   6.033   5.546   3.567  0.5862  0.0303  0.0530
   98SAPC  H11R 9702   6.068   5.635   3.513 -1.5422  0.3346 -0.9251
   98SAPC  C212 9703   6.001   5.564   3.697  0.2969 -0.5667  1.2377
   98SAPC  H12R 9704   5.987   5.663   3.743 -1.4523 -0.9962  1.7183
   98SAPC  C213 9705   5.968   5.457   3.793 -0.0043  0.1643 -0.2531
   98SAPC  H13R 9706   5.965   5.354   3.751  1.1116 -0.6849  1.6534
   98SAPC  H13S 9707   5.862   5.474   3.822 -0.4254 -0.2087 -1.4950
   98SAPC  C214 9708   6.077   5.465   3.894  0.0375  0.5353  0.2305
   98SAPC  H14R 9709   6.171   5.424   3.853 -0.3070  0.8063 -0.8690
   98SAPC  C215 9710   6.078   5.524   4.013 -0.0088  0.0630 -0.3420
   98SAPC  H15R 9711   6.167   5.522   4.078 -1.1772  1.0542  1.3824
   98SAPC  C216 9712   5.956   5.581   4.080  0.5591  0.0171 -0.3001
   98SAPC  H16R 9713   5.923   5.524   4.169 -0.0996  1.3347  0.3203
   98SAPC  H16S 9714   5.873   5.574   4.007 -1.3329 -2.6083  1.9039
   98SAPC  C217 9715   5.973   5.725   4.132 -0.2792 -0.9794 -0.7073
   98SAPC  H17R 9716   5.957   5.803   4.054 -2.2466 -1.7927 -1.1755
   98SAPC  H17S 9717   6.075   5.736   4.175 -0.7693 -1.4900  0.6344
   98SAPC  C218 9718   5.873   5.757   4.247 -0.4169 -1.0723  0.6858
   98SAPC  H18R 9719   5.903   5.711   4.343 -2.3972 -1.5212  1.1216
   98SAPC  H18S 9720   5.769   5.723   4.227 -0.6325 -1.8945  2.9744
   98SAPC  C219 9721   5.877   5.911   4.275 -0.4528  0.1279  0.0340
   98SAPC  H19R 9722   5.826   5.984   4.208  3.3733  2.4625 -0.6366
   98SAPC  H19S 9723   5.981   5.948   4.262  0.2787 -2.1921 -1.0773
   98SAPC  C220 9724   5.828   5.935   4.417 -0.2463 -0.1207 -0.4162
   98SAPC  H20R 9725   5.883   5.884   4.500  1.2172 -3.1920 -3.0432
   98SAPC  H20S 9726   5.731   5.883   4.424  0.6408 -1.6464  2.3208
   98SAPC  H20T 9727   5.822   6.045   4.428  0.0057  0.3967 -4.1106
   98SAPC   C33 9728   5.407   5.002   3.100 -0.2171 -0.3545  0.2565
   98SAPC   H3X 9729   5.297   5.004   3.082 -0.0703  1.9546 -0.8050
   98SAPC   H3Y 9730   5.440   5.108   3.107 -0.0003 -0.5246  2.6009
   98SAPC   C34 9731   5.426   4.931   3.236  0.4500 -0.1829 -0.9056
   98SAPC   H4X 9732   5.529   4.941   3.277 -0.1242 -1.7811  1.0624
   98SAPC   H4Y 9733   5.403   4.825   3.217 -0.4482 -0.5224  1.6565
   98SAPC   C35 9734   5.320   4.980   3.338  0.0102 -0.5963 -0.0141
   98SAPC   H5X 9735   5.218   4.971   3.294  0.5815 -0.2017 -1.4566
   98SAPC   H5Y 9736   5.338   5.086   3.365  3.4865 -0.9227 -0.6358
   98SAPC   C36 9737   5.311   4.893   3.468 -0.1384 -0.1385  0.3052
   98SAPC   H6X 9738   5.406   4.908   3.524 -0.5376 -2.3717  1.6990
   98SAPC   H6Y 9739   5.309   4.784   3.446  0.2752  0.3451 -2.4477
   98SAPC   C37 9740   5.189   4.920   3.556  0.1656  0.3985  0.0213
   98SAPC   H7X 9741   5.092   4.902   3.505  1.3163  1.4313 -2.7355
   98SAPC   H7Y 9742   5.196   5.025   3.591 -0.1840  0.2860  0.4284
   98SAPC   C38 9743   5.205   4.841   3.692 -0.2951 -0.1173 -0.0371
   98SAPC   H8X 9744   5.300   4.871   3.741 -0.0963  0.8017 -0.9353
   98SAPC   H8Y 9745   5.208   4.733   3.668 -1.5413  0.0165 -0.8953
   98SAPC   C39 9746   5.088   4.873   3.791 -0.4369  0.4758  0.4526
   98SAPC   H9X 9747   4.990   4.875   3.738 -0.7745 -0.1535  1.0377
   98SAPC   H9Y 9748   5.100   4.976   3.830  1.3303  0.6979 -0.5783
   98SAPC  C310 9749   5.091   4.779   3.916 -0.3905  0.0204  0.1011
   98SAPC  H10X 9750   5.192   4.775   3.963 -0.1836 -1.6422 -0.4205
   98SAPC  H10Y 9751   5.064   4.678   3.878 -1.1137  0.7540 -1.4462
   98SAPC  C311 9752   4.982   4.825   4.018 -0.0528  0.2554 -0.3182
   98SAPC  H11X 9753   4.885   4.822   3.965 -0.5472 -0.1668  0.5811
   98SAPC  H11Y 9754   4.999   4.926   4.061  0.5866 -0.2664  0.6921
   98SAPC  C312 9755   4.983   4.734   4.139 -0.4451 -0.6250 -0.4241
   98SAPC  H12X 9756   5.022   4.793   4.225 -4.2277 -0.8417  1.6625
   98SAPC  H12Y 9757   5.050   4.648   4.118 -1.9280 -1.3680 -2.3931
   98SAPC  C313 9758   4.841   4.687   4.177  0.0599 -0.4006 -0.7168
   98SAPC  H13X 9759   4.780   4.652   4.091  3.2821 -4.0146 -1.8439
   98SAPC  H13Y 9760   4.790   4.776   4.219  2.1319  0.3400  0.3825
   98SAPC  C314 9761   4.849   4.576   4.292 -0.2066  0.9522  0.2976
   98SAPC  H14X 9762   4.918   4.494   4.266 -1.0505 -0.0019  1.0069
   98SAPC  H14Y 9763   4.748   4.539   4.318  0.8239 -0.7218  2.2091
   98SAPC  C315 9764   4.891   4.633   4.425  0.0773  1.1191 -0.0491
   98SAPC  H15X 9765   4.838   4.730   4.430 -1.5393  0.3121 -0.9342
   98SAPC  H15Y 9766   5.002   4.642   4.434  0.4102 -1.9789  0.0574
   98SAPC  C316 9767   4.852   4.530   4.533 -0.0584 -0.4051  0.1503
   98SAPC  H16X 9768   4.905   4.433   4.523 -0.0991 -0.4567  0.4135
   98SAPC  H16Y 9769   4.745   4.500   4.527  0.6254 -2.9022 -0.5261
   98SAPC  C317 9770   4.886   4.594   4.671  0.7916  0.3191  0.3875
   98SAPC  H17X 9771   4.997   4.600   4.684  0.6271  1.3806  1.4177
   98SAPC  H17Y 9772   4.843   4.532   4.753  0.7924 -0.8737 -0.4814
   98SAPC  C318 9773   4.826   4.734   4.700 -0.5044 -0.0409  0.4515
   98SAPC  H18X 9774   4.716   4.737   4.684 -0.4285 -0.3513 -0.1847
   98SAPC  H18Y 9775   4.871   4.808   4.630 -1.0657  1.0379  1.2092
   98SAPC  H18Z 9776   4.865   4.777   4.794  1.5664  0.3625 -0.5281
   99SAPC     N 9777   6.083   1.810   2.066  0.5376 -0.0376 -0.5540
   99SAPC   C12 9778   6.034   1.780   2.207  0.1139  0.5419 -0.0074
   99SAPC  H12A 9779   5.929   1.806   2.212 -0.0209  0.0632 -0.3451
   99SAPC  H12B 9780   6.087   1.855   2.264 -2.3921  1.7011  0.9915
   99SAPC   C13 9781   6.048   1.947   2.021 -0.3902 -0.4548  0.0853
   99SAPC  H13A 9782   6.100   2.027   2.072 -2.4194 -0.2207  1.9871
   99SAPC  H13B 9783   6.070   1.948   1.916 -0.6699  2.2311 -0.0380
   99SAPC  H13C 9784   5.944   1.978   2.031 -0.0100  1.6466 -1.7103
   99SAPC   C14 9785   6.227   1.787   2.056  0.4046  0.0575  0.0088
   99SAPC  H14A 9786   6.259   1.814   1.956 -0.4693 -1.5121 -0.7400
   99SAPC  H14B 9787   6.278   1.851   2.126  1.4722 -2.2150  1.3973
   99SAPC  H14C 9788   6.256   1.687   2.084 -1.1345 -0.2588  0.5415
   99SAPC   C15 9789   6.021   1.705   1.975 -0.4492 -0.8609  0.7950
   99SAPC  H15A 9790   6.032   1.729   1.870 -0.8988 -1.3827  0.6244
   99SAPC  H15B 9791   6.076   1.613   1.984 -0.9858 -1.0403  2.7234
   99SAPC  H15C 9792   5.915   1.687   1.991 -1.6963  2.5230 -2.2920
   99SAPC   C11 9793   6.048   1.648   2.274  0.1318  0.2541  0.1615
   99SAPC  H11A 9794   6.024   1.665   2.382  1.5831  2.0672  0.2373
   99SAPC  H11B 9795   6.154   1.616   2.274  0.1257  0.2328 -0.1655
   99SAPC     P 9796   5.825   1.516   2.230 -0.3069 -0.0372  0.3298
   99SAPC   O13 9797   5.759   1.642   2.268  0.0616  0.0999  0.4278
   99SAPC   O14 9798   5.766   1.442   2.114  0.3418 -0.1335  0.0140
   99SAPC   O12 9799   5.978   1.544   2.206 -0.0039  0.1494 -0.5141
   99SAPC   O11 9800   5.838   1.410   2.348  0.5120 -0.4653 -0.1921
   99SAPC    C1 9801   5.933   1.303   2.349 -0.5450  0.8426  0.1874
   99SAPC    HA 9802   5.884   1.214   2.304 -0.7312  2.1477 -2.3650
   99SAPC    HB 9803   6.014   1.325   2.276 -0.0496  0.7928  0.7168
   99SAPC    C2 9804   5.993   1.273   2.490  0.9214  0.2898  0.1055
   99SAPC    HS 9805   6.071   1.194   2.491 -0.5939 -1.2703 -0.3142
   99SAPC   O21 9806   5.891   1.216   2.582 -0.1059  0.2796  0.0152
   99SAPC   C21 9807   5.845   1.097   2.554 -0.0770 -0.6441  0.0414
   99SAPC   O22 9808   5.887   1.018   2.466 -0.4666  0.0094  0.2517
   99SAPC   C22 9809   5.719   1.066   2.641  0.5681  0.3603 -0.4131
   99SAPC   H2R 9810   5.709   1.147   2.716  1.3974  0.9994 -0.9706
   99SAPC   H2S 9811   5.625   1.062   2.582  0.9349  2.8763 -1.3166
   99SAPC    C3 9812   6.050   1.404   2.562 -0.0253 -0.4950 -0.4888
   99SAPC    HX 9813   5.971   1.479   2.540 -0.5989 -1.1599 -0.7318
   99SAPC    HY 9814   6.141   1.432   2.504  0.4902 -0.4210  0.3320
   99SAPC   O31 9815   6.081   1.384   2.696  0.0979  0.5581 -0.6702
   99SAPC   C31 9816   6.085   1.483   2.784  0.1546  0.1998 -0.5859
   99SAPC   O32 9817   6.050   1.600   2.769  0.3821  0.4979  0.0800
   99SAPC   C32 9818   6.150   1.426   2.905  0.2736 -0.4186  0.0044
   99SAPC   H2X 9819   6.248   1.478   2.914 -0.1020  0.5023 -0.9366
   99SAPC   H2Y 9820   6.157   1.316   2.898  0.3516 -0.4666  0.8234
   99SAPC   C23 9821   5.736   0.932   2.718  0.2349 -0.5555 -0.5691
   99SAPC   H3R 9822   5.762   0.843   2.658 -2.2917 -1.3723 -0.5877
   99SAPC   H3S 9823   5.644   0.906   2.774  0.5176  0.5949  0.4719
   99SAPC   C24 9824   5.843   0.946   2.832  0.0546 -0.4169  0.5464
   99SAPC   H4R 9825   5.808   1.027   2.900  1.4173 -0.3218  1.1815
   99SAPC   H4S 9826   5.940   0.971   2.783 -2.0305  1.2890 -3.1634
   99SAPC   C25 9827   5.853   0.811   2.901  0.0571 -0.4261  0.0212
   99SAPC   H5R 9828   5.942   0.752   2.875  0.0533 -1.1778  1.5993
   99SAPC   C26 9829   5.772   0.753   2.982  0.6225 -0.0927  0.5880
   99SAPC   H6R 9830   5.796   0.649   3.008 -0.4975 -1.7125 -3.8168
   99SAPC   C27 9831   5.637   0.805   3.036 -0.1885  0.3500 -0.1728
   99SAPC   H7R 9832   5.649   0.915   3.039  2.2724  0.1122  1.8294
   99SAPC   H7S 9833   5.631   0.794   3.146  0.3978 -0.9562 -0.2425
   99SAPC   C28 9834   5.518   0.751   2.967  0.0666  0.5677  0.2217
   99SAPC   H8R 9835   5.539   0.705   2.869  0.9471  1.4704 -0.0305
   99SAPC   C29 9836   5.396   0.736   3.017  0.3860  0.6361 -0.1380
   99SAPC   H9R 9837   5.327   0.685   2.949 -0.2146  0.6279  0.4654
   99SAPC  C210 9838   5.359   0.789   3.151  0.3909  1.3756  0.8639
   99SAPC  H10R 9839   5.360   0.900   3.154  1.7799  1.5400 -2.1766
   99SAPC  H10S 9840   5.435   0.754   3.224 -1.9692 -1.7854  2.0547
   99SAPC  C211 9841   5.222   0.738   3.188 -0.1874 -0.4673 -0.4223
   99SAPC  H11R 9842   5.137   0.749   3.119 -0.9704  0.4189  0.6480
   99SAPC  C212 9843   5.206   0.664   3.302  0.2430  0.0747  0.5027
   99SAPC  H12R 9844   5.103   0.634   3.325  0.8251 -0.2769  2.8810
   99SAPC  C213 9845   5.306   0.627   3.410  0.4205  0.0058  0.1251
   99SAPC  H13R 9846   5.249   0.603   3.502  0.1450 -0.9219 -0.2821
   99SAPC  H13S 9847   5.378   0.709   3.432  0.4012 -0.0647  0.4600
   99SAPC  C214 9848   5.390   0.505   3.367 -0.3401  0.0250  0.2130
   99SAPC  H14R 9849   5.474   0.521   3.298  0.3180 -1.2325  0.6930
   99SAPC  C215 9850   5.359   0.376   3.403 -0.5398 -0.6403  0.5985
   99SAPC  H15R 9851   5.420   0.304   3.347  1.6801  1.0853  0.6978
   99SAPC  C216 9852   5.255   0.334   3.493 -1.5918  0.9992 -0.0398
   99SAPC  H16R 9853   5.192   0.273   3.425  0.0379  1.0364 -1.6901
   99SAPC  H16S 9854   5.184   0.406   3.540 -2.2152 -0.6143  1.5786
   99SAPC  C217 9855   5.324   0.252   3.609  0.2795  0.1107  0.1777
   99SAPC  H17R 9856   5.383   0.169   3.564  0.4056  1.4724 -2.3332
   99SAPC  H17S 9857   5.231   0.208   3.651 -0.1247 -3.6112 -3.8483
   99SAPC  C218 9858   5.385   0.332   3.720  0.3151 -0.3706 -0.3634
   99SAPC  H18R 9859   5.318   0.420   3.732 -1.5920 -1.3423 -2.9310
   99SAPC  H18S 9860   5.482   0.379   3.691  0.1930  0.1160  0.0014
   99SAPC  C219 9861   5.393   0.271   3.867 -0.0260  0.5549  0.2799
   99SAPC  H19R 9862   5.466   0.188   3.880  1.1460  1.0706 -2.4075
   99SAPC  H19S 9863   5.300   0.212   3.881  0.9488 -0.7391  1.6733
   99SAPC  C220 9864   5.414   0.379   3.970 -0.0495 -0.2022 -0.9358
   99SAPC  H20R 9865   5.334   0.456   3.967  0.4071  0.4560  1.4447
   99SAPC  H20S 9866   5.516   0.423   3.959  0.1152 -0.7073 -1.4646
   99SAPC  H20T 9867   5.406   0.327   4.068  2.2661 -0.3430 -0.7703
   99SAPC   C33 9868   6.067   1.450   3.038  0.4890 -0.6278 -0.0975
   99SAPC   H3X 9869   5.978   1.383   3.038  0.4235 -0.6088  1.9095
   99SAPC   H3Y 9870   6.029   1.555   3.044 -0.6087 -1.0441  0.5636
   99SAPC   C34 9871   6.144   1.414   3.167 -0.3321  0.0646  0.7693
   99SAPC   H4X 9872   6.232   1.480   3.184  0.0414  0.2519 -1.6389
   99SAPC   H4Y 9873   6.178   1.308   3.166 -1.6799 -0.4074  1.4133
   99SAPC   C35 9874   6.055   1.440   3.289 -0.4296 -0.2423 -0.5614
   99SAPC   H5X 9875   5.974   1.364   3.300 -2.8949  2.3956  0.9586
   99SAPC   H5Y 9876   6.008   1.541   3.285  0.2934  0.1012 -0.4367
   99SAPC   C36 9877   6.142   1.438   3.418  0.1934  0.6273 -0.1987
   99SAPC   H6X 9878   6.237   1.494   3.403 -0.2537  1.0941 -1.3559
   99SAPC   H6Y 9879   6.161   1.330   3.435  0.4050  0.1074 -3.2155
   99SAPC   C37 9880   6.076   1.492   3.545  1.0092 -0.2293 -0.7844
   99SAPC   H7X 9881   5.978   1.441   3.553  0.2018  1.0877 -1.7419
   99SAPC   H7Y 9882   6.037   1.596   3.537 -0.2910 -0.3489  2.4412
   99SAPC   C38 9883   6.151   1.478   3.679 -0.2712  0.0779 -0.5077
   99SAPC   H8X 9884   6.258   1.507   3.671 -0.5024  0.9112 -0.7481
   99SAPC   H8Y 9885   6.150   1.378   3.728  0.2828  0.0733 -0.4968
   99SAPC   C39 9886   6.082   1.562   3.787  0.0586  0.1367  0.0877
   99SAPC   H9X 9887   5.982   1.514   3.792 -0.1586  0.5951  0.1975
   99SAPC   H9Y 9888   6.065   1.667   3.756  0.5968  0.4894  0.9669
   99SAPC  C310 9889   6.158   1.576   3.915  0.0312  0.2689 -0.0876
   99SAPC  H10X 9890   6.253   1.631   3.899 -1.3966  3.0568  0.4050
   99SAPC  H10Y 9891   6.175   1.476   3.961 -1.4738  0.1057  0.1643
   99SAPC  C311 9892   6.079   1.670   4.013 -0.2264 -0.4898 -0.1622
   99SAPC  H11X 9893   5.974   1.635   4.026 -0.2789 -0.0774  0.5535
   99SAPC  H11Y 9894   6.073   1.771   3.968  1.1436 -0.5073 -0.4285
   99SAPC  C312 9895   6.161   1.697   4.144 -0.8250 -0.1855  0.8392
   99SAPC  H12X 9896   6.121   1.791   4.189 -0.6470 -0.5258  1.7409
   99SAPC  H12Y 9897   6.264   1.714   4.106 -1.2505 -0.7785 -0.6403
   99SAPC  C313 9898   6.147   1.577   4.233  0.3550 -0.7205 -0.2012
   99SAPC  H13X 9899   6.154   1.491   4.163  3.4788 -1.2218  0.5862
   99SAPC  H13Y 9900   6.049   1.567   4.285  0.7826 -1.7348  0.4580
   99SAPC  C314 9901   6.237   1.569   4.350 -0.6769 -0.5681 -0.1772
   99SAPC  H14X 9902   6.213   1.660   4.409  0.3602  0.7262 -1.6508
   99SAPC  H14Y 9903   6.344   1.569   4.319 -0.5770  1.3085  0.0593
   99SAPC  C315 9904   6.206   1.444   4.434 -0.5958  0.6923 -0.2855
   99SAPC  H15X 9905   6.230   1.353   4.375  3.2985  1.2491  0.1322
   99SAPC  H15Y 9906   6.100   1.447   4.465 -0.3867  1.0054  0.4470
   99SAPC  C316 9907   6.303   1.437   4.559  0.2468 -0.5438 -0.0810
   99SAPC  H16X 9908   6.277   1.517   4.631  1.1409 -0.2324 -0.0890
   99SAPC  H16Y 9909   6.405   1.455   4.519 -0.2020  0.1473 -0.9656
   99SAPC  C317 9910   6.284   1.312   4.650  0.7282 -0.0844  0.1115
   99SAPC  H17X 9911   6.308   1.220   4.594  0.7453 -0.6803  1.0760
   99SAPC  H17Y 9912   6.176   1.315   4.677  0.1603  0.2077 -2.0013
   99SAPC  C318 9913   6.386   1.317   4.771  0.0833  0.1937  0.6883
   99SAPC  H18X 9914   6.494   1.306   4.748 -0.3352 -0.1542 -1.3166
   99SAPC  H18Y 9915   6.377   1.239   4.849  0.5959 -0.7729 -0.1935
   99SAPC  H18Z 9916   6.379   1.406   4.837 -0.9580  0.8176 -0.2213
  100SAPC     N 9917   3.618   1.879   2.412 -0.0589  0.2027  0.7651
  100SAPC   C12 9918   3.609   1.858   2.565 -0.3932  0.5532 -0.2461
  100SAPC  H12A 9919   3.710   1.880   2.598 -0.5704 -0.9174  1.3977
  100SAPC  H12B 9920   3.596   1.754   2.587  2.0769  0.0938 -0.6883
  100SAPC   C13 9921   3.487   1.826   2.361  1.0506  1.2608  0.5177
  100SAPC  H13A 9922   3.403   1.886   2.396 -0.2344 -1.2877  2.0886
  100SAPC  H13B 9923   3.474   1.821   2.254 -1.9676 -1.3078  0.8586
  100SAPC  H13C 9924   3.464   1.729   2.402  1.0606  1.1980  0.3772
  100SAPC   C14 9925   3.635   2.021   2.383  0.1555 -0.5972  0.4507
  100SAPC  H14A 9926   3.608   2.042   2.281 -0.1895 -1.8058  0.2750
  100SAPC  H14B 9927   3.567   2.073   2.449  0.6228  1.7892 -0.8133
  100SAPC  H14C 9928   3.739   2.049   2.399  0.1178  0.6892 -1.2338
  100SAPC   C15 9929   3.721   1.793   2.341  0.2049  0.4806 -0.1778
  100SAPC  H15A 9930   3.708   1.686   2.338  2.0500  0.1894  0.8446
  100SAPC  H15B 9931   3.732   1.830   2.240  0.0126 -2.2829 -1.2875
  100SAPC  H15C 9932   3.823   1.802   2.376  0.6411  1.3280 -1.5695
  100SAPC   C11 9933   3.499   1.938   2.642  0.2515  0.1482 -0.0350
  100SAPC  H11A 9934   3.494   1.901   2.747  1.6410  1.6301  0.5858
  100SAPC  H11B 9935   3.394   1.919   2.609 -0.2533 -0.6975  1.8881
  100SAPC     P 9936   3.619   2.148   2.734  0.0854 -0.6754  0.1407
  100SAPC   O13 9937   3.746   2.076   2.721 -0.3401 -0.9774 -0.5305
  100SAPC   O14 9938   3.629   2.297   2.712 -0.4382 -0.9568  0.3204
  100SAPC   O12 9939   3.519   2.082   2.641  0.0351 -0.7663  0.0255
  100SAPC   O11 9940   3.555   2.109   2.870 -0.0997  0.0201 -0.3236
  100SAPC    C1 9941   3.416   2.123   2.907  0.4260 -0.1623 -0.0394
  100SAPC    HA 9942   3.369   2.213   2.864 -1.0684  0.7587  3.2452
  100SAPC    HB 9943   3.355   2.040   2.865 -0.5324  1.8342 -2.9307
  100SAPC    C2 9944   3.391   2.123   3.060  0.3344  0.0861  0.8348
  100SAPC    HS 9945   3.301   2.186   3.075 -0.3797 -0.4535 -0.9536
  100SAPC   O21 9946   3.511   2.177   3.126  0.3198  0.9470 -0.0393
  100SAPC   C21 9947   3.539   2.300   3.076 -0.3213  0.2574 -0.5751
  100SAPC   O22 9948   3.462   2.370   3.013 -0.1473  0.0987  0.1443
  100SAPC   C22 9949   3.662   2.340   3.161  0.1131  0.9091  0.0891
  100SAPC   H2R 9950   3.687   2.249   3.220  0.2896 -0.8893 -2.5778
  100SAPC   H2S 9951   3.740   2.354   3.082  0.4403  1.1949  0.4571
  100SAPC    C3 9952   3.348   1.990   3.116  0.1774 -0.1403 -0.9411
  100SAPC    HX 9953   3.420   1.916   3.073 -2.0604 -1.4883 -2.6117
  100SAPC    HY 9954   3.245   1.976   3.075  0.3773  1.5976 -2.1012
  100SAPC   O31 9955   3.356   1.985   3.265 -0.5467 -0.1416 -0.3167
  100SAPC   C31 9956   3.267   2.058   3.317  0.1510  0.2606  0.1679
  100SAPC   O32 9957   3.174   2.119   3.260 -0.4252  0.1700  0.1524
  100SAPC   C32 9958   3.288   2.059   3.464 -0.5376  0.3774 -0.6313
  100SAPC   H2X 9959   3.394   2.039   3.489 -1.4798 -2.3850  1.6066
  100SAPC   H2Y 9960   3.233   1.972   3.505 -0.5768  0.1434 -1.1709
  100SAPC   C23 9961   3.646   2.465   3.252  0.2250 -0.5123 -0.7177
  100SAPC   H3R 9962   3.623   2.555   3.192  3.0938 -0.3429 -1.7364
  100SAPC   H3S 9963   3.740   2.479   3.310 -0.2686 -0.3257  0.0506
  100SAPC   C24 9964   3.534   2.452   3.359  0.5621  0.6068 -0.1366
  100SAPC   H4R 9965   3.445   2.403   3.316  0.8877  1.0310 -1.3325
  100SAPC   H4S 9966   3.502   2.553   3.392 -2.1985 -0.0826 -0.4779
  100SAPC   C25 9967   3.585   2.361   3.475 -0.0604  0.5349 -0.0111
  100SAPC   H5R 9968   3.576   2.252   3.463 -3.0920  0.3899  2.3068
  100SAPC   C26 9969   3.637   2.407   3.589  0.7579  0.7639 -0.5721
  100SAPC   H6R 9970   3.664   2.332   3.665 -0.6087  1.1390  0.3326
  100SAPC   C27 9971   3.637   2.548   3.632 -0.5509  0.0651  0.2596
  100SAPC   H7R 9972   3.632   2.607   3.539  1.9548  0.0835  0.0611
  100SAPC   H7S 9973   3.729   2.578   3.687 -0.9864  0.8484  0.5626
  100SAPC   C28 9974   3.507   2.577   3.706  0.4238 -0.6519  0.1530
  100SAPC   H8R 9975   3.416   2.571   3.645  0.9665 -1.5014 -0.6002
  100SAPC   C29 9976   3.481   2.588   3.836  0.4326  0.2350  0.3279
  100SAPC   H9R 9977   3.379   2.609   3.872  0.2948 -1.7170  1.1922
  100SAPC  C210 9978   3.590   2.576   3.941  0.1918  0.3242  0.0800
  100SAPC  H10R 9979   3.601   2.675   3.989  0.3626 -0.3480  1.4758
  100SAPC  H10S 9980   3.685   2.540   3.894  2.2616  0.9783  3.4099
  100SAPC  C211 9981   3.554   2.472   4.047 -0.3844 -0.0387  0.6329
  100SAPC  H11R 9982   3.594   2.372   4.025  0.5640  0.6251 -0.8527
  100SAPC  C212 9983   3.469   2.491   4.142 -0.3258 -0.2508 -0.1856
  100SAPC  H12R 9984   3.450   2.403   4.205  1.6941 -0.7485 -0.1850
  100SAPC  C213 9985   3.400   2.619   4.185  0.5815 -0.5195  0.2238
  100SAPC  H13R 9986   3.299   2.594   4.222  0.8163  1.0833  2.1419
  100SAPC  H13S 9987   3.385   2.689   4.099  1.9736  1.7372  1.7104
  100SAPC  C214 9988   3.467   2.703   4.295  0.0225  0.1478 -0.6967
  100SAPC  H14R 9989   3.525   2.786   4.253  0.6068  0.3101  0.3937
  100SAPC  C215 9990   3.456   2.684   4.429 -0.0697  0.2202 -0.1871
  100SAPC  H15R 9991   3.524   2.733   4.500 -0.4629 -0.8419  0.9754
  100SAPC  C216 9992   3.355   2.603   4.499 -0.3246  0.0222  0.3230
  100SAPC  H16R 9993   3.377   2.496   4.478 -2.5882 -0.2742 -0.8860
  100SAPC  H16S 9994   3.255   2.626   4.455  0.1469 -1.5401 -1.7161
  100SAPC  C217 9995   3.346   2.624   4.653 -0.0426 -0.3032 -0.2438
  100SAPC  H17R 9996   3.442   2.617   4.708  0.3077  1.3380 -0.5823
  100SAPC  H17S 9997   3.278   2.547   4.695  1.1048 -0.7328  0.8651
  100SAPC  C218 9998   3.280   2.760   4.699 -0.3850 -0.2280  0.5537
  100SAPC  H18R 9999   3.187   2.770   4.639  0.1832 -0.0083 -0.3144
  100SAPC  H18S10000   3.341   2.849   4.671  0.7912 -1.0428  0.4324
  100SAPC  C21910001   3.252   2.782   4.846 -0.1451 -0.6748  0.4598
  100SAPC  H19R10002   3.192   2.698   4.887  1.1342 -1.1845  1.3878
  100SAPC  H19S10003   3.202   2.877   4.871  0.6067 -0.4464  1.1629
  100SAPC  C22010004   3.385   2.781   4.926  0.9056  0.0730  0.6266
  100SAPC  H20R10005   3.428   2.679   4.939 -1.3150 -0.8478  1.2587
  100SAPC  H20S10006   3.367   2.810   5.032 -2.1618 -1.8809  0.7604
  100SAPC  H20T10007   3.449   2.856   4.876  0.0655  0.0428 -0.5376
  100SAPC   C3310008   3.231   2.187   3.536  0.2914  0.2904 -0.0028
  100SAPC   H3X10009   3.120   2.189   3.529  0.3871  0.8525 -2.2353
  100SAPC   H3Y10010   3.260   2.275   3.473 -0.7107  0.8011  0.2317
  100SAPC   C3410011   3.264   2.210   3.682  0.6645 -0.7244 -0.2022
  100SAPC   H4X10012   3.374   2.217   3.701  0.6731 -1.1485 -0.0889
  100SAPC   H4Y10013   3.225   2.124   3.740 -0.0480 -1.3177 -1.5132
  100SAPC   C3510014   3.191   2.336   3.730 -0.2862 -0.1507  0.6705
  100SAPC   H5X10015   3.085   2.339   3.698 -0.3277  0.4204  0.8412
  100SAPC   H5Y10016   3.243   2.414   3.670 -0.9020  0.3859  0.8280
  100SAPC   C3610017   3.210   2.369   3.879 -0.9434 -0.0769 -0.0169
  100SAPC   H6X10018   3.184   2.474   3.906  0.1930 -0.0090  0.8598
  100SAPC   H6Y10019   3.314   2.365   3.918 -1.6108  2.2665  2.3562
  100SAPC   C3710020   3.109   2.289   3.960 -0.5309 -0.2188 -0.1178
  100SAPC   H7X10021   3.145   2.185   3.977 -2.0527 -0.5671  1.1790
  100SAPC   H7Y10022   3.014   2.286   3.902 -0.4833 -1.2404 -0.1622
  100SAPC   C3810023   3.084   2.348   4.103 -0.2050 -0.7417  0.0114
  100SAPC   H8X10024   3.042   2.451   4.103 -0.4034 -0.8187 -0.4432
  100SAPC   H8Y10025   3.184   2.354   4.152  1.1810 -1.4374 -2.5430
  100SAPC   C3910026   2.991   2.250   4.179  0.1846  0.5628 -0.2338
  100SAPC   H9X10027   3.055   2.162   4.199  0.1621  0.3861 -0.9134
  100SAPC   H9Y10028   2.910   2.209   4.116  0.1003  0.0830  0.1771
  100SAPC  C31010029   2.940   2.316   4.308  0.4121 -0.2152  0.4748
  100SAPC  H10X10030   3.012   2.385   4.357  3.2496 -1.4722 -1.6143
  100SAPC  H10Y10031   2.914   2.231   4.375 -2.0258 -0.7028 -0.9702
  100SAPC  C31110032   2.803   2.379   4.276 -0.7929 -0.5219  0.0294
  100SAPC  H11X10033   2.729   2.299   4.253  1.1311 -2.3291 -0.1748
  100SAPC  H11Y10034   2.839   2.432   4.185  2.0346  0.3070  1.5066
  100SAPC  C31210035   2.751   2.473   4.386 -0.4571  0.4994  0.8139
  100SAPC  H12X10036   2.682   2.547   4.340  1.2840  2.0182  0.5061
  100SAPC  H12Y10037   2.843   2.528   4.417 -1.0713  2.0986 -0.0888
  100SAPC  C31310038   2.680   2.391   4.494  0.0852 -0.3955 -0.1423
  100SAPC  H13X10039   2.750   2.321   4.545  1.0780  0.4756 -0.2623
  100SAPC  H13Y10040   2.608   2.331   4.436 -1.0750 -0.4084  1.2593
  100SAPC  C31410041   2.613   2.482   4.597  0.5140  0.1283 -0.4289
  100SAPC  H14X10042   2.511   2.440   4.614  0.8533 -0.7333 -0.4358
  100SAPC  H14Y10043   2.593   2.578   4.546 -2.7511 -0.1355  0.1256
  100SAPC  C31510044   2.704   2.491   4.716  0.5081 -0.0956 -0.4595
  100SAPC  H15X10045   2.809   2.492   4.679  0.1896  1.0844 -1.3988
  100SAPC  H15Y10046   2.679   2.399   4.773  2.3949 -0.2515  0.2047
  100SAPC  C31610047   2.682   2.620   4.803 -0.0502 -0.1425 -0.0180
  100SAPC  H16X10048   2.741   2.608   4.896 -0.0308 -1.1139 -0.1399
  100SAPC  H16Y10049   2.580   2.632   4.844 -0.0097 -0.2873  0.1249
  100SAPC  C31710050   2.744   2.750   4.737  0.2843  0.1733 -0.2748
  100SAPC  H17X10051   2.673   2.767   4.653  0.7872  2.7582 -0.2472
  100SAPC  H17Y10052   2.848   2.735   4.701  0.3510 -0.7352  0.2742
  100SAPC  C31810053   2.741   2.862   4.829 -0.3257  0.1426 -0.8224
  100SAPC  H18X10054   2.636   2.893   4.848  0.1431  0.3317  1.8421
  100SAPC  H18Y10055   2.793   2.953   4.790 -0.2412 -0.2083 -1.5531
  100SAPC  H18Z10056   2.781   2.833   4.928 -0.8992 -0.8168 -0.8649
  101OSM      N10057   4.964   5.465   6.893 -0.2731  0.1340 -0.0876
  101OSM    C1510058   4.925   5.318   6.901  0.1788  0.5039  0.0454
  101OSM   H15A10059   4.860   5.293   6.819 -1.5357  0.0341  1.4965
  101OSM   H15B10060   4.879   5.285   6.993  1.2923 -0.4151  0.3080
  101OSM   H15C10061   5.007   5.249   6.887 -0.1962 -0.3338  1.6795
  101OSM    C1410062   5.016   5.494   6.761  0.4017  0.6512 -0.0450
  101OSM   H14A10063   5.051   5.596   6.754 -0.1233  0.8567  0.2584
  101OSM   H14B10064   4.953   5.462   6.680  0.8787 -2.4072  0.6641
  101OSM   H14C10065   5.110   5.443   6.749 -0.4916 -1.6110  1.7337
  101OSM    C1310066   4.848   5.551   6.925  0.5150 -0.1081  0.0539
  101OSM   H13A10067   4.772   5.520   6.855 -0.4601 -1.5298  1.6462
  101OSM   H13B10068   4.866   5.657   6.922 -0.7919  0.1423  0.4100
  101OSM   H13C10069   4.798   5.529   7.019  0.6611 -2.3020 -0.3256
  101OSM    C1210070   5.074   5.490   6.995  0.3013 -0.3241 -0.3265
  101OSM   H12A10071   5.149   5.413   6.998  0.6623  0.0426  1.1735
  101OSM   H12B10072   5.034   5.496   7.096 -0.6938  0.5758 -0.7461
  101OSM    C1110073   5.147   5.624   6.966  0.1624 -0.5311 -0.4143
  101OSM   H11A10074   5.205   5.622   6.871  1.7682 -0.3419  0.5168
  101OSM   H11B10075   5.229   5.622   7.041 -0.3324 -0.9423  0.1240
  101OSM      P10076   5.105   5.877   6.939  0.5567  0.3032  0.3970
  101OSM    O1310077   5.007   5.971   6.991 -0.1608 -0.2890 -0.3540
  101OSM    O1410078   5.246   5.900   6.975 -0.7646 -0.0670 -0.5926
  101OSM    O1110079   5.083   5.880   6.781  0.1679 -0.0566 -0.1018
  101OSM    O1210080   5.062   5.735   6.985  0.9547 -0.2797 -0.8000
  101OSM    C1S10081   5.150   5.985   6.712  0.4083 -0.6271  0.2496
  101OSM    H1S10082   5.260   5.968   6.718  0.4397 -0.3750  0.4322
  101OSM    H1T10083   5.144   6.085   6.761 -1.3569  1.7137 -4.1962
  101OSM     NF10084   5.198   6.085   6.492  0.2129  0.1921  0.3253
  101OSM    HNF10085   5.161   6.169   6.453 -2.0236 -1.2966 -1.0024
  101OSM    C2S10086   5.107   6.002   6.564  0.3318  0.4411  0.5973
  101OSM    H2S10087   5.123   5.899   6.527  1.0850  0.5264  0.6656
  101OSM    C3S10088   4.955   6.031   6.557  0.2616 -0.8724  0.9500
  101OSM    H3S10089   4.940   6.133   6.599  0.9234 -0.7002  0.7826
  101OSM     O310090   4.874   5.942   6.632  0.0464  0.5031  0.2375
  101OSM    HO310091   4.928   5.912   6.706  1.5823  4.0850  0.7960
  101OSM    C4S10092   4.902   6.038   6.414  0.2004 -0.4234  0.6802
  101OSM    H4S10093   4.887   6.138   6.370 -0.4434 -0.8177 -0.0249
  101OSM    C5S10094   4.860   5.929   6.341 -0.3897 -0.3241 -0.2906
  101OSM    H5S10095   4.847   5.833   6.393  0.9342 -0.1046  0.5061
  101OSM    C6S10096   4.805   5.940   6.203  0.0192  0.5804  0.2165
  101OSM    H6S10097   4.697   5.915   6.210 -0.3117  1.8674 -0.1106
  101OSM    H6T10098   4.847   5.859   6.140 -0.4645  1.0349 -0.7169
  101OSM    C7S10099   4.805   6.080   6.142 -0.1443  0.0692  0.4278
  101OSM    H7S10100   4.900   6.135   6.157  1.7652 -2.6181 -0.8301
  101OSM    H7T10101   4.725   6.128   6.201 -1.0066  0.9223 -1.3502
  101OSM    C8S10102   4.777   6.093   5.993  0.1320  0.3480 -0.2319
  101OSM    H8S10103   4.802   6.197   5.964  0.4945  0.0061 -1.1985
  101OSM    H8T10104   4.673   6.070   5.962  1.0069 -1.8741 -1.8172
  101OSM    C9S10105   4.869   6.005   5.911  0.7813  0.7439  0.1203
  101OSM    H9S10106   4.861   5.894   5.923 -0.2144  0.6239 -1.4214
  101OSM    H9T10107   4.970   6.030   5.950  0.5160  1.1838  0.5194
  101OSM   C10S10108   4.860   6.032   5.757  1.1683 -0.7149 -0.3912
  101OSM   H10S10109   4.889   6.137   5.734  1.1282 -0.8676 -1.1516
  101OSM   H10T10110   4.755   6.015   5.725  1.4060 -0.1739 -1.4969
  101OSM   C11S10111   4.943   5.936   5.676  0.7505  0.5615  0.3612
  101OSM   H11S10112   4.903   5.833   5.691 -1.6676  1.2150 -1.0000
  101OSM   H11T10113   5.052   5.928   5.698  0.6884 -0.2401  0.4009
  101OSM   C12S10114   4.922   5.961   5.521  0.2085 -0.0404 -0.0306
  101OSM   H12S10115   5.000   6.032   5.484 -0.1196 -0.5400 -1.7617
  101OSM   H12T10116   4.818   5.997   5.507 -0.0013 -0.7720 -0.3987
  101OSM   C13S10117   4.930   5.839   5.434  0.7589 -0.1693 -0.1135
  101OSM   H13S10118   4.863   5.759   5.472  3.0889 -2.1145  0.1345
  101OSM   H13T10119   5.034   5.805   5.451  0.5826 -0.6210  0.0798
  101OSM   C14S10120   4.904   5.869   5.288  0.3435  0.9378  0.4962
  101OSM   H14S10121   4.963   5.951   5.243 -0.5683  0.3741 -1.8634
  101OSM   H14T10122   4.797   5.894   5.272  0.2447  0.6776  0.7551
  101OSM   C15S10123   4.929   5.744   5.198 -0.2518  0.1217  0.0104
  101OSM   H15S10124   4.856   5.668   5.232 -0.2019 -1.0921 -2.3763
  101OSM   H15T10125   5.034   5.710   5.206 -1.0978 -3.0633 -1.0301
  101OSM   C16S10126   4.907   5.759   5.049  0.1321 -0.3091  0.2690
  101OSM   H16S10127   4.938   5.663   5.003 -1.6702 -0.3187 -1.0444
  101OSM   H16T10128   4.972   5.841   5.010  1.6142 -1.4559  0.2667
  101OSM   C17S10129   4.758   5.785   5.008 -0.5446 -0.5682 -0.1015
  101OSM   H17S10130   4.734   5.887   5.047  0.4531 -0.0888 -0.7066
  101OSM   H17T10131   4.683   5.720   5.057 -0.4446 -1.7693 -1.4957
  101OSM   C18S10132   4.730   5.782   4.858  0.3096 -0.0469 -0.5074
  101OSM   H18S10133   4.755   5.682   4.817 -2.2010 -0.0572 -2.2791
  101OSM   H18T10134   4.807   5.844   4.806 -0.5253  2.0720  0.6905
  101OSM   H18U10135   4.627   5.818   4.835  0.6788  0.9674 -0.6261
  101OSM    C1F10136   5.330   6.078   6.486 -0.3949  0.5325  0.0970
  101OSM     OF10137   5.389   5.977   6.516  0.6059 -0.2394 -0.2356
  101OSM    C2F10138   5.402   6.204   6.437 -0.1235 -0.0406 -0.4736
  101OSM    H2F10139   5.441   6.257   6.526 -1.1127  0.3624 -0.2585
  101OSM    H2G10140   5.325   6.270   6.390  0.4084  0.0915 -1.1788
  101OSM    C3F10141   5.508   6.176   6.325 -0.1681 -0.2147  0.4220
  101OSM    H3F10142   5.453   6.152   6.232  0.7490 -1.2820  0.1333
  101OSM    H3G10143   5.573   6.088   6.347 -0.8714 -0.5028  1.4529
  101OSM    C4F10144   5.589   6.302   6.303 -0.2915  0.0312 -0.2644
  101OSM    H4F10145   5.672   6.318   6.376  0.0988  1.4075 -0.9687
  101OSM    H4G10146   5.521   6.387   6.323 -1.1041 -0.4396 -0.9908
  101OSM    C5F10147   5.659   6.303   6.165 -0.2684 -0.2716 -0.2226
  101OSM    H5F10148   5.591   6.276   6.081  0.4805  0.7510 -1.2021
  101OSM    H5G10149   5.731   6.218   6.160  1.6761  1.1873  1.2823
  101OSM    C6F10150   5.729   6.440   6.138  0.6729 -0.6052 -0.3739
  101OSM    H6F10151   5.839   6.433   6.151  0.4422 -0.7624  2.0178
  101OSM    H6G10152   5.700   6.507   6.222 -0.5393 -0.2161 -1.0806
  101OSM    C7F10153   5.695   6.521   6.006  0.3369  0.8445  0.2860
  101OSM    H7F10154   5.755   6.614   6.020  0.7805  0.5759  0.1798
  101OSM    H7G10155   5.586   6.540   5.997  0.1684 -0.7268 -1.5768
  101OSM    C8F10156   5.748   6.451   5.876 -0.4027 -0.0929 -0.0198
  101OSM    H8F10157   5.837   6.391   5.904 -0.2238  0.3165  0.2905
  101OSM    H8G10158   5.792   6.528   5.809 -1.0446  1.5898  1.4430
  101OSM    C9F10159   5.645   6.369   5.801 -0.3700  0.2986 -0.6558
  101OSM    H9F10160   5.569   6.323   5.867 -0.1571  2.2038  1.0401
  101OSM   C10F10161   5.634   6.347   5.674 -0.4856  0.1305 -0.0265
  101OSM   H10F10162   5.552   6.287   5.631  0.1806 -0.7571 -0.1096
  101OSM   C11F10163   5.740   6.382   5.574  0.7566 -0.1779  1.1604
  101OSM   H11F10164   5.765   6.287   5.521  2.4773  1.3971 -1.0685
  101OSM   H11G10165   5.838   6.411   5.617  1.1207 -0.3154  0.4411
  101OSM   C12F10166   5.696   6.495   5.479 -0.6329  0.4497  0.6575
  101OSM   H12F10167   5.779   6.566   5.463 -1.3123  0.9165 -0.9752
  101OSM   H12G10168   5.610   6.551   5.521 -0.9149 -0.1056  0.8363
  101OSM   C13F10169   5.633   6.441   5.352 -0.4092 -0.1110 -0.5110
  101OSM   H13F10170   5.550   6.372   5.377 -1.7527  1.7196  0.3398
  101OSM   H13G10171   5.709   6.390   5.289  0.0101 -1.1133  0.7800
  101OSM   C14F10172   5.578   6.554   5.265 -0.3187 -0.0089 -0.3676
  101OSM   H14F10173   5.668   6.611   5.233 -0.4009  1.3901  1.7102
  101OSM   H14G10174   5.508   6.606   5.334  1.7455  0.9384  1.1435
  101OSM   C15F10175   5.507   6.505   5.141  0.2336 -0.1733 -0.0889
  101OSM   H15F10176   5.441   6.424   5.179  1.0333 -0.0389  1.6927
  101OSM   H15G10177   5.587   6.472   5.071  0.0253  1.2114 -1.0248
  101OSM   C16F10178   5.422   6.620   5.066 -0.0412 -0.0775  0.6756
  101OSM   H16F10179   5.500   6.693   5.034 -0.5413 -0.0430 -0.5339
  101OSM   H16G10180   5.356   6.684   5.128 -0.6253 -0.2485  0.2430
  101OSM   C17F10181   5.348   6.562   4.946  0.4841  0.1528  0.2069
  101OSM   H17F10182   5.272   6.639   4.921 -1.6014 -0.5335  3.7119
  101OSM   H17G10183   5.277   6.480   4.968 -1.8912  1.6244 -1.5620
  101OSM   C18F10184   5.435   6.526   4.826  0.8498  0.1967  0.3068
  101OSM   H18F10185   5.498   6.611   4.792 -1.2095  1.7763  0.2785
  101OSM   H18G10186   5.360   6.504   4.747 -0.8108 -1.0472  2.1390
  101OSM   H18H10187   5.496   6.437   4.850 -1.3708 -1.8133 -1.0360
  102OSM      N10188   0.824   6.170   6.815  0.8480  0.4507  0.2763
  102OSM    C1510189   0.870   6.223   6.679  0.3954  0.5392 -0.4063
  102OSM   H15A10190   0.787   6.239   6.612 -0.6992 -0.3149  0.6995
  102OSM   H15B10191   0.921   6.146   6.623  1.5554  0.0896  1.1848
  102OSM   H15C10192   0.925   6.315   6.694 -3.1633  2.5688  1.3593
  102OSM    C1410193   0.938   6.167   6.905 -0.6229  1.0025 -0.2472
  102OSM   H14A10194   1.011   6.101   6.859 -1.5614 -1.2774  1.3357
  102OSM   H14B10195   0.926   6.112   6.997 -0.4195 -0.8473 -1.2782
  102OSM   H14C10196   0.981   6.265   6.917  3.1702 -0.4063 -0.9106
  102OSM    C1310197   0.716   6.263   6.875 -0.2472  0.0508  0.5958
  102OSM   H13A10198   0.682   6.238   6.974 -2.6238 -3.7215 -0.9411
  102OSM   H13B10199   0.624   6.276   6.819 -0.9572  0.6330  1.8548
  102OSM   H13C10200   0.763   6.360   6.877  2.0878 -0.9239 -1.7511
  102OSM    C1210201   0.757   6.037   6.804 -0.4362  0.4879 -0.3968
  102OSM   H12A10202   0.714   6.010   6.899  0.2821  1.3498  0.1876
  102OSM   H12B10203   0.834   5.961   6.793  0.8127  1.4861  1.0462
  102OSM    C1110204   0.649   6.020   6.691 -0.6541 -0.1977 -0.6184
  102OSM   H11A10205   0.706   6.040   6.597  1.9371 -0.5440  0.7690
  102OSM   H11B10206   0.562   6.088   6.691  0.6025  1.4820 -1.4811
  102OSM      P10207   0.695   5.773   6.631 -0.1585  0.5414  0.0724
  102OSM    O1310208   0.838   5.821   6.637  0.5249 -0.4919 -0.5052
  102OSM    O1410209   0.662   5.639   6.681  0.0566 -0.4112 -0.1181
  102OSM    O1110210   0.636   5.783   6.485 -0.7000  0.4114  0.5789
  102OSM    O1210211   0.601   5.883   6.695  0.0289  0.4574 -0.4363
  102OSM    C1S10212   0.496   5.784   6.464  0.2779 -0.3650  0.5157
  102OSM    H1S10213   0.446   5.847   6.541  2.1518  1.0260  0.6735
  102OSM    H1T10214   0.450   5.683   6.464 -0.4621 -0.0369  1.3180
  102OSM     NF10215   0.299   5.826   6.314 -0.5033 -0.0405  0.0127
  102OSM    HNF10216   0.254   5.767   6.247 -1.1077  1.1269 -0.6278
  102OSM    C2S10217   0.447   5.827   6.319 -0.4172  0.9690  0.0765
  102OSM    H2S10218   0.477   5.931   6.296 -0.3726  0.6113 -1.6190
  102OSM    C3S10219   0.519   5.740   6.209  0.4790 -0.2180 -0.4756
  102OSM    H3S10220   0.505   5.631   6.226 -0.3352  0.0064  0.3729
  102OSM     O310221   0.658   5.762   6.209 -0.1531 -0.4157 -0.5293
  102OSM    HO310222   0.668   5.785   6.301  0.8303  0.0265 -0.7271
  102OSM    C4S10223   0.455   5.758   6.076  0.0482 -0.1530  0.5427
  102OSM    H4S10224   0.421   5.859   6.050  1.0341  0.2555  0.7909
  102OSM    C5S10225   0.430   5.662   5.991  0.5844  0.3694 -0.1661
  102OSM    H5S10226   0.440   5.561   6.032 -3.2842  0.0203  0.3100
  102OSM    C6S10227   0.362   5.677   5.863 -0.8251  0.3772 -0.1110
  102OSM    H6S10228   0.413   5.611   5.789 -1.0810 -0.9478  0.8581
  102OSM    H6T10229   0.368   5.780   5.822 -4.0477  0.2642 -1.1223
  102OSM    C7S10230   0.213   5.641   5.857  0.1274 -0.3330  0.3445
  102OSM    H7S10231   0.145   5.716   5.904  0.0986  0.2401 -0.5902
  102OSM    H7T10232   0.187   5.553   5.919 -1.5116 -0.0303  0.1204
  102OSM    C8S10233   0.164   5.621   5.710  0.4628  0.5044  0.5388
  102OSM    H8S10234   0.088   5.542   5.727  0.8055  0.5920  2.7341
  102OSM    H8T10235   0.237   5.577   5.639 -1.9370  0.3055 -1.9837
  102OSM    C9S10236   0.100   5.747   5.652  0.9459 -0.2994  0.6757
  102OSM    H9S10237   0.180   5.819   5.626  0.9553 -1.0166 -1.5105
  102OSM    H9T10238   0.034   5.796   5.727 -0.4111  0.8376 -1.1992
  102OSM   C10S10239   0.018   5.710   5.529  0.5354 -0.6415  0.2630
  102OSM   H10S10240  -0.039   5.617   5.551  1.2626 -1.2869 -0.5129
  102OSM   H10T10241   0.085   5.691   5.442 -1.0687  0.3804 -1.2494
  102OSM   C11S10242  -0.082   5.821   5.474 -0.8994  0.3981 -0.1930
  102OSM   H11S10243  -0.018   5.909   5.452  0.7600 -0.3839  1.2082
  102OSM   H11T10244  -0.148   5.844   5.560  0.4360 -0.8740  1.2183
  102OSM   C12S10245  -0.158   5.773   5.351  0.4102  0.6434 -0.1818
  102OSM   H12S10246  -0.201   5.675   5.381 -0.7894  1.3434  0.4857
  102OSM   H12T10247  -0.090   5.754   5.265  2.2406  0.6902  1.1844
  102OSM   C13S10248  -0.280   5.861   5.322  0.3504 -0.1642  0.0780
  102OSM   H13S10249  -0.346   5.854   5.411  1.7121  1.8065  1.3304
  102OSM   H13T10250  -0.331   5.818   5.233  0.0720  1.4798 -0.5895
  102OSM   C14S10251  -0.264   6.011   5.294 -0.4259  0.2951 -0.1484
  102OSM   H14S10252  -0.226   6.069   5.381 -1.6492 -2.4086  2.3245
  102OSM   H14T10253  -0.366   6.052   5.277  0.1213  1.0883 -1.7140
  102OSM   C15S10254  -0.185   6.044   5.163 -0.0651  0.5050  0.8957
  102OSM   H15S10255  -0.206   5.962   5.091  0.4935  0.3012  0.9550
  102OSM   H15T10256  -0.075   6.037   5.180  0.6456  0.2768 -2.8367
  102OSM   C16S10257  -0.221   6.185   5.107  0.1980  0.3724 -0.2873
  102OSM   H16S10258  -0.196   6.262   5.182 -0.8368 -0.1142  0.5860
  102OSM   H16T10259  -0.329   6.203   5.089  0.4364  0.8916 -1.2568
  102OSM   C17S10260  -0.154   6.204   4.975 -0.2949 -0.6023 -0.1126
  102OSM   H17S10261  -0.055   6.156   4.984 -0.9827 -1.7167  2.2675
  102OSM   H17T10262  -0.137   6.312   4.954 -1.2141 -0.7053 -1.5375
  102OSM   C18S10263  -0.221   6.135   4.858 -0.0578 -0.3090  0.0053
  102OSM   H18S10264  -0.162   6.161   4.768 -1.0589  2.7564  0.1028
  102OSM   H18T10265  -0.327   6.162   4.838 -0.1518 -1.0548 -0.5612
  102OSM   H18U10266  -0.229   6.024   4.867 -1.2122 -0.2603 -0.2875
  102OSM    C1F10267   0.228   5.915   6.390 -0.7453 -0.3672  0.6461
  102OSM     OF10268   0.279   6.006   6.453  0.1986  0.1303 -0.2589
  102OSM    C2F10269   0.079   5.897   6.388 -0.4157  0.3652 -0.1747
  102OSM    H2F10270   0.034   5.921   6.487  2.1688  0.7156  0.9913
  102OSM    H2G10271   0.049   5.795   6.358  0.9511 -0.3077  0.6306
  102OSM    C3F10272   0.003   5.992   6.298 -0.1894 -0.2468  0.0708
  102OSM    H3F10273   0.020   6.099   6.321 -1.6990  0.1526 -0.5535
  102OSM    H3G10274  -0.107   5.977   6.310 -0.2043 -1.2610 -1.0990
  102OSM    C4F10275   0.040   5.980   6.149  1.0030 -0.1648  0.5927
  102OSM    H4F10276   0.016   5.879   6.110 -1.3345  0.2822  0.7410
  102OSM    H4G10277   0.147   6.004   6.127  0.7848 -0.8964 -1.3987
  102OSM    C5F10278  -0.039   6.093   6.071 -0.1127  0.9709  0.1118
  102OSM    H5F10279   0.021   6.187   6.077  1.2306  0.2413 -1.1917
  102OSM    H5G10280  -0.137   6.105   6.122 -0.5361 -0.7859 -0.2482
  102OSM    C6F10281  -0.058   6.069   5.915  0.4832 -0.5566 -0.2318
  102OSM    H6F10282  -0.135   5.990   5.903 -0.3934  0.2119  0.1857
  102OSM    H6G10283   0.034   6.034   5.865 -0.3943 -1.3686 -1.3254
  102OSM    C7F10284  -0.114   6.198   5.847 -0.0719  0.2631  0.3384
  102OSM    H7F10285  -0.039   6.278   5.861 -1.3263  1.1020  2.7390
  102OSM    H7G10286  -0.209   6.216   5.902 -0.4771 -1.5758  0.3166
  102OSM    C8F10287  -0.156   6.177   5.700  0.0774  0.1711  0.8167
  102OSM    H8F10288  -0.229   6.257   5.676 -1.2944 -1.5053 -0.9756
  102OSM    H8G10289  -0.222   6.090   5.680 -0.9361  1.3928 -1.6361
  102OSM    C9F10290  -0.050   6.175   5.591  0.0807  0.2193  0.0287
  102OSM    H9F10291   0.003   6.078   5.591  0.9236  0.6694 -0.8929
  102OSM   C10F10292  -0.006   6.277   5.519  0.0076 -0.0206 -0.9289
  102OSM   H10F10293   0.078   6.268   5.447  1.1012 -0.1511  0.3319
  102OSM   C11F10294  -0.056   6.415   5.525 -0.0864  0.7417  0.8897
  102OSM   H11F10295   0.038   6.474   5.530  0.4624  0.1557 -1.3957
  102OSM   H11G10296  -0.103   6.442   5.621  0.5368 -0.7790  1.6547
  102OSM   C12F10297  -0.148   6.464   5.413 -0.1401 -0.2395 -0.8750
  102OSM   H12F10298  -0.213   6.547   5.449 -0.6735 -0.9710 -0.1290
  102OSM   H12G10299  -0.221   6.383   5.395 -2.3403  1.1799  1.0641
  102OSM   C13F10300  -0.081   6.516   5.286 -0.0844 -0.0435 -0.1505
  102OSM   H13F10301  -0.030   6.435   5.230  0.3769 -0.3948  0.7681
  102OSM   H13G10302   0.002   6.573   5.332 -1.0851  0.1273  1.5153
  102OSM   C14F10303  -0.176   6.614   5.217  0.5604  0.2153 -0.6274
  102OSM   H14F10304  -0.207   6.692   5.290 -2.8826 -0.2127 -1.4459
  102OSM   H14G10305  -0.261   6.556   5.174  2.0882 -2.4649 -0.2142
  102OSM   C15F10306  -0.123   6.681   5.086  0.6055  0.4934  0.4167
  102OSM   H15F10307  -0.211   6.726   5.036  1.4498  0.8910 -0.7668
  102OSM   H15G10308  -0.073   6.607   5.020  2.9314  1.4301  1.0218
  102OSM   C16F10309  -0.016   6.793   5.119  1.0954  0.1893  0.8434
  102OSM   H16F10310   0.060   6.743   5.183 -1.7698 -1.9612  2.8340
  102OSM   H16G10311  -0.073   6.870   5.174  1.2842  0.3440  0.8228
  102OSM   C17F10312   0.052   6.854   5.001 -0.1380 -0.5785 -0.3229
  102OSM   H17F10313   0.112   6.770   4.961  1.3753 -0.3414  1.3157
  102OSM   H17G10314   0.123   6.938   5.019 -0.3678  0.8343 -4.7090
  102OSM   C18F10315  -0.052   6.919   4.900  0.0354  0.0338 -0.2416
  102OSM   H18F10316  -0.126   6.844   4.867  0.4298  0.0207 -1.1121
  102OSM   H18G10317   0.012   6.947   4.814 -1.4525  2.8698 -0.5494
  102OSM   H18H10318  -0.102   7.005   4.951 -0.1744 -0.8197  1.0439
  103OSM      N10319   4.699   0.775   7.377  0.5646 -0.4107  0.2165
  103OSM    C1510320   4.725   0.894   7.468 -0.0417  0.4296  0.2196
  103OSM   H15A10321   4.730   0.986   7.412 -1.1836  1.3065  1.5029
  103OSM   H15B10322   4.823   0.885   7.511  1.1940  2.7160 -1.8649
  103OSM   H15C10323   4.649   0.909   7.544 -1.9965  0.3483 -1.6144
  103OSM    C1410324   4.820   0.749   7.295 -0.5264  0.2754 -0.0580
  103OSM   H14A10325   4.799   0.666   7.228  1.5296  1.0181 -1.7537
  103OSM   H14B10326   4.897   0.717   7.363 -0.5370  1.8706  0.7399
  103OSM   H14C10327   4.861   0.836   7.246  1.3157 -0.1329  0.6700
  103OSM    C1310328   4.670   0.656   7.460  0.9683 -0.2375 -0.0292
  103OSM   H13A10329   4.573   0.664   7.509  2.3195 -0.7954  2.9757
  103OSM   H13B10330   4.730   0.655   7.550 -1.7709  1.4341  1.9810
  103OSM   H13C10331   4.675   0.564   7.405 -1.5192 -0.7479  0.4603
  103OSM    C1210332   4.584   0.813   7.281 -0.3538  0.0798  0.8502
  103OSM   H12A10333   4.613   0.906   7.234 -2.4710  0.2238 -0.2729
  103OSM   H12B10334   4.490   0.826   7.332 -1.3922  1.5332 -1.2598
  103OSM    C1110335   4.565   0.703   7.168  0.1306  0.0778 -0.4986
  103OSM   H11A10336   4.586   0.601   7.203  1.9208  0.5146 -0.2013
  103OSM   H11B10337   4.632   0.736   7.085 -0.9086  0.5479 -1.1932
  103OSM      P10338   4.368   0.812   7.030 -0.2878 -0.1902 -0.1598
  103OSM    O1310339   4.236   0.764   6.993  0.1006  0.5434  0.1487
  103OSM    O1410340   4.375   0.943   7.098 -0.4221  0.3692 -0.0351
  103OSM    O1110341   4.448   0.818   6.896 -0.0303 -0.5746  0.1573
  103OSM    O1210342   4.435   0.690   7.122  0.4610 -0.4969  0.1285
  103OSM    C1S10343   4.449   0.696   6.818  0.1611  0.8435 -0.4778
  103OSM    H1S10344   4.366   0.626   6.841  0.7129 -0.0193 -1.0633
  103OSM    H1T10345   4.544   0.642   6.834  0.0318 -0.1307 -2.6864
  103OSM     NF10346   4.434   0.618   6.583  0.3508  0.0879 -0.0795
  103OSM    HNF10347   4.511   0.559   6.561 -1.1295 -2.7857  1.8340
  103OSM    C2S10348   4.452   0.734   6.667  0.1200  0.6676 -0.0505
  103OSM    H2S10349   4.373   0.811   6.658  0.8774  1.1755 -3.2084
  103OSM    C3S10350   4.568   0.822   6.625 -0.1172  0.1469  0.1361
  103OSM    H3S10351   4.660   0.759   6.629  0.7282  1.2927 -0.5956
  103OSM     O310352   4.596   0.926   6.721 -0.5421  0.1736  0.1232
  103OSM    HO310353   4.536   0.901   6.791  0.1176 -0.6640  0.4043
  103OSM    C4S10354   4.555   0.885   6.488 -0.2088 -0.1680  0.0143
  103OSM    H4S10355   4.453   0.924   6.474 -0.0802  0.8491  1.6506
  103OSM    C5S10356   4.649   0.889   6.395  0.1467  0.0777  0.1127
  103OSM    H5S10357   4.751   0.873   6.434 -0.4875 -3.8304  0.6058
  103OSM    C6S10358   4.640   0.946   6.262  0.1910 -0.4715  0.4722
  103OSM    H6S10359   4.549   1.008   6.244  0.5304  0.1972  0.9836
  103OSM    H6T10360   4.622   0.860   6.195  0.5119 -0.5422  0.4761
  103OSM    C7S10361   4.761   1.033   6.223 -0.4615 -0.5221 -0.3738
  103OSM    H7S10362   4.851   0.971   6.205  0.4808  0.3700  0.9896
  103OSM    H7T10363   4.787   1.103   6.306  1.4086 -2.8106  1.0935
  103OSM    C8S10364   4.729   1.117   6.100 -0.1968  0.1382 -0.4292
  103OSM    H8S10365   4.820   1.176   6.075  0.7288 -1.4408 -0.9451
  103OSM    H8T10366   4.649   1.191   6.124 -1.4306 -1.6269  1.1318
  103OSM    C9S10367   4.696   1.031   5.978  0.0159  0.0625  0.0875
  103OSM    H9S10368   4.683   1.085   5.882 -1.4508 -1.5092 -0.6626
  103OSM    H9T10369   4.597   0.983   5.994  0.0459 -0.4703 -1.1935
  103OSM   C10S10370   4.814   0.930   5.946 -0.4141  0.1615 -0.0839
  103OSM   H10S10371   4.810   0.843   6.014 -0.7323  1.4977  1.6641
  103OSM   H10T10372   4.912   0.981   5.959  0.2326 -1.6171  2.9051
  103OSM   C11S10373   4.792   0.872   5.809 -0.2302 -0.4676 -0.6275
  103OSM   H11S10374   4.797   0.956   5.737 -0.5839 -0.0076 -0.1232
  103OSM   H11T10375   4.691   0.826   5.813  0.3243 -1.6889  1.1396
  103OSM   C12S10376   4.895   0.766   5.777 -0.0344  0.6484 -0.0279
  103OSM   H12S10377   4.917   0.698   5.863 -2.8611  0.4176  0.6072
  103OSM   H12T10378   4.989   0.820   5.752  1.5447 -0.1892  3.4382
  103OSM   C13S10379   4.867   0.670   5.661  0.4336 -0.0018  0.0141
  103OSM   H13S10380   4.776   0.611   5.682  0.6120 -0.0373  0.6896
  103OSM   H13T10381   4.947   0.596   5.635 -0.6899 -1.6114  0.9601
  103OSM   C14S10382   4.844   0.751   5.527  0.0137  0.2270 -0.2103
  103OSM   H14S10383   4.938   0.810   5.518 -1.4413  2.7071  0.1536
  103OSM   H14T10384   4.766   0.830   5.527 -0.7729 -0.5084  1.6920
  103OSM   C15S10385   4.831   0.657   5.410  0.5843  0.3150  0.1542
  103OSM   H15S10386   4.743   0.590   5.423 -0.6147  1.4722 -1.5897
  103OSM   H15T10387   4.926   0.600   5.415  0.7386  0.5153 -0.4310
  103OSM   C16S10388   4.817   0.721   5.273 -0.3432 -0.2297 -0.1851
  103OSM   H16S10389   4.915   0.772   5.259 -0.3663 -0.3555 -0.8777
  103OSM   H16T10390   4.741   0.802   5.267  0.0125  0.0911 -0.4735
  103OSM   C17S10391   4.798   0.616   5.167 -0.8055 -0.1273  0.0641
  103OSM   H17S10392   4.697   0.570   5.171 -0.0839 -1.7118  1.3014
  103OSM   H17T10393   4.876   0.538   5.182 -0.2883  0.5459  0.9636
  103OSM   C18S10394   4.815   0.678   5.024 -0.0827  0.1114  0.2913
  103OSM   H18S10395   4.728   0.742   4.999 -1.6552 -2.5988 -1.8239
  103OSM   H18T10396   4.812   0.598   4.947 -0.7939  0.6344 -0.2362
  103OSM   H18U10397   4.913   0.729   5.022  0.3794 -0.7163  0.9683
  103OSM    C1F10398   4.318   0.553   6.574  0.5457  0.0686 -0.3938
  103OSM     OF10399   4.220   0.606   6.620  0.1778 -0.1173  0.2886
  103OSM    C2F10400   4.318   0.420   6.507 -0.6355  0.3142  0.6774
  103OSM    H2F10401   4.290   0.338   6.576  0.1057 -0.9920 -0.5219
  103OSM    H2G10402   4.424   0.399   6.482 -0.5767  2.1796 -0.8970
  103OSM    C3F10403   4.229   0.438   6.387 -0.1868  0.1738 -0.0941
  103OSM    H3F10404   4.273   0.512   6.316  0.7847  0.3918  0.7153
  103OSM    H3G10405   4.124   0.467   6.412 -2.1133 -3.8912 -2.4187
  103OSM    C4F10406   4.208   0.312   6.296  0.0095 -0.3538  0.0525
  103OSM    H4F10407   4.174   0.218   6.344 -0.8130 -1.6876 -2.9222
  103OSM    H4G10408   4.306   0.307   6.244 -0.0290  0.0137 -0.0556
  103OSM    C5F10409   4.102   0.340   6.185 -0.8630 -0.1158  0.2296
  103OSM    H5F10410   4.140   0.431   6.133  1.7491 -0.9987  0.4619
  103OSM    H5G10411   4.014   0.371   6.246  0.0354  1.2363  0.9068
  103OSM    C6F10412   4.086   0.228   6.083  0.1024 -0.3842 -0.2652
  103OSM    H6F10413   4.054   0.137   6.137 -3.9224  0.1071 -1.4937
  103OSM    H6G10414   4.184   0.206   6.036  0.7267  0.3576  0.6369
  103OSM    C7F10415   3.985   0.274   5.981 -0.3188  0.1705  0.0689
  103OSM    H7F10416   3.930   0.364   6.016  0.4413  1.3130 -1.5314
  103OSM    H7G10417   3.914   0.192   5.958 -1.8956  2.0426 -2.2051
  103OSM    C8F10418   4.048   0.295   5.845  0.3849 -0.2936  0.0269
  103OSM    H8F10419   4.107   0.207   5.812  0.4642 -0.7736  1.3855
  103OSM    H8G10420   4.120   0.378   5.862 -0.2628 -0.4205  5.0945
  103OSM    C9F10421   3.941   0.328   5.743 -1.3681 -0.6211 -0.2553
  103OSM    H9F10422   3.853   0.380   5.786 -1.1495 -0.4782  0.0211
  103OSM   C10F10423   3.944   0.292   5.610 -0.5188  0.0860 -0.0113
  103OSM   H10F10424   3.865   0.340   5.550 -1.7671 -0.6388  1.0072
  103OSM   C11F10425   4.055   0.234   5.526  0.4940 -0.6138  0.4609
  103OSM   H11F10426   4.032   0.132   5.488 -0.6320  0.0308 -0.6741
  103OSM   H11G10427   4.155   0.248   5.572  0.4617 -0.2437  0.4146
  103OSM   C12F10428   4.068   0.317   5.399  0.2409  0.5468  0.1022
  103OSM   H12F10429   4.174   0.309   5.365  0.7897 -0.5386  1.9159
  103OSM   H12G10430   4.044   0.421   5.430 -0.4353  0.0703  1.2447
  103OSM   C13F10431   3.975   0.275   5.283 -0.2780  0.2201 -0.0717
  103OSM   H13F10432   3.874   0.270   5.330  0.2411  0.7439  1.1444
  103OSM   H13G10433   4.002   0.186   5.223 -1.3058  0.8435 -1.5186
  103OSM   C14F10434   3.975   0.385   5.167 -0.2679 -0.3083 -0.2847
  103OSM   H14F10435   4.070   0.370   5.111  0.1114 -1.5611  0.6474
  103OSM   H14G10436   3.976   0.490   5.201 -3.8105  0.1246 -1.1290
  103OSM   C15F10437   3.872   0.353   5.059 -0.6132  0.0393  0.1959
  103OSM   H15F10438   3.769   0.342   5.098  0.3052 -1.4278  2.3921
  103OSM   H15G10439   3.907   0.262   5.007 -0.0912 -0.2404  1.0080
  103OSM   C16F10440   3.877   0.467   4.954 -0.0224 -0.0419 -0.1918
  103OSM   H16F10441   3.981   0.501   4.934  0.4224 -0.8235  0.7068
  103OSM   H16G10442   3.826   0.558   4.991  0.9342  1.0141 -1.3663
  103OSM   C17F10443   3.813   0.417   4.823 -0.2516  0.6010 -0.4401
  103OSM   H17F10444   3.710   0.391   4.853 -0.6509  1.8917 -0.6339
  103OSM   H17G10445   3.870   0.333   4.778  0.0833  0.3143  0.5003
  103OSM   C18F10446   3.794   0.536   4.723 -0.6222 -0.0730 -0.2268
  103OSM   H18F10447   3.881   0.588   4.678 -0.6907 -0.1083 -0.3986
  103OSM   H18G10448   3.716   0.602   4.766  0.1691 -0.1151  1.3613
  103OSM   H18H10449   3.736   0.499   4.636 -0.5902  0.6675 -0.5733
  104OSM      N10450   5.227   1.272   7.095 -0.2104 -0.2104  0.3821
  104OSM    C1510451   5.258   1.415   7.144  0.0026  0.0652  0.4468
  104OSM   H15A10452   5.359   1.418   7.182  1.1251  0.4575 -2.3062
  104OSM   H15B10453   5.195   1.447   7.225 -0.2414 -0.7899  0.6075
  104OSM   H15C10454   5.243   1.497   7.076  1.6232  0.4843  0.5556
  104OSM    C1410455   5.258   1.180   7.200 -0.4301  0.8247  1.0874
  104OSM   H14A10456   5.187   1.198   7.279  0.9991 -1.5544  3.0899
  104OSM   H14B10457   5.363   1.192   7.225  0.2012  1.6945 -1.5644
  104OSM   H14C10458   5.246   1.081   7.158  1.8841  0.7776  0.3633
  104OSM    C1310459   5.090   1.272   7.057 -0.3151  0.9133  0.7320
  104OSM   H13A10460   5.075   1.347   6.980 -1.1483 -2.4965 -2.7640
  104OSM   H13B10461   5.017   1.286   7.136 -1.4230 -2.2939  0.4242
  104OSM   H13C10462   5.070   1.179   7.005 -2.5194  1.8315 -0.2151
  104OSM    C1210463   5.320   1.255   6.972  0.9191  0.3372 -1.1311
  104OSM   H12A10464   5.420   1.278   7.005 -0.1819  0.3318  2.6744
  104OSM   H12B10465   5.302   1.339   6.907  0.9308  1.2553  0.0278
  104OSM    C1110466   5.310   1.126   6.890 -0.3234 -0.6026 -0.5396
  104OSM   H11A10467   5.315   1.042   6.962  0.3167 -0.5303 -0.4949
  104OSM   H11B10468   5.390   1.097   6.819 -1.2549 -1.6361 -1.1896
  104OSM      P10469   5.138   1.216   6.702  0.0994 -0.2055 -0.1223
  104OSM    O1310470   4.995   1.246   6.718 -0.0458  0.3059  0.4723
  104OSM    O1410471   5.229   1.336   6.708  0.6802  0.0006  0.0531
  104OSM    O1110472   5.157   1.126   6.572  0.1959  0.4993  0.2568
  104OSM    O1210473   5.187   1.121   6.821  0.5947  0.0061 -0.2516
  104OSM    C1S10474   5.273   1.041   6.564  0.2528  0.4560  1.0095
  104OSM    H1S10475   5.257   0.954   6.630 -2.9795 -0.6269 -0.9875
  104OSM    H1T10476   5.364   1.094   6.603  0.3613 -0.1210  1.5545
  104OSM     NF10477   5.425   0.911   6.421 -0.6039  0.3429  0.4610
  104OSM    HNF10478   5.509   0.953   6.387 -0.7858 -2.5139 -4.4965
  104OSM    C2S10479   5.298   0.985   6.421 -0.3012 -0.0770 -0.2453
  104OSM    H2S10480   5.219   0.911   6.395  0.0603 -0.0778 -1.4167
  104OSM    C3S10481   5.306   1.098   6.309  0.2457  0.3749  0.7268
  104OSM    H3S10482   5.408   1.143   6.312  1.1655 -1.5176 -0.4303
  104OSM     O310483   5.206   1.195   6.321 -0.0143  0.7624  0.7192
  104OSM    HO310484   5.187   1.179   6.414  1.3841  0.4054  0.9756
  104OSM    C4S10485   5.301   1.029   6.176 -0.1637  0.0212 -0.3570
  104OSM    H4S10486   5.392   0.974   6.147 -0.4382  0.4232 -2.0821
  104OSM    C5S10487   5.192   0.993   6.104  0.5515 -0.4191 -1.3309
  104OSM    H5S10488   5.095   1.023   6.146 -0.2865 -1.9848 -2.0701
  104OSM    C6S10489   5.202   0.902   5.980  0.1547  0.0031 -0.8278
  104OSM    H6S10490   5.207   0.969   5.891 -0.4850  0.3026 -0.6417
  104OSM    H6T10491   5.102   0.854   5.972 -1.1390  2.1858  0.8619
  104OSM    C7S10492   5.316   0.803   5.969  0.3469 -0.6141  0.0935
  104OSM    H7S10493   5.326   0.733   6.055 -1.2813 -1.6986 -0.5486
  104OSM    H7T10494   5.413   0.856   5.967 -0.1938  0.3585 -1.3951
  104OSM    C8S10495   5.306   0.705   5.850 -0.4331 -0.1794 -0.4332
  104OSM    H8S10496   5.216   0.640   5.858 -1.2399  1.1084  3.0628
  104OSM    H8T10497   5.400   0.647   5.837  0.6225  1.1611  0.7776
  104OSM    C9S10498   5.283   0.782   5.717  0.2912 -0.2973 -0.1267
  104OSM    H9S10499   5.352   0.869   5.723  1.5490 -1.0739 -2.1803
  104OSM    H9T10500   5.178   0.818   5.706 -0.5557 -2.1479  1.3543
  104OSM   C10S10501   5.308   0.687   5.597  0.4869 -0.7841 -0.5470
  104OSM   H10S10502   5.256   0.590   5.614  0.7518 -1.2011 -1.9894
  104OSM   H10T10503   5.415   0.657   5.595  0.8439  0.4250 -0.3591
  104OSM   C11S10504   5.250   0.738   5.460 -0.4035 -0.6458  0.1820
  104OSM   H11S10505   5.298   0.830   5.422  0.1209 -1.1613 -0.4260
  104OSM   H11T10506   5.139   0.747   5.468 -0.4851  0.4736 -1.5970
  104OSM   C12S10507   5.280   0.636   5.357 -0.1072  0.5180 -0.4675
  104OSM   H12S10508   5.269   0.536   5.404 -1.1891  1.0313  0.4276
  104OSM   H12T10509   5.386   0.653   5.330 -0.1859  0.6673 -0.6874
  104OSM   C13S10510   5.195   0.641   5.230  0.2967  0.0881  0.5805
  104OSM   H13S10511   5.205   0.747   5.200  1.6291 -0.0103  0.6213
  104OSM   H13T10512   5.092   0.607   5.254 -0.1725  1.9018  1.2348
  104OSM   C14S10513   5.251   0.560   5.106  0.4519  0.0617 -0.4451
  104OSM   H14S10514   5.254   0.454   5.140  1.3631 -0.6336 -2.5438
  104OSM   H14T10515   5.358   0.588   5.095  1.1446 -2.0718  0.3658
  104OSM   C15S10516   5.172   0.575   4.978 -0.3534 -0.0463 -0.8603
  104OSM   H15S10517   5.157   0.680   4.945  1.4571  0.6744  0.3646
  104OSM   H15T10518   5.071   0.530   4.989 -0.3909  0.4273  1.3490
  104OSM   C16S10519   5.249   0.496   4.864  0.1534 -0.3779  0.4330
  104OSM   H16S10520   5.167   0.466   4.795  0.4299 -2.7175  1.0439
  104OSM   H16T10521   5.284   0.405   4.918 -0.9323 -0.9230  0.2465
  104OSM   C17S10522   5.342   0.595   4.798 -0.4763  0.6337 -0.1084
  104OSM   H17S10523   5.422   0.633   4.865  1.6955 -0.0492 -2.1630
  104OSM   H17T10524   5.282   0.683   4.767  2.7703  2.4416 -1.7485
  104OSM   C18S10525   5.412   0.540   4.676  0.1765 -0.6827  0.2152
  104OSM   H18S10526   5.338   0.506   4.600 -0.7498 -2.3021  1.7499
  104OSM   H18T10527   5.479   0.458   4.712  1.7411 -0.3954 -1.8447
  104OSM   H18U10528   5.480   0.618   4.636 -1.5587  1.6755  1.6183
  104OSM    C1F10529   5.433   0.788   6.479 -0.0503  0.3540 -0.0924
  104OSM     OF10530   5.334   0.721   6.520 -0.2710  0.3486  0.0569
  104OSM    C2F10531   5.567   0.732   6.508  0.2020 -0.4765 -0.2699
  104OSM    H2F10532   5.590   0.746   6.616 -0.2557  0.8824 -0.3309
  104OSM    H2G10533   5.642   0.802   6.465  0.3648 -0.9501 -0.7624
  104OSM    C3F10534   5.573   0.597   6.439  0.8826  0.0843  0.4196
  104OSM    H3F10535   5.491   0.535   6.482 -1.1224  2.2423 -0.1009
  104OSM    H3G10536   5.674   0.551   6.449  0.7286 -0.7697 -1.5042
  104OSM    C4F10537   5.557   0.600   6.285  0.5704  0.6097  0.4636
  104OSM    H4F10538   5.623   0.674   6.235 -0.3483 -0.0279 -1.8149
  104OSM    H4G10539   5.454   0.632   6.262 -0.0222 -2.2131 -1.3186
  104OSM    C5F10540   5.553   0.464   6.218 -0.3193  0.2615  0.5022
  104OSM    H5F10541   5.482   0.391   6.261 -0.2024  0.5036  1.1103
  104OSM    H5G10542   5.657   0.426   6.228 -0.6834 -0.3303  2.3189
  104OSM    C6F10543   5.535   0.473   6.059  0.0659  0.5768 -0.6651
  104OSM    H6F10544   5.608   0.552   6.031  0.2602  0.5371 -0.2864
  104OSM    H6G10545   5.431   0.502   6.032 -0.4575 -0.5554  0.0387
  104OSM    C7F10546   5.585   0.343   5.979 -0.1133  0.0686 -0.2161
  104OSM    H7F10547   5.527   0.249   5.993  4.7402 -3.0291  1.8815
  104OSM    H7G10548   5.687   0.314   6.013  0.4763 -0.0842 -1.9980
  104OSM    C8F10549   5.589   0.368   5.825  0.0957  0.1110  0.0332
  104OSM    H8F10550   5.669   0.304   5.782  0.0095  0.8739 -1.3241
  104OSM    H8G10551   5.624   0.474   5.824  0.3063  0.0611  0.9539
  104OSM    C9F10552   5.449   0.358   5.769 -0.0226 -0.5103 -0.4586
  104OSM    H9F10553   5.367   0.390   5.835 -0.1733 -2.7186  0.5219
  104OSM   C10F10554   5.423   0.296   5.653 -0.9208 -0.4572  0.2396
  104OSM   H10F10555   5.317   0.295   5.624 -0.7914  1.9112 -0.5259
  104OSM   C11F10556   5.514   0.223   5.553  0.0978  0.1225  0.2473
  104OSM   H11F10557   5.492   0.116   5.531 -1.1630  0.1809  1.1273
  104OSM   H11G10558   5.620   0.230   5.585  0.3658 -1.5964 -0.1431
  104OSM   C12F10559   5.497   0.295   5.416 -0.3594 -0.4282  0.4168
  104OSM   H12F10560   5.507   0.405   5.424  3.3500 -0.7448  1.7717
  104OSM   H12G10561   5.400   0.279   5.364  0.8656 -1.5837 -1.6775
  104OSM   C13F10562   5.608   0.272   5.306  0.3127 -0.0075 -0.5055
  104OSM   H13F10563   5.592   0.164   5.284  0.1436  0.0114 -0.4779
  104OSM   H13G10564   5.705   0.296   5.354 -0.8487  1.2250  1.4222
  104OSM   C14F10565   5.574   0.352   5.182 -0.1549  0.1078  0.1421
  104OSM   H14F10566   5.585   0.462   5.196  1.5293 -0.1116  0.9119
  104OSM   H14G10567   5.473   0.335   5.140 -0.9604  2.0975  1.1387
  104OSM   C15F10568   5.672   0.308   5.062 -0.4678 -0.3084  0.1671
  104OSM   H15F10569   5.664   0.198   5.048 -1.3398 -0.1776 -0.4001
  104OSM   H15G10570   5.776   0.328   5.096 -0.0673 -2.1238  0.1120
  104OSM   C16F10571   5.652   0.379   4.932  0.1185 -0.3567 -0.2670
  104OSM   H16F10572   5.673   0.487   4.950 -1.1829 -0.2956  1.0462
  104OSM   H16G10573   5.545   0.366   4.906 -0.6358  2.1093  1.2198
  104OSM   C17F10574   5.741   0.328   4.816 -0.0796  0.5062 -0.4538
  104OSM   H17F10575   5.848   0.349   4.836  0.9312 -3.1310 -1.1917
  104OSM   H17G10576   5.724   0.390   4.725  1.2264  1.8365  0.1715
  104OSM   C18F10577   5.726   0.177   4.783 -0.9372  0.4906  0.4467
  104OSM   H18F10578   5.621   0.143   4.766 -0.7141 -1.3422  2.3769
  104OSM   H18G10579   5.785   0.102   4.839 -0.3236  0.7830  0.2076
  104OSM   H18H10580   5.765   0.174   4.679 -0.1685 -0.9822  0.7549
  105OSM      N10581   6.708   1.457   6.676 -0.1008  0.5726  0.2909
  105OSM    C1510582   6.715   1.358   6.787 -0.2460 -0.2320  0.0703
  105OSM   H15A10583   6.815   1.319   6.799 -0.8700 -2.3990 -1.1523
  105OSM   H15B10584   6.663   1.266   6.765 -2.3959  1.0193 -0.3298
  105OSM   H15C10585   6.676   1.401   6.878  0.5934 -0.6756  0.6497
  105OSM    C1410586   6.793   1.579   6.724 -0.0675  0.4702  0.5187
  105OSM   H14A10587   6.823   1.645   6.644 -2.8661  2.6305  1.0939
  105OSM   H14B10588   6.887   1.544   6.765 -0.7964 -0.1068  1.7417
  105OSM   H14C10589   6.749   1.628   6.809  2.1822  0.6151  1.6826
  105OSM    C1310590   6.782   1.392   6.563  0.2216 -0.1005  0.4780
  105OSM   H13A10591   6.722   1.316   6.516 -1.0444  2.3398 -2.2346
  105OSM   H13B10592   6.874   1.345   6.592  1.6240  2.4497  0.4980
  105OSM   H13C10593   6.798   1.472   6.491 -2.2920 -1.3673 -1.6668
  105OSM    C1210594   6.575   1.505   6.634 -0.3340  0.2609  0.5147
  105OSM   H12A10595   6.526   1.423   6.583  0.6903 -0.2933  0.3914
  105OSM   H12B10596   6.578   1.591   6.568 -1.2621 -0.3294 -0.3278
  105OSM    C1110597   6.482   1.556   6.748  0.0409  0.4693 -0.1407
  105OSM   H11A10598   6.413   1.628   6.700  2.1422  0.8402 -2.8607
  105OSM   H11B10599   6.542   1.629   6.807  1.3293 -0.9433  0.3658
  105OSM      P10600   6.278   1.398   6.794 -0.2892 -0.1639 -0.2195
  105OSM    O1310601   6.271   1.262   6.851  0.1306 -0.2537  0.0603
  105OSM    O1410602   6.174   1.491   6.828  0.8335 -0.2648 -0.2365
  105OSM    O1110603   6.265   1.392   6.633  0.3865 -0.0145  0.6737
  105OSM    O1210604   6.425   1.451   6.830  0.1981 -1.1440  0.4173
  105OSM    C1S10605   6.327   1.280   6.570 -0.6036  0.0098  0.1046
  105OSM    H1S10606   6.294   1.181   6.608  0.8975 -0.9069 -0.8655
  105OSM    H1T10607   6.436   1.277   6.591 -0.8321 -1.1752  1.2175
  105OSM     NF10608   6.374   1.168   6.358 -0.3005  0.3410  0.1743
  105OSM    HNF10609   6.472   1.187   6.355 -0.2971  0.1778 -0.8900
  105OSM    C2S10610   6.296   1.271   6.410 -0.5217 -0.0219 -0.3491
  105OSM    H2S10611   6.189   1.241   6.411 -0.8715  1.1595  1.4039
  105OSM    C3S10612   6.319   1.414   6.358 -0.5990 -0.2123 -0.5991
  105OSM    H3S10613   6.422   1.448   6.383 -0.2576  1.2096 -3.4756
  105OSM     O310614   6.222   1.507   6.408 -0.3722  0.7194 -0.2298
  105OSM    HO310615   6.216   1.483   6.501 -2.0463  1.6400 -0.0755
  105OSM    C4S10616   6.309   1.399   6.203 -0.2199  0.1119 -0.1563
  105OSM    H4S10617   6.393   1.341   6.163  0.9374  2.4815 -1.3297
  105OSM    C5S10618   6.203   1.439   6.127 -0.4371  0.3765  0.2471
  105OSM    H5S10619   6.114   1.490   6.165 -0.2629  1.5318 -0.8037
  105OSM    C6S10620   6.198   1.404   5.979  0.5153  0.6670 -0.2004
  105OSM    H6S10621   6.296   1.354   5.961  0.0930  0.1377 -1.1167
  105OSM    H6T10622   6.190   1.495   5.916  0.7816  1.2874  0.6406
  105OSM    C7S10623   6.091   1.293   5.961  1.2631 -0.3670 -0.2155
  105OSM    H7S10624   5.987   1.327   5.983  1.9834  0.4386  2.2232
  105OSM    H7T10625   6.113   1.211   6.032 -0.6587  0.3130  1.2640
  105OSM    C8S10626   6.093   1.224   5.825  0.7747  0.6493 -0.3106
  105OSM    H8S10627   6.047   1.123   5.827  2.1518 -0.0027 -0.2327
  105OSM    H8T10628   6.199   1.206   5.798  0.4706 -1.6469 -0.2111
  105OSM    C9S10629   6.034   1.296   5.703  0.3336 -0.6547  0.5185
  105OSM    H9S10630   6.090   1.391   5.691  1.4783 -1.2120  1.2244
  105OSM    H9T10631   5.931   1.319   5.735 -0.8942 -2.8510 -1.5090
  105OSM   C10S10632   6.040   1.214   5.574  0.2248  0.1715  0.3456
  105OSM   H10S10633   6.004   1.111   5.599 -3.9243  1.2542 -0.4617
  105OSM   H10T10634   6.146   1.199   5.542  0.5421 -0.0482  1.4536
  105OSM   C11S10635   5.960   1.274   5.457 -0.1618  0.1835  0.9610
  105OSM   H11S10636   5.996   1.377   5.436 -0.7667  0.2914  0.4312
  105OSM   H11T10637   5.851   1.264   5.474 -0.2651 -0.7697 -0.1338
  105OSM   C12S10638   5.988   1.200   5.326  0.2203 -0.5696 -0.9224
  105OSM   H12S10639   5.963   1.093   5.338 -4.2800  0.5728  2.7480
  105OSM   H12T10640   6.094   1.220   5.298  1.1735  0.1094  2.6175
  105OSM   C13S10641   5.902   1.256   5.203 -0.0382 -0.1156 -0.4185
  105OSM   H13S10642   5.943   1.359   5.197  0.3008 -0.2788 -0.9670
  105OSM   H13T10643   5.793   1.250   5.225  0.0637  2.3282  1.0951
  105OSM   C14S10644   5.920   1.177   5.070  0.1721  0.0249  0.6057
  105OSM   H14S10645   5.868   1.079   5.078 -0.2118  0.2789  1.3527
  105OSM   H14T10646   6.029   1.169   5.048 -0.1210  1.1968 -1.5304
  105OSM   C15S10647   5.856   1.246   4.948 -0.0492  0.5625  0.6483
  105OSM   H15S10648   5.750   1.264   4.976 -0.5907 -1.1249 -0.1816
  105OSM   H15T10649   5.858   1.183   4.857  2.4420  2.1973 -0.5573
  105OSM   C16S10650   5.918   1.384   4.900 -0.6473 -0.0302  0.7518
  105OSM   H16S10651   6.027   1.361   4.899 -1.0970 -2.4007  0.2206
  105OSM   H16T10652   5.906   1.466   4.974  2.6089  0.2995  1.0950
  105OSM   C17S10653   5.885   1.441   4.762  0.0696  0.0175 -0.3344
  105OSM   H17S10654   5.925   1.384   4.676  0.4053  1.5185 -1.2109
  105OSM   H17T10655   5.921   1.546   4.763 -0.7163  0.3173  1.5123
  105OSM   C18S10656   5.732   1.443   4.739 -0.4150 -0.0825  1.0388
  105OSM   H18S10657   5.675   1.516   4.800 -4.1175 -0.6529 -1.3731
  105OSM   H18T10658   5.678   1.346   4.732 -0.2323 -0.1505  0.4381
  105OSM   H18U10659   5.729   1.487   4.637  1.4845  2.0849  1.8424
  105OSM    C1F10660   6.338   1.037   6.368  1.4350  0.1559 -0.3722
  105OSM     OF10661   6.228   1.003   6.412  0.0429 -0.3264 -0.6203
  105OSM    C2F10662   6.442   0.937   6.340 -0.0211  0.8530 -0.8967
  105OSM    H2F10663   6.467   0.867   6.422 -1.9957  0.2048 -0.7965
  105OSM    H2G10664   6.535   0.994   6.319  1.3532 -0.4085  1.3341
  105OSM    C3F10665   6.390   0.844   6.232  0.6474  0.5999 -0.2490
  105OSM    H3F10666   6.301   0.793   6.276 -0.3782  3.1022  0.8000
  105OSM    H3G10667   6.476   0.778   6.208  0.5553 -0.0732  1.1730
  105OSM    C4F10668   6.335   0.908   6.099  1.1013  0.1039 -1.0798
  105OSM    H4F10669   6.400   0.985   6.051  1.4475 -0.7371 -1.9929
  105OSM    H4G10670   6.249   0.967   6.137  2.4021  2.5105 -1.6842
  105OSM    C5F10671   6.284   0.809   5.994 -0.4449  0.6938  0.0526
  105OSM    H5F10672   6.203   0.747   6.037 -0.4565 -0.8981 -2.0830
  105OSM    H5G10673   6.363   0.746   5.948 -0.9960 -1.1712  1.5720
  105OSM    C6F10674   6.208   0.880   5.877  0.7541 -0.0130  0.3020
  105OSM    H6F10675   6.254   0.973   5.838 -1.7366  1.6214  1.0265
  105OSM    H6G10676   6.113   0.907   5.927 -0.5009 -2.1024 -0.8003
  105OSM    C7F10677   6.144   0.793   5.771  0.3817  0.1613 -0.5305
  105OSM    H7F10678   6.039   0.819   5.744 -0.5148 -2.1291  0.4783
  105OSM    H7G10679   6.126   0.695   5.822  0.5876  0.3253 -0.1332
  105OSM    C8F10680   6.229   0.764   5.650 -0.4740  0.4753 -0.6195
  105OSM    H8F10681   6.202   0.669   5.599  2.4022 -0.2834 -0.9068
  105OSM    H8G10682   6.331   0.739   5.685 -0.7863 -0.2070 -0.1851
  105OSM    C9F10683   6.248   0.882   5.554  0.4112  0.0485  0.2879
  105OSM    H9F10684   6.302   0.962   5.607 -1.8518  0.9058  1.4304
  105OSM   C10F10685   6.202   0.890   5.429  0.5559  0.0083  0.0515
  105OSM   H10F10686   6.238   0.971   5.364  1.0174  0.5062  0.9055
  105OSM   C11F10687   6.105   0.796   5.361  0.6569  0.6984  0.9338
  105OSM   H11F10688   6.000   0.814   5.391 -1.0143 -2.4140 -2.3031
  105OSM   H11G10689   6.124   0.687   5.373  1.7825  0.5653 -1.4347
  105OSM   C12F10690   6.099   0.812   5.212  0.0777 -0.3260 -0.9193
  105OSM   H12F10691   6.100   0.920   5.185  0.2016  0.2604  1.2040
  105OSM   H12G10692   5.997   0.773   5.191 -1.0072  1.2705  0.9262
  105OSM   C13F10693   6.206   0.745   5.123  0.1507 -0.7371 -0.3913
  105OSM   H13F10694   6.218   0.634   5.126  1.8281 -0.5854 -0.2498
  105OSM   H13G10695   6.307   0.778   5.158 -0.2094 -0.9767  0.9293
  105OSM   C14F10696   6.187   0.788   4.978 -0.5895  0.2108 -0.0853
  105OSM   H14F10697   6.224   0.892   4.975  0.6956 -0.2402 -0.5249
  105OSM   H14G10698   6.081   0.779   4.946 -0.9763  1.0898  0.8822
  105OSM   C15F10699   6.266   0.697   4.879 -0.1948  0.4151  0.3977
  105OSM   H15F10700   6.259   0.745   4.779 -0.1553  0.4860  0.4291
  105OSM   H15G10701   6.215   0.598   4.874  0.9935 -0.1734 -0.6390
  105OSM   C16F10702   6.414   0.671   4.913  0.0190  0.4444  0.0722
  105OSM   H16F10703   6.414   0.616   5.010 -0.5296 -0.7378 -0.5777
  105OSM   H16G10704   6.478   0.760   4.929  0.9845 -0.2204 -0.0146
  105OSM   C17F10705   6.486   0.581   4.812 -0.4234 -0.0750 -0.1176
  105OSM   H17F10706   6.483   0.642   4.719 -0.5578 -1.2777 -0.9286
  105OSM   H17G10707   6.435   0.483   4.801 -1.5817  0.4637  0.1809
  105OSM   C18F10708   6.633   0.565   4.854 -0.0533 -0.3328 -0.0103
  105OSM   H18F10709   6.635   0.532   4.960  2.6248 -1.2528 -0.2744
  105OSM   H18G10710   6.688   0.662   4.856  0.3139 -0.5164 -0.8824
  105OSM   H18H10711   6.697   0.495   4.796  1.5995  0.2260  1.0315
  106OSM      N10712   5.691   5.019   6.910  0.2883 -0.4783  0.4573
  106OSM    C1510713   5.792   4.925   6.838  0.5086 -0.2086  0.3772
  106OSM   H15A10714   5.880   4.921   6.900 -0.0169  0.6172  1.1996
  106OSM   H15B10715   5.822   4.970   6.745  0.6646  0.4023  0.7249
  106OSM   H15C10716   5.749   4.826   6.829  0.8329 -0.4808  1.6694
  106OSM    C1410717   5.629   4.952   7.024 -0.4358  0.3151  0.6295
  106OSM   H14A10718   5.700   4.901   7.087 -1.2298 -1.5011  0.1210
  106OSM   H14B10719   5.557   4.880   6.988 -0.6918  0.5824  0.6021
  106OSM   H14C10720   5.569   5.019   7.083 -1.4498 -0.8900  1.0124
  106OSM    C1310721   5.766   5.130   6.965 -0.2861 -0.2842 -0.3560
  106OSM   H13A10722   5.707   5.212   7.002 -2.3745  0.5712 -4.9332
  106OSM   H13B10723   5.825   5.176   6.887  2.1493 -1.3249  0.7429
  106OSM   H13C10724   5.826   5.090   7.046 -1.3310  0.5008  0.8388
  106OSM    C1210725   5.600   5.060   6.793 -0.0550 -0.1245  0.2770
  106OSM   H12A10726   5.553   4.969   6.758 -0.1476  0.3987 -1.0083
  106OSM   H12B10727   5.663   5.097   6.714 -0.9639  3.2245  0.9793
  106OSM    C1110728   5.490   5.151   6.825  0.5327 -0.1854  0.1315
  106OSM   H11A10729   5.423   5.113   6.906  1.7714  1.0965  1.8377
  106OSM   H11B10730   5.419   5.145   6.740 -0.7667 -1.7190  1.2631
  106OSM      P10731   5.434   5.386   6.901 -0.1810 -0.1152 -0.2633
  106OSM    O1310732   5.334   5.309   6.975  0.2335  0.1383  0.6207
  106OSM    O1410733   5.508   5.483   6.982 -0.0956  0.1123 -0.0727
  106OSM    O1110734   5.371   5.459   6.771  0.2650  0.3670 -1.0636
  106OSM    O1210735   5.531   5.287   6.832 -0.1203  0.2053 -0.0680
  106OSM    C1S10736   5.445   5.542   6.683 -0.2695 -0.2504 -0.4457
  106OSM    H1S10737   5.543   5.572   6.727 -0.7511 -0.1879  0.6103
  106OSM    H1T10738   5.395   5.637   6.656  0.7166  0.5244  0.3654
  106OSM     NF10739   5.539   5.564   6.459  0.0328  0.2085  0.7831
  106OSM    HNF10740   5.473   5.625   6.416 -0.8752 -1.9112 -1.0260
  106OSM    C2S10741   5.469   5.472   6.546 -0.4498  0.2560  0.1535
  106OSM    H2S10742   5.532   5.381   6.557 -1.0503 -0.1921 -0.0354
  106OSM    C3S10743   5.336   5.419   6.488 -0.4866  0.1642 -0.0252
  106OSM    H3S10744   5.276   5.511   6.474  1.7906  1.6660 -0.5842
  106OSM     O310745   5.265   5.323   6.576  0.3298 -0.2123  0.2640
  106OSM    HO310746   5.300   5.338   6.664  1.2638 -0.4434 -0.0563
  106OSM    C4S10747   5.375   5.361   6.347  0.6862  0.3994  0.4672
  106OSM    H4S10748   5.444   5.276   6.358 -0.4387 -0.8969 -1.6110
  106OSM    C5S10749   5.315   5.388   6.232 -0.7060 -0.6547  0.4710
  106OSM    H5S10750   5.236   5.464   6.231 -0.9425 -0.8262 -2.4841
  106OSM    C6S10751   5.329   5.331   6.093  0.1261 -0.3975  0.1468
  106OSM    H6S10752   5.324   5.410   6.016  0.9866  0.8163  1.3039
  106OSM    H6T10753   5.253   5.250   6.082  0.7997 -0.9538 -0.5052
  106OSM    C7S10754   5.465   5.256   6.070 -0.3363 -1.0912  0.2450
  106OSM    H7S10755   5.495   5.210   6.166 -0.7267 -0.6615  0.5812
  106OSM    H7T10756   5.538   5.338   6.054  1.2553 -2.1379  1.8208
  106OSM    C8S10757   5.468   5.153   5.960 -0.7275 -0.6873 -0.5858
  106OSM    H8S10758   5.411   5.061   5.986  2.0867 -2.0486  1.3072
  106OSM    H8T10759   5.572   5.117   5.944  0.5200  3.1108 -2.1463
  106OSM    C9S10760   5.418   5.199   5.825  0.5871  0.2659 -0.6211
  106OSM    H9S10761   5.323   5.257   5.824  0.7946  0.7437  1.5492
  106OSM    H9T10762   5.401   5.111   5.760 -4.2432  0.0147  0.6198
  106OSM   C10S10763   5.521   5.291   5.762 -0.2214  0.4329 -1.0466
  106OSM   H10S10764   5.622   5.246   5.757 -0.2339 -0.2326  2.4501
  106OSM   H10T10765   5.522   5.373   5.837  1.1504 -0.0320 -0.5364
  106OSM   C11S10766   5.481   5.347   5.622  0.0069  0.1420 -0.6838
  106OSM   H11S10767   5.559   5.421   5.594  2.7036 -2.4665 -0.5469
  106OSM   H11T10768   5.381   5.392   5.637  1.0850  2.2278  0.9024
  106OSM   C12S10769   5.488   5.245   5.512  1.0685  0.6466  0.2156
  106OSM   H12S10770   5.430   5.157   5.547  0.4627  0.3049 -1.5423
  106OSM   H12T10771   5.594   5.218   5.492  1.0891  0.9753 -0.1337
  106OSM   C13S10772   5.412   5.297   5.388 -0.4874 -0.6648 -0.3343
  106OSM   H13S10773   5.364   5.392   5.419  2.3707  0.5491  0.7460
  106OSM   H13T10774   5.341   5.228   5.338 -0.4129 -0.7093 -0.3795
  106OSM   C14S10775   5.502   5.352   5.269  0.9782  0.3524  0.2529
  106OSM   H14S10776   5.545   5.261   5.222 -1.6763 -0.3071 -1.0791
  106OSM   H14T10777   5.570   5.427   5.315  0.6811  0.3435  0.7181
  106OSM   C15S10778   5.416   5.420   5.158 -0.4832  0.7346 -0.5526
  106OSM   H15S10779   5.360   5.504   5.205  1.8932  1.2916  1.4898
  106OSM   H15T10780   5.360   5.343   5.101 -3.0828  1.2430  1.1228
  106OSM   C16S10781   5.511   5.499   5.061  0.2224  0.1313  0.1001
  106OSM   H16S10782   5.556   5.426   4.990  0.8333  2.2607 -1.8193
  106OSM   H16T10783   5.599   5.547   5.109  0.7615  1.5821 -2.1785
  106OSM   C17S10784   5.441   5.598   4.973  0.2191  0.1113  0.1252
  106OSM   H17S10785   5.381   5.668   5.037 -3.1088 -3.3119  1.1222
  106OSM   H17T10786   5.369   5.538   4.914 -1.4924  1.8648  0.3226
  106OSM   C18S10787   5.539   5.682   4.886 -0.8558  0.6659  0.3761
  106OSM   H18S10788   5.613   5.609   4.846 -1.1386 -0.1455  1.2920
  106OSM   H18T10789   5.597   5.754   4.948  1.7218 -2.9558  2.6466
  106OSM   H18U10790   5.489   5.735   4.803 -1.4773 -1.4947 -0.7151
  106OSM    C1F10791   5.666   5.600   6.473 -0.2629 -0.5158  0.3954
  106OSM     OF10792   5.731   5.564   6.566 -0.7233 -0.3503 -0.5153
  106OSM    C2F10793   5.717   5.694   6.372  0.0502 -0.6737 -0.4038
  106OSM    H2F10794   5.656   5.787   6.366  1.0403 -0.0933 -2.4742
  106OSM    H2G10795   5.706   5.638   6.276 -1.3988  1.6416 -1.6931
  106OSM    C3F10796   5.869   5.725   6.390 -0.4446  0.2432  0.2791
  106OSM    H3F10797   5.931   5.633   6.389  0.0901  0.5872 -1.2029
  106OSM    H3G10798   5.884   5.762   6.494 -0.8924 -1.1346  0.8552
  106OSM    C4F10799   5.933   5.816   6.285 -0.4975  0.1154 -0.2819
  106OSM    H4F10800   5.933   5.763   6.188  2.3757 -0.7247  0.0907
  106OSM    H4G10801   6.040   5.829   6.313 -0.2812 -0.7396 -0.6613
  106OSM    C5F10802   5.880   5.958   6.270 -0.1302 -0.0122 -0.7805
  106OSM    H5F10803   5.888   5.995   6.375 -0.9701 -0.6879 -0.4660
  106OSM    H5G10804   5.770   5.953   6.252 -0.1767  0.8739 -0.8026
  106OSM    C6F10805   5.959   6.045   6.177  0.7114  0.2389 -0.1639
  106OSM    H6F10806   6.064   6.010   6.187  0.0247 -2.0588 -0.3970
  106OSM    H6G10807   5.949   6.145   6.224  1.9452  0.9119 -1.2527
  106OSM    C7F10808   5.906   6.025   6.032 -0.1029  0.9713  0.3316
  106OSM    H7F10809   5.796   6.038   6.030 -0.0045  3.0324 -4.2156
  106OSM    H7G10810   5.933   5.925   5.993 -0.1770  1.2330 -0.3937
  106OSM    C8F10811   5.970   6.130   5.936 -0.0065  0.2317 -0.3190
  106OSM    H8F10812   6.074   6.095   5.955 -1.4342 -3.2401  2.3235
  106OSM    H8G10813   5.959   6.231   5.982 -2.1531 -0.8022  1.7039
  106OSM    C9F10814   5.915   6.121   5.795  1.1105  0.0851 -0.0798
  106OSM    H9F10815   5.812   6.158   5.798  1.0259 -0.1781  2.0195
  106OSM   C10F10816   5.981   6.093   5.685 -0.6264 -0.3545  0.1604
  106OSM   H10F10817   5.934   6.091   5.586  2.5149 -1.3196 -1.4510
  106OSM   C11F10818   6.123   6.044   5.677  0.3809  0.1031 -0.4960
  106OSM   H11F10819   6.174   6.062   5.774 -1.0249 -1.2562  0.5421
  106OSM   H11G10820   6.178   6.103   5.600 -0.5868  0.4675 -0.9255
  106OSM   C12F10821   6.129   5.893   5.641  0.6053 -0.3204  0.1752
  106OSM   H12F10822   6.084   5.873   5.542 -0.1439  1.0059  0.2296
  106OSM   H12G10823   6.069   5.838   5.717  1.1404 -1.2902 -0.0811
  106OSM   C13F10824   6.272   5.841   5.632 -0.6900  0.2785  0.0116
  106OSM   H13F10825   6.334   5.886   5.551 -0.0395  1.2990  1.0435
  106OSM   H13G10826   6.259   5.734   5.605  0.5265  0.2906 -0.6688
  106OSM   C14F10827   6.351   5.849   5.767 -0.2591 -0.3820 -0.0823
  106OSM   H14F10828   6.425   5.766   5.766  0.4716  0.2151  1.3724
  106OSM   H14G10829   6.286   5.826   5.854  0.4183  0.0425  0.5437
  106OSM   C15F10830   6.438   5.984   5.763 -0.5511 -0.3101 -1.0365
  106OSM   H15F10831   6.375   6.075   5.775 -1.5302 -1.3163  4.7480
  106OSM   H15G10832   6.504   5.987   5.674  0.4703 -2.6260 -0.4308
  106OSM   C16F10833   6.542   5.988   5.881 -0.7288  0.1492  0.4451
  106OSM   H16F10834   6.607   6.078   5.885 -2.3706  1.3358  2.3530
  106OSM   H16G10835   6.617   5.908   5.863 -2.1904 -1.3554  0.7377
  106OSM   C17F10836   6.476   5.978   6.018 -0.1239  0.2198 -0.0841
  106OSM   H17F10837   6.559   5.949   6.087 -1.0494 -1.6418  0.3139
  106OSM   H17G10838   6.401   5.896   6.023 -0.4495  0.5704  1.2234
  106OSM   C18F10839   6.419   6.109   6.074  0.1896 -0.1720 -0.0861
  106OSM   H18F10840   6.505   6.177   6.093 -0.7429  0.4772  2.0572
  106OSM   H18G10841   6.377   6.099   6.176  1.7194 -1.7319  0.4522
  106OSM   H18H10842   6.353   6.160   6.001  1.0977 -1.0863 -1.6086
  107OSM      N10843   5.648   2.754   6.707  0.4547  0.1408 -0.2235
  107OSM    C1510844   5.611   2.847   6.821 -0.1314 -0.6508  0.7729
  107OSM   H15A10845   5.575   2.784   6.901  1.6006 -1.2066  1.1580
  107OSM   H15B10846   5.543   2.921   6.782  1.7849  1.3401  1.0399
  107OSM   H15C10847   5.693   2.905   6.862 -1.6194  0.0377  2.9221
  107OSM    C1410848   5.765   2.672   6.749 -0.1605 -0.3558  0.4909
  107OSM   H14A10849   5.774   2.587   6.683 -0.8083  0.0895 -0.1777
  107OSM   H14B10850   5.746   2.635   6.849 -1.8128  0.4493  0.4959
  107OSM   H14C10851   5.853   2.734   6.738 -1.2457  1.1028 -0.2511
  107OSM    C1310852   5.540   2.651   6.696  0.1349  0.6377 -0.6355
  107OSM   H13A10853   5.532   2.601   6.792 -2.3001 -0.3310 -1.2557
  107OSM   H13B10854   5.561   2.571   6.627  3.6440 -0.4383  1.4570
  107OSM   H13C10855   5.444   2.695   6.673 -0.0621  1.2448  1.1675
  107OSM    C1210856   5.679   2.831   6.582  0.7120 -0.4731  0.5366
  107OSM   H12A10857   5.590   2.883   6.548  1.3842  0.0827 -0.4257
  107OSM   H12B10858   5.709   2.758   6.508  1.1436  1.0839 -0.9080
  107OSM    C1110859   5.792   2.941   6.578  0.8338 -0.2035  0.4888
  107OSM   H11A10860   5.789   2.981   6.474 -1.2437  0.6811  0.8378
  107OSM   H11B10861   5.895   2.902   6.589  0.8921 -0.1301  0.2044
  107OSM      P10862   5.864   3.116   6.766  0.2385  0.0922 -0.7233
  107OSM    O1310863   5.794   3.200   6.868 -0.2874 -0.5039  0.4098
  107OSM    O1410864   5.956   3.013   6.808 -0.1867  0.0010  0.0599
  107OSM    O1110865   5.946   3.200   6.669 -0.1505 -0.0479 -0.0679
  107OSM    O1210866   5.758   3.047   6.671  0.0911 -0.3672  0.0532
  107OSM    C1S10867   5.961   3.344   6.664 -0.3437  0.3640  0.3553
  107OSM    H1S10868   6.046   3.377   6.728  1.3527  0.6537 -1.9287
  107OSM    H1T10869   5.868   3.398   6.695 -0.2473 -0.6070  2.5480
  107OSM     NF10870   6.051   3.523   6.512  0.2214 -0.4044  0.6428
  107OSM    HNF10871   5.980   3.591   6.497 -1.3722 -2.0116  0.6556
  107OSM    C2S10872   5.995   3.391   6.512 -0.4035 -0.5473 -1.0538
  107OSM    H2S10873   6.076   3.324   6.476  3.2107  1.8656  1.8413
  107OSM    C3S10874   5.869   3.367   6.423 -0.1114  0.0215  0.3108
  107OSM    H3S10875   5.804   3.453   6.452  0.3127  0.0205  1.3193
  107OSM     O310876   5.791   3.250   6.455  0.3550 -0.0008 -0.3149
  107OSM    HO310877   5.846   3.202   6.518  1.4523  2.4305  0.6853
  107OSM    C4S10878   5.884   3.372   6.274 -0.1292 -0.1445 -0.5258
  107OSM    H4S10879   5.917   3.274   6.234  0.3034 -1.0572  1.8935
  107OSM    C5S10880   5.835   3.466   6.194 -0.4361 -0.1351  0.2870
  107OSM    H5S10881   5.770   3.546   6.232 -1.0131  0.1663 -1.2417
  107OSM    C6S10882   5.835   3.460   6.040 -0.2142  0.3640  0.3054
  107OSM    H6S10883   5.758   3.525   5.993  0.2986 -0.0680 -1.2080
  107OSM    H6T10884   5.822   3.355   6.007 -0.0630 -0.2081  2.0013
  107OSM    C7S10885   5.967   3.499   5.978 -0.5833  0.0284  0.4137
  107OSM    H7S10886   6.050   3.438   6.020 -0.6325 -0.2861  0.0546
  107OSM    H7T10887   5.995   3.605   5.997 -1.1257 -0.0649  1.8710
  107OSM    C8S10888   5.958   3.483   5.827  0.1573 -0.7658  0.1861
  107OSM    H8S10889   5.879   3.556   5.798  1.4908 -0.0222 -1.7884
  107OSM    H8T10890   5.930   3.380   5.797  2.8152 -1.0968 -1.4519
  107OSM    C9S10891   6.091   3.526   5.762  0.4048 -0.1728  0.3508
  107OSM    H9S10892   6.171   3.451   5.774 -1.4576 -2.0263  1.9005
  107OSM    H9T10893   6.118   3.630   5.791 -1.5449 -0.0243  1.8517
  107OSM   C10S10894   6.074   3.539   5.606  0.4564  0.5894  0.4729
  107OSM   H10S10895   5.992   3.609   5.579  1.7626  1.5133 -1.2956
  107OSM   H10T10896   6.035   3.439   5.575 -2.7863  1.3666  1.6145
  107OSM   C11S10897   6.195   3.586   5.527  0.0623 -0.5415  0.9292
  107OSM   H11S10898   6.288   3.530   5.546  1.5598  1.3409 -0.4938
  107OSM   H11T10899   6.212   3.693   5.551  1.1893  0.0251 -1.9678
  107OSM   C12S10900   6.187   3.571   5.370 -0.2536  0.5933 -0.4716
  107OSM   H12S10901   6.094   3.627   5.346 -1.0283 -0.0403  0.9141
  107OSM   H12T10902   6.177   3.463   5.348  0.6548  0.2876  0.5045
  107OSM   C13S10903   6.304   3.639   5.303 -0.1664 -0.0185 -0.0352
  107OSM   H13S10904   6.403   3.592   5.321  1.2223  0.7994 -4.4238
  107OSM   H13T10905   6.314   3.745   5.332  0.5004 -0.5208  1.7084
  107OSM   C14S10906   6.284   3.629   5.150  0.9987 -0.3849  0.6224
  107OSM   H14S10907   6.189   3.681   5.125 -0.2066 -2.8610 -0.2874
  107OSM   H14T10908   6.282   3.522   5.119 -1.5618  0.1221 -1.2979
  107OSM   C15S10909   6.399   3.707   5.070 -0.3399  0.5112 -0.4256
  107OSM   H15S10910   6.493   3.660   5.106 -0.8409  0.3072  0.6513
  107OSM   H15T10911   6.396   3.813   5.103 -0.0453  0.0809  1.0697
  107OSM   C16S10912   6.380   3.705   4.921 -0.4393 -0.2598 -0.2660
  107OSM   H16S10913   6.291   3.764   4.890 -0.8647 -0.4516  0.5759
  107OSM   H16T10914   6.355   3.601   4.894  0.8834 -0.6095 -0.2192
  107OSM   C17S10915   6.499   3.761   4.839 -0.4301  0.1468 -0.5297
  107OSM   H17S10916   6.589   3.711   4.882  0.8473  2.3526 -0.4791
  107OSM   H17T10917   6.527   3.867   4.857  1.6155 -0.2680 -0.9624
  107OSM   C18S10918   6.494   3.733   4.692  0.8354  0.3538 -0.1853
  107OSM   H18S10919   6.422   3.804   4.645 -2.4822 -0.7471  2.8150
  107OSM   H18T10920   6.446   3.634   4.677  0.0686  0.7204 -0.1721
  107OSM   H18U10921   6.584   3.729   4.627 -0.3160  0.8444 -1.8816
  107OSM    C1F10922   6.171   3.553   6.564  0.0912 -0.8082 -0.5303
  107OSM     OF10923   6.252   3.473   6.609 -0.0962  0.4692  0.5794
  107OSM    C2F10924   6.195   3.701   6.576 -0.2304 -0.2732 -0.4629
  107OSM    H2F10925   6.176   3.737   6.679 -3.4449 -1.7868 -0.4135
  107OSM    H2G10926   6.113   3.751   6.521 -0.0809  0.4970  0.0027
  107OSM    C3F10927   6.335   3.748   6.529 -0.5326 -0.8265  0.3636
  107OSM    H3F10928   6.413   3.699   6.591 -1.0150 -0.7687  1.0341
  107OSM    H3G10929   6.342   3.858   6.536  0.1568 -0.7820 -0.7846
  107OSM    C4F10930   6.364   3.710   6.379 -0.2079 -0.5536 -0.3903
  107OSM    H4F10931   6.339   3.602   6.369  1.6725 -0.9746 -0.8155
  107OSM    H4G10932   6.470   3.727   6.352  0.8413 -0.2676  3.3683
  107OSM    C5F10933   6.277   3.795   6.286 -0.6118  0.9957  0.3872
  107OSM    H5F10934   6.302   3.903   6.291  0.5621  0.9646 -2.6091
  107OSM    H5G10935   6.171   3.785   6.318 -0.4914  0.7252  0.6982
  107OSM    C6F10936   6.291   3.740   6.138  0.1831  0.4138 -0.3636
  107OSM    H6F10937   6.209   3.793   6.085 -1.7928 -0.6532  1.4828
  107OSM    H6G10938   6.269   3.633   6.156  1.5878  0.3899  1.5231
  107OSM    C7F10939   6.423   3.770   6.068  0.1888  0.2896  0.0308
  107OSM    H7F10940   6.506   3.702   6.098 -0.2310 -0.8655 -1.3142
  107OSM    H7G10941   6.447   3.878   6.075 -0.4569  0.4258  0.2901
  107OSM    C8F10942   6.399   3.740   5.920  0.2050  0.1549 -0.5062
  107OSM    H8F10943   6.321   3.812   5.889 -0.3473 -0.3490 -0.3080
  107OSM    H8G10944   6.375   3.633   5.904  2.6517 -0.1827 -2.6582
  107OSM    C9F10945   6.525   3.764   5.850 -0.1233 -0.2767  0.0920
  107OSM    H9F10946   6.609   3.724   5.909  0.9081  1.4939 -0.1158
  107OSM   C10F10947   6.552   3.847   5.747 -0.6194 -0.4837  0.6339
  107OSM   H10F10948   6.655   3.859   5.710 -1.5164 -1.6477 -2.6242
  107OSM   C11F10949   6.446   3.928   5.671  0.2312 -0.0572  0.5816
  107OSM   H11F10950   6.432   4.032   5.707  0.5807 -0.2537  1.3193
  107OSM   H11G10951   6.344   3.886   5.661  0.3214 -0.0521 -0.3998
  107OSM   C12F10952   6.479   3.938   5.515  0.5216 -0.1018 -0.2381
  107OSM   H12F10953   6.473   3.846   5.452  0.3619  0.3631 -0.9133
  107OSM   H12G10954   6.585   3.969   5.515  1.4883 -2.8612  2.3116
  107OSM   C13F10955   6.386   4.041   5.439  0.3742  0.0224 -0.2336
  107OSM   H13F10956   6.356   4.123   5.508 -0.4411 -0.2092 -0.3129
  107OSM   H13G10957   6.291   3.991   5.414  0.4851 -0.5284  0.4279
  107OSM   C14F10958   6.446   4.074   5.302 -0.1173  0.6772  0.2482
  107OSM   H14F10959   6.457   3.988   5.232 -0.6764  0.3586  0.5418
  107OSM   H14G10960   6.551   4.104   5.319  0.8697 -2.9061  1.4101
  107OSM   C15F10961   6.364   4.172   5.225 -0.1200  0.0122  0.7061
  107OSM   H15F10962   6.351   4.269   5.279  0.9865  2.0095 -2.3045
  107OSM   H15G10963   6.265   4.130   5.199  1.0266 -1.1754 -2.1927
  107OSM   C16F10964   6.421   4.221   5.092  0.4665  0.6251  0.3321
  107OSM   H16F10965   6.410   4.139   5.018 -0.1263  1.1934 -0.2289
  107OSM   H16G10966   6.531   4.233   5.097  0.4674  0.8372 -0.1136
  107OSM   C17F10967   6.324   4.335   5.049 -0.1966 -0.1999  0.7522
  107OSM   H17F10968   6.331   4.416   5.125 -0.9288 -0.8474  1.5400
  107OSM   H17G10969   6.220   4.304   5.075 -0.3965  1.2180  1.7691
  107OSM   C18F10970   6.340   4.385   4.906  0.5060 -1.3063  0.5604
  107OSM   H18F10971   6.414   4.466   4.895 -1.5373  0.5273 -0.3622
  107OSM   H18G10972   6.243   4.422   4.866  1.7539  1.4727 -0.0818
  107OSM   H18H10973   6.375   4.305   4.837 -0.1364 -1.6857  0.6635
  108OSM      N10974   2.165   3.488   6.959 -0.4254 -0.2836 -0.2575
  108OSM    C1510975   2.113   3.348   6.972  0.3878 -0.6727  0.0797
  108OSM   H15A10976   2.192   3.284   6.933  1.3912  0.4853  0.1470
  108OSM   H15B10977   2.023   3.344   6.913  0.0182  0.4164  0.5475
  108OSM   H15C10978   2.103   3.318   7.075  0.1113 -0.1212  0.2182
  108OSM    C1410979   2.057   3.576   6.982  0.2330 -0.2688  0.0576
  108OSM   H14A10980   2.088   3.680   6.980 -2.0055  0.4480  0.4061
  108OSM   H14B10981   2.014   3.565   7.081  0.8730 -1.6286  0.2059
  108OSM   H14C10982   1.972   3.557   6.919  1.6251 -3.1379 -1.1074
  108OSM    C1310983   2.280   3.516   7.054  0.2442 -0.7910  0.0565
  108OSM   H13A10984   2.257   3.481   7.153  0.6661 -0.7612  0.1651
  108OSM   H13B10985   2.306   3.621   7.053  2.1513 -1.2023  1.3832
  108OSM   H13C10986   2.361   3.451   7.025 -0.3551 -1.3002 -0.4878
  108OSM    C1210987   2.220   3.508   6.817 -0.0242 -0.0907 -0.2699
  108OSM   H12A10988   2.236   3.615   6.812 -2.5667  0.3015 -1.4584
  108OSM   H12B10989   2.145   3.485   6.743 -0.0436  1.8096 -0.8938
  108OSM    C1110990   2.349   3.445   6.771 -0.2384  0.0840 -0.3233
  108OSM   H11A10991   2.359   3.452   6.660 -1.5085  1.4290 -0.3771
  108OSM   H11B10992   2.356   3.337   6.795  1.3902  0.3779  0.6643
  108OSM      P10993   2.502   3.653   6.799  0.0176  0.1911 -0.4044
  108OSM    O1310994   2.385   3.748   6.808 -0.2305  0.6675 -0.4566
  108OSM    O1410995   2.618   3.684   6.878  0.1816  0.0946 -0.2775
  108OSM    O1110996   2.546   3.627   6.647  0.3171 -0.4648  0.0446
  108OSM    O1210997   2.459   3.505   6.840 -0.3752  0.0171 -0.0787
  108OSM    C1S10998   2.644   3.526   6.612  0.4709  0.4736 -0.4802
  108OSM    H1S10999   2.610   3.422   6.626  1.8713  0.1344  0.6663
  108OSM    H1T11000   2.737   3.543   6.670  0.6419 -1.1981 -0.2080
  108OSM     NF11001   2.744   3.418   6.417 -0.0518 -0.1591  0.7259
  108OSM    HNF11002   2.842   3.436   6.407 -0.2103  0.7950  0.7831
  108OSM    C2S11003   2.665   3.533   6.457 -0.5268 -0.4508 -0.3266
  108OSM    H2S11004   2.564   3.522   6.413 -1.1733  0.2475  0.9297
  108OSM    C3S11005   2.712   3.673   6.399  0.3075 -0.1259  0.3888
  108OSM    H3S11006   2.803   3.701   6.457 -1.1537  0.2375  2.6697
  108OSM     O311007   2.621   3.776   6.443  0.0539  0.4310  0.5935
  108OSM    HO311008   2.566   3.731   6.508 -0.9617  0.4397 -0.2345
  108OSM    C4S11009   2.731   3.681   6.249 -0.0760 -0.0023  0.1971
  108OSM    H4S11010   2.823   3.634   6.212 -0.6652 -0.8038 -0.2786
  108OSM    C5S11011   2.650   3.722   6.155  0.5624 -0.1649  0.5178
  108OSM    H5S11012   2.554   3.764   6.188  0.2314 -0.6127  0.1412
  108OSM    C6S11013   2.668   3.722   6.004 -1.0575 -0.0693 -0.2781
  108OSM    H6S11014   2.636   3.821   5.963  1.2135  0.4885 -0.8604
  108OSM    H6T11015   2.608   3.638   5.964  0.8930 -1.3004 -0.7192
  108OSM    C7S11016   2.806   3.702   5.940 -0.1075  0.7202 -0.8539
  108OSM    H7S11017   2.860   3.611   5.974 -1.9223  0.0469  0.3401
  108OSM    H7T11018   2.860   3.796   5.964  1.3237  0.2261 -1.9821
  108OSM    C8S11019   2.789   3.707   5.788 -0.0419 -0.6748 -0.0949
  108OSM    H8S11020   2.697   3.761   5.757 -0.3088 -1.1049 -0.0643
  108OSM    H8T11021   2.755   3.608   5.750 -0.2936  0.0341 -1.8068
  108OSM    C9S11022   2.912   3.747   5.702 -0.2257 -0.5296  0.1676
  108OSM    H9S11023   2.998   3.688   5.739 -0.1538 -0.0722  0.7499
  108OSM    H9T11024   2.935   3.853   5.724 -0.0519 -0.6098  0.3804
  108OSM   C10S11025   2.874   3.737   5.556 -0.1179 -0.6059  0.2019
  108OSM   H10S11026   2.929   3.813   5.497 -2.3226  0.5248 -0.5084
  108OSM   H10T11027   2.767   3.765   5.545 -0.4778 -1.7634  0.6124
  108OSM   C11S11028   2.899   3.596   5.509  0.1503  0.0315  0.5110
  108OSM   H11S11029   2.822   3.539   5.566 -1.5886  2.0713  0.2933
  108OSM   H11T11030   3.004   3.568   5.534  0.5057 -0.3278 -1.2461
  108OSM   C12S11031   2.878   3.586   5.353  0.4815 -0.5576 -0.3039
  108OSM   H12S11032   2.913   3.679   5.302 -0.8283 -0.2748 -0.7224
  108OSM   H12T11033   2.768   3.598   5.343  0.1815 -2.6658  0.0865
  108OSM   C13S11034   2.913   3.450   5.287  0.3848 -0.9604 -0.3333
  108OSM   H13S11035   2.885   3.457   5.180  1.0171  1.8505 -0.4070
  108OSM   H13T11036   2.854   3.377   5.346 -1.6611 -0.8316 -2.0643
  108OSM   C14S11037   3.060   3.419   5.290 -1.0001  0.3689  0.3226
  108OSM   H14S11038   3.105   3.469   5.379 -0.4354  1.2814 -0.4535
  108OSM   H14T11039   3.100   3.480   5.206 -0.6473 -0.9809 -0.5276
  108OSM   C15S11040   3.093   3.267   5.280  0.3802 -0.1110 -0.1106
  108OSM   H15S11041   3.040   3.219   5.365 -2.1845  0.2710 -1.4094
  108OSM   H15T11042   3.200   3.258   5.309  0.0660  1.3853  1.7075
  108OSM   C16S11043   3.058   3.201   5.142  0.4034  0.4054 -1.0180
  108OSM   H16S11044   3.108   3.266   5.066 -0.9486  2.4181 -0.2450
  108OSM   H16T11045   2.949   3.200   5.125  0.5453 -2.2905 -2.3476
  108OSM   C17S11046   3.103   3.048   5.149  0.2214 -0.2222  0.5968
  108OSM   H17S11047   3.211   3.042   5.173  0.2502  0.3488  0.6244
  108OSM   H17T11048   3.086   3.003   5.049 -0.7804 -0.1805  0.7385
  108OSM   C18S11049   3.030   2.965   5.263 -0.2404  0.2418  0.0284
  108OSM   H18S11050   3.052   2.858   5.242  0.2407  0.1569  0.8996
  108OSM   H18T11051   2.925   3.000   5.258 -0.2213  0.4762  1.0355
  108OSM   H18U11052   3.064   3.004   5.362 -3.2285  0.0911  1.2335
  108OSM    C1F11053   2.715   3.286   6.424 -0.1834 -0.2470 -0.4851
  108OSM     OF11054   2.598   3.250   6.438 -0.5975  0.1560  0.2770
  108OSM    C2F11055   2.838   3.191   6.434  0.2819 -0.1840  0.0253
  108OSM    H2F11056   2.841   3.165   6.542  0.7099 -0.2544 -0.0035
  108OSM    H2G11057   2.936   3.238   6.409  0.1128 -0.8496 -2.1155
  108OSM    C3F11058   2.817   3.072   6.333 -0.5185  0.2658 -0.6714
  108OSM    H3F11059   2.721   3.028   6.367 -1.3652  1.8141 -0.9452
  108OSM    H3G11060   2.897   2.996   6.344 -2.7481 -1.9956  1.2077
  108OSM    C4F11061   2.799   3.115   6.188 -0.5648  0.3737  0.6653
  108OSM    H4F11062   2.715   3.184   6.166 -0.8084 -0.6614 -2.0342
  108OSM    H4G11063   2.787   3.021   6.130  1.2728  0.4657  0.0545
  108OSM    C5F11064   2.921   3.194   6.140  0.1880  0.2272 -0.6540
  108OSM    H5F11065   3.017   3.140   6.158  0.2677  0.5637 -0.0516
  108OSM    H5G11066   2.920   3.283   6.206  1.4729  1.3763 -2.1048
  108OSM    C6F11067   2.913   3.233   5.993 -0.0728  0.5284 -0.7843
  108OSM    H6F11068   2.813   3.265   5.958  0.4361 -1.2655 -4.4221
  108OSM    H6G11069   2.941   3.146   5.930  0.6110  0.0644  0.1274
  108OSM    C7F11070   3.013   3.343   5.950  0.3012  0.4071 -0.8664
  108OSM    H7F11071   3.004   3.420   6.029 -2.1573 -2.7304  2.2300
  108OSM    H7G11072   2.954   3.370   5.859 -1.5121  0.8979  0.3934
  108OSM    C8F11073   3.156   3.283   5.942 -0.5688 -0.6582 -0.4840
  108OSM    H8F11074   3.162   3.195   5.875 -0.1474 -1.5755  0.7233
  108OSM    H8G11075   3.193   3.241   6.038 -0.2681  0.2230 -0.2048
  108OSM    C9F11076   3.244   3.397   5.897  0.0442 -0.1503  0.2105
  108OSM    H9F11077   3.255   3.479   5.970  0.3374 -1.4293  1.6462
  108OSM   C10F11078   3.299   3.405   5.771 -0.1068  0.5685 -0.3540
  108OSM   H10F11079   3.357   3.498   5.764 -0.8770  1.1117  0.2677
  108OSM   C11F11080   3.298   3.304   5.660  0.3552  0.6633 -1.1051
  108OSM   H11F11081   3.239   3.344   5.575  1.0935  1.6501 -1.1574
  108OSM   H11G11082   3.250   3.211   5.699  2.7304  0.1569  0.8741
  108OSM   C12F11083   3.437   3.266   5.600  0.6349 -0.4687  0.2507
  108OSM   H12F11084   3.419   3.165   5.557 -0.7391  0.8956 -2.6762
  108OSM   H12G11085   3.508   3.260   5.685  1.4748  1.3189 -0.2697
  108OSM   C13F11086   3.487   3.366   5.500 -0.6467  0.4902  0.2003
  108OSM   H13F11087   3.496   3.470   5.540  4.5026  0.5434 -0.4191
  108OSM   H13G11088   3.421   3.371   5.411 -0.1125  0.7477 -0.1906
  108OSM   C14F11089   3.634   3.329   5.458  0.4735  0.1673 -0.3571
  108OSM   H14F11090   3.642   3.218   5.459  2.4464  0.2451  1.9488
  108OSM   H14G11091   3.695   3.359   5.546 -0.5235 -0.3688  0.5418
  108OSM   C15F11092   3.676   3.392   5.327 -0.5808 -0.3238  0.7950
  108OSM   H15F11093   3.605   3.374   5.243 -0.6100  1.3234  0.4401
  108OSM   H15G11094   3.773   3.340   5.309 -0.8784 -0.4189 -0.6517
  108OSM   C16F11095   3.697   3.542   5.335 -0.3654  0.2925 -0.4787
  108OSM   H16F11096   3.779   3.558   5.408  0.5703 -1.1734 -1.1419
  108OSM   H16G11097   3.608   3.597   5.372  1.5060  2.2118  1.4280
  108OSM   C17F11098   3.747   3.602   5.200  0.3694 -0.2796 -0.4348
  108OSM   H17F11099   3.832   3.536   5.172 -0.0496 -0.3907 -1.4665
  108OSM   H17G11100   3.780   3.706   5.219 -3.2335  1.2459 -1.6528
  108OSM   C18F11101   3.641   3.609   5.082  0.7820 -0.0883  0.3275
  108OSM   H18F11102   3.673   3.677   5.000  2.3074 -2.6123 -1.3267
  108OSM   H18G11103   3.541   3.647   5.111  0.8536  2.7880 -2.5881
  108OSM   H18H11104   3.625   3.505   5.047  0.0210  0.1144  0.0614
  109OSM      N11105   3.005   4.861   6.941  0.7798  0.2203 -0.3639
  109OSM    C1511106   2.878   4.925   6.975  0.7406  0.3920  0.2392
  109OSM   H15A11107   2.791   4.869   6.946  0.0304  2.4127 -1.7695
  109OSM   H15B11108   2.861   5.026   6.939 -1.3532  0.9172  2.4376
  109OSM   H15C11109   2.877   4.938   7.083 -0.9666  2.5530  0.0459
  109OSM    C1411110   3.105   4.950   7.006 -0.1641 -0.1622 -0.1159
  109OSM   H14A11111   3.096   4.939   7.113 -0.3137 -1.5122 -0.2436
  109OSM   H14B11112   3.082   5.053   6.985 -1.1447 -0.8233 -2.6693
  109OSM   H14C11113   3.206   4.935   6.971 -0.6094 -0.6959 -1.2100
  109OSM    C1311114   3.021   4.724   6.990 -0.2147 -0.1871  0.2448
  109OSM   H13A11115   3.015   4.721   7.098 -3.7624 -1.1958  0.1287
  109OSM   H13B11116   3.111   4.687   6.943 -0.5534  1.5192 -1.8493
  109OSM   H13C11117   2.940   4.667   6.947 -1.0040  0.4266  0.8780
  109OSM    C1211118   3.025   4.874   6.790  0.0858  0.9729 -0.4014
  109OSM   H12A11119   3.020   4.982   6.782 -0.3732  0.9591 -0.3030
  109OSM   H12B11120   2.942   4.828   6.739 -0.5448 -0.1425  1.5114
  109OSM    C1111121   3.154   4.821   6.731 -0.7883  0.4260  0.0859
  109OSM   H11A11122   3.161   4.849   6.624  1.1863  2.3275  0.6497
  109OSM   H11B11123   3.162   4.711   6.717  1.8118  0.8442 -2.6959
  109OSM      P11124   3.403   4.774   6.801 -0.3388 -0.1505  0.1490
  109OSM    O1311125   3.516   4.844   6.860 -0.6674 -0.0016 -0.4052
  109OSM    O1411126   3.370   4.636   6.854 -0.1745  0.4036 -0.2688
  109OSM    O1111127   3.446   4.755   6.651  0.1975 -0.1503  0.0838
  109OSM    O1211128   3.281   4.864   6.793  0.3150  0.5406  0.2560
  109OSM    C1S11129   3.475   4.866   6.566  0.1470 -0.4225 -1.0515
  109OSM    H1S11130   3.548   4.942   6.601 -1.6584  0.7885  0.3365
  109OSM    H1T11131   3.379   4.921   6.548 -0.0691 -0.5800 -0.4132
  109OSM     NF11132   3.583   4.926   6.346  0.4073  0.0328 -0.1023
  109OSM    HNF11133   3.525   4.976   6.282 -1.9079 -2.2302  0.0501
  109OSM    C2S11134   3.517   4.818   6.422  0.1384 -0.7519 -0.5738
  109OSM    H2S11135   3.594   4.742   6.448  1.5322  0.6738 -0.3267
  109OSM    C3S11136   3.401   4.750   6.351  0.9555  0.5507  0.8722
  109OSM    H3S11137   3.322   4.826   6.337  1.3193  0.5599 -1.5502
  109OSM     O311138   3.344   4.642   6.431  0.0153 -0.1172 -0.0570
  109OSM    HO311139   3.376   4.670   6.517  0.6783 -0.0793 -0.3065
  109OSM    C4S11140   3.435   4.691   6.216  0.2336  0.2123 -0.6342
  109OSM    H4S11141   3.496   4.600   6.218 -2.2867 -1.6447 -1.8894
  109OSM    C5S11142   3.381   4.733   6.097  0.0032  0.2442  0.0705
  109OSM    H5S11143   3.316   4.821   6.084 -1.2067 -0.7432 -0.7962
  109OSM    C6S11144   3.416   4.666   5.967  0.3900 -0.0971 -0.0618
  109OSM    H6S11145   3.334   4.599   5.935  1.3933 -0.4903 -1.9560
  109OSM    H6T11146   3.511   4.608   5.975  0.7813  0.2868 -1.5781
  109OSM    C7S11147   3.429   4.775   5.866  0.2453  0.1070  0.0049
  109OSM    H7S11148   3.515   4.835   5.902 -0.5303  0.7635  0.8255
  109OSM    H7T11149   3.338   4.839   5.853  0.3177  0.1781 -0.1621
  109OSM    C8S11150   3.465   4.723   5.721  0.2770  0.2186  0.1698
  109OSM    H8S11151   3.384   4.658   5.682 -1.9840  2.6641  0.4530
  109OSM    H8T11152   3.554   4.658   5.730 -0.2451 -0.4262  0.8090
  109OSM    C9S11153   3.474   4.845   5.628 -0.0445 -0.2720  0.4740
  109OSM    H9S11154   3.568   4.903   5.643  0.2337 -0.2616 -1.1233
  109OSM    H9T11155   3.387   4.915   5.625  0.7119  0.7323  1.1084
  109OSM   C10S11156   3.503   4.788   5.487 -0.3308 -0.4805 -0.0607
  109OSM   H10S11157   3.462   4.850   5.405  1.1205  0.4801 -0.1028
  109OSM   H10T11158   3.441   4.697   5.477  2.4234 -2.5148  0.1051
  109OSM   C11S11159   3.647   4.756   5.459 -0.5838  0.1107  0.2596
  109OSM   H11S11160   3.692   4.712   5.550  2.2111  1.1925 -0.5072
  109OSM   H11T11161   3.696   4.853   5.435  0.3676 -0.7313 -1.3368
  109OSM   C12S11162   3.679   4.670   5.331  0.3312  0.6400 -0.2369
  109OSM   H12S11163   3.640   4.568   5.355  1.8536  0.0309 -0.2735
  109OSM   H12T11164   3.786   4.669   5.304  0.4230  2.1889 -0.0067
  109OSM   C13S11165   3.625   4.731   5.200 -0.3099  0.3472 -0.3667
  109OSM   H13S11166   3.696   4.812   5.172  2.7813 -1.7897  0.6963
  109OSM   H13T11167   3.523   4.774   5.213 -0.5529 -1.0278  3.3828
  109OSM   C14S11168   3.624   4.625   5.089  0.7393  0.6875 -1.6193
  109OSM   H14S11169   3.615   4.527   5.141  0.5316  1.8135  0.5709
  109OSM   H14T11170   3.726   4.608   5.047  2.0528 -0.7099  1.7213
  109OSM   C15S11171   3.504   4.636   4.990  0.2979 -0.1837 -0.2874
  109OSM   H15S11172   3.408   4.605   5.035 -1.0978 -1.3352 -3.7050
  109OSM   H15T11173   3.522   4.551   4.921 -2.1404  0.4257 -1.7854
  109OSM   C16S11174   3.499   4.768   4.911  0.1641 -0.1456 -0.2688
  109OSM   H16S11175   3.583   4.764   4.839  0.0875 -0.0741 -0.3632
  109OSM   H16T11176   3.509   4.859   4.974  0.7158 -0.3403 -0.0747
  109OSM   C17S11177   3.367   4.778   4.823 -0.1978 -0.1018 -0.9413
  109OSM   H17S11178   3.283   4.796   4.894  1.8077  0.3256  1.4519
  109OSM   H17T11179   3.356   4.677   4.777 -0.2267 -1.3364  1.6271
  109OSM   C18S11180   3.383   4.891   4.722 -0.1366  0.3846  0.0715
  109OSM   H18S11181   3.293   4.900   4.658 -0.7796  1.1735  1.0633
  109OSM   H18T11182   3.469   4.873   4.653  0.1156 -2.2347  0.9755
  109OSM   H18U11183   3.415   4.986   4.770 -0.8295  0.1659  0.9757
  109OSM    C1F11184   3.704   4.967   6.382 -0.2196  0.4715 -0.9822
  109OSM     OF11185   3.769   4.903   6.461  0.2015 -0.6558 -0.5898
  109OSM    C2F11186   3.755   5.106   6.343 -0.3643  0.2095 -0.4467
  109OSM    H2F11187   3.857   5.124   6.382  1.3059 -1.1068 -3.8287
  109OSM    H2G11188   3.683   5.185   6.373  0.5057  0.8746 -0.0898
  109OSM    C3F11189   3.780   5.123   6.195 -0.0332 -0.9282  0.4407
  109OSM    H3F11190   3.684   5.102   6.145  0.0212  0.7415 -0.4164
  109OSM    H3G11191   3.860   5.052   6.163 -0.4198 -0.8529 -0.7251
  109OSM    C4F11192   3.800   5.271   6.151  0.3481 -0.4661  0.4888
  109OSM    H4F11193   3.733   5.337   6.210  1.1970  0.4450  0.4633
  109OSM    H4G11194   3.777   5.280   6.042  0.7526  1.5278  0.5163
  109OSM    C5F11195   3.940   5.317   6.188  0.1767 -0.9451 -0.4548
  109OSM    H5F11196   4.012   5.245   6.147 -0.0583 -1.5267  0.1311
  109OSM    H5G11197   3.940   5.325   6.299 -1.8326  0.4112 -0.4771
  109OSM    C6F11198   3.966   5.454   6.111  0.5399 -0.3236 -0.1706
  109OSM    H6F11199   4.060   5.488   6.159  1.0170 -1.3861 -0.3268
  109OSM    H6G11200   3.879   5.521   6.132  2.7875  2.4472  0.9702
  109OSM    C7F11201   3.990   5.433   5.959 -0.6439 -0.9417 -0.3733
  109OSM    H7F11202   3.896   5.393   5.916 -0.5974  0.1543 -1.5799
  109OSM    H7G11203   4.081   5.370   5.945 -0.5067 -0.6209 -0.9750
  109OSM    C8F11204   4.017   5.559   5.874  0.1829 -0.4277 -0.3843
  109OSM    H8F11205   4.032   5.525   5.769 -0.8638  0.6158 -0.8829
  109OSM    H8G11206   4.111   5.598   5.918 -0.5509 -0.7372  1.5750
  109OSM    C9F11207   3.922   5.675   5.883  1.1217  0.6509 -0.2757
  109OSM    H9F11208   3.919   5.745   5.968 -2.1618  1.1438 -0.6593
  109OSM   C10F11209   3.844   5.712   5.786 -0.2162 -0.5576 -0.0136
  109OSM   H10F11210   3.788   5.805   5.804 -1.2334 -1.1099 -0.2820
  109OSM   C11F11211   3.832   5.658   5.641 -0.3840  0.5220 -0.0271
  109OSM   H11F11212   3.731   5.677   5.598 -1.3147 -1.5456  1.0710
  109OSM   H11G11213   3.855   5.551   5.627  1.0225  0.7914  0.1315
  109OSM   C12F11214   3.921   5.741   5.544  0.3262  1.1090  0.6509
  109OSM   H12F11215   4.024   5.712   5.572 -0.0052 -1.6855 -0.6979
  109OSM   H12G11216   3.899   5.849   5.561 -2.8534  0.5251  0.8956
  109OSM   C13F11217   3.900   5.691   5.390 -0.0970  0.3132 -0.2472
  109OSM   H13F11218   3.793   5.709   5.365 -0.3785 -0.3206  0.4674
  109OSM   H13G11219   3.922   5.582   5.390  0.3441  0.1971  4.2786
  109OSM   C14F11220   3.996   5.751   5.279 -0.0737 -0.0241  0.2186
  109OSM   H14F11221   4.103   5.731   5.300  0.5168  0.9710 -1.5695
  109OSM   H14G11222   3.978   5.860   5.295 -2.1469 -0.4145  0.8464
  109OSM   C15F11223   3.966   5.696   5.147  0.1725 -0.0859  1.4732
  109OSM   H15F11224   3.861   5.726   5.131  0.7635  1.9618  1.1375
  109OSM   H15G11225   3.978   5.587   5.129 -0.1059  0.3550 -2.2519
  109OSM   C16F11226   4.054   5.764   5.040 -0.2315 -0.4762 -0.3804
  109OSM   H16F11227   4.160   5.761   5.073 -0.3108  1.3947  0.1465
  109OSM   H16G11228   4.020   5.869   5.027 -1.1674 -0.5152  1.4602
  109OSM   C17F11229   4.040   5.704   4.901  0.1758 -0.0287 -0.0820
  109OSM   H17F11230   4.034   5.593   4.904 -3.0966  0.0218 -0.9608
  109OSM   H17G11231   4.137   5.743   4.865 -0.6023  1.8020 -0.2600
  109OSM   C18F11232   3.922   5.762   4.826  0.1031  0.4814 -0.9228
  109OSM   H18F11233   3.938   5.872   4.823  0.3350  0.4366 -1.8880
  109OSM   H18G11234   3.823   5.753   4.876  0.9997  2.5807  1.4045
  109OSM   H18H11235   3.915   5.737   4.717  2.7773  0.2710 -1.0966
  110OSM      N11236   0.500   1.648   6.608  0.2746 -0.1508 -0.4811
  110OSM    C1511237   0.620   1.698   6.677  0.1076 -0.0912 -0.1369
  110OSM   H15A11238   0.605   1.774   6.752  1.0752 -1.4384  1.5141
  110OSM   H15B11239   0.702   1.720   6.610  1.1634 -1.4053  0.6533
  110OSM   H15C11240   0.658   1.619   6.741  0.2049 -0.9986 -1.2954
  110OSM    C1411241   0.540   1.527   6.519  0.4482 -0.0806 -0.2027
  110OSM   H14A11242   0.590   1.458   6.585 -1.8788 -1.1851  0.5088
  110OSM   H14B11243   0.607   1.551   6.438 -1.7727  0.7376 -1.9160
  110OSM   H14C11244   0.457   1.479   6.470 -1.1497 -0.0005  2.2756
  110OSM    C1311245   0.413   1.597   6.716  0.3406 -0.5617 -0.7425
  110OSM   H13A11246   0.402   1.676   6.789 -2.9175 -3.0848  1.8559
  110OSM   H13B11247   0.450   1.511   6.770  1.0765 -0.3756 -0.9373
  110OSM   H13C11248   0.315   1.578   6.675 -0.0206  1.7254 -1.0905
  110OSM    C1211249   0.435   1.759   6.539 -0.1071 -0.1144  0.4529
  110OSM   H12A11250   0.349   1.710   6.495 -1.5761  0.9942  1.9827
  110OSM   H12B11251   0.498   1.778   6.454 -0.0929 -1.2130  0.2038
  110OSM    C1111252   0.396   1.884   6.625 -0.3144  0.2255  0.5118
  110OSM   H11A11253   0.339   1.847   6.713  0.3074  0.2080  0.9147
  110OSM   H11B11254   0.337   1.959   6.569  1.0245  0.8240 -0.1329
  110OSM      P11255   0.612   2.035   6.583  0.6237 -0.2736 -0.1419
  110OSM    O1311256   0.608   2.182   6.618  0.2446  0.6981  0.5998
  110OSM    O1411257   0.746   1.973   6.601 -0.0401  0.1892  0.1170
  110OSM    O1111258   0.562   2.014   6.438 -0.0004  0.0257 -0.0964
  110OSM    O1211259   0.513   1.955   6.677 -0.4477 -0.2979 -0.3881
  110OSM    C1S11260   0.641   2.084   6.339  0.5485  0.0512 -0.1752
  110OSM    H1S11261   0.741   2.037   6.326  1.4571  2.3625 -2.2826
  110OSM    H1T11262   0.655   2.192   6.359 -1.9958  0.5362 -0.6642
  110OSM     NF11263   0.660   2.135   6.090  0.0393 -0.5746 -0.0923
  110OSM    HNF11264   0.616   2.203   6.032 -0.3887 -0.9500 -0.2087
  110OSM    C2S11265   0.579   2.067   6.193 -0.2489 -0.1783 -0.2620
  110OSM    H2S11266   0.568   1.958   6.176 -0.5140 -0.5208  1.8158
  110OSM    C3S11267   0.426   2.122   6.205 -0.1081 -0.5884  0.0621
  110OSM    H3S11268   0.426   2.230   6.232  0.9513 -0.8169  1.0398
  110OSM     O311269   0.346   2.067   6.306 -0.0919  0.3456  0.1629
  110OSM    HO311270   0.413   2.049   6.372 -0.3804  1.1195  0.6782
  110OSM    C4S11271   0.359   2.107   6.072  0.1623 -0.6470 -0.2522
  110OSM    H4S11272   0.380   2.183   5.995 -0.2914 -0.0031  0.2403
  110OSM    C5S11273   0.296   1.994   6.032 -0.4733  0.7021  0.3733
  110OSM    H5S11274   0.295   1.903   6.093  0.6311 -0.3471 -1.0815
  110OSM    C6S11275   0.244   1.969   5.894 -0.2757 -0.3232 -0.0075
  110OSM    H6S11276   0.136   1.947   5.906 -0.3288  0.1792  0.4365
  110OSM    H6T11277   0.289   1.874   5.860 -0.0744 -0.7048  1.2836
  110OSM    C7S11278   0.256   2.086   5.790 -0.2601  0.6454 -0.7288
  110OSM    H7S11279   0.362   2.118   5.783 -0.4141  1.1183 -0.9397
  110OSM    H7T11280   0.201   2.176   5.825  1.0319  1.0679  0.2611
  110OSM    C8S11281   0.206   2.055   5.649  0.4798  0.0069  0.2561
  110OSM    H8S11282   0.095   2.055   5.653  0.3033 -0.3224 -2.8888
  110OSM    H8T11283   0.243   1.958   5.611 -2.8358 -0.7998 -1.2154
  110OSM    C9S11284   0.239   2.157   5.534 -0.2071 -0.3004 -0.4839
  110OSM    H9S11285   0.178   2.125   5.447 -1.3027  0.8814 -0.1916
  110OSM    H9T11286   0.348   2.151   5.514 -0.0624 -1.4214  0.4591
  110OSM   C10S11287   0.201   2.305   5.567 -0.7636 -0.2356  0.1258
  110OSM   H10S11288   0.276   2.339   5.641  0.2268 -2.9008  0.4737
  110OSM   H10T11289   0.105   2.307   5.623 -0.3033 -3.4667  1.2806
  110OSM   C11S11290   0.219   2.394   5.441  0.5649 -0.1300  0.8361
  110OSM   H11S11291   0.166   2.350   5.354 -0.4367  1.3582  0.6511
  110OSM   H11T11292   0.326   2.413   5.419  1.0798  0.1360  3.3264
  110OSM   C12S11293   0.155   2.534   5.461 -0.8184 -0.2161  0.2371
  110OSM   H12S11294   0.205   2.572   5.553  1.2272 -0.4150 -0.7406
  110OSM   H12T11295   0.047   2.534   5.490 -1.5911 -0.6363 -2.3980
  110OSM   C13S11296   0.184   2.635   5.349  0.8529  0.1021 -0.1938
  110OSM   H13S11297   0.289   2.630   5.313  1.1353 -1.3467  0.7214
  110OSM   H13T11298   0.148   2.733   5.386 -2.2097 -0.7698 -0.6200
  110OSM   C14S11299   0.090   2.619   5.228 -0.4150 -0.0208 -0.9639
  110OSM   H14S11300  -0.012   2.648   5.260 -1.4547 -1.6056 -2.6259
  110OSM   H14T11301   0.090   2.516   5.187 -0.3804 -0.1340 -0.6817
  110OSM   C15S11302   0.118   2.724   5.117 -0.5466  0.2056 -0.4104
  110OSM   H15S11303   0.201   2.697   5.048 -1.1339 -2.6902 -0.1041
  110OSM   H15T11304   0.149   2.821   5.163  1.5274 -0.9377  0.6934
  110OSM   C16S11305  -0.009   2.745   5.026 -0.2305 -0.1680  0.3698
  110OSM   H16S11306   0.013   2.845   4.983 -2.0890  0.9334  1.7975
  110OSM   H16T11307  -0.106   2.764   5.077 -1.0973  0.5241 -1.4510
  110OSM   C17S11308  -0.042   2.629   4.935 -0.0006 -0.2639 -0.3825
  110OSM   H17S11309  -0.145   2.643   4.895  1.0400 -1.0710 -3.7005
  110OSM   H17T11310  -0.031   2.542   5.004  2.2254 -1.2724 -1.8671
  110OSM   C18S11311   0.050   2.610   4.818  0.7748 -0.1684  0.9522
  110OSM   H18S11312   0.151   2.585   4.855  1.0563  0.9356  0.9580
  110OSM   H18T11313   0.055   2.699   4.753 -1.5164 -1.6667 -1.4907
  110OSM   H18U11314   0.019   2.529   4.748  1.8716 -1.6587  2.1278
  110OSM    C1F11315   0.787   2.107   6.072  0.3934 -0.0569  0.0457
  110OSM     OF11316   0.836   2.000   6.111 -1.4174 -0.5713 -0.5545
  110OSM    C2F11317   0.869   2.211   5.994 -0.4306  0.0878  0.0965
  110OSM    H2F11318   0.922   2.285   6.058  2.3090 -1.9463  0.3735
  110OSM    H2G11319   0.793   2.246   5.921 -0.1638 -2.0378 -1.2859
  110OSM    C3F11320   0.991   2.136   5.924 -0.1969  0.7129 -0.0334
  110OSM    H3F11321   0.948   2.040   5.889 -1.0839  0.7404  0.9085
  110OSM    H3G11322   1.075   2.119   5.995 -0.3050  1.1436  0.2081
  110OSM    C4F11323   1.057   2.220   5.809 -0.1050  0.0568  0.4814
  110OSM    H4F11324   1.088   2.313   5.861  1.4517  1.2286 -2.3437
  110OSM    H4G11325   0.979   2.238   5.732  0.5847  1.0048 -0.0207
  110OSM    C5F11326   1.181   2.143   5.741 -0.7173  0.1929  0.2035
  110OSM    H5F11327   1.142   2.050   5.693 -0.5011 -0.8950  2.0673
  110OSM    H5G11328   1.257   2.116   5.816 -1.1919  3.4092  2.0529
  110OSM    C6F11329   1.254   2.229   5.630  0.0848 -0.1280  0.7045
  110OSM    H6F11330   1.360   2.196   5.617 -0.1025 -0.4287 -0.1161
  110OSM    H6G11331   1.248   2.335   5.663  0.0248  0.1764 -0.2526
  110OSM    C7F11332   1.183   2.202   5.502 -0.3688  0.1358  0.3435
  110OSM    H7F11333   1.074   2.205   5.519 -0.2996  1.5801  0.6447
  110OSM    H7G11334   1.210   2.098   5.474  1.9198  0.2070  1.9288
  110OSM    C8F11335   1.212   2.286   5.379 -0.2691  0.3078 -0.0953
  110OSM    H8F11336   1.196   2.392   5.409  0.9063  0.3356  0.4720
  110OSM    H8G11337   1.143   2.264   5.295  1.2355  1.7523 -1.7803
  110OSM    C9F11338   1.358   2.260   5.336 -0.3209  0.0013 -0.0253
  110OSM    H9F11339   1.419   2.204   5.408  0.2110  0.1320 -0.3722
  110OSM   C10F11340   1.412   2.303   5.215 -0.5237  0.4714 -0.1260
  110OSM   H10F11341   1.515   2.270   5.194 -1.2807 -0.8109 -2.1126
  110OSM   C11F11342   1.351   2.399   5.126  0.4241 -0.0165 -0.3082
  110OSM   H11F11343   1.271   2.454   5.178  2.0007  1.4282  0.7073
  110OSM   H11G11344   1.302   2.346   5.042  0.2311 -0.3845  0.0324
  110OSM   C12F11345   1.449   2.512   5.085  0.0819  0.1074 -0.2989
  110OSM   H12F11346   1.530   2.465   5.026 -0.1742 -0.1789 -0.4264
  110OSM   H12G11347   1.494   2.544   5.181 -2.6886 -2.5137  2.1055
  110OSM   C13F11348   1.371   2.621   5.004 -0.6170 -0.9399  0.6617
  110OSM   H13F11349   1.437   2.708   4.984 -1.1018 -0.1800  2.2305
  110OSM   H13G11350   1.286   2.651   5.068 -1.0262 -1.9942  0.6258
  110OSM   C14F11351   1.309   2.553   4.879  0.0821 -0.7190 -0.1561
  110OSM   H14F11352   1.233   2.494   4.934  2.0359 -0.1911  3.4565
  110OSM   H14G11353   1.371   2.480   4.823  0.7575 -0.2259 -0.0755
  110OSM   C15F11354   1.235   2.653   4.784 -0.2856  0.1168  0.8970
  110OSM   H15F11355   1.306   2.709   4.719 -0.0906 -1.2186 -0.0624
  110OSM   H15G11356   1.170   2.724   4.839  0.9308  0.9733  1.2940
  110OSM   C16F11357   1.147   2.572   4.687 -0.5116 -0.2077 -0.0083
  110OSM   H16F11358   1.054   2.533   4.733 -0.6162 -0.1765 -0.1925
  110OSM   H16G11359   1.200   2.482   4.650 -0.6038 -0.4362  0.4144
  110OSM   C17F11360   1.106   2.648   4.562 -0.1559  0.5725  0.3712
  110OSM   H17F11361   1.068   2.748   4.593  0.0589  0.0889  2.3284
  110OSM   H17G11362   1.027   2.580   4.523  2.2920 -2.5379  0.5169
  110OSM   C18F11363   1.219   2.660   4.457  0.2647  0.6328  0.7273
  110OSM   H18F11364   1.186   2.719   4.368 -0.7072 -0.6916  0.1725
  110OSM   H18G11365   1.259   2.560   4.430 -1.5863  0.1239 -0.3107
  110OSM   H18H11366   1.306   2.713   4.500  3.0818 -1.3060 -2.1388
  111OSM      N11367   3.394   0.252   6.640 -0.3110 -0.5091 -0.2660
  111OSM    C1511368   3.512   0.348   6.653  0.6775  0.0508 -0.0387
  111OSM   H15A11369   3.562   0.337   6.747 -1.3384  1.0046  1.2136
  111OSM   H15B11370   3.468   0.446   6.650  0.8630  0.1232 -2.0167
  111OSM   H15C11371   3.580   0.346   6.569 -0.5306  3.8004 -1.3099
  111OSM    C1411372   3.303   0.280   6.760 -0.3089  0.3827 -0.6134
  111OSM   H14A11373   3.267   0.382   6.757  1.1955  0.9185 -1.5690
  111OSM   H14B11374   3.334   0.248   6.859 -4.5203  1.5979  1.3795
  111OSM   H14C11375   3.218   0.214   6.744  1.3415 -1.8827 -0.5370
  111OSM    C1311376   3.321   0.287   6.513  0.1030 -0.9614 -0.1810
  111OSM   H13A11377   3.228   0.233   6.514  0.4381 -1.5722 -0.8635
  111OSM   H13B11378   3.377   0.274   6.421 -0.5902 -0.9316 -0.6177
  111OSM   H13C11379   3.295   0.392   6.513 -0.5601 -1.1243 -0.2249
  111OSM    C1211380   3.437   0.107   6.648 -0.4017 -0.0950 -0.1141
  111OSM   H12A11381   3.504   0.100   6.732  0.8172  0.3931 -1.0107
  111OSM   H12B11382   3.503   0.085   6.565  0.5234  3.1175 -0.3459
  111OSM    C1111383   3.323   0.001   6.653  0.6736  0.1685  0.9429
  111OSM   H11A11384   3.375  -0.097   6.647  0.8045  0.2347  0.9805
  111OSM   H11B11385   3.253   0.018   6.568 -2.4881  0.5983  3.4331
  111OSM      P11386   3.141  -0.100   6.819  0.2761 -0.3275  0.2639
  111OSM    O1311387   3.190  -0.236   6.836  0.1345  0.9101  0.4239
  111OSM    O1411388   3.077  -0.036   6.932  0.0446  0.1493 -0.9730
  111OSM    O1111389   3.036  -0.084   6.706 -0.0510  0.4391  0.1979
  111OSM    O1211390   3.254   0.005   6.777 -0.5844  0.6111 -0.0870
  111OSM    C1S11391   2.983   0.049   6.661  0.1903  0.0556 -0.3299
  111OSM    H1S11392   3.070   0.117   6.647  1.5183 -1.3326  0.7033
  111OSM    H1T11393   2.916   0.095   6.736  1.1744  0.9543  0.0244
  111OSM     NF11394   2.876   0.146   6.461 -0.1764 -0.4723  0.5613
  111OSM    HNF11395   2.785   0.181   6.481 -0.6548 -0.7875 -0.9169
  111OSM    C2S11396   2.910   0.023   6.526 -0.8207 -0.4820  0.2360
  111OSM    H2S11397   2.973  -0.031   6.453 -1.0974 -1.9282  1.0282
  111OSM    C3S11398   2.791  -0.063   6.551 -0.1013  0.2278 -0.0394
  111OSM    H3S11399   2.725   0.000   6.615 -1.0841 -1.5342  0.7541
  111OSM     O311400   2.798  -0.185   6.628  0.1288 -1.0430 -0.2096
  111OSM    HO311401   2.875  -0.198   6.684  1.9019  1.6117 -1.8329
  111OSM    C4S11402   2.714  -0.081   6.414  0.4088 -0.4488 -0.7583
  111OSM    H4S11403   2.647   0.005   6.395  1.0612 -0.0668 -1.3877
  111OSM    C5S11404   2.735  -0.185   6.328  0.3913  0.4435 -0.1948
  111OSM    H5S11405   2.811  -0.259   6.354 -1.7137 -1.1810  1.8189
  111OSM    C6S11406   2.671  -0.201   6.194 -0.5295  0.3060 -0.7212
  111OSM    H6S11407   2.619  -0.298   6.203 -0.4794  0.4218  1.3701
  111OSM    H6T11408   2.748  -0.229   6.119  0.6021 -2.5557  1.3307
  111OSM    C7S11409   2.570  -0.092   6.154  0.4093 -0.0714  0.1153
  111OSM    H7S11410   2.626   0.003   6.139  1.6683 -0.6480  1.0277
  111OSM    H7T11411   2.486  -0.089   6.226  1.2341 -0.7602  1.1316
  111OSM    C8S11412   2.514  -0.125   6.010 -0.2851 -0.3751 -0.3941
  111OSM    H8S11413   2.416  -0.075   5.996  0.2746  1.1469  0.7494
  111OSM    H8T11414   2.492  -0.233   6.019  0.0245 -0.4556 -0.5936
  111OSM    C9S11415   2.603  -0.082   5.897  0.9425 -0.0209 -0.4889
  111OSM    H9S11416   2.706  -0.122   5.913  1.6995  2.0134 -0.0430
  111OSM    H9T11417   2.610   0.027   5.915  1.7445 -0.5081  3.0967
  111OSM   C10S11418   2.550  -0.113   5.756  0.3310  0.2815 -0.7535
  111OSM   H10S11419   2.455  -0.056   5.752 -0.2178 -0.4252  1.0683
  111OSM   H10T11420   2.532  -0.222   5.739  1.0752  0.3628 -2.2543
  111OSM   C11S11421   2.643  -0.061   5.654  0.1240 -0.1317  0.5594
  111OSM   H11S11422   2.735  -0.125   5.656 -0.1126 -0.5331 -0.4365
  111OSM   H11T11423   2.669   0.046   5.668 -1.6212  0.3611  0.2713
  111OSM   C12S11424   2.585  -0.086   5.517  1.2902 -0.7526 -0.2893
  111OSM   H12S11425   2.567  -0.195   5.508  1.3777 -0.8858  0.9880
  111OSM   H12T11426   2.671  -0.053   5.455  1.3746  0.7252  0.5520
  111OSM   C13S11427   2.465   0.001   5.486  0.5620  0.0400  0.2030
  111OSM   H13S11428   2.453   0.090   5.551  0.0174  0.5395 -0.5719
  111OSM   H13T11429   2.365  -0.046   5.502 -0.0807  2.1732  3.5235
  111OSM   C14S11430   2.468   0.045   5.337  0.1936 -1.1012 -0.1230
  111OSM   H14S11431   2.566   0.094   5.320  0.6759 -1.6395  0.9757
  111OSM   H14T11432   2.388   0.116   5.309  0.4219 -0.5567  0.5783
  111OSM   C15S11433   2.448  -0.070   5.242  0.3847  0.1439  0.8729
  111OSM   H15S11434   2.361  -0.131   5.276 -0.8823  3.2095  3.6033
  111OSM   H15T11435   2.531  -0.144   5.246  0.6222  0.4294  1.2599
  111OSM   C16S11436   2.435  -0.022   5.096 -0.1939 -0.2306  0.0355
  111OSM   H16S11437   2.497   0.068   5.078 -1.9320  1.1123  0.4675
  111OSM   H16T11438   2.334   0.023   5.090  0.3816  0.9917 -0.6923
  111OSM   C17S11439   2.444  -0.131   4.990 -0.3903  0.1786  0.2051
  111OSM   H17S11440   2.378  -0.090   4.910 -1.1252 -2.5461 -0.6769
  111OSM   H17T11441   2.399  -0.226   5.025 -1.7570  0.1301 -1.5311
  111OSM   C18S11442   2.585  -0.147   4.923  0.2303 -0.3083  0.4790
  111OSM   H18S11443   2.662  -0.142   5.002 -0.6658 -0.7626  1.4092
  111OSM   H18T11444   2.596  -0.060   4.854 -0.5313 -0.2866  0.3755
  111OSM   H18U11445   2.591  -0.244   4.870 -0.4398  1.5671 -3.4415
  111OSM    C1F11446   2.957   0.221   6.394 -0.0062  0.7527  0.4343
  111OSM     OF11447   3.073   0.189   6.364  0.1881 -0.5406  0.0942
  111OSM    C2F11448   2.912   0.354   6.341  0.2001 -0.5396  0.7514
  111OSM    H2F11449   2.860   0.417   6.417  1.5044  1.5487  0.0182
  111OSM    H2G11450   2.828   0.330   6.274  0.5023 -0.5787  0.3826
  111OSM    C3F11451   3.024   0.434   6.270 -0.1660 -0.1539  0.2289
  111OSM    H3F11452   3.065   0.386   6.178 -0.9678 -1.1153  0.3715
  111OSM    H3G11453   3.116   0.451   6.331  1.0849  0.2371 -1.6486
  111OSM    C4F11454   2.967   0.561   6.224 -0.3343 -0.4153 -0.4738
  111OSM    H4F11455   2.947   0.628   6.311  1.3951 -0.5057  0.0298
  111OSM    H4G11456   2.877   0.554   6.160 -0.6378 -1.2040  0.0217
  111OSM    C5F11457   3.075   0.632   6.134 -0.1614 -0.4655  0.3644
  111OSM    H5F11458   3.102   0.567   6.048 -0.3613  1.4094 -1.1859
  111OSM    H5G11459   3.175   0.640   6.180  0.4748 -1.7253 -0.7318
  111OSM    C6F11460   3.027   0.761   6.070 -0.1039  0.8839 -0.1075
  111OSM    H6F11461   3.012   0.842   6.144 -0.4644  0.2831  0.4822
  111OSM    H6G11462   2.930   0.732   6.025  0.4898 -0.7629 -0.3935
  111OSM    C7F11463   3.111   0.828   5.960  0.2955  0.0684 -0.4499
  111OSM    H7F11464   3.215   0.833   6.000 -0.8439 -0.2012  2.8541
  111OSM    H7G11465   3.076   0.931   5.942  0.8176  0.2235 -0.5847
  111OSM    C8F11466   3.102   0.740   5.837 -0.7350 -0.4075  0.0809
  111OSM    H8F11467   3.129   0.638   5.872  0.0668  0.2525  1.4887
  111OSM    H8G11468   3.185   0.775   5.773 -0.9763  0.3660  0.1796
  111OSM    C9F11469   2.974   0.742   5.764 -0.3858 -0.3791  0.1723
  111OSM    H9F11470   2.907   0.666   5.806  0.3543  0.5554  3.3348
  111OSM   C10F11471   2.948   0.826   5.661  1.1400 -0.3058 -0.4650
  111OSM   H10F11472   2.848   0.837   5.616 -0.1555 -1.7302  1.8728
  111OSM   C11F11473   3.032   0.929   5.600 -0.3619  0.1706 -0.4076
  111OSM   H11F11474   3.136   0.927   5.641 -0.5234  1.0078  0.0699
  111OSM   H11G11475   3.002   1.028   5.642 -0.8924 -0.7439  1.4883
  111OSM   C12F11476   3.043   0.924   5.445  0.0442  0.1193 -0.5249
  111OSM   H12F11477   3.101   1.001   5.389 -1.0787  1.1020 -0.3729
  111OSM   H12G11478   2.939   0.919   5.407 -0.2724  2.6441 -0.1857
  111OSM   C13F11479   3.117   0.799   5.404 -0.7214 -0.1901  0.7192
  111OSM   H13F11480   3.072   0.707   5.446 -1.9206 -1.2541 -2.6004
  111OSM   H13G11481   3.217   0.804   5.453 -0.4217  0.1344  0.0875
  111OSM   C14F11482   3.140   0.782   5.257 -0.0581 -0.4666 -0.1662
  111OSM   H14F11483   3.223   0.710   5.240 -0.1766 -0.9459  1.1400
  111OSM   H14G11484   3.166   0.878   5.208 -1.0079 -0.3636 -0.4782
  111OSM   C15F11485   3.011   0.725   5.192  0.7514  0.1241 -0.4294
  111OSM   H15F11486   2.930   0.798   5.213  2.6512  2.0696  0.6066
  111OSM   H15G11487   2.997   0.619   5.222 -0.2281 -0.6190 -3.2074
  111OSM   C16F11488   3.022   0.704   5.037 -0.3555 -0.3668 -0.8200
  111OSM   H16F11489   2.917   0.692   5.004 -0.6194 -1.4676  0.3197
  111OSM   H16G11490   3.073   0.606   5.023 -2.0507 -1.4801  0.4450
  111OSM   C17F11491   3.091   0.821   4.960 -0.1612  0.0010  0.9536
  111OSM   H17F11492   3.200   0.804   4.955 -0.3760 -1.0844 -1.3991
  111OSM   H17G11493   3.063   0.913   5.016  0.7362  1.5075 -0.9371
  111OSM   C18F11494   3.053   0.829   4.808  0.7858  0.1285 -0.7355
  111OSM   H18F11495   2.942   0.825   4.796  0.3725 -1.2765  2.4648
  111OSM   H18G11496   3.098   0.742   4.756  1.3144 -0.3880  0.5376
  111OSM   H18H11497   3.098   0.926   4.778  1.1742  0.3289  0.4518
  112OSM      N11498   0.283   5.760   7.005 -0.3097  0.3882 -0.2158
  112OSM    C1511499   0.189   5.873   6.968  0.1141  0.5911  0.0150
  112OSM   H15A11500   0.234   5.964   7.004 -1.3706  1.6878 -0.8116
  112OSM   H15B11501   0.090   5.858   7.010  0.7901 -1.1951  1.1024
  112OSM   H15C11502   0.175   5.886   6.862  1.5466 -2.0177 -0.5715
  112OSM    C1411503   0.376   5.722   6.888  0.2868 -0.8816  0.3157
  112OSM   H14A11504   0.313   5.670   6.817  0.6361 -0.2193 -0.4900
  112OSM   H14B11505   0.438   5.645   6.930 -1.8714 -1.2291  3.2065
  112OSM   H14C11506   0.429   5.803   6.841 -2.2364  1.1192  0.7106
  112OSM    C1311507   0.362   5.812   7.125  0.3504 -0.0628  0.2899
  112OSM   H13A11508   0.297   5.845   7.205 -1.4407 -1.7905 -0.3630
  112OSM   H13B11509   0.414   5.900   7.091  0.4393  0.2919  1.2894
  112OSM   H13C11510   0.435   5.748   7.173  0.1653  0.1249  0.8276
  112OSM    C1211511   0.196   5.645   7.049 -0.2691  0.4931 -0.1790
  112OSM   H12A11512   0.141   5.673   7.137 -1.2469 -1.1805 -0.2047
  112OSM   H12B11513   0.265   5.566   7.075  0.0125  0.9733  0.5539
  112OSM    C1111514   0.094   5.582   6.954 -0.4835  0.1373 -0.8430
  112OSM   H11A11515   0.013   5.653   6.926 -1.1875  0.7428  2.3938
  112OSM   H11B11516   0.044   5.507   7.020 -0.4392 -0.4987 -1.5154
  112OSM      P11517   0.166   5.377   6.814  0.2921  0.2117  0.0043
  112OSM    O1311518   0.255   5.329   6.712 -0.0794 -0.1258  0.3647
  112OSM    O1411519   0.188   5.311   6.948  0.3375 -0.0505  0.5833
  112OSM    O1111520   0.014   5.341   6.768 -0.0305  0.1317 -0.6936
  112OSM    O1211521   0.160   5.532   6.840  0.4132 -0.4123  0.1158
  112OSM    C1S11522  -0.062   5.435   6.687  0.3121  0.1315  0.1396
  112OSM    H1S11523   0.009   5.490   6.622  1.1113 -1.8970 -0.7826
  112OSM    H1T11524  -0.108   5.514   6.750 -0.3174  0.0695 -0.2285
  112OSM     NF11525  -0.215   5.454   6.488  0.5196 -0.7436 -0.9693
  112OSM    HNF11526  -0.311   5.482   6.484  0.8087  0.7163  0.9929
  112OSM    C2S11527  -0.160   5.358   6.596  0.8378 -0.1409  0.0444
  112OSM    H2S11528  -0.108   5.274   6.547 -1.6889 -1.6701 -0.1838
  112OSM    C3S11529  -0.279   5.290   6.678 -0.4893  0.4401 -0.0147
  112OSM    H3S11530  -0.342   5.366   6.729  1.4798  0.1944  3.0612
  112OSM     O311531  -0.243   5.201   6.788 -0.2316 -0.3583  0.1388
  112OSM    HO311532  -0.149   5.214   6.799 -0.6861  3.0456  1.2648
  112OSM    C4S11533  -0.373   5.216   6.583  0.0856  0.1772 -0.4785
  112OSM    H4S11534  -0.466   5.271   6.562  0.4849  1.9398  1.9310
  112OSM    C5S11535  -0.346   5.096   6.528  0.3300  0.2066  0.7577
  112OSM    H5S11536  -0.252   5.042   6.544 -0.9657 -2.7942 -0.9530
  112OSM    C6S11537  -0.427   5.044   6.404  0.2377 -0.1367 -0.9757
  112OSM    H6S11538  -0.521   5.010   6.453  2.1228  0.9827  4.1190
  112OSM    H6T11539  -0.391   4.946   6.365  0.5533 -0.5578  0.3096
  112OSM    C7S11540  -0.447   5.154   6.289  0.7343  0.7048  0.5712
  112OSM    H7S11541  -0.344   5.193   6.281  1.5049 -0.6252  2.9707
  112OSM    H7T11542  -0.515   5.228   6.336  1.6150  2.8454 -1.3342
  112OSM    C8S11543  -0.498   5.092   6.155 -0.7539 -0.2568  0.8474
  112OSM    H8S11544  -0.592   5.034   6.168 -2.0705  1.2513 -1.2898
  112OSM    H8T11545  -0.419   5.024   6.116 -0.0508  1.9095 -1.8371
  112OSM    C9S11546  -0.528   5.205   6.055 -0.8121 -0.9012 -0.4815
  112OSM    H9S11547  -0.433   5.245   6.011  0.0379 -0.9386  1.2486
  112OSM    H9T11548  -0.566   5.292   6.112  0.2992 -0.1982 -0.7685
  112OSM   C10S11549  -0.630   5.171   5.944  0.0597 -0.6328 -0.2450
  112OSM   H10S11550  -0.651   5.262   5.884 -0.7251  0.5244  1.6699
  112OSM   H10T11551  -0.730   5.152   5.989 -0.5540  1.9179 -0.3658
  112OSM   C11S11552  -0.578   5.064   5.854  0.7842  0.9515  0.4326
  112OSM   H11S11553  -0.564   4.965   5.903  0.8680  0.6795 -0.1275
  112OSM   H11T11554  -0.477   5.090   5.815  0.2879 -1.5598 -2.9778
  112OSM   C12S11555  -0.669   5.056   5.725  0.1681 -0.3165  0.0266
  112OSM   H12S11556  -0.775   5.052   5.756  0.5522 -2.9448  1.2980
  112OSM   H12T11557  -0.654   4.959   5.674 -1.9817 -1.5480  1.5838
  112OSM   C13S11558  -0.632   5.169   5.627 -0.0547  0.7712  0.0221
  112OSM   H13S11559  -0.524   5.155   5.607 -0.0265 -0.1678  0.7907
  112OSM   H13T11560  -0.655   5.269   5.669  0.0738  1.0960 -0.6677
  112OSM   C14S11561  -0.724   5.159   5.499  0.4655  0.1453  0.5183
  112OSM   H14S11562  -0.669   5.218   5.422  1.2203  0.3747  1.2173
  112OSM   H14T11563  -0.818   5.212   5.527  0.1556 -0.9341  1.5997
  112OSM   C15S11564  -0.752   5.024   5.426  1.3261  0.2350 -0.3682
  112OSM   H15S11565  -0.808   4.954   5.492 -1.8093  1.7353 -1.2739
  112OSM   H15T11566  -0.660   4.968   5.399  1.3846  0.7549 -1.2716
  112OSM   C16S11567  -0.834   5.020   5.295  0.8065 -0.7244  0.2555
  112OSM   H16S11568  -0.805   5.091   5.214 -2.9031 -0.1782 -0.7766
  112OSM   H16T11569  -0.941   5.044   5.311  1.2155  0.4116  1.5586
  112OSM   C17S11570  -0.842   4.881   5.230 -0.3111  0.1618 -0.2887
  112OSM   H17S11571  -0.851   4.811   5.316  2.4485  0.5183  0.3771
  112OSM   H17T11572  -0.745   4.856   5.180 -0.2779 -3.8019  1.3987
  112OSM   C18S11573  -0.955   4.869   5.129 -0.0978  0.0028 -0.2576
  112OSM   H18S11574  -0.948   4.953   5.056 -0.8693 -0.0493 -0.3995
  112OSM   H18T11575  -1.054   4.864   5.178  1.5008  1.9895  3.6279
  112OSM   H18U11576  -0.940   4.772   5.076 -1.2175 -0.7175  0.6993
  112OSM    C1F11577  -0.126   5.493   6.391  0.4469  0.0413  0.3399
  112OSM     OF11578  -0.012   5.466   6.379 -0.5714 -0.6047  0.1829
  112OSM    C2F11579  -0.195   5.587   6.289  0.4322  0.4591 -0.0679
  112OSM    H2F11580  -0.140   5.684   6.293 -0.1838  0.8450 -0.7699
  112OSM    H2G11581  -0.300   5.609   6.316  0.2981 -0.0305 -0.1913
  112OSM    C3F11582  -0.175   5.545   6.137 -0.5145  0.3207  1.0201
  112OSM    H3F11583  -0.181   5.436   6.122  1.3457  0.5753 -2.4604
  112OSM    H3G11584  -0.071   5.561   6.100  0.2177 -0.8068  2.4597
  112OSM    C4F11585  -0.284   5.596   6.045  0.5956  0.7771 -0.1449
  112OSM    H4F11586  -0.284   5.707   6.047  1.7440  0.7764  1.7615
  112OSM    H4G11587  -0.384   5.557   6.073 -0.3509  1.8602 -1.8214
  112OSM    C5F11588  -0.248   5.550   5.900 -0.0639 -0.2579 -0.3879
  112OSM    H5F11589  -0.242   5.440   5.913  0.9168 -0.0976  0.6415
  112OSM    H5G11590  -0.151   5.591   5.864 -0.0092  0.3660  0.4260
  112OSM    C6F11591  -0.365   5.576   5.805 -0.3144 -0.0002  0.4439
  112OSM    H6F11592  -0.392   5.683   5.811 -0.3165  0.3761 -3.4629
  112OSM    H6G11593  -0.453   5.517   5.838 -0.3165 -1.8743 -2.4934
  112OSM    C7F11594  -0.334   5.544   5.660 -0.3485  0.1587 -0.5206
  112OSM    H7F11595  -0.311   5.436   5.644  2.4283  0.8112 -1.5107
  112OSM    H7G11596  -0.235   5.588   5.637  0.3468  0.7931  3.1028
  112OSM    C8F11597  -0.431   5.597   5.562  0.4663  0.2017 -0.2351
  112OSM    H8F11598  -0.383   5.564   5.467 -1.5473 -0.5672 -1.0479
  112OSM    H8G11599  -0.431   5.706   5.585 -4.7002 -0.1854  3.3356
  112OSM    C9F11600  -0.563   5.534   5.578 -0.6556  0.3424  0.3207
  112OSM    H9F11601  -0.589   5.511   5.682  0.3797 -0.8901  0.3232
  112OSM   C10F11602  -0.654   5.507   5.479 -0.6468 -0.7679  0.5796
  112OSM   H10F11603  -0.748   5.454   5.498 -1.1420  0.4114  1.6061
  112OSM   C11F11604  -0.620   5.548   5.334  0.8685 -0.3596 -0.4236
  112OSM   H11F11605  -0.678   5.492   5.257  1.0080 -0.4047 -0.4950
  112OSM   H11G11606  -0.515   5.524   5.309  0.9510 -1.2351  0.7234
  112OSM   C12F11607  -0.638   5.699   5.306  0.4982  0.4398 -0.1890
  112OSM   H12F11608  -0.565   5.754   5.368  0.6085  1.8658 -1.5055
  112OSM   H12G11609  -0.735   5.739   5.342  0.3276 -0.8729  0.8798
  112OSM   C13F11610  -0.626   5.725   5.152 -0.4953 -0.5051 -0.2309
  112OSM   H13F11611  -0.693   5.661   5.091 -1.2455 -1.5919  1.6612
  112OSM   H13G11612  -0.518   5.721   5.127 -0.2479  2.1380  0.1240
  112OSM   C14F11613  -0.666   5.867   5.115 -0.4076  0.0459 -0.6266
  112OSM   H14F11614  -0.604   5.929   5.183  0.2809  2.2374 -3.0640
  112OSM   H14G11615  -0.772   5.868   5.150 -0.0054 -2.3804  0.8817
  112OSM   C15F11616  -0.632   5.906   4.971  0.2456 -0.1677 -0.1221
  112OSM   H15F11617  -0.543   5.852   4.933 -0.2739 -1.3530  0.3119
  112OSM   H15G11618  -0.614   6.016   4.970  1.2086 -0.3068  0.4950
  112OSM   C16F11619  -0.747   5.886   4.874  0.1549  0.5687 -0.1578
  112OSM   H16F11620  -0.833   5.938   4.922 -1.1115 -1.4757 -0.0985
  112OSM   H16G11621  -0.774   5.778   4.877 -2.2984  1.0290 -2.0988
  112OSM   C17F11622  -0.738   5.956   4.736 -0.1836 -0.3008  0.1627
  112OSM   H17F11623  -0.652   5.916   4.678 -1.2686 -1.9615 -0.3749
  112OSM   H17G11624  -0.710   6.062   4.752 -0.0705 -0.5272  1.5668
  112OSM   C18F11625  -0.861   5.958   4.637 -0.0714 -0.2456  0.0022
  112OSM   H18F11626  -0.950   6.003   4.687 -0.4323 -1.8710  0.8676
  112OSM   H18G11627  -0.870   5.853   4.602  2.9426  0.0693 -2.0844
  112OSM   H18H11628  -0.853   6.021   4.546  0.1580 -0.4006 -0.0863
  113OSM      N11629   1.851   5.637   6.783 -0.1179 -1.0713 -0.1003
  113OSM    C1511630   1.741   5.638   6.686  0.1915  0.0788 -1.0039
  113OSM   H15A11631   1.773   5.602   6.589 -1.1240  0.3094 -1.5384
  113OSM   H15B11632   1.690   5.733   6.684 -1.7474 -0.9231 -1.2803
  113OSM   H15C11633   1.670   5.566   6.723  0.3984  0.2423 -0.2803
  113OSM    C1411634   1.792   5.680   6.917 -0.4702 -0.0487 -0.5069
  113OSM   H14A11635   1.742   5.775   6.908  1.8619  1.2828 -0.2151
  113OSM   H14B11636   1.874   5.699   6.985 -0.7753 -1.5216  0.3053
  113OSM   H14C11637   1.730   5.606   6.965 -0.9700 -0.0015 -1.0512
  113OSM    C1311638   1.930   5.517   6.803 -0.1542  0.5407 -0.5051
  113OSM   H13A11639   2.007   5.534   6.877 -0.8182  1.2002  0.0422
  113OSM   H13B11640   1.982   5.489   6.712  1.9918  0.5290  0.6593
  113OSM   H13C11641   1.860   5.441   6.834  0.3505  0.4203  0.3550
  113OSM    C1211642   1.950   5.747   6.736  0.1198  0.0006  0.3348
  113OSM   H12A11643   2.006   5.775   6.824  1.0313  0.8929 -0.5086
  113OSM   H12B11644   1.886   5.830   6.713 -0.6095 -1.1721 -2.1800
  113OSM    C1111645   2.038   5.722   6.613  0.0312  0.6454 -0.1106
  113OSM   H11A11646   2.087   5.818   6.586  0.7998 -0.1656 -1.7029
  113OSM   H11B11647   1.961   5.705   6.535  1.2814  0.0037 -1.2489
  113OSM      P11648   2.269   5.650   6.719 -0.1832 -0.0275 -0.0553
  113OSM    O1311649   2.244   5.773   6.801 -0.5437  0.3718 -0.2458
  113OSM    O1411650   2.310   5.527   6.799  0.0880 -0.4264  0.1885
  113OSM    O1111651   2.378   5.681   6.613 -0.2258 -0.2204 -0.5010
  113OSM    O1211652   2.140   5.616   6.624 -0.4957 -0.1597  0.1682
  113OSM    C1S11653   2.413   5.599   6.498  0.0998  0.7767 -0.1446
  113OSM    H1S11654   2.388   5.493   6.516  0.5297  0.7262  0.1986
  113OSM    H1T11655   2.522   5.597   6.477 -0.5032 -1.0553 -3.7870
  113OSM     NF11656   2.374   5.555   6.254  0.0117  0.5961 -0.4608
  113OSM    HNF11657   2.430   5.581   6.177  0.0141 -0.1285 -0.7156
  113OSM    C2S11658   2.345   5.647   6.358 -0.0453 -0.2610  0.4805
  113OSM    H2S11659   2.236   5.654   6.379  0.0641  2.0382  0.4650
  113OSM    C3S11660   2.393   5.792   6.327  0.2195 -0.5483 -0.9284
  113OSM    H3S11661   2.502   5.802   6.313  0.2051 -0.0763 -0.7471
  113OSM     O311662   2.367   5.886   6.436  0.3055 -0.1979  0.3290
  113OSM    HO311663   2.315   5.841   6.502  1.5987 -0.1154  1.4429
  113OSM    C4S11664   2.332   5.843   6.201 -0.0811  0.1024 -0.2700
  113OSM    H4S11665   2.377   5.801   6.110 -1.0462 -3.0768  0.5967
  113OSM    C5S11666   2.222   5.917   6.188 -0.1653  0.2243 -0.4573
  113OSM    H5S11667   2.165   5.954   6.274  0.4612 -0.6789  0.3750
  113OSM    C6S11668   2.158   5.952   6.049 -0.0485 -0.1970 -0.4792
  113OSM    H6S11669   2.122   6.056   6.034  0.7448 -0.1190 -2.0248
  113OSM    H6T11670   2.066   5.893   6.029 -1.4074  1.3121  0.9873
  113OSM    C7S11671   2.245   5.922   5.928 -0.1795 -0.0921 -0.2581
  113OSM    H7S11672   2.282   5.818   5.938  2.7053  0.9690  1.0134
  113OSM    H7T11673   2.333   5.989   5.935  0.7881 -1.4160  0.6747
  113OSM    C8S11674   2.176   5.945   5.793  0.2723  0.2921 -0.4336
  113OSM    H8S11675   2.128   6.045   5.791 -1.1528 -0.3790 -1.2533
  113OSM    H8T11676   2.098   5.869   5.772 -2.2159  2.3644  0.7254
  113OSM    C9S11677   2.281   5.949   5.683  0.6047 -1.0031 -0.1588
  113OSM    H9S11678   2.347   5.860   5.675  1.6839 -0.1329 -1.2581
  113OSM    H9T11679   2.355   6.022   5.725 -0.0452 -1.2545  1.5084
  113OSM   C10S11680   2.235   5.982   5.545 -0.0385  0.6387 -0.0201
  113OSM   H10S11681   2.186   6.082   5.544 -2.0495 -0.2498  1.6603
  113OSM   H10T11682   2.163   5.910   5.502  0.7024  0.3445 -0.7766
  113OSM   C11S11683   2.366   5.994   5.457 -0.5040  0.4807  0.1140
  113OSM   H11S11684   2.411   5.893   5.467 -1.7745  0.0291  1.5622
  113OSM   H11T11685   2.436   6.071   5.496 -1.9885  2.2508 -0.5381
  113OSM   C12S11686   2.345   6.033   5.306 -0.7222 -0.4354 -0.1910
  113OSM   H12S11687   2.284   6.126   5.311  1.1107  0.7740  0.7887
  113OSM   H12T11688   2.282   5.954   5.262 -0.5612 -1.1699  0.8735
  113OSM   C13S11689   2.476   6.056   5.226  0.4576 -0.2628  0.1945
  113OSM   H13S11690   2.524   5.960   5.194  1.2474  1.0949 -3.1931
  113OSM   H13T11691   2.547   6.113   5.290  0.9197 -1.3120  0.6552
  113OSM   C14S11692   2.448   6.153   5.110  0.0787  0.5627  0.2398
  113OSM   H14S11693   2.432   6.254   5.152 -2.9256 -0.1346  0.9891
  113OSM   H14T11694   2.352   6.134   5.059 -0.0944  3.1407 -0.5246
  113OSM   C15S11695   2.563   6.154   5.008  0.6376  0.2733 -0.7644
  113OSM   H15S11696   2.574   6.047   4.981 -0.4098 -0.4370  1.4384
  113OSM   H15T11697   2.655   6.178   5.065 -1.0842  2.1725  1.3998
  113OSM   C16S11698   2.558   6.239   4.882 -0.0946  0.5331  0.1958
  113OSM   H16S11699   2.562   6.347   4.907  2.3419  1.0122 -1.8442
  113OSM   H16T11700   2.474   6.215   4.812  0.6104  1.4368 -1.0124
  113OSM   C17S11701   2.676   6.208   4.780  0.1530  0.4692 -0.6120
  113OSM   H17S11702   2.689   6.098   4.775 -1.3275  0.2796 -0.5432
  113OSM   H17T11703   2.767   6.246   4.832 -1.1542 -0.5793  2.6877
  113OSM   C18S11704   2.653   6.260   4.649  0.1307 -0.3405  0.2669
  113OSM   H18S11705   2.726   6.210   4.583  1.3562 -0.0560  1.3626
  113OSM   H18T11706   2.659   6.370   4.633 -1.3431 -0.4516 -1.3691
  113OSM   H18U11707   2.550   6.226   4.625  0.9041 -1.4240 -1.7009
  113OSM    C1F11708   2.335   5.427   6.246 -0.4274  0.1792  0.0921
  113OSM     OF11709   2.280   5.378   6.342  0.2335 -0.3573 -0.2474
  113OSM    C2F11710   2.358   5.347   6.125 -0.0845  0.0500  0.5070
  113OSM    H2F11711   2.460   5.303   6.126  0.3645  0.8443 -2.1136
  113OSM    H2G11712   2.353   5.422   6.043  0.0312 -0.9111 -0.4095
  113OSM    C3F11713   2.269   5.227   6.090 -0.4078  0.0202 -0.3311
  113OSM    H3F11714   2.167   5.271   6.093 -0.2593  0.9224 -3.8342
  113OSM    H3G11715   2.297   5.151   6.166  1.1887 -0.0117 -0.9139
  113OSM    C4F11716   2.313   5.165   5.959  0.5137 -0.1513  0.5455
  113OSM    H4F11717   2.274   5.061   5.950  0.7953 -0.2813  0.7933
  113OSM    H4G11718   2.421   5.140   5.964  0.9678  1.7287  0.7725
  113OSM    C5F11719   2.272   5.245   5.832  0.3091 -0.2374  0.3468
  113OSM    H5F11720   2.319   5.345   5.844 -1.0428  0.2846  1.6614
  113OSM    H5G11721   2.164   5.271   5.819  0.5054  0.0668 -0.8562
  113OSM    C6F11722   2.318   5.185   5.701  0.0314 -0.7043 -0.1759
  113OSM    H6F11723   2.275   5.082   5.696  0.0476 -0.8696  2.0330
  113OSM    H6G11724   2.427   5.169   5.694  0.0697  0.4384 -3.6811
  113OSM    C7F11725   2.280   5.273   5.573 -1.0805  1.5241 -0.7883
  113OSM    H7F11726   2.313   5.378   5.591  1.6892  0.7719 -1.0272
  113OSM    H7G11727   2.169   5.265   5.569 -1.0475  0.9515 -0.6214
  113OSM    C8F11728   2.346   5.217   5.445  0.0143  0.5030 -0.2639
  113OSM    H8F11729   2.290   5.127   5.412 -0.6184 -0.0319  2.0831
  113OSM    H8G11730   2.446   5.187   5.483 -0.3491  0.1480  0.4120
  113OSM    C9F11731   2.357   5.318   5.338  0.6196  0.1267  0.4833
  113OSM    H9F11732   2.363   5.416   5.388  1.0626  0.5713 -0.4184
  113OSM   C10F11733   2.344   5.302   5.205 -0.7193 -0.5020  0.1189
  113OSM   H10F11734   2.333   5.391   5.141 -3.0112 -1.3009 -0.7100
  113OSM   C11F11735   2.330   5.167   5.131 -0.0140  0.6269  0.3507
  113OSM   H11F11736   2.241   5.115   5.171 -0.1522  0.7701  0.2262
  113OSM   H11G11737   2.424   5.108   5.140  0.1992  0.8328 -0.4232
  113OSM   C12F11738   2.310   5.167   4.978 -0.0232 -0.7846 -0.7052
  113OSM   H12F11739   2.396   5.204   4.918 -1.0269  1.2905 -0.9376
  113OSM   H12G11740   2.212   5.218   4.964  0.3033 -0.5409 -2.2854
  113OSM   C13F11741   2.278   5.032   4.927  0.0759 -0.7793  0.2281
  113OSM   H13F11742   2.176   4.997   4.955 -0.8573 -0.3878 -2.3499
  113OSM   H13G11743   2.354   4.968   4.976 -0.6470 -0.2086  2.1524
  113OSM   C14F11744   2.300   5.022   4.775 -0.3720 -0.5314  0.9252
  113OSM   H14F11745   2.411   5.018   4.763 -0.1847  1.9631  1.2790
  113OSM   H14G11746   2.276   5.117   4.723 -1.8110 -0.5898  1.4358
  113OSM   C15F11747   2.229   4.902   4.716 -0.3213  0.7143 -0.3391
  113OSM   H15F11748   2.222   4.809   4.776 -2.5740 -0.7149 -2.6208
  113OSM   H15G11749   2.279   4.878   4.619 -0.2239 -2.0544  0.2908
  113OSM   C16F11750   2.083   4.943   4.683  0.0193 -0.1499  0.4797
  113OSM   H16F11751   2.078   5.032   4.617  0.4082  0.1849  0.8948
  113OSM   H16G11752   2.046   4.983   4.780  0.9687  2.3744 -0.1197
  113OSM   C17F11753   1.991   4.834   4.625 -0.1721  0.1146  0.1447
  113OSM   H17F11754   2.029   4.815   4.522 -0.7650  1.2972 -0.3127
  113OSM   H17G11755   1.887   4.872   4.610  0.8439  3.2344  0.3520
  113OSM   C18F11756   1.980   4.702   4.702  0.4262  0.2048 -0.1785
  113OSM   H18F11757   1.939   4.703   4.805 -2.5506 -1.2517 -1.2389
  113OSM   H18G11758   2.078   4.650   4.716  0.4711  0.8152  2.0227
  113OSM   H18H11759   1.919   4.626   4.647 -0.4271 -1.8696  3.3336
  114OSM      N11760   1.912   4.042   7.147 -0.2457 -0.4914 -0.3516
  114OSM    C1511761   1.810   3.965   7.215  0.0230 -0.2160  0.3617
  114OSM   H15A11762   1.792   3.996   7.317 -2.6978  0.2092 -0.1598
  114OSM   H15B11763   1.830   3.859   7.221  0.8471 -0.0123  1.5493
  114OSM   H15C11764   1.713   3.968   7.168 -0.9011  0.2098  2.2332
  114OSM    C1411765   1.883   4.187   7.177 -0.3471  1.0561 -0.0743
  114OSM   H14A11766   1.895   4.207   7.282  2.4986 -0.9300  0.0807
  114OSM   H14B11767   1.780   4.211   7.155 -0.8129 -0.1473  0.6798
  114OSM   H14C11768   1.941   4.249   7.110 -0.5434  0.6956 -0.5880
  114OSM    C1311769   2.044   4.010   7.203  0.3198  0.8271  0.0173
  114OSM   H13A11770   2.054   3.903   7.205 -2.6069  0.4480 -1.1420
  114OSM   H13B11771   2.051   4.046   7.305 -2.6130 -1.2042  1.0624
  114OSM   H13C11772   2.131   4.047   7.150 -0.2998  3.2999  0.5934
  114OSM    C1211773   1.904   4.010   7.000 -0.3334  0.4392  0.5368
  114OSM   H12A11774   1.801   4.013   6.970 -0.0956  0.7226 -0.2901
  114OSM   H12B11775   1.937   3.910   6.976  0.1431  0.1355  2.3475
  114OSM    C1111776   1.988   4.100   6.902  0.5006 -0.0654  0.4684
  114OSM   H11A11777   1.991   4.053   6.801  0.9517 -1.1110  0.9577
  114OSM   H11B11778   2.095   4.094   6.931  0.2524 -1.1506  1.2098
  114OSM      P11779   1.805   4.289   6.826  0.3477 -0.4913 -0.2115
  114OSM    O1311780   1.685   4.214   6.865 -0.1493 -0.2302 -0.5150
  114OSM    O1411781   1.799   4.436   6.835  0.3750 -0.5653  0.0353
  114OSM    O1111782   1.827   4.247   6.679  0.3230  0.6067  0.0837
  114OSM    O1211783   1.938   4.238   6.899  0.4247 -0.2716 -0.3477
  114OSM    C1S11784   1.913   4.312   6.592 -0.0601 -0.2282  0.1613
  114OSM    H1S11785   1.940   4.415   6.626 -0.4878  0.3908 -1.2844
  114OSM    H1T11786   1.861   4.330   6.496 -1.3961 -1.8065  0.5652
  114OSM     NF11787   2.117   4.326   6.463  0.4425  0.3852  0.2091
  114OSM    HNF11788   2.106   4.305   6.366  1.6121 -0.6396  0.2789
  114OSM    C2S11789   2.040   4.232   6.545  0.2189 -0.4434 -0.3808
  114OSM    H2S11790   2.104   4.197   6.629 -0.6875 -1.5571 -0.1250
  114OSM    C3S11791   1.994   4.098   6.471  0.4399 -0.4941 -0.0277
  114OSM    H3S11792   1.949   4.134   6.376 -0.7918  1.4656  1.2318
  114OSM     O311793   1.884   4.031   6.540 -0.1331 -0.1344 -0.0382
  114OSM    HO311794   1.847   4.111   6.577 -1.4159 -0.1426 -1.2141
  114OSM    C4S11795   2.105   4.008   6.429 -0.3361 -0.6133  0.2664
  114OSM    H4S11796   2.144   4.011   6.326  1.2357 -0.3339  0.8373
  114OSM    C5S11797   2.153   3.906   6.498 -0.3255  0.4489  0.1509
  114OSM    H5S11798   2.107   3.889   6.597 -0.6492 -0.3532 -0.1305
  114OSM    C6S11799   2.259   3.805   6.456 -0.2709 -0.2558 -0.0610
  114OSM    H6S11800   2.316   3.773   6.546 -0.7743  0.1129  0.3995
  114OSM    H6T11801   2.327   3.860   6.388 -0.6271 -0.3386 -0.4881
  114OSM    C7S11802   2.200   3.691   6.377 -0.1541  0.2972 -0.4378
  114OSM    H7S11803   2.144   3.727   6.289 -0.2277  1.5262  0.0996
  114OSM    H7T11804   2.123   3.643   6.440 -0.4204 -0.5343 -1.3645
  114OSM    C8S11805   2.307   3.596   6.335  0.2115  0.0096 -1.2032
  114OSM    H8S11806   2.355   3.553   6.426  0.9443  0.2531 -1.4678
  114OSM    H8T11807   2.379   3.659   6.280  1.8056  0.4672  1.2295
  114OSM    C9S11808   2.249   3.489   6.241 -0.7810  0.2352  0.5638
  114OSM    H9S11809   2.235   3.532   6.140 -0.6574  0.5650  0.6833
  114OSM    H9T11810   2.157   3.446   6.286 -1.0807  0.7425  0.4529
  114OSM   C10S11811   2.348   3.373   6.226 -0.4046  0.1089  0.1353
  114OSM   H10S11812   2.389   3.357   6.328 -3.1756  1.3205  1.5516
  114OSM   H10T11813   2.423   3.409   6.153 -1.2524 -0.9106 -1.3043
  114OSM   C11S11814   2.290   3.249   6.166 -0.2680 -0.0928  0.5143
  114OSM   H11S11815   2.221   3.194   6.232  0.6371 -0.1231  1.4693
  114OSM   H11T11816   2.376   3.181   6.148 -0.2080  0.3132 -0.8476
  114OSM   C12S11817   2.215   3.262   6.035  0.1499  0.7629 -0.2384
  114OSM   H12S11818   2.117   3.314   6.031 -1.6311 -2.2298  1.3503
  114OSM   H12T11819   2.185   3.159   6.007  2.4421 -0.2559  0.7783
  114OSM   C13S11820   2.295   3.328   5.915  0.1558  0.5621 -0.5854
  114OSM   H13S11821   2.323   3.427   5.957  0.5562 -0.9146  2.9579
  114OSM   H13T11822   2.238   3.345   5.821 -3.2278  0.9665  1.3903
  114OSM   C14S11823   2.427   3.258   5.883 -0.0089 -0.2866  0.8978
  114OSM   H14S11824   2.402   3.155   5.850 -0.6651  0.3218 -0.5884
  114OSM   H14T11825   2.496   3.253   5.969  0.3068  0.2653  0.6795
  114OSM   C15S11826   2.511   3.312   5.769 -1.1968 -0.2148  0.3014
  114OSM   H15S11827   2.561   3.407   5.796  1.4954 -1.4893  0.1266
  114OSM   H15T11828   2.443   3.329   5.682 -2.1738 -0.7753  0.9420
  114OSM   C16S11829   2.609   3.202   5.727 -0.0546 -0.3511  0.6681
  114OSM   H16S11830   2.560   3.105   5.704  1.7822 -1.6353  1.8766
  114OSM   H16T11831   2.670   3.185   5.819 -0.9046 -0.2959  1.2559
  114OSM   C17S11832   2.699   3.252   5.612  0.4311  0.4529 -0.0116
  114OSM   H17S11833   2.755   3.343   5.642 -0.8125  1.3898 -0.4085
  114OSM   H17T11834   2.637   3.280   5.523 -1.2972  2.1512  1.6298
  114OSM   C18S11835   2.797   3.149   5.561 -0.4089 -0.9586  0.0485
  114OSM   H18S11836   2.855   3.094   5.639 -0.5158 -0.6128  0.3784
  114OSM   H18T11837   2.850   3.199   5.477 -1.7413 -1.4289 -1.1075
  114OSM   H18U11838   2.740   3.070   5.507  0.2435 -1.5922  0.2630
  114OSM    C1F11839   2.185   4.435   6.505  0.3262  0.4752  0.6968
  114OSM     OF11840   2.181   4.460   6.624  0.4858 -0.3854 -0.6215
  114OSM    C2F11841   2.247   4.529   6.408  0.1388 -0.0996 -0.5610
  114OSM    H2F11842   2.181   4.618   6.398  0.5150  0.5424  2.0542
  114OSM    H2G11843   2.249   4.472   6.312  0.2103  0.5028 -0.9206
  114OSM    C3F11844   2.383   4.581   6.452  0.0406  0.0899  0.0298
  114OSM    H3F11845   2.454   4.499   6.471  1.1840  0.9571 -0.3756
  114OSM    H3G11846   2.364   4.627   6.551 -2.1549  0.2230 -0.3977
  114OSM    C4F11847   2.459   4.682   6.364 -0.1273  0.4468 -0.9554
  114OSM    H4F11848   2.550   4.708   6.422 -1.0300  1.0093  0.2504
  114OSM    H4G11849   2.390   4.767   6.345 -0.3922  0.3281 -0.5399
  114OSM    C5F11850   2.507   4.615   6.236 -0.5590  0.5180  0.1203
  114OSM    H5F11851   2.420   4.570   6.185  0.2005 -0.7558 -0.1113
  114OSM    H5G11852   2.582   4.536   6.259  0.5921  1.6475  0.3387
  114OSM    C6F11853   2.572   4.712   6.138  0.5975 -0.7273  0.3290
  114OSM    H6F11854   2.676   4.739   6.167  0.8314 -0.9167 -0.3143
  114OSM    H6G11855   2.503   4.799   6.134 -1.5827 -2.3038  1.6886
  114OSM    C7F11856   2.577   4.651   5.991 -1.0088 -0.0176  0.3566
  114OSM    H7F11857   2.491   4.583   5.971  0.2292 -1.6467  0.2999
  114OSM    H7G11858   2.662   4.580   5.990 -1.5378 -0.6778  0.8019
  114OSM    C8F11859   2.599   4.762   5.885  1.0173 -0.4988 -0.0810
  114OSM    H8F11860   2.688   4.822   5.914  0.5995  1.0773 -1.8506
  114OSM    H8G11861   2.509   4.826   5.891  0.2145 -1.7391  1.8672
  114OSM    C9F11862   2.608   4.681   5.754 -0.4884 -0.7965 -0.2156
  114OSM    H9F11863   2.688   4.605   5.758 -0.2495 -0.5084  0.7990
  114OSM   C10F11864   2.545   4.699   5.639  0.2252 -0.2434  0.7505
  114OSM   H10F11865   2.570   4.631   5.556  0.0551 -1.8450  1.9633
  114OSM   C11F11866   2.461   4.819   5.601  0.8855 -0.4449  0.2331
  114OSM   H11F11867   2.517   4.914   5.609 -1.4781  0.8725  2.6831
  114OSM   H11G11868   2.390   4.834   5.686 -0.5807  0.6093 -1.1096
  114OSM   C12F11869   2.396   4.806   5.461  0.1103  0.0576 -0.6319
  114OSM   H12F11870   2.332   4.896   5.452 -0.5979 -0.3258  0.3231
  114OSM   H12G11871   2.336   4.713   5.447  1.4910 -0.5236 -3.4054
  114OSM   C13F11872   2.503   4.809   5.344 -0.2972 -0.9116  0.0792
  114OSM   H13F11873   2.580   4.733   5.367  4.2336  2.6737 -1.6028
  114OSM   H13G11874   2.552   4.908   5.335  2.0345 -1.9000  1.0424
  114OSM   C14F11875   2.430   4.769   5.215  0.5412 -0.0048  0.1785
  114OSM   H14F11876   2.370   4.854   5.176  1.5378  0.1042 -1.2285
  114OSM   H14G11877   2.356   4.689   5.236 -1.4304  2.0621  1.6047
  114OSM   C15F11878   2.535   4.720   5.110 -0.2131  1.2514 -0.5327
  114OSM   H15F11879   2.564   4.619   5.147  1.0944  1.9226  0.3678
  114OSM   H15G11880   2.625   4.785   5.105  0.5973  0.2212  0.1071
  114OSM   C16F11881   2.480   4.684   4.969 -0.3082 -0.1256 -0.1264
  114OSM   H16F11882   2.463   4.778   4.912  0.8645 -0.7724 -1.5919
  114OSM   H16G11883   2.390   4.620   4.984  0.9081 -1.9567 -0.4054
  114OSM   C17F11884   2.587   4.608   4.896  0.5816  0.3596 -0.0702
  114OSM   H17F11885   2.598   4.508   4.945  2.4903 -0.2224 -1.5700
  114OSM   H17G11886   2.684   4.655   4.926  0.0469  0.9949  0.7008
  114OSM   C18F11887   2.583   4.592   4.747  1.2436  0.5866 -0.3840
  114OSM   H18F11888   2.601   4.690   4.699  0.9543  0.5360 -0.5986
  114OSM   H18G11889   2.487   4.545   4.716  1.6384  0.4131 -1.4135
  114OSM   H18H11890   2.658   4.516   4.714 -0.5922 -1.3159 -0.4020
  115OSM      N11891   1.526   1.941   6.768 -0.1540 -0.3602  0.1221
  115OSM    C1511892   1.418   2.047   6.750 -0.0009 -0.2946  0.0770
  115OSM   H15A11893   1.321   2.015   6.784  0.4913 -0.2524  1.6068
  115OSM   H15B11894   1.416   2.066   6.644  0.3115  0.3461  0.1787
  115OSM   H15C11895   1.442   2.142   6.795 -0.1454 -0.3997  0.3777
  115OSM    C1411896   1.507   1.825   6.674 -0.9644  0.1965 -0.0711
  115OSM   H14A11897   1.414   1.783   6.710 -0.6884  0.5147  1.0734
  115OSM   H14B11898   1.585   1.751   6.684 -0.8877  0.4294  1.2329
  115OSM   H14C11899   1.492   1.854   6.571  1.2714  0.7889 -0.2808
  115OSM    C1311900   1.654   2.005   6.730 -0.5253  0.0874  0.5461
  115OSM   H13A11901   1.669   2.032   6.626 -2.0094 -1.0459 -0.0073
  115OSM   H13B11902   1.741   1.950   6.759  0.6108  1.5389  0.0202
  115OSM   H13C11903   1.657   2.103   6.776  1.4202  0.5154 -0.4146
  115OSM    C1211904   1.531   1.893   6.909  0.5141 -0.5303 -0.5466
  115OSM   H12A11905   1.541   1.983   6.969  1.0359  0.7949 -2.5341
  115OSM   H12B11906   1.613   1.825   6.930 -0.0917 -1.1920 -0.2897
  115OSM    C1111907   1.401   1.828   6.960 -0.1915  0.0083  0.3023
  115OSM   H11A11908   1.313   1.892   6.938 -0.6877 -0.0797  1.9443
  115OSM   H11B11909   1.405   1.806   7.069  0.4497  0.2728  0.3365
  115OSM      P11910   1.249   1.620   6.925 -0.3774 -0.0688  0.0224
  115OSM    O1311911   1.266   1.491   6.864 -0.4219 -0.0532 -0.1824
  115OSM    O1411912   1.236   1.635   7.074 -0.4675  0.0869 -0.2270
  115OSM    O1111913   1.124   1.693   6.860  0.0813 -0.4501 -0.4994
  115OSM    O1211914   1.381   1.702   6.881  0.1995 -0.7045 -0.4913
  115OSM    C1S11915   1.128   1.721   6.723 -1.1162  0.0432 -0.2456
  115OSM    H1S11916   1.230   1.759   6.700 -0.4956 -1.6349 -0.3559
  115OSM    H1T11917   1.066   1.812   6.709  0.9753  1.4603 -0.8150
  115OSM     NF11918   1.098   1.640   6.499 -0.3244 -0.1773  0.9219
  115OSM    HNF11919   1.012   1.658   6.452 -1.9637  1.3995  4.2356
  115OSM    C2S11920   1.085   1.602   6.636  0.1238  0.5118  0.2005
  115OSM    H2S11921   1.164   1.524   6.638  0.7814  1.1165 -1.0684
  115OSM    C3S11922   0.948   1.539   6.672 -0.2195  0.0506  0.0620
  115OSM    H3S11923   0.875   1.612   6.630  0.3925  0.3806 -0.4538
  115OSM     O311924   0.920   1.535   6.811  0.3148  0.1344  0.4490
  115OSM    HO311925   0.997   1.569   6.857  2.0395 -0.2747 -1.9438
  115OSM    C4S11926   0.931   1.398   6.624 -0.1560  0.5127 -0.4056
  115OSM    H4S11927   0.998   1.319   6.661 -1.7976 -0.4592  0.6528
  115OSM    C5S11928   0.852   1.352   6.524 -0.1708 -1.0642 -0.5503
  115OSM    H5S11929   0.809   1.426   6.454  1.8801 -2.3244 -3.3365
  115OSM    C6S11930   0.872   1.214   6.469 -0.3635 -0.4673  0.5492
  115OSM    H6S11931   0.789   1.147   6.501  1.6874 -2.9325  1.0209
  115OSM    H6T11932   0.959   1.152   6.499  1.2461  1.4021 -0.0165
  115OSM    C7S11933   0.879   1.230   6.317  0.3072 -0.1736 -0.6230
  115OSM    H7S11934   0.967   1.289   6.283  2.3693 -1.6181  1.8106
  115OSM    H7T11935   0.792   1.284   6.275 -2.0974 -1.1055  2.7484
  115OSM    C8S11936   0.906   1.095   6.243  0.4656 -0.0815  0.4251
  115OSM    H8S11937   0.816   1.030   6.250  2.1626 -2.6835 -0.5971
  115OSM    H8T11938   0.996   1.052   6.291  0.6533 -1.8569 -1.3771
  115OSM    C9S11939   0.920   1.121   6.098  0.0889  0.0843  0.3180
  115OSM    H9S11940   1.000   1.196   6.081 -1.0651  1.4664  0.7436
  115OSM    H9T11941   0.818   1.152   6.066 -0.0509 -0.4800  0.2105
  115OSM   C10S11942   0.961   0.990   6.025 -0.0234  0.4334  0.8346
  115OSM   H10S11943   0.887   0.909   6.043 -1.3875  1.5602  0.5119
  115OSM   H10T11944   1.054   0.941   6.061 -1.4919 -2.3324  1.1264
  115OSM   C11S11945   0.959   1.015   5.877  0.0234 -0.5509 -0.1663
  115OSM   H11S11946   1.019   1.107   5.862 -0.4476 -0.0758  0.7816
  115OSM   H11T11947   0.853   1.036   5.850 -0.6960 -2.2976  1.0685
  115OSM   C12S11948   1.014   0.909   5.783 -0.2057 -0.4644 -0.2375
  115OSM   H12S11949   0.954   0.815   5.783  1.2172 -1.4521  1.7511
  115OSM   H12T11950   1.120   0.891   5.809  0.2973  1.7523 -0.5395
  115OSM   C13S11951   1.010   0.964   5.642 -0.1741 -0.0037  0.4746
  115OSM   H13S11952   1.066   1.059   5.641 -0.1691  0.0104 -1.5829
  115OSM   H13T11953   0.912   0.981   5.592 -0.7370  0.5510  1.7199
  115OSM   C14S11954   1.060   0.857   5.549  0.1888 -0.6342 -0.3477
  115OSM   H14S11955   1.002   0.763   5.564  0.5091 -0.4095  3.1975
  115OSM   H14T11956   1.165   0.827   5.568 -0.2215 -1.8003  0.1520
  115OSM   C15S11957   1.047   0.891   5.397  0.1748  0.3466  0.4418
  115OSM   H15S11958   0.936   0.901   5.388 -0.4175 -3.0814  2.2865
  115OSM   H15T11959   1.076   0.812   5.325 -1.5645  0.3680 -0.3353
  115OSM   C16S11960   1.115   1.019   5.355  0.1720  0.2222 -0.4336
  115OSM   H16S11961   1.222   0.992   5.350 -0.3144 -1.9425 -0.0286
  115OSM   H16T11962   1.102   1.102   5.429  2.4714 -1.7156  2.3603
  115OSM   C17S11963   1.074   1.059   5.212  0.6484 -0.2781  0.5101
  115OSM   H17S11964   1.150   1.135   5.182  0.3195 -0.3439 -0.5468
  115OSM   H17T11965   0.971   1.101   5.210  0.3615 -0.9960 -0.2640
  115OSM   C18S11966   1.082   0.942   5.117 -0.3152  0.4284  0.2297
  115OSM   H18S11967   0.998   0.870   5.129  0.7314 -0.8613  0.0549
  115OSM   H18T11968   1.175   0.883   5.131 -0.3608  0.5303  0.9965
  115OSM   H18U11969   1.064   0.985   5.016 -0.6363 -2.3343 -0.9801
  115OSM    C1F11970   1.219   1.656   6.446 -0.0615 -0.8008  0.1993
  115OSM     OF11971   1.318   1.631   6.513 -0.5941  0.7167 -0.1078
  115OSM    C2F11972   1.222   1.720   6.315  0.3731  0.4699 -0.6937
  115OSM    H2F11973   1.262   1.824   6.322  1.8462  0.0730 -2.3196
  115OSM    H2G11974   1.120   1.725   6.272  0.9377 -1.8210 -2.5311
  115OSM    C3F11975   1.320   1.636   6.232  0.8708 -1.0809  0.3672
  115OSM    H3F11976   1.285   1.531   6.218  1.8456 -1.5867  1.5663
  115OSM    H3G11977   1.424   1.621   6.267  0.5576 -1.0605  1.3200
  115OSM    C4F11978   1.329   1.706   6.090 -0.8084 -0.5998  0.4465
  115OSM    H4F11979   1.409   1.669   6.023  2.1404  2.5194  1.8754
  115OSM    H4G11980   1.363   1.811   6.103  0.9689 -0.9253 -1.1682
  115OSM    C5F11981   1.202   1.705   6.005 -0.0037  0.4658  0.6432
  115OSM    H5F11982   1.121   1.767   6.051 -0.4659  0.2123  0.1785
  115OSM    H5G11983   1.160   1.604   5.988  0.3895  0.7087 -2.0786
  115OSM    C6F11984   1.218   1.762   5.866 -0.9621 -0.4922 -0.2863
  115OSM    H6F11985   1.249   1.868   5.873 -0.4451 -0.7217  1.6151
  115OSM    H6G11986   1.112   1.766   5.833 -2.1358 -1.3016  2.9867
  115OSM    C7F11987   1.310   1.678   5.769  0.2241  0.4126 -0.0350
  115OSM    H7F11988   1.276   1.573   5.783  1.5035  0.0468  0.4505
  115OSM    H7G11989   1.418   1.684   5.793  0.5067  0.3295 -1.2146
  115OSM    C8F11990   1.264   1.705   5.626  0.3519  0.0353  0.2833
  115OSM    H8F11991   1.153   1.698   5.623  0.2104  1.2674  1.3862
  115OSM    H8G11992   1.306   1.623   5.565 -1.6547 -2.6590  2.2561
  115OSM    C9F11993   1.309   1.838   5.582  0.7683  0.2434  0.1000
  115OSM    H9F11994   1.313   1.914   5.662 -1.3124 -0.2108  0.7009
  115OSM   C10F11995   1.349   1.870   5.464 -0.0610  0.6305 -0.0136
  115OSM   H10F11996   1.382   1.970   5.434  0.5424  0.9007  1.4643
  115OSM   C11F11997   1.345   1.774   5.344 -0.6439  0.0165 -0.3432
  115OSM   H11F11998   1.247   1.723   5.334 -1.6224  1.4928  1.2388
  115OSM   H11G11999   1.417   1.690   5.359  0.6757  0.9768 -1.0669
  115OSM   C12F12000   1.376   1.849   5.210  0.2621 -0.0636 -0.0361
  115OSM   H12F12001   1.295   1.922   5.188  1.2148  0.9573 -0.2114
  115OSM   H12G12002   1.377   1.773   5.129 -0.9682 -0.5222  0.3476
  115OSM   C13F12003   1.512   1.917   5.210  0.0797 -0.0109 -0.3523
  115OSM   H13F12004   1.586   1.846   5.250 -1.4687 -2.6654 -1.9168
  115OSM   H13G12005   1.508   2.007   5.276  1.8873  0.1569 -0.4366
  115OSM   C14F12006   1.540   1.977   5.069  0.5046  0.1228  0.3182
  115OSM   H14F12007   1.461   2.046   5.032  1.1700  0.1576 -1.1167
  115OSM   H14G12008   1.551   1.894   4.996 -0.4342  0.9480 -0.8069
  115OSM   C15F12009   1.665   2.064   5.055 -0.1743 -0.3438  0.4455
  115OSM   H15F12010   1.737   2.031   5.133  0.1555 -0.5702  0.0494
  115OSM   H15G12011   1.636   2.169   5.077  0.1190 -0.4908  1.5940
  115OSM   C16F12012   1.724   2.060   4.910 -0.0153  0.3081 -0.2767
  115OSM   H16F12013   1.641   2.096   4.845  0.7459  0.7914 -1.0060
  115OSM   H16G12014   1.747   1.956   4.881 -0.9222 -0.3290  1.1994
  115OSM   C17F12015   1.847   2.153   4.909  0.3174  0.6133 -0.0467
  115OSM   H17F12016   1.919   2.113   4.983  1.3948 -0.6177 -1.6852
  115OSM   H17G12017   1.807   2.248   4.950  0.2785 -0.5746  2.8753
  115OSM   C18F12018   1.913   2.165   4.773 -0.0255 -0.4260 -0.0594
  115OSM   H18F12019   2.010   2.213   4.798 -0.6888  0.2522  1.3273
  115OSM   H18G12020   1.859   2.236   4.706 -2.1252 -2.0468 -0.1792
  115OSM   H18H12021   1.928   2.068   4.722 -0.6252 -0.8345  0.5221
  116OSM      N12022   2.248   4.459   6.991  0.4592  0.0268  0.0395
  116OSM    C1512023   2.145   4.353   7.027 -0.0970  0.1670  0.7987
  116OSM   H15A12024   2.195   4.259   7.043 -0.8159 -0.5457 -0.8986
  116OSM   H15B12025   2.088   4.336   6.937  2.0824 -0.3538 -0.5594
  116OSM   H15C12026   2.082   4.388   7.108 -0.6679  0.6442  0.1617
  116OSM    C1412027   2.177   4.583   6.950  0.2468 -0.2043  0.1234
  116OSM   H14A12028   2.099   4.603   7.022 -2.7123 -1.7175 -2.4583
  116OSM   H14B12029   2.133   4.566   6.853 -0.4985 -0.4470  0.4972
  116OSM   H14C12030   2.240   4.672   6.950 -0.7257  0.5009 -0.6055
  116OSM    C1312031   2.326   4.483   7.119 -0.0577 -0.0013 -0.5528
  116OSM   H13A12032   2.357   4.386   7.156 -0.8768  0.3462  1.1141
  116OSM   H13B12033   2.264   4.521   7.199  0.8517 -0.8607  0.5909
  116OSM   H13C12034   2.409   4.550   7.104  0.7136 -0.8691 -0.2953
  116OSM    C1212035   2.337   4.411   6.884  1.0574  0.4161  0.4364
  116OSM   H12A12036   2.268   4.394   6.803  3.7388 -0.0355 -1.8978
  116OSM   H12B12037   2.370   4.310   6.902  0.0218  0.1109  0.6402
  116OSM    C1112038   2.453   4.499   6.841  0.0534 -0.6006 -0.3436
  116OSM   H11A12039   2.405   4.599   6.839 -0.4100 -0.7989  0.3944
  116OSM   H11B12040   2.486   4.474   6.738  0.6603  1.0915 -0.5995
  116OSM      P12041   2.680   4.590   6.938  0.1658 -0.2099  0.4408
  116OSM    O1312042   2.636   4.718   6.996  0.0385 -0.3556  0.4071
  116OSM    O1412043   2.795   4.523   7.006  0.1155  0.3181 -0.1725
  116OSM    O1112044   2.720   4.613   6.785  0.2469  0.4314 -0.5137
  116OSM    O1212045   2.558   4.488   6.933  0.1314  0.5480 -0.0551
  116OSM    C1S12046   2.768   4.496   6.719 -0.6211  0.1866 -0.6643
  116OSM    H1S12047   2.708   4.403   6.729  1.5311 -1.1929  0.3225
  116OSM    H1T12048   2.869   4.468   6.756 -2.1371 -1.4977  2.6827
  116OSM     NF12049   2.797   4.389   6.490  0.2603 -0.6047 -0.5206
  116OSM    HNF12050   2.894   4.366   6.479  0.7522  0.8596  0.5236
  116OSM    C2S12051   2.776   4.515   6.561 -0.1994 -0.4043 -0.1112
  116OSM    H2S12052   2.676   4.548   6.526 -0.6933 -3.0384 -1.5048
  116OSM    C3S12053   2.883   4.629   6.525 -0.6584  0.2562  0.3644
  116OSM    H3S12054   2.980   4.599   6.571  0.5937  2.9898 -0.2975
  116OSM     O312055   2.836   4.749   6.583  0.0623  0.1396 -0.2415
  116OSM    HO312056   2.780   4.701   6.644 -0.9247  1.3910 -0.1182
  116OSM    C4S12057   2.901   4.639   6.374  0.3879 -0.2257 -0.5369
  116OSM    H4S12058   2.810   4.679   6.327  0.9741  1.3020 -0.4230
  116OSM    C5S12059   3.021   4.629   6.317  0.0623 -0.3857  0.3450
  116OSM    H5S12060   3.106   4.631   6.386 -1.4110 -1.0119  2.2691
  116OSM    C6S12061   3.052   4.648   6.170  0.2990  0.1642  0.1629
  116OSM    H6S12062   3.130   4.572   6.146  2.4514  2.5455 -0.9309
  116OSM    H6T12063   3.085   4.753   6.155 -0.8789  0.4006 -0.9245
  116OSM    C7S12064   2.933   4.639   6.071 -0.0264  0.7543  0.4305
  116OSM    H7S12065   2.871   4.731   6.083 -1.1099  0.2679 -1.0594
  116OSM    H7T12066   2.869   4.553   6.100  1.6431 -0.3662  0.9342
  116OSM    C8S12067   2.976   4.639   5.921 -0.1554  0.9225 -0.7953
  116OSM    H8S12068   2.890   4.599   5.864 -0.3051 -0.6900  0.4838
  116OSM    H8T12069   3.065   4.577   5.896 -1.5369 -0.6948 -1.9112
  116OSM    C9S12070   2.989   4.784   5.881  0.1803 -1.1230  0.0143
  116OSM    H9S12071   3.060   4.836   5.950  1.1555  0.3736 -2.0090
  116OSM    H9T12072   2.893   4.839   5.884  1.6856  1.6967  2.0479
  116OSM   C10S12073   3.053   4.812   5.741  0.2031  0.3047 -0.0789
  116OSM   H10S12074   3.154   4.767   5.747  0.2085  0.0382 -1.5921
  116OSM   H10T12075   3.059   4.923   5.736  0.4567  0.2785 -0.4013
  116OSM   C11S12076   2.989   4.750   5.613 -0.1913 -0.0609 -0.9885
  116OSM   H11S12077   2.878   4.760   5.613 -0.3173 -1.0479  0.5069
  116OSM   H11T12078   3.002   4.640   5.619 -1.0572 -0.1549 -0.6996
  116OSM   C12S12079   3.054   4.792   5.479  0.8767 -0.0626 -0.9239
  116OSM   H12S12080   3.164   4.777   5.482  0.9860  0.4382  2.8080
  116OSM   H12T12081   3.031   4.900   5.463  1.1558  0.4776  1.7697
  116OSM   C13S12082   2.984   4.721   5.361  0.7527 -0.9290 -0.9191
  116OSM   H13S12083   2.883   4.767   5.353  0.8498 -0.1041  1.6034
  116OSM   H13T12084   2.968   4.613   5.382 -0.3579 -0.8605 -1.3504
  116OSM   C14S12085   3.056   4.740   5.227  0.3318  0.0539 -0.2244
  116OSM   H14S12086   3.161   4.707   5.246  0.4902 -0.1569 -1.4103
  116OSM   H14T12087   3.056   4.846   5.194 -0.9436 -0.5417 -2.3231
  116OSM   C15S12088   2.989   4.663   5.112 -0.5783  0.5677 -0.9199
  116OSM   H15S12089   2.885   4.700   5.098 -1.3434 -1.6687 -1.4645
  116OSM   H15T12090   2.965   4.560   5.145  1.6630 -0.0542 -1.0739
  116OSM   C16S12091   3.064   4.666   4.981 -0.0103  0.1538  0.0889
  116OSM   H16S12092   3.163   4.618   4.998  0.0267  0.1197 -0.2153
  116OSM   H16T12093   3.092   4.774   4.977  0.5028  0.0195  0.0077
  116OSM   C17S12094   2.990   4.593   4.872 -0.6321  0.8495 -0.5120
  116OSM   H17S12095   2.907   4.653   4.829 -1.4066  0.8358  0.9317
  116OSM   H17T12096   2.952   4.498   4.916 -1.3491  0.4652 -1.8966
  116OSM   C18S12097   3.077   4.542   4.749 -0.2755 -0.5513 -0.0151
  116OSM   H18S12098   3.009   4.494   4.676 -2.4104  0.7884  0.9773
  116OSM   H18T12099   3.156   4.473   4.786 -0.5662  0.1066  1.9828
  116OSM   H18U12100   3.130   4.620   4.691 -0.0392 -1.9066 -1.6967
  116OSM    C1F12101   2.700   4.297   6.472  0.9032 -0.7111 -0.5397
  116OSM     OF12102   2.593   4.308   6.536 -0.1277 -0.3441 -0.3030
  116OSM    C2F12103   2.737   4.178   6.400  0.8302  0.0160  0.0057
  116OSM    H2F12104   2.756   4.102   6.478  0.7450  0.0301  0.0410
  116OSM    H2G12105   2.829   4.200   6.342  1.2409  0.7923  0.9352
  116OSM    C3F12106   2.622   4.125   6.308  0.1895  0.3080 -0.0172
  116OSM    H3F12107   2.527   4.114   6.365  1.9527  0.4858  3.1108
  116OSM    H3G12108   2.654   4.026   6.269  0.9811 -0.1586  1.7194
  116OSM    C4F12109   2.608   4.231   6.195  0.0801 -0.1512 -0.5464
  116OSM    H4F12110   2.710   4.258   6.160  0.1770 -1.5419 -1.3682
  116OSM    H4G12111   2.555   4.316   6.244  1.1078 -0.0542  0.4537
  116OSM    C5F12112   2.544   4.185   6.069  0.3379  0.5194  0.2238
  116OSM    H5F12113   2.441   4.144   6.078 -0.0054  0.3007 -3.2884
  116OSM    H5G12114   2.610   4.102   6.037 -0.8586 -0.6449  0.7247
  116OSM    C6F12115   2.533   4.298   5.971 -0.7590 -0.0452 -0.5294
  116OSM    H6F12116   2.631   4.351   5.976  0.0236 -1.4104 -0.8089
  116OSM    H6G12117   2.466   4.381   6.004  1.6293  1.4980  0.7439
  116OSM    C7F12118   2.525   4.254   5.821  0.2617 -0.5265 -0.3645
  116OSM    H7F12119   2.500   4.350   5.769  1.8708 -0.7927 -1.6994
  116OSM    H7G12120   2.435   4.188   5.822 -0.3337  0.2637 -0.3051
  116OSM    C8F12121   2.647   4.186   5.767  0.5798  0.0394 -0.4390
  116OSM    H8F12122   2.621   4.141   5.669  0.9587  1.8002 -1.4043
  116OSM    H8G12123   2.680   4.102   5.832  0.0334 -0.5625 -0.9268
  116OSM    C9F12124   2.765   4.286   5.752  0.4623  0.3882 -0.5556
  116OSM    H9F12125   2.832   4.304   5.836 -0.0785  1.3555 -0.3198
  116OSM   C10F12126   2.806   4.352   5.644  0.0197 -0.6068  0.4359
  116OSM   H10F12127   2.896   4.416   5.651 -0.5406  0.2163  0.2477
  116OSM   C11F12128   2.741   4.362   5.505 -0.6194 -0.3381 -0.0690
  116OSM   H11F12129   2.733   4.464   5.462 -0.9728 -0.5833 -0.5980
  116OSM   H11G12130   2.635   4.331   5.523 -0.2063 -1.3101  0.7503
  116OSM   C12F12131   2.809   4.271   5.399 -0.2098 -0.8608 -0.3627
  116OSM   H12F12132   2.795   4.161   5.413 -0.2128 -0.6090  2.1860
  116OSM   H12G12133   2.916   4.300   5.393 -0.8299  1.9646  0.8560
  116OSM   C13F12134   2.760   4.304   5.256  0.5249 -0.4768 -0.5571
  116OSM   H13F12135   2.746   4.413   5.239 -4.0046 -0.5401  1.3428
  116OSM   H13G12136   2.661   4.260   5.234  0.7615 -0.9385 -0.7015
  116OSM   C14F12137   2.849   4.245   5.151  0.9107  0.0190 -0.3067
  116OSM   H14F12138   2.890   4.144   5.171  0.4815 -0.2543 -0.7816
  116OSM   H14G12139   2.927   4.323   5.162  0.4637  0.1012  3.4135
  116OSM   C15F12140   2.782   4.241   5.020  0.6287 -0.2370  0.5844
  116OSM   H15F12141   2.742   4.339   4.986  1.9473  0.1178 -0.0033
  116OSM   H15G12142   2.703   4.163   5.010  2.0888 -1.6110 -1.0968
  116OSM   C16F12143   2.881   4.203   4.910 -0.3592 -0.6719  0.3191
  116OSM   H16F12144   2.911   4.097   4.919  1.1586 -0.3055 -0.0596
  116OSM   H16G12145   2.971   4.267   4.924  0.5396 -1.8135 -0.1074
  116OSM   C17F12146   2.840   4.223   4.755  0.1552  0.7215 -0.2640
  116OSM   H17F12147   2.917   4.169   4.696 -0.1179  1.8826 -1.7439
  116OSM   H17G12148   2.853   4.329   4.723  1.9170  0.8950  0.8834
  116OSM   C18F12149   2.696   4.176   4.733  0.2958  0.2524  0.3308
  116OSM   H18F12150   2.644   4.188   4.636 -1.7973  1.4663  1.5476
  116OSM   H18G12151   2.636   4.242   4.798  1.4363  2.2743 -0.5787
  116OSM   H18H12152   2.682   4.074   4.777 -2.7436  0.8256  0.9091
  117OSM      N12153   2.767   6.984   7.201  0.1756  0.2158  0.0764
  117OSM    C1512154   2.824   6.878   7.286 -0.2621  0.2339 -0.6893
  117OSM   H15A12155   2.927   6.879   7.254 -0.4013 -0.4514 -1.1812
  117OSM   H15B12156   2.774   6.782   7.291  1.5744 -0.8441 -1.8279
  117OSM   H15C12157   2.814   6.909   7.389 -4.1009 -0.8521 -0.5768
  117OSM    C1412158   2.637   7.028   7.264  0.6701  0.1008 -0.8051
  117OSM   H14A12159   2.585   7.094   7.196  1.5766  0.7581 -0.8895
  117OSM   H14B12160   2.641   7.082   7.358 -0.3064 -1.4198  0.1450
  117OSM   H14C12161   2.570   6.945   7.277  1.4600 -0.7003 -1.7229
  117OSM    C1312162   2.867   7.105   7.213  0.0032  0.0788 -0.2159
  117OSM   H13A12163   2.876   7.139   7.316 -1.6065  1.6561 -0.5434
  117OSM   H13B12164   2.826   7.188   7.157  0.2846  0.3803  0.0209
  117OSM   H13C12165   2.962   7.071   7.175  0.9976  0.9554  1.3738
  117OSM    C1212166   2.756   6.945   7.060 -0.0728  0.8302 -0.4380
  117OSM   H12A12167   2.691   6.860   7.055  2.0081 -0.9187  0.5032
  117OSM   H12B12168   2.853   6.901   7.039 -0.0188  1.7155 -2.2139
  117OSM    C1112169   2.704   7.044   6.952 -0.3605  0.0567 -0.6273
  117OSM   H11A12170   2.712   6.985   6.858 -1.8323  1.2387 -1.5490
  117OSM   H11B12171   2.770   7.134   6.946  0.8176 -0.8676 -2.4161
  117OSM      P12172   2.449   6.988   6.946  0.2814 -0.3139  0.1046
  117OSM    O1312173   2.478   6.847   6.961 -0.0370  0.2046 -0.3278
  117OSM    O1412174   2.331   7.031   7.021  0.2059  0.4323  0.1106
  117OSM    O1112175   2.430   7.010   6.791 -0.1122 -0.2815 -0.5830
  117OSM    O1212176   2.569   7.085   6.973  0.1334  0.0699  0.6423
  117OSM    C1S12177   2.409   7.130   6.716  0.5071  0.0166  0.2295
  117OSM    H1S12178   2.506   7.184   6.717  0.8732 -0.5852 -0.5998
  117OSM    H1T12179   2.328   7.195   6.753  1.7400  2.9453 -1.8185
  117OSM     NF12180   2.362   7.228   6.487 -0.4757 -0.0389 -0.3407
  117OSM    HNF12181   2.267   7.253   6.468 -1.1278 -1.8304  0.4115
  117OSM    C2S12182   2.377   7.102   6.563 -0.1411 -0.6868  0.0796
  117OSM    H2S12183   2.469   7.049   6.530  0.5070  0.6525 -0.3054
  117OSM    C3S12184   2.270   6.993   6.562 -0.3493 -0.1595 -0.8858
  117OSM    H3S12185   2.184   7.019   6.627  0.7213 -0.8557  0.8706
  117OSM     O312186   2.319   6.867   6.606 -0.0534  0.4682 -0.2121
  117OSM    HO312187   2.362   6.883   6.690 -1.0471  1.7288  0.1060
  117OSM    C4S12188   2.229   6.989   6.421  0.1251  0.5586  0.4301
  117OSM    H4S12189   2.305   6.973   6.343 -2.8791 -0.6472 -2.5475
  117OSM    C5S12190   2.096   6.989   6.381 -1.0428 -0.0959 -0.7611
  117OSM    H5S12191   2.027   7.008   6.465  0.2016  2.0063 -0.1143
  117OSM    C6S12192   2.036   6.970   6.248  0.4712  0.2383  0.4383
  117OSM    H6S12193   1.955   7.046   6.240  0.3318  0.1287  0.7802
  117OSM    H6T12194   1.971   6.880   6.243 -0.7625  1.0139  1.7901
  117OSM    C7S12195   2.134   6.971   6.130  0.0715 -0.6584 -0.1362
  117OSM    H7S12196   2.190   6.875   6.133  2.0772  0.4698  0.5762
  117OSM    H7T12197   2.215   7.046   6.144  1.4082 -2.1043  0.2150
  117OSM    C8S12198   2.060   7.012   6.002  0.2572  0.6154 -0.4252
  117OSM    H8S12199   2.048   7.122   6.004 -0.0897  0.5721  1.2796
  117OSM    H8T12200   1.954   6.980   6.007  0.6543 -0.5737  0.9320
  117OSM    C9S12201   2.124   6.962   5.870 -0.1080 -0.2173  0.3133
  117OSM    H9S12202   2.154   6.855   5.878  1.7219  0.0617 -1.8439
  117OSM    H9T12203   2.218   7.020   5.857 -0.0736 -0.5307 -0.9523
  117OSM   C10S12204   2.043   6.995   5.742  0.4242 -0.5613  0.3794
  117OSM   H10S12205   2.006   7.099   5.737 -0.6956 -0.8958  1.3363
  117OSM   H10T12206   1.951   6.934   5.754 -1.6995  2.5111  0.9372
  117OSM   C11S12207   2.121   6.975   5.609  0.2855  0.2969  0.4280
  117OSM   H11S12208   2.197   6.895   5.613  0.2637  0.1177 -1.7862
  117OSM   H11T12209   2.178   7.069   5.592  0.3471 -0.2423 -3.2174
  117OSM   C12S12210   2.025   6.939   5.495  0.2121 -0.4094  0.1225
  117OSM   H12S12211   1.968   6.851   5.533 -2.8242  1.6361  0.7009
  117OSM   H12T12212   2.074   6.905   5.402 -2.4638 -1.4212 -1.0306
  117OSM   C13S12213   1.921   7.052   5.466 -0.1331  0.2316  0.1801
  117OSM   H13S12214   1.977   7.148   5.476  0.9906 -0.3369 -0.3854
  117OSM   H13T12215   1.859   7.038   5.557  2.0795 -1.5456  1.5326
  117OSM   C14S12216   1.844   7.032   5.338  0.6381 -0.1888 -0.2894
  117OSM   H14S12217   1.765   7.110   5.341 -0.8457 -1.6474 -0.3101
  117OSM   H14T12218   1.785   6.938   5.336  0.2584  0.0666 -1.4155
  117OSM   C15S12219   1.927   7.043   5.209  0.2704 -0.1055 -0.0805
  117OSM   H15S12220   1.884   6.998   5.116 -0.5394  0.3535  0.0701
  117OSM   H15T12221   2.012   6.971   5.208 -1.1463 -1.9203 -2.3193
  117OSM   C16S12222   1.981   7.186   5.166 -0.6265 -0.1474 -1.0775
  117OSM   H16S12223   2.039   7.208   5.258 -0.7550 -1.0404 -0.7672
  117OSM   H16T12224   1.900   7.262   5.165  0.0902  0.6602 -0.1904
  117OSM   C17S12225   2.062   7.197   5.037 -0.2824 -0.7524 -0.2215
  117OSM   H17S12226   1.990   7.229   4.958  0.5122  2.3883  0.1873
  117OSM   H17T12227   2.103   7.098   5.012 -0.3117 -1.2754  1.6273
  117OSM   C18S12228   2.167   7.313   5.044  0.1234 -0.3433  0.2988
  117OSM   H18S12229   2.238   7.311   4.959 -0.7023 -0.0030 -0.4157
  117OSM   H18T12230   2.232   7.307   5.134  2.3950  1.6038 -1.0776
  117OSM   H18U12231   2.115   7.410   5.057 -0.1903 -0.2666 -1.3253
  117OSM    C1F12232   2.471   7.293   6.451 -0.5479 -0.5163  0.4890
  117OSM     OF12233   2.584   7.253   6.474  0.2966  0.4264  0.5270
  117OSM    C2F12234   2.451   7.423   6.379 -0.1765  0.1793 -0.3650
  117OSM    H2F12235   2.488   7.509   6.439 -1.6123 -0.6691  1.8619
  117OSM    H2G12236   2.344   7.440   6.357 -0.1219 -0.3184 -1.0670
  117OSM    C3F12237   2.525   7.429   6.247  0.1203 -0.5540 -0.2597
  117OSM    H3F12238   2.629   7.465   6.265  0.5936 -0.9188 -2.0096
  117OSM    H3G12239   2.473   7.507   6.187 -0.8608  0.0679  1.3516
  117OSM    C4F12240   2.542   7.295   6.170 -0.1397  0.1669 -0.1462
  117OSM    H4F12241   2.440   7.258   6.149 -1.4523  3.1690  0.4270
  117OSM    H4G12242   2.601   7.226   6.234  2.0351  0.6290 -1.5348
  117OSM    C5F12243   2.629   7.308   6.043  0.2543  0.4461  0.1391
  117OSM    H5F12244   2.660   7.211   5.999 -3.0284 -0.5021 -0.3664
  117OSM    H5G12245   2.718   7.371   6.065 -1.0995  2.4952  0.0238
  117OSM    C6F12246   2.553   7.381   5.929 -0.4091  0.3541  0.3220
  117OSM    H6F12247   2.525   7.480   5.971 -0.8814  0.9977 -1.4216
  117OSM    H6G12248   2.459   7.328   5.906 -1.2015  1.3029  1.2922
  117OSM    C7F12249   2.637   7.394   5.799 -0.8035  0.4943  0.1412
  117OSM    H7F12250   2.661   7.292   5.763  0.3741  0.4804  0.9106
  117OSM    H7G12251   2.733   7.442   5.827  0.4306 -1.8391  0.1602
  117OSM    C8F12252   2.568   7.460   5.681  0.4717 -0.8761 -0.3431
  117OSM    H8F12253   2.498   7.534   5.725 -0.6840 -1.1560 -1.6246
  117OSM    H8G12254   2.503   7.395   5.618 -0.9316  1.0181 -0.9827
  117OSM    C9F12255   2.672   7.530   5.597  1.1227 -0.4560  0.4433
  117OSM    H9F12256   2.752   7.592   5.641  1.0875  0.8528 -1.2359
  117OSM   C10F12257   2.693   7.487   5.472  0.7426  0.4987 -0.1880
  117OSM   H10F12258   2.770   7.530   5.407  0.1292  1.1313 -0.5060
  117OSM   C11F12259   2.618   7.374   5.404 -0.1307 -0.0346 -0.0989
  117OSM   H11F12260   2.508   7.382   5.419  0.1922  2.1862  1.7090
  117OSM   H11G12261   2.656   7.275   5.436  3.2524  1.0804 -0.2410
  117OSM   C12F12262   2.631   7.392   5.253  0.1887  0.1188 -0.2831
  117OSM   H12F12263   2.570   7.315   5.201  0.5701  1.0414 -2.1814
  117OSM   H12G12264   2.735   7.385   5.216  1.1739 -0.1499  2.3545
  117OSM   C13F12265   2.562   7.522   5.195 -0.6241  0.7912  0.2471
  117OSM   H13F12266   2.613   7.617   5.224  1.3232  0.2417 -1.1443
  117OSM   H13G12267   2.459   7.522   5.236 -0.1762 -0.1710  1.4470
  117OSM   C14F12268   2.546   7.521   5.036  0.1782 -0.8083 -1.0675
  117OSM   H14F12269   2.490   7.611   5.005  1.7091 -0.3247 -2.5977
  117OSM   H14G12270   2.490   7.429   5.010 -0.1190 -0.8838 -0.1963
  117OSM   C15F12271   2.670   7.541   4.943  0.6453  0.1039  0.1116
  117OSM   H15F12272   2.753   7.475   4.977  3.4379  2.4771 -1.5696
  117OSM   H15G12273   2.707   7.646   4.941 -0.6220  0.5636 -0.4236
  117OSM   C16F12274   2.663   7.491   4.800  0.4224  0.4391 -0.4379
  117OSM   H16F12275   2.570   7.528   4.752 -0.1358 -2.8736 -2.1469
  117OSM   H16G12276   2.654   7.381   4.797 -1.2817  0.5399 -0.1001
  117OSM   C17F12277   2.777   7.553   4.712 -0.6597 -0.1378 -0.4447
  117OSM   H17F12278   2.781   7.659   4.744 -1.3948 -0.4720  0.8266
  117OSM   H17G12279   2.742   7.549   4.607  2.7974 -1.6561 -1.7182
  117OSM   C18F12280   2.914   7.483   4.713  0.5331  0.1339 -0.3330
  117OSM   H18F12281   2.888   7.376   4.701  1.2353  0.1510 -2.3356
  117OSM   H18G12282   2.960   7.505   4.812  0.9250 -2.3379  0.0946
  117OSM   H18H12283   2.987   7.497   4.630  2.3591  0.8661  1.3119
  118OSM      N12284   3.270   6.449   6.705  0.0487 -0.4097  0.5359
  118OSM    C1512285   3.165   6.382   6.793 -0.0719 -0.3439 -0.6681
  118OSM   H15A12286   3.210   6.333   6.878  0.5737  1.1993 -0.0899
  118OSM   H15B12287   3.122   6.304   6.732 -0.7212 -0.3653 -0.1838
  118OSM   H15C12288   3.092   6.452   6.829 -0.2932 -0.2801 -1.2245
  118OSM    C1412289   3.209   6.531   6.596 -0.8523  0.3757 -0.1851
  118OSM   H14A12290   3.165   6.623   6.631  0.4986  0.9479  0.0694
  118OSM   H14B12291   3.137   6.472   6.541  0.6713 -0.4499 -1.3488
  118OSM   H14C12292   3.285   6.559   6.525  1.6220  0.1333  2.2074
  118OSM    C1312293   3.365   6.534   6.781  0.0619  0.2914 -0.1618
  118OSM   H13A12294   3.409   6.484   6.865  0.8941  0.1828 -0.6531
  118OSM   H13B12295   3.317   6.619   6.827 -0.3434 -0.2498  0.4285
  118OSM   H13C12296   3.448   6.566   6.721  0.3178  0.2786  0.1860
  118OSM    C1212297   3.356   6.342   6.628 -0.1117 -0.4243  0.0124
  118OSM   H12A12298   3.410   6.288   6.704 -0.8880  0.0195  0.8999
  118OSM   H12B12299   3.422   6.404   6.569 -0.0538 -0.4074  0.0933
  118OSM    C1112300   3.286   6.251   6.521  0.0141 -0.0416  0.7805
  118OSM   H11A12301   3.360   6.182   6.475  0.3895  0.1564  1.0837
  118OSM   H11B12302   3.251   6.313   6.436  0.0157 -1.9657 -0.6650
  118OSM      P12303   3.214   6.038   6.657  0.2372  0.2827 -0.1873
  118OSM    O1312304   3.319   6.070   6.750 -0.5634  0.2938  0.2304
  118OSM    O1412305   3.089   5.982   6.718  0.0570 -0.3128 -0.0978
  118OSM    O1112306   3.278   5.939   6.555  0.1033  0.3546  0.1719
  118OSM    O1212307   3.182   6.171   6.579 -0.2999 -0.0893  0.3234
  118OSM    C1S12308   3.183   5.900   6.448 -0.2337 -0.3569  0.1676
  118OSM    H1S12309   3.112   5.982   6.423  1.0025  0.2591 -1.4946
  118OSM    H1T12310   3.134   5.804   6.474 -1.1802 -1.1380 -3.8639
  118OSM     NF12311   3.151   5.835   6.224 -0.3767 -0.0814 -0.1783
  118OSM    HNF12312   3.156   5.739   6.197  1.7377 -0.0335 -0.0861
  118OSM    C2S12313   3.254   5.870   6.312  0.8139 -0.0978  0.2783
  118OSM    H2S12314   3.300   5.965   6.277 -0.7080  0.7924  0.5753
  118OSM    C3S12315   3.362   5.758   6.323  0.1432 -0.5547 -0.0017
  118OSM    H3S12316   3.309   5.665   6.352 -1.1455 -0.3069 -1.4052
  118OSM     O312317   3.455   5.765   6.426 -0.4670 -0.2273 -0.4711
  118OSM    HO312318   3.407   5.816   6.492  1.5303 -0.3390  1.1709
  118OSM    C4S12319   3.441   5.757   6.190  0.8268 -0.5472 -0.2985
  118OSM    H4S12320   3.475   5.857   6.158 -0.2568 -0.4519 -1.2117
  118OSM    C5S12321   3.474   5.647   6.139 -0.3652  0.2054  0.6198
  118OSM    H5S12322   3.451   5.545   6.175  1.4268  0.3252  2.2778
  118OSM    C6S12323   3.556   5.639   6.012  0.7135  0.2133 -0.1554
  118OSM    H6S12324   3.602   5.539   6.003 -0.0994 -0.5873  3.4177
  118OSM    H6T12325   3.645   5.705   6.021  1.5506 -0.3518 -3.0840
  118OSM    C7S12326   3.480   5.667   5.878 -0.8655  0.1617 -0.8567
  118OSM    H7S12327   3.556   5.685   5.798  0.9828 -1.7823  0.3458
  118OSM    H7T12328   3.409   5.752   5.890 -0.7548  0.0951  0.4161
  118OSM    C8S12329   3.405   5.537   5.840  0.2635 -0.0609  0.3763
  118OSM    H8S12330   3.343   5.504   5.926  0.9778 -0.4500  0.7511
  118OSM    H8T12331   3.479   5.457   5.817 -0.5132 -1.5713  2.7204
  118OSM    C9S12332   3.324   5.550   5.710 -0.5706  0.6980  0.2781
  118OSM    H9S12333   3.232   5.609   5.728 -0.2560  0.8802  1.3742
  118OSM    H9T12334   3.290   5.447   5.686 -0.3353  0.5924  0.3952
  118OSM   C10S12335   3.419   5.594   5.587 -0.2018  0.0265  0.6238
  118OSM   H10S12336   3.519   5.545   5.588 -0.1515  0.0499 -0.9871
  118OSM   H10T12337   3.440   5.703   5.597  0.1826  0.6941 -4.7182
  118OSM   C11S12338   3.350   5.597   5.452  0.5801 -0.4662 -0.5379
  118OSM   H11S12339   3.249   5.642   5.460  0.9544  0.2141  0.6624
  118OSM   H11T12340   3.327   5.492   5.426 -1.0894 -0.1460 -0.5177
  118OSM   C12S12341   3.429   5.660   5.345  0.6505  0.3380  0.8927
  118OSM   H12S12342   3.535   5.671   5.375  0.5853  0.9459  0.9025
  118OSM   H12T12343   3.391   5.764   5.344 -0.0289  0.1111 -1.1053
  118OSM   C13S12344   3.418   5.593   5.211 -0.3578  1.2531 -0.1039
  118OSM   H13S12345   3.313   5.558   5.196  0.9458 -2.7454 -1.1953
  118OSM   H13T12346   3.476   5.499   5.204 -1.5149  0.3811  1.3778
  118OSM   C14S12347   3.450   5.686   5.098  0.0609 -1.0481  0.1978
  118OSM   H14S12348   3.557   5.702   5.122  0.0978 -1.5014  0.3379
  118OSM   H14T12349   3.394   5.781   5.115 -1.7754 -2.0667  0.1291
  118OSM   C15S12350   3.435   5.629   4.960  0.1567  0.9937 -0.4375
  118OSM   H15S12351   3.329   5.626   4.927  0.7651 -0.2052 -2.3961
  118OSM   H15T12352   3.489   5.533   4.951  1.3863  1.6616 -0.3599
  118OSM   C16S12353   3.494   5.728   4.855 -0.1795  0.2559 -0.0060
  118OSM   H16S12354   3.491   5.681   4.755 -0.5789  1.8038 -0.7611
  118OSM   H16T12355   3.599   5.750   4.884  0.7724 -1.5123 -1.8873
  118OSM   C17S12356   3.424   5.855   4.832  0.4503  0.9523  0.4794
  118OSM   H17S12357   3.462   5.910   4.921  0.8788 -3.4259  3.3038
  118OSM   H17T12358   3.317   5.825   4.833  1.0721 -1.7848 -2.0980
  118OSM   C18S12359   3.464   5.920   4.695  0.5183  1.0895 -0.4127
  118OSM   H18S12360   3.442   5.859   4.606  3.1980 -1.6720  0.6115
  118OSM   H18T12361   3.574   5.938   4.703  0.7488 -0.4077  0.2036
  118OSM   H18U12362   3.412   6.016   4.677 -1.7988  0.2048  1.1176
  118OSM    C1F12363   3.072   5.924   6.166 -0.1012  0.3648 -0.1402
  118OSM     OF12364   3.083   6.047   6.177  0.2557 -0.3340 -0.1609
  118OSM    C2F12365   2.972   5.859   6.074  0.5249  0.9053 -0.8482
  118OSM    H2F12366   2.869   5.868   6.114 -0.1928 -0.3185 -2.3045
  118OSM    H2G12367   3.011   5.755   6.067 -0.9433  0.2281  0.3678
  118OSM    C3F12368   2.971   5.918   5.928 -0.0992 -0.1243  0.7110
  118OSM    H3F12369   2.916   6.014   5.932 -2.6216 -1.2088 -3.0765
  118OSM    H3G12370   2.903   5.862   5.861 -2.4329  3.9114 -0.5998
  118OSM    C4F12371   3.101   5.946   5.853  0.6370 -0.4843  0.7314
  118OSM    H4F12372   3.176   5.866   5.872 -1.0220 -1.8223  1.9876
  118OSM    H4G12373   3.139   6.045   5.885 -2.0002  0.5150  0.9823
  118OSM    C5F12374   3.075   5.949   5.700 -0.5717 -0.6193  0.0404
  118OSM    H5F12375   2.995   6.019   5.668 -0.7634 -0.0502  1.6806
  118OSM    H5G12376   3.043   5.848   5.667  1.2168 -0.6278 -1.8924
  118OSM    C6F12377   3.194   5.979   5.607 -0.1007  0.0909  0.1767
  118OSM    H6F12378   3.275   5.909   5.639  0.6586  0.1053 -1.6135
  118OSM    H6G12379   3.236   6.081   5.611  0.1390  0.0640 -1.1874
  118OSM    C7F12380   3.161   5.935   5.461  0.1499 -0.1188  0.3935
  118OSM    H7F12381   3.121   5.832   5.471  0.7873 -0.4327 -0.2075
  118OSM    H7G12382   3.259   5.930   5.408  1.3780  0.3760  2.4986
  118OSM    C8F12383   3.043   6.004   5.399 -0.4531  0.0337 -0.5766
  118OSM    H8F12384   2.951   6.009   5.460 -0.1029  1.4699 -0.1226
  118OSM    H8G12385   3.016   5.957   5.302  0.1554  1.1081 -1.2920
  118OSM    C9F12386   3.087   6.140   5.359 -0.7992 -0.3921  0.0391
  118OSM    H9F12387   3.147   6.199   5.430 -0.7201 -0.7629  0.2833
  118OSM   C10F12388   3.044   6.204   5.250 -0.4650  0.0546 -0.2772
  118OSM   H10F12389   3.090   6.302   5.232  2.7883 -1.0791  1.1276
  118OSM   C11F12390   2.940   6.156   5.149  0.0393 -0.3394 -0.4127
  118OSM   H11F12391   2.864   6.237   5.139 -0.7300 -0.6855  1.9314
  118OSM   H11G12392   2.888   6.066   5.188  2.0902 -1.5209 -0.2967
  118OSM   C12F12393   2.998   6.106   5.018 -0.1004  0.1107 -0.3471
  118OSM   H12F12394   2.923   6.079   4.941  0.7688  1.2014 -1.6311
  118OSM   H12G12395   3.065   6.018   5.027 -1.1351 -0.6754 -0.1353
  118OSM   C13F12396   3.069   6.223   4.935 -0.3566  0.4678 -0.2031
  118OSM   H13F12397   3.150   6.271   4.994  1.2356 -0.7018 -1.3155
  118OSM   H13G12398   2.993   6.299   4.909 -0.2718  1.2011  1.5584
  118OSM   C14F12399   3.139   6.171   4.802 -0.4877  0.1695  0.1479
  118OSM   H14F12400   3.241   6.139   4.830 -0.3050 -0.5302 -1.2347
  118OSM   H14G12401   3.144   6.264   4.741  1.6560  0.2900  0.4440
  118OSM   C15F12402   3.073   6.054   4.738 -0.3801 -0.3664  0.1879
  118OSM   H15F12403   2.965   6.079   4.748 -0.5437 -1.0972  0.2942
  118OSM   H15G12404   3.085   5.957   4.790  1.7494 -0.3074 -0.0930
  118OSM   C16F12405   3.112   6.040   4.585  0.7392 -0.5346 -0.6535
  118OSM   H16F12406   3.222   6.022   4.581  0.7825 -0.3775 -0.2428
  118OSM   H16G12407   3.086   6.140   4.544  2.0808 -0.6006 -1.7300
  118OSM   C17F12408   3.048   5.925   4.504  0.0909  0.3752  0.1209
  118OSM   H17F12409   3.042   5.952   4.396 -0.0503 -1.3943 -0.3345
  118OSM   H17G12410   2.941   5.916   4.532  0.3713 -1.9748  0.6362
  118OSM   C18F12411   3.127   5.796   4.533  0.0264 -0.3665  0.3219
  118OSM   H18F12412   3.072   5.705   4.500  0.1678 -0.6911  0.9720
  118OSM   H18G12413   3.130   5.784   4.643 -0.8551 -2.7851  0.1539
  118OSM   H18H12414   3.229   5.795   4.490  0.5032 -0.7885  1.4219
  119OSM      N12415   5.215   3.834   7.074  0.0210  0.1907  0.1878
  119OSM    C1512416   5.302   3.875   7.187  0.0614 -0.4538  0.0573
  119OSM   H15A12417   5.385   3.806   7.181 -0.7775 -1.3715 -3.4156
  119OSM   H15B12418   5.245   3.867   7.279 -1.6260  0.1838 -0.8880
  119OSM   H15C12419   5.329   3.978   7.169 -1.5704 -0.3401 -2.1553
  119OSM    C1412420   5.212   3.687   7.056  0.7318 -0.1297  0.2848
  119OSM   H14A12421   5.189   3.636   7.149  0.1799 -0.1859  0.1170
  119OSM   H14B12422   5.310   3.648   7.031  1.1998  1.3696 -0.3432
  119OSM   H14C12423   5.145   3.667   6.974  0.3666  2.7999 -0.2531
  119OSM    C1312424   5.073   3.882   7.113  0.6089  0.2982  0.1928
  119OSM   H13A12425   5.071   3.990   7.120 -2.5332  0.2716  1.2015
  119OSM   H13B12426   5.043   3.851   7.212  0.9776  0.2125  0.2792
  119OSM   H13C12427   5.006   3.834   7.044  2.6528  0.3742 -1.9883
  119OSM    C1212428   5.253   3.906   6.944  0.1851 -0.2480 -0.0211
  119OSM   H12A12429   5.174   3.876   6.877 -0.8469 -2.0198  1.8786
  119OSM   H12B12430   5.334   3.860   6.890 -0.8943 -0.3288 -1.6647
  119OSM    C1112431   5.272   4.058   6.945 -0.1566 -0.5082  0.5801
  119OSM   H11A12432   5.191   4.101   7.007 -2.4725 -0.8525 -2.0304
  119OSM   H11B12433   5.246   4.089   6.841  0.3547 -1.7141  0.0617
  119OSM      P12434   5.486   4.205   6.901  0.2321 -0.5096 -0.0763
  119OSM    O1312435   5.422   4.339   6.905  0.2013 -0.3356  0.1850
  119OSM    O1412436   5.621   4.199   6.955 -0.4064  0.1620 -0.1085
  119OSM    O1112437   5.493   4.144   6.745 -0.0230 -0.3824 -0.4735
  119OSM    O1212438   5.402   4.111   6.988 -0.0209  0.0171  0.5838
  119OSM    C1S12439   5.531   4.007   6.725  0.2423 -0.6039 -0.2867
  119OSM    H1S12440   5.455   3.943   6.774 -0.2501 -1.6190 -2.2836
  119OSM    H1T12441   5.624   3.984   6.782 -0.4243  2.4210  2.3106
  119OSM     NF12442   5.590   3.832   6.570  0.2890 -0.1621 -0.2298
  119OSM    HNF12443   5.688   3.814   6.577  1.0857  1.9280 -3.5257
  119OSM    C2S12444   5.558   3.975   6.575  0.0458 -0.2250 -0.6942
  119OSM    H2S12445   5.462   3.995   6.523  0.2352 -0.0452 -0.9803
  119OSM    C3S12446   5.664   4.069   6.530 -0.2820  0.7151  0.2759
  119OSM    H3S12447   5.754   4.071   6.596  0.9812  2.2485 -1.3876
  119OSM     O312448   5.611   4.200   6.513 -0.2065 -0.3053 -0.5270
  119OSM    HO312449   5.544   4.208   6.582  1.2537 -0.5313  1.0035
  119OSM    C4S12450   5.696   4.027   6.392 -0.0440  0.5758  0.3206
  119OSM    H4S12451   5.613   4.025   6.319 -0.3498  4.6817  0.3168
  119OSM    C5S12452   5.821   4.015   6.337 -0.8110 -0.1213  0.3868
  119OSM    H5S12453   5.902   4.038   6.408 -1.4257  1.4632  0.6154
  119OSM    C6S12454   5.861   3.991   6.198  0.0446 -0.3926  0.7301
  119OSM    H6S12455   5.940   3.914   6.211 -0.7288 -0.8848  2.8175
  119OSM    H6T12456   5.907   4.084   6.158 -2.6539  1.6797  2.1689
  119OSM    C7S12457   5.747   3.946   6.105  0.1648 -0.0200 -0.6840
  119OSM    H7S12458   5.666   4.023   6.109  0.2399 -0.0032  1.9657
  119OSM    H7T12459   5.708   3.849   6.142 -0.7008 -0.7529 -3.2519
  119OSM    C8S12460   5.789   3.912   5.958 -0.0453 -0.1876  0.2719
  119OSM    H8S12461   5.871   3.836   5.962  3.2315  3.0870  1.0693
  119OSM    H8T12462   5.818   4.009   5.913 -0.8049  0.0242  0.2263
  119OSM    C9S12463   5.671   3.849   5.889  0.1006  0.0038 -0.4336
  119OSM    H9S12464   5.581   3.913   5.905  0.0988  0.4951 -2.2310
  119OSM    H9T12465   5.655   3.751   5.941 -2.1569  1.4597  1.8860
  119OSM   C10S12466   5.687   3.825   5.737 -0.5000 -0.3409  0.3337
  119OSM   H10S12467   5.773   3.754   5.728  2.2017  2.7358 -0.2309
  119OSM   H10T12468   5.733   3.920   5.702  3.9225 -2.2558  0.2613
  119OSM   C11S12469   5.564   3.788   5.660  0.8209  0.0912  0.3565
  119OSM   H11S12470   5.488   3.869   5.665  0.0324 -0.7025  1.6015
  119OSM   H11T12471   5.524   3.695   5.705  0.0118  0.0375 -0.4236
  119OSM   C12S12472   5.601   3.751   5.514 -0.6240  0.2254 -0.1378
  119OSM   H12S12473   5.657   3.655   5.511 -1.3152 -0.3374  2.4140
  119OSM   H12T12474   5.670   3.819   5.460  0.3651 -0.6448 -0.0175
  119OSM   C13S12475   5.473   3.734   5.428 -0.1704  0.1377  0.4371
  119OSM   H13S12476   5.404   3.820   5.438 -1.7960 -0.7288 -2.3071
  119OSM   H13T12477   5.428   3.641   5.467  4.3575 -2.1158  0.9834
  119OSM   C14S12478   5.502   3.727   5.275  0.7007 -0.2622 -0.1167
  119OSM   H14S12479   5.516   3.622   5.242 -2.3508 -0.4458 -1.1872
  119OSM   H14T12480   5.593   3.790   5.258  1.3809 -0.9942  0.7536
  119OSM   C15S12481   5.390   3.783   5.196 -0.8673  1.0992 -0.8855
  119OSM   H15S12482   5.356   3.886   5.220 -1.8040  1.2694 -2.7626
  119OSM   H15T12483   5.301   3.718   5.212 -0.3147  1.0013  2.5312
  119OSM   C16S12484   5.412   3.791   5.046 -0.1155  0.1787  0.6567
  119OSM   H16S12485   5.446   3.693   5.007  4.2594  2.5697 -2.3834
  119OSM   H16T12486   5.501   3.856   5.034 -0.1520 -0.2487 -2.9517
  119OSM   C17S12487   5.289   3.845   4.967  0.1217  0.0935  0.5363
  119OSM   H17S12488   5.252   3.946   4.996 -0.4686 -0.0224  0.2022
  119OSM   H17T12489   5.197   3.786   4.988 -1.0247  1.1526 -1.2097
  119OSM   C18S12490   5.315   3.834   4.814 -0.2417 -0.1941 -0.2627
  119OSM   H18S12491   5.383   3.919   4.790  0.5664 -0.9375 -0.6904
  119OSM   H18T12492   5.226   3.865   4.756 -0.8268  3.7420  2.3621
  119OSM   H18U12493   5.351   3.732   4.788 -1.2801 -1.8012  3.8834
  119OSM    C1F12494   5.490   3.743   6.569  0.3721 -0.3798 -0.2480
  119OSM     OF12495   5.372   3.780   6.570  0.0548 -0.3667 -0.5837
  119OSM    C2F12496   5.534   3.598   6.567 -0.3693 -0.1830 -0.1242
  119OSM    H2F12497   5.467   3.536   6.632  1.6481 -1.9829  0.3588
  119OSM    H2G12498   5.634   3.581   6.613 -1.8473 -2.8084  2.4350
  119OSM    C3F12499   5.534   3.533   6.435  0.2910 -0.0362  0.4783
  119OSM    H3F12500   5.571   3.428   6.442  0.3114 -0.1205 -0.7200
  119OSM    H3G12501   5.604   3.591   6.371 -0.3115 -1.9693 -2.1266
  119OSM    C4F12502   5.391   3.521   6.370 -0.5353  0.0594 -0.1002
  119OSM    H4F12503   5.355   3.618   6.329 -0.7461 -0.5244 -1.3487
  119OSM    H4G12504   5.327   3.507   6.459  1.3621  0.3823  1.3905
  119OSM    C5F12505   5.374   3.403   6.279 -0.2635 -0.2461  0.2356
  119OSM    H5F12506   5.267   3.399   6.251 -0.4048 -1.1887  0.8770
  119OSM    H5G12507   5.404   3.310   6.332  0.7664  0.6246  1.2497
  119OSM    C6F12508   5.457   3.417   6.145 -0.0815  0.2558  0.3798
  119OSM    H6F12509   5.565   3.400   6.169  0.0579  0.2864 -0.1961
  119OSM    H6G12510   5.444   3.520   6.105 -1.5279 -0.2138 -0.4185
  119OSM    C7F12511   5.417   3.307   6.036  0.2127 -0.0756 -0.1700
  119OSM    H7F12512   5.312   3.338   6.017  0.5605  0.0738 -2.0413
  119OSM    H7G12513   5.422   3.207   6.086 -1.7321  0.2290  0.7223
  119OSM    C8F12514   5.505   3.309   5.911 -0.6548 -0.3072 -0.5970
  119OSM    H8F12515   5.604   3.281   5.953 -0.4474  1.6596  0.3286
  119OSM    H8G12516   5.533   3.409   5.870  0.7786 -0.1317  0.7089
  119OSM    C9F12517   5.456   3.214   5.802 -0.3690  0.3137 -0.3747
  119OSM    H9F12518   5.385   3.139   5.840 -1.1692  0.7577 -0.9644
  119OSM   C10F12519   5.462   3.231   5.666  0.7801 -0.0651  0.2820
  119OSM   H10F12520   5.416   3.161   5.595  1.0949 -0.6585  0.6546
  119OSM   C11F12521   5.539   3.337   5.589  0.0967  0.7120  0.6524
  119OSM   H11F12522   5.565   3.426   5.650 -0.2104  1.6469 -0.5488
  119OSM   H11G12523   5.473   3.377   5.510  0.4048 -0.2938 -0.1428
  119OSM   C12F12524   5.654   3.261   5.527 -0.0400 -0.5540 -0.1199
  119OSM   H12F12525   5.627   3.187   5.448  0.4973 -1.0251  0.1317
  119OSM   H12G12526   5.711   3.210   5.607  1.3039 -0.4508 -0.9788
  119OSM   C13F12527   5.757   3.369   5.486  0.4994 -0.1438 -0.1454
  119OSM   H13F12528   5.818   3.389   5.576  0.9211 -1.1031 -0.2141
  119OSM   H13G12529   5.713   3.464   5.449 -2.2144 -1.0592  0.4921
  119OSM   C14F12530   5.859   3.332   5.372 -0.2978 -0.5437  0.4649
  119OSM   H14F12531   5.916   3.246   5.414 -1.9312 -2.2217 -0.5940
  119OSM   H14G12532   5.922   3.422   5.355  0.2032 -1.5285 -4.3072
  119OSM   C15F12533   5.810   3.286   5.232  0.6749  0.3846  0.2046
  119OSM   H15F12534   5.740   3.361   5.189  2.7696  1.3551 -1.7222
  119OSM   H15G12535   5.749   3.194   5.246 -0.2869  0.8040 -1.0675
  119OSM   C16F12536   5.930   3.265   5.141  0.0618 -0.3122 -0.6925
  119OSM   H16F12537   5.983   3.172   5.169  1.8357  0.8143 -0.1347
  119OSM   H16G12538   5.996   3.354   5.155 -1.3366  0.7195 -0.4261
  119OSM   C17F12539   5.893   3.260   4.996 -0.2249 -0.0849  0.0277
  119OSM   H17F12540   5.822   3.344   4.977  0.2267  0.7137  1.6890
  119OSM   H17G12541   5.839   3.166   4.976 -0.7865  0.2160  0.0955
  119OSM   C18F12542   6.021   3.276   4.910  0.2533  1.2348  0.8836
  119OSM   H18F12543   6.084   3.195   4.953 -2.0544 -1.9586 -1.2256
  119OSM   H18G12544   6.062   3.379   4.916 -1.9181  2.2692 -0.5935
  119OSM   H18H12545   5.998   3.249   4.804 -0.1602  1.9428  0.7866
  120OSM      N12546   0.301   2.206   6.948  0.5683 -0.4083  0.2978
  120OSM    C1512547   0.202   2.310   6.977  0.0419 -0.4352 -0.1305
  120OSM   H15A12548   0.152   2.305   7.073  1.2296  1.6405  0.6561
  120OSM   H15B12549   0.125   2.309   6.902  0.7087  1.2740 -0.8862
  120OSM   H15C12550   0.234   2.411   6.958  1.1178 -1.1071 -2.2844
  120OSM    C1412551   0.411   2.231   7.045 -0.0048 -0.7522 -0.3768
  120OSM   H14A12552   0.474   2.318   7.030 -0.9026 -0.1860 -0.9224
  120OSM   H14B12553   0.479   2.147   7.038 -0.9591 -1.4340 -1.9766
  120OSM   H14C12554   0.383   2.228   7.149 -0.4118 -1.0911 -0.4949
  120OSM    C1312555   0.249   2.067   6.971 -0.2761 -0.1444 -0.2691
  120OSM   H13A12556   0.156   2.040   6.923  0.2685 -3.8607  0.5251
  120OSM   H13B12557   0.222   2.052   7.074 -0.5272  1.4081 -0.0828
  120OSM   H13C12558   0.319   1.992   6.938  0.7955  0.5663  0.3080
  120OSM    C1212559   0.358   2.227   6.812 -0.5248 -0.5424  0.5847
  120OSM   H12A12560   0.449   2.169   6.798  0.0422  0.1980  1.0974
  120OSM   H12B12561   0.384   2.331   6.802  3.1313 -1.1323  2.0352
  120OSM    C1112562   0.253   2.202   6.691 -0.6429 -0.0246 -0.0228
  120OSM   H11A12563   0.225   2.095   6.701  1.7373 -0.6876  0.0842
  120OSM   H11B12564   0.317   2.205   6.600  0.1427 -2.7399  0.3494
  120OSM      P12565   0.149   2.415   6.586  0.2397 -0.2728 -0.1149
  120OSM    O1312566   0.042   2.519   6.611  0.1647  0.1158 -0.4791
  120OSM    O1412567   0.290   2.461   6.575  0.7258  0.0488 -0.0860
  120OSM    O1112568   0.124   2.340   6.445  0.7040  0.2272  0.5703
  120OSM    O1212569   0.144   2.297   6.690  0.0001 -0.0125 -0.0499
  120OSM    C1S12570   0.101   2.430   6.331  0.2005  0.6537  0.9483
  120OSM    H1S12571   0.186   2.498   6.307 -0.1985  0.5329 -0.9786
  120OSM    H1T12572   0.014   2.497   6.345  1.4334  2.6038 -0.2823
  120OSM     NF12573   0.064   2.460   6.090  0.3366  0.2521  0.4647
  120OSM    HNF12574  -0.032   2.483   6.077  0.0525 -0.8462  0.5458
  120OSM    C2S12575   0.084   2.359   6.191  0.4747 -0.2086 -0.4109
  120OSM    H2S12576   0.181   2.307   6.175 -0.0491 -1.0109 -1.1091
  120OSM    C3S12577  -0.026   2.247   6.198 -0.2865 -0.3051 -0.0621
  120OSM    H3S12578  -0.125   2.294   6.220 -1.2420 -2.8406  1.4949
  120OSM     O312579  -0.005   2.153   6.302  0.1518 -0.2820 -0.6919
  120OSM    HO312580   0.070   2.191   6.347 -0.9429  1.9286 -0.6194
  120OSM    C4S12581  -0.034   2.179   6.068 -0.3183  0.2848  0.3418
  120OSM    H4S12582   0.058   2.125   6.041  0.2955  1.0535  0.8776
  120OSM    C5S12583  -0.145   2.168   5.993  0.0464 -0.2324  0.0835
  120OSM    H5S12584  -0.231   2.226   6.028  0.1246  0.4319 -0.8056
  120OSM    C6S12585  -0.158   2.086   5.869  0.4200 -0.8314  0.2627
  120OSM    H6S12586  -0.236   2.007   5.877 -1.1153  0.8245  3.8881
  120OSM    H6T12587  -0.062   2.039   5.838 -0.1386 -1.1371 -1.0990
  120OSM    C7S12588  -0.180   2.181   5.750  0.2839  0.6080 -0.2590
  120OSM    H7S12589  -0.091   2.243   5.730  0.8174  0.4640  1.4481
  120OSM    H7T12590  -0.266   2.249   5.766 -0.1864  0.2989 -1.3658
  120OSM    C8S12591  -0.199   2.102   5.622  0.4544  0.3128  0.4359
  120OSM    H8S12592  -0.298   2.052   5.628  1.7113 -2.6174 -1.0799
  120OSM    H8T12593  -0.120   2.024   5.621  2.1830  1.9130  2.6157
  120OSM    C9S12594  -0.187   2.181   5.497 -0.1138 -0.5681  0.9438
  120OSM    H9S12595  -0.084   2.220   5.489 -0.5481  0.7099  1.2898
  120OSM    H9T12596  -0.249   2.273   5.493  0.8249  0.0417 -0.0979
  120OSM   C10S12597  -0.207   2.109   5.361 -0.2075 -0.0608  0.2937
  120OSM   H10S12598  -0.317   2.096   5.357 -0.3164 -0.6570  2.9769
  120OSM   H10T12599  -0.153   2.012   5.359  2.6339  1.3961 -2.3733
  120OSM   C11S12600  -0.148   2.195   5.241  0.0181  0.2252 -0.1886
  120OSM   H11S12601  -0.040   2.191   5.267  0.4431 -0.1720 -1.8898
  120OSM   H11T12602  -0.185   2.300   5.246 -1.2619 -0.2541  1.9191
  120OSM   C12S12603  -0.179   2.124   5.109  0.0111 -0.2971  1.0834
  120OSM   H12S12604  -0.288   2.132   5.094  0.1253 -2.1304 -1.3122
  120OSM   H12T12605  -0.148   2.017   5.115 -0.3221 -0.4003  0.9929
  120OSM   C13S12606  -0.121   2.200   4.993  0.3119  0.0222  0.3618
  120OSM   H13S12607  -0.010   2.201   5.005  0.2984 -0.5331  0.5298
  120OSM   H13T12608  -0.159   2.305   4.989 -1.6635 -0.6626  0.0730
  120OSM   C14S12609  -0.145   2.125   4.855  0.2700 -0.2751 -0.8783
  120OSM   H14S12610  -0.253   2.101   4.849 -0.0455  0.0051  2.2587
  120OSM   H14T12611  -0.084   2.032   4.853  0.8189  0.0340  0.3687
  120OSM   C15S12612  -0.115   2.210   4.729 -0.0951 -0.8855 -0.5734
  120OSM   H15S12613  -0.010   2.246   4.731  0.0479 -1.3543  0.8396
  120OSM   H15T12614  -0.193   2.288   4.719  1.3997  0.5689 -1.5322
  120OSM   C16S12615  -0.148   2.141   4.597 -0.1858 -0.6190  0.3415
  120OSM   H16S12616  -0.218   2.060   4.626 -0.7286 -0.9580 -1.7447
  120OSM   H16T12617  -0.054   2.086   4.573 -0.4972 -1.3195  0.6936
  120OSM   C17S12618  -0.203   2.222   4.476 -0.7658 -0.2902 -0.2766
  120OSM   H17S12619  -0.180   2.155   4.391 -0.4145  0.1673 -0.5449
  120OSM   H17T12620  -0.142   2.315   4.477  0.1196 -0.8443  1.3616
  120OSM   C18S12621  -0.351   2.244   4.474 -0.9866 -0.1221  0.6134
  120OSM   H18S12622  -0.407   2.150   4.496 -0.1205 -0.3108  2.1688
  120OSM   H18T12623  -0.391   2.275   4.376  0.3833 -0.4233 -0.0641
  120OSM   H18U12624  -0.368   2.321   4.552 -0.3691  1.0148 -0.3546
  120OSM    C1F12625   0.159   2.544   6.053 -0.9765 -0.3709  0.7450
  120OSM     OF12626   0.281   2.511   6.053 -0.2151 -0.3820 -0.8746
  120OSM    C2F12627   0.114   2.683   6.002  0.4215  0.0736  0.5916
  120OSM    H2F12628   0.067   2.745   6.081 -2.8527  0.9356 -1.8101
  120OSM    H2G12629   0.029   2.655   5.936  0.3820  1.4748  0.0180
  120OSM    C3F12630   0.231   2.746   5.936  0.0774  0.3582 -0.0173
  120OSM    H3F12631   0.281   2.676   5.866 -1.0717  0.3170 -0.8084
  120OSM    H3G12632   0.308   2.764   6.015 -0.4940  2.2338  0.1507
  120OSM    C4F12633   0.191   2.878   5.867  0.7454 -0.1337  0.2814
  120OSM    H4F12634   0.284   2.933   5.843  2.4384 -1.1941  3.7020
  120OSM    H4G12635   0.139   2.938   5.944  0.2674 -1.4193  1.0033
  120OSM    C5F12636   0.091   2.857   5.756  0.4760 -0.1800  0.2038
  120OSM    H5F12637  -0.012   2.831   5.787  0.4818 -0.2643  0.1547
  120OSM    H5G12638   0.129   2.769   5.699  0.8829  0.5524 -0.6764
  120OSM    C6F12639   0.078   2.977   5.658 -0.4318 -0.0519 -0.0749
  120OSM    H6F12640   0.173   2.973   5.600 -1.1875 -0.3812 -1.3325
  120OSM    H6G12641   0.072   3.076   5.708  0.0642  1.2293 -2.3886
  120OSM    C7F12642  -0.040   2.958   5.571  0.1208 -0.5792 -0.2353
  120OSM    H7F12643  -0.122   2.973   5.645  1.0506  0.5682  0.5917
  120OSM    H7G12644  -0.041   2.854   5.534  2.2555 -0.4443 -0.7482
  120OSM    C8F12645  -0.056   3.064   5.460  0.6091  0.0337 -0.2510
  120OSM    H8F12646  -0.043   3.164   5.507 -1.1007 -0.9385  2.5199
  120OSM    H8G12647  -0.163   3.077   5.432  0.6905  1.2535 -0.0587
  120OSM    C9F12648   0.032   3.045   5.341 -0.2817 -0.7145  0.4126
  120OSM    H9F12649   0.134   3.013   5.365 -0.1677 -0.2395  0.5669
  120OSM   C10F12650   0.003   3.065   5.212  0.0461  0.1017  0.1693
  120OSM   H10F12651   0.074   3.036   5.134 -0.8714 -0.7829 -0.3578
  120OSM   C11F12652  -0.123   3.120   5.166  0.7944 -1.0503  0.6147
  120OSM   H11F12653  -0.172   3.197   5.231 -2.5185 -0.2313 -2.4936
  120OSM   H11G12654  -0.204   3.050   5.135 -0.5296  1.2127 -1.4728
  120OSM   C12F12655  -0.088   3.195   5.032  0.1908 -0.1954  0.0621
  120OSM   H12F12656  -0.183   3.237   4.994  0.5997  1.6716  1.0092
  120OSM   H12G12657  -0.038   3.130   4.957  1.0479  0.6951 -0.1651
  120OSM   C13F12658   0.002   3.318   5.038 -0.6650  0.2860  0.2005
  120OSM   H13F12659   0.101   3.285   5.078 -0.4742  1.2428  0.5609
  120OSM   H13G12660  -0.027   3.402   5.105  1.0686  0.7774  0.3894
  120OSM   C14F12661   0.039   3.385   4.897 -0.2445  0.4763 -0.2799
  120OSM   H14F12662   0.087   3.480   4.929 -1.3986  1.3035 -0.9439
  120OSM   H14G12663  -0.056   3.421   4.851 -1.8521 -0.7065  1.8984
  120OSM   C15F12664   0.141   3.307   4.803  0.4962  0.0078 -1.2386
  120OSM   H15F12665   0.095   3.214   4.762  1.2051 -0.1978 -1.5794
  120OSM   H15G12666   0.226   3.274   4.866  0.5891  0.6517 -1.0269
  120OSM   C16F12667   0.182   3.405   4.690 -0.6522 -0.1966 -0.6613
  120OSM   H16F12668   0.257   3.347   4.632 -0.8778 -2.4361  1.1268
  120OSM   H16G12669   0.232   3.499   4.719 -0.9308 -0.1800 -0.2278
  120OSM   C17F12670   0.081   3.441   4.589 -0.0036  0.4222  0.4118
  120OSM   H17F12671   0.023   3.528   4.628 -2.7275 -0.6048 -1.1188
  120OSM   H17G12672   0.020   3.349   4.580  1.6221 -0.6805  0.3794
  120OSM   C18F12673   0.140   3.489   4.458 -0.4429  0.8046  0.8434
  120OSM   H18F12674   0.238   3.540   4.470 -0.0883  1.0142 -2.0342
  120OSM   H18G12675   0.080   3.553   4.389  0.6707 -1.5668 -2.6411
  120OSM   H18H12676   0.173   3.401   4.398 -1.7284  0.0129  1.2648
  121OSM      N12677   1.316   5.028   6.699  0.1076 -0.7966 -0.4068
  121OSM    C1512678   1.197   4.967   6.758  0.2753  0.1329 -0.5932
  121OSM   H15A12679   1.137   4.902   6.697 -1.0232 -1.6172  2.2980
  121OSM   H15B12680   1.146   5.049   6.806  1.5063 -0.0932  1.2242
  121OSM   H15C12681   1.236   4.896   6.829 -1.6757 -0.2074  0.2131
  121OSM    C1412682   1.290   5.151   6.621  0.2626  0.2771 -0.2910
  121OSM   H14A12683   1.246   5.238   6.668  0.6012  0.4044 -0.1982
  121OSM   H14B12684   1.225   5.128   6.538  0.4611 -0.4342 -0.2516
  121OSM   H14C12685   1.381   5.186   6.573  0.7232  1.1520  1.1411
  121OSM    C1312686   1.411   5.053   6.805 -0.3699 -0.3228  0.1743
  121OSM   H13A12687   1.506   5.083   6.764 -0.8514  0.9742 -0.0450
  121OSM   H13B12688   1.423   4.966   6.868  0.3599  0.8169  1.6946
  121OSM   H13C12689   1.369   5.131   6.868 -1.5073 -0.7522 -0.0373
  121OSM    C1212690   1.382   4.919   6.611  0.5020  0.4237  0.1654
  121OSM   H12A12691   1.382   4.826   6.666  0.0859  1.5205  2.1111
  121OSM   H12B12692   1.482   4.951   6.587 -0.5584  3.0621 -1.1653
  121OSM    C1112693   1.299   4.877   6.477 -0.3748 -1.3273 -0.4070
  121OSM   H11A12694   1.369   4.813   6.418  0.3513 -0.9800  0.0603
  121OSM   H11B12695   1.291   4.972   6.421  4.0860  0.8364  2.0726
  121OSM      P12696   1.192   4.656   6.511  0.0845  0.2235 -0.0961
  121OSM    O1312697   1.309   4.614   6.592  0.0712  0.5654 -0.6994
  121OSM    O1412698   1.055   4.594   6.545  0.3573  0.1936  0.6831
  121OSM    O1112699   1.236   4.615   6.364  0.6266 -0.1036  0.1558
  121OSM    O1212700   1.180   4.812   6.511  0.3514 -0.1535 -0.1345
  121OSM    C1S12701   1.144   4.640   6.253 -0.3031 -0.1828 -0.3310
  121OSM    H1S12702   1.066   4.709   6.290  0.2783 -0.1490  0.8738
  121OSM    H1T12703   1.101   4.544   6.215 -0.1315 -0.6218  0.5622
  121OSM     NF12704   1.139   4.734   6.025 -1.3096 -0.1566 -0.2966
  121OSM    HNF12705   1.130   4.670   5.949  0.6273 -1.3484  0.4067
  121OSM    C2S12706   1.232   4.683   6.134  0.1238 -0.6366 -0.3407
  121OSM    H2S12707   1.288   4.773   6.166 -0.7295 -0.7145  1.5263
  121OSM    C3S12708   1.322   4.565   6.089  0.6137 -0.3008 -0.1968
  121OSM    H3S12709   1.271   4.482   6.037  0.2899  0.6727 -1.4752
  121OSM     O312710   1.381   4.495   6.197  0.3490 -0.4756  0.2908
  121OSM    HO312711   1.345   4.544   6.271  2.4192  0.1816  0.9302
  121OSM    C4S12712   1.415   4.602   5.980 -0.1667  0.0174  0.5770
  121OSM    H4S12713   1.378   4.555   5.888  1.4016 -0.0994 -0.0157
  121OSM    C5S12714   1.526   4.679   5.974 -0.2986 -0.2977 -1.2085
  121OSM    H5S12715   1.562   4.722   6.068 -1.1862  0.4796 -1.2047
  121OSM    C6S12716   1.614   4.717   5.859  0.2518  0.0247  0.0579
  121OSM    H6S12717   1.712   4.676   5.892 -0.3114  0.1550  1.9861
  121OSM    H6T12718   1.634   4.824   5.833 -0.5381 -0.5262 -3.3585
  121OSM    C7S12719   1.608   4.624   5.731 -0.0346  0.2763 -0.3337
  121OSM    H7S12720   1.504   4.606   5.696 -0.1391  1.6188 -0.8103
  121OSM    H7T12721   1.657   4.531   5.766 -0.7949  0.2189  0.6345
  121OSM    C8S12722   1.700   4.678   5.621 -0.1809 -0.1343  0.0954
  121OSM    H8S12723   1.806   4.687   5.654  0.3037  0.7630 -1.5942
  121OSM    H8T12724   1.680   4.782   5.588  0.6322  0.2904  0.8914
  121OSM    C9S12725   1.684   4.585   5.496 -0.1784  1.0697 -0.1564
  121OSM    H9S12726   1.574   4.578   5.483 -0.4603 -0.8011  2.3830
  121OSM    H9T12727   1.711   4.481   5.523 -1.3091  0.3976 -1.5382
  121OSM   C10S12728   1.778   4.619   5.379 -0.2605  0.0287  0.4275
  121OSM   H10S12729   1.880   4.578   5.390 -0.6225 -1.5363 -1.4361
  121OSM   H10T12730   1.784   4.728   5.360  1.4221 -0.6379 -3.9700
  121OSM   C11S12731   1.723   4.560   5.247  0.0775 -0.1537 -0.3523
  121OSM   H11S12732   1.623   4.606   5.226  0.1553  0.8154  1.2540
  121OSM   H11T12733   1.716   4.450   5.260  1.4348 -0.0184  2.1248
  121OSM   C12S12734   1.812   4.602   5.137  0.0182  0.0044  0.6970
  121OSM   H12S12735   1.915   4.561   5.146  0.3280  1.0081  1.9803
  121OSM   H12T12736   1.824   4.712   5.131  1.0690 -0.1785 -3.1340
  121OSM   C13S12737   1.758   4.552   4.998  0.3400 -0.1960  0.7228
  121OSM   H13S12738   1.831   4.580   4.918 -0.4395 -0.7951 -0.2184
  121OSM   H13T12739   1.664   4.610   4.987  0.2628 -0.6011 -1.1134
  121OSM   C14S12740   1.748   4.402   4.991  0.3987 -0.5338  0.0309
  121OSM   H14S12741   1.712   4.381   4.888  0.9064 -1.7713  0.0833
  121OSM   H14T12742   1.669   4.366   5.062  2.0696  0.3249  2.4409
  121OSM   C15S12743   1.871   4.310   5.008 -0.1722  0.7780 -0.3740
  121OSM   H15S12744   1.837   4.209   5.038 -1.1395  1.0384 -0.5711
  121OSM   H15T12745   1.925   4.334   5.103 -0.9241  0.4834  0.1352
  121OSM   C16S12746   1.976   4.310   4.895  0.9900  0.2422 -0.0180
  121OSM   H16S12747   2.077   4.317   4.941  0.6023 -2.2355  1.3652
  121OSM   H16T12748   1.956   4.405   4.840  2.0588 -1.2036 -3.0759
  121OSM   C17S12749   1.959   4.183   4.809 -0.0947 -0.4631  0.0460
  121OSM   H17S12750   1.861   4.196   4.758 -0.0981  0.1784  0.2094
  121OSM   H17T12751   1.963   4.094   4.876 -1.1712 -1.0756 -0.6732
  121OSM   C18S12752   2.059   4.181   4.693  0.3433  0.6857  0.0524
  121OSM   H18S12753   2.051   4.088   4.633 -0.9805  0.2916  0.8057
  121OSM   H18T12754   2.162   4.190   4.736  1.9532  1.9823 -3.6867
  121OSM   H18U12755   2.034   4.273   4.636 -3.4465  1.0904  2.0267
  121OSM    C1F12756   1.066   4.842   6.031  0.5622 -0.4024 -0.1629
  121OSM     OF12757   1.076   4.910   6.132  0.3119 -0.1256  0.0856
  121OSM    C2F12758   0.967   4.867   5.917  0.3786  0.2785  0.2217
  121OSM    H2F12759   0.866   4.834   5.949 -0.7895  3.5535  0.2556
  121OSM    H2G12760   0.986   4.801   5.830 -3.6780 -0.6840 -0.1608
  121OSM    C3F12761   0.978   5.017   5.868 -0.3057 -0.0413 -0.4487
  121OSM    H3F12762   1.079   5.033   5.824 -0.9031  3.6026 -0.7725
  121OSM    H3G12763   0.957   5.096   5.943 -0.4813 -0.2372 -0.2917
  121OSM    C4F12764   0.884   5.041   5.748  0.8582 -0.7703  0.3413
  121OSM    H4F12765   0.893   5.145   5.710  1.5092 -0.9243  0.0458
  121OSM    H4G12766   0.778   5.023   5.774  1.0597 -1.4294  0.7224
  121OSM    C5F12767   0.932   4.962   5.622 -0.0279 -0.2037 -0.3746
  121OSM    H5F12768   0.870   4.870   5.611  2.4547 -2.7402  3.8882
  121OSM    H5G12769   1.036   4.926   5.639 -0.1839 -0.5591 -0.1571
  121OSM    C6F12770   0.929   5.049   5.496  1.1945 -0.3216 -0.7243
  121OSM    H6F12771   0.948   4.981   5.410  0.1283 -0.0058 -1.2178
  121OSM    H6G12772   1.000   5.132   5.517 -1.7562  1.9034  1.2486
  121OSM    C7F12773   0.795   5.122   5.473 -0.0268  0.5748  0.0323
  121OSM    H7F12774   0.763   5.195   5.550 -1.3561 -0.2740  0.3231
  121OSM    H7G12775   0.718   5.046   5.449 -1.0420  1.9168 -1.1444
  121OSM    C8F12776   0.812   5.206   5.344  0.0781 -0.4654 -0.2339
  121OSM    H8F12777   0.866   5.140   5.273 -0.0878 -1.7382  0.7814
  121OSM    H8G12778   0.883   5.285   5.377 -1.0312  1.0201 -1.2816
  121OSM    C9F12779   0.685   5.240   5.276  0.0461 -0.0107  0.6415
  121OSM    H9F12780   0.626   5.157   5.236 -3.0834  2.0605  0.6077
  121OSM   C10F12781   0.641   5.363   5.250 -0.1470 -0.9436  0.1298
  121OSM   H10F12782   0.540   5.391   5.217 -0.3779  2.3801  3.0423
  121OSM   C11F12783   0.714   5.494   5.281 -0.5833  0.3491 -0.1091
  121OSM   H11F12784   0.774   5.532   5.196 -3.1417  2.6235 -1.0305
  121OSM   H11G12785   0.786   5.491   5.366 -0.4315 -0.8410 -0.2552
  121OSM   C12F12786   0.601   5.601   5.310 -0.5404  0.0722 -0.3620
  121OSM   H12F12787   0.561   5.594   5.414  0.4164  1.1459  0.1152
  121OSM   H12G12788   0.526   5.606   5.229 -0.5302  1.5148 -0.3063
  121OSM   C13F12789   0.647   5.754   5.313  0.4334  0.3106 -0.0286
  121OSM   H13F12790   0.725   5.772   5.389  0.6238 -0.1779 -0.1044
  121OSM   H13G12791   0.560   5.813   5.349  2.6458  2.6763  1.7575
  121OSM   C14F12792   0.692   5.801   5.175 -0.5160  0.6027 -0.1489
  121OSM   H14F12793   0.625   5.749   5.102 -0.4924 -1.1263  1.0089
  121OSM   H14G12794   0.798   5.777   5.151  0.3951  3.1749  0.9824
  121OSM   C15F12795   0.672   5.944   5.154 -0.5379 -0.3413 -0.5468
  121OSM   H15F12796   0.720   6.010   5.228  0.5046 -0.6273 -0.9517
  121OSM   H15G12797   0.563   5.956   5.171  0.0008  3.4983  1.2316
  121OSM   C16F12798   0.691   6.002   5.013  0.0535  0.5609 -0.4540
  121OSM   H16F12799   0.616   5.966   4.939  0.1024  1.7248 -1.0962
  121OSM   H16G12800   0.789   5.984   4.963  0.4200  0.7500  0.1901
  121OSM   C17F12801   0.679   6.151   5.007  0.6187 -0.9204  0.1020
  121OSM   H17F12802   0.750   6.201   5.076  0.8586  3.3036 -2.8769
  121OSM   H17G12803   0.575   6.174   5.039  0.9773  0.8146  0.1247
  121OSM   C18F12804   0.700   6.218   4.871 -0.0765  0.5620  0.0011
  121OSM   H18F12805   0.790   6.174   4.821  0.1101  1.0861 -0.1340
  121OSM   H18G12806   0.703   6.328   4.884 -2.5551  0.5782  0.8764
  121OSM   H18H12807   0.615   6.199   4.802  0.2567  0.7251 -0.4619
  122OSM      N12808   1.285   0.531   7.318 -0.3067  0.9658 -0.3505
  122OSM    C1512809   1.264   0.585   7.457  0.1466  0.5286 -0.3066
  122OSM   H15A12810   1.184   0.658   7.456 -0.7477 -0.4365 -0.8962
  122OSM   H15B12811   1.346   0.645   7.493 -0.5207  0.4673  1.4003
  122OSM   H15C12812   1.249   0.508   7.531 -1.9209  2.3446  1.2929
  122OSM    C1412813   1.331   0.641   7.227  0.1499  0.0058  0.2398
  122OSM   H14A12814   1.424   0.686   7.256  0.2505 -0.0461  0.0045
  122OSM   H14B12815   1.254   0.717   7.218 -1.5176 -1.5125  1.0451
  122OSM   H14C12816   1.353   0.593   7.133  1.2699 -2.8548  1.8763
  122OSM    C1312817   1.398   0.431   7.327  0.1917 -0.1279  0.0237
  122OSM   H13A12818   1.370   0.345   7.386 -2.1848 -0.1416 -0.9935
  122OSM   H13B12819   1.485   0.478   7.368 -0.4273  0.6151  0.4968
  122OSM   H13C12820   1.436   0.398   7.231  1.4065 -0.7777  0.7111
  122OSM    C1212821   1.160   0.466   7.259  0.0239 -0.5144 -0.4187
  122OSM   H12A12822   1.083   0.542   7.257  1.2074  0.7575  0.5524
  122OSM   H12B12823   1.135   0.389   7.330 -1.8638  0.9528  0.6035
  122OSM    C1112824   1.173   0.413   7.118  0.1095 -0.6402  0.5843
  122OSM   H11A12825   1.080   0.352   7.117  0.2824 -0.9274  1.6102
  122OSM   H11B12826   1.261   0.345   7.114 -0.8601 -1.9299  0.2313
  122OSM      P12827   1.013   0.580   6.998  0.2057 -0.3049  0.5611
  122OSM    O1312828   0.928   0.473   6.949  1.2061  0.1998  0.3857
  122OSM    O1412829   0.976   0.658   7.118 -0.1278 -0.1061  0.0009
  122OSM    O1112830   1.045   0.676   6.880 -0.0039 -0.4939 -0.1686
  122OSM    O1212831   1.160   0.518   7.016  0.9229  0.1793  0.5564
  122OSM    C1S12832   1.058   0.621   6.750 -0.1727 -0.1707  0.7180
  122OSM    H1S12833   0.967   0.560   6.734 -2.6169  3.1219  0.9961
  122OSM    H1T12834   1.151   0.559   6.745  0.8570  1.2840  1.0378
  122OSM     NF12835   1.050   0.664   6.511  0.3452 -0.4556 -0.0611
  122OSM    HNF12836   1.127   0.659   6.449  0.3809  1.5000 -0.2473
  122OSM    C2S12837   1.082   0.728   6.638 -0.3135 -1.1217  0.5800
  122OSM    H2S12838   1.014   0.813   6.657 -1.3206 -2.1759  1.9377
  122OSM    C3S12839   1.234   0.783   6.642 -0.1149 -0.0403 -0.8323
  122OSM    H3S12840   1.278   0.684   6.617 -1.4233 -1.0098  0.5247
  122OSM     O312841   1.286   0.816   6.774  0.1851  0.2629  0.3931
  122OSM    HO312842   1.201   0.812   6.819 -1.0136 -0.5067 -1.7835
  122OSM    C4S12843   1.265   0.884   6.543  0.7627  0.7309  0.1701
  122OSM    H4S12844   1.311   0.850   6.449  0.1412  0.5429 -0.0738
  122OSM    C5S12845   1.240   1.018   6.543 -0.4493  0.1614  0.3235
  122OSM    H5S12846   1.182   1.054   6.629 -0.2907 -1.1489  1.0004
  122OSM    C6S12847   1.261   1.119   6.429 -0.2323  0.5251 -0.2067
  122OSM    H6S12848   1.339   1.190   6.461  1.5446 -0.6184 -1.7841
  122OSM    H6T12849   1.164   1.172   6.412  1.3195  3.8905  0.5358
  122OSM    C7S12850   1.287   1.056   6.291 -0.5774 -0.2447 -0.1523
  122OSM    H7S12851   1.204   0.991   6.259  1.0484 -1.6697 -1.6300
  122OSM    H7T12852   1.383   1.001   6.303 -0.0944  0.7975  1.0609
  122OSM    C8S12853   1.299   1.163   6.186  0.2075 -0.4251  0.3172
  122OSM    H8S12854   1.367   1.239   6.230 -0.1351 -0.6875  1.3318
  122OSM    H8T12855   1.199   1.207   6.169  0.5837  1.1102  1.8554
  122OSM    C9S12856   1.355   1.104   6.060 -0.1631 -0.1804 -0.4343
  122OSM    H9S12857   1.308   1.005   6.039  2.7093 -1.7514 -0.0318
  122OSM    H9T12858   1.463   1.081   6.056 -0.1343  0.0874 -1.4665
  122OSM   C10S12859   1.327   1.204   5.947 -0.3626 -0.3653 -0.0570
  122OSM   H10S12860   1.348   1.312   5.961  3.9786 -0.9563 -0.7421
  122OSM   H10T12861   1.219   1.207   5.920 -0.3416  1.2132 -0.0492
  122OSM   C11S12862   1.416   1.165   5.825  0.8349 -0.2919 -0.2181
  122OSM   H11S12863   1.397   1.057   5.804 -1.4958 -0.6779  3.0616
  122OSM   H11T12864   1.525   1.173   5.849  0.7552 -0.7383  0.3246
  122OSM   C12S12865   1.388   1.244   5.692 -0.2756  0.8568 -0.0626
  122OSM   H12S12866   1.405   1.352   5.712 -1.2696  1.0626 -0.2837
  122OSM   H12T12867   1.280   1.228   5.672 -0.4288  1.3260  0.3593
  122OSM   C13S12868   1.479   1.195   5.577  0.8126 -0.3376 -0.2942
  122OSM   H13S12869   1.436   1.094   5.558 -1.2345 -0.1089  2.4381
  122OSM   H13T12870   1.584   1.188   5.612  0.2329 -1.8612  1.2582
  122OSM   C14S12871   1.461   1.291   5.459 -0.3287  1.0263  0.2330
  122OSM   H14S12872   1.513   1.388   5.478  1.0151  0.4509 -0.3656
  122OSM   H14T12873   1.354   1.310   5.436 -0.4924 -1.1377 -1.1123
  122OSM   C15S12874   1.532   1.241   5.323 -0.8886  0.4952 -0.4776
  122OSM   H15S12875   1.639   1.227   5.352 -1.4205  0.3116  1.5358
  122OSM   H15T12876   1.532   1.319   5.243  3.6301  0.6844 -0.5714
  122OSM   C16S12877   1.471   1.111   5.276  0.0013  0.0182 -0.3747
  122OSM   H16S12878   1.367   1.118   5.236  0.0565 -2.4150 -1.0641
  122OSM   H16T12879   1.457   1.041   5.361 -0.7646  0.8006  0.1629
  122OSM   C17S12880   1.557   1.033   5.173  0.2834  0.6675  0.1615
  122OSM   H17S12881   1.648   0.998   5.225 -1.5469 -1.1788  2.3124
  122OSM   H17T12882   1.599   1.105   5.099  0.5618  0.9832  0.6259
  122OSM   C18S12883   1.479   0.916   5.115  0.1542  0.3812  0.1070
  122OSM   H18S12884   1.453   0.851   5.201  0.7859 -1.3743 -0.9711
  122OSM   H18T12885   1.536   0.862   5.035  0.5154  0.6837  0.1588
  122OSM   H18U12886   1.385   0.965   5.082 -0.5477  0.5169  2.1929
  122OSM    C1F12887   0.927   0.638   6.470 -0.1913 -0.2171 -0.5940
  122OSM     OF12888   0.835   0.669   6.549 -0.0477  0.5613  0.3920
  122OSM    C2F12889   0.912   0.580   6.337 -0.2251 -0.3375 -0.1692
  122OSM    H2F12890   0.855   0.487   6.358 -1.0789  0.3732  0.7937
  122OSM    H2G12891   1.017   0.567   6.306  0.6097  1.9474  1.4604
  122OSM    C3F12892   0.827   0.667   6.241  0.7321  0.5078  0.0360
  122OSM    H3F12893   0.893   0.745   6.197  1.1909 -0.0036 -0.2014
  122OSM    H3G12894   0.734   0.702   6.290  0.5469  0.5611 -0.3435
  122OSM    C4F12895   0.790   0.584   6.115 -1.1917  0.8112 -0.5435
  122OSM    H4F12896   0.703   0.628   6.061 -2.1599  0.9725  1.0597
  122OSM    H4G12897   0.761   0.482   6.148 -0.2770  0.5092 -0.6511
  122OSM    C5F12898   0.905   0.570   6.021  0.8161 -0.3760 -0.0351
  122OSM    H5F12899   0.985   0.499   6.054  1.0298 -0.5795 -0.9708
  122OSM    H5G12900   0.949   0.667   5.992  2.1533 -0.8168  0.4188
  122OSM    C6F12901   0.863   0.499   5.883  0.2119 -0.0560 -0.6941
  122OSM    H6F12902   0.768   0.547   5.850  1.2750  2.4403 -0.3321
  122OSM    H6G12903   0.844   0.392   5.906  2.3462 -0.7470 -1.8173
  122OSM    C7F12904   0.968   0.498   5.781 -0.7135  0.1153 -0.2520
  122OSM    H7F12905   1.068   0.463   5.814 -0.6142  0.7487  0.1371
  122OSM    H7G12906   0.986   0.601   5.743 -0.5650  0.6054  1.0978
  122OSM    C8F12907   0.934   0.419   5.651 -0.4500 -0.9397  0.1363
  122OSM    H8F12908   0.853   0.482   5.607 -1.1234 -1.3737  0.7410
  122OSM    H8G12909   0.894   0.324   5.692 -2.1176 -0.4354 -0.2056
  122OSM    C9F12910   1.051   0.395   5.554  0.6904 -0.2652  0.4222
  122OSM    H9F12911   1.146   0.365   5.600  0.7043 -2.9828 -1.1811
  122OSM   C10F12912   1.045   0.411   5.421  0.1734  0.1643  0.5578
  122OSM   H10F12913   1.127   0.388   5.350 -0.8072 -0.0237 -0.5510
  122OSM   C11F12914   0.921   0.450   5.333  0.9222 -0.9339  0.5071
  122OSM   H11F12915   0.885   0.539   5.389  2.3370 -1.1798  1.8958
  122OSM   H11G12916   0.833   0.386   5.356 -1.5746  1.8574 -0.7058
  122OSM   C12F12917   0.937   0.492   5.181  0.0744 -0.0635 -0.2128
  122OSM   H12F12918   1.016   0.570   5.178 -0.2785  0.3674  1.0695
  122OSM   H12G12919   0.847   0.539   5.135  0.2678 -3.2082 -4.3730
  122OSM   C13F12920   0.981   0.370   5.101 -0.4780 -0.2861  0.3329
  122OSM   H13F12921   0.896   0.301   5.115 -0.2903 -0.4578  0.6261
  122OSM   H13G12922   1.061   0.316   5.156 -3.6568 -1.8396  3.8438
  122OSM   C14F12923   1.009   0.395   4.949 -0.1173 -0.7443 -0.6091
  122OSM   H14F12924   0.921   0.452   4.912 -0.7737 -1.3039  0.0541
  122OSM   H14G12925   1.013   0.297   4.899 -2.5126 -0.4698 -1.4730
  122OSM   C15F12926   1.139   0.482   4.915  0.1899  0.5895  0.1367
  122OSM   H15F12927   1.226   0.414   4.927 -0.0726 -0.3335 -2.5412
  122OSM   H15G12928   1.146   0.565   4.988 -1.4170  2.0286 -1.2864
  122OSM   C16F12929   1.144   0.534   4.772 -0.0718 -0.0466 -0.5179
  122OSM   H16F12930   1.049   0.590   4.763 -1.6233 -2.3548  0.5389
  122OSM   H16G12931   1.148   0.450   4.700 -1.7182 -0.9633  0.4034
  122OSM   C17F12932   1.266   0.625   4.750 -0.3437  0.2132 -0.3454
  122OSM   H17F12933   1.257   0.716   4.813 -1.5698  0.6237 -1.0718
  122OSM   H17G12934   1.243   0.669   4.651 -0.7985 -1.3393 -0.9628
  122OSM   C18F12935   1.402   0.554   4.739 -0.1537 -0.2936  0.1190
  122OSM   H18F12936   1.396   0.470   4.667 -0.1819  0.7517 -1.1308
  122OSM   H18G12937   1.433   0.522   4.841  2.4401  0.6171 -0.3004
  122OSM   H18H12938   1.479   0.629   4.711 -0.4576 -0.5716 -1.5508
  123OSM      N12939   3.437   6.463   2.139  1.2961  0.2204  0.4353
  123OSM    C1512940   3.581   6.490   2.125 -0.3991  0.6316 -0.0380
  123OSM   H15A12941   3.604   6.559   2.046  1.4554 -0.6585 -0.6965
  123OSM   H15B12942   3.630   6.395   2.112  0.9813  1.3283 -0.0658
  123OSM   H15C12943   3.616   6.533   2.218 -1.3930  3.7609 -0.9925
  123OSM    C1412944   3.376   6.584   2.197 -0.3117 -0.5461 -0.1818
  123OSM   H14A12945   3.271   6.573   2.221 -0.4387  0.7728 -0.0390
  123OSM   H14B12946   3.383   6.668   2.130 -0.1976 -1.0151 -0.7606
  123OSM   H14C12947   3.429   6.615   2.287 -0.2842  2.0458 -1.0028
  123OSM    C1312948   3.380   6.433   2.004  0.0845  0.0617 -0.0710
  123OSM   H13A12949   3.402   6.514   1.937 -0.7259  1.5849  1.4308
  123OSM   H13B12950   3.272   6.432   2.010  0.1181  0.8516  0.8102
  123OSM   H13C12951   3.419   6.341   1.962 -2.0701 -0.4264 -1.1464
  123OSM    C1212952   3.425   6.346   2.228 -0.6235 -0.2618  0.5658
  123OSM   H12A12953   3.323   6.344   2.265 -0.1781 -2.2284  1.8107
  123OSM   H12B12954   3.483   6.348   2.319 -2.6282 -0.6245  1.9230
  123OSM    C1112955   3.433   6.205   2.160 -0.4161 -0.4804 -0.3046
  123OSM   H11A12956   3.347   6.205   2.090 -0.9159 -0.3765  0.3019
  123OSM   H11B12957   3.421   6.122   2.232  2.2796 -0.6052  0.1307
  123OSM      P12958   3.687   6.122   2.120  0.0299  0.0507 -0.1904
  123OSM    O1312959   3.683   5.995   2.041 -0.1611 -0.2571 -0.2386
  123OSM    O1412960   3.796   6.214   2.083  0.1589  0.6579  0.0720
  123OSM    O1112961   3.676   6.099   2.279  0.2452  0.0838 -0.4282
  123OSM    O1212962   3.549   6.198   2.086  0.3461 -0.3659 -0.0014
  123OSM    C1S12963   3.718   6.199   2.372 -0.1605  0.4505 -0.4492
  123OSM    H1S12964   3.667   6.293   2.341  0.5958  1.0240  0.0207
  123OSM    H1T12965   3.826   6.213   2.351 -0.1582  0.8528 -0.1923
  123OSM     NF12966   3.717   6.260   2.618 -0.1362  0.4434 -0.5611
  123OSM    HNF12967   3.810   6.264   2.655 -0.6800  0.7326  0.8200
  123OSM    C2S12968   3.701   6.156   2.519 -0.0567  0.0154 -0.0262
  123OSM    H2S12969   3.592   6.137   2.531 -0.5259  2.9784  1.2669
  123OSM    C3S12970   3.782   6.028   2.545 -0.5169 -0.4514 -0.2281
  123OSM    H3S12971   3.890   6.039   2.523 -0.5795 -1.3380 -1.0918
  123OSM     O312972   3.725   5.914   2.476  0.3134 -0.0730 -0.3734
  123OSM    HO312973   3.652   5.955   2.429 -0.5254  1.0539  1.7482
  123OSM    C4S12974   3.764   5.993   2.689 -0.0680  0.5154 -0.4772
  123OSM    H4S12975   3.667   5.942   2.697  0.8305 -1.4327 -1.2679
  123OSM    C5S12976   3.837   6.007   2.797 -0.3633 -0.2248 -0.6647
  123OSM    H5S12977   3.939   6.048   2.790  0.6125 -2.7156 -2.0600
  123OSM    C6S12978   3.798   5.965   2.937 -0.1539  0.8030 -0.3086
  123OSM    H6S12979   3.882   5.917   2.992  0.5567  0.4911 -1.6365
  123OSM    H6T12980   3.721   5.885   2.940  1.8514 -1.2351 -0.3119
  123OSM    C7S12981   3.753   6.088   3.022 -0.4740 -0.0675  1.0281
  123OSM    H7S12982   3.682   6.147   2.960 -0.8656  0.8837  2.3430
  123OSM    H7T12983   3.841   6.156   3.030 -1.2969  1.0638  0.7333
  123OSM    C8S12984   3.702   6.057   3.159 -0.3699  0.0241  0.0847
  123OSM    H8S12985   3.615   5.988   3.164 -0.1425 -0.1929  2.2512
  123OSM    H8T12986   3.684   6.156   3.205  1.2059 -0.3562  1.6213
  123OSM    C9S12987   3.799   6.003   3.263  0.0604  0.2484  0.1481
  123OSM    H9S12988   3.899   6.052   3.263  0.2771 -0.1365 -1.4261
  123OSM    H9T12989   3.817   5.894   3.261 -0.5421  0.1447  0.0663
  123OSM   C10S12990   3.744   6.044   3.406 -0.8406 -0.8712  0.3265
  123OSM   H10S12991   3.640   6.005   3.416 -1.5037  0.6916 -0.3300
  123OSM   H10T12992   3.734   6.153   3.425 -0.6037 -0.6500 -0.7488
  123OSM   C11S12993   3.814   5.978   3.526 -0.5603 -0.0778 -0.7810
  123OSM   H11S12994   3.915   6.023   3.529 -0.9865  1.0316  3.1614
  123OSM   H11T12995   3.811   5.868   3.514 -0.5842 -0.0738 -0.8126
  123OSM   C12S12996   3.741   6.011   3.662 -0.9506  0.1508  0.5514
  123OSM   H12S12997   3.641   5.964   3.652 -1.4696  1.6342 -1.9999
  123OSM   H12T12998   3.719   6.118   3.681 -0.0485 -0.0097  2.8135
  123OSM   C13S12999   3.824   5.958   3.776 -0.5573  1.0478 -0.1441
  123OSM   H13S13000   3.910   6.029   3.785 -0.0026  0.7017 -2.1999
  123OSM   H13T13001   3.858   5.854   3.759  1.4303  1.3901  1.3668
  123OSM   C14S13002   3.748   5.958   3.910  1.0101 -0.0438 -0.3871
  123OSM   H14S13003   3.674   5.876   3.901  0.3745  0.4376  0.3455
  123OSM   H14T13004   3.690   6.052   3.899 -0.4996 -1.1714 -2.9412
  123OSM   C15S13005   3.838   5.943   4.031 -0.4283 -0.0248  0.2242
  123OSM   H15S13006   3.931   6.003   4.020 -0.8565  0.4252 -1.2141
  123OSM   H15T13007   3.871   5.837   4.042 -2.7286 -0.7457  0.6624
  123OSM   C16S13008   3.775   5.981   4.163 -0.3890  0.0770  0.8641
  123OSM   H16S13009   3.685   5.919   4.183 -0.5303 -0.0889 -0.2168
  123OSM   H16T13010   3.737   6.085   4.153 -1.8680 -0.5736 -0.8198
  123OSM   C17S13011   3.870   5.977   4.288  0.1323  0.4794  0.0495
  123OSM   H17S13012   3.949   6.052   4.270  1.0191 -0.1005  1.3926
  123OSM   H17T13013   3.925   5.884   4.313 -2.2798 -0.4385  2.5010
  123OSM   C18S13014   3.789   6.008   4.409 -0.3368 -0.1362 -0.7126
  123OSM   H18S13015   3.750   6.112   4.405  2.7568  1.0702 -2.0378
  123OSM   H18T13016   3.850   5.991   4.501 -2.4730  1.2823  1.0577
  123OSM   H18U13017   3.707   5.933   4.423 -2.0154  1.5320 -1.2512
  123OSM    C1F13018   3.636   6.365   2.637  0.6107 -0.3323  1.4751
  123OSM     OF13019   3.529   6.374   2.578  0.5374  0.0452 -0.0029
  123OSM    C2F13020   3.693   6.472   2.722  0.7885  0.7023  0.7364
  123OSM    H2F13021   3.758   6.526   2.650  1.5720 -0.3307  0.6442
  123OSM    H2G13022   3.754   6.417   2.797  0.4086  0.4376  0.8573
  123OSM    C3F13023   3.588   6.556   2.793  1.0140  0.0674 -0.5476
  123OSM    H3F13024   3.526   6.601   2.712  1.8416  1.2879 -0.5261
  123OSM    H3G13025   3.644   6.640   2.839  0.4899  0.8617 -1.3394
  123OSM    C4F13026   3.513   6.485   2.903 -0.0169 -0.0673  0.3713
  123OSM    H4F13027   3.590   6.436   2.965  0.7824 -0.1377 -0.6584
  123OSM    H4G13028   3.441   6.412   2.861 -0.3273 -0.2783  1.2412
  123OSM    C5F13029   3.427   6.581   2.995  0.1878 -0.3046  0.3283
  123OSM    H5F13030   3.359   6.629   2.921  0.3990 -2.1548 -1.1323
  123OSM    H5G13031   3.487   6.663   3.040  0.8854 -0.2535 -0.6483
  123OSM    C6F13032   3.350   6.498   3.101  0.2693 -0.5373  1.3795
  123OSM    H6F13033   3.318   6.558   3.189 -0.9804  1.4616 -0.3363
  123OSM    H6G13034   3.432   6.438   3.147  0.0725  0.2124  2.7555
  123OSM    C7F13035   3.233   6.431   3.040 -0.0991 -0.2687 -0.6904
  123OSM    H7F13036   3.250   6.387   2.940 -0.1221 -2.7324  0.3187
  123OSM    H7G13037   3.152   6.505   3.023 -0.0515 -0.2494 -0.8302
  123OSM    C8F13038   3.155   6.326   3.117 -0.2969 -0.0460  0.2874
  123OSM    H8F13039   3.059   6.297   3.068 -0.7161 -1.6274  1.9159
  123OSM    H8G13040   3.119   6.380   3.208 -1.1330 -0.4405  0.1972
  123OSM    C9F13041   3.257   6.213   3.157  0.2514 -0.7575  0.2297
  123OSM    H9F13042   3.308   6.154   3.080  0.4810 -0.1852 -0.0559
  123OSM   C10F13043   3.286   6.171   3.285 -0.6003 -0.9656  0.3248
  123OSM   H10F13044   3.347   6.080   3.280  0.7226 -0.0956 -0.0851
  123OSM   C11F13045   3.236   6.214   3.423 -0.4101  0.2407 -0.1177
  123OSM   H11F13046   3.177   6.133   3.471 -1.6054  0.6278 -0.8739
  123OSM   H11G13047   3.188   6.314   3.432  2.7877  1.7054  3.8344
  123OSM   C12F13048   3.350   6.226   3.520 -0.7236 -0.0678 -0.8330
  123OSM   H12F13049   3.425   6.305   3.500 -0.1912  1.3268  4.8270
  123OSM   H12G13050   3.405   6.130   3.530 -0.1921  0.4341  2.4031
  123OSM   C13F13051   3.298   6.258   3.662 -0.0495 -0.2235  0.0903
  123OSM   H13F13052   3.216   6.188   3.688 -0.4974  0.5822  0.8927
  123OSM   H13G13053   3.264   6.364   3.658  2.8876  0.8189 -0.2179
  123OSM   C14F13054   3.405   6.249   3.777  0.2344  0.0823 -0.0565
  123OSM   H14F13055   3.493   6.308   3.744 -1.7368  2.7983 -0.8005
  123OSM   H14G13056   3.442   6.145   3.792 -2.2884 -0.5351  3.1094
  123OSM   C15F13057   3.347   6.295   3.916  0.8899 -0.3486 -0.4592
  123OSM   H15F13058   3.252   6.240   3.934  0.5791  0.2424 -0.2936
  123OSM   H15G13059   3.323   6.403   3.920 -0.2104 -0.6037  0.2079
  123OSM   C16F13060   3.451   6.276   4.027  0.7656  0.0145  0.4973
  123OSM   H16F13061   3.544   6.335   4.009  2.0940 -0.9683  3.4900
  123OSM   H16G13062   3.482   6.169   4.036  2.0177  0.4436  1.6137
  123OSM   C17F13063   3.412   6.327   4.169 -0.1201 -0.3431  0.3178
  123OSM   H17F13064   3.326   6.266   4.205  1.3342 -2.0009  1.1962
  123OSM   H17G13065   3.388   6.435   4.166 -2.3819 -0.8186 -1.1367
  123OSM   C18F13066   3.523   6.290   4.267 -0.2744 -0.2929 -0.3371
  123OSM   H18F13067   3.557   6.187   4.245 -1.6025 -1.2460  1.7302
  123OSM   H18G13068   3.481   6.295   4.370 -0.0294  1.3523 -0.2813
  123OSM   H18H13069   3.610   6.359   4.256  0.5253 -1.0995  0.7103
  124OSM      N13070   2.760   1.189   2.313 -0.0611 -0.2909 -0.4069
  124OSM    C1513071   2.639   1.101   2.276  0.0844 -0.3692  0.5196
  124OSM   H15A13072   2.555   1.151   2.230  0.8122 -0.4901 -0.9939
  124OSM   H15B13073   2.609   1.045   2.364  2.0710  0.1984  1.6126
  124OSM   H15C13074   2.669   1.041   2.192 -0.3249  1.0138 -0.6485
  124OSM    C1413075   2.815   1.250   2.183  0.2372  0.2564  0.5155
  124OSM   H14A13076   2.891   1.325   2.199  1.9548 -1.1200 -0.7843
  124OSM   H14B13077   2.733   1.288   2.124  1.3168 -0.6314 -1.7063
  124OSM   H14C13078   2.871   1.177   2.126 -1.6887 -2.5739  1.9661
  124OSM    C1313079   2.716   1.305   2.404 -0.2983  0.9796  0.1675
  124OSM   H13A13080   2.711   1.274   2.507 -0.1385  2.4750  0.6458
  124OSM   H13B13081   2.619   1.340   2.369 -0.3648  0.6175 -0.0181
  124OSM   H13C13082   2.792   1.380   2.387 -0.9027  0.9619 -3.3992
  124OSM    C1213083   2.868   1.111   2.382  0.6727 -0.8438  0.2235
  124OSM   H12A13084   2.816   1.055   2.459 -3.7875  0.7873 -1.2446
  124OSM   H12B13085   2.940   1.179   2.423  0.7950 -0.2909 -0.8793
  124OSM    C1113086   2.955   1.018   2.303 -0.0857 -0.6425 -0.1479
  124OSM   H11A13087   2.887   0.955   2.241  0.5705 -0.4345 -1.0989
  124OSM   H11B13088   2.999   0.956   2.384 -2.3676 -0.1433  1.6085
  124OSM      P13089   3.173   1.159   2.277  0.1182  0.1284  0.4113
  124OSM    O1313090   3.295   1.105   2.219 -0.1501 -0.5994  0.6080
  124OSM    O1413091   3.149   1.307   2.262 -0.5051  0.0821 -0.3242
  124OSM    O1113092   3.165   1.116   2.423  0.3835  0.3678  0.3603
  124OSM    O1213093   3.050   1.089   2.215  0.0395  0.0411 -0.5359
  124OSM    C1S13094   3.244   1.174   2.528 -0.9710 -0.0807 -0.0208
  124OSM    H1S13095   3.229   1.284   2.532 -0.0566  0.0219  0.9970
  124OSM    H1T13096   3.352   1.166   2.500 -1.0702 -0.6290 -0.2630
  124OSM     NF13097   3.313   1.180   2.763  0.8813  0.1617 -0.4091
  124OSM    HNF13098   3.405   1.146   2.781 -0.0867 -0.9838  3.3668
  124OSM    C2S13099   3.234   1.108   2.667 -0.4041  0.0782  0.3037
  124OSM    H2S13100   3.128   1.118   2.699 -0.9938 -0.7825 -1.2472
  124OSM    C3S13101   3.242   0.954   2.661 -0.4361  0.1456  0.2645
  124OSM    H3S13102   3.347   0.922   2.641 -0.8371 -2.0023  1.2617
  124OSM     O313103   3.186   0.890   2.551 -0.3943 -0.6826 -0.1295
  124OSM    HO313104   3.163   0.958   2.488  0.3542 -1.3621 -1.1657
  124OSM    C4S13105   3.200   0.890   2.787  0.1757  0.0619  0.6803
  124OSM    H4S13106   3.100   0.919   2.820  0.5924  2.4959  0.0038
  124OSM    C5S13107   3.263   0.787   2.846  0.5880  0.8410 -0.0368
  124OSM    H5S13108   3.359   0.761   2.797  0.9859  2.3461 -0.0992
  124OSM    C6S13109   3.228   0.704   2.965 -1.0351 -0.3006  0.1605
  124OSM    H6S13110   3.266   0.600   2.955  0.2675  0.2208 -0.6000
  124OSM    H6T13111   3.122   0.689   2.994 -0.8054 -0.5949  0.8726
  124OSM    C7S13112   3.287   0.763   3.096 -0.6784 -0.3852 -0.3437
  124OSM    H7S13113   3.265   0.872   3.107  1.9508  0.1414  0.4538
  124OSM    H7T13114   3.397   0.768   3.085 -0.5734  0.7541  0.9279
  124OSM    C8S13115   3.242   0.698   3.227  0.6214  0.3000  0.3163
  124OSM    H8S13116   3.232   0.588   3.212  2.9900  0.1396 -0.5655
  124OSM    H8T13117   3.137   0.731   3.239  0.2570 -0.2346 -1.2168
  124OSM    C9S13118   3.330   0.726   3.348  0.1404  0.2003  0.5845
  124OSM    H9S13119   3.338   0.835   3.365 -0.0961  0.1980  0.7070
  124OSM    H9T13120   3.426   0.679   3.318 -1.0737 -1.2430 -1.3475
  124OSM   C10S13121   3.271   0.663   3.475  0.8818  0.1349  0.1779
  124OSM   H10S13122   3.268   0.552   3.463 -1.4699  0.2578 -1.0432
  124OSM   H10T13123   3.163   0.688   3.484  0.1763 -2.6623  0.6662
  124OSM   C11S13124   3.340   0.702   3.601  0.1180  0.0913 -0.5837
  124OSM   H11S13125   3.373   0.808   3.588  1.4560 -0.0774  1.1078
  124OSM   H11T13126   3.430   0.640   3.615 -0.3521 -0.2534  1.1505
  124OSM   C12S13127   3.257   0.675   3.726  0.4493  0.2895  0.0396
  124OSM   H12S13128   3.218   0.572   3.710  1.7465  0.0291 -1.8622
  124OSM   H12T13129   3.172   0.746   3.731  0.6045  0.4785  0.0132
  124OSM   C13S13130   3.341   0.681   3.859  0.8010  0.3042 -0.0894
  124OSM   H13S13131   3.377   0.786   3.860  1.1947  0.1683  0.4857
  124OSM   H13T13132   3.439   0.629   3.851  1.2527  1.3995 -2.3862
  124OSM   C14S13133   3.261   0.659   3.988  0.7170  0.5969  0.6403
  124OSM   H14S13134   3.205   0.564   3.973  1.3480  0.4213 -0.7453
  124OSM   H14T13135   3.182   0.737   3.998 -1.3428 -1.3616  0.4912
  124OSM   C15S13136   3.342   0.656   4.122  0.4250 -0.1779  0.4602
  124OSM   H15S13137   3.400   0.751   4.121 -1.4120  0.9973  0.4951
  124OSM   H15T13138   3.415   0.572   4.114  1.5649  0.8815 -0.7901
  124OSM   C16S13139   3.267   0.651   4.257  0.7131  0.0298  0.6207
  124OSM   H16S13140   3.200   0.740   4.258 -1.0920 -1.1926 -1.4864
  124OSM   H16T13141   3.346   0.660   4.334 -0.1412 -0.0483  1.5395
  124OSM   C17S13142   3.191   0.527   4.272  0.1246  0.5715  0.5702
  124OSM   H17S13143   3.268   0.446   4.278 -1.1970 -0.6523  2.1831
  124OSM   H17T13144   3.118   0.505   4.192  0.8793 -2.4567  0.5933
  124OSM   C18S13145   3.123   0.513   4.403 -0.3503 -0.2849 -0.6639
  124OSM   H18S13146   3.186   0.546   4.489 -0.9692  1.6613 -0.8937
  124OSM   H18T13147   3.092   0.410   4.429  1.7214 -0.6611  0.5307
  124OSM   H18U13148   3.035   0.580   4.410 -0.7794 -0.9933  1.3617
  124OSM    C1F13149   3.273   1.296   2.810  0.5789 -0.0329  0.2728
  124OSM     OF13150   3.171   1.346   2.759  0.5004  0.6579 -0.1542
  124OSM    C2F13151   3.336   1.357   2.928 -0.2964  0.1479 -0.1045
  124OSM    H2F13152   3.427   1.411   2.897 -0.1689 -0.6693 -1.1840
  124OSM    H2G13153   3.363   1.272   2.995  1.9500  0.5358 -0.4533
  124OSM    C3F13154   3.244   1.461   3.000  0.0466 -0.2028 -0.0846
  124OSM    H3F13155   3.150   1.412   3.036  0.4768 -0.4886  0.6840
  124OSM    H3G13156   3.207   1.532   2.923 -1.5493 -1.6689 -0.7463
  124OSM    C4F13157   3.321   1.536   3.117 -0.5700 -0.4548  0.4193
  124OSM    H4F13158   3.284   1.640   3.109  0.1772 -0.2200 -0.0162
  124OSM    H4G13159   3.431   1.536   3.099 -0.1863  1.6235  2.3163
  124OSM    C5F13160   3.297   1.480   3.255 -0.5747 -0.4603 -0.3538
  124OSM    H5F13161   3.334   1.376   3.266 -1.0734 -0.6430 -0.3628
  124OSM    H5G13162   3.191   1.474   3.289 -0.8464  3.7235  0.1015
  124OSM    C6F13163   3.378   1.561   3.355  0.3788 -0.0938 -0.0850
  124OSM    H6F13164   3.338   1.663   3.342 -1.4399 -0.9078 -1.2363
  124OSM    H6G13165   3.488   1.548   3.340  0.8451  1.1230  1.9833
  124OSM    C7F13166   3.359   1.508   3.498  0.2319  0.0160  0.3550
  124OSM    H7F13167   3.252   1.513   3.527  0.0623  0.3824 -0.3007
  124OSM    H7G13168   3.418   1.561   3.575  0.9607 -0.0339 -0.1571
  124OSM    C8F13169   3.405   1.361   3.524 -0.4430 -0.8146 -0.3666
  124OSM    H8F13170   3.505   1.347   3.477 -0.6472 -0.1538 -1.0272
  124OSM    H8G13171   3.345   1.280   3.477  1.9627 -2.3003 -1.0351
  124OSM    C9F13172   3.424   1.329   3.674 -0.3573  0.1394  0.1114
  124OSM    H9F13173   3.333   1.290   3.722 -1.7273  0.9203 -1.7093
  124OSM   C10F13174   3.530   1.346   3.745 -0.2978 -0.1827 -0.3889
  124OSM   H10F13175   3.532   1.311   3.850  1.6784 -1.6939 -0.8616
  124OSM   C11F13176   3.661   1.408   3.703  0.0191 -0.3131  0.9630
  124OSM   H11F13177   3.645   1.506   3.652 -0.3399 -0.8568  0.0052
  124OSM   H11G13178   3.720   1.352   3.627  0.2526  1.3113 -0.1022
  124OSM   C12F13179   3.753   1.430   3.823 -0.2613  0.3734  0.5841
  124OSM   H12F13180   3.798   1.334   3.855 -0.3748 -0.8578 -2.5760
  124OSM   H12G13181   3.692   1.459   3.911  0.0791 -0.0217  0.9574
  124OSM   C13F13182   3.853   1.547   3.800  0.4568  0.6902  0.7583
  124OSM   H13F13183   3.793   1.637   3.778 -0.2059  0.1634  0.3908
  124OSM   H13G13184   3.916   1.528   3.711 -0.9233  1.6446 -0.4675
  124OSM   C14F13185   3.944   1.560   3.918 -0.3738 -0.3169 -0.1003
  124OSM   H14F13186   4.015   1.475   3.923  0.7797  0.5309 -1.1512
  124OSM   H14G13187   3.885   1.566   4.012 -0.5722  2.2650 -0.3181
  124OSM   C15F13188   4.027   1.690   3.916  0.3538 -0.4775  0.4747
  124OSM   H15F13189   3.950   1.768   3.932 -2.2889 -2.1716 -2.6911
  124OSM   H15G13190   4.069   1.699   3.814 -0.8976  0.2664  0.0014
  124OSM   C16F13191   4.148   1.698   4.017 -0.0070 -0.0274  0.5011
  124OSM   H16F13192   4.205   1.789   3.987 -0.7766 -0.0514 -1.1493
  124OSM   H16G13193   4.212   1.608   4.000  1.3169  1.2541 -2.0561
  124OSM   C17F13194   4.104   1.692   4.160  0.2652 -0.1221 -0.2466
  124OSM   H17F13195   4.049   1.600   4.188  1.6728 -0.1174  2.9890
  124OSM   H17G13196   4.037   1.779   4.178  0.3974 -0.1415  0.3651
  124OSM   C18F13197   4.214   1.689   4.256 -0.4154 -0.5106 -0.5321
  124OSM   H18F13198   4.287   1.772   4.245  1.5699 -2.0600  0.3762
  124OSM   H18G13199   4.272   1.594   4.252  0.5362 -0.0806  1.5366
  124OSM   H18H13200   4.169   1.699   4.357  0.2223  1.7340 -0.4132
  125OSM      N13201   3.279   3.745   2.429 -0.0857  0.4008 -0.8277
  125OSM    C1513202   3.246   3.815   2.301  0.1051  0.2852  0.4321
  125OSM   H15A13203   3.302   3.906   2.285 -1.4792  0.9372 -1.9371
  125OSM   H15B13204   3.145   3.853   2.293 -1.0753 -2.5765  0.5085
  125OSM   H15C13205   3.262   3.751   2.215  1.9240  0.6744  0.4422
  125OSM    C1413206   3.272   3.842   2.534 -0.4523  0.0026 -0.3604
  125OSM   H14A13207   3.297   3.793   2.627 -1.8414 -0.1620 -0.0485
  125OSM   H14B13208   3.174   3.882   2.554  0.1569  2.2242 -1.3650
  125OSM   H14C13209   3.336   3.929   2.525 -0.9384  0.9459  3.5295
  125OSM    C1313210   3.169   3.642   2.455  0.2179  0.0923 -0.0917
  125OSM   H13A13211   3.200   3.546   2.415  2.2416  0.2879  0.8609
  125OSM   H13B13212   3.069   3.660   2.418 -0.3303  2.2313  2.1637
  125OSM   H13C13213   3.156   3.630   2.561 -0.3397  0.2393 -0.1430
  125OSM    C1213214   3.420   3.681   2.426 -0.4850  0.2244 -0.2752
  125OSM   H12A13215   3.489   3.757   2.393  0.5204 -0.3721  0.3909
  125OSM   H12B13216   3.420   3.607   2.347  1.3499  0.8449 -0.9010
  125OSM    C1113217   3.469   3.615   2.558  0.5328 -0.9888 -0.5246
  125OSM   H11A13218   3.463   3.693   2.637 -1.1781 -3.3013  1.7454
  125OSM   H11B13219   3.575   3.583   2.547 -0.0518 -2.5792 -1.8713
  125OSM      P13220   3.422   3.356   2.545  0.0687  0.0490 -0.0951
  125OSM    O1313221   3.303   3.273   2.539  0.0285  0.0288 -0.1526
  125OSM    O1413222   3.500   3.361   2.425 -0.0312  0.0399 -0.2521
  125OSM    O1113223   3.509   3.303   2.669 -0.0750  0.5466  0.0231
  125OSM    O1213224   3.385   3.506   2.590 -0.3128  0.4818 -0.3629
  125OSM    C1S13225   3.646   3.277   2.653  0.2843  0.2306  0.2885
  125OSM    H1S13226   3.693   3.341   2.575 -1.5517  1.8302  0.4186
  125OSM    H1T13227   3.673   3.172   2.627  0.5922  0.0184  1.4075
  125OSM     NF13228   3.870   3.294   2.772 -0.4736 -0.2562  0.7472
  125OSM    HNF13229   3.934   3.229   2.811  1.7680  0.3400 -1.6619
  125OSM    C2S13230   3.722   3.294   2.790  0.0256 -0.2241  0.1523
  125OSM    H2S13231   3.699   3.392   2.836 -0.8864 -0.4659  0.2358
  125OSM    C3S13232   3.669   3.198   2.896  0.0495 -0.0456 -0.3860
  125OSM    H3S13233   3.696   3.096   2.862  1.0199  0.8920 -2.5946
  125OSM     O313234   3.524   3.188   2.911 -0.3723 -0.2790 -0.0300
  125OSM    HO313235   3.495   3.227   2.828 -0.1084 -1.1337 -0.5341
  125OSM    C4S13236   3.743   3.216   3.029  0.2014  0.0408 -0.2247
  125OSM    H4S13237   3.847   3.181   3.019  0.4993  0.7642  0.3584
  125OSM    C5S13238   3.687   3.266   3.144  0.4963  0.0853  0.4551
  125OSM    H5S13239   3.580   3.293   3.138  1.1922  2.8332 -1.8470
  125OSM    C6S13240   3.752   3.277   3.279 -0.1711 -0.3980 -0.2893
  125OSM    H6S13241   3.717   3.208   3.359  0.6313 -0.0213  0.3860
  125OSM    H6T13242   3.726   3.374   3.325  0.2920  0.4664 -1.7748
  125OSM    C7S13243   3.902   3.288   3.282 -0.3095  0.3633  0.2754
  125OSM    H7S13244   3.942   3.369   3.218 -0.3565 -0.8089 -1.2902
  125OSM    H7T13245   3.939   3.198   3.230 -0.2333 -0.1129  1.1339
  125OSM    C8S13246   3.966   3.284   3.421 -0.2410 -0.0808  0.5197
  125OSM    H8S13247   3.908   3.205   3.473 -1.7088  0.8853  0.4136
  125OSM    H8T13248   3.956   3.376   3.482 -0.1410 -0.0172  0.4411
  125OSM    C9S13249   4.107   3.243   3.426 -0.2196  0.4783 -1.0538
  125OSM    H9S13250   4.166   3.298   3.350  0.0133 -0.8080 -1.8387
  125OSM    H9T13251   4.122   3.141   3.384  1.1005 -0.1382  0.7952
  125OSM   C10S13252   4.170   3.255   3.574  0.8586 -0.7609  0.3942
  125OSM   H10S13253   4.123   3.172   3.632  1.0566 -0.4673  0.9799
  125OSM   H10T13254   4.145   3.355   3.616 -3.4969 -1.6142  0.3482
  125OSM   C11S13255   4.320   3.246   3.569  0.1148 -0.4118  0.1217
  125OSM   H11S13256   4.350   3.316   3.650 -0.1077  0.5877 -0.6479
  125OSM   H11T13257   4.364   3.291   3.478  1.7882  2.5774  2.2432
  125OSM   C12S13258   4.373   3.108   3.604 -0.7467  0.1391  0.0584
  125OSM   H12S13259   4.339   3.033   3.530  2.5643 -0.2324 -1.2405
  125OSM   H12T13260   4.332   3.065   3.698 -0.6184 -0.6533 -0.2484
  125OSM   C13S13261   4.531   3.092   3.613 -0.3344 -0.1563  0.3661
  125OSM   H13S13262   4.553   2.991   3.652  0.4406 -0.8398 -1.6636
  125OSM   H13T13263   4.555   3.154   3.702 -2.4288 -0.0976  0.9273
  125OSM   C14S13264   4.610   3.135   3.489  0.3017  0.6222 -0.2676
  125OSM   H14S13265   4.713   3.095   3.496  0.3694  0.4486 -1.8492
  125OSM   H14T13266   4.614   3.246   3.480  0.6696  0.7925  1.6218
  125OSM   C15S13267   4.560   3.093   3.347  0.6141 -0.0295 -0.8038
  125OSM   H15S13268   4.459   3.137   3.336 -0.5176 -2.2705 -0.1245
  125OSM   H15T13269   4.537   2.984   3.344  1.1590 -0.1246 -2.0241
  125OSM   C16S13270   4.652   3.143   3.237  0.3283  0.7263 -0.3657
  125OSM   H16S13271   4.714   3.227   3.276  1.7486 -0.4422 -0.0276
  125OSM   H16T13272   4.603   3.198   3.154  1.2344  0.0270 -1.3924
  125OSM   C17S13273   4.746   3.041   3.179  0.3963 -0.0501  0.0433
  125OSM   H17S13274   4.681   2.971   3.122 -0.2835  1.3691 -1.0166
  125OSM   H17T13275   4.791   2.978   3.259 -0.0762 -0.7519 -0.2376
  125OSM   C18S13276   4.865   3.096   3.090  0.0108 -0.4703 -0.2583
  125OSM   H18S13277   4.822   3.122   2.991  0.3661  1.3635  0.0244
  125OSM   H18T13278   4.945   3.023   3.068  0.7608  0.0611  0.6497
  125OSM   H18U13279   4.908   3.188   3.136 -0.9409  0.5453 -1.3473
  125OSM    C1F13280   3.934   3.392   2.703 -0.3237  0.0296  0.6605
  125OSM     OF13281   3.872   3.470   2.632  0.2304 -0.5866 -0.2045
  125OSM    C2F13282   4.086   3.399   2.717 -0.2490 -1.2513  0.2303
  125OSM    H2F13283   4.120   3.442   2.620  1.1846 -1.5304  0.5912
  125OSM    H2G13284   4.141   3.303   2.729  0.0759 -1.0774  0.1144
  125OSM    C3F13285   4.131   3.491   2.831 -0.4057  0.1952 -0.5729
  125OSM    H3F13286   4.078   3.588   2.842 -0.1805  0.4599 -1.6636
  125OSM    H3G13287   4.240   3.503   2.815 -0.2736 -2.1319 -2.0144
  125OSM    C4F13288   4.125   3.414   2.967  0.4734  0.7959 -1.2320
  125OSM    H4F13289   4.146   3.309   2.940  2.1579  1.0372 -0.9807
  125OSM    H4G13290   4.019   3.418   2.999  0.8161 -0.7365  0.2246
  125OSM    C5F13291   4.225   3.466   3.070 -0.1346 -0.2863 -0.3515
  125OSM    H5F13292   4.323   3.481   3.021 -1.5717  2.9174 -2.5939
  125OSM    H5G13293   4.238   3.388   3.148 -1.3453  1.3100  1.5273
  125OSM    C6F13294   4.177   3.605   3.124  0.1745  0.1935  0.2629
  125OSM    H6F13295   4.073   3.586   3.160  0.0510 -1.0324 -0.6450
  125OSM    H6G13296   4.170   3.680   3.042 -0.8665 -0.2686 -0.0901
  125OSM    C7F13297   4.247   3.659   3.245 -0.3603 -0.7829 -0.1926
  125OSM    H7F13298   4.205   3.759   3.269  2.3119  0.5480 -0.6633
  125OSM    H7G13299   4.350   3.682   3.211 -1.2519  0.1955 -2.4467
  125OSM    C8F13300   4.248   3.570   3.368  0.2730 -0.6814  0.0324
  125OSM    H8F13301   4.284   3.475   3.322 -0.1847  0.5156 -2.9551
  125OSM    H8G13302   4.142   3.559   3.401  0.8612 -3.7343  1.2695
  125OSM    C9F13303   4.349   3.632   3.470  0.2291 -0.5577 -0.9690
  125OSM    H9F13304   4.456   3.617   3.448  1.0020  2.6381  0.0232
  125OSM   C10F13305   4.319   3.673   3.590  0.2175  0.3787 -0.0048
  125OSM   H10F13306   4.403   3.710   3.649 -1.8086  0.3784  3.0815
  125OSM   C11F13307   4.189   3.687   3.659  0.6356 -0.0551  0.0770
  125OSM   H11F13308   4.164   3.613   3.738 -1.5817  1.5152  0.9593
  125OSM   H11G13309   4.100   3.673   3.594  0.3556 -1.1613  0.6580
  125OSM   C12F13310   4.173   3.830   3.718  0.5997  0.2405  0.2737
  125OSM   H12F13311   4.171   3.907   3.638  1.2212  1.1659  1.1099
  125OSM   H12G13312   4.260   3.847   3.786 -1.5293  1.3992  2.8963
  125OSM   C13F13313   4.056   3.833   3.814  0.5916  0.4825  0.5019
  125OSM   H13F13314   4.067   3.743   3.879  1.8472  0.4816  0.3131
  125OSM   H13G13315   3.964   3.811   3.755  1.1105  1.8693 -0.9028
  125OSM   C14F13316   4.054   3.962   3.899 -0.1685 -0.4036 -0.4773
  125OSM   H14F13317   4.056   4.050   3.831  3.2727 -0.6128 -0.8215
  125OSM   H14G13318   4.148   3.966   3.958 -1.3323 -0.5992  1.4873
  125OSM   C15F13319   3.928   3.977   4.002  0.0827  1.0990 -0.1072
  125OSM   H15F13320   3.916   3.890   4.070  0.5602  1.7039  0.7734
  125OSM   H15G13321   3.838   3.990   3.939 -0.7772  0.6731  1.0002
  125OSM   C16F13322   3.946   4.105   4.089  0.1112  0.5909  0.0483
  125OSM   H16F13323   3.967   4.194   4.026  2.2336 -0.8235 -1.3404
  125OSM   H16G13324   4.035   4.095   4.155  0.1479 -1.7585 -0.2790
  125OSM   C17F13325   3.831   4.133   4.193 -0.9252 -0.3540  0.1492
  125OSM   H17F13326   3.736   4.138   4.137 -1.5907  2.0557  1.3262
  125OSM   H17G13327   3.843   4.233   4.241 -2.0607 -0.6338  1.0663
  125OSM   C18F13328   3.803   4.039   4.308 -0.2332  0.5534 -0.2928
  125OSM   H18F13329   3.708   4.057   4.362  0.2734 -0.3287  0.9464
  125OSM   H18G13330   3.888   4.034   4.380 -1.9599  0.3057  1.8427
  125OSM   H18H13331   3.809   3.934   4.270  1.5379 -0.3729  2.2087
  126OSM      N13332   2.204   5.359   1.996  0.1552  0.5675  0.5338
  126OSM    C1513333   2.192   5.446   2.115 -0.8817 -0.1576  0.2474
  126OSM   H15A13334   2.091   5.481   2.131 -0.3410  1.9030 -0.5720
  126OSM   H15B13335   2.256   5.531   2.099  0.8430 -0.6504  3.5420
  126OSM   H15C13336   2.215   5.389   2.204 -1.3677 -0.6085  0.0912
  126OSM    C1413337   2.149   5.427   1.878 -0.4234 -1.0252 -0.0895
  126OSM   H14A13338   2.046   5.456   1.889 -0.3981 -0.3927 -1.3897
  126OSM   H14B13339   2.154   5.354   1.798 -0.8609 -1.3298  0.1591
  126OSM   H14C13340   2.199   5.519   1.853 -0.6745 -1.0873 -0.8298
  126OSM    C1313341   2.350   5.331   1.973  0.0543 -0.3120 -0.3461
  126OSM   H13A13342   2.365   5.282   1.878 -2.2969 -0.5140 -0.6935
  126OSM   H13B13343   2.393   5.273   2.053  2.1074  0.3123 -0.9462
  126OSM   H13C13344   2.400   5.426   1.968  1.3304 -0.7102  2.7413
  126OSM    C1213345   2.125   5.226   2.027 -0.2963 -0.0787 -1.0247
  126OSM   H12A13346   2.169   5.178   2.114 -3.0840 -3.5413 -1.3180
  126OSM   H12B13347   2.143   5.158   1.946 -0.3225  1.7375 -2.6083
  126OSM    C1113348   1.971   5.237   2.042  0.3536  0.0284 -0.0586
  126OSM   H11A13349   1.930   5.134   2.039  0.7044 -0.1251  0.3859
  126OSM   H11B13350   1.929   5.289   1.953  0.3614 -0.3194 -0.2655
  126OSM      P13351   1.839   5.418   2.196  0.1235 -0.0694  0.1998
  126OSM    O1313352   1.892   5.535   2.124  0.2568 -0.0211  0.1544
  126OSM    O1413353   1.711   5.383   2.145 -0.6179 -0.1240 -0.0057
  126OSM    O1113354   1.839   5.442   2.349  0.2167  0.4026 -0.0444
  126OSM    O1213355   1.939   5.305   2.167 -0.4643  0.0561  0.1660
  126OSM    C1S13356   1.867   5.338   2.448  0.4230  1.0382  0.5023
  126OSM    H1S13357   1.963   5.293   2.415 -0.5897 -0.1195 -1.0553
  126OSM    H1T13358   1.792   5.258   2.428 -1.1461  2.2148  1.4481
  126OSM     NF13359   1.956   5.291   2.679 -0.2709  0.1869 -0.4904
  126OSM    HNF13360   1.902   5.237   2.744  0.0828  1.5654  1.0197
  126OSM    C2S13361   1.889   5.383   2.596  0.5575 -0.4577 -0.5082
  126OSM    H2S13362   1.952   5.474   2.586 -1.3714  1.0565  0.5427
  126OSM    C3S13363   1.753   5.439   2.656 -0.2085 -0.2630 -0.0628
  126OSM    H3S13364   1.682   5.355   2.671 -1.7042  1.2626  1.9065
  126OSM     O313365   1.685   5.528   2.567  0.5211  0.8429  0.4723
  126OSM    HO313366   1.747   5.521   2.495 -0.3893 -3.4909 -0.1673
  126OSM    C4S13367   1.775   5.513   2.782  0.3877  0.1029  0.0847
  126OSM    H4S13368   1.773   5.446   2.869  0.8846 -0.2815 -0.1970
  126OSM    C5S13369   1.786   5.649   2.806 -0.0420 -0.0580  0.4453
  126OSM    H5S13370   1.789   5.719   2.721 -1.6185 -0.0871  0.3309
  126OSM    C6S13371   1.812   5.709   2.942 -0.0162 -0.3893 -0.0337
  126OSM    H6S13372   1.710   5.739   2.972 -0.5802  0.1801 -2.3137
  126OSM    H6T13373   1.874   5.799   2.922  1.1829 -0.8934  1.2394
  126OSM    C7S13374   1.886   5.613   3.049  0.4013  0.2040 -0.0433
  126OSM    H7S13375   1.979   5.574   3.003 -0.1338 -0.6050 -0.4568
  126OSM    H7T13376   1.827   5.519   3.058 -2.1300  1.8221  1.5298
  126OSM    C8S13377   1.911   5.686   3.181 -0.5173 -0.0465 -0.7699
  126OSM    H8S13378   1.816   5.734   3.214  1.3697  1.8175  2.4274
  126OSM    H8T13379   1.989   5.764   3.164  0.1034 -0.3970  0.3717
  126OSM    C9S13380   1.965   5.593   3.287  0.2882  0.2190  0.0584
  126OSM    H9S13381   2.067   5.570   3.248  1.3902  1.1603  2.2047
  126OSM    H9T13382   1.896   5.507   3.302  0.2187  0.0664 -1.0577
  126OSM   C10S13383   1.986   5.680   3.410  0.1655 -0.3101 -0.8616
  126OSM   H10S13384   1.890   5.721   3.449  0.8232  2.0920 -1.5631
  126OSM   H10T13385   2.047   5.771   3.387  0.3578 -0.0775  0.4828
  126OSM   C11S13386   2.047   5.610   3.532 -0.1842  0.0250  0.0810
  126OSM   H11S13387   2.139   5.556   3.499 -0.1976  0.3048 -0.4265
  126OSM   H11T13388   1.969   5.542   3.571 -0.3283 -1.1138 -2.0005
  126OSM   C12S13389   2.084   5.703   3.646  0.2239 -0.1200 -0.1968
  126OSM   H12S13390   1.993   5.756   3.683  0.1361  1.1589 -2.0916
  126OSM   H12T13391   2.142   5.788   3.605  0.7439 -1.2498 -1.8834
  126OSM   C13S13392   2.165   5.635   3.752 -0.6902  0.2794 -0.3307
  126OSM   H13S13393   2.268   5.612   3.718 -0.4131 -0.6747  1.1083
  126OSM   H13T13394   2.122   5.541   3.792 -0.7656  1.0475  1.4826
  126OSM   C14S13395   2.189   5.726   3.880 -0.1308  0.1051  0.2577
  126OSM   H14S13396   2.086   5.752   3.912 -0.8765 -0.8686 -1.2519
  126OSM   H14T13397   2.247   5.815   3.846 -2.0080  1.0563 -0.5927
  126OSM   C15S13398   2.248   5.652   3.998 -0.2192 -0.2243  0.5924
  126OSM   H15S13399   2.178   5.568   4.023 -0.2717  0.1761  1.8837
  126OSM   H15T13400   2.236   5.716   4.088 -1.8858 -0.4997  0.6103
  126OSM   C16S13401   2.388   5.589   3.969 -0.4176  0.5394  0.1961
  126OSM   H16S13402   2.465   5.662   3.935 -0.3403  0.8070  0.9188
  126OSM   H16T13403   2.373   5.504   3.899  0.5944 -0.4528  1.1496
  126OSM   C17S13404   2.449   5.545   4.100  0.3461  0.0331  0.4495
  126OSM   H17S13405   2.387   5.545   4.192  0.7003  0.1704  0.6908
  126OSM   H17T13406   2.529   5.615   4.133  0.3873 -0.6260  1.8110
  126OSM   C18S13407   2.503   5.401   4.074 -0.5242  0.2928  0.5298
  126OSM   H18S13408   2.578   5.399   3.992  1.3261 -2.8137  2.0981
  126OSM   H18T13409   2.424   5.329   4.046  0.1612  0.0580 -0.8422
  126OSM   H18U13410   2.541   5.356   4.169 -0.7917 -1.5914 -0.2109
  126OSM    C1F13411   2.085   5.253   2.648  0.0738 -0.3824  0.0284
  126OSM     OF13412   2.157   5.317   2.573 -0.3136  0.2313  0.1279
  126OSM    C2F13413   2.123   5.114   2.702 -0.7643 -0.0293 -0.7502
  126OSM    H2F13414   2.193   5.062   2.633 -1.7876 -1.3635 -0.8131
  126OSM    H2G13415   2.030   5.056   2.714 -0.8522  0.6501  3.1609
  126OSM    C3F13416   2.193   5.131   2.844  0.2522 -0.0293 -1.0407
  126OSM    H3F13417   2.114   5.178   2.905  0.5956  2.5334 -2.4274
  126OSM    H3G13418   2.277   5.202   2.832 -1.4361  1.9388 -1.8474
  126OSM    C4F13419   2.256   5.002   2.892  0.3903  0.5504  0.0576
  126OSM    H4F13420   2.330   4.966   2.817  0.3150 -0.9119  0.6483
  126OSM    H4G13421   2.177   4.924   2.898 -1.7981  2.5797 -0.6655
  126OSM    C5F13422   2.331   4.996   3.025 -0.3647 -0.5054 -0.0002
  126OSM    H5F13423   2.423   5.058   3.020 -0.6883 -0.1153 -1.6392
  126OSM    H5G13424   2.364   4.891   3.044  3.9632  0.7386  0.4606
  126OSM    C6F13425   2.246   5.053   3.141  1.0964 -0.3644  0.0487
  126OSM    H6F13426   2.155   4.988   3.139  0.8692 -0.0440  0.0414
  126OSM    H6G13427   2.225   5.161   3.127 -4.6726 -0.8136  2.4367
  126OSM    C7F13428   2.319   5.029   3.277 -0.5001 -0.1052 -0.2265
  126OSM    H7F13429   2.415   5.083   3.264  0.7357 -1.7250  1.5467
  126OSM    H7G13430   2.333   4.919   3.286  0.7246  0.0252 -0.3249
  126OSM    C8F13431   2.252   5.084   3.407  0.2080  0.4402  0.2401
  126OSM    H8F13432   2.336   5.118   3.471  0.9167  0.2310 -0.5677
  126OSM    H8G13433   2.196   5.001   3.455  1.2384 -0.3078  0.1780
  126OSM    C9F13434   2.161   5.199   3.386  0.0384  0.2903  0.3714
  126OSM    H9F13435   2.130   5.227   3.284 -1.6485  0.0588  0.7782
  126OSM   C10F13436   2.092   5.245   3.493 -0.1913 -0.1743  0.5639
  126OSM   H10F13437   2.024   5.326   3.466  2.2664  1.8195 -0.0362
  126OSM   C11F13438   2.112   5.215   3.637 -0.7125  0.3830 -0.7599
  126OSM   H11F13439   2.197   5.274   3.678  0.4270 -1.5542 -0.1826
  126OSM   H11G13440   2.141   5.111   3.665  0.4143  0.9516  0.2683
  126OSM   C12F13441   1.975   5.249   3.711 -0.7829  0.1135  0.5030
  126OSM   H12F13442   1.905   5.188   3.649  1.6733 -2.1600 -0.2530
  126OSM   H12G13443   1.951   5.355   3.690  1.9459  0.1341 -3.9527
  126OSM   C13F13444   1.973   5.207   3.855  0.1842  0.0929 -0.0514
  126OSM   H13F13445   2.001   5.100   3.863 -1.2370 -0.5126 -2.2372
  126OSM   H13G13446   1.874   5.226   3.901  1.5641  3.4407  1.9089
  126OSM   C14F13447   2.065   5.289   3.941  0.3722 -0.1774  0.2141
  126OSM   H14F13448   2.009   5.385   3.946  0.1529 -0.3527  1.6913
  126OSM   H14G13449   2.165   5.310   3.898  0.3963 -0.6907  0.0147
  126OSM   C15F13450   2.090   5.224   4.081  0.2295 -0.0421  0.0255
  126OSM   H15F13451   2.002   5.187   4.138  1.6349 -3.4934  0.2013
  126OSM   H15G13452   2.155   5.293   4.138  1.3423 -1.8579  1.0576
  126OSM   C16F13453   2.193   5.115   4.071 -0.3518  0.5979  0.0923
  126OSM   H16F13454   2.287   5.168   4.044 -0.0091  1.0553  2.0674
  126OSM   H16G13455   2.168   5.039   3.994  2.0105 -0.5548  0.3522
  126OSM   C17F13456   2.219   5.047   4.204 -0.1746  0.1709 -0.5973
  126OSM   H17F13457   2.262   5.113   4.284  1.5523 -1.4756 -0.0960
  126OSM   H17G13458   2.304   4.977   4.188 -0.5020 -0.6112  0.8696
  126OSM   C18F13459   2.109   4.959   4.259  0.4341  0.4669  0.3960
  126OSM   H18F13460   2.029   5.023   4.302  1.8563  1.3565  1.8456
  126OSM   H18G13461   2.135   4.904   4.352 -1.4780  0.6598  1.0841
  126OSM   H18H13462   2.062   4.893   4.183 -4.2566 -1.9157  4.7795
  127OSM      N13463   2.467   0.659   2.211  0.0535  0.1300  0.8442
  127OSM    C1513464   2.360   0.772   2.211 -0.3721 -0.2329  0.3680
  127OSM   H15A13465   2.392   0.859   2.156 -1.8878  1.7557  2.4462
  127OSM   H15B13466   2.332   0.800   2.312  2.5742  1.1963  0.8859
  127OSM   H15C13467   2.269   0.736   2.165 -0.2943 -0.3537  0.3090
  127OSM    C1413468   2.467   0.615   2.071 -0.3394  0.3784 -0.2303
  127OSM   H14A13469   2.541   0.537   2.059  0.0221  0.3558  1.8048
  127OSM   H14B13470   2.494   0.705   2.018 -0.7355  0.9282  0.4793
  127OSM   H14C13471   2.371   0.583   2.033 -1.0803  1.2113  0.8816
  127OSM    C1313472   2.594   0.711   2.253 -0.3412 -0.3781 -0.5792
  127OSM   H13A13473   2.582   0.773   2.341 -0.4800  1.7542 -2.0162
  127OSM   H13B13474   2.644   0.768   2.176 -1.2417  1.2227 -0.0104
  127OSM   H13C13475   2.663   0.631   2.277 -0.5913 -0.2769  0.5520
  127OSM    C1213476   2.418   0.541   2.300 -0.6112 -0.1357 -0.5351
  127OSM   H12A13477   2.441   0.569   2.401 -1.0966 -3.4507  0.6257
  127OSM   H12B13478   2.490   0.463   2.280 -0.6894 -0.9828  2.1213
  127OSM    C1113479   2.279   0.477   2.278 -0.5825  0.2000  0.2240
  127OSM   H11A13480   2.279   0.381   2.334  1.2703 -0.4085 -0.7506
  127OSM   H11B13481   2.268   0.454   2.170  1.6463 -0.5079  0.0971
  127OSM      P13482   2.025   0.547   2.243 -0.1551 -0.9172 -0.1438
  127OSM    O1313483   1.928   0.638   2.307 -0.0346  1.2685  0.2411
  127OSM    O1413484   2.049   0.567   2.099 -0.3391  0.3166  0.0948
  127OSM    O1113485   1.979   0.402   2.257 -0.0701 -0.0119 -0.4689
  127OSM    O1213486   2.164   0.555   2.326  0.4688  0.3238  0.1602
  127OSM    C1S13487   1.987   0.329   2.382 -0.1010  0.5380 -0.0343
  127OSM    H1S13488   2.088   0.332   2.426  0.6846 -0.7723 -1.6354
  127OSM    H1T13489   1.964   0.223   2.358 -2.0352  0.6361  1.0916
  127OSM     NF13490   1.901   0.306   2.624 -0.3963 -0.1128 -0.1450
  127OSM    HNF13491   1.862   0.215   2.632  2.3820 -1.5296 -1.1642
  127OSM    C2S13492   1.870   0.356   2.491  0.2468 -0.5665 -0.1808
  127OSM    H2S13493   1.872   0.467   2.499 -3.4569 -0.4155  0.9209
  127OSM    C3S13494   1.729   0.320   2.437  0.4894 -0.1331  0.1694
  127OSM    H3S13495   1.728   0.210   2.426 -0.8065 -0.0357 -1.0852
  127OSM     O313496   1.688   0.358   2.302 -0.4681  0.6725  0.4135
  127OSM    HO313497   1.768   0.398   2.269 -0.8297 -1.1182 -3.0486
  127OSM    C4S13498   1.622   0.354   2.540  0.2115  0.6688 -0.3975
  127OSM    H4S13499   1.612   0.274   2.614 -0.0953  0.4882 -0.6317
  127OSM    C5S13500   1.548   0.467   2.547  0.0702 -0.4744 -0.6745
  127OSM    H5S13501   1.554   0.539   2.464 -0.6909  0.8168  0.3528
  127OSM    C6S13502   1.455   0.504   2.656  0.7038  0.2651  0.5233
  127OSM    H6S13503   1.363   0.533   2.601  0.9132  0.5315  0.3082
  127OSM    H6T13504   1.482   0.604   2.697  0.0370  0.0206  1.6109
  127OSM    C7S13505   1.436   0.420   2.784  0.0178  0.4702 -0.2757
  127OSM    H7S13506   1.531   0.406   2.839  0.0433 -2.2151 -0.8643
  127OSM    H7T13507   1.406   0.317   2.756  1.1771  0.7080 -2.5875
  127OSM    C8S13508   1.320   0.476   2.872 -0.1134  1.1572  0.5335
  127OSM    H8S13509   1.229   0.503   2.815 -1.8013 -2.1293  1.4066
  127OSM    H8T13510   1.377   0.562   2.913  1.6185 -0.6822  2.2257
  127OSM    C9S13511   1.269   0.379   2.981  0.3571 -0.0502 -0.0945
  127OSM    H9S13512   1.274   0.274   2.946 -0.7323 -0.4620  0.9062
  127OSM    H9T13513   1.163   0.402   3.007 -0.2184 -1.1210 -1.3769
  127OSM   C10S13514   1.357   0.379   3.111  0.2707 -0.4375  0.2106
  127OSM   H10S13515   1.369   0.485   3.140 -1.8422  0.0054 -0.3034
  127OSM   H10T13516   1.455   0.339   3.077  0.1179 -1.0089  0.4245
  127OSM   C11S13517   1.301   0.302   3.228 -0.4248  0.6958  0.1912
  127OSM   H11S13518   1.279   0.195   3.211 -2.2639  0.4633  3.2349
  127OSM   H11T13519   1.213   0.367   3.249 -0.6946  0.5225 -0.3892
  127OSM   C12S13520   1.404   0.310   3.344  0.8597 -0.3732  0.3588
  127OSM   H12S13521   1.426   0.418   3.354 -1.0714  0.2864 -1.7534
  127OSM   H12T13522   1.493   0.253   3.311  1.4808  1.6105 -1.6146
  127OSM   C13S13523   1.336   0.261   3.481  0.1591 -0.0070  0.0961
  127OSM   H13S13524   1.338   0.150   3.480  0.4199  0.0014 -0.5843
  127OSM   H13T13525   1.233   0.303   3.487 -0.1233 -0.6742 -0.0028
  127OSM   C14S13526   1.422   0.297   3.597 -0.4054  0.0617  0.4101
  127OSM   H14S13527   1.434   0.407   3.603 -0.1494  0.1035 -0.6990
  127OSM   H14T13528   1.523   0.250   3.597 -0.7607 -0.7172 -0.5305
  127OSM   C15S13529   1.355   0.234   3.729 -0.8916 -0.4075  0.0350
  127OSM   H15S13530   1.327   0.127   3.715 -2.4291  0.0190 -0.3609
  127OSM   H15T13531   1.267   0.301   3.737  0.4189  1.4410 -0.2789
  127OSM   C16S13532   1.437   0.243   3.858  0.2098  0.2756  0.5913
  127OSM   H16S13533   1.459   0.350   3.879  1.5220  0.2292 -0.4278
  127OSM   H16T13534   1.541   0.203   3.852  0.3215  0.7196 -0.7031
  127OSM   C17S13535   1.368   0.172   3.972 -0.1706 -0.3466  0.8488
  127OSM   H17S13536   1.378   0.062   3.956  0.7912 -0.0518 -0.8018
  127OSM   H17T13537   1.258   0.190   3.970  0.0855  1.4343  1.3459
  127OSM   C18S13538   1.425   0.206   4.111 -0.1252 -0.3038 -0.0507
  127OSM   H18S13539   1.534   0.190   4.116  0.0199  0.2464 -1.1923
  127OSM   H18T13540   1.367   0.144   4.183 -0.4082  0.9858  0.8800
  127OSM   H18U13541   1.412   0.311   4.145  1.6574 -0.1510  0.2264
  127OSM    C1F13542   2.010   0.340   2.696  0.0911 -0.9781 -0.3570
  127OSM     OF13543   2.087   0.436   2.665  0.4851 -0.4064 -0.4855
  127OSM    C2F13544   2.039   0.263   2.816 -0.5236  0.2836 -0.0551
  127OSM    H2F13545   2.109   0.179   2.796 -2.4938 -1.4786  0.1374
  127OSM    H2G13546   1.938   0.220   2.836 -0.3374  0.3636  1.1527
  127OSM    C3F13547   2.088   0.356   2.931 -0.1498 -0.1326 -0.4747
  127OSM    H3F13548   1.997   0.402   2.972 -2.2615 -0.5661 -4.2308
  127OSM    H3G13549   2.151   0.440   2.896 -0.4917  0.6556  0.7475
  127OSM    C4F13550   2.161   0.283   3.049  0.4197 -0.7689  0.0979
  127OSM    H4F13551   2.225   0.347   3.113  0.4392  0.3196 -0.9566
  127OSM    H4G13552   2.227   0.203   3.010  1.4110 -0.9418  2.0455
  127OSM    C5F13553   2.064   0.211   3.151 -0.2754  0.6929  0.3235
  127OSM    H5F13554   1.985   0.161   3.091  2.6514 -3.0834 -0.7905
  127OSM    H5G13555   2.032   0.287   3.226 -1.1894 -0.8230  1.5114
  127OSM    C6F13556   2.137   0.102   3.233  0.3834 -0.2108 -0.0945
  127OSM    H6F13557   2.202   0.034   3.175  2.2535  0.6027  0.9597
  127OSM    H6G13558   2.059   0.039   3.280  0.6197 -0.6826 -0.3340
  127OSM    C7F13559   2.239   0.173   3.336  0.3683  0.3372  0.0116
  127OSM    H7F13560   2.309   0.220   3.264  1.1357 -1.1286 -0.2265
  127OSM    H7G13561   2.301   0.091   3.378 -0.1263 -0.4935 -0.8475
  127OSM    C8F13562   2.190   0.268   3.438 -0.1939  0.7550 -0.1277
  127OSM    H8F13563   2.129   0.344   3.386 -0.7893 -1.1228 -2.3338
  127OSM    H8G13564   2.271   0.309   3.502  0.8927 -0.7490 -0.4856
  127OSM    C9F13565   2.095   0.190   3.530 -0.5024 -0.3138 -0.0411
  127OSM    H9F13566   1.996   0.188   3.482 -0.6238  0.7931  0.1338
  127OSM   C10F13567   2.124   0.138   3.653  0.4386 -0.5330  0.2969
  127OSM   H10F13568   2.048   0.084   3.710 -0.6186 -0.3116 -0.8581
  127OSM   C11F13569   2.262   0.156   3.710  0.0272  0.1735 -0.7319
  127OSM   H11F13570   2.343   0.149   3.634  0.5333  0.6487 -0.2431
  127OSM   H11G13571   2.279   0.072   3.781  1.3491  0.4619 -0.6758
  127OSM   C12F13572   2.268   0.286   3.787 -0.7102 -0.1610 -0.0132
  127OSM   H12F13573   2.228   0.370   3.726 -2.0755 -0.2616  0.6994
  127OSM   H12G13574   2.370   0.319   3.817  0.0398 -0.9855 -1.5416
  127OSM   C13F13575   2.185   0.275   3.909 -0.0389 -0.3242 -0.0699
  127OSM   H13F13576   2.218   0.181   3.959  1.0370 -0.4545 -0.9891
  127OSM   H13G13577   2.078   0.251   3.888 -0.6916  0.5558  2.0065
  127OSM   C14F13578   2.211   0.382   4.024 -0.3313  0.0629 -0.2947
  127OSM   H14F13579   2.182   0.484   3.989  1.3744  0.0337 -1.9557
  127OSM   H14G13580   2.316   0.368   4.059 -0.5552 -0.0734  0.3338
  127OSM   C15F13581   2.109   0.358   4.137 -0.4534 -0.2544  0.1843
  127OSM   H15F13582   2.103   0.248   4.156 -0.2565 -0.1420  0.9147
  127OSM   H15G13583   2.010   0.388   4.098 -0.4725  0.1241  0.5199
  127OSM   C16F13584   2.132   0.424   4.266  1.0259 -0.7094 -0.0894
  127OSM   H16F13585   2.050   0.398   4.337  0.2753  1.8194  0.0764
  127OSM   H16G13586   2.117   0.534   4.268 -1.7965 -1.0232  0.1146
  127OSM   C17F13587   2.263   0.398   4.334  0.2217 -0.2571  0.4414
  127OSM   H17F13588   2.338   0.440   4.264  2.1067 -2.8632  0.7522
  127OSM   H17G13589   2.272   0.288   4.338  0.8521 -0.2147  0.1988
  127OSM   C18F13590   2.289   0.461   4.476 -0.6208  0.1575 -0.4406
  127OSM   H18F13591   2.203   0.454   4.546  0.3078 -1.9826  0.6051
  127OSM   H18G13592   2.325   0.566   4.466  1.1474 -0.4428 -0.8944
  127OSM   H18H13593   2.372   0.401   4.521 -1.7359 -0.4122  0.9347
  128OSM      N13594   3.295   0.104   2.173  0.3335 -0.2179  0.4238
  128OSM    C1513595   3.253   0.018   2.056 -1.0338  0.3530  0.0273
  128OSM   H15A13596   3.306   0.035   1.964  0.1344 -0.4600  0.5360
  128OSM   H15B13597   3.150   0.033   2.025 -0.7569  0.3577 -0.9175
  128OSM   H15C13598   3.283  -0.084   2.074  0.5169  1.0729  1.8543
  128OSM    C1413599   3.216   0.055   2.299  0.0989  0.6967  0.6685
  128OSM   H14A13600   3.255   0.115   2.379  2.3651  0.9719 -0.5476
  128OSM   H14B13601   3.237  -0.048   2.324 -0.1099  0.9764  2.0487
  128OSM   H14C13602   3.111   0.078   2.289 -0.9276 -3.6498 -0.8929
  128OSM    C1313603   3.436   0.089   2.207 -0.4161  0.4281 -0.3946
  128OSM   H13A13604   3.494   0.113   2.119  0.1508  1.3183  0.2035
  128OSM   H13B13605   3.454  -0.016   2.227  1.6404  0.6801 -0.6507
  128OSM   H13C13606   3.471   0.152   2.287  1.1924 -2.2252  1.1568
  128OSM    C1213607   3.276   0.253   2.138  0.1645 -0.5176  0.3311
  128OSM   H12A13608   3.328   0.271   2.045 -0.6550  0.1181 -0.0168
  128OSM   H12B13609   3.341   0.299   2.210  3.3319 -3.2269 -0.5304
  128OSM    C1113610   3.132   0.306   2.139 -0.3424 -0.7041 -0.1193
  128OSM   H11A13611   3.133   0.415   2.116 -2.2400 -0.0187  2.6182
  128OSM   H11B13612   3.098   0.295   2.244 -1.0287 -0.4455 -0.3062
  128OSM      P13613   2.918   0.165   2.072 -0.1750  0.0111  0.5931
  128OSM    O1313614   2.818   0.216   1.973 -0.0986 -0.4314  0.2550
  128OSM    O1413615   2.949   0.026   2.063  0.2763  0.4611  0.0469
  128OSM    O1113616   2.864   0.202   2.219 -0.0716 -0.1027 -0.7687
  128OSM    O1213617   3.057   0.236   2.045 -0.2870  0.0367  0.0859
  128OSM    C1S13618   2.849   0.091   2.307  0.0254  0.4234 -0.1030
  128OSM    H1S13619   2.944   0.035   2.319 -0.0580 -0.1340 -1.8886
  128OSM    H1T13620   2.773   0.022   2.263  1.1747 -2.2003  1.7355
  128OSM     NF13621   2.774   0.024   2.538 -0.1386  0.3961  0.5703
  128OSM    HNF13622   2.677   0.002   2.538  0.3145 -1.9400  1.1714
  128OSM    C2S13623   2.804   0.137   2.454 -0.8085 -0.4634  0.5159
  128OSM    H2S13624   2.894   0.190   2.489 -1.1754 -0.1249  0.9567
  128OSM    C3S13625   2.683   0.237   2.437  0.0419 -0.7025  0.2936
  128OSM    H3S13626   2.587   0.189   2.409  0.2146  0.1172 -1.8613
  128OSM     O313627   2.694   0.336   2.342  0.2946 -0.5208  0.6951
  128OSM    HO313628   2.761   0.294   2.287 -1.8324 -0.5476 -2.1278
  128OSM    C4S13629   2.659   0.316   2.567  1.1960  0.4683  0.2523
  128OSM    H4S13630   2.739   0.386   2.597 -0.2470  1.1597  2.6695
  128OSM    C5S13631   2.550   0.311   2.641  0.6956  0.6781 -0.9105
  128OSM    H5S13632   2.479   0.230   2.618  0.9311  0.0299  0.5703
  128OSM    C6S13633   2.516   0.398   2.763 -0.1899  0.1033 -0.5532
  128OSM    H6S13634   2.419   0.451   2.756 -0.2069  0.0279 -0.9058
  128OSM    H6T13635   2.588   0.482   2.761  0.8980 -0.8130 -1.2201
  128OSM    C7S13636   2.517   0.321   2.897 -0.3783 -0.1214 -0.5679
  128OSM    H7S13637   2.617   0.273   2.909 -1.3740 -1.9341  0.9540
  128OSM    H7T13638   2.442   0.240   2.894  1.4132 -1.9336  0.5681
  128OSM    C8S13639   2.503   0.417   3.012  0.4516  0.3530  0.1137
  128OSM    H8S13640   2.399   0.457   3.010  0.3486  0.0739 -0.1856
  128OSM    H8T13641   2.576   0.501   3.011  0.0038  0.8106  2.3139
  128OSM    C9S13642   2.532   0.336   3.146 -0.2684 -1.1765  0.2389
  128OSM    H9S13643   2.471   0.245   3.164 -1.8016 -0.0849  0.7734
  128OSM    H9T13644   2.514   0.412   3.225 -0.4655 -1.8540  0.8488
  128OSM   C10S13645   2.680   0.304   3.168 -0.1407  0.5583 -0.4781
  128OSM   H10S13646   2.743   0.383   3.122 -0.6164  0.9913 -0.3874
  128OSM   H10T13647   2.708   0.208   3.120  0.1042  0.9375 -1.1027
  128OSM   C11S13648   2.721   0.299   3.319  0.5706 -0.5581 -0.0610
  128OSM   H11S13649   2.667   0.220   3.375 -0.9203  1.8751  2.1863
  128OSM   H11T13650   2.688   0.391   3.373 -2.9871 -1.5051 -0.3883
  128OSM   C12S13651   2.869   0.295   3.337  0.4512  0.1764  0.2920
  128OSM   H12S13652   2.931   0.380   3.299  0.0306  0.7854  0.9639
  128OSM   H12T13653   2.910   0.206   3.284  0.3497 -0.0942  0.6656
  128OSM   C13S13654   2.905   0.255   3.482  0.8421 -0.2912 -0.5478
  128OSM   H13S13655   3.015   0.252   3.491  1.0166  0.9317 -1.9333
  128OSM   H13T13656   2.867   0.155   3.510  0.2703  0.9475  3.8075
  128OSM   C14S13657   2.867   0.362   3.593 -0.8250  0.3193 -0.3686
  128OSM   H14S13658   2.892   0.330   3.697 -1.2065  0.0444 -0.3610
  128OSM   H14T13659   2.758   0.378   3.593 -0.8471  0.2940 -1.7648
  128OSM   C15S13660   2.928   0.505   3.575  0.0016  0.4310 -0.5175
  128OSM   H15S13661   2.894   0.545   3.477 -1.7816  0.1317 -0.0447
  128OSM   H15T13662   3.039   0.509   3.578  0.0895 -0.2639 -1.8491
  128OSM   C16S13663   2.877   0.596   3.689  0.0511 -0.0124  0.1043
  128OSM   H16S13664   2.766   0.591   3.697 -0.4698  3.5819 -2.3611
  128OSM   H16T13665   2.895   0.703   3.663 -1.4641 -0.3526 -2.6820
  128OSM   C17S13666   2.933   0.557   3.823 -0.3394 -0.5701 -0.0670
  128OSM   H17S13667   3.044   0.556   3.814  0.2643  2.7096  3.9049
  128OSM   H17T13668   2.898   0.457   3.856 -1.5301  0.1628  0.9862
  128OSM   C18S13669   2.902   0.661   3.925  0.1003  0.1305 -0.7713
  128OSM   H18S13670   2.794   0.685   3.921 -0.4335 -1.9100 -0.1360
  128OSM   H18T13671   2.955   0.754   3.896  1.0499 -0.8597 -2.3758
  128OSM   H18U13672   2.928   0.633   4.030 -0.3139 -1.5625 -1.0938
  128OSM    C1F13673   2.853  -0.067   2.591  0.3702 -0.0045 -0.2121
  128OSM     OF13674   2.973  -0.062   2.560  0.8098  0.3599  0.1247
  128OSM    C2F13675   2.781  -0.175   2.666 -0.2060 -0.2275  0.0747
  128OSM    H2F13676   2.703  -0.204   2.592 -0.7709  0.9091  0.2066
  128OSM    H2G13677   2.720  -0.135   2.749 -2.7577 -2.4264 -0.5774
  128OSM    C3F13678   2.877  -0.297   2.694 -0.5772  0.3696  0.4822
  128OSM    H3F13679   2.936  -0.312   2.600 -0.0105  1.4555  0.6463
  128OSM    H3G13680   2.836  -0.397   2.718 -0.1251  0.6806  2.7642
  128OSM    C4F13681   2.972  -0.267   2.811 -0.2109  0.8562  0.0025
  128OSM    H4F13682   2.996  -0.158   2.808 -1.9926  1.2751 -0.0301
  128OSM    H4G13683   3.070  -0.315   2.789 -1.1992 -1.3850  0.2580
  128OSM    C5F13684   2.922  -0.301   2.951  0.3043 -0.1014 -0.5606
  128OSM    H5F13685   2.954  -0.406   2.971  0.7984  0.4124  1.5385
  128OSM    H5G13686   2.812  -0.298   2.956  0.3839  2.2645  3.0463
  128OSM    C6F13687   2.990  -0.217   3.063 -0.3413  0.5887 -0.6011
  128OSM    H6F13688   2.954  -0.113   3.052  0.1554  0.5228 -3.5561
  128OSM    H6G13689   3.098  -0.221   3.037  0.5886 -0.4663  2.9157
  128OSM    C7F13690   2.949  -0.269   3.202 -0.2878  0.0900 -0.3621
  128OSM    H7F13691   2.990  -0.372   3.211  1.1814  0.6791 -0.0293
  128OSM    H7G13692   2.840  -0.265   3.224  0.0499  0.4551  1.4163
  128OSM    C8F13693   3.007  -0.197   3.325 -0.4277 -0.1403 -0.1960
  128OSM    H8F13694   2.973  -0.234   3.424  0.9510  0.7590  0.6584
  128OSM    H8G13695   2.966  -0.094   3.315 -2.2226 -0.8918 -0.9628
  128OSM    C9F13696   3.156  -0.197   3.323 -0.2307  0.2508  0.4388
  128OSM    H9F13697   3.211  -0.131   3.255 -1.1319  0.8922  0.3100
  128OSM   C10F13698   3.236  -0.274   3.398 -0.2934 -0.0726  0.6808
  128OSM   H10F13699   3.342  -0.251   3.383 -0.8143  0.8168 -2.2152
  128OSM   C11F13700   3.205  -0.380   3.497  0.1442 -0.0088  0.0559
  128OSM   H11F13701   3.286  -0.457   3.494  0.6449  0.4516  1.1446
  128OSM   H11G13702   3.106  -0.419   3.465 -0.7128  2.3911 -0.4096
  128OSM   C12F13703   3.197  -0.332   3.648  0.2039 -0.4839 -0.3043
  128OSM   H12F13704   3.162  -0.415   3.712 -2.7968  1.8019  1.3056
  128OSM   H12G13705   3.120  -0.252   3.653 -0.8388 -1.5149  0.6471
  128OSM   C13F13706   3.328  -0.287   3.720 -0.3165  0.1584 -0.0514
  128OSM   H13F13707   3.354  -0.191   3.672 -0.0632  0.5050  0.7551
  128OSM   H13G13708   3.411  -0.359   3.703 -1.3847 -0.8774 -1.0893
  128OSM   C14F13709   3.330  -0.257   3.877  0.2299  0.0563 -0.0718
  128OSM   H14F13710   3.295  -0.346   3.933 -2.7038  1.3994  0.3976
  128OSM   H14G13711   3.260  -0.174   3.901  0.5116  0.6495 -1.2100
  128OSM   C15F13712   3.463  -0.205   3.931 -0.2355  0.1358 -0.6583
  128OSM   H15F13713   3.476  -0.111   3.873 -0.7851  0.1503 -0.7654
  128OSM   H15G13714   3.546  -0.270   3.895 -0.8242  1.0458 -4.0237
  128OSM   C16F13715   3.474  -0.205   4.082  1.0229  0.0703  0.2515
  128OSM   H16F13716   3.444  -0.302   4.127  1.1429 -1.0989 -2.0321
  128OSM   H16G13717   3.408  -0.124   4.120  2.8943  1.3987  0.8220
  128OSM   C17F13718   3.617  -0.173   4.130 -0.7542 -0.5826  0.0002
  128OSM   H17F13719   3.665  -0.079   4.094  0.3105 -0.5113  1.5297
  128OSM   H17G13720   3.674  -0.257   4.084 -0.0840 -0.3367  0.3679
  128OSM   C18F13721   3.640  -0.183   4.284  0.4797  0.3894 -0.1082
  128OSM   H18F13722   3.610  -0.282   4.325  1.8258  0.1274  0.2872
  128OSM   H18G13723   3.581  -0.104   4.336  0.1931  0.3663 -0.3965
  128OSM   H18H13724   3.746  -0.165   4.312  0.5516  2.1519 -1.3589
  129OSM      N13725   3.012   4.403   2.115  0.4322 -1.3494 -0.0557
  129OSM    C1513726   3.104   4.480   2.032 -0.2123  0.4248  0.1782
  129OSM   H15A13727   3.056   4.557   1.974  1.0673  0.4602 -0.8778
  129OSM   H15B13728   3.167   4.411   1.977 -1.5690 -0.5961 -0.1309
  129OSM   H15C13729   3.183   4.533   2.084 -0.5294  0.6211  0.4588
  129OSM    C1413730   2.944   4.508   2.209  0.2272  0.8221  0.2570
  129OSM   H14A13731   2.899   4.591   2.156 -0.3331  1.8527  2.2407
  129OSM   H14B13732   3.010   4.564   2.274  0.3902 -0.3987  1.1944
  129OSM   H14C13733   2.876   4.453   2.273  1.8839 -0.7126  0.7734
  129OSM    C1313734   2.907   4.349   2.024  0.4382  0.5088 -0.5094
  129OSM   H13A13735   2.831   4.301   2.085 -2.2398  3.2009 -1.4876
  129OSM   H13B13736   2.949   4.277   1.956 -0.7828 -0.9208  0.1876
  129OSM   H13C13737   2.862   4.425   1.963 -0.8575  0.5185  0.4087
  129OSM    C1213738   3.081   4.294   2.192 -0.5477 -0.0769 -0.6067
  129OSM   H12A13739   3.152   4.346   2.255 -0.8492 -0.4697  0.0662
  129OSM   H12B13740   3.144   4.231   2.131 -1.3620 -2.7565  1.1700
  129OSM    C1113741   3.006   4.197   2.279 -0.1382  1.2951 -0.1676
  129OSM   H11A13742   3.082   4.120   2.305 -0.9664 -0.1740 -1.9065
  129OSM   H11B13743   2.930   4.150   2.213 -0.4840  2.3752 -0.5703
  129OSM      P13744   2.806   4.256   2.433 -0.3144  0.0730  0.1881
  129OSM    O1313745   2.729   4.343   2.341 -0.8294 -0.2545 -0.1387
  129OSM    O1413746   2.778   4.108   2.444 -0.1576 -0.2603 -0.2156
  129OSM    O1113747   2.806   4.311   2.573  0.7108 -0.1955  0.1581
  129OSM    O1213748   2.954   4.266   2.391 -0.5300  0.1596 -0.3266
  129OSM    C1S13749   2.892   4.422   2.608  0.6675 -0.0309  0.2955
  129OSM    H1S13750   2.887   4.507   2.536  0.8090  0.2867  0.6575
  129OSM    H1T13751   2.998   4.388   2.599  0.0284 -1.9839 -0.2641
  129OSM     NF13752   2.927   4.590   2.783  0.1209  0.2338  0.1281
  129OSM    HNF13753   3.020   4.592   2.820  0.8132 -0.7494 -1.4545
  129OSM    C2S13754   2.866   4.462   2.756 -0.1710 -0.1593 -1.1431
  129OSM    H2S13755   2.755   4.471   2.763 -0.2532 -0.7048 -1.6774
  129OSM    C3S13756   2.912   4.347   2.851 -0.2113  1.0513  0.3888
  129OSM    H3S13757   3.019   4.331   2.825 -0.0569  1.7360  0.5789
  129OSM     O313758   2.841   4.227   2.819  0.6806 -0.3619  0.4780
  129OSM    HO313759   2.813   4.237   2.727 -2.2363  1.2986  1.4290
  129OSM    C4S13760   2.897   4.376   2.997  0.0484  0.2562  0.2916
  129OSM    H4S13761   2.803   4.339   3.041  0.2814  0.3321  0.8581
  129OSM    C5S13762   2.972   4.433   3.083  0.3699  0.3390  0.3159
  129OSM    H5S13763   3.073   4.469   3.059  0.6437  0.1249  1.1225
  129OSM    C6S13764   2.950   4.453   3.233 -0.3181 -0.2387  0.0283
  129OSM    H6S13765   2.870   4.529   3.249  0.7646  0.6389  1.5835
  129OSM    H6T13766   3.043   4.489   3.283 -0.5470 -2.0659  1.8967
  129OSM    C7S13767   2.916   4.325   3.316  1.2046  0.5171  0.0578
  129OSM    H7S13768   3.011   4.269   3.330  0.1772 -1.0565  1.1477
  129OSM    H7T13769   2.852   4.249   3.266  1.0127  1.7163 -1.5783
  129OSM    C8S13770   2.866   4.357   3.454 -0.2739  0.3316  0.1353
  129OSM    H8S13771   2.827   4.261   3.493  2.1197 -0.0683  1.7789
  129OSM    H8T13772   2.778   4.425   3.451 -0.4512  0.0938 -0.0302
  129OSM    C9S13773   2.967   4.410   3.556  0.3433  0.8494 -0.0617
  129OSM    H9S13774   2.987   4.519   3.545 -0.7582  1.0140 -0.5778
  129OSM    H9T13775   3.069   4.371   3.538  0.1863 -0.0090  0.8181
  129OSM   C10S13776   2.924   4.375   3.693 -0.2856  0.1028 -0.0489
  129OSM   H10S13777   3.004   4.377   3.771 -0.4276 -2.5309  0.2493
  129OSM   H10T13778   2.899   4.268   3.683  0.4975 -0.0081 -0.9132
  129OSM   C11S13779   2.796   4.445   3.744  0.1048  0.0241 -0.0165
  129OSM   H11S13780   2.706   4.389   3.710 -0.1317  0.4556 -0.1080
  129OSM   H11T13781   2.786   4.544   3.694 -2.6917 -1.3748 -2.5712
  129OSM   C12S13782   2.808   4.453   3.899  0.6670  0.1465 -0.3698
  129OSM   H12S13783   2.886   4.526   3.930 -0.9503  1.7041  0.2529
  129OSM   H12T13784   2.817   4.353   3.946 -0.1816  0.9625  1.7106
  129OSM   C13S13785   2.672   4.496   3.957  0.2970 -0.4900 -0.1514
  129OSM   H13S13786   2.603   4.411   3.937 -0.6289 -0.0961  1.1885
  129OSM   H13T13787   2.639   4.593   3.915  1.4930 -0.2589 -0.5854
  129OSM   C14S13788   2.672   4.516   4.115 -0.1155 -0.2447  0.3706
  129OSM   H14S13789   2.759   4.579   4.145 -0.3553  0.2052  0.1298
  129OSM   H14T13790   2.682   4.413   4.155 -0.5812 -0.4982 -0.1582
  129OSM   C15S13791   2.547   4.581   4.179 -0.2568  0.2805  0.1216
  129OSM   H15S13792   2.474   4.498   4.181  1.4035 -1.2140  0.9453
  129OSM   H15T13793   2.510   4.668   4.120  0.4161  1.2607  1.0948
  129OSM   C16S13794   2.586   4.615   4.328  0.3446 -0.0465  0.7730
  129OSM   H16S13795   2.686   4.664   4.327  1.1838 -1.6771  0.7006
  129OSM   H16T13796   2.598   4.528   4.396  0.7498 -0.8074 -0.2367
  129OSM   C17S13797   2.479   4.710   4.385  0.0470  0.7183 -0.7719
  129OSM   H17S13798   2.480   4.799   4.318 -1.1380  1.4165  0.0887
  129OSM   H17T13799   2.517   4.744   4.484  2.2704  0.3359 -1.4436
  129OSM   C18S13800   2.338   4.648   4.420  0.2940  0.3962  0.6353
  129OSM   H18S13801   2.268   4.734   4.405  1.2591  1.3028  1.2015
  129OSM   H18T13802   2.320   4.598   4.517  0.2719  0.6995  0.7908
  129OSM   H18U13803   2.316   4.595   4.324  0.3794  1.7408 -0.1604
  129OSM    C1F13804   2.883   4.699   2.718 -0.3976  0.1637  0.4380
  129OSM     OF13805   2.790   4.695   2.642  0.2638 -0.4067 -0.2233
  129OSM    C2F13806   2.938   4.831   2.752  0.7347 -0.6780 -0.4718
  129OSM    H2F13807   2.965   4.867   2.650 -0.4757  0.7132 -0.3478
  129OSM    H2G13808   3.030   4.826   2.813  0.9164  1.0051 -0.5465
  129OSM    C3F13809   2.842   4.935   2.813  0.0163  0.1228  0.4870
  129OSM    H3F13810   2.757   4.939   2.742  0.1168 -0.1038  0.3531
  129OSM    H3G13811   2.895   5.033   2.820 -1.3700  0.8339  1.6139
  129OSM    C4F13812   2.790   4.897   2.951 -0.3035  0.2060 -0.1182
  129OSM    H4F13813   2.736   4.800   2.939  0.4616 -0.0122 -2.2319
  129OSM    H4G13814   2.715   4.974   2.981  2.5721  2.8007  0.9251
  129OSM    C5F13815   2.891   4.889   3.063  0.4248 -0.4639  0.1353
  129OSM    H5F13816   2.934   4.989   3.083 -1.3750  0.3146  0.3192
  129OSM    H5G13817   2.973   4.824   3.025  0.0985 -0.4639 -0.5922
  129OSM    C6F13818   2.846   4.834   3.203  0.3366  0.0235  0.4403
  129OSM    H6F13819   2.819   4.728   3.187  2.2738 -0.5371  0.6873
  129OSM    H6G13820   2.754   4.890   3.233  0.5125 -0.8446  2.7842
  129OSM    C7F13821   2.955   4.854   3.300 -1.2381 -0.2600 -0.3507
  129OSM    H7F13822   2.986   4.960   3.297  1.8998 -1.0196  1.1625
  129OSM    H7G13823   3.041   4.792   3.269  0.2096  1.7932 -0.5778
  129OSM    C8F13824   2.926   4.810   3.443  0.1664  0.8657 -0.4978
  129OSM    H8F13825   3.027   4.821   3.489 -1.1249  0.9198  2.5381
  129OSM    H8G13826   2.885   4.707   3.431 -3.9059  2.4047 -1.2769
  129OSM    C9F13827   2.821   4.909   3.490 -0.0971  0.5114 -0.3516
  129OSM    H9F13828   2.763   4.965   3.414  0.2295  0.8175 -0.3763
  129OSM   C10F13829   2.793   4.941   3.618  0.1438 -0.3998 -0.1189
  129OSM   H10F13830   2.720   5.022   3.634 -0.2217 -0.6457 -0.5302
  129OSM   C11F13831   2.864   4.879   3.736  0.3673 -0.1817  0.1995
  129OSM   H11F13832   2.970   4.852   3.721  0.4306  0.5900 -0.8042
  129OSM   H11G13833   2.827   4.777   3.760  3.8265 -0.9197  3.2317
  129OSM   C12F13834   2.862   4.963   3.867  0.4381  0.6581  0.1005
  129OSM   H12F13835   2.879   5.072   3.849 -1.7025  1.2389  1.2006
  129OSM   H12G13836   2.943   4.926   3.934  0.1744  0.1169  0.1260
  129OSM   C13F13837   2.746   4.936   3.959 -0.2162  0.1468  0.5697
  129OSM   H13F13838   2.759   4.831   3.992 -1.6465  0.7481  3.3549
  129OSM   H13G13839   2.644   4.945   3.918 -1.6966 -2.4541  3.3017
  129OSM   C14F13840   2.758   5.030   4.076  0.6079 -0.1598 -0.1479
  129OSM   H14F13841   2.745   5.135   4.043 -1.1152 -0.1879  0.3411
  129OSM   H14G13842   2.855   5.008   4.124 -0.7427 -0.0077  2.8958
  129OSM   C15F13843   2.656   5.011   4.185 -0.5880 -0.3958 -0.0597
  129OSM   H15F13844   2.668   4.912   4.233  0.4816 -0.1327  0.2375
  129OSM   H15G13845   2.550   5.013   4.153 -1.1492 -0.1550  1.7246
  129OSM   C16F13846   2.661   5.123   4.296 -0.8490 -0.4210  0.7296
  129OSM   H16F13847   2.657   5.225   4.253 -1.2202  0.5806  3.0045
  129OSM   H16G13848   2.759   5.113   4.348 -0.2798  0.6843 -0.1018
  129OSM   C17F13849   2.546   5.112   4.395  0.2412 -0.6932  0.6446
  129OSM   H17F13850   2.545   5.017   4.453  2.1673 -1.1496  0.0068
  129OSM   H17G13851   2.454   5.116   4.333  0.9171 -0.3527 -0.3657
  129OSM   C18F13852   2.550   5.235   4.485 -0.2321  0.4140 -0.9206
  129OSM   H18F13853   2.471   5.240   4.563  0.6363  0.0656 -0.0031
  129OSM   H18G13854   2.539   5.324   4.420 -1.5403  0.9228 -0.0453
  129OSM   H18H13855   2.643   5.246   4.545 -0.1258 -1.6212 -0.6352
  130OSM      N13856   4.369   0.784   2.171  0.1736 -0.5650 -0.2435
  130OSM    C1513857   4.432   0.725   2.049 -0.0421  0.1578  0.2722
  130OSM   H15A13858   4.494   0.639   2.067 -1.9558 -1.4271 -0.2703
  130OSM   H15B13859   4.498   0.794   1.998 -1.2344  3.3979  2.7505
  130OSM   H15C13860   4.359   0.680   1.983  2.1501 -1.3875 -1.2564
  130OSM    C1413861   4.479   0.857   2.243 -0.5676  0.2166  0.6478
  130OSM   H14A13862   4.518   0.948   2.199 -0.3105 -1.4488 -3.0006
  130OSM   H14B13863   4.562   0.788   2.247 -0.3737  0.2461 -1.3724
  130OSM   H14C13864   4.459   0.881   2.346  2.5137 -1.4994  1.7713
  130OSM    C1313865   4.263   0.887   2.133  0.2581  0.4194  0.5320
  130OSM   H13A13866   4.196   0.900   2.217 -2.0286 -2.2129 -0.7290
  130OSM   H13B13867   4.196   0.851   2.056 -1.7112  2.7304  1.0540
  130OSM   H13C13868   4.305   0.984   2.109  0.2023  1.3388  3.6558
  130OSM    C1213869   4.312   0.678   2.260 -0.4920  0.2743  0.7688
  130OSM   H12A13870   4.395   0.618   2.292  0.3504  2.2047  2.4116
  130OSM   H12B13871   4.255   0.608   2.201  0.0785 -2.2334  3.0316
  130OSM    C1113872   4.226   0.712   2.392 -0.1053 -0.5140  0.7668
  130OSM   H11A13873   4.285   0.793   2.442  0.7586 -1.6091  1.5799
  130OSM   H11B13874   4.229   0.619   2.453  0.9962 -0.1818  1.2523
  130OSM      P13875   4.013   0.865   2.418  0.4609 -0.3226 -0.0561
  130OSM    O1313876   4.107   0.982   2.416  0.0795 -0.0401  0.5504
  130OSM    O1413877   3.880   0.892   2.357 -0.1894  0.3778 -0.1930
  130OSM    O1113878   3.996   0.815   2.570 -0.3193 -0.3805 -0.0805
  130OSM    O1213879   4.087   0.741   2.353  0.4480 -0.0905  0.0990
  130OSM    C1S13880   3.936   0.680   2.573  0.3387 -0.1323 -0.1348
  130OSM    H1S13881   4.008   0.607   2.532  2.0123  0.6264  1.3332
  130OSM    H1T13882   3.837   0.666   2.525  1.4554 -2.4050 -1.9240
  130OSM     NF13883   3.886   0.494   2.735  0.0824 -0.3672 -0.0157
  130OSM    HNF13884   3.792   0.476   2.763  0.0221 -1.8656 -1.0471
  130OSM    C2S13885   3.912   0.634   2.722 -0.2522 -0.2504 -0.0427
  130OSM    H2S13886   4.003   0.659   2.780 -0.5457 -0.2542  0.4267
  130OSM    C3S13887   3.793   0.712   2.777 -0.3911  0.3033  0.4232
  130OSM    H3S13888   3.697   0.676   2.734 -0.2744 -1.6464  1.7070
  130OSM     O313889   3.797   0.852   2.742 -0.0495 -0.0543  0.4194
  130OSM    HO313890   3.862   0.857   2.672 -0.4851  1.0700  0.0774
  130OSM    C4S13891   3.793   0.712   2.925 -0.0597 -0.4162 -0.9099
  130OSM    H4S13892   3.872   0.776   2.967 -2.5146  0.8293  2.2344
  130OSM    C5S13893   3.694   0.664   3.004 -0.6093  0.1825  0.2276
  130OSM    H5S13894   3.607   0.616   2.957  0.7203 -3.1549  0.9143
  130OSM    C6S13895   3.690   0.684   3.157  0.2003  0.0568  0.0120
  130OSM    H6S13896   3.587   0.717   3.182 -0.2056  0.1718 -1.6645
  130OSM    H6T13897   3.770   0.752   3.193  1.1098  0.2826 -2.2116
  130OSM    C7S13898   3.716   0.556   3.240 -0.4351  0.3150  0.0050
  130OSM    H7S13899   3.808   0.506   3.202 -2.5175 -4.3890  0.5354
  130OSM    H7T13900   3.630   0.489   3.221  0.1492 -0.3960 -0.1409
  130OSM    C8S13901   3.735   0.601   3.388 -0.5571  0.4515 -0.3508
  130OSM    H8S13902   3.664   0.682   3.415 -0.2615  0.7474 -0.4485
  130OSM    H8T13903   3.838   0.643   3.384 -0.8690  1.1557 -1.1713
  130OSM    C9S13904   3.739   0.495   3.502  0.6341  0.1981 -0.0949
  130OSM    H9S13905   3.817   0.417   3.488  0.1649 -0.4109  0.6115
  130OSM    H9T13906   3.639   0.447   3.498  0.8168 -0.1102 -2.9592
  130OSM   C10S13907   3.760   0.569   3.632 -0.5862 -0.9528 -0.5935
  130OSM   H10S13908   3.663   0.610   3.667  0.7792  4.2479 -2.0280
  130OSM   H10T13909   3.837   0.646   3.615 -0.5153 -0.3736  2.0061
  130OSM   C11S13910   3.824   0.470   3.732 -0.2984  0.0914 -0.4774
  130OSM   H11S13911   3.911   0.420   3.685  0.4471  0.7980  0.1177
  130OSM   H11T13912   3.751   0.393   3.767  0.4894 -0.1545  0.6950
  130OSM   C12S13913   3.871   0.547   3.860 -1.0257  0.3793  0.9741
  130OSM   H12S13914   3.779   0.597   3.895 -0.2720 -0.0612  3.8512
  130OSM   H12T13915   3.951   0.619   3.833 -0.0279 -1.1438 -0.3535
  130OSM   C13S13916   3.912   0.456   3.972 -0.6220  0.0849  0.4406
  130OSM   H13S13917   3.998   0.387   3.956 -0.2989  0.5411  0.1951
  130OSM   H13T13918   3.824   0.393   3.997 -0.4584 -1.2080 -1.9550
  130OSM   C14S13919   3.954   0.536   4.099  0.3976 -0.4942  0.8035
  130OSM   H14S13920   3.910   0.494   4.192  1.5532  1.1866  2.1877
  130OSM   H14T13921   3.914   0.640   4.091 -1.3399 -1.1750  0.1983
  130OSM   C15S13922   4.108   0.540   4.106 -0.6625  0.0020  0.3762
  130OSM   H15S13923   4.139   0.615   4.030 -1.2248  1.6931  1.7584
  130OSM   H15T13924   4.153   0.441   4.081 -0.4502  0.1274  0.2559
  130OSM   C16S13925   4.152   0.595   4.237 -0.4996 -0.0781 -0.2148
  130OSM   H16S13926   4.102   0.687   4.275 -0.4935 -0.2981  0.3286
  130OSM   H16T13927   4.254   0.633   4.216 -1.5202  2.8472 -0.3556
  130OSM   C17S13928   4.166   0.486   4.352 -0.7496 -0.0274 -0.4860
  130OSM   H17S13929   4.264   0.437   4.337 -1.6223 -1.8277 -0.5124
  130OSM   H17T13930   4.082   0.418   4.327 -0.7483  0.8141 -3.0780
  130OSM   C18S13931   4.160   0.545   4.495  0.1004 -0.7078 -0.0460
  130OSM   H18S13932   4.176   0.476   4.581 -1.3103  1.0061  1.6907
  130OSM   H18T13933   4.064   0.588   4.530 -0.0271 -2.7348  2.3397
  130OSM   H18U13934   4.235   0.627   4.498  0.2340 -0.7968 -0.7245
  130OSM    C1F13935   3.986   0.407   2.718  0.7063 -0.4359 -0.8278
  130OSM     OF13936   4.103   0.449   2.707  0.2965  0.0233  0.2761
  130OSM    C2F13937   3.950   0.254   2.711  0.2368  0.0262 -0.1069
  130OSM    H2F13938   3.922   0.227   2.607 -2.3267 -0.0153  0.5365
  130OSM    H2G13939   3.857   0.235   2.768  1.1365  0.6139  1.6602
  130OSM    C3F13940   4.055   0.170   2.784  0.1485  0.1683 -0.6316
  130OSM    H3F13941   4.151   0.188   2.731  0.7167  0.5744  0.4901
  130OSM    H3G13942   4.025   0.065   2.762 -1.0459  0.8295 -2.2677
  130OSM    C4F13943   4.075   0.198   2.938  1.6127  0.1202 -0.2006
  130OSM    H4F13944   4.123   0.297   2.951  1.5540  0.0230  0.7958
  130OSM    H4G13945   4.137   0.113   2.973  2.9367  0.3090 -1.9266
  130OSM    C5F13946   3.951   0.197   3.023 -0.2153 -0.4398  0.2879
  130OSM    H5F13947   3.898   0.102   3.000 -1.0263  0.2471 -0.7430
  130OSM    H5G13948   3.883   0.279   2.993 -0.5680 -1.1942 -1.0753
  130OSM    C6F13949   3.987   0.213   3.170  0.4889 -0.2054  0.3481
  130OSM    H6F13950   4.023   0.318   3.182  0.3529 -0.1885  0.6110
  130OSM    H6G13951   4.068   0.144   3.203 -0.2095 -0.3125  1.9464
  130OSM    C7F13952   3.870   0.179   3.268  0.6059 -0.5038 -0.7294
  130OSM    H7F13953   3.825   0.085   3.231  3.1928 -0.9816 -2.9409
  130OSM    H7G13954   3.793   0.257   3.247 -0.3109 -1.7782 -2.3064
  130OSM    C8F13955   3.900   0.168   3.419 -0.2464 -0.4021  0.7201
  130OSM    H8F13956   3.804   0.169   3.475 -1.2426 -0.9822 -0.9042
  130OSM    H8G13957   3.958   0.260   3.446 -0.6104 -0.3404  1.3137
  130OSM    C9F13958   3.990   0.051   3.462  0.1037 -0.1180 -0.1201
  130OSM    H9F13959   4.078   0.039   3.397  0.3230  0.5761  0.0414
  130OSM   C10F13960   3.960  -0.035   3.563 -0.3666 -0.1990  0.2685
  130OSM   H10F13961   4.030  -0.117   3.585 -0.9847 -1.4883 -2.1959
  130OSM   C11F13962   3.850  -0.022   3.668  0.0141  1.0663 -0.7765
  130OSM   H11F13963   3.762  -0.083   3.637  1.9544 -2.1384 -0.4102
  130OSM   H11G13964   3.824   0.083   3.692  0.4356  1.0563 -0.2710
  130OSM   C12F13965   3.896  -0.101   3.794  0.4037  0.4038 -0.1960
  130OSM   H12F13966   3.909  -0.210   3.780  1.5927  0.2273  1.8736
  130OSM   H12G13967   3.804  -0.098   3.857  0.7386  2.3772  0.2671
  130OSM   C13F13968   4.010  -0.034   3.862 -0.5031  0.4620  0.2756
  130OSM   H13F13969   3.980   0.071   3.882  1.3667  0.9129  0.9254
  130OSM   H13G13970   4.103  -0.041   3.802  0.2439  0.4738  1.3889
  130OSM   C14F13971   4.039  -0.093   3.997 -0.0065  0.8692 -0.0890
  130OSM   H14F13972   4.068  -0.198   3.979  1.5623  1.0530  1.0816
  130OSM   H14G13973   3.945  -0.088   4.055  0.3169 -0.8455  0.6540
  130OSM   C15F13974   4.144  -0.020   4.091  0.0339 -0.1860  0.2456
  130OSM   H15F13975   4.130   0.089   4.073  2.6780  0.2948  0.7783
  130OSM   H15G13976   4.246  -0.055   4.067  0.3771  1.2188 -0.4351
  130OSM   C16F13977   4.110  -0.058   4.235 -0.1719 -0.1876 -0.5804
  130OSM   H16F13978   4.200  -0.042   4.297  0.6151 -0.5579 -1.5897
  130OSM   H16G13979   4.088  -0.167   4.241 -1.6429  0.1637  1.7611
  130OSM   C17F13980   3.998   0.026   4.305 -0.6148 -0.0196  0.5000
  130OSM   H17F13981   3.905   0.031   4.244 -0.8843  1.3401  0.9884
  130OSM   H17G13982   4.051   0.124   4.306  0.8021 -0.7580  0.1067
  130OSM   C18F13983   3.965  -0.026   4.445  0.9581 -0.0895  0.1712
  130OSM   H18F13984   3.948  -0.135   4.433  2.9462 -0.4608  0.4538
  130OSM   H18G13985   3.871   0.021   4.482 -0.5235 -1.5891 -1.5400
  130OSM   H18H13986   4.040  -0.004   4.524 -0.2314 -0.5629  1.4857
  131OSM      N13987   1.518   4.651   2.118 -0.0083  0.2704 -0.2637
  131OSM    C1513988   1.430   4.674   1.996 -0.1762  0.1696  0.0404
  131OSM   H15A13989   1.456   4.773   1.962  0.1026  0.5242  1.2385
  131OSM   H15B13990   1.326   4.675   2.025 -0.4506 -4.3890 -0.0063
  131OSM   H15C13991   1.445   4.603   1.916 -1.1976  2.4001 -2.2876
  131OSM    C1413992   1.510   4.508   2.156 -0.0414 -0.5439  0.2636
  131OSM   H14A13993   1.528   4.439   2.075  0.2352 -1.4703  1.0968
  131OSM   H14B13994   1.408   4.487   2.183 -0.2658 -0.3699 -0.4339
  131OSM   H14C13995   1.577   4.483   2.237  3.3366  0.4622 -1.9923
  131OSM    C1313996   1.659   4.675   2.075 -0.6680  0.1245 -0.3002
  131OSM   H13A13997   1.732   4.644   2.149  0.8994 -0.9913 -2.2370
  131OSM   H13B13998   1.669   4.781   2.057 -1.6528 -0.0468 -2.1081
  131OSM   H13C13999   1.682   4.626   1.982  0.0984  0.2339 -0.1711
  131OSM    C1214000   1.465   4.735   2.231  0.2045 -0.3523 -0.7565
  131OSM   H12A14001   1.363   4.703   2.244 -0.4006  0.7705 -2.4389
  131OSM   H12B14002   1.479   4.835   2.191  2.4405 -1.1324 -2.1068
  131OSM    C1114003   1.534   4.736   2.377  0.5691 -0.0765 -0.2939
  131OSM   H11A14004   1.561   4.631   2.399  1.5550  0.2295  0.0328
  131OSM   H11B14005   1.463   4.752   2.460 -0.3415 -1.4994 -0.7789
  131OSM      P14006   1.652   4.973   2.365 -0.1260 -0.1355 -0.3334
  131OSM    O1314007   1.793   5.014   2.344  0.7082  0.5082 -0.1413
  131OSM    O1414008   1.544   5.010   2.273 -0.3844 -0.5304 -0.0889
  131OSM    O1114009   1.608   5.013   2.508  0.0370 -0.1734  0.6874
  131OSM    O1214010   1.649   4.813   2.376 -0.1691 -0.2373 -0.2151
  131OSM    C1S14011   1.682   4.987   2.626 -0.1375 -0.5999 -0.3548
  131OSM    H1S14012   1.763   5.064   2.630 -1.8865  1.2753  0.7501
  131OSM    H1T14013   1.723   4.884   2.630  1.3515 -0.1951 -2.7923
  131OSM     NF14014   1.679   4.996   2.876 -0.0242 -0.2975 -0.1922
  131OSM    HNF14015   1.689   4.898   2.891 -2.1059 -0.3578  1.0838
  131OSM    C2S14016   1.604   5.024   2.758 -0.1806 -0.6010  0.1650
  131OSM    H2S14017   1.596   5.134   2.748 -0.4750 -0.8311 -2.8751
  131OSM    C3S14018   1.465   4.952   2.759 -0.6069 -0.7416 -0.6781
  131OSM    H3S14019   1.482   4.848   2.795 -0.0211 -0.4274 -0.0224
  131OSM     O314020   1.405   4.932   2.634  0.1595  0.5243  0.0650
  131OSM    HO314021   1.467   4.962   2.567 -0.7763  1.1484 -0.5526
  131OSM    C4S14022   1.381   5.018   2.861 -0.1730  0.7612  0.2931
  131OSM    H4S14023   1.405   4.996   2.966  1.6414  1.2021  0.0061
  131OSM    C5S14024   1.275   5.099   2.837  0.1911  0.0098  0.1645
  131OSM    H5S14025   1.250   5.132   2.735  1.0289  0.3414  0.0582
  131OSM    C6S14026   1.201   5.164   2.956  0.3820 -0.7734 -0.2479
  131OSM    H6S14027   1.103   5.115   2.974  0.4651 -0.1794  2.1287
  131OSM    H6T14028   1.173   5.270   2.938  1.6303 -0.2560  0.7085
  131OSM    C7S14029   1.285   5.165   3.087 -0.7530 -0.2645 -0.9603
  131OSM    H7S14030   1.386   5.207   3.068 -1.1273  2.1334  1.6671
  131OSM    H7T14031   1.295   5.062   3.127  2.3073 -0.1970 -1.3025
  131OSM    C8S14032   1.234   5.257   3.198 -0.0625 -0.2714  0.1740
  131OSM    H8S14033   1.204   5.354   3.152  1.1475 -0.9945 -2.3321
  131OSM    H8T14034   1.314   5.288   3.269 -0.2514 -0.5637  0.5121
  131OSM    C9S14035   1.115   5.190   3.266  0.4678 -0.4546 -0.9985
  131OSM    H9S14036   1.132   5.081   3.275 -2.0566 -1.0268 -2.1998
  131OSM    H9T14037   1.024   5.203   3.204  0.4742  1.3781 -0.6913
  131OSM   C10S14038   1.092   5.254   3.412 -0.3121  0.8714 -0.1347
  131OSM   H10S14039   1.036   5.347   3.387 -0.8484  1.3533  2.5028
  131OSM   H10T14040   1.190   5.288   3.453  1.0544 -0.4432 -2.1132
  131OSM   C11S14041   0.995   5.175   3.497 -0.0895  0.3378  0.2415
  131OSM   H11S14042   1.002   5.066   3.479 -1.6355  0.1485  0.6419
  131OSM   H11T14043   0.892   5.192   3.458  0.0828  0.8711  0.0112
  131OSM   C12S14044   1.003   5.210   3.643 -0.2198  0.1611 -0.4965
  131OSM   H12S14045   0.995   5.320   3.647 -0.5573  0.1327 -0.3138
  131OSM   H12T14046   1.105   5.183   3.676 -0.0632  1.1612 -0.1435
  131OSM   C13S14047   0.902   5.137   3.724  1.0521 -0.1513 -0.2931
  131OSM   H13S14048   0.901   5.030   3.696 -0.8602 -0.3997  0.5647
  131OSM   H13T14049   0.803   5.185   3.705  0.0307 -1.4889  1.4369
  131OSM   C14S14050   0.923   5.142   3.877 -0.2626  0.3147 -0.1596
  131OSM   H14S14051   0.905   5.245   3.913 -2.2175 -0.1623  0.3405
  131OSM   H14T14052   1.026   5.109   3.904 -0.2290  1.1060  0.7134
  131OSM   C15S14053   0.827   5.054   3.945  0.1409  0.1273 -0.2757
  131OSM   H15S14054   0.848   4.948   3.919  0.4123  0.5417 -1.8607
  131OSM   H15T14055   0.728   5.085   3.907 -0.7475  0.2370  1.9424
  131OSM   C16S14056   0.827   5.058   4.097  1.0221  0.6705  0.6303
  131OSM   H16S14057   0.814   5.166   4.120 -0.8493  0.2079  2.0117
  131OSM   H16T14058   0.916   5.008   4.138 -0.3209 -0.6564  2.0437
  131OSM   C17S14059   0.698   5.005   4.159 -0.1705  0.5107 -0.0812
  131OSM   H17S14060   0.670   4.902   4.128 -0.3171  0.7903 -0.8825
  131OSM   H17T14061   0.605   5.065   4.144 -1.1014 -0.7763  0.3396
  131OSM   C18S14062   0.723   5.010   4.312  0.2991 -0.1549 -0.6174
  131OSM   H18S14063   0.824   4.974   4.342 -0.0319  1.5456  3.0578
  131OSM   H18T14064   0.649   4.950   4.371  2.2344 -1.5796  0.4931
  131OSM   H18U14065   0.733   5.115   4.345  1.0860  0.2854 -2.2052
  131OSM    C1F14066   1.759   5.081   2.933 -0.7350  0.9270  0.5618
  131OSM     OF14067   1.782   5.188   2.884 -0.2117 -0.1805 -0.3707
  131OSM    C2F14068   1.834   5.036   3.048  0.1308 -0.0963 -0.5901
  131OSM    H2F14069   1.941   5.064   3.062 -0.0828 -0.6653  2.9393
  131OSM    H2G14070   1.849   4.926   3.038 -1.3382 -0.1872 -2.6144
  131OSM    C3F14071   1.761   5.082   3.175  0.0114 -0.0724  0.6238
  131OSM    H3F14072   1.737   5.191   3.171 -1.9038 -0.4826 -0.3168
  131OSM    H3G14073   1.829   5.075   3.262 -0.0273  0.7720  0.7378
  131OSM    C4F14074   1.622   5.021   3.206  0.6403 -0.0702 -0.0535
  131OSM    H4F14075   1.643   4.916   3.236  2.3147 -0.1217 -1.2563
  131OSM    H4G14076   1.560   5.022   3.114 -0.0818  0.2243  0.4281
  131OSM    C5F14077   1.541   5.102   3.313 -0.0902  0.6003  0.4907
  131OSM    H5F14078   1.433   5.075   3.304  0.2384 -0.6813  0.0816
  131OSM    H5G14079   1.560   5.207   3.284  0.3412  0.6707  1.0165
  131OSM    C6F14080   1.588   5.065   3.455 -0.5357 -0.0566  0.0968
  131OSM    H6F14081   1.695   5.092   3.460 -0.7104  0.9674 -1.3509
  131OSM    H6G14082   1.575   4.955   3.466 -1.7481 -0.1957 -2.2178
  131OSM    C7F14083   1.513   5.139   3.567 -0.0059  0.1076  0.7935
  131OSM    H7F14084   1.522   5.248   3.546  0.1549 -0.3056 -1.6891
  131OSM    H7G14085   1.559   5.122   3.666 -1.1705  0.3972  1.3955
  131OSM    C8F14086   1.367   5.101   3.585  0.3778  0.0985 -0.7770
  131OSM    H8F14087   1.324   5.117   3.483  2.0781  0.7082 -1.4273
  131OSM    H8G14088   1.325   5.176   3.655  1.4390 -0.4839  0.5063
  131OSM    C9F14089   1.343   4.954   3.627  0.4706 -0.2214 -0.7235
  131OSM    H9F14090   1.364   4.885   3.543  0.9649 -0.8415 -0.0986
  131OSM   C10F14091   1.330   4.911   3.753  0.1823  0.8088  0.0225
  131OSM   H10F14092   1.337   4.803   3.774  2.0812  1.1514  1.3758
  131OSM   C11F14093   1.324   4.998   3.880  0.9443 -0.4130  0.2760
  131OSM   H11F14094   1.221   5.008   3.922  1.4140  1.1096  1.1290
  131OSM   H11G14095   1.360   5.098   3.849  1.0124 -0.9070 -1.3683
  131OSM   C12F14096   1.424   4.954   3.991 -0.2314  0.0531 -0.0441
  131OSM   H12F14097   1.528   4.969   3.952 -0.0925 -1.1668 -0.1870
  131OSM   H12G14098   1.411   4.847   4.016  0.9630 -0.2622 -0.6818
  131OSM   C13F14099   1.407   5.040   4.125 -0.0062 -0.0667  0.8766
  131OSM   H13F14100   1.415   5.146   4.093  0.9658 -0.5401 -0.5254
  131OSM   H13G14101   1.482   5.002   4.198  1.4615 -1.1172 -1.0578
  131OSM   C14F14102   1.269   5.027   4.190  0.4061 -0.1188 -0.0479
  131OSM   H14F14103   1.265   4.919   4.218 -0.5572 -0.1954 -0.4350
  131OSM   H14G14104   1.181   5.060   4.130  0.5333 -0.1332 -0.2418
  131OSM   C15F14105   1.263   5.098   4.329 -0.1436 -0.4136 -0.1854
  131OSM   H15F14106   1.280   5.204   4.303  1.4393 -0.5421  0.2139
  131OSM   H15G14107   1.354   5.075   4.389 -1.2740 -0.6425  1.5293
  131OSM   C16F14108   1.131   5.072   4.393  0.0599  0.1575 -0.4078
  131OSM   H16F14109   1.067   5.060   4.303 -0.1377 -2.2979 -0.0124
  131OSM   H16G14110   1.088   5.157   4.450  2.9357 -0.0426  2.3755
  131OSM   C17F14111   1.130   4.948   4.483 -0.2126 -0.3157  0.4085
  131OSM   H17F14112   1.178   4.857   4.441 -1.0756  0.6317 -2.9018
  131OSM   H17G14113   1.022   4.926   4.497 -0.3122  0.8737  1.8306
  131OSM   C18F14114   1.189   4.977   4.612 -0.8550 -0.0248 -0.3368
  131OSM   H18F14115   1.173   4.903   4.693  1.1794 -0.1882 -0.0441
  131OSM   H18G14116   1.151   5.074   4.650  0.1038  0.2654 -0.0972
  131OSM   H18H14117   1.299   4.990   4.618 -0.1659 -4.1166 -1.1419
  132OSM      N14118   0.841   5.046   2.095 -0.0047 -0.4361 -0.5484
  132OSM    C1514119   0.814   5.193   2.121 -0.1304  0.9876 -0.2241
  132OSM   H15A14120   0.780   5.228   2.025 -1.6493 -1.9347 -0.8534
  132OSM   H15B14121   0.904   5.247   2.149  0.5827 -0.5165  0.5017
  132OSM   H15C14122   0.747   5.209   2.204  1.3456  2.0667  0.8192
  132OSM    C1414123   0.930   5.027   1.976  0.6570 -0.0423 -0.5141
  132OSM   H14A14124   0.864   5.045   1.892 -0.2665 -1.5631 -0.1480
  132OSM   H14B14125   0.972   4.928   1.977  2.3263  0.6390 -0.3322
  132OSM   H14C14126   1.017   5.090   1.971  0.8862 -0.4281 -1.6620
  132OSM    C1314127   0.930   4.989   2.210  0.5246  0.5305 -0.8414
  132OSM   H13A14128   0.949   4.883   2.200 -1.2320 -0.3776  3.3462
  132OSM   H13B14129   0.879   5.011   2.303  0.2717 -0.4216 -0.7404
  132OSM   H13C14130   1.023   5.042   2.203 -0.8878  3.0598 -1.9293
  132OSM    C1214131   0.713   4.968   2.081  0.1073  0.6064 -0.1506
  132OSM   H12A14132   0.647   5.022   2.016 -1.9392  0.8500  1.9969
  132OSM   H12B14133   0.655   4.965   2.172 -0.6667 -0.1865 -0.6635
  132OSM    C1114134   0.727   4.821   2.035  0.3377 -0.0267 -0.6759
  132OSM   H11A14135   0.795   4.812   1.948  0.2217 -3.5819 -0.5656
  132OSM   H11B14136   0.632   4.783   1.991 -0.3503  0.9410 -0.0616
  132OSM      P14137   0.751   4.590   2.167  0.0878 -0.0968  0.0098
  132OSM    O1314138   0.605   4.572   2.185  0.2852  0.2166  0.2009
  132OSM    O1414139   0.830   4.533   2.057 -0.2078  0.4981  0.0527
  132OSM    O1114140   0.815   4.558   2.306  0.3342 -0.2934 -0.4841
  132OSM    O1214141   0.770   4.747   2.150  0.3298 -0.0307  0.0996
  132OSM    C1S14142   0.865   4.671   2.389  0.2580  0.6466 -0.0016
  132OSM    H1S14143   0.785   4.745   2.406  0.9183  1.1257  1.1694
  132OSM    H1T14144   0.951   4.717   2.335  0.5978 -0.7859 -0.7459
  132OSM     NF14145   0.941   4.748   2.606  0.1180  0.0620  0.4628
  132OSM    HNF14146   1.039   4.765   2.604  0.3471 -0.9706 -2.5673
  132OSM    C2S14147   0.907   4.626   2.535 -0.1359 -0.1800 -1.2866
  132OSM    H2S14148   0.828   4.578   2.597  1.5455 -0.7227  0.5352
  132OSM    C3S14149   1.025   4.531   2.522  0.2214  0.4212 -0.0584
  132OSM    H3S14150   1.122   4.570   2.485 -0.1656  0.4443 -1.0769
  132OSM     O314151   1.005   4.416   2.437 -0.3957  0.6170  0.2849
  132OSM    HO314152   0.947   4.453   2.370  0.5638 -1.5117 -1.8440
  132OSM    C4S14153   1.059   4.475   2.662 -0.2376  0.0657 -0.2508
  132OSM    H4S14154   1.158   4.503   2.700 -0.1545 -0.6361  0.0730
  132OSM    C5S14155   0.981   4.397   2.740  0.0880 -0.4225 -0.8383
  132OSM    H5S14156   0.885   4.354   2.709  0.7854 -3.1419  0.5001
  132OSM    C6S14157   1.041   4.359   2.873  0.2261  0.6447  0.5044
  132OSM    H6S14158   1.138   4.405   2.900  2.0760 -2.9867  0.6297
  132OSM    H6T14159   1.051   4.249   2.868 -0.2952  0.5847  0.6859
  132OSM    C7S14160   0.932   4.389   2.975 -0.3910 -0.0223 -0.0928
  132OSM    H7S14161   0.841   4.332   2.948 -0.1239 -0.2691 -0.4679
  132OSM    H7T14162   0.914   4.499   2.974  0.4720  0.2276  2.5804
  132OSM    C8S14163   0.965   4.342   3.116  0.2423  0.2637  0.6318
  132OSM    H8S14164   1.049   4.407   3.149  1.5432 -0.0272 -1.9129
  132OSM    H8T14165   0.998   4.236   3.106 -0.0932  0.3309 -1.5814
  132OSM    C9S14166   0.842   4.346   3.217  0.0353  0.3709 -0.4833
  132OSM    H9S14167   0.757   4.288   3.174  0.8119 -2.0576  1.0897
  132OSM    H9T14168   0.814   4.453   3.233  0.2534  0.5219 -1.0919
  132OSM   C10S14169   0.891   4.281   3.351 -0.3775 -0.9326  0.1726
  132OSM   H10S14170   0.989   4.332   3.364 -0.0689 -1.4977  0.1053
  132OSM   H10T14171   0.909   4.173   3.337 -0.9001 -1.0419  0.3203
  132OSM   C11S14172   0.773   4.305   3.448 -0.8528  0.0201  1.1080
  132OSM   H11S14173   0.678   4.271   3.403  1.4160 -1.7058 -2.9674
  132OSM   H11T14174   0.778   4.416   3.452  1.6287  0.0802 -0.8674
  132OSM   C12S14175   0.787   4.255   3.593 -0.6842  0.5089 -0.1309
  132OSM   H12S14176   0.870   4.305   3.647 -0.7938 -1.0559  1.5915
  132OSM   H12T14177   0.808   4.148   3.574  3.0973  1.0597  0.1181
  132OSM   C13S14178   0.668   4.246   3.687  0.0997  0.5973 -0.2771
  132OSM   H13S14179   0.600   4.165   3.653 -0.3496 -1.4933  4.7286
  132OSM   H13T14180   0.614   4.343   3.690 -0.3187  0.3981 -1.0625
  132OSM   C14S14181   0.719   4.196   3.826  0.4044  0.3892 -0.2318
  132OSM   H14S14182   0.813   4.246   3.859  0.1890 -1.4004  3.7611
  132OSM   H14T14183   0.733   4.086   3.817  0.2007  0.4447 -1.4367
  132OSM   C15S14184   0.620   4.222   3.937 -0.7715  0.1209 -0.3251
  132OSM   H15S14185   0.518   4.197   3.903 -2.2287  2.3837  2.0285
  132OSM   H15T14186   0.622   4.333   3.942 -0.1003  0.3678 -3.6096
  132OSM   C16S14187   0.649   4.155   4.073 -0.6537 -0.0356  0.5292
  132OSM   H16S14188   0.724   4.213   4.131 -0.6089  1.5543 -1.0348
  132OSM   H16T14189   0.712   4.066   4.053  0.0482 -0.0083  2.3491
  132OSM   C17S14190   0.526   4.105   4.154  0.4320 -0.1293  0.3179
  132OSM   H17S14191   0.460   4.191   4.180 -0.8173 -0.4477 -1.6428
  132OSM   H17T14192   0.553   4.045   4.243  3.9545 -1.1074 -1.2383
  132OSM   C18S14193   0.431   4.019   4.066 -0.6298 -0.2364  0.0337
  132OSM   H18S14194   0.391   3.942   4.136  0.3280  0.3556  1.2664
  132OSM   H18T14195   0.485   3.962   3.987  0.7716  0.3816  0.5042
  132OSM   H18U14196   0.356   4.084   4.018  2.1158  2.0319 -1.4815
  132OSM    C1F14197   0.852   4.836   2.642  1.1499  0.4014 -0.1222
  132OSM     OF14198   0.730   4.814   2.644  0.5887  0.3545 -0.3479
  132OSM    C2F14199   0.908   4.967   2.700  0.1062  0.3278 -0.0541
  132OSM    H2F14200   0.855   5.052   2.653  1.3153  0.9238 -0.3897
  132OSM    H2G14201   1.017   4.982   2.683 -0.2848  1.4194 -1.8119
  132OSM    C3F14202   0.872   4.961   2.857  0.0358 -0.3659  0.6646
  132OSM    H3F14203   0.762   4.960   2.868 -0.1834 -1.0233 -1.2335
  132OSM    H3G14204   0.907   5.059   2.898  1.9581 -1.7223  2.5175
  132OSM    C4F14205   0.945   4.860   2.931  0.6008 -0.2315 -0.2355
  132OSM    H4F14206   1.052   4.878   2.908  0.1509  0.9434 -1.6086
  132OSM    H4G14207   0.924   4.757   2.895 -2.2268 -0.7355  2.4422
  132OSM    C5F14208   0.923   4.862   3.084  0.0661  0.5714  0.0054
  132OSM    H5F14209   0.966   4.951   3.135 -0.0577 -0.1979  1.5193
  132OSM    H5G14210   0.975   4.772   3.124  1.2726  0.9445 -0.6634
  132OSM    C6F14211   0.775   4.838   3.117 -0.1489  0.8837  0.5315
  132OSM    H6F14212   0.743   4.752   3.054  1.5321  0.5666  0.0527
  132OSM    H6G14213   0.704   4.918   3.089 -1.3379  0.4333  2.1061
  132OSM    C7F14214   0.743   4.806   3.270 -0.0020 -0.1082  0.1110
  132OSM    H7F14215   0.807   4.719   3.294  1.2785  0.8362  0.2243
  132OSM    H7G14216   0.638   4.772   3.277  0.2639 -0.9137  0.2242
  132OSM    C8F14217   0.764   4.926   3.369 -0.1290 -0.2379 -0.1655
  132OSM    H8F14218   0.872   4.947   3.359  0.2766 -1.9443  0.3487
  132OSM    H8G14219   0.757   4.895   3.475  1.8375  0.0897  0.0947
  132OSM    C9F14220   0.673   5.040   3.321 -0.4400 -0.2819  0.1225
  132OSM    H9F14221   0.713   5.105   3.243 -1.5062 -0.2366 -0.4124
  132OSM   C10F14222   0.541   5.061   3.353  0.2395  0.1106  0.1455
  132OSM   H10F14223   0.492   5.150   3.312  1.0804  0.7658  0.5204
  132OSM   C11F14224   0.468   4.988   3.461  1.0933 -0.5784  0.5060
  132OSM   H11F14225   0.522   4.904   3.509  0.4422 -0.3215  1.7063
  132OSM   H11G14226   0.374   4.942   3.424  0.7900  0.1549  0.3576
  132OSM   C12F14227   0.429   5.085   3.582 -0.1305 -0.1453  0.0897
  132OSM   H12F14228   0.362   5.163   3.541  1.6782  0.0094 -2.9333
  132OSM   H12G14229   0.521   5.134   3.619 -0.3858 -0.5566  1.2994
  132OSM   C13F14230   0.379   5.009   3.705  0.3288  0.2238  0.4023
  132OSM   H13F14231   0.449   4.925   3.722  0.8219  0.4542 -0.4024
  132OSM   H13G14232   0.279   4.972   3.673  0.4870  1.9354 -2.4426
  132OSM   C14F14233   0.380   5.097   3.833  0.0817 -0.0986 -0.0895
  132OSM   H14F14234   0.299   5.172   3.825 -1.2970 -1.4036  1.1524
  132OSM   H14G14235   0.477   5.152   3.837  0.1594 -0.3069  1.6195
  132OSM   C15F14236   0.364   5.022   3.967  0.0881 -0.4104  0.6164
  132OSM   H15F14237   0.395   5.091   4.048  2.7474  0.9337 -1.3824
  132OSM   H15G14238   0.432   4.934   3.970 -0.7856 -1.0814  1.2460
  132OSM   C16F14239   0.222   4.969   3.979  0.2602  0.8739  0.0693
  132OSM   H16F14240   0.187   4.906   3.895  0.7558 -0.4940  0.8509
  132OSM   H16G14241   0.154   5.056   3.970 -3.4786 -1.5550  1.7897
  132OSM   C17F14242   0.192   4.902   4.116 -0.5931 -0.2055 -0.1749
  132OSM   H17F14243   0.242   4.804   4.131  5.2330  2.2458 -0.8612
  132OSM   H17G14244   0.084   4.876   4.109 -0.0920 -2.9549  1.0063
  132OSM   C18F14245   0.217   4.988   4.243  0.2463  0.4564 -0.2243
  132OSM   H18F14246   0.325   4.999   4.268 -0.1933 -0.5046  2.4169
  132OSM   H18G14247   0.159   4.935   4.321  1.6417 -1.3577 -0.3366
  132OSM   H18H14248   0.166   5.084   4.221 -1.1339  0.0148  0.9702
  133OSM      N14249   5.371   5.391   2.110  0.3516 -0.2307 -0.4538
  133OSM    C1514250   5.427   5.362   1.975 -1.0783 -0.2933 -0.5671
  133OSM   H15A14251   5.345   5.344   1.907 -0.3358 -3.3256 -0.7823
  133OSM   H15B14252   5.487   5.273   1.966  1.4969  1.4887 -2.4109
  133OSM   H15C14253   5.483   5.450   1.947 -0.9861  0.0772  0.7080
  133OSM    C1414254   5.255   5.491   2.085 -0.4646 -0.5607 -0.0955
  133OSM   H14A14255   5.245   5.546   2.177  4.1620  2.3938 -1.0385
  133OSM   H14B14256   5.161   5.447   2.057  1.2001 -2.1235 -3.8187
  133OSM   H14C14257   5.287   5.559   2.008 -0.3889  1.4144  1.5934
  133OSM    C1314258   5.307   5.275   2.168  0.4698 -0.1301 -0.1555
  133OSM   H13A14259   5.378   5.194   2.175  0.4379 -0.3987 -2.3313
  133OSM   H13B14260   5.218   5.245   2.115 -0.6745  3.2853 -0.4249
  133OSM   H13C14261   5.278   5.305   2.268  0.7680  0.5279 -0.2652
  133OSM    C1214262   5.491   5.445   2.194 -0.2126 -0.4573 -0.3967
  133OSM   H12A14263   5.545   5.520   2.138  1.7813 -0.3221  1.5556
  133OSM   H12B14264   5.563   5.364   2.192  2.0373  1.4365 -0.1219
  133OSM    C1114265   5.464   5.496   2.334 -0.2463  0.3637  0.2367
  133OSM   H11A14266   5.398   5.585   2.322  2.1543  2.3418  0.6466
  133OSM   H11B14267   5.554   5.540   2.382 -0.2842  0.8677 -0.1410
  133OSM      P14268   5.499   5.280   2.474 -0.2793 -0.1088 -0.1988
  133OSM    O1314269   5.431   5.148   2.452 -0.7397 -0.1980 -0.0681
  133OSM    O1414270   5.631   5.289   2.421  0.2952  0.4317  0.2632
  133OSM    O1114271   5.497   5.307   2.635 -0.1715 -0.0476  0.0655
  133OSM    O1214272   5.408   5.396   2.419  0.3570 -0.1891  0.2682
  133OSM    C1S14273   5.372   5.327   2.700  0.0177 -0.1320 -0.1489
  133OSM    H1S14274   5.299   5.248   2.671 -0.9874 -0.5863  3.2259
  133OSM    H1T14275   5.339   5.432   2.687  0.9682  0.1328 -0.4734
  133OSM     NF14276   5.258   5.334   2.927 -0.5421  0.2405 -0.5320
  133OSM    HNF14277   5.236   5.426   2.957  2.7308  0.1587  2.8762
  133OSM    C2S14278   5.383   5.319   2.859  0.0682  0.0168 -0.6983
  133OSM    H2S14279   5.421   5.217   2.883  0.4168  0.0102 -1.2823
  133OSM    C3S14280   5.493   5.421   2.907 -0.2048  0.2237 -0.4065
  133OSM    H3S14281   5.469   5.521   2.864  0.5753  1.3366  1.5844
  133OSM     O314282   5.626   5.390   2.868  0.1457 -0.8606 -1.0452
  133OSM    HO314283   5.609   5.325   2.800 -0.0317 -0.7216 -1.1329
  133OSM    C4S14284   5.491   5.441   3.057  1.1056  0.1379 -0.0148
  133OSM    H4S14285   5.455   5.540   3.089 -0.2764 -0.5306  0.5962
  133OSM    C5S14286   5.551   5.365   3.153 -0.6457  0.5068  0.8129
  133OSM    H5S14287   5.605   5.274   3.124  2.6878  2.2827  1.0679
  133OSM    C6S14288   5.537   5.392   3.302 -0.8485 -1.5040  0.5018
  133OSM    H6S14289   5.438   5.429   3.336 -1.0942 -0.8935 -0.8558
  133OSM    H6T14290   5.602   5.481   3.311 -1.2046 -1.1807 -0.1536
  133OSM    C7S14291   5.581   5.273   3.393 -0.3777 -0.6396  0.5269
  133OSM    H7S14292   5.690   5.251   3.391  0.7763  3.8567  1.3830
  133OSM    H7T14293   5.529   5.185   3.350 -0.2250 -1.3488  1.7452
  133OSM    C8S14294   5.520   5.284   3.529 -0.1919 -0.1939 -0.4045
  133OSM    H8S14295   5.528   5.185   3.579  2.6853 -0.3310 -0.9285
  133OSM    H8T14296   5.419   5.329   3.532 -0.3984 -0.6149 -0.8606
  133OSM    C9S14297   5.602   5.383   3.618  0.0795 -0.2509 -0.0698
  133OSM    H9S14298   5.623   5.479   3.567  0.3377  0.9278  2.1474
  133OSM    H9T14299   5.704   5.339   3.621  0.6171  0.9311 -0.4294
  133OSM   C10S14300   5.562   5.404   3.766  0.4041 -0.4895 -0.1954
  133OSM   H10S14301   5.458   5.436   3.785  0.3272 -0.6548 -0.3395
  133OSM   H10T14302   5.631   5.479   3.810 -1.6124  1.5678 -0.3815
  133OSM   C11S14303   5.590   5.296   3.861 -0.0307  0.5097 -0.1178
  133OSM   H11S14304   5.675   5.235   3.822 -1.7818 -0.5526 -2.4902
  133OSM   H11T14305   5.509   5.221   3.868  0.0384  0.2015 -2.1311
  133OSM   C12S14306   5.608   5.343   4.004  0.9149  0.8851 -1.7115
  133OSM   H12S14307   5.534   5.419   4.035 -1.2656 -1.0968 -1.7887
  133OSM   H12T14308   5.713   5.379   4.014  1.1403  0.1593 -1.3575
  133OSM   C13S14309   5.580   5.240   4.116  0.2249 -0.6299  0.0119
  133OSM   H13S14310   5.614   5.135   4.101  2.5054  0.1597 -0.9463
  133OSM   H13T14311   5.471   5.246   4.133  0.2746 -4.1610  2.9551
  133OSM   C14S14312   5.651   5.293   4.243  0.4000 -0.8394 -0.2198
  133OSM   H14S14313   5.759   5.305   4.221 -0.1816  0.3312 -2.8733
  133OSM   H14T14314   5.633   5.222   4.326  1.2362 -0.6706  0.1171
  133OSM   C15S14315   5.597   5.429   4.284 -0.7858  0.0540  0.1027
  133OSM   H15S14316   5.487   5.424   4.297 -1.0473 -0.2179 -1.8801
  133OSM   H15T14317   5.634   5.496   4.204 -0.5108  0.2304  0.3789
  133OSM   C16S14318   5.679   5.463   4.408 -0.1089  0.3278  0.1034
  133OSM   H16S14319   5.788   5.442   4.394  0.3683  2.7644 -0.3440
  133OSM   H16T14320   5.639   5.384   4.475 -3.6456  1.1156 -0.8839
  133OSM   C17S14321   5.652   5.600   4.471 -0.2084 -0.1678  0.5961
  133OSM   H17S14322   5.547   5.596   4.506  0.3099 -0.3760  2.2161
  133OSM   H17T14323   5.651   5.673   4.387  0.1752 -1.4181 -0.5395
  133OSM   C18S14324   5.740   5.649   4.583 -0.3512 -0.0486 -0.2218
  133OSM   H18S14325   5.695   5.731   4.643 -0.5136  0.4844 -1.0638
  133OSM   H18T14326   5.842   5.672   4.544 -0.4380  0.8625  0.0615
  133OSM   H18U14327   5.745   5.559   4.648 -1.3089 -1.9028 -2.5797
  133OSM    C1F14328   5.166   5.239   2.928  0.0597  0.0581 -0.1811
  133OSM     OF14329   5.192   5.134   2.865 -0.1183 -0.2097  0.1721
  133OSM    C2F14330   5.032   5.267   2.991  0.6205 -0.0303 -0.5257
  133OSM    H2F14331   4.946   5.214   2.943  0.4256 -0.2451  0.0462
  133OSM    H2G14332   5.015   5.376   2.990  2.3082  0.2637  0.0406
  133OSM    C3F14333   5.030   5.212   3.138  0.2725  0.5007 -0.4274
  133OSM    H3F14334   5.053   5.104   3.150 -1.1842  0.2817  0.7477
  133OSM    H3G14335   4.924   5.207   3.171 -0.0537 -1.9448 -1.6496
  133OSM    C4F14336   5.115   5.286   3.254 -0.1391  0.4294  0.6521
  133OSM    H4F14337   5.087   5.393   3.250  3.0804  1.4732  2.4306
  133OSM    H4G14338   5.223   5.268   3.234  0.7653  2.5682  3.0507
  133OSM    C5F14339   5.073   5.236   3.390 -0.2335 -0.1859  0.3007
  133OSM    H5F14340   5.158   5.250   3.461  0.9804 -1.8214 -0.7796
  133OSM    H5G14341   5.050   5.128   3.385  0.6449 -0.5952  3.2413
  133OSM    C6F14342   4.949   5.299   3.450 -0.2601 -0.2248  1.0549
  133OSM    H6F14343   4.862   5.290   3.382  0.1125  1.3792  0.3250
  133OSM    H6G14344   4.964   5.408   3.469 -1.5062  0.0112  0.7740
  133OSM    C7F14345   4.914   5.223   3.578  0.0779 -0.0353  0.2908
  133OSM    H7F14346   4.996   5.232   3.652  1.3000 -1.7373 -0.7958
  133OSM    H7G14347   4.902   5.114   3.562  2.9434 -0.4023  0.2236
  133OSM    C8F14348   4.782   5.284   3.650 -0.4290 -0.2663  0.4858
  133OSM    H8F14349   4.786   5.395   3.642  2.2733 -0.3459  0.0298
  133OSM    H8G14350   4.789   5.252   3.756 -0.2528 -0.4811  0.4106
  133OSM    C9F14351   4.649   5.238   3.588  0.1642  0.4979  0.2079
  133OSM    H9F14352   4.666   5.184   3.494 -1.8123 -1.2367  0.7693
  133OSM   C10F14353   4.522   5.248   3.627 -0.0638 -0.0650 -0.0986
  133OSM   H10F14354   4.451   5.228   3.545  1.5465  1.9708 -2.0696
  133OSM   C11F14355   4.469   5.326   3.751 -0.0786 -0.7162 -0.1828
  133OSM   H11F14356   4.393   5.398   3.713  0.7026 -0.2194 -0.8454
  133OSM   H11G14357   4.553   5.381   3.798 -0.2823  0.8769 -1.5714
  133OSM   C12F14358   4.412   5.217   3.847  0.5515  0.3261  0.2294
  133OSM   H12F14359   4.487   5.146   3.889 -0.5140 -0.7799  0.3098
  133OSM   H12G14360   4.326   5.161   3.806  1.5153 -1.9156  1.0834
  133OSM   C13F14361   4.350   5.284   3.971  0.1481 -0.2559 -0.2841
  133OSM   H13F14362   4.271   5.350   3.929 -0.0689  0.3289  0.9853
  133OSM   H13G14363   4.415   5.354   4.027  0.7177 -0.8032 -0.2477
  133OSM   C14F14364   4.286   5.179   4.062  0.4378 -0.2953  0.6287
  133OSM   H14F14365   4.362   5.126   4.122  0.9998  1.0854  1.1819
  133OSM   H14G14366   4.247   5.103   3.992  1.6757  1.9281 -2.7315
  133OSM   C15F14367   4.160   5.231   4.141  0.1037 -0.1669 -0.6092
  133OSM   H15F14368   4.140   5.143   4.205  0.0004  1.6904  2.1159
  133OSM   H15G14369   4.090   5.265   4.062  1.7750  0.6832 -1.7889
  133OSM   C16F14370   4.192   5.342   4.241 -0.0214  0.2603 -0.7999
  133OSM   H16F14371   4.230   5.433   4.189 -1.4604  1.7131  0.5497
  133OSM   H16G14372   4.271   5.310   4.311  1.4323 -0.7386 -2.7889
  133OSM   C17F14373   4.072   5.379   4.328  0.1718 -0.7594  0.4518
  133OSM   H17F14374   4.035   5.286   4.376  0.0618 -0.8680  0.1608
  133OSM   H17G14375   4.003   5.423   4.254  2.7626  2.4688 -0.2844
  133OSM   C18F14376   4.107   5.479   4.439  0.0267 -0.1802  0.0936
  133OSM   H18F14377   4.025   5.538   4.486  1.4191  0.6938  1.5149
  133OSM   H18G14378   4.166   5.563   4.398 -1.7322  0.3951 -1.3855
  133OSM   H18H14379   4.156   5.430   4.526 -1.9573 -0.9843  0.8365
  134OSM      N14380   5.102   0.302   2.201  0.4026  0.2569  0.3584
  134OSM    C1514381   5.046   0.404   2.103  0.8006 -0.3796  0.7755
  134OSM   H15A14382   4.988   0.475   2.159 -0.0097 -1.2496  1.0575
  134OSM   H15B14383   4.988   0.354   2.026  4.2154 -2.1659 -0.8843
  134OSM   H15C14384   5.120   0.455   2.042  0.7152 -1.2792 -0.1135
  134OSM    C1414385   5.157   0.188   2.123 -0.0502 -0.2569 -0.2660
  134OSM   H14A14386   5.240   0.223   2.062  1.7231 -1.2323  1.4667
  134OSM   H14B14387   5.076   0.145   2.066 -0.0443 -0.9147  0.2188
  134OSM   H14C14388   5.183   0.102   2.183 -0.2448 -0.1860 -0.0804
  134OSM    C1314389   5.214   0.366   2.275  0.6959 -0.4121 -0.5812
  134OSM   H13A14390   5.264   0.297   2.341 -1.0030 -2.2334 -1.1100
  134OSM   H13B14391   5.175   0.451   2.329  0.8872 -1.0512  0.6074
  134OSM   H13C14392   5.283   0.412   2.206 -0.1997  0.3621 -0.9805
  134OSM    C1214393   4.991   0.259   2.301 -0.4902  0.2669  0.4453
  134OSM   H12A14394   4.966   0.345   2.361 -0.9571  0.8361 -0.5398
  134OSM   H12B14395   5.032   0.190   2.373  2.7335  2.1266  0.5635
  134OSM    C1114396   4.854   0.220   2.241  0.9454 -0.7818  0.0436
  134OSM   H11A14397   4.804   0.162   2.321  0.6943  1.0045  1.2551
  134OSM   H11B14398   4.867   0.156   2.151  1.0393 -0.6540 -0.0353
  134OSM      P14399   4.710   0.424   2.318  0.1432  0.1126 -0.5070
  134OSM    O1314400   4.756   0.565   2.311  0.5470 -0.0349  0.1193
  134OSM    O1414401   4.562   0.391   2.315 -0.8637 -0.2649 -0.5960
  134OSM    O1114402   4.769   0.368   2.445  0.7698 -0.2334  0.0802
  134OSM    O1214403   4.773   0.336   2.209  0.0813  0.3349 -0.1386
  134OSM    C1S14404   4.706   0.269   2.531  0.4771  0.5041 -0.0820
  134OSM    H1S14405   4.737   0.165   2.506  2.9635  1.4049 -1.0983
  134OSM    H1T14406   4.596   0.277   2.520  0.5282  1.2816 -0.0456
  134OSM     NF14407   4.635   0.213   2.756 -0.1772  0.1327  0.8366
  134OSM    HNF14408   4.542   0.247   2.770 -1.9608 -0.9422 -5.2804
  134OSM    C2S14409   4.717   0.302   2.679 -0.1569 -0.5145  0.3727
  134OSM    H2S14410   4.823   0.293   2.711 -0.2928 -2.6615  0.3810
  134OSM    C3S14411   4.683   0.452   2.705  0.1848 -0.2541 -0.1937
  134OSM    H3S14412   4.583   0.470   2.662 -0.3211  0.3201  1.1926
  134OSM     O314413   4.757   0.545   2.623  0.0117 -0.4681 -0.0934
  134OSM    HO314414   4.773   0.498   2.541 -1.3917  1.6620 -1.6834
  134OSM    C4S14415   4.693   0.487   2.849  0.2730 -0.3416  0.1638
  134OSM    H4S14416   4.604   0.462   2.909 -0.1926  0.9131  0.0237
  134OSM    C5S14417   4.797   0.538   2.909 -0.5220 -1.0126 -0.7769
  134OSM    H5S14418   4.887   0.560   2.850  1.6362 -2.2718  1.7938
  134OSM    C6S14419   4.815   0.556   3.061  0.4791  0.6413 -0.5039
  134OSM    H6S14420   4.847   0.660   3.084  0.2292  0.9200 -1.3850
  134OSM    H6T14421   4.898   0.487   3.087 -0.1902 -1.1505 -2.7780
  134OSM    C7S14422   4.704   0.535   3.163  0.3945 -0.0497  0.0032
  134OSM    H7S14423   4.667   0.431   3.160 -0.5982  0.2900  0.0297
  134OSM    H7T14424   4.622   0.604   3.134  1.1273  1.0772  0.5326
  134OSM    C8S14425   4.734   0.563   3.312 -0.3818  0.2618  0.2710
  134OSM    H8S14426   4.643   0.543   3.373  1.3989 -1.8788  2.4013
  134OSM    H8T14427   4.765   0.669   3.321  1.8432 -0.2925 -0.2802
  134OSM    C9S14428   4.838   0.467   3.364  0.5042  0.0051 -0.6701
  134OSM    H9S14429   4.938   0.505   3.335  0.9978  0.7535  1.7414
  134OSM    H9T14430   4.810   0.371   3.316 -1.2711  0.1387  0.0073
  134OSM   C10S14431   4.833   0.469   3.518 -0.1654  0.5327 -0.8570
  134OSM   H10S14432   4.878   0.372   3.548  2.3132  2.2200  1.3271
  134OSM   H10T14433   4.729   0.484   3.555  0.4927 -1.4790  2.2020
  134OSM   C11S14434   4.912   0.586   3.571  0.3445 -0.0337  0.0419
  134OSM   H11S14435   4.872   0.686   3.543 -2.4983 -0.5466  1.8886
  134OSM   H11T14436   5.014   0.574   3.529  0.4290 -1.4775  0.6100
  134OSM   C12S14437   4.923   0.598   3.726  0.4155  0.4891  0.3654
  134OSM   H12S14438   4.948   0.495   3.760 -1.7580  0.2740  1.5573
  134OSM   H12T14439   4.821   0.624   3.764  0.2050  0.2827 -0.0537
  134OSM   C13S14440   5.017   0.705   3.786 -0.7573 -0.0284  0.2887
  134OSM   H13S14441   4.979   0.809   3.799  1.1798  0.7362  0.1794
  134OSM   H13T14442   5.103   0.725   3.719  0.4984  0.5967  2.0157
  134OSM   C14S14443   5.075   0.651   3.916  0.3643  0.0719  0.1081
  134OSM   H14S14444   5.147   0.570   3.895  0.9300  0.8606 -1.1294
  134OSM   H14T14445   4.998   0.609   3.984  1.1380 -1.4698  0.0759
  134OSM   C15S14446   5.150   0.763   3.993 -0.2511 -0.1528 -0.3069
  134OSM   H15S14447   5.078   0.846   4.010 -0.2595 -0.1575 -0.3199
  134OSM   H15T14448   5.245   0.794   3.945  1.3528 -2.1594  1.3624
  134OSM   C16S14449   5.192   0.722   4.136  0.5983 -0.6666  0.7868
  134OSM   H16S14450   5.296   0.757   4.149 -0.7066  3.2350  2.5674
  134OSM   H16T14451   5.180   0.612   4.139  1.9550 -0.8072  1.9228
  134OSM   C17S14452   5.104   0.798   4.240 -0.2877  0.3835  0.1746
  134OSM   H17S14453   5.114   0.751   4.340 -1.9283  0.6417  0.4832
  134OSM   H17T14454   4.996   0.789   4.216 -0.0118  0.5802 -1.2516
  134OSM   C18S14455   5.135   0.943   4.256  0.2172  0.0169  0.1726
  134OSM   H18S14456   5.051   0.995   4.306 -1.0039  0.6362 -2.3850
  134OSM   H18T14457   5.172   1.000   4.168  1.7818  0.3532  1.0100
  134OSM   H18U14458   5.228   0.945   4.317  0.1085  0.9627  0.3257
  134OSM    C1F14459   4.661   0.089   2.772 -0.1237  0.8474 -0.4525
  134OSM     OF14460   4.738   0.027   2.700 -0.0971 -0.2755  0.5083
  134OSM    C2F14461   4.589   0.011   2.887 -0.3729 -0.8473  0.1747
  134OSM    H2F14462   4.531  -0.076   2.850  0.0315  0.1911 -3.2449
  134OSM    H2G14463   4.515   0.080   2.932 -0.0456 -1.2920  1.4320
  134OSM    C3F14464   4.696  -0.012   2.995 -0.2383  0.4187  0.8034
  134OSM    H3F14465   4.776  -0.076   2.951 -0.5553 -0.6562  1.7245
  134OSM    H3G14466   4.635  -0.064   3.072  1.0786 -1.6904  0.4972
  134OSM    C4F14467   4.751   0.121   3.047 -0.5898  0.3276  0.3543
  134OSM    H4F14468   4.673   0.198   3.065 -0.1962  1.5358 -2.5077
  134OSM    H4G14469   4.808   0.170   2.964  1.4211  0.1663  1.5708
  134OSM    C5F14470   4.853   0.091   3.161  0.5991  0.2215 -0.3389
  134OSM    H5F14471   4.933   0.168   3.168  0.3249  0.4601  0.2047
  134OSM    H5G14472   4.908  -0.004   3.141 -0.3250 -0.3031 -0.4218
  134OSM    C6F14473   4.785   0.078   3.304 -0.6061 -0.1328  0.3975
  134OSM    H6F14474   4.720  -0.011   3.300  1.7974 -1.9631 -0.3020
  134OSM    H6G14475   4.717   0.166   3.310  0.0949  0.3354  2.2983
  134OSM    C7F14476   4.878   0.073   3.422  0.5877  0.2487 -0.1498
  134OSM    H7F14477   4.820   0.078   3.517  1.2399  1.9422  0.1851
  134OSM    H7G14478   4.950   0.158   3.421  1.0809 -0.1651 -1.1938
  134OSM    C8F14479   4.957  -0.057   3.448 -0.0145  0.3444  1.0397
  134OSM    H8F14480   4.997  -0.097   3.352  0.0129  0.6710  0.9131
  134OSM    H8G14481   4.878  -0.129   3.478  0.0897 -0.3883 -0.3509
  134OSM    C9F14482   5.086  -0.047   3.529 -0.3874 -0.1437 -0.4164
  134OSM    H9F14483   5.147   0.042   3.506 -0.5516 -0.2533 -1.3059
  134OSM   C10F14484   5.132  -0.126   3.623  0.3586 -0.1067  0.0173
  134OSM   H10F14485   5.229  -0.111   3.673 -0.6584  3.1573  1.2610
  134OSM   C11F14486   5.067  -0.253   3.656  0.2938 -0.0186 -0.2969
  134OSM   H11F14487   5.140  -0.332   3.683  0.8607  1.0637  1.5619
  134OSM   H11G14488   5.001  -0.280   3.571 -1.0752 -1.6863  1.2036
  134OSM   C12F14489   4.967  -0.249   3.770  0.3680  0.0301  0.2700
  134OSM   H12F14490   4.908  -0.343   3.763  1.4709 -0.7645  1.1560
  134OSM   H12G14491   4.902  -0.159   3.773 -1.4237 -1.2533  1.1863
  134OSM   C13F14492   5.037  -0.250   3.909  0.1582  0.1802  0.4256
  134OSM   H13F14493   5.098  -0.158   3.922 -1.1690  1.1221  0.2764
  134OSM   H13G14494   5.099  -0.342   3.909 -0.5815 -0.4358 -2.8245
  134OSM   C14F14495   4.945  -0.268   4.024 -0.4531 -0.0258  0.4926
  134OSM   H14F14496   4.914  -0.374   4.040  1.3528 -0.6081  0.3425
  134OSM   H14G14497   4.854  -0.216   3.986  0.9043 -0.4173 -3.8623
  134OSM   C15F14498   4.985  -0.209   4.157  0.0339 -0.2753  0.1793
  134OSM   H15F14499   5.018  -0.104   4.138 -0.0763  0.5292  3.5890
  134OSM   H15G14500   5.057  -0.273   4.212  0.7044 -0.4189 -0.8456
  134OSM   C16F14501   4.872  -0.191   4.254 -0.1551  0.4071 -0.0519
  134OSM   H16F14502   4.802  -0.276   4.239  0.7609  0.0987 -3.6065
  134OSM   H16G14503   4.807  -0.104   4.229 -1.3847 -0.5080 -0.1401
  134OSM   C17F14504   4.919  -0.182   4.398 -0.5417 -0.3030 -0.8201
  134OSM   H17F14505   4.996  -0.102   4.402 -0.0455 -0.8183  0.8481
  134OSM   H17G14506   4.966  -0.278   4.429  0.4140  0.4572  0.1702
  134OSM   C18F14507   4.806  -0.148   4.499  0.1516  1.0243  0.2594
  134OSM   H18F14508   4.728  -0.228   4.494  0.9560  0.2575 -0.5339
  134OSM   H18G14509   4.754  -0.053   4.475 -2.1011  0.8800  3.7507
  134OSM   H18H14510   4.849  -0.136   4.601 -1.3912  0.5813  0.9967
  135OSM      N14511   6.889   6.149   2.569  0.2897  0.9038 -0.0744
  135OSM    C1514512   6.944   6.269   2.630  0.4018 -0.5054 -0.1111
  135OSM   H15A14513   6.881   6.327   2.695  2.5091 -0.0670  1.6592
  135OSM   H15B14514   6.993   6.330   2.555 -0.4722 -0.2486 -0.4853
  135OSM   H15C14515   7.021   6.238   2.699 -0.3198  2.3591  2.1670
  135OSM    C1414516   6.814   6.074   2.679  0.0311 -0.4915  0.2433
  135OSM   H14A14517   6.717   6.115   2.700  0.9582  1.1347  1.6105
  135OSM   H14B14518   6.867   6.060   2.772  0.0830 -1.9569  0.0081
  135OSM   H14C14519   6.809   5.977   2.632  1.6916 -0.0648 -0.9115
  135OSM    C1314520   6.784   6.189   2.462  0.0142  0.0551 -0.4048
  135OSM   H13A14521   6.829   6.263   2.397 -0.4242  1.5545  0.9296
  135OSM   H13B14522   6.703   6.247   2.502  1.2120  0.2773  1.8964
  135OSM   H13C14523   6.736   6.107   2.411 -0.0126  0.1877 -0.5936
  135OSM    C1214524   6.995   6.059   2.516  0.6481  0.0285  0.1070
  135OSM   H12A14525   6.948   5.974   2.468  1.0149  0.3702 -0.8893
  135OSM   H12B14526   7.059   6.021   2.595  2.6417 -1.4598 -2.0808
  135OSM    C1114527   7.089   6.118   2.416  0.1692 -0.8785 -0.1884
  135OSM   H11A14528   7.028   6.183   2.350 -0.9420 -2.0083 -0.3104
  135OSM   H11B14529   7.145   6.054   2.343  1.8100 -0.5227  0.7012
  135OSM      P14530   7.302   6.163   2.561  0.1152  0.0625  0.3016
  135OSM    O1314531   7.241   6.115   2.690 -0.4268 -0.5376 -0.6987
  135OSM    O1414532   7.381   6.061   2.488 -0.2586  0.7264  0.2817
  135OSM    O1114533   7.377   6.299   2.578 -0.2688  0.0099  0.3034
  135OSM    O1214534   7.184   6.209   2.472  0.5083 -0.5564  0.4050
  135OSM    C1S14535   7.314   6.406   2.653 -0.2544 -0.0735 -0.7060
  135OSM    H1S14536   7.203   6.401   2.652 -0.2139 -2.4914 -0.0913
  135OSM    H1T14537   7.332   6.509   2.616 -3.5893  0.8041 -0.2052
  135OSM     NF14538   7.271   6.516   2.862  0.1977 -0.2885 -0.1377
  135OSM    HNF14539   7.310   6.608   2.857  0.6608 -0.4794 -0.0754
  135OSM    C2S14540   7.351   6.410   2.810 -0.0056 -0.4091  1.2762
  135OSM    H2S14541   7.325   6.320   2.869 -1.0068 -1.8460 -1.1991
  135OSM    C3S14542   7.507   6.434   2.833  0.5633 -0.6802  0.5840
  135OSM    H3S14543   7.519   6.535   2.787  1.0776 -0.7856  0.4791
  135OSM     O314544   7.597   6.359   2.759 -0.1059  0.5370 -0.3001
  135OSM    HO314545   7.548   6.291   2.714  0.1162 -0.1396  0.4563
  135OSM    C4S14546   7.565   6.453   2.977  0.3051  0.7541  0.0859
  135OSM    H4S14547   7.559   6.561   2.999  1.3499  0.6903  0.7415
  135OSM    C5S14548   7.618   6.367   3.065  0.2843  0.5610  0.0497
  135OSM    H5S14549   7.613   6.258   3.051  0.2737  0.2490  2.1196
  135OSM    C6S14550   7.677   6.405   3.198  0.3050  0.2325  0.1296
  135OSM    H6S14551   7.683   6.514   3.219  0.6179  0.5208 -1.3460
  135OSM    H6T14552   7.785   6.377   3.192  0.0734 -0.5388 -0.5273
  135OSM    C7S14553   7.616   6.346   3.323 -0.3175 -0.5362 -0.8072
  135OSM    H7S14554   7.622   6.235   3.316  3.5810 -0.6315  1.3769
  135OSM    H7T14555   7.508   6.368   3.337 -0.4098 -0.9140 -0.9151
  135OSM    C8S14556   7.694   6.389   3.444 -0.0360 -0.0565 -0.0163
  135OSM    H8S14557   7.700   6.499   3.459  1.9580  0.1515 -1.8049
  135OSM    H8T14558   7.803   6.374   3.426 -0.1667 -1.2218  0.0654
  135OSM    C9S14559   7.666   6.305   3.578  0.3918  0.3380  0.3593
  135OSM    H9S14560   7.672   6.197   3.553  0.8769  0.7931 -1.6638
  135OSM    H9T14561   7.563   6.331   3.610 -0.4646 -1.0366 -1.1255
  135OSM   C10S14562   7.760   6.324   3.696  0.0610 -0.5764 -1.0309
  135OSM   H10S14563   7.775   6.434   3.707  0.8623 -0.3900 -3.3784
  135OSM   H10T14564   7.862   6.284   3.678  1.6665  2.6197  0.0577
  135OSM   C11S14565   7.719   6.262   3.832 -0.1847 -0.0603  0.1447
  135OSM   H11S14566   7.711   6.153   3.813  1.8728 -0.1339 -0.5210
  135OSM   H11T14567   7.622   6.292   3.877 -0.2578 -3.1760  2.2963
  135OSM   C12S14568   7.822   6.283   3.942  0.0651 -0.3993  0.1122
  135OSM   H12S14569   7.919   6.250   3.897  0.2401  0.2651 -0.0214
  135OSM   H12T14570   7.797   6.208   4.020 -1.5744 -1.1079 -1.0362
  135OSM   C13S14571   7.830   6.423   4.003 -0.3279 -0.3430  0.2562
  135OSM   H13S14572   7.727   6.464   4.011 -0.1347  0.4864 -1.2054
  135OSM   H13T14573   7.882   6.483   3.926  0.5871 -1.5520 -0.0965
  135OSM   C14S14574   7.910   6.438   4.137 -0.6157  0.8494 -0.2253
  135OSM   H14S14575   7.939   6.544   4.146  0.4741  0.5544 -0.0930
  135OSM   H14T14576   8.005   6.380   4.139 -1.3650 -0.4976 -1.2713
  135OSM   C15S14577   7.817   6.410   4.259  0.5374  0.3962 -0.7662
  135OSM   H15S14578   7.755   6.318   4.248 -0.5125  0.8928  0.5550
  135OSM   H15T14579   7.743   6.492   4.267  0.5000  0.5370 -2.2962
  135OSM   C16S14580   7.897   6.389   4.384 -0.8130  0.3015 -1.0605
  135OSM   H16S14581   7.968   6.473   4.399 -1.9682  0.7937  2.4151
  135OSM   H16T14582   7.964   6.301   4.381 -1.3210 -0.3102  2.1093
  135OSM   C17S14583   7.817   6.363   4.516 -0.6131  0.4065 -0.1114
  135OSM   H17S14584   7.892   6.389   4.594 -0.1749 -0.0070 -0.3924
  135OSM   H17T14585   7.802   6.253   4.519  0.6335  0.2390  1.7177
  135OSM   C18S14586   7.681   6.436   4.527 -1.0827  0.1801  0.0811
  135OSM   H18S14587   7.708   6.541   4.505 -1.4288 -0.1734 -2.3905
  135OSM   H18T14588   7.637   6.441   4.628  0.9746 -0.9687  1.0948
  135OSM   H18U14589   7.607   6.399   4.452  1.0573 -0.1716 -2.0011
  135OSM    C1F14590   7.139   6.495   2.892  0.0666 -0.4061 -0.0686
  135OSM     OF14591   7.089   6.385   2.913 -0.7755  0.1489  0.1241
  135OSM    C2F14592   7.050   6.628   2.903  0.3852 -0.0807 -0.3041
  135OSM    H2F14593   6.992   6.643   2.809 -0.3563 -1.3800 -0.0832
  135OSM    H2G14594   7.121   6.713   2.912  0.4149  0.0036 -1.2632
  135OSM    C3F14595   6.982   6.626   3.043  0.0854  0.5049 -0.5014
  135OSM    H3F14596   7.059   6.625   3.123 -0.6845 -0.4324  0.2510
  135OSM    H3G14597   6.932   6.528   3.053  1.7104 -0.2219  0.7034
  135OSM    C4F14598   6.894   6.745   3.060  0.5126 -0.3864 -0.4546
  135OSM    H4F14599   6.833   6.757   2.968  0.6270  0.1447 -0.4648
  135OSM    H4G14600   6.962   6.833   3.061  2.5370 -1.8780 -0.7438
  135OSM    C5F14601   6.808   6.733   3.186  0.0120  0.0441  0.6431
  135OSM    H5F14602   6.769   6.630   3.202 -0.3101  0.0874  0.1803
  135OSM    H5G14603   6.717   6.796   3.185  0.4890  0.7365  0.3104
  135OSM    C6F14604   6.892   6.777   3.303 -0.5906 -0.6054  0.7026
  135OSM    H6F14605   6.920   6.883   3.283 -2.9842 -0.0530 -0.0078
  135OSM    H6G14606   6.969   6.700   3.322 -1.6603 -1.9932 -0.3984
  135OSM    C7F14607   6.821   6.803   3.438  0.0721  0.2250 -0.1698
  135OSM    H7F14608   6.780   6.706   3.473  0.6276 -0.6464 -1.7987
  135OSM    H7G14609   6.733   6.870   3.424 -0.7643 -1.0913 -1.5987
  135OSM    C8F14610   6.913   6.856   3.547  0.0237  0.9833 -0.2457
  135OSM    H8F14611   6.845   6.892   3.628 -0.0438  0.1392  0.0890
  135OSM    H8G14612   6.968   6.945   3.511 -1.6297  2.2980  0.3190
  135OSM    C9F14613   7.010   6.752   3.595 -0.2004  1.0848  0.1107
  135OSM    H9F14614   7.087   6.720   3.523 -1.4247 -1.0371 -0.3462
  135OSM   C10F14615   7.006   6.685   3.714 -0.5133 -0.1970 -0.6847
  135OSM   H10F14616   7.086   6.616   3.743  1.6627  3.2897  2.6004
  135OSM   C11F14617   6.901   6.691   3.824  0.0206 -0.1659 -1.1922
  135OSM   H11F14618   6.858   6.588   3.822  0.5602 -0.4653  0.9378
  135OSM   H11G14619   6.821   6.767   3.815  0.7968  1.2245  2.0480
  135OSM   C12F14620   6.951   6.721   3.968  0.1366  0.6018 -0.8463
  135OSM   H12F14621   6.869   6.702   4.040  1.4591  0.6247  0.7266
  135OSM   H12G14622   6.977   6.828   3.973 -0.3134  0.6633  0.3486
  135OSM   C13F14623   7.076   6.641   4.015  0.5147  0.0813  0.6546
  135OSM   H13F14624   7.167   6.654   3.953 -1.1347  1.2338 -1.6716
  135OSM   H13G14625   7.052   6.533   4.021 -1.2048  0.4858  1.8736
  135OSM   C14F14626   7.117   6.678   4.153  0.2081 -0.0748 -0.4716
  135OSM   H14F14627   7.020   6.685   4.207  0.8838 -1.4071  1.0355
  135OSM   H14G14628   7.165   6.778   4.155 -1.2652  0.6789  1.7952
  135OSM   C15F14629   7.210   6.571   4.215 -1.1488  0.7716  0.0522
  135OSM   H15F14630   7.308   6.575   4.163 -1.2633 -3.5978 -0.9214
  135OSM   H15G14631   7.154   6.475   4.206 -0.2643  0.3830 -1.7085
  135OSM   C16F14632   7.246   6.602   4.360 -0.3104  0.5355 -0.3598
  135OSM   H16F14633   7.152   6.627   4.412  0.2715  0.1406  0.9403
  135OSM   H16G14634   7.310   6.693   4.366 -2.0811  1.7273  2.5011
  135OSM   C17F14635   7.317   6.494   4.444  0.3232  0.3549 -0.1934
  135OSM   H17F14636   7.416   6.474   4.398  1.2976  1.1464  1.4861
  135OSM   H17G14637   7.246   6.408   4.434  0.4225 -0.0615  2.1924
  135OSM   C18F14638   7.327   6.525   4.594 -0.8722  0.1715 -0.4695
  135OSM   H18F14639   7.353   6.430   4.646 -0.3338  0.6738  0.1962
  135OSM   H18G14640   7.231   6.561   4.636  1.5679  2.0476  4.1134
  135OSM   H18H14641   7.406   6.599   4.618  0.6221 -1.2792 -0.7483
  136OSM      N14642   4.692   2.169   2.580 -0.3347  0.5640 -0.0771
  136OSM    C1514643   4.783   2.056   2.540  0.5103 -0.7625 -0.0638
  136OSM   H15A14644   4.795   1.988   2.624 -1.0845  0.9384  1.6526
  136OSM   H15B14645   4.879   2.098   2.512 -0.5272  2.1723  0.4669
  136OSM   H15C14646   4.733   1.994   2.468 -0.2019 -1.4248  0.9689
  136OSM    C1414647   4.734   2.241   2.708  0.6106  0.3986 -0.1909
  136OSM   H14A14648   4.670   2.326   2.722  0.0518  0.3991 -2.3399
  136OSM   H14B14649   4.835   2.277   2.700  0.0499  1.9899 -0.3971
  136OSM   H14C14650   4.722   2.171   2.790 -0.5950 -1.4624 -1.8655
  136OSM    C1314651   4.690   2.281   2.476 -0.0508  0.2055  1.1731
  136OSM   H13A14652   4.621   2.252   2.398 -0.9464 -2.1459  2.7418
  136OSM   H13B14653   4.789   2.304   2.438 -0.7100  1.5674  0.1771
  136OSM   H13C14654   4.649   2.374   2.514 -1.5808  0.6690 -1.3954
  136OSM    C1214655   4.547   2.117   2.595 -0.0827  0.4511 -0.5069
  136OSM   H12A14656   4.490   2.190   2.651 -1.0140 -1.4652  1.1812
  136OSM   H12B14657   4.553   2.034   2.663  2.8554  1.9776  1.2993
  136OSM    C1114658   4.466   2.081   2.467  0.0052 -0.4660 -0.0873
  136OSM   H11A14659   4.467   2.173   2.406  1.5428 -2.1206 -2.7619
  136OSM   H11B14660   4.358   2.065   2.489  0.2182  1.4604  2.9268
  136OSM      P14661   4.506   1.825   2.433 -0.1592  0.3095 -0.1343
  136OSM    O1314662   4.371   1.807   2.374 -0.0610 -0.7453 -0.4392
  136OSM    O1414663   4.616   1.736   2.386  0.3600  0.0447 -0.0400
  136OSM    O1114664   4.496   1.826   2.595  0.3321  0.1547 -0.4595
  136OSM    O1214665   4.531   1.974   2.401 -0.3848 -0.7427 -0.7628
  136OSM    C1S14666   4.506   1.702   2.655  0.2119 -0.6432 -0.1126
  136OSM    H1S14667   4.605   1.655   2.639  1.4459  1.9514 -0.5039
  136OSM    H1T14668   4.424   1.639   2.615 -1.0033  0.3128  0.7913
  136OSM     NF14669   4.517   1.603   2.877 -0.1697 -0.6934  0.0125
  136OSM    HNF14670   4.442   1.572   2.935 -0.2810 -1.0445 -0.3150
  136OSM    C2S14671   4.482   1.725   2.810 -0.5280  0.4617 -0.6879
  136OSM    H2S14672   4.558   1.799   2.841 -0.8340  1.1997 -1.6529
  136OSM    C3S14673   4.342   1.775   2.833 -0.5131  0.3111  0.0246
  136OSM    H3S14674   4.276   1.698   2.788 -1.2808  1.3637 -0.7000
  136OSM     O314675   4.304   1.891   2.755  0.1699  0.4319 -0.0164
  136OSM    HO314676   4.371   1.897   2.685 -0.0021 -1.3151 -0.3764
  136OSM    C4S14677   4.311   1.797   2.977  0.2642 -0.5193 -0.6319
  136OSM    H4S14678   4.388   1.856   3.029  1.1804 -1.8636 -0.4204
  136OSM    C5S14679   4.202   1.749   3.040 -0.5027  0.3606  0.0470
  136OSM    H5S14680   4.127   1.688   2.987 -2.7985  2.1621  0.9893
  136OSM    C6S14681   4.170   1.762   3.184 -0.7737 -0.0639 -0.5187
  136OSM    H6S14682   4.130   1.670   3.230  1.6891 -0.6336  0.6217
  136OSM    H6T14683   4.083   1.831   3.189 -1.0717 -0.4064 -0.9025
  136OSM    C7S14684   4.289   1.809   3.281  1.1882  0.4739 -0.2998
  136OSM    H7S14685   4.344   1.899   3.248  4.0422 -1.0018  0.0816
  136OSM    H7T14686   4.367   1.730   3.270 -0.0899 -0.9065  0.1796
  136OSM    C8S14687   4.250   1.819   3.430 -0.6561 -0.0086  0.1331
  136OSM    H8S14688   4.193   1.726   3.448  1.8922 -1.2849  2.1801
  136OSM    H8T14689   4.179   1.903   3.448  0.1425  0.7364 -0.1365
  136OSM    C9S14690   4.373   1.842   3.524 -0.8725  0.1190 -0.1701
  136OSM    H9S14691   4.406   1.948   3.527  1.5470 -0.5894  1.0188
  136OSM    H9T14692   4.447   1.766   3.493 -2.4882 -1.7531  0.3687
  136OSM   C10S14693   4.345   1.797   3.675  0.4779  0.4023  0.1489
  136OSM   H10S14694   4.295   1.698   3.680  1.0881  0.1380  1.4481
  136OSM   H10T14695   4.275   1.870   3.721  0.9586  0.3587  0.9713
  136OSM   C11S14696   4.472   1.794   3.765  0.1023  0.1466 -0.2964
  136OSM   H11S14697   4.469   1.876   3.840 -0.5102  0.4115 -0.6061
  136OSM   H11T14698   4.562   1.800   3.700 -0.5931  1.3950 -1.1722
  136OSM   C12S14699   4.488   1.652   3.829  0.3449  0.0059 -0.1768
  136OSM   H12S14700   4.505   1.562   3.766 -3.4359 -0.8436 -0.2539
  136OSM   H12T14701   4.386   1.639   3.872  0.5459  0.3597  0.4145
  136OSM   C13S14702   4.600   1.654   3.930 -0.2056 -0.0983  0.0486
  136OSM   H13S14703   4.587   1.739   3.999  0.1244 -0.1581  0.1862
  136OSM   H13T14704   4.695   1.667   3.875  0.3435 -0.8667  0.8008
  136OSM   C14S14705   4.614   1.526   4.014  0.0063  0.3550  0.1853
  136OSM   H14S14706   4.511   1.513   4.056  0.3748  1.8683  1.6658
  136OSM   H14T14707   4.678   1.549   4.101 -2.0545 -0.4008  2.0086
  136OSM   C15S14708   4.659   1.413   3.929  0.3536 -0.1981  0.9078
  136OSM   H15S14709   4.762   1.438   3.898  0.3282  0.5800  1.4048
  136OSM   H15T14710   4.598   1.412   3.836  0.1665  1.8971  0.9436
  136OSM   C16S14711   4.659   1.279   4.014 -0.8625 -1.2368  0.1276
  136OSM   H16S14712   4.559   1.260   4.058 -1.0213 -0.9544 -0.1085
  136OSM   H16T14713   4.720   1.294   4.106 -3.6619 -2.2493  2.3054
  136OSM   C17S14714   4.701   1.146   3.935 -0.2572 -0.1605  0.2402
  136OSM   H17S14715   4.639   1.130   3.844 -2.6059 -1.5434  1.9582
  136OSM   H17T14716   4.671   1.055   3.991  0.9696  0.0329  1.2805
  136OSM   C18S14717   4.857   1.153   3.910 -0.0477 -0.5445  0.0047
  136OSM   H18S14718   4.914   1.193   3.997 -0.2717 -0.1014 -0.0472
  136OSM   H18T14719   4.882   1.211   3.818  0.2505 -1.1203 -0.2799
  136OSM   H18U14720   4.902   1.056   3.879  0.3185 -0.5204  0.4502
  136OSM    C1F14721   4.637   1.541   2.872  0.4119  0.6458  0.0024
  136OSM     OF14722   4.733   1.602   2.828 -1.0975 -0.1694 -0.6613
  136OSM    C2F14723   4.641   1.398   2.907  0.0029 -0.4724 -0.2184
  136OSM    H2F14724   4.598   1.335   2.826 -2.0887  0.3069  0.2390
  136OSM    H2G14725   4.579   1.384   2.998 -1.3455  1.3519 -0.8132
  136OSM    C3F14726   4.791   1.356   2.923  0.4611 -0.0052 -0.4273
  136OSM    H3F14727   4.848   1.389   2.833  2.0029 -0.5580  0.3076
  136OSM    H3G14728   4.789   1.245   2.932  2.6845 -0.0119  0.8872
  136OSM    C4F14729   4.873   1.389   3.046 -0.9683 -0.8948 -0.1697
  136OSM    H4F14730   4.977   1.349   3.046 -1.5266 -2.4575  0.8914
  136OSM    H4G14731   4.836   1.326   3.130 -0.0784  0.2095  1.1135
  136OSM    C5F14732   4.878   1.538   3.088  0.9410  0.6923 -0.1592
  136OSM    H5F14733   4.774   1.560   3.120  1.1428 -1.3231  2.1800
  136OSM    H5G14734   4.916   1.597   3.001  2.4745 -0.3878 -0.2630
  136OSM    C6F14735   4.978   1.569   3.199  0.2095 -0.2138 -0.0012
  136OSM    H6F14736   4.976   1.677   3.225 -0.7460 -0.5850  1.5850
  136OSM    H6G14737   5.085   1.555   3.169  0.5409  1.4865  0.2823
  136OSM    C7F14738   4.941   1.480   3.318  0.0571 -0.1452  0.1751
  136OSM    H7F14739   4.960   1.372   3.298 -1.0761 -0.1612 -0.9164
  136OSM    H7G14740   4.830   1.486   3.324 -0.0028 -0.3195 -0.6636
  136OSM    C8F14741   4.994   1.526   3.452 -0.1661 -0.6579 -0.1088
  136OSM    H8F14742   4.957   1.459   3.533 -0.8684  1.1206  1.1276
  136OSM    H8G14743   4.951   1.627   3.473 -0.9786 -1.1024  0.4391
  136OSM    C9F14744   5.144   1.534   3.451 -0.7454 -0.4305  0.7073
  136OSM    H9F14745   5.186   1.531   3.349 -1.4872 -0.4873  0.3955
  136OSM   C10F14746   5.232   1.563   3.554  0.3731 -0.0567  0.3872
  136OSM   H10F14747   5.340   1.557   3.534  0.4532  0.6083  0.5782
  136OSM   C11F14748   5.182   1.596   3.697 -0.1349  0.4823 -0.0835
  136OSM   H11F14749   5.071   1.588   3.698 -0.4071  2.9937 -1.7044
  136OSM   H11G14750   5.209   1.700   3.724  0.2011  0.2295  0.5707
  136OSM   C12F14751   5.232   1.495   3.809 -0.5006  0.2039  0.3999
  136OSM   H12F14752   5.219   1.394   3.765 -0.3109  0.6478 -0.7281
  136OSM   H12G14753   5.164   1.501   3.896 -3.8798 -2.4470 -1.7970
  136OSM   C13F14754   5.376   1.529   3.856 -0.3435  0.1142 -0.1852
  136OSM   H13F14755   5.368   1.631   3.900 -0.3074  0.4763 -1.0084
  136OSM   H13G14756   5.453   1.538   3.777 -2.8432  0.2882 -2.7471
  136OSM   C14F14757   5.421   1.438   3.974  0.1699  0.0236  0.0040
  136OSM   H14F14758   5.415   1.329   3.957  2.5844 -0.0314 -0.7941
  136OSM   H14G14759   5.362   1.456   4.067 -1.5754 -0.6379 -0.9192
  136OSM   C15F14760   5.572   1.453   4.020 -0.6067 -0.3915  0.7407
  136OSM   H15F14761   5.577   1.556   4.063 -0.5415  0.2603 -0.7894
  136OSM   H15G14762   5.642   1.449   3.934 -1.2647 -2.6748  0.2307
  136OSM   C16F14763   5.615   1.350   4.127  0.1470  0.0612 -0.7391
  136OSM   H16F14764   5.606   1.243   4.098 -0.0895 -0.7438  2.0525
  136OSM   H16G14765   5.540   1.352   4.209 -1.3311 -3.8878 -1.7619
  136OSM   C17F14766   5.760   1.393   4.177 -0.9068  0.0847  0.0949
  136OSM   H17F14767   5.755   1.498   4.213  1.8820  0.5046 -0.5738
  136OSM   H17G14768   5.818   1.391   4.083 -0.3750  2.1686  0.3221
  136OSM   C18F14769   5.818   1.299   4.277 -0.1461  0.3500 -0.1533
  136OSM   H18F14770   5.793   1.195   4.249  4.0397 -1.3432  1.5108
  136OSM   H18G14771   5.777   1.326   4.377  0.5071  1.5905 -0.1938
  136OSM   H18H14772   5.929   1.304   4.272 -0.2180  0.5542 -2.0682
  137OSM      N14773   0.717   6.899   2.042  0.0184 -0.0019 -0.0837
  137OSM    C1514774   0.671   6.845   1.914 -0.6473 -0.7506  0.1209
  137OSM   H15A14775   0.739   6.768   1.882  1.2259  0.3410  1.3047
  137OSM   H15B14776   0.671   6.927   1.844  0.5978  0.8581  1.9112
  137OSM   H15C14777   0.578   6.792   1.923 -0.6395 -0.9657 -0.9265
  137OSM    C1414778   0.859   6.957   2.038  0.9754  0.0424  0.5489
  137OSM   H14A14779   0.867   7.032   1.961 -0.1666 -0.3069  0.0693
  137OSM   H14B14780   0.919   6.873   2.006 -1.6274 -1.4121 -0.8547
  137OSM   H14C14781   0.889   6.987   2.138 -3.4655 -0.2514  2.2079
  137OSM    C1314782   0.622   7.008   2.072  0.8228  0.2509  0.0548
  137OSM   H13A14783   0.621   7.093   2.006 -2.7950  0.8621  0.6795
  137OSM   H13B14784   0.614   7.036   2.176 -2.8357 -1.2490  0.3515
  137OSM   H13C14785   0.524   6.968   2.050  0.4426  1.7687 -1.1124
  137OSM    C1214786   0.707   6.797   2.155 -0.4372  0.3990  0.8158
  137OSM   H12A14787   0.708   6.858   2.244 -2.4389 -0.1004  1.2411
  137OSM   H12B14788   0.797   6.739   2.160 -1.3077 -0.9006  2.3974
  137OSM    C1114789   0.578   6.712   2.166 -0.5870 -0.0517 -0.1480
  137OSM   H11A14790   0.593   6.651   2.258  2.3286 -0.8360 -1.0239
  137OSM   H11B14791   0.588   6.641   2.081 -0.4026  0.2123 -0.3512
  137OSM      P14792   0.404   6.832   2.310  0.0867  0.2525 -0.5253
  137OSM    O1314793   0.351   6.966   2.296 -0.7972 -1.2273 -0.5542
  137OSM    O1414794   0.303   6.730   2.357  0.3567  0.1580  0.1371
  137OSM    O1114795   0.537   6.831   2.401  0.3357 -0.1059 -0.4242
  137OSM    O1214796   0.458   6.782   2.166  0.1081 -0.3927  0.0733
  137OSM    C1S14797   0.555   6.895   2.529 -1.0439  1.3135 -0.2818
  137OSM    H1S14798   0.465   6.952   2.560 -0.7639  1.1513  0.8834
  137OSM    H1T14799   0.631   6.976   2.520  1.6244 -1.0591 -0.4604
  137OSM     NF14800   0.582   6.845   2.769  0.1804 -0.0886 -0.6127
  137OSM    HNF14801   0.653   6.896   2.816 -0.1616 -1.3059  1.3185
  137OSM    C2S14802   0.608   6.794   2.639  0.4650  0.0264 -0.0390
  137OSM    H2S14803   0.547   6.703   2.622  1.0691 -0.5622  0.8900
  137OSM    C3S14804   0.754   6.759   2.605 -0.0278  0.1377 -0.0890
  137OSM    H3S14805   0.810   6.855   2.612 -1.3358  0.9772 -0.7036
  137OSM     O314806   0.777   6.716   2.466 -0.4265 -0.6425  0.5712
  137OSM    HO314807   0.704   6.751   2.414 -1.1036  0.7287  2.3179
  137OSM    C4S14808   0.809   6.652   2.696  0.1223  0.2741 -1.0033
  137OSM    H4S14809   0.736   6.587   2.746 -0.0654  1.0881 -0.1828
  137OSM    C5S14810   0.941   6.629   2.715 -0.1273 -0.2658  0.1905
  137OSM    H5S14811   1.014   6.694   2.664 -1.3430  0.5421 -0.5466
  137OSM    C6S14812   0.997   6.524   2.809  0.2098  0.3752 -0.2965
  137OSM    H6S14813   1.076   6.465   2.758 -0.5731 -0.1029 -0.9881
  137OSM    H6T14814   0.913   6.453   2.825 -0.9581  1.6752 -0.3757
  137OSM    C7S14815   1.040   6.578   2.946  0.0999  0.2851 -0.2060
  137OSM    H7S14816   0.963   6.648   2.986 -0.0066 -1.0930  2.1681
  137OSM    H7T14817   1.132   6.638   2.928 -0.6389  0.9386 -2.0184
  137OSM    C8S14818   1.070   6.469   3.047  0.0982 -0.0924  0.6114
  137OSM    H8S14819   1.150   6.401   3.011 -0.3215 -0.8153  1.0291
  137OSM    H8T14820   0.971   6.422   3.066  0.0729  0.3012  1.5067
  137OSM    C9S14821   1.115   6.522   3.190  0.4765 -0.3337  1.0884
  137OSM    H9S14822   1.047   6.599   3.233  1.7819  0.4041  1.9107
  137OSM    H9T14823   1.218   6.564   3.180 -0.3598  1.4035 -1.2945
  137OSM   C10S14824   1.111   6.401   3.279 -0.3600  0.3510 -0.0265
  137OSM   H10S14825   1.173   6.314   3.249 -0.5011 -0.7109  2.5396
  137OSM   H10T14826   1.014   6.347   3.275  0.0360 -0.3257 -1.0262
  137OSM   C11S14827   1.164   6.431   3.420 -0.0888  0.4738  0.6417
  137OSM   H11S14828   1.105   6.515   3.462 -3.2923 -1.8993  1.2402
  137OSM   H11T14829   1.269   6.468   3.416  0.9500 -2.3293 -1.8184
  137OSM   C12S14830   1.157   6.313   3.525  0.5168 -0.3419 -0.1262
  137OSM   H12S14831   1.195   6.220   3.477 -0.0398 -0.4834 -0.2998
  137OSM   H12T14832   1.046   6.310   3.535  0.4413 -1.3625 -1.0256
  137OSM   C13S14833   1.224   6.348   3.651 -0.2057 -0.6389 -0.6398
  137OSM   H13S14834   1.211   6.457   3.671 -1.8656 -0.9499  0.2154
  137OSM   H13T14835   1.334   6.339   3.641  0.3175 -3.3715  4.3911
  137OSM   C14S14836   1.199   6.248   3.765 -0.4466 -0.1509 -0.7423
  137OSM   H14S14837   1.248   6.150   3.747 -0.7703 -0.2449 -1.1412
  137OSM   H14T14838   1.089   6.231   3.773 -0.8424  2.8350  2.0664
  137OSM   C15S14839   1.254   6.300   3.896  0.5968  0.7627 -0.4495
  137OSM   H15S14840   1.242   6.411   3.904  2.1281  0.9146  0.2477
  137OSM   H15T14841   1.364   6.300   3.911  1.1491  2.0534 -3.6941
  137OSM   C16S14842   1.190   6.247   4.025  0.2547 -0.5058 -0.0335
  137OSM   H16S14843   1.081   6.267   4.028  0.2155 -0.6220 -0.4912
  137OSM   H16T14844   1.240   6.304   4.105  1.0983 -0.2179 -0.7507
  137OSM   C17S14845   1.203   6.098   4.059  0.2562 -0.9415 -0.2706
  137OSM   H17S14846   1.301   6.075   4.107  0.1904 -1.2262 -0.2728
  137OSM   H17T14847   1.201   6.032   3.970  2.2583 -0.0118 -1.0951
  137OSM   C18S14848   1.097   6.052   4.160 -0.2927  0.4539 -0.2025
  137OSM   H18S14849   0.991   6.056   4.126 -0.8327  1.5916  1.4848
  137OSM   H18T14850   1.102   6.121   4.247 -1.5473  0.8351 -0.4202
  137OSM   H18U14851   1.119   5.951   4.202 -0.2512  1.9585  3.8267
  137OSM    C1F14852   0.464   6.831   2.835  0.6245 -0.0979 -0.4609
  137OSM     OF14853   0.381   6.757   2.791  0.0248  0.3255 -0.7703
  137OSM    C2F14854   0.434   6.899   2.964 -0.3134 -0.5198 -0.1617
  137OSM    H2F14855   0.417   7.008   2.956  0.5835 -0.3890 -0.3457
  137OSM    H2G14856   0.531   6.895   3.017 -0.3326  3.0523  0.3707
  137OSM    C3F14857   0.319   6.849   3.053 -0.5042 -0.3364 -0.0673
  137OSM    H3F14858   0.321   6.738   3.056 -0.8444 -0.3203  0.7115
  137OSM    H3G14859   0.222   6.875   3.005 -1.1878 -0.3005  1.3074
  137OSM    C4F14860   0.314   6.897   3.202 -0.3785 -0.2803 -0.6107
  137OSM    H4F14861   0.209   6.886   3.237 -0.2862  0.2771 -0.1499
  137OSM    H4G14862   0.330   7.006   3.215 -1.8582 -0.0055 -0.9272
  137OSM    C5F14863   0.398   6.804   3.291 -0.0530 -0.1495  0.0829
  137OSM    H5F14864   0.508   6.793   3.275  0.2818 -1.3395  2.6964
  137OSM    H5G14865   0.355   6.702   3.283  0.4213 -0.2652 -1.5196
  137OSM    C6F14866   0.374   6.840   3.438  0.5499  0.0927  0.9273
  137OSM    H6F14867   0.263   6.831   3.446  0.4230 -0.2527 -0.8445
  137OSM    H6G14868   0.397   6.942   3.475 -0.4365 -0.4566  3.2698
  137OSM    C7F14869   0.443   6.732   3.518  0.5302  0.4706 -0.2912
  137OSM    H7F14870   0.549   6.739   3.487  0.1952 -0.7768 -1.8288
  137OSM    H7G14871   0.396   6.635   3.492 -1.3457  1.5454 -1.0987
  137OSM    C8F14872   0.436   6.766   3.678 -0.8199  0.3396  0.4441
  137OSM    H8F14873   0.329   6.784   3.702 -1.9547 -0.5387 -3.2520
  137OSM    H8G14874   0.502   6.854   3.695  1.5032 -1.0141 -0.9521
  137OSM    C9F14875   0.465   6.645   3.759  0.4004  0.5060  0.4692
  137OSM    H9F14876   0.476   6.556   3.696  0.6168 -0.3286  1.6503
  137OSM   C10F14877   0.461   6.625   3.890 -0.0955 -0.6678 -0.5615
  137OSM   H10F14878   0.497   6.533   3.939  0.3508 -0.1178  0.1899
  137OSM   C11F14879   0.466   6.743   3.989  0.1964 -0.8073 -0.1512
  137OSM   H11F14880   0.374   6.744   4.051 -1.2053 -2.3495 -2.0790
  137OSM   H11G14881   0.462   6.835   3.926 -0.8059 -1.3987 -0.9775
  137OSM   C12F14882   0.580   6.754   4.083 -0.3183  0.2848  0.4237
  137OSM   H12F14883   0.671   6.734   4.021 -1.1254  0.7212 -0.9540
  137OSM   H12G14884   0.578   6.671   4.156  2.6699  0.6886  1.1045
  137OSM   C13F14885   0.573   6.883   4.168 -0.4353 -0.5782  0.0039
  137OSM   H13F14886   0.488   6.863   4.237  2.1982 -2.9065  2.8632
  137OSM   H13G14887   0.554   6.976   4.110  0.8599  0.6871  1.4921
  137OSM   C14F14888   0.692   6.925   4.253 -0.0192 -0.0383 -0.2689
  137OSM   H14F14889   0.754   6.986   4.184  0.1079 -0.1198 -0.2277
  137OSM   H14G14890   0.749   6.831   4.268 -0.8094 -0.2767  1.5211
  137OSM   C15F14891   0.665   6.984   4.389  0.6037 -0.2926 -0.5075
  137OSM   H15F14892   0.589   7.064   4.374  0.4430 -0.7212 -2.2924
  137OSM   H15G14893   0.761   7.030   4.420  1.4206 -0.3362 -2.7793
  137OSM   C16F14894   0.610   6.880   4.495  0.2146 -0.5343 -0.2342
  137OSM   H16F14895   0.660   6.782   4.481  0.8630 -0.2428 -0.0437
  137OSM   H16G14896   0.501   6.871   4.475  0.3267 -0.0554 -1.1315
  137OSM   C17F14897   0.641   6.935   4.636  0.1154  1.3594 -0.1085
  137OSM   H17F14898   0.745   6.975   4.625  0.5864 -0.0755 -1.2408
  137OSM   H17G14899   0.655   6.857   4.713  0.5182  0.8762 -0.6616
  137OSM   C18F14900   0.544   7.037   4.687  1.2756 -0.8306 -0.1940
  137OSM   H18F14901   0.547   7.078   4.790  1.5642  2.4695 -1.3824
  137OSM   H18G14902   0.440   7.000   4.678  1.0894 -0.9384  1.9128
  137OSM   H18H14903   0.560   7.121   4.616  2.7536 -1.2864 -0.4478
  138OSM      N14904   1.517   2.128   2.471 -0.5613  0.0732  0.1879
  138OSM    C1514905   1.569   2.141   2.336 -0.2933  0.5341 -0.1623
  138OSM   H15A14906   1.667   2.187   2.333  0.0551 -0.0868  1.0849
  138OSM   H15B14907   1.511   2.206   2.273  0.8160  2.4490  0.6969
  138OSM   H15C14908   1.569   2.044   2.289 -0.2853  0.5633 -0.2229
  138OSM    C1414909   1.387   2.049   2.458 -0.5546  0.7436 -0.4930
  138OSM   H14A14910   1.406   1.963   2.396  0.4930 -0.5772  1.5342
  138OSM   H14B14911   1.307   2.102   2.409 -2.0173  2.2505  3.1566
  138OSM   H14C14912   1.346   2.017   2.553 -0.5286 -0.2808 -0.8133
  138OSM    C1314913   1.618   2.046   2.545  0.0507  0.0435 -0.6304
  138OSM   H13A14914   1.606   1.942   2.518 -0.6964 -0.0785  0.1176
  138OSM   H13B14915   1.615   2.058   2.653 -1.6846 -1.0388 -0.5270
  138OSM   H13C14916   1.708   2.093   2.508 -0.8123  0.2911 -2.5391
  138OSM    C1214917   1.497   2.261   2.543 -0.0809  0.3526  0.1149
  138OSM   H12A14918   1.434   2.322   2.479 -3.2003 -0.6002  2.0503
  138OSM   H12B14919   1.588   2.314   2.568 -0.8662  1.2306  1.2012
  138OSM    C1114920   1.438   2.251   2.685 -1.0287  0.1217  0.5023
  138OSM   H11A14921   1.364   2.168   2.692 -0.2482 -0.6121  0.1709
  138OSM   H11B14922   1.398   2.349   2.717 -0.0333  1.0116 -0.8678
  138OSM      P14923   1.668   2.300   2.804  0.0378  0.4103  0.0014
  138OSM    O1314924   1.779   2.207   2.813  0.0092 -0.4988  0.2611
  138OSM    O1414925   1.674   2.406   2.708  0.0363  0.3697  0.0100
  138OSM    O1114926   1.645   2.356   2.947 -0.1347  0.5397  0.3360
  138OSM    O1214927   1.538   2.220   2.778 -0.2617 -0.6739 -0.0530
  138OSM    C1S14928   1.528   2.362   3.019 -0.4188  0.7012  0.7455
  138OSM    H1S14929   1.513   2.259   3.059  2.9086 -1.1206 -2.1853
  138OSM    H1T14930   1.439   2.387   2.959 -0.0497  0.0570 -0.0852
  138OSM     NF14931   1.438   2.440   3.241 -0.6006  0.0726  0.0745
  138OSM    HNF14932   1.370   2.512   3.246  0.2375  0.9406 -0.5785
  138OSM    C2S14933   1.538   2.463   3.144 -0.7810 -0.2066  0.1645
  138OSM    H2S14934   1.636   2.444   3.192 -0.9108 -2.5228 -0.3530
  138OSM    C3S14935   1.529   2.607   3.093  0.0062  0.0440  0.0482
  138OSM    H3S14936   1.432   2.614   3.040 -0.6279  2.9446  1.3537
  138OSM     O314937   1.639   2.630   3.002 -0.7160 -0.2370  0.0893
  138OSM    HO314938   1.676   2.544   2.984 -2.3537 -0.9471 -0.0619
  138OSM    C4S14939   1.524   2.708   3.205  0.2404  0.0183 -0.4314
  138OSM    H4S14940   1.424   2.753   3.210  0.6539  1.0858 -1.1270
  138OSM    C5S14941   1.618   2.749   3.284 -0.1873  0.5836 -0.4277
  138OSM    H5S14942   1.716   2.700   3.271  0.5571  2.2224 -1.3314
  138OSM    C6S14943   1.616   2.860   3.386  0.4110  0.1508 -0.0564
  138OSM    H6S14944   1.520   2.917   3.384 -0.7011 -1.6466  0.0158
  138OSM    H6T14945   1.695   2.937   3.373  0.9067 -0.3367  0.0125
  138OSM    C7S14946   1.627   2.806   3.529  0.6133  0.2824  0.1294
  138OSM    H7S14947   1.720   2.747   3.542  1.0911  1.1487  0.7725
  138OSM    H7T14948   1.534   2.747   3.545  0.2837  0.2118 -1.8102
  138OSM    C8S14949   1.638   2.916   3.641  0.4311 -0.3164  0.0826
  138OSM    H8S14950   1.569   3.003   3.632  0.5688 -0.4240 -2.9136
  138OSM    H8T14951   1.737   2.965   3.639  0.6478 -0.7490  0.0431
  138OSM    C9S14952   1.609   2.853   3.775  0.4167  0.4941  0.3321
  138OSM    H9S14953   1.686   2.778   3.801 -0.2017  0.0673  0.9877
  138OSM    H9T14954   1.512   2.799   3.760 -0.1799  2.3025 -3.3798
  138OSM   C10S14955   1.605   2.938   3.901 -0.1848 -0.7858  0.5848
  138OSM   H10S14956   1.538   3.026   3.897 -0.2367 -0.8307  0.4289
  138OSM   H10T14957   1.708   2.977   3.909 -0.6142  0.9460 -1.4375
  138OSM   C11S14958   1.567   2.861   4.029 -0.2425 -0.9881 -0.3583
  138OSM   H11S14959   1.634   2.775   4.052  1.9152  1.2344  2.3573
  138OSM   H11T14960   1.465   2.819   4.021 -0.8636  0.6591 -1.7237
  138OSM   C12S14961   1.576   2.953   4.157 -0.1314 -0.1823 -0.1284
  138OSM   H12S14962   1.512   2.903   4.233  0.7127 -2.1576 -0.6514
  138OSM   H12T14963   1.536   3.052   4.125 -1.7800 -0.1578  1.8075
  138OSM   C13S14964   1.711   2.963   4.226  1.1479  0.4281  0.1081
  138OSM   H13S14965   1.788   3.012   4.162 -0.4431  1.4579 -1.0819
  138OSM   H13T14966   1.750   2.859   4.233 -0.7083 -0.5597 -2.5693
  138OSM   C14S14967   1.714   3.014   4.370 -0.2108 -0.0998  0.9585
  138OSM   H14S14968   1.614   3.027   4.416 -1.3878  2.4731 -1.9447
  138OSM   H14T14969   1.766   3.112   4.375  1.1253 -0.7717  0.6885
  138OSM   C15S14970   1.770   2.913   4.483  0.5275  0.1751 -0.0266
  138OSM   H15S14971   1.750   2.808   4.455 -0.2539  0.1619  0.5494
  138OSM   H15T14972   1.709   2.936   4.573  0.9439 -1.1379  0.6051
  138OSM   C16S14973   1.922   2.944   4.506  0.1001  0.0665 -0.3484
  138OSM   H16S14974   1.937   3.054   4.516 -1.4227  0.1714  1.2000
  138OSM   H16T14975   1.982   2.899   4.424  0.9250  1.3805 -0.5030
  138OSM   C17S14976   1.987   2.878   4.621  0.5957 -0.4649 -0.1320
  138OSM   H17S14977   2.097   2.891   4.613  0.2636  3.2294 -0.6629
  138OSM   H17T14978   1.973   2.768   4.621  0.1431 -0.4089 -0.6123
  138OSM   C18S14979   1.940   2.938   4.755  0.2946 -0.0529 -0.5101
  138OSM   H18S14980   1.968   3.035   4.800 -0.8105 -0.6787  1.6651
  138OSM   H18T14981   1.999   2.875   4.825 -0.6466 -2.4949 -1.8021
  138OSM   H18U14982   1.832   2.917   4.771 -0.5530  0.6422 -4.2461
  138OSM    C1F14983   1.442   2.341   3.326  0.5893  0.3732 -0.4930
  138OSM     OF14984   1.513   2.240   3.306 -0.3978  0.0840 -0.0078
  138OSM    C2F14985   1.361   2.366   3.453  0.2396  0.4257  0.5099
  138OSM    H2F14986   1.306   2.276   3.486 -2.6744  2.4846  1.7393
  138OSM    H2G14987   1.288   2.446   3.425 -0.8555 -0.8347 -0.3696
  138OSM    C3F14988   1.445   2.431   3.559  0.0017  0.7439 -0.0336
  138OSM    H3F14989   1.470   2.535   3.529 -3.3306  1.3971 -0.9886
  138OSM    H3G14990   1.533   2.363   3.560 -1.3362 -1.0843 -0.7419
  138OSM    C4F14991   1.372   2.441   3.688  0.3904 -0.3149 -0.1709
  138OSM    H4F14992   1.297   2.361   3.704 -0.9911  0.3706 -2.7178
  138OSM    H4G14993   1.325   2.542   3.693 -0.9005 -0.8519 -0.8658
  138OSM    C5F14994   1.482   2.435   3.800 -0.4036 -0.1909 -0.4542
  138OSM    H5F14995   1.527   2.536   3.814 -2.0273  0.5536 -0.3810
  138OSM    H5G14996   1.563   2.363   3.776  1.4008  1.0679  1.5904
  138OSM    C6F14997   1.434   2.392   3.936  0.1636 -0.1030  0.4937
  138OSM    H6F14998   1.372   2.301   3.925 -0.1302  0.1293  0.1860
  138OSM    H6G14999   1.378   2.473   3.988  0.4070 -0.4164  1.2517
  138OSM    C7F15000   1.547   2.359   4.030  0.2402  0.0442 -0.1158
  138OSM    H7F15001   1.639   2.421   4.020 -0.6127  1.4432  0.4687
  138OSM    H7G15002   1.582   2.257   4.005 -0.5351  0.0891 -1.4817
  138OSM    C8F15003   1.506   2.373   4.176 -0.4965  0.6895 -0.3516
  138OSM    H8F15004   1.432   2.291   4.188  0.3013  0.2200  2.0349
  138OSM    H8G15005   1.447   2.460   4.211  0.5946  0.7871  1.3577
  138OSM    C9F15006   1.620   2.340   4.274  0.7451 -0.0498  0.0703
  138OSM    H9F15007   1.673   2.246   4.259  0.1061 -0.3237 -0.5056
  138OSM   C10F15008   1.667   2.419   4.366  0.1736  0.1048  0.6375
  138OSM   H10F15009   1.739   2.378   4.437  0.5660  1.8795  1.3092
  138OSM   C11F15010   1.624   2.556   4.405 -0.5878  0.0801  0.4474
  138OSM   H11F15011   1.535   2.583   4.343 -0.3676 -0.6584 -0.2071
  138OSM   H11G15012   1.708   2.619   4.368  0.1633 -0.9334  0.3918
  138OSM   C12F15013   1.580   2.587   4.548 -0.4586  0.6787 -0.1005
  138OSM   H12F15014   1.514   2.503   4.579  1.3365 -1.7276 -2.3722
  138OSM   H12G15015   1.534   2.688   4.552  2.9365  2.3363  2.1042
  138OSM   C13F15016   1.697   2.599   4.643 -0.3875 -0.5914 -0.0811
  138OSM   H13F15017   1.774   2.668   4.602  0.7469 -3.0714 -2.4292
  138OSM   H13G15018   1.749   2.502   4.652 -2.2848 -1.5735  0.8838
  138OSM   C14F15019   1.668   2.649   4.788  0.2521 -0.0095 -0.3067
  138OSM   H14F15020   1.586   2.583   4.826  1.4650 -0.5199  1.6141
  138OSM   H14G15021   1.641   2.757   4.788 -2.2755 -0.5092  2.0163
  138OSM   C15F15022   1.796   2.626   4.873 -0.5537 -0.2417  0.3963
  138OSM   H15F15023   1.872   2.699   4.837 -1.1226  0.0906 -0.1497
  138OSM   H15G15024   1.845   2.527   4.859 -1.7824 -0.8331  0.2056
  138OSM   C16F15025   1.772   2.672   5.020  0.2919 -0.4012 -0.8236
  138OSM   H16F15026   1.689   2.621   5.073  0.1777  0.6442  0.0458
  138OSM   H16G15027   1.741   2.778   5.007 -3.6821 -1.3940 -0.8344
  138OSM   C17F15028   1.891   2.646   5.114  0.5228  0.3859  0.7922
  138OSM   H17F15029   1.982   2.669   5.054 -0.1854  0.8510 -0.1377
  138OSM   H17G15030   1.881   2.540   5.147 -0.2754  0.0553 -0.4180
  138OSM   C18F15031   1.883   2.743   5.237 -0.0929  0.8777  0.6050
  138OSM   H18F15032   1.780   2.729   5.276 -1.5170  2.0994 -2.4396
  138OSM   H18G15033   1.904   2.847   5.206  2.9906  0.6685  1.6007
  138OSM   H18H15034   1.963   2.716   5.310  0.7713  0.8530 -0.3343
  139OSM      N15035   2.227   0.097   2.011  0.5447  0.1572 -0.4599
  139OSM    C1515036   2.172  -0.039   1.982 -0.1284 -0.1003  0.4685
  139OSM   H15A15037   2.250  -0.113   1.970 -0.9336 -0.7256 -1.2450
  139OSM   H15B15038   2.119  -0.040   1.887  0.9102  0.6713 -0.1400
  139OSM   H15C15039   2.096  -0.067   2.053 -0.0498  0.8822  0.9637
  139OSM    C1415040   2.285   0.141   1.886  0.2207 -0.1792 -0.4961
  139OSM   H14A15041   2.368   0.077   1.859 -0.7591 -1.7532  0.0361
  139OSM   H14B15042   2.314   0.244   1.892 -0.4268 -0.0596  1.5264
  139OSM   H14C15043   2.210   0.138   1.808 -0.3514 -0.5758  0.0483
  139OSM    C1315044   2.116   0.187   2.042  0.3124 -0.5312  0.1668
  139OSM   H13A15045   2.144   0.289   2.065 -3.3136  0.7660 -0.5587
  139OSM   H13B15046   2.056   0.157   2.126 -1.1350  2.0320  0.1413
  139OSM   H13C15047   2.049   0.196   1.957  0.4893 -3.0987 -0.3423
  139OSM    C1215048   2.331   0.097   2.118 -0.3730  0.4419  0.3465
  139OSM   H12A15049   2.376   0.195   2.120 -1.1567  0.8185  2.3025
  139OSM   H12B15050   2.408   0.029   2.085 -1.2798  0.5856 -2.2520
  139OSM    C1115051   2.292   0.063   2.265 -0.1559 -0.2757  0.5221
  139OSM   H11A15052   2.212   0.137   2.285 -0.7778  0.1499 -2.9123
  139OSM   H11B15053   2.376   0.077   2.337 -1.4772 -1.8870  2.4865
  139OSM      P15054   2.336  -0.195   2.268  0.0219 -0.0891  0.3131
  139OSM    O1315055   2.271  -0.306   2.192 -0.0348  0.1666  0.2051
  139OSM    O1415056   2.469  -0.157   2.225 -0.3507  0.1319 -0.5907
  139OSM    O1115057   2.347  -0.228   2.418  0.3425 -0.3778 -0.0905
  139OSM    O1215058   2.243  -0.069   2.263  0.1417 -1.2063 -0.6640
  139OSM    C1S15059   2.238  -0.227   2.511  0.3741 -0.6725  0.0457
  139OSM    H1S15060   2.194  -0.327   2.493 -0.2027 -0.7801  1.8897
  139OSM    H1T15061   2.162  -0.153   2.480  0.7521 -0.7384 -1.1027
  139OSM     NF15062   2.167  -0.192   2.735  0.2798  0.4957  0.4743
  139OSM    HNF15063   2.126  -0.103   2.757 -1.4619 -0.5251  1.5685
  139OSM    C2S15064   2.289  -0.201   2.651  0.5501 -0.5556  0.5338
  139OSM    H2S15065   2.357  -0.284   2.678  1.3798 -0.8512 -2.2472
  139OSM    C3S15066   2.377  -0.069   2.662 -0.4649 -0.4524 -0.2599
  139OSM    H3S15067   2.320   0.018   2.621 -1.2184  0.1925  1.9895
  139OSM     O315068   2.498  -0.078   2.579 -0.5948 -0.8530 -0.8203
  139OSM    HO315069   2.496  -0.161   2.531 -2.0064 -1.8135  0.8274
  139OSM    C4S15070   2.403  -0.034   2.812 -0.1995 -0.5045  0.0006
  139OSM    H4S15071   2.343   0.051   2.847  0.6434 -0.4165  1.2896
  139OSM    C5S15072   2.496  -0.085   2.901  0.4677 -0.1933 -0.4887
  139OSM    H5S15073   2.569  -0.156   2.860  1.4943  2.1779 -3.0643
  139OSM    C6S15074   2.527  -0.023   3.033  0.3117  0.2606 -0.0451
  139OSM    H6S15075   2.454   0.055   3.063 -1.3652 -1.0344 -0.5997
  139OSM    H6T15076   2.617   0.042   3.031  0.6141 -0.0043  2.1631
  139OSM    C7S15077   2.537  -0.127   3.149 -0.3462 -0.6708 -0.1816
  139OSM    H7S15078   2.627  -0.190   3.129 -0.7926 -1.4141  0.1002
  139OSM    H7T15079   2.438  -0.176   3.157 -0.3113 -0.3673  2.9380
  139OSM    C8S15080   2.560  -0.054   3.284 -0.2512  0.0899  0.1607
  139OSM    H8S15081   2.468   0.001   3.312  1.4372  2.4970  1.4635
  139OSM    H8T15082   2.644   0.018   3.273 -1.9678  2.0410 -0.7224
  139OSM    C9S15083   2.579  -0.153   3.400 -0.0119 -0.4732 -0.0850
  139OSM    H9S15084   2.680  -0.200   3.402 -0.3444 -1.4314 -2.3258
  139OSM    H9T15085   2.505  -0.236   3.393  1.1951 -1.6977  1.1326
  139OSM   C10S15086   2.544  -0.103   3.537 -0.1480 -0.5622  0.3439
  139OSM   H10S15087   2.545  -0.193   3.602 -0.8553 -2.1389 -1.7079
  139OSM   H10T15088   2.435  -0.082   3.528  0.0910  0.2770 -0.9092
  139OSM   C11S15089   2.626   0.010   3.599  0.8040 -0.0154 -0.2070
  139OSM   H11S15090   2.608   0.112   3.559 -4.4018  0.6693  2.9634
  139OSM   H11T15091   2.735  -0.005   3.587  0.9315  0.5737  0.1627
  139OSM   C12S15092   2.615   0.003   3.756 -0.5303  0.3182 -0.3488
  139OSM   H12S15093   2.662  -0.095   3.777  0.1436  0.2219 -2.1569
  139OSM   H12T15094   2.508   0.009   3.788 -0.4711  4.1105 -0.4277
  139OSM   C13S15095   2.679   0.126   3.812 -0.2260  0.1385  0.0636
  139OSM   H13S15096   2.638   0.220   3.769 -0.0002 -0.1380 -0.7752
  139OSM   H13T15097   2.778   0.126   3.762 -0.7785  2.0700 -1.1512
  139OSM   C14S15098   2.700   0.146   3.959  0.6158  0.6965  0.0035
  139OSM   H14S15099   2.752   0.243   3.976  1.2762  0.2077  0.8510
  139OSM   H14T15100   2.767   0.067   3.999 -0.2447  0.4100  0.9437
  139OSM   C15S15101   2.566   0.156   4.031 -0.0663 -0.5133 -0.2501
  139OSM   H15S15102   2.515   0.061   4.003  2.2234 -1.5803 -1.1108
  139OSM   H15T15103   2.511   0.248   4.004 -0.3339 -0.5941  0.0184
  139OSM   C16S15104   2.578   0.165   4.183  0.4691  0.2824  0.8830
  139OSM   H16S15105   2.619   0.072   4.229  1.5420  0.6746  0.7607
  139OSM   H16T15106   2.479   0.178   4.231  0.0273 -2.9297  1.0658
  139OSM   C17S15107   2.655   0.288   4.230 -0.0336  0.5488 -0.0022
  139OSM   H17S15108   2.593   0.375   4.198 -2.1463 -0.4841  1.0467
  139OSM   H17T15109   2.758   0.294   4.190 -0.6841  1.1505 -1.6654
  139OSM   C18S15110   2.657   0.296   4.384  0.3882 -0.4749 -0.0556
  139OSM   H18S15111   2.683   0.400   4.414 -0.1396 -0.7622  1.4355
  139OSM   H18T15112   2.715   0.221   4.442  0.5657  0.2550  0.7350
  139OSM   H18U15113   2.556   0.283   4.426  1.0629 -0.2518  1.7211
  139OSM    C1F15114   2.094  -0.303   2.763 -0.8460 -0.2045 -0.4146
  139OSM     OF15115   2.145  -0.413   2.746 -0.0387 -0.0297  0.0049
  139OSM    C2F15116   1.959  -0.279   2.806 -0.3382  0.4729  0.1003
  139OSM    H2F15117   1.886  -0.319   2.732  0.0208 -0.1054  0.0551
  139OSM    H2G15118   1.937  -0.175   2.836 -0.6416  0.1967  0.8635
  139OSM    C3F15119   1.942  -0.355   2.942  0.7513  0.4396  0.2533
  139OSM    H3F15120   1.979  -0.458   2.929  1.0976  0.7875 -1.8145
  139OSM    H3G15121   1.834  -0.348   2.965  0.2459  2.7048 -2.2885
  139OSM    C4F15122   2.018  -0.294   3.058  0.4166  0.0611 -0.3106
  139OSM    H4F15123   1.970  -0.199   3.089  1.2203 -0.1373  1.6472
  139OSM    H4G15124   2.122  -0.273   3.028  0.2771  0.3623 -0.5858
  139OSM    C5F15125   2.040  -0.385   3.180  0.5364  0.3926  0.2940
  139OSM    H5F15126   2.115  -0.462   3.151 -0.7888 -0.8017 -0.0991
  139OSM    H5G15127   1.948  -0.447   3.185  1.2796 -1.2630 -3.2464
  139OSM    C6F15128   2.065  -0.312   3.303 -0.1992  0.3395  0.4022
  139OSM    H6F15129   1.974  -0.251   3.320 -2.6434 -2.4608 -1.5771
  139OSM    H6G15130   2.149  -0.240   3.296 -1.3635  1.9413  2.1029
  139OSM    C7F15131   2.101  -0.402   3.415  0.3352 -0.0649 -0.2960
  139OSM    H7F15132   2.157  -0.489   3.373  0.7153  1.5248 -3.3931
  139OSM    H7G15133   2.013  -0.447   3.466  1.3317 -2.0662 -0.2157
  139OSM    C8F15134   2.193  -0.337   3.526  0.3944 -0.1686  0.5321
  139OSM    H8F15135   2.288  -0.309   3.476  1.1053 -3.3475 -0.1383
  139OSM    H8G15136   2.232  -0.414   3.596  1.3592 -0.5104 -0.3640
  139OSM    C9F15137   2.134  -0.223   3.604  0.0072 -0.5267  0.4196
  139OSM    H9F15138   2.091  -0.142   3.545  1.5616 -0.0101 -0.0623
  139OSM   C10F15139   2.110  -0.217   3.736 -0.0038 -0.0344  0.3030
  139OSM   H10F15140   2.068  -0.122   3.773  2.2534  1.0393  0.2567
  139OSM   C11F15141   2.144  -0.322   3.839 -0.1484 -0.3440  0.3141
  139OSM   H11F15142   2.178  -0.422   3.806  0.3116 -0.5333  1.3157
  139OSM   H11G15143   2.049  -0.340   3.894 -0.7676 -0.7759 -0.8630
  139OSM   C12F15144   2.243  -0.276   3.949 -0.1606 -0.0163  0.0717
  139OSM   H12F15145   2.336  -0.257   3.891  0.8677 -3.8514  0.1460
  139OSM   H12G15146   2.270  -0.363   4.013  0.9745  2.0188  2.5562
  139OSM   C13F15147   2.199  -0.156   4.032  0.0608  0.7128  1.0747
  139OSM   H13F15148   2.093  -0.178   4.058 -0.0657 -1.5236 -1.0443
  139OSM   H13G15149   2.188  -0.060   3.978 -0.8917  0.4595  0.7987
  139OSM   C14F15150   2.274  -0.141   4.162  0.3646  0.2438 -0.2246
  139OSM   H14F15151   2.380  -0.112   4.144  0.4594  0.0248 -0.0245
  139OSM   H14G15152   2.286  -0.241   4.209 -1.2918 -0.1730 -0.6331
  139OSM   C15F15153   2.201  -0.033   4.250  0.3708  0.7179  0.9100
  139OSM   H15F15154   2.099  -0.032   4.207  0.5338 -1.7132  0.2982
  139OSM   H15G15155   2.265   0.058   4.246  1.9981 -0.4203 -0.2248
  139OSM   C16F15156   2.174  -0.083   4.389  0.0414  0.4773 -0.0438
  139OSM   H16F15157   2.270  -0.118   4.432 -0.4413  0.3603  0.9597
  139OSM   H16G15158   2.110  -0.173   4.374 -1.2951  1.6126 -1.5230
  139OSM   C17F15159   2.112   0.023   4.478 -0.0235 -0.5121  0.0032
  139OSM   H17F15160   2.022   0.047   4.417  0.2881 -2.0460 -1.1022
  139OSM   H17G15161   2.163   0.122   4.475 -0.4318 -0.3024 -0.3695
  139OSM   C18F15162   2.077  -0.010   4.622 -0.1250 -0.3364 -0.0941
  139OSM   H18F15163   2.146   0.040   4.693 -1.2982  0.4756  0.5120
  139OSM   H18G15164   2.082  -0.120   4.635 -3.1852 -0.4402  1.2055
  139OSM   H18H15165   1.969   0.013   4.637 -0.2200 -0.0005 -1.2301
  140OSM      N15166   6.046   2.588   2.017 -0.1090 -0.3081  0.9239
  140OSM    C1515167   6.121   2.721   2.047 -0.2125  0.2090  0.2631
  140OSM   H15A15168   6.082   2.807   1.995  0.3315 -0.4513 -1.2851
  140OSM   H15B15169   6.218   2.713   2.000 -0.4534  0.5354 -0.2966
  140OSM   H15C15170   6.133   2.742   2.152 -2.8113 -0.9481  0.8657
  140OSM    C1415171   5.901   2.614   2.026  0.0612 -0.0568  0.1491
  140OSM   H14A15172   5.842   2.523   2.018  0.5028 -0.2059 -1.7480
  140OSM   H14B15173   5.868   2.685   1.952 -0.4262  1.5859  1.8599
  140OSM   H14C15174   5.870   2.657   2.121 -1.4368  0.1104 -0.3801
  140OSM    C1315175   6.075   2.550   1.874 -0.9085 -0.4793  0.1343
  140OSM   H13A15176   6.061   2.639   1.815  1.0547  0.0533  0.4302
  140OSM   H13B15177   6.004   2.479   1.833 -1.9091 -0.3041  1.4928
  140OSM   H13C15178   6.171   2.501   1.869  0.7736  2.2556  2.5526
  140OSM    C1215179   6.089   2.490   2.115  0.0551  0.3517 -0.1689
  140OSM   H12A15180   6.042   2.503   2.212  1.9203 -0.9661  0.9747
  140OSM   H12B15181   6.194   2.494   2.139 -0.3321  1.3947  1.4657
  140OSM    C1115182   6.069   2.343   2.073 -0.3211  0.3417  0.1309
  140OSM   H11A15183   6.115   2.266   2.138  1.6332 -0.0349 -1.6071
  140OSM   H11B15184   6.133   2.331   1.983 -1.2104 -1.5469 -0.2881
  140OSM      P15185   5.835   2.280   2.172  0.5770  0.3164 -0.3570
  140OSM    O1315186   5.860   2.383   2.287 -0.4641  0.3889  0.0006
  140OSM    O1415187   5.693   2.276   2.120 -0.4081  0.4532  0.2863
  140OSM    O1115188   5.880   2.136   2.221  0.0694  0.2587  0.0116
  140OSM    O1215189   5.930   2.310   2.049  0.1856  0.0261 -0.2357
  140OSM    C1S15190   5.949   2.114   2.348  0.0618 -0.3756  0.5307
  140OSM    H1S15191   6.040   2.175   2.361  0.6263 -1.1858  0.4602
  140OSM    H1T15192   6.003   2.017   2.353 -0.5034 -0.7849 -0.7414
  140OSM     NF15193   5.919   2.113   2.594 -0.0979 -0.3847 -0.1777
  140OSM    HNF15194   5.919   2.035   2.657  1.0391  0.3062  0.7046
  140OSM    C2S15195   5.841   2.119   2.468 -0.9866 -0.1130  0.6278
  140OSM    H2S15196   5.786   2.215   2.464  0.3976  0.6733 -0.3928
  140OSM    C3S15197   5.729   2.013   2.459  0.6600  0.0146 -0.1604
  140OSM    H3S15198   5.789   1.920   2.465  1.8314  0.8246  1.7142
  140OSM     O315199   5.659   2.014   2.331  0.3065 -0.0765  0.4777
  140OSM    HO315200   5.711   2.074   2.277  0.5659  0.1436  0.9599
  140OSM    C4S15201   5.639   2.012   2.585 -0.0025  0.2639  0.1542
  140OSM    H4S15202   5.694   1.971   2.671 -0.0011  0.8654  0.4439
  140OSM    C5S15203   5.519   2.072   2.610  0.1705  1.1031 -1.1750
  140OSM    H5S15204   5.464   2.129   2.534  2.4218  1.5440 -2.5829
  140OSM    C6S15205   5.462   2.067   2.750 -0.1234  0.0271 -0.0529
  140OSM    H6S15206   5.423   1.967   2.780  0.6197  0.7309  3.8735
  140OSM    H6T15207   5.375   2.136   2.759 -0.7210 -0.3995 -2.0257
  140OSM    C7S15208   5.562   2.103   2.864  1.0269  0.1713  0.7280
  140OSM    H7S15209   5.640   2.028   2.889  2.0384  0.6448 -0.8046
  140OSM    H7T15210   5.519   2.123   2.964  1.8325  1.2973  0.8740
  140OSM    C8S15211   5.636   2.231   2.838  0.0183  0.0082 -0.6856
  140OSM    H8S15212   5.588   2.303   2.769 -0.6935  0.3128  0.1085
  140OSM    H8T15213   5.731   2.199   2.789  0.4311 -0.2323  0.2523
  140OSM    C9S15214   5.693   2.303   2.964 -0.5654  0.2326  0.1009
  140OSM    H9S15215   5.611   2.352   3.020 -0.6952 -0.4694  0.5448
  140OSM    H9T15216   5.765   2.383   2.938 -2.0368  1.8624  0.8951
  140OSM   C10S15217   5.777   2.207   3.051 -0.4431  0.5238 -0.2673
  140OSM   H10S15218   5.873   2.186   3.000 -1.1443 -1.6247 -0.8267
  140OSM   H10T15219   5.723   2.113   3.076  0.7633 -0.4249 -1.1328
  140OSM   C11S15220   5.827   2.283   3.180 -0.4388  0.1232  0.3139
  140OSM   H11S15221   5.871   2.377   3.142  0.5143 -0.6406 -0.5340
  140OSM   H11T15222   5.910   2.223   3.223 -0.5769 -2.6225 -2.8475
  140OSM   C12S15223   5.726   2.305   3.288  0.1077 -0.0407  0.5447
  140OSM   H12S15224   5.681   2.206   3.310 -1.7564  0.5713 -0.2585
  140OSM   H12T15225   5.646   2.370   3.247 -2.2179 -2.4465  1.0290
  140OSM   C13S15226   5.793   2.369   3.410  0.5814 -0.6003  0.4441
  140OSM   H13S15227   5.708   2.412   3.467 -0.2482  0.6652 -1.6172
  140OSM   H13T15228   5.858   2.458   3.395  0.3912 -0.1554  2.0497
  140OSM   C14S15229   5.869   2.264   3.490  0.2499  0.4202 -0.4229
  140OSM   H14S15230   5.969   2.246   3.444  0.7821  2.4847 -0.1606
  140OSM   H14T15231   5.814   2.167   3.486  1.5347 -0.4624  1.5442
  140OSM   C15S15232   5.889   2.308   3.639  0.1763 -0.3034  0.1568
  140OSM   H15S15233   5.975   2.250   3.678 -1.6873 -2.5427  1.1527
  140OSM   H15T15234   5.800   2.283   3.700 -0.4712 -0.4446 -0.8290
  140OSM   C16S15235   5.927   2.455   3.661  0.1089  0.2448 -0.2685
  140OSM   H16S15236   5.855   2.530   3.622  0.8061  2.2304  2.0345
  140OSM   H16T15237   6.011   2.458   3.588 -0.6338 -0.6393 -1.2067
  140OSM   C17S15238   5.971   2.500   3.806 -0.0130 -0.8958 -0.4126
  140OSM   H17S15239   6.040   2.419   3.837  2.3699  1.6793  1.4334
  140OSM   H17T15240   5.876   2.506   3.864 -0.0906 -2.2312 -0.3768
  140OSM   C18S15241   6.039   2.637   3.810 -0.1896  0.3933 -0.0017
  140OSM   H18S15242   5.975   2.713   3.762 -2.5281 -1.1455  0.5054
  140OSM   H18T15243   6.131   2.645   3.749 -0.6853  1.8466 -0.5981
  140OSM   H18U15244   6.057   2.668   3.915 -3.2962  0.5937  0.5566
  140OSM    C1F15245   5.986   2.228   2.622 -0.8209 -0.1462 -0.4361
  140OSM     OF15246   5.971   2.330   2.556  0.1356 -0.3721 -0.0925
  140OSM    C2F15247   6.096   2.212   2.721 -0.7163  1.0401 -0.2672
  140OSM    H2F15248   6.192   2.210   2.666  0.0519 -0.7633  1.0320
  140OSM    H2G15249   6.088   2.114   2.772 -0.8026  0.9991 -0.3578
  140OSM    C3F15250   6.113   2.328   2.830 -0.3327  0.0246 -0.3459
  140OSM    H3F15251   6.017   2.358   2.877  0.0681  3.0644 -1.2308
  140OSM    H3G15252   6.152   2.425   2.791  0.2713 -0.3437 -0.6710
  140OSM    C4F15253   6.201   2.291   2.945 -0.3096  0.2718 -0.4837
  140OSM    H4F15254   6.306   2.278   2.911 -0.8379  0.1497 -2.1492
  140OSM    H4G15255   6.162   2.190   2.969 -1.5982  0.8007 -0.2926
  140OSM    C5F15256   6.192   2.377   3.068 -0.1368  0.1054  0.7411
  140OSM    H5F15257   6.120   2.328   3.136 -0.0639 -0.1018  0.6692
  140OSM    H5G15258   6.151   2.473   3.031  0.2141 -0.2896 -0.7100
  140OSM    C6F15259   6.314   2.388   3.161  0.6377  0.1571 -0.1918
  140OSM    H6F15260   6.408   2.423   3.114  1.2763 -0.9042  0.2582
  140OSM    H6G15261   6.335   2.283   3.192  1.1709  0.9492  2.3293
  140OSM    C7F15262   6.291   2.470   3.288 -0.1979  0.1173 -0.1635
  140OSM    H7F15263   6.237   2.558   3.246 -2.1385 -0.8571  0.1590
  140OSM    H7G15264   6.384   2.511   3.332 -0.9956  0.3939  1.3494
  140OSM    C8F15265   6.199   2.417   3.402 -1.2621 -0.4337  0.5175
  140OSM    H8F15266   6.098   2.399   3.361 -0.1039 -1.2641 -2.2281
  140OSM    H8G15267   6.175   2.496   3.475 -1.9835  1.9316 -2.0889
  140OSM    C9F15268   6.274   2.304   3.470 -0.7226 -0.0202  0.4190
  140OSM    H9F15269   6.274   2.209   3.416 -0.4309 -0.5136  1.2778
  140OSM   C10F15270   6.321   2.306   3.594  1.3746 -0.2805 -0.0568
  140OSM   H10F15271   6.364   2.216   3.640 -2.6955 -1.6204  1.6462
  140OSM   C11F15272   6.316   2.424   3.686 -0.0016  0.0388 -0.6348
  140OSM   H11F15273   6.213   2.419   3.729 -0.7541 -0.5430 -2.4108
  140OSM   H11G15274   6.327   2.518   3.628 -2.9172 -0.3760 -2.0386
  140OSM   C12F15275   6.421   2.422   3.801 -0.2521 -0.0161 -0.2237
  140OSM   H12F15276   6.398   2.339   3.870 -0.1059  0.0659 -0.0765
  140OSM   H12G15277   6.407   2.519   3.852  1.5140 -0.2845  0.8406
  140OSM   C13F15278   6.561   2.412   3.750  0.6042  0.2409 -0.1564
  140OSM   H13F15279   6.564   2.438   3.642 -2.0402  0.1450 -0.3178
  140OSM   H13G15280   6.586   2.304   3.758 -0.2158  0.1381  1.7971
  140OSM   C14F15281   6.667   2.482   3.836  0.0342 -0.5504  0.1024
  140OSM   H14F15282   6.649   2.591   3.821 -0.6194 -0.6094  0.4029
  140OSM   H14G15283   6.766   2.455   3.796  0.5603  0.2488  0.8211
  140OSM   C15F15284   6.669   2.451   3.988 -0.2628  0.2275 -0.4918
  140OSM   H15F15285   6.674   2.341   3.996  0.7160  0.1694 -1.7671
  140OSM   H15G15286   6.574   2.478   4.039  1.0377  2.0894  1.1053
  140OSM   C16F15287   6.774   2.526   4.060 -1.0339  0.5983 -0.3074
  140OSM   H16F15288   6.771   2.636   4.047  2.8803  0.7190 -1.3303
  140OSM   H16G15289   6.877   2.502   4.025 -2.2938 -1.9477 -2.7473
  140OSM   C17F15290   6.767   2.502   4.209 -0.3929  0.6732 -0.0642
  140OSM   H17F15291   6.837   2.418   4.231 -1.7530 -1.3990 -3.0670
  140OSM   H17G15292   6.668   2.459   4.234  0.6271 -2.6002 -1.1519
  140OSM   C18F15293   6.794   2.621   4.297  0.2308  0.4273 -0.1350
  140OSM   H18F15294   6.772   2.606   4.405  1.6170  1.6877  0.3604
  140OSM   H18G15295   6.713   2.695   4.277 -1.3241 -0.8206  1.3286
  140OSM   H18H15296   6.899   2.658   4.292  0.8764 -1.3491 -0.5482
  141OSM      N15297   1.799   1.053   2.629  0.0594 -0.4575 -0.5660
  141OSM    C1515298   1.754   0.911   2.590  0.3440  0.4263  0.3181
  141OSM   H15A15299   1.647   0.898   2.587  0.2721  1.0675 -2.9356
  141OSM   H15B15300   1.789   0.835   2.658  1.4498  1.5278  1.0463
  141OSM   H15C15301   1.773   0.887   2.487  0.1545  1.0029  0.1447
  141OSM    C1415302   1.724   1.154   2.544  0.2909 -0.5056  0.6143
  141OSM   H14A15303   1.617   1.160   2.557  0.5219  1.4650  2.1287
  141OSM   H14B15304   1.742   1.134   2.440 -1.8511 -2.2182  0.4997
  141OSM   H14C15305   1.761   1.254   2.562  0.5846  0.2853 -3.3969
  141OSM    C1315306   1.738   1.069   2.763 -0.1779 -0.5617  1.0018
  141OSM   H13A15307   1.745   1.173   2.790  1.8470 -0.3082 -0.3027
  141OSM   H13B15308   1.791   1.021   2.845 -0.5572  0.4131  1.8413
  141OSM   H13C15309   1.633   1.046   2.763 -0.4385  0.3546 -1.4833
  141OSM    C1215310   1.951   1.073   2.604 -0.5312  0.1435 -0.0193
  141OSM   H12A15311   1.964   1.065   2.497  2.7989 -0.7028  0.3479
  141OSM   H12B15312   1.990   0.981   2.644  1.5957 -0.1219 -2.4195
  141OSM    C1115313   2.020   1.195   2.657 -0.2442 -0.6221 -0.2110
  141OSM   H11A15314   2.130   1.199   2.642 -0.1637  2.5108  0.5923
  141OSM   H11B15315   1.998   1.207   2.765 -1.0019 -2.1869 -0.1638
  141OSM      P15316   2.043   1.420   2.530  0.4001  0.6501  0.3609
  141OSM    O1315317   2.133   1.352   2.434 -0.1110 -0.2983  0.0373
  141OSM    O1415318   1.953   1.528   2.484 -0.3475  0.5152  0.2485
  141OSM    O1115319   2.136   1.481   2.638  0.3649 -0.0423 -0.1834
  141OSM    O1215320   1.960   1.309   2.599 -0.0785 -0.1366  0.0402
  141OSM    C1S15321   2.097   1.588   2.725 -0.3259 -0.2014  0.3608
  141OSM    H1S15322   1.993   1.620   2.702 -0.6804 -1.0083  0.7776
  141OSM    H1T15323   2.153   1.683   2.716 -0.6327 -0.1114 -0.8227
  141OSM     NF15324   2.066   1.658   2.967 -0.0233  0.5263 -0.7315
  141OSM    HNF15325   2.137   1.714   3.009 -2.0215  2.9323 -0.3047
  141OSM    C2S15326   2.112   1.556   2.872 -0.1397 -0.3964 -1.1439
  141OSM    H2S15327   2.053   1.463   2.887  0.1675 -0.9242 -2.8595
  141OSM    C3S15328   2.261   1.505   2.905  0.3398  0.0131 -0.5709
  141OSM    H3S15329   2.320   1.599   2.898  0.5885 -0.0992 -0.0244
  141OSM     O315330   2.323   1.420   2.813  0.4675 -0.1830  0.1006
  141OSM    HO315331   2.259   1.412   2.742  2.1011 -1.5657 -1.3218
  141OSM    C4S15332   2.269   1.437   3.042 -0.0674  0.0715 -0.9713
  141OSM    H4S15333   2.309   1.512   3.112 -0.1098  0.5530 -1.4498
  141OSM    C5S15334   2.245   1.306   3.079  0.0457  0.5660 -0.8920
  141OSM    H5S15335   2.195   1.243   3.004 -1.6420  0.5304  0.2054
  141OSM    C6S15336   2.265   1.245   3.211  0.2898  0.0881  0.1906
  141OSM    H6S15337   2.338   1.161   3.210  2.1293  1.6185  0.7302
  141OSM    H6T15338   2.164   1.210   3.243  1.3677 -1.4656  2.2043
  141OSM    C7S15339   2.319   1.338   3.322 -0.3907  0.1864  0.7076
  141OSM    H7S15340   2.262   1.434   3.327 -1.4877 -0.3225 -1.1217
  141OSM    H7T15341   2.425   1.365   3.301 -0.8594  1.1306 -0.5902
  141OSM    C8S15342   2.319   1.256   3.452  0.2493 -0.0020  0.1081
  141OSM    H8S15343   2.371   1.159   3.435  4.5140  2.0743  0.2109
  141OSM    H8T15344   2.210   1.244   3.472 -0.0714  2.2943 -0.0160
  141OSM    C9S15345   2.380   1.327   3.563 -0.3247 -0.1527 -0.1893
  141OSM    H9S15346   2.328   1.421   3.594  0.7351  0.8989 -1.4413
  141OSM    H9T15347   2.484   1.360   3.539  0.9402 -1.5924  2.7684
  141OSM   C10S15348   2.385   1.243   3.686  0.6783  0.0601 -0.3508
  141OSM   H10S15349   2.455   1.157   3.671  0.0997 -0.1942 -1.7822
  141OSM   H10T15350   2.282   1.219   3.719  1.8832 -1.6133  2.6027
  141OSM   C11S15351   2.458   1.323   3.800  0.3846 -0.2312 -0.8098
  141OSM   H11S15352   2.416   1.426   3.801 -0.8255 -0.7110 -0.9877
  141OSM   H11T15353   2.561   1.347   3.767 -1.0052  2.2937 -3.8570
  141OSM   C12S15354   2.450   1.246   3.932 -0.3593 -1.2899 -0.1445
  141OSM   H12S15355   2.530   1.169   3.929 -0.3124 -1.2469 -0.0051
  141OSM   H12T15356   2.349   1.200   3.942 -1.2901  1.0855  3.4363
  141OSM   C13S15357   2.470   1.327   4.063 -0.0906 -0.5453  0.0444
  141OSM   H13S15358   2.382   1.393   4.080 -0.7391 -1.0171 -1.3256
  141OSM   H13T15359   2.555   1.398   4.048  0.3318 -0.7924  1.1582
  141OSM   C14S15360   2.509   1.238   4.182 -0.0846 -0.4664  0.1001
  141OSM   H14S15361   2.589   1.170   4.148 -0.1391  0.5339 -2.2042
  141OSM   H14T15362   2.418   1.178   4.200  0.3034 -1.3251 -0.7303
  141OSM   C15S15363   2.544   1.312   4.308  0.4169  0.8972 -0.3135
  141OSM   H15S15364   2.560   1.230   4.381 -2.4254  0.7214  0.1968
  141OSM   H15T15365   2.460   1.372   4.348 -0.0738 -0.0547  0.0998
  141OSM   C16S15366   2.670   1.395   4.285 -0.4754 -0.1624  0.3160
  141OSM   H16S15367   2.722   1.429   4.377 -0.4117 -0.0069  0.2237
  141OSM   H16T15368   2.654   1.493   4.236  2.2165 -0.1284 -0.6963
  141OSM   C17S15369   2.785   1.317   4.222  0.0087  0.3605 -0.3520
  141OSM   H17S15370   2.760   1.291   4.117 -0.5303 -0.0316 -0.1303
  141OSM   H17T15371   2.796   1.228   4.287  0.0900  1.8078  1.7303
  141OSM   C18S15372   2.914   1.401   4.227 -0.7322  0.2885  0.0918
  141OSM   H18S15373   2.971   1.394   4.322 -0.8509  1.4904  0.2699
  141OSM   H18T15374   2.887   1.505   4.199 -1.1491 -0.4945 -2.7423
  141OSM   H18U15375   2.971   1.356   4.143  0.9043 -2.2312  2.3879
  141OSM    C1F15376   1.933   1.679   2.985 -0.7124 -0.4759  0.1775
  141OSM     OF15377   1.853   1.611   2.921  0.3498 -0.2292  0.0178
  141OSM    C2F15378   1.891   1.775   3.085 -0.7614  0.2085  0.3573
  141OSM    H2F15379   1.787   1.772   3.122 -0.7926  2.4772  0.5591
  141OSM    H2G15380   1.905   1.875   3.040 -0.4445  0.4192  0.9143
  141OSM    C3F15381   1.977   1.781   3.214  0.6532 -0.5511 -0.4019
  141OSM    H3F15382   2.073   1.838   3.209  0.7186 -0.5422  0.7117
  141OSM    H3G15383   2.011   1.683   3.253 -1.8089 -0.7865  1.3905
  141OSM    C4F15384   1.890   1.816   3.334  0.1746 -0.2425  0.3108
  141OSM    H4F15385   1.806   1.745   3.347  0.7059 -0.7282  1.2745
  141OSM    H4G15386   1.841   1.912   3.307  0.6654 -0.5968 -2.0552
  141OSM    C5F15387   1.974   1.829   3.462  0.7304  1.2730  0.8169
  141OSM    H5F15388   2.060   1.898   3.445  1.0503  0.5496 -0.7368
  141OSM    H5G15389   2.034   1.738   3.483 -0.8315  0.1317  0.4782
  141OSM    C6F15390   1.887   1.862   3.588 -0.9462  0.3708  0.0545
  141OSM    H6F15391   1.809   1.785   3.603 -0.5542 -0.3915 -1.5575
  141OSM    H6G15392   1.842   1.959   3.558  0.0163  0.7170 -0.3134
  141OSM    C7F15393   1.973   1.874   3.717  1.2120  0.6123 -0.8800
  141OSM    H7F15394   2.044   1.956   3.691  0.6662  1.7574  1.0099
  141OSM    H7G15395   2.018   1.773   3.725 -0.6543 -0.1853  0.2679
  141OSM    C8F15396   1.906   1.900   3.852 -0.2560 -0.2190  0.4379
  141OSM    H8F15397   1.822   1.828   3.862 -0.0693 -0.8543 -1.9363
  141OSM    H8G15398   1.866   2.003   3.856  2.4608  0.8972  0.5600
  141OSM    C9F15399   2.001   1.863   3.967 -0.4854  0.3643  0.2988
  141OSM    H9F15400   2.085   1.797   3.942 -0.4955 -0.3048  1.9264
  141OSM   C10F15401   2.014   1.928   4.082 -0.1133 -0.4085 -0.6767
  141OSM   H10F15402   2.098   1.919   4.152  0.3115  0.1412 -1.1053
  141OSM   C11F15403   1.925   2.044   4.118  0.3210 -0.2099 -0.0600
  141OSM   H11F15404   1.820   2.030   4.085 -0.4096 -1.7040  2.6065
  141OSM   H11G15405   1.961   2.134   4.063 -0.1146 -0.0613 -0.1023
  141OSM   C12F15406   1.947   2.074   4.261  0.0183 -0.2302 -0.0551
  141OSM   H12F15407   1.912   1.996   4.333  0.9544  1.6174  2.5668
  141OSM   H12G15408   1.881   2.159   4.287  1.3012  1.0606 -0.9056
  141OSM   C13F15409   2.094   2.112   4.292  0.5134 -0.0680 -0.1825
  141OSM   H13F15410   2.130   2.190   4.222  1.0794  0.7323  0.9527
  141OSM   H13G15411   2.166   2.028   4.299  1.8105  0.9278 -0.9202
  141OSM   C14F15412   2.118   2.165   4.438 -0.1281  0.0431  0.0620
  141OSM   H14F15413   2.227   2.148   4.451 -0.5365 -2.3492  0.9936
  141OSM   H14G15414   2.057   2.099   4.504 -0.4699 -0.4024 -0.6926
  141OSM   C15F15415   2.074   2.316   4.450 -0.2326  0.4659 -0.1070
  141OSM   H15F15416   1.963   2.327   4.448 -0.1196  1.6542 -1.0275
  141OSM   H15G15417   2.114   2.368   4.360  1.0474  1.7320  1.1435
  141OSM   C16F15418   2.141   2.386   4.566 -0.4961  0.0580 -0.4654
  141OSM   H16F15419   2.251   2.397   4.551 -0.4704 -0.0847 -0.3771
  141OSM   H16G15420   2.127   2.322   4.656  0.4574  0.7960  0.2424
  141OSM   C17F15421   2.084   2.522   4.610 -0.1430  0.2920 -0.2759
  141OSM   H17F15422   1.973   2.519   4.608 -0.1569  0.9631 -1.6417
  141OSM   H17G15423   2.121   2.595   4.535  1.8272 -1.3290 -1.0111
  141OSM   C18F15424   2.132   2.560   4.750 -0.1229 -0.2940 -0.8291
  141OSM   H18F15425   2.104   2.665   4.773  0.1321 -0.3513 -0.2650
  141OSM   H18G15426   2.242   2.557   4.764 -0.2343  1.0605  0.6527
  141OSM   H18H15427   2.089   2.484   4.818  1.0127  0.0840  0.3478
  142OSM      N15428   2.535   3.428   2.304  0.3737  0.0916 -0.5456
  142OSM    C1515429   2.443   3.523   2.220 -0.1676  0.3626 -0.5173
  142OSM   H15A15430   2.438   3.625   2.256 -2.4955  0.4365 -0.8863
  142OSM   H15B15431   2.345   3.478   2.229  1.4074 -3.2765  0.0100
  142OSM   H15C15432   2.479   3.511   2.119 -2.0452 -1.5946 -1.0270
  142OSM    C1415433   2.515   3.287   2.263  0.3934 -0.0753  0.2101
  142OSM   H14A15434   2.416   3.246   2.281  0.8038 -0.2071  2.5113
  142OSM   H14B15435   2.579   3.234   2.332 -0.5924 -0.9723  0.4737
  142OSM   H14C15436   2.546   3.266   2.162 -1.0309 -0.4931 -0.1684
  142OSM    C1315437   2.671   3.452   2.266 -0.0368 -0.4688  0.3856
  142OSM   H13A15438   2.755   3.410   2.319  0.5757 -0.7564 -0.7802
  142OSM   H13B15439   2.695   3.557   2.258 -3.6267  0.5562  1.2671
  142OSM   H13C15440   2.680   3.419   2.164 -2.0790 -1.0058  0.3368
  142OSM    C1215441   2.521   3.456   2.452 -0.3156 -0.3074 -0.0423
  142OSM   H12A15442   2.599   3.402   2.503 -1.5342 -2.4746 -0.3201
  142OSM   H12B15443   2.422   3.426   2.485 -0.6909  2.2297  1.3946
  142OSM    C1115444   2.529   3.603   2.501 -0.2389  0.3076  0.7677
  142OSM   H11A15445   2.622   3.650   2.463  0.1885 -1.3183 -0.3293
  142OSM   H11B15446   2.538   3.617   2.611  1.8030  0.1205  0.6656
  142OSM      P15447   2.276   3.682   2.514  0.2718  0.3311 -0.0123
  142OSM    O1315448   2.203   3.785   2.436  0.3489  0.0313  0.1157
  142OSM    O1415449   2.225   3.543   2.502 -0.2832 -0.0263  0.1734
  142OSM    O1115450   2.303   3.731   2.663  0.0460  0.1640  0.1503
  142OSM    O1215451   2.422   3.685   2.448  0.4712 -0.6499  0.5334
  142OSM    C1S15452   2.388   3.846   2.671 -0.4481 -0.1683 -0.4756
  142OSM    H1S15453   2.348   3.940   2.628 -0.3808  1.3476  2.4962
  142OSM    H1T15454   2.493   3.835   2.634 -0.0100  2.2341 -0.0734
  142OSM     NF15455   2.472   4.017   2.820  0.1855  0.4238 -0.0876
  142OSM    HNF15456   2.571   4.015   2.806  0.2520  1.7588  0.0936
  142OSM    C2S15457   2.410   3.889   2.822  0.0107 -0.6783  0.7298
  142OSM    H2S15458   2.308   3.890   2.866 -0.6080 -2.3352 -0.5156
  142OSM    C3S15459   2.482   3.779   2.904 -0.5540 -0.3844  0.3000
  142OSM    H3S15460   2.592   3.778   2.888 -0.3623  0.5468  1.4599
  142OSM     O315461   2.442   3.641   2.888  0.8232 -0.8949  0.9699
  142OSM    HO315462   2.377   3.647   2.817  0.7337 -0.2778  1.0990
  142OSM    C4S15463   2.467   3.816   3.050 -0.5373 -0.5737 -0.3322
  142OSM    H4S15464   2.371   3.788   3.096 -0.3297  1.1709  1.3382
  142OSM    C5S15465   2.561   3.865   3.136 -0.1750  0.3672  0.2535
  142OSM    H5S15466   2.662   3.893   3.101  0.9102 -0.9832  2.1376
  142OSM    C6S15467   2.532   3.885   3.284  1.1679  0.2009 -0.5654
  142OSM    H6S15468   2.616   3.846   3.345  1.4334  0.2809 -0.8755
  142OSM    H6T15469   2.439   3.828   3.305  1.8484 -0.3304  1.2188
  142OSM    C7S15470   2.531   4.030   3.334  0.4546 -0.9021  0.3163
  142OSM    H7S15471   2.467   4.084   3.260  0.3681 -1.9262 -0.3928
  142OSM    H7T15472   2.626   4.087   3.334 -0.0282 -0.0831  0.8978
  142OSM    C8S15473   2.473   4.030   3.476 -0.6638 -0.4879 -0.6082
  142OSM    H8S15474   2.548   3.987   3.547 -1.1815 -2.1193 -0.9956
  142OSM    H8T15475   2.387   3.961   3.484 -0.2542 -1.0041 -0.5640
  142OSM    C9S15476   2.419   4.171   3.530  0.2856  0.1023 -0.5990
  142OSM    H9S15477   2.339   4.214   3.466  0.5273  2.0466  0.3151
  142OSM    H9T15478   2.506   4.240   3.528 -0.0559  0.5215 -1.2547
  142OSM   C10S15479   2.354   4.158   3.667 -0.1005  0.1305 -0.1705
  142OSM   H10S15480   2.279   4.076   3.668  1.2197 -1.1207 -0.4887
  142OSM   H10T15481   2.317   4.258   3.698 -0.5817 -0.5406  1.5222
  142OSM   C11S15482   2.452   4.129   3.780 -0.3319  1.1513 -0.1744
  142OSM   H11S15483   2.533   4.201   3.805  2.3568 -0.6224 -3.0175
  142OSM   H11T15484   2.488   4.028   3.752 -2.7031  0.4972 -1.1421
  142OSM   C12S15485   2.371   4.111   3.911 -0.2592  0.5597  0.5975
  142OSM   H12S15486   2.304   4.024   3.899 -2.3551  2.3222 -1.8655
  142OSM   H12T15487   2.302   4.198   3.913 -0.2759  0.6106 -0.9478
  142OSM   C13S15488   2.450   4.097   4.042  0.5849  0.1241  0.2093
  142OSM   H13S15489   2.511   4.189   4.057  2.4232 -0.7045 -1.6718
  142OSM   H13T15490   2.531   4.021   4.038  1.8762  1.4846 -3.0924
  142OSM   C14S15491   2.358   4.072   4.160  0.0130  0.6706  0.1968
  142OSM   H14S15492   2.300   3.980   4.139  0.3541  0.9217 -2.1418
  142OSM   H14T15493   2.290   4.159   4.169  0.9236  1.1626  3.4995
  142OSM   C15S15494   2.431   4.064   4.285 -0.8069 -0.6150  0.4578
  142OSM   H15S15495   2.468   4.165   4.313 -1.9761 -0.1294  0.2982
  142OSM   H15T15496   2.510   3.985   4.281  0.0251  0.1485  1.3080
  142OSM   C16S15497   2.327   4.024   4.392  0.2132 -0.0853  0.1839
  142OSM   H16S15498   2.307   3.916   4.375 -0.5752  0.0299  0.3514
  142OSM   H16T15499   2.232   4.075   4.368 -0.1092 -0.4139  0.7503
  142OSM   C17S15500   2.366   4.057   4.535 -1.4211 -0.5897  0.3724
  142OSM   H17S15501   2.464   4.007   4.547 -1.0179 -0.0021 -0.3869
  142OSM   H17T15502   2.295   4.007   4.604 -2.0494  1.4264  1.2545
  142OSM   C18S15503   2.381   4.209   4.569 -0.0099  0.1499  0.3740
  142OSM   H18S15504   2.475   4.253   4.529 -0.5912  0.4935 -0.6569
  142OSM   H18T15505   2.396   4.210   4.679  1.3931 -1.4710  0.2441
  142OSM   H18U15506   2.294   4.272   4.541  1.6014  1.7415 -1.3472
  142OSM    C1F15507   2.408   4.131   2.798 -1.0294  0.7294 -0.8781
  142OSM     OF15508   2.288   4.138   2.787 -0.3120 -0.6508  0.4856
  142OSM    C2F15509   2.496   4.253   2.795 -0.1674  0.1732  0.1652
  142OSM    H2F15510   2.536   4.254   2.691 -3.0882 -0.6792 -1.0666
  142OSM    H2G15511   2.585   4.245   2.860 -0.2993 -0.5702  0.2663
  142OSM    C3F15512   2.429   4.388   2.811  0.4721  0.2020  0.1769
  142OSM    H3F15513   2.348   4.395   2.736  0.9337  2.4488 -0.2155
  142OSM    H3G15514   2.492   4.479   2.793 -0.9421  1.0308 -0.7497
  142OSM    C4F15515   2.365   4.414   2.953 -0.0214  0.3999 -0.5384
  142OSM    H4F15516   2.297   4.327   2.972 -0.3739  0.0933 -2.8599
  142OSM    H4G15517   2.310   4.510   2.961 -3.4211 -1.4659  0.6246
  142OSM    C5F15518   2.477   4.423   3.064  0.0154  0.1076 -0.3111
  142OSM    H5F15519   2.544   4.503   3.027 -0.2306 -0.1591 -1.3736
  142OSM    H5G15520   2.533   4.328   3.080 -2.1118 -1.2009 -0.1734
  142OSM    C6F15521   2.412   4.479   3.191 -0.2511 -0.1434 -0.4586
  142OSM    H6F15522   2.336   4.409   3.232  0.0125 -0.8267 -1.1053
  142OSM    H6G15523   2.360   4.574   3.166  0.8788  0.5262 -0.3333
  142OSM    C7F15524   2.504   4.512   3.305 -0.6364 -0.1843 -0.3375
  142OSM    H7F15525   2.573   4.594   3.276 -1.0309  1.1297  2.2004
  142OSM    H7G15526   2.552   4.422   3.349  0.3204  1.9154  3.3678
  142OSM    C8F15527   2.429   4.570   3.437 -0.1117  0.8269  0.3250
  142OSM    H8F15528   2.384   4.479   3.482 -1.3722  1.1747 -0.2008
  142OSM    H8G15529   2.337   4.627   3.410  0.1006  0.4752 -1.2164
  142OSM    C9F15530   2.524   4.645   3.527  0.1346 -0.5868 -0.2828
  142OSM    H9F15531   2.626   4.606   3.527  0.3020 -0.1506  0.2506
  142OSM   C10F15532   2.488   4.751   3.608 -0.2657  0.4668  1.2534
  142OSM   H10F15533   2.568   4.793   3.670 -0.6045  1.1813  1.2104
  142OSM   C11F15534   2.346   4.801   3.624  0.2684  0.1562 -1.1750
  142OSM   H11F15535   2.271   4.758   3.555 -1.3550 -0.3708  0.8154
  142OSM   H11G15536   2.359   4.911   3.610 -1.4538  0.3457 -1.5165
  142OSM   C12F15537   2.299   4.792   3.768 -0.5422 -0.4924  0.2252
  142OSM   H12F15538   2.200   4.840   3.787 -0.4010 -1.2546  3.3651
  142OSM   H12G15539   2.374   4.853   3.821 -0.1567  1.3434 -2.2744
  142OSM   C13F15540   2.290   4.648   3.818  0.5277 -0.1143 -1.1567
  142OSM   H13F15541   2.388   4.610   3.856  0.7654  1.7330  0.2524
  142OSM   H13G15542   2.248   4.580   3.741  1.1193 -0.5105 -1.1374
  142OSM   C14F15543   2.189   4.645   3.934  0.0842  0.0894  0.1877
  142OSM   H14F15544   2.096   4.680   3.883  1.5121  2.2476 -1.0767
  142OSM   H14G15545   2.205   4.719   4.015  1.4500 -0.0047  0.0189
  142OSM   C15F15546   2.180   4.510   4.009 -0.7804 -0.2008 -0.1508
  142OSM   H15F15547   2.281   4.481   4.044 -0.8695 -0.4548 -0.1033
  142OSM   H15G15548   2.144   4.425   3.946  1.0461 -1.3634  0.2977
  142OSM   C16F15549   2.089   4.523   4.137  0.4597  0.3643 -0.3764
  142OSM   H16F15550   1.983   4.528   4.103 -0.0692 -1.5173  0.8634
  142OSM   H16G15551   2.116   4.615   4.193  0.7378  1.0271 -1.5729
  142OSM   C17F15552   2.096   4.395   4.223 -0.0004 -0.5615 -0.5867
  142OSM   H17F15553   2.202   4.377   4.254  0.3203  0.4956 -1.0426
  142OSM   H17G15554   2.072   4.300   4.170 -1.3518 -0.3605 -0.3458
  142OSM   C18F15555   2.009   4.406   4.346  0.1094  0.1463  0.3469
  142OSM   H18F15556   1.997   4.506   4.394 -0.2724 -1.0162  2.8265
  142OSM   H18G15557   2.044   4.345   4.432  0.9976  3.8180  2.8374
  142OSM   H18H15558   1.903   4.377   4.331 -0.3345  1.6219  0.4315
  143OSM      N15559   2.432   1.899   2.224 -0.6961 -0.3379  0.1871
  143OSM    C1515560   2.481   1.983   2.110 -0.3100  0.4473  0.2565
  143OSM   H15A15561   2.506   2.086   2.132  1.4916  0.5949 -1.9972
  143OSM   H15B15562   2.409   1.981   2.029  0.0889  1.0791 -0.1285
  143OSM   H15C15563   2.577   1.951   2.071  0.9727  1.5046  2.3687
  143OSM    C1415564   2.295   1.956   2.260 -0.5987 -0.2012 -0.2929
  143OSM   H14A15565   2.311   2.051   2.309  1.6606 -0.7596  0.1506
  143OSM   H14B15566   2.241   1.887   2.323  2.3860 -3.4618 -0.9920
  143OSM   H14C15567   2.227   1.975   2.178 -0.6226  2.2173  0.2145
  143OSM    C1315568   2.419   1.763   2.161 -0.0715 -0.1439  0.1055
  143OSM   H13A15569   2.340   1.767   2.087 -0.6050 -0.3261  0.6542
  143OSM   H13B15570   2.386   1.693   2.236 -0.5729  0.9266  0.9117
  143OSM   H13C15571   2.510   1.725   2.117 -0.0690 -0.6733  0.5488
  143OSM    C1215572   2.529   1.885   2.337 -0.5244  0.5371  0.6652
  143OSM   H12A15573   2.628   1.877   2.294 -0.5411  1.4050  0.4417
  143OSM   H12B15574   2.511   1.792   2.390  0.3940  0.2459  0.4834
  143OSM    C1115575   2.520   1.993   2.451 -0.3562  0.0114 -0.2300
  143OSM   H11A15576   2.503   2.092   2.403 -1.9888  0.1169  0.4997
  143OSM   H11B15577   2.619   1.996   2.503 -1.4563  0.7019  1.9855
  143OSM      P15578   2.436   1.859   2.659  0.0172  0.3073  0.1760
  143OSM    O1315579   2.349   1.881   2.771  0.2715 -0.1574  0.2242
  143OSM    O1415580   2.437   1.722   2.593  0.4316 -0.0935  0.7204
  143OSM    O1115581   2.581   1.892   2.712  0.4550  0.0344  0.0465
  143OSM    O1215582   2.413   1.967   2.543 -0.3327 -0.1197 -0.3052
  143OSM    C1S15583   2.609   2.004   2.795 -0.2746  1.2007 -0.6169
  143OSM    H1S15584   2.530   2.080   2.816  0.5352  1.9051 -0.0733
  143OSM    H1T15585   2.695   2.055   2.746  0.5458 -0.0372 -0.5050
  143OSM     NF15586   2.677   2.062   3.043  0.0237 -0.1071 -0.4640
  143OSM    HNF15587   2.772   2.077   3.070 -0.1670 -1.5934  1.1880
  143OSM    C2S15588   2.667   1.964   2.936  0.2269  0.0708 -0.7224
  143OSM    H2S15589   2.595   1.891   2.979 -0.7470  2.0475  1.2022
  143OSM    C3S15590   2.807   1.888   2.922  0.4768  0.1522  0.7145
  143OSM    H3S15591   2.890   1.961   2.907  1.0050 -0.2560  1.5989
  143OSM     O315592   2.800   1.787   2.818 -0.0243 -0.3637 -0.0936
  143OSM    HO315593   2.731   1.822   2.760  2.2571  1.7264 -1.7507
  143OSM    C4S15594   2.839   1.809   3.047  0.3597 -0.3559 -0.9971
  143OSM    H4S15595   2.764   1.739   3.086 -0.8504 -0.0566 -2.6602
  143OSM    C5S15596   2.958   1.818   3.111 -0.5099 -0.5382  0.5435
  143OSM    H5S15597   3.032   1.891   3.075 -0.8723 -0.2771  0.3183
  143OSM    C6S15598   2.996   1.745   3.235 -0.1433  0.6365 -0.2693
  143OSM    H6S15599   3.104   1.719   3.235  0.0041  1.0705  2.0843
  143OSM    H6T15600   2.951   1.643   3.234  2.9306 -0.8378  0.3973
  143OSM    C7S15601   2.975   1.806   3.371  0.8287 -0.8256  0.1419
  143OSM    H7S15602   2.890   1.877   3.374  0.3346 -1.3830 -0.4038
  143OSM    H7T15603   3.055   1.881   3.390 -0.1838  0.5723 -0.8774
  143OSM    C8S15604   2.975   1.704   3.476  0.2248  0.1994 -0.3458
  143OSM    H8S15605   3.058   1.636   3.447 -1.1851 -1.0275 -1.6556
  143OSM    H8T15606   2.883   1.643   3.470  1.3621 -1.4526 -2.0359
  143OSM    C9S15607   2.996   1.768   3.616  0.0609 -0.6243  0.8427
  143OSM    H9S15608   2.907   1.745   3.679  1.4735 -1.2259  2.7384
  143OSM    H9T15609   2.997   1.878   3.600  0.5862 -0.7363  0.0764
  143OSM   C10S15610   3.135   1.738   3.677 -0.0992  0.1432  0.0077
  143OSM   H10S15611   3.219   1.770   3.612 -1.0215  1.5054 -0.5580
  143OSM   H10T15612   3.147   1.627   3.676 -0.0544  0.1422 -1.4925
  143OSM   C11S15613   3.145   1.793   3.821 -0.3074 -0.4270 -0.0106
  143OSM   H11S15614   3.108   1.897   3.833 -0.6107 -0.7222  2.1213
  143OSM   H11T15615   3.253   1.795   3.846 -0.2747 -0.7719 -0.1147
  143OSM   C12S15616   3.071   1.715   3.929 -0.9246  0.0855  1.2848
  143OSM   H12S15617   2.968   1.732   3.894 -0.6097  0.6820  0.6261
  143OSM   H12T15618   3.076   1.754   4.033  0.4947 -0.0574  1.2910
  143OSM   C13S15619   3.104   1.567   3.944  0.4300 -0.8188  0.1127
  143OSM   H13S15620   3.069   1.508   3.856  0.3537  0.3780 -0.6880
  143OSM   H13T15621   3.048   1.531   4.033  0.5104 -2.5874 -0.5118
  143OSM   C14S15622   3.248   1.540   3.954 -0.1614  0.4273 -0.5959
  143OSM   H14S15623   3.316   1.598   3.887  3.3469 -0.2999  2.0453
  143OSM   H14T15624   3.269   1.432   3.935 -0.0673 -0.0085  1.6669
  143OSM   C15S15625   3.306   1.578   4.091 -0.3273 -0.6031  0.1337
  143OSM   H15S15626   3.242   1.535   4.170 -1.0347 -0.6905 -0.4773
  143OSM   H15T15627   3.297   1.688   4.108 -0.1404 -0.9266  2.6349
  143OSM   C16S15628   3.454   1.539   4.104 -0.0693 -0.7248 -0.3565
  143OSM   H16S15629   3.502   1.559   4.006  1.6564  0.5132  0.6894
  143OSM   H16T15630   3.454   1.428   4.105 -1.3353 -0.7397 -0.5490
  143OSM   C17S15631   3.531   1.604   4.219 -0.0189 -0.1343  0.1803
  143OSM   H17S15632   3.532   1.715   4.221 -0.0350 -0.0630 -1.8950
  143OSM   H17T15633   3.636   1.585   4.186  0.3908  0.5056  1.0783
  143OSM   C18S15634   3.509   1.558   4.369  0.8765  0.0931  1.3083
  143OSM   H18S15635   3.399   1.566   4.378  0.4293 -1.0952 -1.7445
  143OSM   H18T15636   3.568   1.619   4.441 -0.4732  0.4889  2.1069
  143OSM   H18U15637   3.545   1.453   4.371 -0.4319 -0.3844  0.5191
  143OSM    C1F15638   2.570   2.126   3.091 -0.6373 -0.3334 -0.5348
  143OSM     OF15639   2.457   2.083   3.070  0.7346 -0.2527  0.2077
  143OSM    C2F15640   2.597   2.249   3.162  0.1715  0.5443 -0.3324
  143OSM    H2F15641   2.615   2.325   3.083  0.3520  0.4145 -0.4171
  143OSM    H2G15642   2.681   2.229   3.233  0.7553 -3.2193 -1.8387
  143OSM    C3F15643   2.474   2.295   3.248 -0.0073 -0.2945  0.2177
  143OSM    H3F15644   2.482   2.233   3.340  2.1442 -0.8499 -0.2683
  143OSM    H3G15645   2.373   2.280   3.205  0.2487 -1.2519 -0.0740
  143OSM    C4F15646   2.494   2.442   3.265  0.1787 -0.5511  0.0889
  143OSM    H4F15647   2.478   2.485   3.164 -0.3493  0.6312  0.6508
  143OSM    H4G15648   2.602   2.459   3.285  0.9511  0.3402 -4.0455
  143OSM    C5F15649   2.396   2.497   3.374 -0.3726  0.5275 -0.1150
  143OSM    H5F15650   2.398   2.429   3.461 -0.2490  0.5681 -0.0854
  143OSM    H5G15651   2.298   2.500   3.323  0.1197  1.4426 -1.0741
  143OSM    C6F15652   2.442   2.628   3.435  0.9609 -0.1799  0.0544
  143OSM    H6F15653   2.398   2.708   3.371 -0.9586 -0.7883  0.5254
  143OSM    H6G15654   2.553   2.630   3.438  0.9902  0.8344 -1.0419
  143OSM    C7F15655   2.390   2.645   3.578 -0.2805  0.0392  0.5790
  143OSM    H7F15656   2.420   2.562   3.646 -1.1078 -0.8262 -0.0881
  143OSM    H7G15657   2.279   2.647   3.567 -0.1312 -1.8583 -2.0238
  143OSM    C8F15658   2.449   2.776   3.656 -0.5939 -0.3771  0.8187
  143OSM    H8F15659   2.405   2.864   3.604 -0.4037 -0.5872  0.2996
  143OSM    H8G15660   2.559   2.779   3.642 -0.7688 -0.5155 -0.8133
  143OSM    C9F15661   2.406   2.775   3.801 -0.4474 -0.1115  0.3695
  143OSM    H9F15662   2.297   2.765   3.810 -0.5679 -0.8817 -1.4121
  143OSM   C10F15663   2.477   2.773   3.912  0.7436  0.2370  0.3138
  143OSM   H10F15664   2.431   2.758   4.011  1.1705  0.9674  0.6365
  143OSM   C11F15665   2.632   2.762   3.913 -0.4119 -0.2790  0.0230
  143OSM   H11F15666   2.689   2.842   3.966  0.5378 -1.4405  0.8031
  143OSM   H11G15667   2.682   2.777   3.815 -0.6871  1.8001  0.1465
  143OSM   C12F15668   2.668   2.632   3.979  0.0445 -0.2942 -0.2987
  143OSM   H12F15669   2.625   2.638   4.081  1.1301 -0.7060  0.1961
  143OSM   H12G15670   2.779   2.624   3.981  0.1030  0.5756  1.0243
  143OSM   C13F15671   2.614   2.496   3.919 -0.3696 -0.4819  0.7608
  143OSM   H13F15672   2.507   2.502   3.890  0.2768  2.3492 -1.4590
  143OSM   H13G15673   2.624   2.426   4.005  1.0236  1.1118  1.9729
  143OSM   C14F15674   2.691   2.457   3.795  0.4365 -0.0112  0.0681
  143OSM   H14F15675   2.801   2.465   3.809  0.2570  0.4604  1.2817
  143OSM   H14G15676   2.671   2.532   3.715  1.4622 -0.6355 -0.8021
  143OSM   C15F15677   2.665   2.312   3.743  0.3358  0.2678 -0.2063
  143OSM   H15F15678   2.562   2.307   3.701  1.4738 -0.9256 -3.1566
  143OSM   H15G15679   2.674   2.243   3.829 -1.7195  0.4011  0.1484
  143OSM   C16F15680   2.772   2.268   3.642 -0.3405 -0.4541 -0.2599
  143OSM   H16F15681   2.867   2.307   3.683 -0.0791 -1.5475  0.1783
  143OSM   H16G15682   2.773   2.313   3.540  0.7020 -1.0160 -0.5046
  143OSM   C17F15683   2.781   2.110   3.634 -0.1699 -0.0656  0.3728
  143OSM   H17F15684   2.854   2.080   3.556  1.9876 -1.0268  2.6166
  143OSM   H17G15685   2.680   2.079   3.600  0.3352  2.0799 -3.6644
  143OSM   C18F15686   2.830   2.033   3.753  0.2293  0.9948 -0.0588
  143OSM   H18F15687   2.778   2.068   3.845 -0.9387  0.3874 -0.4563
  143OSM   H18G15688   2.940   2.037   3.765  0.2735 -0.9054  0.4636
  143OSM   H18H15689   2.817   1.923   3.739  0.1207  0.5287  2.8850
  144OSM      N15690   1.568   2.934   2.397 -0.1476  0.3265 -0.2027
  144OSM    C1515691   1.421   2.965   2.412 -0.3492 -0.4404  0.1462
  144OSM   H15A15692   1.369   2.903   2.483 -1.4916 -0.3183 -0.5601
  144OSM   H15B15693   1.374   2.958   2.315  0.7413  0.2193 -0.4546
  144OSM   H15C15694   1.409   3.067   2.445  1.4108 -0.4262  0.8426
  144OSM    C1415695   1.618   3.017   2.284 -0.2640  0.4880  0.0414
  144OSM   H14A15696   1.724   3.000   2.272 -0.0362  1.0450  1.1338
  144OSM   H14B15697   1.616   3.122   2.308  0.3355  0.1618  1.6789
  144OSM   H14C15698   1.558   2.997   2.196 -0.4598 -0.5978  0.3962
  144OSM    C1315699   1.637   2.973   2.529  0.0563  0.4863 -0.0217
  144OSM   H13A15700   1.588   2.916   2.607  0.8647  0.8413  0.7639
  144OSM   H13B15701   1.617   3.075   2.560 -2.2866 -0.4071  1.7235
  144OSM   H13C15702   1.743   2.955   2.532 -0.1152 -0.5509  0.4868
  144OSM    C1215703   1.602   2.795   2.366 -0.1942 -0.0386 -0.2049
  144OSM   H12A15704   1.568   2.769   2.267 -1.7593 -0.4220  0.4082
  144OSM   H12B15705   1.535   2.733   2.424  1.6642  0.0842  2.2395
  144OSM    C1115706   1.739   2.733   2.389 -0.3063  0.3380  0.7710
  144OSM   H11A15707   1.716   2.625   2.373 -1.0461  0.7100 -0.7725
  144OSM   H11B15708   1.779   2.754   2.491  3.2625  1.6882 -0.7550
  144OSM      P15709   1.944   2.878   2.328 -0.5633 -0.0828 -0.5428
  144OSM    O1315710   2.080   2.811   2.308 -0.0460 -0.2335  0.1125
  144OSM    O1415711   1.917   2.997   2.250 -0.0769  0.1783  0.2756
  144OSM    O1115712   1.932   2.909   2.485 -0.0758 -0.6265 -0.0279
  144OSM    O1215713   1.826   2.776   2.290 -0.5814 -0.3068  0.4773
  144OSM    C1S15714   2.002   3.020   2.533  0.0570  0.0723  0.4367
  144OSM    H1S15715   1.964   3.115   2.491 -0.0824 -1.0621 -2.2376
  144OSM    H1T15716   2.112   3.017   2.520  0.3155 -0.5669  2.5085
  144OSM     NF15717   1.972   3.160   2.734  0.8864  0.1978 -0.0257
  144OSM    HNF15718   2.049   3.197   2.786  1.1799  1.2845 -1.1989
  144OSM    C2S15719   1.975   3.024   2.685 -0.2562  0.2514 -0.1661
  144OSM    H2S15720   1.873   2.982   2.698 -1.0211  1.7054 -1.2238
  144OSM    C3S15721   2.074   2.935   2.768 -0.2529  0.5567 -0.1370
  144OSM    H3S15722   2.175   2.978   2.753  0.4332 -1.2913 -1.2220
  144OSM     O315723   2.078   2.801   2.719  0.0330 -0.2949 -0.4889
  144OSM    HO315724   2.012   2.805   2.649 -0.3452 -0.7157 -0.1670
  144OSM    C4S15725   2.056   2.935   2.916  0.1335  0.2762 -0.4059
  144OSM    H4S15726   2.117   3.007   2.973 -1.9498  1.3592  0.5609
  144OSM    C5S15727   1.980   2.843   2.986 -0.5838  0.1023  0.3849
  144OSM    H5S15728   1.922   2.770   2.928  2.5298 -1.7325 -0.6824
  144OSM    C6S15729   1.976   2.823   3.129  0.4371  0.1583 -0.4923
  144OSM    H6S15730   1.980   2.714   3.152 -0.8493  0.0099 -0.8700
  144OSM    H6T15731   1.878   2.865   3.160  0.7077  0.8600 -0.5681
  144OSM    C7S15732   2.085   2.893   3.218 -0.3196  0.4244 -0.5316
  144OSM    H7S15733   2.065   3.001   3.202 -1.4579  0.3216  0.1008
  144OSM    H7T15734   2.186   2.865   3.181 -0.3012 -0.3419  0.0801
  144OSM    C8S15735   2.069   2.866   3.366 -0.5907  0.3151 -0.4325
  144OSM    H8S15736   2.094   2.760   3.384  1.5666  0.4552 -2.1157
  144OSM    H8T15737   1.966   2.894   3.397  0.4689  3.6771  0.5329
  144OSM    C9S15738   2.156   2.961   3.458  0.0747  0.4528  0.2514
  144OSM    H9S15739   2.132   3.062   3.418  1.5249  0.4809 -0.6011
  144OSM    H9T15740   2.261   2.927   3.456 -0.0010  0.1376  1.2077
  144OSM   C10S15741   2.099   2.944   3.601 -0.6555 -0.3024 -0.3238
  144OSM   H10S15742   2.134   2.849   3.645  0.1504  0.3899  0.5864
  144OSM   H10T15743   1.989   2.945   3.583 -0.5423 -2.7462 -1.4335
  144OSM   C11S15744   2.145   3.048   3.705 -0.6241  0.1567 -0.1346
  144OSM   H11S15745   2.122   3.153   3.676 -2.2070 -0.5731 -1.7705
  144OSM   H11T15746   2.256   3.051   3.703 -0.5564  0.6386  1.9971
  144OSM   C12S15747   2.098   3.023   3.855  0.0255  0.0326 -0.4770
  144OSM   H12S15748   2.163   2.941   3.893  0.4239 -0.9058 -2.9476
  144OSM   H12T15749   1.995   2.983   3.858  0.6354 -1.5544  0.7570
  144OSM   C13S15750   2.113   3.147   3.948 -0.1173 -0.8268 -0.3500
  144OSM   H13S15751   2.054   3.231   3.905  0.6964 -0.6330 -1.1284
  144OSM   H13T15752   2.219   3.180   3.943 -0.2618  0.3023  2.2673
  144OSM   C14S15753   2.073   3.126   4.091 -0.3583  0.1145 -0.3595
  144OSM   H14S15754   2.126   3.034   4.123 -1.3651  0.2105  1.7626
  144OSM   H14T15755   1.963   3.106   4.092 -0.2021 -0.8682 -1.3583
  144OSM   C15S15756   2.101   3.239   4.188  0.1763 -1.0342  0.0419
  144OSM   H15S15757   2.053   3.334   4.157 -0.5704 -0.7735  1.8876
  144OSM   H15T15758   2.212   3.247   4.189  0.4761 -2.6841 -3.4702
  144OSM   C16S15759   2.046   3.217   4.329 -0.5738 -0.0364 -0.1437
  144OSM   H16S15760   2.081   3.117   4.361 -0.4359  0.4075  1.1489
  144OSM   H16T15761   1.935   3.211   4.330 -0.5220 -1.0720  1.3677
  144OSM   C17S15762   2.092   3.322   4.434 -0.9019 -0.1171 -0.0534
  144OSM   H17S15763   2.066   3.425   4.400 -0.4257 -0.6961 -2.3947
  144OSM   H17T15764   2.203   3.313   4.439 -0.7473 -1.0630 -3.1199
  144OSM   C18S15765   2.024   3.301   4.575 -0.2955  0.4024  0.2719
  144OSM   H18S15766   2.061   3.377   4.648 -0.5976  0.3772  0.4507
  144OSM   H18T15767   2.045   3.200   4.616 -1.4481 -0.7227 -1.7531
  144OSM   H18U15768   1.916   3.327   4.574 -0.1534  1.0833  1.1732
  144OSM    C1F15769   1.897   3.259   2.693  0.1951  0.3519 -0.1227
  144OSM     OF15770   1.796   3.237   2.628 -0.4206  0.0965  0.1130
  144OSM    C2F15771   1.950   3.396   2.734  0.0844  0.1726 -0.3269
  144OSM    H2F15772   2.057   3.406   2.710  0.3240 -2.8847 -0.8911
  144OSM    H2G15773   1.939   3.393   2.844 -0.4530 -1.3698 -0.3996
  144OSM    C3F15774   1.861   3.505   2.683  0.7582 -0.0712 -0.1796
  144OSM    H3F15775   1.756   3.474   2.699  0.5982 -1.5625 -3.3677
  144OSM    H3G15776   1.866   3.499   2.572 -0.0441 -0.8397 -0.1923
  144OSM    C4F15777   1.899   3.643   2.742  0.3918 -0.0400  1.0494
  144OSM    H4F15778   1.851   3.730   2.692  0.5479  0.3462  1.5566
  144OSM    H4G15779   2.008   3.657   2.727  0.5331 -0.9454  1.2020
  144OSM    C5F15780   1.874   3.668   2.893  0.5077 -0.5227 -0.1855
  144OSM    H5F15781   1.909   3.772   2.908 -0.5183 -0.1148 -0.5546
  144OSM    H5G15782   1.917   3.598   2.967 -3.3953 -0.1530  2.7639
  144OSM    C6F15783   1.727   3.665   2.934 -0.5824 -0.3582 -0.6423
  144OSM    H6F15784   1.698   3.560   2.956  1.3206 -1.5363 -3.2586
  144OSM    H6G15785   1.663   3.691   2.847 -0.2160  0.2509 -0.7376
  144OSM    C7F15786   1.682   3.770   3.046  0.5482 -0.0734 -0.6539
  144OSM    H7F15787   1.575   3.798   3.036  0.4878  0.7476  1.6989
  144OSM    H7G15788   1.735   3.862   3.016 -0.1002  0.9625  1.2127
  144OSM    C8F15789   1.721   3.737   3.188 -0.6045 -0.0648  0.0263
  144OSM    H8F15790   1.734   3.827   3.251 -0.7060  0.9155 -1.2966
  144OSM    H8G15791   1.825   3.696   3.185 -0.3272  0.6112  0.3241
  144OSM    C9F15792   1.630   3.639   3.248 -0.2022  0.4141  0.3665
  144OSM    H9F15793   1.606   3.551   3.187  0.7985  0.5639 -0.2631
  144OSM   C10F15794   1.563   3.654   3.365 -0.1934 -0.5879 -0.3236
  144OSM   H10F15795   1.503   3.564   3.389 -0.0281 -0.4738  0.5454
  144OSM   C11F15796   1.570   3.753   3.475  0.1249 -0.4556 -0.0991
  144OSM   H11F15797   1.466   3.770   3.509 -0.4097  1.8914 -2.5907
  144OSM   H11G15798   1.595   3.855   3.439  0.7032 -0.2957  0.7352
  144OSM   C12F15799   1.658   3.720   3.597  0.7003 -0.2267 -0.3149
  144OSM   H12F15800   1.765   3.705   3.573 -0.0300 -1.9555 -2.8967
  144OSM   H12G15801   1.622   3.630   3.653  0.8819  0.7401  1.4439
  144OSM   C13F15802   1.662   3.832   3.708 -0.1349 -0.9418  0.3610
  144OSM   H13F15803   1.687   3.917   3.641 -1.8656 -1.1055 -0.5361
  144OSM   H13G15804   1.747   3.799   3.772 -0.5891 -1.4421  0.7142
  144OSM   C14F15805   1.538   3.848   3.792  0.4895  0.2833 -0.4887
  144OSM   H14F15806   1.449   3.802   3.744 -0.1382  0.6697  0.2666
  144OSM   H14G15807   1.520   3.957   3.805  2.9296  0.9711 -2.2092
  144OSM   C15F15808   1.549   3.796   3.938  0.7951 -0.4411 -0.0351
  144OSM   H15F15809   1.638   3.840   3.987  0.1759 -0.8116  1.5167
  144OSM   H15G15810   1.571   3.689   3.916  0.2339 -0.2170 -1.8741
  144OSM   C16F15811   1.421   3.810   4.021 -0.3804  0.7737  0.5725
  144OSM   H16F15812   1.348   3.766   3.950  1.4625 -1.0679 -0.2827
  144OSM   H16G15813   1.397   3.915   4.049 -1.1844  0.9786 -0.7920
  144OSM   C17F15814   1.428   3.724   4.150  0.1540  0.0248  0.1968
  144OSM   H17F15815   1.455   3.618   4.129 -0.4143 -0.1783  0.4846
  144OSM   H17G15816   1.327   3.725   4.195  0.1884 -0.6061  0.2896
  144OSM   C18F15817   1.513   3.786   4.258 -0.1296 -0.3480  0.3073
  144OSM   H18F15818   1.520   3.721   4.348  1.3575  0.9577  1.1969
  144OSM   H18G15819   1.489   3.891   4.285  2.7075  1.2349 -2.5680
  144OSM   H18H15820   1.619   3.790   4.224 -0.2927  2.0376 -0.1407
  145SAPE     N15821   3.526   4.416   6.736  0.0715 -0.0558  0.0983
  145SAPE   HN115822   3.439   4.471   6.754 -0.4829 -1.1138  0.7525
  145SAPE   HN215823   3.495   4.323   6.703  2.4439 -0.9883  0.3110
  145SAPE   HN315824   3.573   4.399   6.827 -0.0201  0.1330  0.1826
  145SAPE   C1215825   3.626   4.473   6.637  0.4840  0.1688 -0.0585
  145SAPE  H12A15826   3.634   4.584   6.637  0.4868  0.1689 -0.1922
  145SAPE  H12B15827   3.598   4.443   6.534  2.1191  0.7638 -0.7165
  145SAPE   C1115828   3.761   4.414   6.671 -0.1423  0.6989  0.5679
  145SAPE  H11A15829   3.833   4.476   6.615  0.3554  0.2322  0.6783
  145SAPE  H11B15830   3.764   4.306   6.645  1.0763  0.9454 -0.3952
  145SAPE     P15831   3.923   4.401   6.873 -0.0375 -0.0865 -0.2817
  145SAPE   O1315832   3.973   4.529   6.921 -0.3540  0.1889 -0.2716
  145SAPE   O1415833   3.913   4.293   6.970  0.1052 -0.3751 -0.9374
  145SAPE   O1215834   3.781   4.432   6.818  0.2271 -0.1925  0.1159
  145SAPE   O1115835   4.005   4.349   6.747 -1.0878  0.4344 -0.2581
  145SAPE    C115836   4.140   4.401   6.725  0.3258 -0.9893 -0.4491
  145SAPE    HA15837   4.189   4.418   6.822  0.3866 -0.6137 -0.5454
  145SAPE    HB15838   4.208   4.325   6.680 -0.4655 -2.9670  1.5302
  145SAPE    C215839   4.139   4.537   6.640  0.5074  0.8591 -0.1479
  145SAPE    HS15840   4.089   4.611   6.706 -1.6111 -0.7152  0.1223
  145SAPE   O2115841   4.074   4.510   6.515 -0.1351 -0.1250 -0.2351
  145SAPE   C2115842   4.039   4.609   6.451 -0.0002 -0.2915  0.5372
  145SAPE   O2215843   4.037   4.726   6.489 -0.1909  0.2391 -0.0787
  145SAPE   C2215844   4.006   4.562   6.314 -0.2083 -1.0728  0.5380
  145SAPE   H2R15845   4.102   4.539   6.262 -0.6065 -0.8117 -0.3264
  145SAPE   H2S15846   3.947   4.469   6.322 -0.4611 -0.9995 -0.4578
  145SAPE    C315847   4.281   4.588   6.607 -0.5058  0.5262 -0.9789
  145SAPE    HX15848   4.315   4.612   6.710  0.6820 -0.5022 -1.0986
  145SAPE    HY15849   4.275   4.688   6.559 -2.1560  2.3676  2.6956
  145SAPE   O3115850   4.369   4.484   6.548  0.0332 -0.0772 -0.4276
  145SAPE   C3115851   4.369   4.499   6.417  0.3930 -0.7902  0.5943
  145SAPE   O3215852   4.335   4.604   6.356 -0.1377  0.1355  0.2710
  145SAPE   C3215853   4.423   4.377   6.346 -0.2303 -0.1653  0.7430
  145SAPE   H2X15854   4.376   4.281   6.376  0.0780 -1.0088 -1.3738
  145SAPE   H2Y15855   4.533   4.379   6.365  0.5181  1.9433 -2.8506
  145SAPE   C2315856   3.927   4.668   6.227 -0.1814  0.1848  0.6592
  145SAPE   H3R15857   3.998   4.750   6.204  0.8675 -0.6799  0.7554
  145SAPE   H3S15858   3.846   4.715   6.288  0.0808 -0.4145  1.4926
  145SAPE   C2415859   3.867   4.603   6.107 -0.3429 -0.0755  0.2738
  145SAPE   H4R15860   3.799   4.516   6.117 -2.9376  0.9776 -4.7515
  145SAPE   H4S15861   3.956   4.568   6.049 -0.6247 -1.7458  0.7960
  145SAPE   C2515862   3.789   4.698   6.019 -0.4141 -0.7640 -0.0618
  145SAPE   H5R15863   3.702   4.736   6.074  0.5977  2.0333 -0.2394
  145SAPE   C2615864   3.834   4.761   5.905 -0.5277  0.3365 -0.3576
  145SAPE   H6R15865   3.766   4.816   5.837 -1.8849 -2.3451 -1.3155
  145SAPE   C2715866   3.958   4.721   5.838 -0.7522 -0.0901  0.8070
  145SAPE   H7R15867   3.941   4.723   5.728  1.9399  0.1073  0.3292
  145SAPE   H7S15868   3.977   4.614   5.860 -2.1237 -0.0567  2.3736
  145SAPE   C2815869   4.071   4.818   5.869  0.3319  0.6953 -0.1154
  145SAPE   H8R15870   4.151   4.771   5.930  0.3814  2.3505  1.1712
  145SAPE   C2915871   4.093   4.944   5.826  0.1141 -0.0789  0.3323
  145SAPE   H9R15872   4.172   5.015   5.855 -0.0993  0.5734 -0.6032
  145SAPE  C21015873   4.000   5.017   5.734  0.0591  0.1946  0.2289
  145SAPE  H10R15874   3.959   4.947   5.658  1.5648 -0.1927 -0.2704
  145SAPE  H10S15875   4.064   5.082   5.670 -0.2463  3.4707  2.9689
  145SAPE  C21115876   3.887   5.090   5.792 -1.0640 -0.2875  0.4152
  145SAPE  H11R15877   3.894   5.090   5.902  1.7419  0.7822  0.3225
  145SAPE  C21215878   3.793   5.160   5.720 -0.2570 -0.0893 -0.4785
  145SAPE  H12R15879   3.715   5.216   5.772 -0.2572 -0.5679  0.0481
  145SAPE  C21315880   3.791   5.167   5.568  0.5561  0.1735  0.0768
  145SAPE  H13R15881   3.759   5.073   5.517 -1.3118  0.1897  1.1437
  145SAPE  H13S15882   3.893   5.179   5.527  0.7258 -2.2972 -0.3942
  145SAPE  C21415883   3.695   5.277   5.521  0.0825  0.2727 -0.1585
  145SAPE  H14R15884   3.627   5.319   5.597 -1.4729 -0.7687 -0.9162
  145SAPE  C21515885   3.704   5.338   5.399 -0.1740  0.0742 -0.5913
  145SAPE  H15R15886   3.638   5.422   5.375  0.2243  0.9430  1.2461
  145SAPE  C21615887   3.787   5.291   5.285 -0.2137  0.4071 -0.1802
  145SAPE  H16R15888   3.815   5.184   5.282 -0.7531  0.2749 -2.7218
  145SAPE  H16S15889   3.880   5.352   5.283 -0.2288  0.5199  1.2702
  145SAPE  C21715890   3.723   5.336   5.147 -0.8129 -0.3391 -0.4073
  145SAPE  H17R15891   3.689   5.442   5.151  0.7656  0.2066 -0.8506
  145SAPE  H17S15892   3.626   5.283   5.131 -0.2449 -1.0470 -1.6828
  145SAPE  C21815893   3.828   5.325   5.028  0.1660  0.6730 -1.0057
  145SAPE  H18R15894   3.852   5.220   5.000 -3.6162 -0.2927 -1.3081
  145SAPE  H18S15895   3.911   5.383   5.072 -0.7226  0.8839  0.4757
  145SAPE  C21915896   3.776   5.389   4.900 -0.0155  0.0803  0.4854
  145SAPE  H19R15897   3.744   5.488   4.938 -3.8160 -1.1652  0.9919
  145SAPE  H19S15898   3.683   5.344   4.859  1.2778 -1.9539 -0.4043
  145SAPE  C22015899   3.876   5.396   4.782  0.6692 -0.3039 -0.0312
  145SAPE  H20R15900   3.976   5.427   4.820  0.6564  0.6325 -0.7354
  145SAPE  H20S15901   3.846   5.477   4.711  2.4236  0.4943  0.0999
  145SAPE  H20T15902   3.891   5.303   4.724  2.7833  0.1187 -0.2204
  145SAPE   C3315903   4.417   4.386   6.191 -0.5738 -0.3290  0.2150
  145SAPE   H3X15904   4.495   4.328   6.137 -0.0250  2.9090 -2.8321
  145SAPE   H3Y15905   4.450   4.489   6.165 -2.1352 -0.1881 -1.4078
  145SAPE   C3415906   4.287   4.341   6.123 -0.2391 -0.5083 -0.0288
  145SAPE   H4X15907   4.206   4.343   6.199  0.2206 -0.4101  0.4625
  145SAPE   H4Y15908   4.285   4.234   6.093 -5.2604 -0.4253 -0.8641
  145SAPE   C3515909   4.246   4.435   6.001 -0.1018 -0.0147  0.0408
  145SAPE   H5X15910   4.201   4.534   6.026 -1.5555 -0.9435  1.3135
  145SAPE   H5Y15911   4.159   4.386   5.952  0.3001  1.2044 -1.9947
  145SAPE   C3615912   4.355   4.452   5.890  0.1632  0.3798  0.2190
  145SAPE   H6X15913   4.401   4.352   5.876 -0.1165  0.2001  0.5933
  145SAPE   H6Y15914   4.438   4.517   5.926 -1.1818  0.7916  2.7834
  145SAPE   C3715915   4.300   4.517   5.763  0.2766  1.1853 -0.5450
  145SAPE   H7X15916   4.386   4.542   5.697  0.5866  2.6409  0.3742
  145SAPE   H7Y15917   4.258   4.619   5.772 -0.2968  0.7427  3.0062
  145SAPE   C3815918   4.204   4.423   5.688  0.2582 -0.0025 -0.6372
  145SAPE   H8X15919   4.113   4.403   5.749  0.0499  0.2339 -0.8710
  145SAPE   H8Y15920   4.255   4.325   5.681  0.4398  0.1980 -2.6457
  145SAPE   C3915921   4.180   4.474   5.548  0.5373  0.0806  0.3551
  145SAPE   H9X15922   4.274   4.478   5.489  0.4426  3.0892  0.2687
  145SAPE   H9Y15923   4.144   4.579   5.544  3.1702  1.0166 -0.2489
  145SAPE  C31015924   4.093   4.370   5.485  0.8700  0.3652  0.7060
  145SAPE  H10X15925   4.028   4.320   5.560  1.3850  0.3469  1.1419
  145SAPE  H10Y15926   4.156   4.287   5.446 -0.4985 -0.6064  0.4684
  145SAPE  C31115927   4.016   4.437   5.377  0.1643  0.5479  0.6895
  145SAPE  H11X15928   3.995   4.543   5.403 -0.6850  0.6608 -0.4003
  145SAPE  H11Y15929   3.918   4.384   5.368  0.2441  0.4373  0.4625
  145SAPE  C31215930   4.081   4.440   5.243  0.2324  0.0973  0.5270
  145SAPE  H12X15931   4.078   4.335   5.206  0.9308  0.2105  0.1269
  145SAPE  H12Y15932   4.185   4.480   5.238  0.4787 -0.5896 -0.1703
  145SAPE  C31315933   3.994   4.527   5.153  0.3420  0.3889  0.3358
  145SAPE  H13X15934   3.981   4.634   5.179  0.8533  0.7104 -0.6764
  145SAPE  H13Y15935   3.892   4.484   5.160  0.2045  0.5094 -0.8013
  145SAPE  C31415936   4.038   4.515   5.011 -0.1044  0.6223  0.4621
  145SAPE  H14X15937   3.958   4.546   4.941  1.2085  1.4008 -0.7484
  145SAPE  H14Y15938   4.070   4.412   4.983  0.0800  0.5820  0.8092
  145SAPE  C31515939   4.175   4.591   4.991 -0.7737  0.7711  0.1403
  145SAPE  H15X15940   4.251   4.539   5.053 -0.3377 -0.3361 -1.2768
  145SAPE  H15Y15941   4.167   4.697   5.026  0.1915  1.0782 -0.5061
  145SAPE  C31615942   4.224   4.604   4.843  0.5006  0.2954  0.4123
  145SAPE  H16X15943   4.142   4.656   4.789 -1.6669  0.8576  3.9272
  145SAPE  H16Y15944   4.229   4.500   4.804 -0.1911  0.1211  0.7832
  145SAPE  C31715945   4.352   4.673   4.818 -0.5676  0.1195 -0.6344
  145SAPE  H17X15946   4.353   4.757   4.892  1.1638 -0.5937  0.1978
  145SAPE  H17Y15947   4.346   4.717   4.716 -2.5864  0.2977 -0.4756
  145SAPE  C31815948   4.481   4.590   4.837  0.1820  0.5661 -0.0370
  145SAPE  H18X15949   4.576   4.648   4.842 -0.3776  1.8762 -2.8182
  145SAPE  H18Y15950   4.492   4.519   4.751  1.3617  2.1201 -1.2191
  145SAPE  H18Z15951   4.472   4.541   4.936  2.0135  1.3220  0.5395
  146SAPE     N15952   0.500   5.431   6.587  0.3026  0.1980  0.0318
  146SAPE   HN115953   0.407   5.417   6.630 -0.3154  0.8481 -1.0523
  146SAPE   HN215954   0.568   5.363   6.627  0.0269 -0.9900 -1.4136
  146SAPE   HN315955   0.540   5.524   6.610 -2.1647  1.4849 -0.5774
  146SAPE   C1215956   0.500   5.403   6.441  0.8334  0.0787  0.5059
  146SAPE  H12A15957   0.428   5.473   6.394 -0.4203  0.6587  3.0754
  146SAPE  H12B15958   0.465   5.298   6.426  4.2837 -1.1480  0.2718
  146SAPE   C1115959   0.642   5.415   6.385 -0.7484  0.3348  0.5819
  146SAPE  H11A15960   0.695   5.513   6.396  0.9550 -0.4129 -0.5690
  146SAPE  H11B15961   0.636   5.399   6.276 -1.7789  0.7990  0.5620
  146SAPE     P15962   0.878   5.328   6.440 -0.2748  0.0132  0.4776
  146SAPE   O1315963   0.908   5.442   6.529 -0.1937  0.8197  0.9803
  146SAPE   O1415964   0.947   5.206   6.465  0.2860  0.1840  0.2917
  146SAPE   O1215965   0.721   5.310   6.433 -1.2364 -0.6407 -0.4097
  146SAPE   O1115966   0.905   5.391   6.295 -0.0303  0.4423 -0.5513
  146SAPE    C115967   0.874   5.306   6.187  0.1932 -0.0315 -0.4313
  146SAPE    HA15968   0.921   5.206   6.172 -0.3789 -0.0116 -2.7297
  146SAPE    HB15969   0.767   5.274   6.187  0.4362 -0.8486 -0.1766
  146SAPE    C215970   0.903   5.380   6.045  0.3891  0.0565  0.2995
  146SAPE    HS15971   0.917   5.297   5.972  0.8559 -1.0192  1.5650
  146SAPE   O2115972   1.026   5.453   6.048 -0.0714 -1.0519  0.4799
  146SAPE   C2115973   1.127   5.371   6.062  0.4138 -0.1509 -1.6893
  146SAPE   O2215974   1.123   5.250   6.065  0.4721 -0.4682  0.1121
  146SAPE   C2215975   1.256   5.456   6.069  0.5795  0.0495  0.4115
  146SAPE   H2R15976   1.231   5.542   6.134 -0.0563  0.4256 -0.3132
  146SAPE   H2S15977   1.338   5.396   6.114  0.9916  0.8200  0.7083
  146SAPE    C315978   0.784   5.482   6.013  0.6115  1.3954  0.0572
  146SAPE    HX15979   0.802   5.554   5.930 -2.8617  0.7692 -1.4228
  146SAPE    HY15980   0.781   5.540   6.108  2.1785  0.4975  0.6845
  146SAPE   O3115981   0.657   5.420   5.990 -0.3388  1.1736 -0.8524
  146SAPE   C3115982   0.639   5.363   5.870  0.3348 -0.5286 -0.3397
  146SAPE   O3215983   0.715   5.372   5.778  0.2942 -0.9073 -0.1051
  146SAPE   C3215984   0.500   5.302   5.859 -0.2192  0.6485  0.4832
  146SAPE   H2X15985   0.420   5.378   5.847 -0.4062  0.2109 -1.3367
  146SAPE   H2Y15986   0.472   5.240   5.947 -1.0847 -0.7098 -0.7076
  146SAPE   C2315987   1.290   5.520   5.935 -0.4516  0.6499 -0.3063
  146SAPE   H3R15988   1.209   5.590   5.907 -2.1793 -1.3704 -0.5963
  146SAPE   H3S15989   1.287   5.432   5.867 -0.4452  0.1853  0.2796
  146SAPE   C2415990   1.421   5.607   5.946 -0.9974 -0.5916  0.5126
  146SAPE   H4R15991   1.503   5.558   6.003  1.0426  1.5734 -0.3738
  146SAPE   H4S15992   1.399   5.707   5.988  0.2803  1.0125 -2.3377
  146SAPE   C2515993   1.472   5.639   5.804  0.2163  0.1352 -0.9153
  146SAPE   H5R15994   1.530   5.561   5.752 -1.4507 -1.2539 -0.7826
  146SAPE   C2615995   1.454   5.750   5.733  0.5592 -0.3977 -0.0450
  146SAPE   H6R15996   1.501   5.756   5.633  1.2289  0.8563  0.3298
  146SAPE   C2715997   1.368   5.867   5.763  0.1820 -0.2292 -0.3608
  146SAPE   H7R15998   1.301   5.834   5.845  2.5446 -2.6355  0.7440
  146SAPE   H7S15999   1.311   5.897   5.672  0.8192 -0.2003 -0.7577
  146SAPE   C2816000   1.429   5.990   5.825 -0.5719 -0.6463 -0.4547
  146SAPE   H8R16001   1.494   5.971   5.912  0.8487  1.3919 -1.0022
  146SAPE   C2916002   1.414   6.117   5.780  0.5710  0.5333 -0.5541
  146SAPE   H9R16003   1.455   6.206   5.831  1.7930 -1.0877  1.4752
  146SAPE  C21016004   1.324   6.147   5.660  0.3099 -0.1274 -0.2141
  146SAPE  H10R16005   1.290   6.253   5.668  2.2341  0.7636 -2.6273
  146SAPE  H10S16006   1.233   6.084   5.662 -1.6226  2.4316 -1.3084
  146SAPE  C21116007   1.407   6.148   5.529  0.5543  0.1990 -1.0495
  146SAPE  H11R16008   1.510   6.112   5.527  0.6675  0.5197 -1.0796
  146SAPE  C21216009   1.363   6.191   5.410 -0.2198 -0.5475  0.2960
  146SAPE  H12R16010   1.430   6.202   5.324 -0.4548  1.5571  0.3119
  146SAPE  C21316011   1.222   6.240   5.380  0.3913  0.0920  0.0463
  146SAPE  H13R16012   1.219   6.295   5.283 -1.1464  2.4902  1.3639
  146SAPE  H13S16013   1.179   6.308   5.456  2.1669  1.2606  0.0422
  146SAPE  C21416014   1.125   6.123   5.383 -0.0941 -0.5736  0.3099
  146SAPE  H14R16015   1.100   6.082   5.482 -2.4018 -0.8914 -0.3618
  146SAPE  C21516016   1.056   6.071   5.275 -0.0997 -0.2080 -0.8252
  146SAPE  H15R16017   0.985   5.991   5.303  1.1767 -0.8922  0.6172
  146SAPE  C21616018   1.067   6.118   5.135 -0.1752  0.1823 -0.6405
  146SAPE  H16R16019   1.103   6.223   5.129 -0.6367  0.5936  2.3055
  146SAPE  H16S16020   0.969   6.129   5.083 -0.8927 -2.5627 -0.0290
  146SAPE  C21716021   1.161   6.029   5.048 -0.3668 -0.2451  0.5619
  146SAPE  H17R16022   1.107   5.932   5.034 -1.0218  0.1032  0.6659
  146SAPE  H17S16023   1.255   6.006   5.103  0.8287  1.3828 -0.7175
  146SAPE  C21816024   1.200   6.093   4.912 -0.0787  0.1456 -0.1351
  146SAPE  H18R16025   1.283   6.039   4.862  0.9117 -0.4014  1.9919
  146SAPE  H18S16026   1.238   6.197   4.916  2.8691 -0.7845 -1.4797
  146SAPE  C21916027   1.084   6.094   4.813  0.2458  0.1831  0.0971
  146SAPE  H19R16028   1.001   6.152   4.859  0.4639  0.0304  0.6983
  146SAPE  H19S16029   1.045   5.992   4.793  0.9854 -0.0367 -0.2782
  146SAPE  C22016030   1.119   6.164   4.679  0.8782  0.5386  0.0707
  146SAPE  H20R16031   1.152   6.269   4.693  0.0421  0.8722 -0.4122
  146SAPE  H20S16032   1.037   6.168   4.604  0.2982 -0.8982  0.5722
  146SAPE  H20T16033   1.207   6.116   4.632  1.8515 -0.1351  2.4216
  146SAPE   C3316034   0.483   5.209   5.737 -0.1819  0.3730 -0.6102
  146SAPE   H3X16035   0.396   5.143   5.759  1.2030 -1.1100  0.6576
  146SAPE   H3Y16036   0.570   5.143   5.721 -0.7381 -0.5377  0.0062
  146SAPE   C3416037   0.461   5.290   5.608  0.3350  0.5114  0.0928
  146SAPE   H4X16038   0.547   5.358   5.594  1.1652 -0.7023 -0.9259
  146SAPE   H4Y16039   0.372   5.355   5.623 -0.7019 -0.9489  0.6050
  146SAPE   C3516040   0.439   5.204   5.480  0.6276  0.4069 -0.2586
  146SAPE   H5X16041   0.533   5.143   5.481  0.9797  0.9220 -1.1260
  146SAPE   H5Y16042   0.428   5.258   5.384  0.3292 -2.1447 -1.7651
  146SAPE   C3616043   0.324   5.102   5.500  0.0260 -1.1037 -0.0613
  146SAPE   H6X16044   0.241   5.150   5.556  0.4577 -0.5005  0.0785
  146SAPE   H6Y16045   0.372   5.023   5.561  0.9379  0.9782  2.0928
  146SAPE   C3716046   0.282   5.044   5.358 -0.0565 -0.4931  0.4241
  146SAPE   H7X16047   0.372   5.004   5.306  1.0055  0.4045  1.5239
  146SAPE   H7Y16048   0.238   5.121   5.291  1.5524 -0.0098 -0.1268
  146SAPE   C3816049   0.205   4.909   5.370 -0.0250 -0.6898 -0.3669
  146SAPE   H8X16050   0.104   4.931   5.411  0.3557  0.1160  0.1682
  146SAPE   H8Y16051   0.262   4.839   5.434  1.0795 -0.1086 -0.6831
  146SAPE   C3916052   0.177   4.832   5.241  0.5916  0.0440  0.3666
  146SAPE   H9X16053   0.131   4.735   5.268 -1.6089  0.9239  0.0149
  146SAPE   H9Y16054   0.267   4.803   5.182 -0.2366  0.4585 -1.1661
  146SAPE  C31016055   0.080   4.906   5.146  0.6002  0.3546 -0.1917
  146SAPE  H10X16056   0.145   4.988   5.108  1.9928 -0.5108  0.2381
  146SAPE  H10Y16057  -0.010   4.941   5.200 -0.7126 -2.0184 -0.7103
  146SAPE  C31116058   0.038   4.807   5.028  0.3384 -0.8107 -0.1256
  146SAPE  H11X16059  -0.020   4.721   5.069  0.9144 -1.3378 -0.4088
  146SAPE  H11Y16060   0.126   4.783   4.965  0.4778 -0.4919 -0.0531
  146SAPE  C31216061  -0.060   4.889   4.942  0.4239  0.8196  0.1681
  146SAPE  H12X16062  -0.155   4.919   4.991  0.2577  0.3525  0.1382
  146SAPE  H12Y16063  -0.078   4.821   4.856  0.7988  0.0442  0.6942
  146SAPE  C31316064   0.010   5.005   4.863  0.2139 -0.2717  0.1886
  146SAPE  H13X16065   0.071   4.954   4.785 -0.4490  0.2455 -0.6797
  146SAPE  H13Y16066   0.069   5.069   4.933 -0.4033 -1.0499  1.4489
  146SAPE  C31416067  -0.093   5.090   4.793 -0.3861 -0.2714  0.1275
  146SAPE  H14X16068  -0.167   5.130   4.865 -2.5786 -1.8801 -1.1062
  146SAPE  H14Y16069  -0.151   5.022   4.727  0.1730 -0.1106 -0.5364
  146SAPE  C31516070  -0.032   5.206   4.712  0.0039  0.5697 -0.5300
  146SAPE  H15X16071   0.016   5.276   4.784 -1.9184  1.2920  0.1232
  146SAPE  H15Y16072  -0.113   5.273   4.676  0.4389  1.6390  0.4331
  146SAPE  C31616073   0.071   5.164   4.607  0.6374  0.4962  0.2739
  146SAPE  H16X16074   0.046   5.069   4.556 -0.7353  1.4347 -0.8813
  146SAPE  H16Y16075   0.174   5.160   4.649  1.1230  2.4762 -0.5790
  146SAPE  C31716076   0.082   5.279   4.502 -0.6682 -0.8150  0.4029
  146SAPE  H17X16077  -0.009   5.282   4.438 -1.2388 -0.3266  1.2261
  146SAPE  H17Y16078   0.164   5.246   4.435  0.8676 -0.9417  2.2422
  146SAPE  C31816079   0.122   5.413   4.565  0.5006  0.2245 -0.3288
  146SAPE  H18X16080   0.034   5.438   4.628  0.3247 -0.3553 -0.3379
  146SAPE  H18Y16081   0.145   5.488   4.486 -1.3125  0.3886 -0.7604
  146SAPE  H18Z16082   0.198   5.405   4.645  0.9148  1.4956 -0.5670
  147SAPE     N16083   6.693   2.141   6.629  0.7392 -0.5483  0.1064
  147SAPE   HN116084   6.720   2.172   6.725  3.0422 -1.1400 -0.3028
  147SAPE   HN216085   6.730   2.045   6.623  2.5314  0.1876 -1.4144
  147SAPE   HN316086   6.750   2.204   6.570 -0.9049  1.1337  0.2000
  147SAPE   C1216087   6.558   2.148   6.574 -0.5427  0.5893 -0.2003
  147SAPE  H12A16088   6.524   2.254   6.575  0.9521  1.0954  1.7265
  147SAPE  H12B16089   6.499   2.080   6.639 -0.3662 -0.2440 -0.8886
  147SAPE   C1116090   6.563   2.086   6.434  0.4417  0.2213  0.1156
  147SAPE  H11A16091   6.616   2.170   6.384 -0.8387  0.9869  0.0017
  147SAPE  H11B16092   6.468   2.073   6.378  1.1871 -1.0466 -0.9226
  147SAPE     P16093   6.612   1.825   6.410 -0.1300 -0.0097  0.4787
  147SAPE   O1316094   6.736   1.744   6.401  0.4300  0.3121  0.0514
  147SAPE   O1416095   6.521   1.800   6.524 -0.3626 -0.1488 -0.4542
  147SAPE   O1216096   6.660   1.975   6.419 -0.1206 -0.1805 -0.0370
  147SAPE   O1116097   6.530   1.816   6.271 -0.0826  0.0687  0.5639
  147SAPE    C116098   6.585   1.855   6.142 -0.6295 -1.1752  0.0161
  147SAPE    HA16099   6.515   1.912   6.076  0.6116  1.3471  0.7636
  147SAPE    HB16100   6.679   1.913   6.151  0.5054 -2.3003 -3.0772
  147SAPE    C216101   6.631   1.731   6.060  0.3639  0.1742 -0.1637
  147SAPE    HS16102   6.697   1.670   6.126  1.8416  0.2270 -1.5319
  147SAPE   O2116103   6.720   1.773   5.952  0.1642 -0.5297  0.4234
  147SAPE   C2116104   6.772   1.666   5.881  0.4835  0.1426 -0.1338
  147SAPE   O2216105   6.760   1.549   5.917  0.3845 -0.6665  0.0905
  147SAPE   C2216106   6.848   1.713   5.757 -0.2065  0.3192  0.1212
  147SAPE   H2R16107   6.800   1.809   5.728 -0.6134  0.4661  1.2413
  147SAPE   H2S16108   6.954   1.736   5.783 -0.2622 -2.0969  2.9764
  147SAPE    C316109   6.503   1.659   6.024  0.6185  1.0201 -0.2096
  147SAPE    HX16110   6.424   1.686   6.097 -0.5275  1.9443 -1.7281
  147SAPE    HY16111   6.532   1.552   6.036  3.1293  1.6534 -0.0191
  147SAPE   O3116112   6.457   1.685   5.886 -0.2550  0.5926 -0.4389
  147SAPE   C3116113   6.367   1.782   5.857  0.0070  0.0491 -0.3171
  147SAPE   O3216114   6.311   1.854   5.934 -0.5764 -0.1694 -0.3761
  147SAPE   C3216115   6.341   1.779   5.708  0.6412 -0.7261 -0.6941
  147SAPE   H2X16116   6.296   1.874   5.673  2.6863  1.3820  1.9294
  147SAPE   H2Y16117   6.278   1.693   5.678 -3.0786  1.2821  0.7224
  147SAPE   C2316118   6.857   1.607   5.640 -0.7117  0.1341 -0.9478
  147SAPE   H3R16119   6.751   1.580   5.621 -1.2641  0.4835  1.3001
  147SAPE   H3S16120   6.924   1.526   5.676 -0.7025  1.1341  1.5063
  147SAPE   C2416121   6.917   1.673   5.512  0.4973  0.4617 -0.0234
  147SAPE   H4R16122   6.869   1.770   5.487 -1.0039  0.0295  1.0932
  147SAPE   H4S16123   6.911   1.611   5.420  1.1070 -0.6401  0.6545
  147SAPE   C2516124   7.064   1.695   5.523  0.1450  0.2233  0.1446
  147SAPE   H5R16125   7.121   1.657   5.609  1.5963  0.9105 -0.4767
  147SAPE   C2616126   7.137   1.768   5.439 -0.0024  1.0364  0.3535
  147SAPE   H6R16127   7.243   1.775   5.467  0.1638 -0.2904  0.0843
  147SAPE   C2716128   7.113   1.836   5.306  0.2682 -0.0004 -0.5294
  147SAPE   H7R16129   7.113   1.947   5.313 -0.1264  0.2491 -3.5416
  147SAPE   H7S16130   7.011   1.803   5.278 -0.0913 -0.4559  1.2040
  147SAPE   C2816131   7.214   1.782   5.207  0.2226 -0.4220  0.4795
  147SAPE   H8R16132   7.204   1.672   5.203  1.1049 -0.4882 -0.0474
  147SAPE   C2916133   7.318   1.842   5.142 -0.6588 -0.3778 -1.1898
  147SAPE   H9R16134   7.374   1.780   5.070  1.0157 -2.5657  1.7745
  147SAPE  C21016135   7.365   1.987   5.152 -0.2674 -0.6885 -0.7366
  147SAPE  H10R16136   7.463   1.998   5.100  0.3889  2.2114  0.8822
  147SAPE  H10S16137   7.390   2.004   5.259  3.1414 -0.9646 -1.3580
  147SAPE  C21116138   7.261   2.085   5.105  0.4403 -0.2184 -0.1551
  147SAPE  H11R16139   7.159   2.043   5.110  0.5877 -0.7761 -1.5130
  147SAPE  C21216140   7.290   2.210   5.073  0.8641  0.0195  0.7996
  147SAPE  H12R16141   7.207   2.277   5.047  2.5099  1.9456  0.2479
  147SAPE  C21316142   7.426   2.277   5.059  0.0979 -0.3420  0.7187
  147SAPE  H13R16143   7.476   2.244   4.966  0.2743  0.7252  0.4332
  147SAPE  H13S16144   7.494   2.245   5.141  0.0778 -2.7845 -0.1436
  147SAPE  C21416145   7.405   2.432   5.060 -0.1368 -0.6790 -0.7086
  147SAPE  H14R16146   7.373   2.470   5.158 -1.7762 -0.5430 -1.2634
  147SAPE  C21516147   7.414   2.529   4.964 -0.3063 -0.1937  0.0844
  147SAPE  H15R16148   7.401   2.634   4.994 -1.3985 -0.3871  0.3284
  147SAPE  C21616149   7.444   2.516   4.817 -0.0183 -0.2669 -1.5890
  147SAPE  H16R16150   7.372   2.577   4.759 -2.6869 -0.5160  1.2258
  147SAPE  H16S16151   7.421   2.414   4.780 -1.3581 -0.5622 -0.0362
  147SAPE  C21716152   7.589   2.548   4.785 -0.4438 -0.3736  0.6083
  147SAPE  H17R16153   7.664   2.517   4.861  1.9391  3.8294  0.2653
  147SAPE  H17S16154   7.601   2.658   4.781 -3.5750  0.0604  0.2655
  147SAPE  C21816155   7.635   2.493   4.646 -0.8923  0.0039  0.2109
  147SAPE  H18R16156   7.548   2.498   4.576 -0.9414 -1.4273  0.1429
  147SAPE  H18S16157   7.657   2.385   4.639 -1.1829  0.0492 -3.1681
  147SAPE  C21916158   7.759   2.571   4.594 -0.2269 -0.0498  0.4562
  147SAPE  H19R16159   7.779   2.535   4.491 -0.0812 -1.3183  0.9190
  147SAPE  H19S16160   7.846   2.555   4.660 -2.6827 -0.2734  3.8992
  147SAPE  C22016161   7.740   2.723   4.570 -0.0409  1.5157 -0.1391
  147SAPE  H20R16162   7.718   2.787   4.658  0.0878  0.5214  0.6367
  147SAPE  H20S16163   7.658   2.730   4.494  1.7663 -1.0491 -2.5493
  147SAPE  H20T16164   7.834   2.762   4.525  0.4843  1.3641  0.8036
  147SAPE   C3316165   6.476   1.774   5.634  0.2201  0.8881 -1.0923
  147SAPE   H3X16166   6.523   1.675   5.653  1.2400  1.7647  1.4968
  147SAPE   H3Y16167   6.543   1.856   5.667 -0.2315  1.6751 -2.0699
  147SAPE   C3416168   6.461   1.795   5.480 -0.0641 -0.0726 -0.0283
  147SAPE   H4X16169   6.426   1.896   5.450  0.3589 -0.1826 -0.9479
  147SAPE   H4Y16170   6.389   1.716   5.447  0.0921 -0.5449  0.7440
  147SAPE   C3516171   6.595   1.767   5.415  0.0592 -0.0522  1.1313
  147SAPE   H5X16172   6.632   1.667   5.446  0.2427 -0.5333 -0.5550
  147SAPE   H5Y16173   6.672   1.845   5.434 -0.8356  0.9308  0.7777
  147SAPE   C3616174   6.577   1.765   5.265 -0.2835 -0.2410 -0.0152
  147SAPE   H6X16175   6.525   1.858   5.232 -0.9881 -0.6455 -0.0485
  147SAPE   H6Y16176   6.496   1.693   5.241  1.5020 -1.3211 -3.4152
  147SAPE   C3716177   6.703   1.739   5.183  0.0810 -0.4206 -0.1909
  147SAPE   H7X16178   6.790   1.707   5.245  3.7204  2.3306 -3.3413
  147SAPE   H7Y16179   6.735   1.839   5.147 -0.4781  0.3824  1.4428
  147SAPE   C3816180   6.687   1.641   5.063  0.3252 -0.4735 -0.0389
  147SAPE   H8X16181   6.610   1.686   4.996  1.6438  0.8695 -0.6981
  147SAPE   H8Y16182   6.642   1.548   5.104 -0.3077 -0.3807 -0.5080
  147SAPE   C3916183   6.814   1.602   5.003  0.4246  0.3385  0.2900
  147SAPE   H9X16184   6.809   1.517   4.931 -2.7558  0.2336  0.4956
  147SAPE   H9Y16185   6.886   1.562   5.078  0.7512 -3.1019 -1.6589
  147SAPE  C31016186   6.897   1.718   4.940 -0.2511  0.3236  0.0739
  147SAPE  H10X16187   6.913   1.795   5.018  0.6770  0.2249 -0.0112
  147SAPE  H10Y16188   6.842   1.762   4.854 -0.1122 -0.5122 -0.4573
  147SAPE  C31116189   7.028   1.659   4.890  0.0240  0.1147  0.0030
  147SAPE  H11X16190   7.011   1.574   4.822  0.7182  3.1260 -4.3861
  147SAPE  H11Y16191   7.090   1.627   4.977 -0.6497 -2.2629 -0.3318
  147SAPE  C31216192   7.122   1.771   4.828 -0.0380 -0.0138 -0.5054
  147SAPE  H12X16193   7.154   1.843   4.906  0.7261 -1.3322  0.4340
  147SAPE  H12Y16194   7.068   1.835   4.755  0.6218  0.1730 -0.8415
  147SAPE  C31316195   7.248   1.724   4.762 -0.3318  0.6763  0.2101
  147SAPE  H13X16196   7.237   1.676   4.662 -0.7395 -1.2487  1.1319
  147SAPE  H13Y16197   7.290   1.659   4.841 -1.2985 -1.5818 -1.0345
  147SAPE  C31416198   7.354   1.831   4.745 -0.1260 -0.7270  0.2963
  147SAPE  H14X16199   7.458   1.794   4.735  0.4701  0.5606  1.5065
  147SAPE  H14Y16200   7.361   1.893   4.837  0.5367 -2.1284  1.2199
  147SAPE  C31516201   7.332   1.928   4.634  0.4148 -0.2692  0.8817
  147SAPE  H15X16202   7.228   1.946   4.597  1.5102  0.9803 -1.9147
  147SAPE  H15Y16203   7.392   1.882   4.552 -0.9904 -2.0332  0.7823
  147SAPE  C31616204   7.396   2.072   4.639  0.4345 -0.3618 -0.5368
  147SAPE  H16X16205   7.339   2.143   4.702  1.5342 -0.8801  1.1149
  147SAPE  H16Y16206   7.402   2.127   4.543  0.8911  0.1307 -0.2325
  147SAPE  C31716207   7.541   2.071   4.691 -0.8012  0.2596  0.1458
  147SAPE  H17X16208   7.544   2.027   4.793  0.4577  0.9939  0.4534
  147SAPE  H17Y16209   7.574   2.177   4.694 -2.0043  0.6553 -0.0499
  147SAPE  C31816210   7.638   1.997   4.600  0.2726 -0.0195  0.4269
  147SAPE  H18X16211   7.610   1.889   4.598  0.9443 -0.2323 -2.6481
  147SAPE  H18Y16212   7.746   2.007   4.623  0.1659  1.6691  0.2777
  147SAPE  H18Z16213   7.617   2.023   4.494 -1.7445 -2.3615  0.1544
  148SAPE     N16214   2.772   2.410   6.730  0.2993 -1.0909  0.4751
  148SAPE   HN116215   2.728   2.351   6.656 -0.4006  0.2872 -0.2345
  148SAPE   HN216216   2.689   2.441   6.785  0.0817 -3.1086  1.3707
  148SAPE   HN316217   2.819   2.485   6.675 -1.6919 -0.4959 -0.4998
  148SAPE   C1216218   2.866   2.325   6.814  0.4423  0.6939  0.5310
  148SAPE  H12A16219   2.810   2.243   6.862 -0.0245  0.6630 -0.0562
  148SAPE  H12B16220   2.899   2.390   6.898 -1.8545  2.7740 -0.0736
  148SAPE   C1116221   2.979   2.266   6.734 -0.5575  0.0408 -0.0441
  148SAPE  H11A16222   2.944   2.178   6.677  0.0679  0.4754 -1.1153
  148SAPE  H11B16223   3.064   2.233   6.798 -1.3514  0.6988  1.4042
  148SAPE     P16224   3.164   2.439   6.639 -0.0311  0.3101 -0.1991
  148SAPE   O1316225   3.153   2.545   6.737  0.5708 -0.0164  0.1452
  148SAPE   O1416226   3.287   2.364   6.647 -0.7131  0.5644 -0.2387
  148SAPE   O1216227   3.032   2.351   6.632  0.7097 -0.3467 -0.2480
  148SAPE   O1116228   3.170   2.503   6.499  0.5957 -0.3643 -0.4181
  148SAPE    C116229   3.056   2.487   6.410  0.3223 -0.8625  0.4602
  148SAPE    HA16230   3.037   2.381   6.381  0.4793  0.0597 -3.6703
  148SAPE    HB16231   2.972   2.531   6.468  0.7819 -0.1635  0.5996
  148SAPE    C216232   3.071   2.568   6.278  0.2632 -0.1166  0.3392
  148SAPE    HS16233   2.995   2.529   6.208 -0.3772  0.4155  0.7208
  148SAPE   O2116234   3.201   2.552   6.217  0.0697 -0.2053 -0.1598
  148SAPE   C2116235   3.223   2.438   6.158  0.5016  0.0509  0.5208
  148SAPE   O2216236   3.148   2.342   6.154  0.1415 -0.4559 -0.0237
  148SAPE   C2216237   3.366   2.444   6.105  0.2980 -0.0067 -0.0123
  148SAPE   H2R16238   3.397   2.549   6.085 -2.0895  0.6701 -0.4819
  148SAPE   H2S16239   3.433   2.409   6.187 -1.5038  0.3607  1.6611
  148SAPE    C316240   3.050   2.728   6.305  0.1195  0.0147 -0.0661
  148SAPE    HX16241   3.114   2.751   6.392 -1.1998 -0.5600  1.0973
  148SAPE    HY16242   2.943   2.743   6.334  0.1733  2.0226 -0.7251
  148SAPE   O3116243   3.069   2.800   6.182 -0.2211 -0.3103  0.1216
  148SAPE   C3116244   2.976   2.795   6.090 -0.1914  0.2139  0.7445
  148SAPE   O3216245   2.875   2.725   6.103  0.3680 -0.5120 -0.1138
  148SAPE   C3216246   3.013   2.876   5.969  0.4779 -0.1499 -0.7230
  148SAPE   H2X16247   3.072   2.961   6.010  0.5457 -0.7398  0.4320
  148SAPE   H2Y16248   2.920   2.905   5.916  0.4678 -1.2124 -1.3144
  148SAPE   C2316249   3.393   2.353   5.987 -0.2401 -0.5103 -0.1836
  148SAPE   H3R16250   3.330   2.382   5.900  1.4700 -1.5912 -1.8584
  148SAPE   H3S16251   3.380   2.248   6.019 -0.2545 -0.0680  1.2996
  148SAPE   C2416252   3.534   2.388   5.929 -0.0637  0.2041  0.1186
  148SAPE   H4R16253   3.601   2.356   6.011  0.2974 -0.8925 -0.5682
  148SAPE   H4S16254   3.547   2.497   5.915 -2.1036  0.3324 -1.1531
  148SAPE   C2516255   3.550   2.312   5.798  0.0640  0.2424  0.3133
  148SAPE   H5R16256   3.531   2.203   5.802 -0.6154  0.2261 -1.8472
  148SAPE   C2616257   3.584   2.369   5.678 -0.1732 -0.0201 -0.4176
  148SAPE   H6R16258   3.603   2.303   5.592  0.3036 -0.3723 -0.0476
  148SAPE   C2716259   3.598   2.517   5.652 -0.0992 -0.8898  1.0978
  148SAPE   H7R16260   3.524   2.577   5.708  1.1961  1.3527  0.5447
  148SAPE   H7S16261   3.577   2.542   5.546 -0.9238 -0.0044  1.4616
  148SAPE   C2816262   3.740   2.560   5.685 -0.8419 -0.0602 -0.0642
  148SAPE   H8R16263   3.756   2.577   5.793  1.1678  1.5649 -0.5593
  148SAPE   C2916264   3.836   2.588   5.593 -0.1606  0.0593 -0.0800
  148SAPE   H9R16265   3.926   2.638   5.632 -0.4680 -0.6706  1.6640
  148SAPE  C21016266   3.838   2.571   5.450  0.2717 -0.0297  0.0814
  148SAPE  H10R16267   3.758   2.506   5.408  0.3297  0.9925 -1.6778
  148SAPE  H10S16268   3.933   2.520   5.423 -0.9030 -2.9442  1.0696
  148SAPE  C21116269   3.841   2.703   5.377  0.0473  0.5510  0.2778
  148SAPE  H11R16270   3.818   2.783   5.449 -0.3533 -0.3002  1.1144
  148SAPE  C21216271   3.845   2.740   5.245  0.6137 -0.2764 -0.7970
  148SAPE  H12R16272   3.830   2.846   5.217 -2.8869  0.4800  2.8629
  148SAPE  C21316273   3.874   2.639   5.133  0.0142  0.1278  0.0989
  148SAPE  H13R16274   3.777   2.618   5.082 -0.7865  0.6939  1.3273
  148SAPE  H13S16275   3.902   2.541   5.177 -2.7267 -0.8401 -0.0670
  148SAPE  C21416276   3.984   2.683   5.049  0.2772 -0.8373  0.7621
  148SAPE  H14R16277   4.081   2.676   5.101  0.6545 -0.6144  0.1032
  148SAPE  C21516278   3.989   2.684   4.915 -0.5207 -0.9775 -0.9684
  148SAPE  H15R16279   4.085   2.712   4.870  0.2555 -0.7887  0.7272
  148SAPE  C21616280   3.865   2.690   4.836 -0.2377  0.1540  0.3824
  148SAPE  H16R16281   3.852   2.799   4.818 -0.2081  0.4501  2.0172
  148SAPE  H16S16282   3.774   2.660   4.891 -1.5696 -2.1703 -2.7717
  148SAPE  C21716283   3.869   2.609   4.702  0.0457  0.8326  0.0740
  148SAPE  H17R16284   3.764   2.609   4.665 -0.0768 -0.8394  0.3436
  148SAPE  H17S16285   3.879   2.500   4.723  4.2628  1.4312  2.1068
  148SAPE  C21816286   3.950   2.671   4.588  0.4775  0.2327  0.2160
  148SAPE  H18R16287   4.049   2.705   4.625  0.2841  0.9775  0.0716
  148SAPE  H18S16288   3.897   2.760   4.547  0.9660  0.7256  0.6346
  148SAPE  C21916289   3.976   2.567   4.478  0.8154 -0.3388 -0.0184
  148SAPE  H19R16290   4.018   2.478   4.530 -0.4016 -0.9641 -0.0639
  148SAPE  H19S16291   4.038   2.611   4.397 -0.3300 -0.3298 -0.9202
  148SAPE  C22016292   3.856   2.511   4.407  0.0694 -0.9232 -0.2312
  148SAPE  H20R16293   3.799   2.590   4.354 -1.3148 -2.1639 -0.6513
  148SAPE  H20S16294   3.784   2.460   4.475 -1.5528  1.4732 -0.0231
  148SAPE  H20T16295   3.895   2.433   4.337  3.4439  0.3052  0.0945
  148SAPE   C3316296   3.104   2.802   5.869 -0.2574 -0.5952 -0.2276
  148SAPE   H3X16297   3.059   2.703   5.848 -3.0224  0.2420  1.2087
  148SAPE   H3Y16298   3.208   2.793   5.906  0.2236  1.0316 -1.0866
  148SAPE   C3416299   3.117   2.867   5.733  0.0357 -0.1300  0.2234
  148SAPE   H4X16300   3.144   2.975   5.736  0.5224 -0.2359 -0.1582
  148SAPE   H4Y16301   3.013   2.868   5.696  0.4435  0.8299 -0.9367
  148SAPE   C3516302   3.228   2.800   5.651  0.3130  0.1057  0.3564
  148SAPE   H5X16303   3.196   2.693   5.651 -1.4910  0.6143  0.8957
  148SAPE   H5Y16304   3.325   2.817   5.703  1.1856  4.2226 -2.2167
  148SAPE   C3616305   3.243   2.851   5.507  0.0800  0.4266 -0.6653
  148SAPE   H6X16306   3.223   2.959   5.514  1.0251  0.6855 -1.6226
  148SAPE   H6Y16307   3.160   2.813   5.443 -0.1812  0.6773 -0.4727
  148SAPE   C3716308   3.383   2.828   5.451 -0.0882 -0.4390 -0.1591
  148SAPE   H7X16309   3.396   2.718   5.454 -1.4114 -0.6150 -0.2000
  148SAPE   H7Y16310   3.459   2.868   5.523 -1.0490  2.3502 -0.5694
  148SAPE   C3816311   3.405   2.896   5.315 -0.9666  0.1153 -0.6173
  148SAPE   H8X16312   3.376   3.003   5.322 -2.3742 -0.3277  1.2739
  148SAPE   H8Y16313   3.345   2.845   5.237 -1.2827  1.2283 -1.1280
  148SAPE   C3916314   3.551   2.916   5.264 -0.1974  1.0029 -0.3246
  148SAPE   H9X16315   3.594   2.824   5.219  2.4054  1.6347  0.7238
  148SAPE   H9Y16316   3.606   2.934   5.359 -0.2419 -2.6566  0.5781
  148SAPE  C31016317   3.561   3.029   5.161 -0.7495  0.6113  0.3370
  148SAPE  H10X16318   3.539   3.123   5.216 -2.2043  1.8117 -2.1011
  148SAPE  H10Y16319   3.480   3.018   5.086  0.1277  0.6208 -0.6271
  148SAPE  C31116320   3.699   3.034   5.085  0.3783 -0.1961 -0.4442
  148SAPE  H11X16321   3.728   2.933   5.049 -0.5765 -0.8765  0.6182
  148SAPE  H11Y16322   3.772   3.061   5.165 -1.7186 -1.0567  1.8793
  148SAPE  C31216323   3.701   3.133   4.973 -0.5006 -0.0352 -0.2474
  148SAPE  H12X16324   3.687   3.236   5.013 -0.3350 -0.7900  1.8681
  148SAPE  H12Y16325   3.614   3.109   4.908 -1.6281 -0.0635  1.2130
  148SAPE  C31316326   3.836   3.127   4.905  0.0082  0.6828  0.6680
  148SAPE  H13X16327   3.862   3.021   4.885  2.8518  1.7215 -1.9124
  148SAPE  H13Y16328   3.914   3.170   4.972  0.0273 -0.7378  1.6108
  148SAPE  C31416329   3.833   3.200   4.769 -0.8398  0.5540 -1.0972
  148SAPE  H14X16330   3.934   3.204   4.723 -0.5859 -0.2625 -0.6448
  148SAPE  H14Y16331   3.806   3.303   4.799 -0.7836 -0.5861  3.5912
  148SAPE  C31516332   3.733   3.152   4.671 -0.7278  0.3318  0.4055
  148SAPE  H15X16333   3.629   3.154   4.710 -1.2956  0.7755 -1.0599
  148SAPE  H15Y16334   3.753   3.046   4.644  0.3826  0.4692  0.6303
  148SAPE  C31616335   3.726   3.252   4.553  0.4393  0.2695  0.6078
  148SAPE  H16X16336   3.827   3.266   4.509 -0.1398  0.6545 -0.6658
  148SAPE  H16Y16337   3.678   3.340   4.601  1.2289 -0.1883  2.2859
  148SAPE  C31716338   3.617   3.211   4.451  0.7252 -0.5311 -0.1959
  148SAPE  H17X16339   3.616   3.308   4.397  1.2590 -1.2189 -1.4886
  148SAPE  H17Y16340   3.511   3.191   4.478  0.3127  2.3881  0.6502
  148SAPE  C31816341   3.662   3.113   4.348 -0.7032 -0.0303 -0.1165
  148SAPE  H18X16342   3.770   3.130   4.326 -0.3122 -1.3834  0.5612
  148SAPE  H18Y16343   3.601   3.119   4.256 -0.1920  0.4250 -0.4355
  148SAPE  H18Z16344   3.654   3.004   4.373 -0.5401 -0.1786 -0.7014
  149SAPE     N16345   4.228   5.552   6.891 -0.7672 -0.1184  0.0507
  149SAPE   HN116346   4.258   5.617   6.967 -1.8345 -0.4509  0.7807
  149SAPE   HN216347   4.316   5.503   6.863 -1.1348 -0.3777 -0.6620
  149SAPE   HN316348   4.199   5.597   6.802  0.4997 -1.0343 -0.8785
  149SAPE   C1216349   4.125   5.453   6.936  0.4335 -0.5520 -0.1097
  149SAPE  H12A16350   4.032   5.508   6.962 -0.5673 -2.3905  0.3837
  149SAPE  H12B16351   4.157   5.416   7.035 -1.1763  0.7758  0.9507
  149SAPE   C1116352   4.111   5.338   6.837 -0.4959  0.5701  0.6934
  149SAPE  H11A16353   4.081   5.369   6.735  0.2469 -2.5773 -0.6147
  149SAPE  H11B16354   4.031   5.272   6.876  0.2690 -2.3883 -2.2785
  149SAPE     P16355   4.297   5.198   6.708  0.0321  0.2387 -0.2351
  149SAPE   O1316356   4.416   5.273   6.663  0.3693 -0.0946 -0.1674
  149SAPE   O1416357   4.332   5.059   6.751 -0.0747  0.5040  0.0944
  149SAPE   O1216358   4.235   5.266   6.844 -0.6425  0.1510 -0.8808
  149SAPE   O1116359   4.186   5.207   6.596  0.9220  0.2224  0.0652
  149SAPE    C116360   4.211   5.275   6.472  0.0072  0.7515  0.7808
  149SAPE    HA16361   4.121   5.315   6.419  1.5887  0.9726 -1.9065
  149SAPE    HB16362   4.270   5.368   6.487 -0.3607  1.1072  0.0777
  149SAPE    C216363   4.283   5.181   6.371 -0.6656  0.3478 -0.0063
  149SAPE    HS16364   4.385   5.160   6.410 -0.0425  0.6111 -1.4336
  149SAPE   O2116365   4.274   5.240   6.234  0.0701  0.3548 -0.2773
  149SAPE   C2116366   4.388   5.305   6.205  0.4830  0.3273 -0.3472
  149SAPE   O2216367   4.484   5.322   6.275  0.7494  0.6989  0.1423
  149SAPE   C2216368   4.380   5.377   6.068 -0.5550  0.6271  0.3972
  149SAPE   H2R16369   4.285   5.434   6.070 -0.9023  0.1115  3.9174
  149SAPE   H2S16370   4.468   5.445   6.069  1.0147 -1.3388  1.2504
  149SAPE    C316371   4.214   5.036   6.359  0.1578 -1.2679 -0.7630
  149SAPE    HX16372   4.105   5.035   6.337  0.1078 -0.4808 -0.5837
  149SAPE    HY16373   4.217   4.995   6.463 -0.5387 -0.0063 -0.2131
  149SAPE   O3116374   4.287   4.953   6.264  0.2431  0.5685 -0.5338
  149SAPE   C3116375   4.387   4.887   6.315 -0.7142  0.1711 -0.0345
  149SAPE   O3216376   4.427   4.900   6.428  0.0512  0.2042 -0.1019
  149SAPE   C3216377   4.460   4.813   6.194  0.2829  0.3289  0.2257
  149SAPE   H2X16378   4.384   4.743   6.155 -1.1849  2.4116 -0.8439
  149SAPE   H2Y16379   4.537   4.741   6.230  1.2717  0.3519 -1.7139
  149SAPE   C2316380   4.394   5.284   5.947  0.5770 -0.1319  0.1433
  149SAPE   H3R16381   4.292   5.256   5.912  0.5937  0.7637 -0.6871
  149SAPE   H3S16382   4.450   5.190   5.961 -0.3476 -0.4789  1.7705
  149SAPE   C2416383   4.433   5.358   5.825 -0.3358  0.7386  0.3779
  149SAPE   H4R16384   4.540   5.382   5.844 -0.0675  0.6673 -0.9620
  149SAPE   H4S16385   4.384   5.457   5.810 -1.1654  0.3051  0.1231
  149SAPE   C2516386   4.423   5.276   5.700  0.3580 -0.1836  0.2334
  149SAPE   H5R16387   4.500   5.198   5.701  0.0965 -0.4428  1.5946
  149SAPE   C2616388   4.331   5.282   5.605 -0.1985 -0.6773  0.9464
  149SAPE   H6R16389   4.336   5.209   5.523  1.5976 -1.7271  1.9176
  149SAPE   C2716390   4.220   5.383   5.601 -0.0011 -0.1995  0.6055
  149SAPE   H7R16391   4.223   5.439   5.697  2.0558 -0.9798  1.0608
  149SAPE   H7S16392   4.125   5.326   5.606  0.0827 -0.3768  0.2146
  149SAPE   C2816393   4.216   5.470   5.480 -0.0837 -0.7504  0.1967
  149SAPE   H8R16394   4.133   5.541   5.474 -0.5328 -1.3082 -0.3393
  149SAPE   C2916395   4.283   5.475   5.357 -0.6764 -0.7009  0.6641
  149SAPE   H9R16396   4.251   5.549   5.283 -0.9339 -0.7613  0.7122
  149SAPE  C21016397   4.403   5.397   5.314 -0.3123 -0.1362  0.2503
  149SAPE  H10R16398   4.361   5.310   5.260  0.9163  0.9735 -2.6581
  149SAPE  H10S16399   4.461   5.373   5.406  0.8056  0.3801 -0.2986
  149SAPE  C21116400   4.500   5.474   5.228  0.1205  0.0597  0.3756
  149SAPE  H11R16401   4.586   5.508   5.288 -0.5821  0.5963  1.0972
  149SAPE  C21216402   4.496   5.489   5.092 -0.1044  0.8536 -0.4845
  149SAPE  H12R16403   4.580   5.537   5.038  0.8309  0.2741  0.4187
  149SAPE  C21316404   4.377   5.431   5.017 -0.1672  0.0305 -0.4684
  149SAPE  H13R16405   4.293   5.419   5.088 -0.0460 -4.0244 -0.7856
  149SAPE  H13S16406   4.414   5.329   4.996  1.4369  0.4486  0.1494
  149SAPE  C21416407   4.324   5.502   4.892 -0.6570  0.4172  0.6316
  149SAPE  H14R16408   4.313   5.611   4.890 -2.2997  0.2780  0.3480
  149SAPE  C21516409   4.302   5.434   4.778  0.0441 -0.1700  0.0953
  149SAPE  H15R16410   4.275   5.488   4.686  3.8518  1.4046 -0.2772
  149SAPE  C21616411   4.296   5.284   4.766 -0.0180 -0.4706 -0.2847
  149SAPE  H16R16412   4.233   5.253   4.680  0.0627  1.0776 -0.9320
  149SAPE  H16S16413   4.257   5.231   4.856  0.9816  1.1619  1.1859
  149SAPE  C21716414   4.440   5.229   4.759  0.9219 -0.1633 -0.1692
  149SAPE  H17R16415   4.504   5.247   4.848  1.1330 -1.0855 -0.1137
  149SAPE  H17S16416   4.494   5.267   4.670  0.6968 -2.2224 -1.2668
  149SAPE  C21816417   4.443   5.068   4.750 -0.1632 -0.1960  0.4699
  149SAPE  H18R16418   4.396   5.045   4.652 -0.6130  1.2730  0.3075
  149SAPE  H18S16419   4.383   5.029   4.836  1.3333 -1.7532  0.8439
  149SAPE  C21916420   4.579   5.009   4.742  0.3021 -0.1411  0.2018
  149SAPE  H19R16421   4.552   4.902   4.751 -0.8094  0.1307  0.3202
  149SAPE  H19S16422   4.635   5.042   4.832 -0.6017 -0.0248  0.7430
  149SAPE  C22016423   4.645   5.031   4.610  0.6881 -0.3586  0.1992
  149SAPE  H20R16424   4.637   5.139   4.583  0.1789 -0.6896 -1.0464
  149SAPE  H20S16425   4.602   4.967   4.530 -0.1307 -2.6372  2.3669
  149SAPE  H20T16426   4.753   5.003   4.613  1.1426  1.1787 -0.3746
  149SAPE   C3316427   4.513   4.914   6.090  0.0607 -0.4736 -0.1887
  149SAPE   H3X16428   4.573   4.984   6.151 -0.0943 -2.6417  2.6603
  149SAPE   H3Y16429   4.422   4.970   6.059 -0.2995 -1.3287 -0.7337
  149SAPE   C3416430   4.609   4.863   5.984  0.7406  0.4261 -0.3764
  149SAPE   H4X16431   4.622   4.753   5.995 -1.3375  0.0371 -1.2304
  149SAPE   H4Y16432   4.705   4.916   6.002  1.9546 -1.7149 -0.1798
  149SAPE   C3516433   4.554   4.901   5.839 -0.0151  0.5466 -0.3572
  149SAPE   H5X16434   4.507   5.001   5.842  1.0825  1.1439 -1.9864
  149SAPE   H5Y16435   4.468   4.832   5.825 -0.6910  0.8912  1.7996
  149SAPE   C3616436   4.666   4.889   5.737  0.7797  0.5962  0.5623
  149SAPE   H6X16437   4.699   4.785   5.756 -0.1303  0.5164  1.9256
  149SAPE   H6Y16438   4.739   4.966   5.768 -0.2720  1.6884  0.4220
  149SAPE   C3716439   4.634   4.908   5.584 -0.1241  0.0114  0.1042
  149SAPE   H7X16440   4.725   4.870   5.534 -1.5310 -2.8329 -0.5091
  149SAPE   H7Y16441   4.615   5.017   5.575 -1.3414 -0.1991 -0.0290
  149SAPE   C3816442   4.509   4.833   5.537 -0.3817  0.0494  0.1521
  149SAPE   H8X16443   4.483   4.749   5.606  1.0938 -0.9820 -0.4897
  149SAPE   H8Y16444   4.530   4.793   5.435  1.4907 -0.5483  0.7351
  149SAPE   C3916445   4.385   4.935   5.522 -0.2885  0.7528 -0.2133
  149SAPE   H9X16446   4.417   5.022   5.462  3.4610  0.2988  0.8271
  149SAPE   H9Y16447   4.363   4.969   5.625  1.4724 -0.3744  0.5991
  149SAPE  C31016448   4.259   4.869   5.466  0.2048  0.0436  0.6437
  149SAPE  H10X16449   4.171   4.910   5.520 -0.6753 -1.0613  0.0845
  149SAPE  H10Y16450   4.264   4.763   5.497  0.2148  0.6620  2.9695
  149SAPE  C31116451   4.238   4.872   5.312 -0.5788  0.1039  0.2379
  149SAPE  H11X16452   4.163   4.793   5.293  1.7634 -1.4573 -3.5227
  149SAPE  H11Y16453   4.334   4.839   5.268 -1.0182 -1.7191  0.5814
  149SAPE  C31216454   4.208   5.015   5.262 -0.9131  0.3933  0.0205
  149SAPE  H12X16455   4.301   5.075   5.272  1.5190 -3.0640  0.1471
  149SAPE  H12Y16456   4.126   5.064   5.318 -1.3387  0.1107 -0.3457
  149SAPE  C31316457   4.171   5.006   5.108  0.5450  0.0339  0.1884
  149SAPE  H13X16458   4.242   4.942   5.050 -1.2401 -1.7948 -0.0859
  149SAPE  H13Y16459   4.191   5.107   5.066  1.7596 -1.3108 -2.7866
  149SAPE  C31416460   4.031   4.954   5.081 -0.3344 -0.3512  0.0449
  149SAPE  H14X16461   3.953   5.015   5.132 -0.4302  0.4267 -0.9971
  149SAPE  H14Y16462   4.020   4.848   5.113 -1.2757 -0.5136 -0.7601
  149SAPE  C31516463   3.996   4.967   4.933  0.8136 -0.0166 -0.0126
  149SAPE  H15X16464   4.057   4.907   4.862 -1.6341 -1.5645 -0.9428
  149SAPE  H15Y16465   3.990   5.075   4.911  1.7266  1.1341  4.4527
  149SAPE  C31616466   3.849   4.915   4.914 -0.5267 -0.0773  0.2511
  149SAPE  H16X16467   3.779   4.972   4.979 -0.3001 -0.7319  1.0946
  149SAPE  H16Y16468   3.845   4.808   4.944  0.8482  0.2531  1.7205
  149SAPE  C31716469   3.795   4.930   4.773  0.6624 -0.8567 -0.0274
  149SAPE  H17X16470   3.839   5.021   4.726 -0.6987  1.2867  2.5104
  149SAPE  H17Y16471   3.689   4.962   4.777  1.2810  1.6508 -1.5940
  149SAPE  C31816472   3.811   4.805   4.688  0.7969 -0.0014 -0.4552
  149SAPE  H18X16473   3.917   4.794   4.659  0.3969 -2.4371 -1.2100
  149SAPE  H18Y16474   3.742   4.816   4.601 -0.5482 -0.8526  0.4545
  149SAPE  H18Z16475   3.769   4.717   4.741  0.9761 -0.2329 -0.6954
  150SAPE     N16476   6.603   6.305   6.918  0.7291  0.1449  0.1143
  150SAPE   HN116477   6.688   6.360   6.893  0.0900  1.2239  0.2286
  150SAPE   HN216478   6.642   6.225   6.973 -1.3542 -1.1489 -0.1886
  150SAPE   HN316479   6.558   6.265   6.834 -1.2238 -0.9460  1.6045
  150SAPE   C1216480   6.489   6.369   6.991 -0.1369 -0.0467 -0.3351
  150SAPE  H12A16481   6.526   6.408   7.088 -0.1541  0.8125 -0.6572
  150SAPE  H12B16482   6.415   6.288   7.009 -0.1580 -0.2498 -1.2839
  150SAPE   C1116483   6.427   6.488   6.912 -0.5842  0.5728  0.0675
  150SAPE  H11A16484   6.511   6.561   6.908  0.4519 -0.6120 -2.0161
  150SAPE  H11B16485   6.343   6.525   6.974 -0.6888 -2.1252  1.7328
  150SAPE     P16486   6.234   6.403   6.749 -0.6330  0.2675 -0.2941
  150SAPE   O1316487   6.228   6.287   6.653  0.1062 -0.1977  0.1541
  150SAPE   O1416488   6.158   6.381   6.869 -0.4204 -0.5316 -0.1539
  150SAPE   O1216489   6.385   6.438   6.782 -0.0493  0.1215  0.2939
  150SAPE   O1116490   6.179   6.534   6.677 -0.2645 -0.2307  0.4644
  150SAPE    C116491   6.271   6.576   6.568  0.3196  0.3309 -0.2443
  150SAPE    HA16492   6.356   6.631   6.615  0.4438  1.3221 -1.5570
  150SAPE    HB16493   6.315   6.490   6.514 -2.3268 -0.4510 -1.2788
  150SAPE    C216494   6.203   6.684   6.474 -0.0711  0.1405  0.1988
  150SAPE    HS16495   6.092   6.683   6.469 -0.1141  2.2356 -0.2943
  150SAPE   O2116496   6.270   6.668   6.343  0.1757  0.2081 -0.6731
  150SAPE   C2116497   6.210   6.578   6.263  0.1163  0.4549 -0.2096
  150SAPE   O2216498   6.099   6.532   6.283  0.1498  0.7264 -0.1595
  150SAPE   C2216499   6.306   6.530   6.156  0.0380 -0.5140 -0.4321
  150SAPE   H2R16500   6.352   6.622   6.114  1.0820  0.0344  1.7747
  150SAPE   H2S16501   6.377   6.457   6.202  2.2241  1.7892  0.0564
  150SAPE    C316502   6.250   6.822   6.527  0.5287  0.1321  0.5372
  150SAPE    HX16503   6.360   6.810   6.518  0.3979 -0.6422 -0.1298
  150SAPE    HY16504   6.208   6.835   6.629 -1.7681  1.0831 -0.4571
  150SAPE   O3116505   6.195   6.932   6.454  0.7506 -0.0075 -0.3295
  150SAPE   C3116506   6.279   7.022   6.406 -0.3042 -0.2475 -0.0375
  150SAPE   O3216507   6.399   7.025   6.430  0.1126  0.0056  0.2621
  150SAPE   C3216508   6.207   7.121   6.317 -0.6373 -0.4360  0.3278
  150SAPE   H2X16509   6.247   7.215   6.361 -0.8351 -0.8366  1.3897
  150SAPE   H2Y16510   6.099   7.133   6.340 -0.0135  0.7843  3.0061
  150SAPE   C2316511   6.225   6.449   6.046  0.3834  0.3453 -0.1757
  150SAPE   H3R16512   6.140   6.392   6.090  1.2616  1.0698  2.6966
  150SAPE   H3S16513   6.294   6.369   6.012  0.5193 -0.6653  2.2475
  150SAPE   C2416514   6.188   6.533   5.925  0.1384  0.1738 -0.1006
  150SAPE   H4R16515   6.266   6.607   5.893  0.9792 -1.7075 -2.7705
  150SAPE   H4S16516   6.093   6.586   5.949  0.4220  0.9704 -0.6696
  150SAPE   C2516517   6.163   6.439   5.812 -0.1743 -0.8242 -1.1485
  150SAPE   H5R16518   6.061   6.398   5.804 -0.6069  0.0920 -0.5677
  150SAPE   C2616519   6.256   6.405   5.720  0.0838  0.6145  0.3102
  150SAPE   H6R16520   6.221   6.325   5.653  0.2113 -1.5873  2.7344
  150SAPE   C2716521   6.404   6.458   5.710  0.5959 -0.6439  0.2854
  150SAPE   H7R16522   6.434   6.500   5.809  1.0746  1.0517 -0.5426
  150SAPE   H7S16523   6.394   6.543   5.639  0.1832  0.9304  2.1295
  150SAPE   C2816524   6.491   6.347   5.661 -0.1637 -0.4047 -0.1069
  150SAPE   H8R16525   6.555   6.293   5.733 -1.6385 -2.7351 -0.4682
  150SAPE   C2916526   6.527   6.340   5.536 -0.5063  0.1911 -0.3396
  150SAPE   H9R16527   6.604   6.264   5.516  1.1384  1.1161  2.0209
  150SAPE  C21016528   6.471   6.416   5.417  0.3311 -0.2562 -0.0121
  150SAPE  H10R16529   6.548   6.493   5.396 -0.1442  0.1559 -0.2429
  150SAPE  H10S16530   6.371   6.459   5.442  0.3353 -0.7873  0.9952
  150SAPE  C21116531   6.480   6.338   5.290  0.2308  0.0512  0.6549
  150SAPE  H11R16532   6.579   6.305   5.257 -0.0665  0.4412 -0.6844
  150SAPE  C21216533   6.381   6.311   5.205  0.4652  0.5917 -0.0433
  150SAPE  H12R16534   6.394   6.251   5.113  1.2414  0.1036  0.3781
  150SAPE  C21316535   6.236   6.353   5.224 -0.0359  0.5260  0.4684
  150SAPE  H13R16536   6.181   6.343   5.128 -1.8706 -1.1085  1.6081
  150SAPE  H13S16537   6.235   6.458   5.260  0.7309  0.2254  1.4042
  150SAPE  C21416538   6.158   6.285   5.336  0.4884 -0.0008  0.4120
  150SAPE  H14R16539   6.210   6.290   5.433  0.0756 -1.7388  0.7495
  150SAPE  C21516540   6.039   6.221   5.331  0.7501  0.1043 -0.4830
  150SAPE  H15R16541   6.001   6.176   5.424  0.8696 -1.3516 -1.1095
  150SAPE  C21616542   5.945   6.209   5.218  0.0216  0.1678  0.2848
  150SAPE  H16R16543   6.007   6.183   5.130  1.0839  1.1731  0.6953
  150SAPE  H16S16544   5.907   6.313   5.209  1.8625  0.8163 -0.6536
  150SAPE  C21716545   5.841   6.092   5.240  0.0109 -0.0850  0.4027
  150SAPE  H17R16546   5.742   6.104   5.192  0.6960 -1.6192 -1.5089
  150SAPE  H17S16547   5.824   6.099   5.350 -0.8753  1.0771  0.2126
  150SAPE  C21816548   5.884   5.953   5.187 -0.2076 -0.3060 -0.7267
  150SAPE  H18R16549   5.815   5.884   5.241 -0.9882  1.2222  0.3185
  150SAPE  H18S16550   5.992   5.944   5.210  0.3533  2.1780 -1.9949
  150SAPE  C21916551   5.850   5.927   5.037 -0.3526  0.3525 -0.4839
  150SAPE  H19R16552   5.916   5.994   4.978  1.2941 -1.9254 -1.3756
  150SAPE  H19S16553   5.743   5.953   5.021 -0.2402  2.5962  1.7060
  150SAPE  C22016554   5.870   5.779   4.999 -0.4889  0.4444  0.2883
  150SAPE  H20R16555   5.829   5.752   4.899  0.6583 -1.9220  0.3922
  150SAPE  H20S16556   5.839   5.711   5.082  2.0952 -0.8056  0.3281
  150SAPE  H20T16557   5.980   5.766   4.988 -0.6821 -1.4407  0.2463
  150SAPE   C3316558   6.248   7.108   6.173 -0.6138  0.4601 -0.3433
  150SAPE   H3X16559   6.359   7.111   6.177 -0.5871 -0.4848 -0.0136
  150SAPE   H3Y16560   6.214   7.202   6.125  0.3406  2.0693  1.9333
  150SAPE   C3416561   6.194   6.983   6.097 -0.0124  0.4610 -0.0209
  150SAPE   H4X16562   6.084   6.989   6.083 -0.0001  0.3492 -0.1661
  150SAPE   H4Y16563   6.215   6.892   6.158  1.6894  1.0407  0.3111
  150SAPE   C3516564   6.264   6.968   5.966 -0.4096 -0.0797  0.2349
  150SAPE   H5X16565   6.274   6.863   5.932  0.2375  0.0420  0.0226
  150SAPE   H5Y16566   6.367   7.011   5.974 -1.5578  2.9619 -0.1092
  150SAPE   C3616567   6.207   7.060   5.858 -0.3081 -0.3990  0.1989
  150SAPE   H6X16568   6.211   7.166   5.892 -1.2160  0.2189 -1.4801
  150SAPE   H6Y16569   6.099   7.043   5.839 -0.0971  0.5045 -2.1295
  150SAPE   C3716570   6.282   7.047   5.728 -0.0280  0.2891  0.0681
  150SAPE   H7X16571   6.388   7.074   5.747 -0.4799  2.0206  0.3284
  150SAPE   H7Y16572   6.239   7.120   5.655  1.0542  1.0829  0.1938
  150SAPE   C3816573   6.286   6.907   5.660 -0.6730  0.2145  0.1582
  150SAPE   H8X16574   6.183   6.866   5.660 -0.8244  0.3743  2.9819
  150SAPE   H8Y16575   6.332   6.842   5.738 -0.8400  0.9480  0.8767
  150SAPE   C3916576   6.347   6.905   5.517  0.0578  0.3399 -0.0046
  150SAPE   H9X16577   6.446   6.955   5.509  0.8006 -1.1803 -0.8582
  150SAPE   H9Y16578   6.280   6.956   5.445  1.6199  2.9842  0.2714
  150SAPE  C31016579   6.383   6.768   5.466 -0.9056  0.6105  0.0873
  150SAPE  H10X16580   6.301   6.698   5.439 -0.4824  0.6074 -1.2586
  150SAPE  H10Y16581   6.437   6.726   5.553 -0.1991  0.4582 -0.4178
  150SAPE  C31116582   6.475   6.772   5.338 -0.3809  0.4816 -0.0106
  150SAPE  H11X16583   6.545   6.685   5.332 -2.3752 -1.1948 -0.2611
  150SAPE  H11Y16584   6.528   6.869   5.343  1.2291 -0.3865  0.3051
  150SAPE  C31216585   6.392   6.776   5.205  0.5273 -0.2395 -0.2028
  150SAPE  H12X16586   6.317   6.858   5.202  1.2030  0.3667 -1.7380
  150SAPE  H12Y16587   6.352   6.672   5.204 -0.1926 -0.0375  2.1253
  150SAPE  C31316588   6.482   6.792   5.079  0.2435  0.8038  0.3055
  150SAPE  H13X16589   6.566   6.719   5.078 -0.2115  0.1353 -3.3023
  150SAPE  H13Y16590   6.529   6.892   5.075  0.9950  0.4159 -0.9175
  150SAPE  C31416591   6.405   6.767   4.952  0.4748 -0.5424 -0.0349
  150SAPE  H14X16592   6.339   6.855   4.939  1.2505 -0.2543 -2.3717
  150SAPE  H14Y16593   6.344   6.675   4.959  0.0587 -0.3556 -1.1144
  150SAPE  C31516594   6.499   6.746   4.829  0.3280  0.3254 -0.5029
  150SAPE  H15X16595   6.585   6.681   4.860  0.5106  1.0267  0.5209
  150SAPE  H15Y16596   6.550   6.841   4.803 -1.0590  1.1785 -0.1690
  150SAPE  C31616597   6.428   6.697   4.706  0.6486  0.0069 -0.1980
  150SAPE  H16X16598   6.503   6.682   4.626 -1.7099 -1.4604 -2.2569
  150SAPE  H16Y16599   6.373   6.782   4.661 -1.7695 -2.3232 -1.9275
  150SAPE  C31716600   6.351   6.563   4.717  0.1896 -1.0090  0.3126
  150SAPE  H17X16601   6.246   6.590   4.737  0.7189  1.3729  0.1452
  150SAPE  H17Y16602   6.394   6.506   4.802  1.0506 -2.9023 -1.3146
  150SAPE  C31816603   6.368   6.487   4.584  0.4670  0.2302 -0.1894
  150SAPE  H18X16604   6.473   6.479   4.551 -0.0002  2.5564 -2.6478
  150SAPE  H18Y16605   6.293   6.523   4.510 -0.6523 -1.7981 -0.1016
  150SAPE  H18Z16606   6.336   6.383   4.607  1.7741  0.0844  1.1561
  151SAPE     N16607   6.917   3.537   6.471 -0.7379 -0.1301  0.2483
  151SAPE   HN116608   6.873   3.513   6.380 -1.5054 -0.7156  0.7604
  151SAPE   HN216609   6.896   3.469   6.547  0.1683 -0.1140  0.5258
  151SAPE   HN316610   6.887   3.631   6.506 -1.7964  0.1153 -1.2290
  151SAPE   C1216611   7.068   3.534   6.456  0.3492 -0.6662 -0.1988
  151SAPE  H12A16612   7.094   3.464   6.373  1.4982  1.9814 -2.2073
  151SAPE  H12B16613   7.105   3.509   6.558  1.9174 -2.9481 -1.2441
  151SAPE   C1116614   7.119   3.673   6.425  0.6191 -0.1625  0.2237
  151SAPE  H11A16615   7.086   3.715   6.327  1.4684  0.9595  0.3918
  151SAPE  H11B16616   7.229   3.660   6.412  1.1927  1.0453  2.9820
  151SAPE     P16617   6.990   3.863   6.558 -0.0617 -0.0666 -0.3068
  151SAPE   O1316618   6.865   3.788   6.548  0.4583  0.1113 -0.1938
  151SAPE   O1416619   7.010   3.942   6.681  0.6342 -0.0486 -0.1594
  151SAPE   O1216620   7.102   3.756   6.542 -0.4389  0.0834  0.1944
  151SAPE   O1116621   6.997   3.968   6.439 -0.2643  0.0247  0.1375
  151SAPE    C116622   7.107   4.040   6.403  0.0919  0.0335  0.5145
  151SAPE    HA16623   7.105   4.144   6.441  1.1669  0.4430 -0.4920
  151SAPE    HB16624   7.197   3.996   6.452 -0.8864 -0.3761  1.9852
  151SAPE    C216625   7.147   4.027   6.248 -0.3474  0.2566 -0.0752
  151SAPE    HS16626   7.056   4.051   6.188 -0.0095  1.1535 -0.2440
  151SAPE   O2116627   7.188   3.892   6.208 -0.3858  0.1550 -0.3330
  151SAPE   C2116628   7.143   3.847   6.094 -0.0847 -0.8087  0.1273
  151SAPE   O2216629   7.062   3.903   6.019  0.0939 -0.2542 -0.8953
  151SAPE   C2216630   7.199   3.712   6.076  0.0742 -0.4470  0.0871
  151SAPE   H2R16631   7.293   3.699   6.135  0.8354 -1.0449 -1.1981
  151SAPE   H2S16632   7.120   3.645   6.114  0.0645 -0.1052  0.6702
  151SAPE    C316633   7.258   4.126   6.214 -0.2411 -0.5471  0.0192
  151SAPE    HX16634   7.352   4.081   6.252 -0.7998 -1.5856  0.2203
  151SAPE    HY16635   7.245   4.220   6.272  4.6851 -0.2326  1.0974
  151SAPE   O3116636   7.261   4.155   6.076 -0.0686  0.4019  0.5202
  151SAPE   C3116637   7.261   4.283   6.034 -0.5319 -0.3584 -0.6676
  151SAPE   O3216638   7.227   4.383   6.097 -0.0235  0.1445  0.0435
  151SAPE   C3216639   7.305   4.280   5.889  0.6991 -0.7254  0.0363
  151SAPE   H2X16640   7.263   4.192   5.837  1.2990 -0.4941 -0.8557
  151SAPE   H2Y16641   7.416   4.278   5.881  0.9326 -0.4189  2.4090
  151SAPE   C2316642   7.224   3.680   5.931 -0.1878  0.8659  0.3877
  151SAPE   H3R16643   7.138   3.709   5.867 -1.0705 -0.5221  0.9069
  151SAPE   H3S16644   7.239   3.572   5.912  0.1129  1.3957 -2.9505
  151SAPE   C2416645   7.346   3.743   5.866 -0.0160 -0.6608  0.0472
  151SAPE   H4R16646   7.431   3.697   5.921 -0.1306 -0.8198  0.0931
  151SAPE   H4S16647   7.336   3.851   5.889 -1.4686 -0.1498 -2.5722
  151SAPE   C2516648   7.352   3.710   5.719  0.2602  0.6552 -0.1568
  151SAPE   H5R16649   7.371   3.606   5.692  1.1104  1.0382 -1.1078
  151SAPE   C2616650   7.353   3.793   5.614  0.2017 -0.0237 -0.5564
  151SAPE   H6R16651   7.359   3.756   5.511  1.7160 -1.0597 -0.1216
  151SAPE   C2716652   7.361   3.944   5.627 -0.1497  0.1225 -0.9307
  151SAPE   H7R16653   7.465   3.985   5.626 -0.8784  2.2598  1.3012
  151SAPE   H7S16654   7.340   3.977   5.731  0.0887 -0.1262 -0.8015
  151SAPE   C2816655   7.276   4.033   5.539  0.0387 -0.2793 -0.1864
  151SAPE   H8R16656   7.174   4.050   5.577 -0.8037  0.3176 -2.5363
  151SAPE   C2916657   7.317   4.083   5.419 -0.9123  0.3467  0.1468
  151SAPE   H9R16658   7.253   4.156   5.368 -1.3700  0.2638  0.5903
  151SAPE  C21016659   7.454   4.055   5.358  0.5017 -0.3160  0.2669
  151SAPE  H10R16660   7.473   3.946   5.370  2.5795 -0.0598 -0.2150
  151SAPE  H10S16661   7.530   4.120   5.406 -1.3930  0.4686  2.3909
  151SAPE  C21116662   7.437   4.092   5.213  0.2883  0.2605  0.2990
  151SAPE  H11R16663   7.422   4.198   5.188  1.0696  0.1114 -0.9156
  151SAPE  C21216664   7.418   3.998   5.115  0.0422  0.5940  0.5470
  151SAPE  H12R16665   7.408   4.026   5.009 -0.3051  0.6308  0.5884
  151SAPE  C21316666   7.408   3.849   5.138 -0.2384 -0.1344  0.5459
  151SAPE  H13R16667   7.344   3.830   5.227  0.0058 -1.6322  0.4371
  151SAPE  H13S16668   7.509   3.816   5.170 -0.1584 -0.2630  0.1723
  151SAPE  C21416669   7.355   3.759   5.026  0.7050  0.0794 -0.4535
  151SAPE  H14R16670   7.275   3.812   4.972 -1.3684 -0.1500  2.1720
  151SAPE  C21516671   7.382   3.633   4.993 -0.4041  0.0512  0.2280
  151SAPE  H15R16672   7.334   3.593   4.903  1.4370  0.7656 -1.1426
  151SAPE  C21616673   7.490   3.546   5.043 -0.3443 -0.3390 -0.1238
  151SAPE  H16R16674   7.555   3.605   5.111 -2.0485 -0.2833  1.5601
  151SAPE  H16S16675   7.552   3.497   4.964  1.1348  0.2829  0.6233
  151SAPE  C21716676   7.424   3.431   5.136  0.2903 -0.1314  0.3070
  151SAPE  H17R16677   7.518   3.381   5.170 -0.2346  0.1012  2.2116
  151SAPE  H17S16678   7.360   3.367   5.073  1.7067  0.3339 -1.7137
  151SAPE  C21816679   7.358   3.491   5.256  0.1216  1.0354 -0.5856
  151SAPE  H18R16680   7.269   3.545   5.217  1.2780  2.3114 -1.5659
  151SAPE  H18S16681   7.415   3.567   5.314 -2.1650  2.5627 -0.2242
  151SAPE  C21916682   7.308   3.377   5.346  0.2117  0.0304  0.1316
  151SAPE  H19R16683   7.404   3.329   5.375  1.3615  0.2820 -2.8960
  151SAPE  H19S16684   7.251   3.307   5.282  0.8050  0.4424 -0.8764
  151SAPE  C22016685   7.240   3.426   5.475  0.5786  0.8637  0.8654
  151SAPE  H20R16686   7.290   3.516   5.517 -0.1391  1.9688 -0.5388
  151SAPE  H20S16687   7.232   3.342   5.547  1.3879 -1.4816 -1.5782
  151SAPE  H20T16688   7.139   3.466   5.453  1.5111  2.0833 -1.6546
  151SAPE   C3316689   7.259   4.410   5.827 -0.0679 -0.7277 -0.3747
  151SAPE   H3X16690   7.302   4.505   5.864 -0.8694  0.0616 -1.4146
  151SAPE   H3Y16691   7.148   4.411   5.836 -0.2067  0.3929 -1.8311
  151SAPE   C3416692   7.286   4.417   5.676 -0.2748 -0.4353  0.0870
  151SAPE   H4X16693   7.219   4.493   5.631  0.5402  0.2525 -0.0050
  151SAPE   H4Y16694   7.269   4.316   5.634  0.1955  0.0392 -1.3300
  151SAPE   C3516695   7.425   4.471   5.638 -0.0582  0.6598 -0.0412
  151SAPE   H5X16696   7.485   4.401   5.700  1.4047  2.6879  0.9368
  151SAPE   H5Y16697   7.440   4.572   5.681 -1.0950  0.6888  0.2760
  151SAPE   C3616698   7.462   4.457   5.486  0.0632  0.0300  0.3327
  151SAPE   H6X16699   7.393   4.518   5.423 -1.4373 -1.5200  0.3982
  151SAPE   H6Y16700   7.450   4.350   5.458 -2.0302 -0.1105  1.5068
  151SAPE   C3716701   7.608   4.494   5.444 -0.4396 -0.2499 -0.2730
  151SAPE   H7X16702   7.629   4.476   5.337  2.0394 -0.6816  0.2338
  151SAPE   H7Y16703   7.679   4.424   5.493 -3.2054 -3.0388  0.0525
  151SAPE   C3816704   7.651   4.632   5.493  0.3161 -0.1436  0.2231
  151SAPE   H8X16705   7.761   4.641   5.486  0.4221 -1.1297  0.5133
  151SAPE   H8Y16706   7.617   4.628   5.599 -0.3015 -1.3363 -0.0020
  151SAPE   C3916707   7.580   4.744   5.428  0.4037 -0.6675 -0.4452
  151SAPE   H9X16708   7.606   4.833   5.491  0.4284 -1.8414  1.2773
  151SAPE   H9Y16709   7.475   4.729   5.459  1.2981 -1.3046  2.6682
  151SAPE  C31016710   7.610   4.760   5.275 -0.0667 -0.3999  0.9551
  151SAPE  H10X16711   7.581   4.860   5.237  0.6582 -0.4918  0.1067
  151SAPE  H10Y16712   7.566   4.678   5.214  1.3383 -0.8724  0.5245
  151SAPE  C31116713   7.756   4.740   5.216  0.3993 -0.0026 -0.1677
  151SAPE  H11X16714   7.775   4.632   5.230  0.8323  0.1681  0.5586
  151SAPE  H11Y16715   7.846   4.790   5.257  0.9356 -0.2370 -1.0406
  151SAPE  C31216716   7.765   4.756   5.063  1.1518  1.5185 -0.2327
  151SAPE  H12X16717   7.668   4.791   5.021 -0.6973 -0.3377  2.1474
  151SAPE  H12Y16718   7.775   4.657   5.013 -0.7321  0.2939  1.6520
  151SAPE  C31316719   7.870   4.857   5.019 -0.0376 -0.1961  0.0511
  151SAPE  H13X16720   7.973   4.839   5.057  0.0347 -1.5597 -0.7191
  151SAPE  H13Y16721   7.854   4.964   5.044 -0.8818 -0.2401 -0.2924
  151SAPE  C31416722   7.896   4.866   4.865  0.7719 -1.0838 -0.3341
  151SAPE  H14X16723   7.980   4.937   4.852 -0.9662  1.4976  1.4161
  151SAPE  H14Y16724   7.805   4.911   4.820  0.8199  0.6149  1.1420
  151SAPE  C31516725   7.936   4.735   4.796  0.3784  0.2917 -0.0704
  151SAPE  H15X16726   7.973   4.758   4.693 -1.0147 -0.9807 -0.8951
  151SAPE  H15Y16727   7.863   4.653   4.810  0.2898  0.8724  3.9615
  151SAPE  C31616728   8.061   4.671   4.862 -0.0739 -0.7154 -0.3476
  151SAPE  H16X16729   8.031   4.631   4.961 -1.2814  1.0197  0.0274
  151SAPE  H16Y16730   8.146   4.738   4.888 -0.6959 -0.3101  0.6963
  151SAPE  C31716731   8.120   4.553   4.780  0.0250  0.2298 -0.1741
  151SAPE  H17X16732   8.152   4.586   4.679  1.0850 -0.8834 -0.2198
  151SAPE  H17Y16733   8.035   4.481   4.770 -0.3066  0.3884  1.1868
  151SAPE  C31816734   8.231   4.477   4.850  0.0158 -0.1547  0.0747
  151SAPE  H18X16735   8.196   4.440   4.949 -1.9689 -3.1935 -1.6141
  151SAPE  H18Y16736   8.318   4.546   4.858  0.8840 -0.8918 -2.2239
  151SAPE  H18Z16737   8.271   4.392   4.791 -0.0369  1.2973 -2.1827
  152SAPE     N16738   1.976   6.441   6.900  0.0282 -0.1272 -0.3095
  152SAPE   HN116739   2.022   6.462   6.991  1.1550 -1.9579 -0.4017
  152SAPE   HN216740   1.967   6.537   6.860  3.1723  0.2731 -0.3815
  152SAPE   HN316741   1.877   6.411   6.905 -0.0409 -0.1352 -1.4688
  152SAPE   C1216742   2.045   6.342   6.817  0.1234 -0.2957 -0.3900
  152SAPE  H12A16743   2.081   6.261   6.884 -0.0016  0.6773  0.8735
  152SAPE  H12B16744   2.136   6.393   6.778  1.4627  0.1603  2.9582
  152SAPE   C1116745   1.947   6.275   6.717  0.1452  0.2800  0.4105
  152SAPE  H11A16746   2.001   6.196   6.660 -0.4047  0.7363 -0.7708
  152SAPE  H11B16747   1.912   6.353   6.646 -4.4052 -0.3804  1.6138
  152SAPE     P16748   1.827   6.061   6.801  0.2133 -0.1773 -0.3367
  152SAPE   O1316749   1.937   6.004   6.878 -0.2195  0.2361  0.4128
  152SAPE   O1416750   1.691   6.029   6.850 -0.0341 -0.4467  0.1255
  152SAPE   O1216751   1.833   6.220   6.785 -0.0747  0.6431 -0.0490
  152SAPE   O1116752   1.835   6.002   6.653 -0.0563 -0.7292 -0.2809
  152SAPE    C116753   1.726   6.020   6.569  0.2296 -0.9759  0.3317
  152SAPE    HA16754   1.655   5.935   6.577  0.0222 -0.7818  0.5583
  152SAPE    HB16755   1.667   6.110   6.597  1.0750 -1.0948  2.7455
  152SAPE    C216756   1.771   6.023   6.425  0.3595  0.0278  0.5759
  152SAPE    HS16757   1.682   6.075   6.382 -0.8963 -1.7902  0.8956
  152SAPE   O2116758   1.780   5.889   6.383  0.4571  0.0080  0.1794
  152SAPE   C2116759   1.715   5.852   6.272  0.9114  0.6477  0.6363
  152SAPE   O2216760   1.640   5.928   6.208 -0.1435 -0.1544 -0.3329
  152SAPE   C2216761   1.741   5.708   6.234  0.1187  0.0963 -0.5967
  152SAPE   H2R16762   1.751   5.647   6.327 -1.1345  1.0146  0.1589
  152SAPE   H2S16763   1.658   5.669   6.171 -1.3121 -1.0737  1.8782
  152SAPE    C316764   1.895   6.107   6.384 -0.1345 -0.9141  0.8381
  152SAPE    HX16765   1.985   6.075   6.442  0.6078 -1.9723 -0.8357
  152SAPE    HY16766   1.883   6.214   6.413  0.6366 -0.5110 -0.2296
  152SAPE   O3116767   1.912   6.090   6.242 -0.1711 -0.0895  0.1732
  152SAPE   C3116768   1.840   6.174   6.166  0.2739  0.0078 -0.2418
  152SAPE   O3216769   1.774   6.265   6.210 -0.1551 -0.4924 -0.2463
  152SAPE   C3216770   1.842   6.128   6.021  0.3289  0.2911 -0.1248
  152SAPE   H2X16771   1.844   6.017   6.014  3.7682  0.3319 -1.8913
  152SAPE   H2Y16772   1.943   6.161   5.990  1.6725  0.4945  3.8944
  152SAPE   C2316773   1.877   5.701   6.148  0.5874  0.3100 -0.1922
  152SAPE   H3R16774   1.953   5.756   6.207  2.9526 -0.3485 -2.4237
  152SAPE   H3S16775   1.854   5.760   6.056 -0.1897 -0.9320 -0.8160
  152SAPE   C2416776   1.911   5.559   6.120  0.7356 -0.2637 -0.3107
  152SAPE   H4R16777   1.822   5.510   6.074  1.0850  0.4278 -1.7529
  152SAPE   H4S16778   1.934   5.509   6.217 -1.4696  1.5462  1.2512
  152SAPE   C2516779   2.030   5.549   6.026  0.0583  0.6042 -0.1781
  152SAPE   H5R16780   2.130   5.559   6.071  0.1407 -3.2789  0.8110
  152SAPE   C2616781   2.035   5.544   5.886  0.3786 -0.3663  0.4589
  152SAPE   H6R16782   2.129   5.541   5.830 -0.6987 -1.4353 -1.4140
  152SAPE   C2716783   1.910   5.530   5.802 -0.1592 -0.3865 -0.3598
  152SAPE   H7R16784   1.872   5.632   5.778 -0.3649 -0.0895  1.0924
  152SAPE   H7S16785   1.828   5.483   5.861  0.7853 -0.3169  1.0796
  152SAPE   C2816786   1.927   5.451   5.671 -0.8557  0.6641 -0.4699
  152SAPE   H8R16787   1.895   5.345   5.675 -0.3822  0.5366  0.0006
  152SAPE   C2916788   1.953   5.511   5.556 -0.9853 -0.3451 -0.1809
  152SAPE   H9R16789   1.965   5.440   5.472  2.9908  0.0953 -0.2059
  152SAPE  C21016790   1.987   5.658   5.522 -0.0547  0.4185 -0.0283
  152SAPE  H10R16791   1.989   5.719   5.615  1.1817 -0.7031  0.7123
  152SAPE  H10S16792   1.908   5.687   5.450 -1.5312 -2.0657  0.4586
  152SAPE  C21116793   2.126   5.663   5.465  0.0676  0.2799  0.7877
  152SAPE  H11R16794   2.202   5.685   5.541  1.4321  3.5942 -1.3067
  152SAPE  C21216795   2.163   5.655   5.338 -0.0407  0.6048 -0.3086
  152SAPE  H12R16796   2.271   5.658   5.319  0.5548 -0.8527  2.3469
  152SAPE  C21316797   2.090   5.616   5.213 -0.9236 -0.5602  0.1945
  152SAPE  H13R16798   2.145   5.656   5.126 -0.6240 -0.6618  0.3374
  152SAPE  H13S16799   1.990   5.665   5.219 -0.3315  0.5965  1.0805
  152SAPE  C21416800   2.072   5.471   5.190 -0.7980 -0.5400  0.3828
  152SAPE  H14R16801   2.116   5.402   5.263  0.8715  0.0597 -0.0097
  152SAPE  C21516802   2.007   5.431   5.085  0.0712  0.1356 -0.1301
  152SAPE  H15R16803   2.017   5.324   5.060  2.5322  0.8599 -2.7454
  152SAPE  C21616804   1.937   5.513   4.979  0.2632  0.2597 -0.4370
  152SAPE  H16R16805   1.925   5.620   5.007 -0.0618 -0.1764  1.1994
  152SAPE  H16S16806   1.836   5.468   4.974 -0.6961  1.6817  2.8625
  152SAPE  C21716807   2.010   5.508   4.838 -0.3343 -0.1727  0.0135
  152SAPE  H17R16808   1.957   5.561   4.756  2.1530  1.8220 -0.3962
  152SAPE  H17S16809   2.010   5.399   4.815  1.4842 -0.1306 -0.3368
  152SAPE  C21816810   2.158   5.558   4.841 -0.7216 -0.6569 -0.0052
  152SAPE  H18R16811   2.203   5.544   4.942 -1.2398  0.9714  0.4912
  152SAPE  H18S16812   2.149   5.663   4.805 -0.7454 -0.7455 -0.2560
  152SAPE  C21916813   2.259   5.492   4.744 -0.3856  0.7500  0.5425
  152SAPE  H19R16814   2.256   5.385   4.773 -3.4019  0.8879  1.0529
  152SAPE  H19S16815   2.360   5.535   4.764  0.2909 -1.1427  1.3895
  152SAPE  C22016816   2.233   5.516   4.598 -0.2818 -0.0363 -0.5778
  152SAPE  H20R16817   2.302   5.444   4.549 -0.4539 -2.1326  2.0302
  152SAPE  H20S16818   2.250   5.621   4.565 -0.1769  0.5492  1.2276
  152SAPE  H20T16819   2.131   5.482   4.571  0.3370 -0.9963 -1.8296
  152SAPE   C3316820   1.738   6.198   5.933  0.7527 -0.0848 -0.4236
  152SAPE   H3X16821   1.732   6.307   5.953  0.1368 -0.0464 -0.8096
  152SAPE   H3Y16822   1.643   6.154   5.972  1.1808 -0.8984 -0.2668
  152SAPE   C3416823   1.755   6.170   5.782  0.2700 -0.1069  0.5073
  152SAPE   H4X16824   1.844   6.232   5.763 -0.0294  0.3416  0.5609
  152SAPE   H4Y16825   1.669   6.208   5.723 -0.1170 -0.2325  0.9766
  152SAPE   C3516826   1.777   6.016   5.745  0.3854  0.0414 -1.1095
  152SAPE   H5X16827   1.710   5.959   5.812  0.9730 -0.8323 -1.2578
  152SAPE   H5Y16828   1.882   5.984   5.761  0.0594 -1.4175 -1.7343
  152SAPE   C3616829   1.745   5.978   5.603 -0.0559 -0.5011  0.1082
  152SAPE   H6X16830   1.634   5.978   5.595 -0.0624  0.1525  0.1535
  152SAPE   H6Y16831   1.773   5.871   5.595  1.7225 -0.0995  0.6893
  152SAPE   C3716832   1.819   6.068   5.505  0.2820 -0.2517  1.2561
  152SAPE   H7X16833   1.928   6.056   5.521  0.8929  1.0806 -1.3049
  152SAPE   H7Y16834   1.802   6.178   5.509  1.9540  0.2269 -1.7988
  152SAPE   C3816835   1.788   6.035   5.358  0.0500  0.0047  0.0905
  152SAPE   H8X16836   1.694   6.084   5.325  0.7354  0.8144 -0.7205
  152SAPE   H8Y16837   1.786   5.925   5.345 -2.3736  0.0951 -0.7209
  152SAPE   C3916838   1.895   6.066   5.265 -0.4031  0.4384 -0.5393
  152SAPE   H9X16839   1.991   6.030   5.306 -2.0507 -1.6224  1.7950
  152SAPE   H9Y16840   1.899   6.174   5.238  1.4720  0.6262  0.3332
  152SAPE  C31016841   1.871   5.985   5.135 -0.2472  0.5226  0.3481
  152SAPE  H10X16842   1.773   6.014   5.092 -0.3957  0.9484  0.9536
  152SAPE  H10Y16843   1.852   5.879   5.160 -0.2847  0.4308 -0.0724
  152SAPE  C31116844   1.987   6.014   5.034  0.0490 -0.1836 -0.6097
  152SAPE  H11X16845   2.091   5.975   5.043  0.1519 -0.0071 -0.9863
  152SAPE  H11Y16846   1.989   6.125   5.035 -2.8504 -0.0495  1.1175
  152SAPE  C31216847   1.950   5.973   4.889 -0.6832 -0.5205  0.2654
  152SAPE  H12X16848   1.879   6.052   4.857 -0.3476 -0.4582 -0.3340
  152SAPE  H12Y16849   1.895   5.877   4.903 -0.3529 -0.6078  1.0052
  152SAPE  C31316850   2.057   5.965   4.771  0.4214 -0.7105 -0.1486
  152SAPE  H13X16851   2.128   5.886   4.804  0.4660 -0.6377 -0.0685
  152SAPE  H13Y16852   2.123   6.055   4.778  2.1774 -2.0176  1.0105
  152SAPE  C31416853   1.995   5.928   4.638 -0.4545 -0.7209 -0.2694
  152SAPE  H14X16854   1.910   5.995   4.615 -2.0873 -2.2652  0.9648
  152SAPE  H14Y16855   1.947   5.828   4.643  1.2825 -1.6486 -1.3479
  152SAPE  C31516856   2.095   5.928   4.526  0.7622 -0.1007 -0.2764
  152SAPE  H15X16857   2.174   5.855   4.553  1.2555  0.2119 -0.8539
  152SAPE  H15Y16858   2.147   6.025   4.513 -2.0015  1.3788 -1.0759
  152SAPE  C31616859   2.036   5.875   4.390  0.4727 -0.0679  0.0855
  152SAPE  H16X16860   2.116   5.886   4.315  0.1961  2.2239  0.0781
  152SAPE  H16Y16861   1.950   5.932   4.348 -1.1610 -3.9961 -2.5250
  152SAPE  C31716862   1.984   5.732   4.405 -0.5136 -0.9297 -0.0006
  152SAPE  H17X16863   1.886   5.728   4.458 -0.2138  1.3310  0.8679
  152SAPE  H17Y16864   2.064   5.676   4.457 -0.1858 -0.1474  0.3645
  152SAPE  C31816865   1.975   5.661   4.262  0.8746 -0.3631 -0.7584
  152SAPE  H18X16866   2.072   5.628   4.218 -0.2171 -0.4903 -3.2407
  152SAPE  H18Y16867   1.947   5.732   4.182  0.0028 -1.5497 -1.5491
  152SAPE  H18Z16868   1.898   5.581   4.268 -0.2782  0.7889  0.6402
  153SAPE     N16869   1.006   5.675   6.472 -0.2405 -0.3744 -0.1947
  153SAPE   HN116870   0.984   5.576   6.497  3.4184 -0.7143  2.4719
  153SAPE   HN216871   1.108   5.691   6.478 -0.3070 -0.4246  1.7041
  153SAPE   HN316872   0.951   5.744   6.528 -0.8368  1.0504 -2.4027
  153SAPE   C1216873   0.966   5.697   6.333 -0.0467  0.2967  0.1436
  153SAPE  H12A16874   0.869   5.646   6.316  0.4388 -0.3351 -0.8037
  153SAPE  H12B16875   1.047   5.661   6.265  0.9376  0.3445  1.2551
  153SAPE   C1116876   0.941   5.850   6.321 -0.1644 -0.9734 -0.4272
  153SAPE  H11A16877   0.856   5.879   6.387 -0.8072  1.8152 -2.2976
  153SAPE  H11B16878   0.903   5.884   6.222  0.3986  0.5573 -0.1445
  153SAPE     P16879   1.085   6.071   6.315 -0.1592 -0.3019  0.0708
  153SAPE   O1316880   0.963   6.150   6.305 -0.7851  0.8225 -0.5352
  153SAPE   O1416881   1.199   6.127   6.399  0.1429 -0.3785 -0.1006
  153SAPE   O1216882   1.048   5.932   6.374  0.0942  0.4751 -0.0895
  153SAPE   O1116883   1.146   6.032   6.177 -0.8594 -0.2248  0.5246
  153SAPE    C116884   1.162   6.121   6.066 -0.1167 -0.1843  0.1015
  153SAPE    HA16885   1.213   6.215   6.098  0.9844 -0.7625  0.0998
  153SAPE    HB16886   1.235   6.084   5.991  0.7901  1.6223  0.0292
  153SAPE    C216887   1.025   6.142   5.990 -0.0476 -0.7465  0.3817
  153SAPE    HS16888   0.947   6.181   6.059  1.1880 -0.2846  1.5404
  153SAPE   O2116889   0.979   6.014   5.935 -0.1677 -0.2660 -0.2157
  153SAPE   C2116890   0.850   5.973   5.945  0.3341 -0.2796  0.6712
  153SAPE   O2216891   0.755   6.044   5.977  0.1351  0.6378  0.4869
  153SAPE   C2216892   0.844   5.820   5.900 -1.3652  0.6347  0.5808
  153SAPE   H2R16893   0.946   5.777   5.911 -2.1786 -1.0412  2.1298
  153SAPE   H2S16894   0.777   5.768   5.972  1.7369 -1.9548  1.8411
  153SAPE    C316895   1.036   6.255   5.878 -0.0817 -0.1427  0.6512
  153SAPE    HX16896   1.102   6.218   5.797  0.7470 -2.2883  2.2182
  153SAPE    HY16897   1.079   6.350   5.917 -0.0900 -0.1963  0.7901
  153SAPE   O3116898   0.912   6.299   5.821  0.3996  0.3623  0.1954
  153SAPE   C3116899   0.828   6.372   5.893  0.5942  0.4873  0.7283
  153SAPE   O3216900   0.847   6.403   6.011 -0.2676  0.5085 -0.4002
  153SAPE   C3216901   0.707   6.408   5.810  0.4626  0.0698 -0.8775
  153SAPE   H2X16902   0.644   6.318   5.826  1.5210 -0.3372  1.4462
  153SAPE   H2Y16903   0.731   6.410   5.701  0.6810 -1.3507 -0.8775
  153SAPE   C2316904   0.775   5.804   5.759  0.9153  0.2900  0.2603
  153SAPE   H3R16905   0.668   5.830   5.773  0.2967 -2.9974  2.7841
  153SAPE   H3S16906   0.769   5.695   5.741 -0.6001  0.5664 -1.0918
  153SAPE   C2416907   0.856   5.872   5.649 -0.8331  0.0974  0.2861
  153SAPE   H4R16908   0.850   5.982   5.663  3.0846  0.5999 -0.6599
  153SAPE   H4S16909   0.816   5.854   5.546 -1.7922 -2.3087  1.0171
  153SAPE   C2516910   1.005   5.839   5.646 -0.2149 -0.2346  0.4707
  153SAPE   H5R16911   1.069   5.922   5.680  0.1841 -0.5529  0.5130
  153SAPE   C2616912   1.068   5.733   5.595  0.7288  0.0637  0.0800
  153SAPE   H6R16913   1.178   5.736   5.599  0.7406  2.1299 -0.6028
  153SAPE   C2716914   0.999   5.615   5.530 -0.3862  1.0840  0.6931
  153SAPE   H7R16915   1.025   5.602   5.423 -2.1533  2.3601  0.0626
  153SAPE   H7S16916   0.892   5.643   5.520 -0.3736  0.7412 -0.5413
  153SAPE   C2816917   1.019   5.483   5.602 -0.0404 -0.4642  0.7255
  153SAPE   H8R16918   0.947   5.463   5.683  0.4849 -1.7357  0.9030
  153SAPE   C2916919   1.113   5.391   5.571 -0.1695  0.6223 -0.6991
  153SAPE   H9R16920   1.109   5.301   5.634  0.6282  2.1036  1.5861
  153SAPE  C21016921   1.227   5.388   5.467 -0.3226 -0.0472 -0.2497
  153SAPE  H10R16922   1.213   5.471   5.395  0.4398  1.2309  1.0303
  153SAPE  H10S16923   1.200   5.307   5.395  2.6183 -0.6788 -0.7555
  153SAPE  C21116924   1.367   5.372   5.533  0.2809  0.1557 -0.2132
  153SAPE  H11R16925   1.368   5.357   5.642  1.8401 -0.9591 -0.3376
  153SAPE  C21216926   1.489   5.372   5.470  0.5906  0.0319 -0.3389
  153SAPE  H12R16927   1.578   5.372   5.534  0.6552  0.4317 -0.4294
  153SAPE  C21316928   1.503   5.380   5.322  0.0414  0.1379 -0.2237
  153SAPE  H13R16929   1.432   5.456   5.283  0.0284  0.7801  1.0125
  153SAPE  H13S16930   1.484   5.288   5.263  1.3819 -1.7258  2.0742
  153SAPE  C21416931   1.648   5.418   5.287  0.5947  0.3204 -0.1289
  153SAPE  H14R16932   1.715   5.342   5.244  0.5511 -1.0535  2.0795
  153SAPE  C21516933   1.690   5.551   5.279  0.3451 -0.1286  0.3671
  153SAPE  H15R16934   1.789   5.575   5.239  0.3742 -1.1783 -0.2311
  153SAPE  C21616935   1.616   5.679   5.313  0.4432 -0.1872  0.0180
  153SAPE  H16R16936   1.689   5.742   5.369  0.7161 -0.3647 -0.1387
  153SAPE  H16S16937   1.528   5.656   5.377  0.8432 -0.9344  0.3156
  153SAPE  C21716938   1.563   5.760   5.196  1.2281 -0.6704 -0.8672
  153SAPE  H17R16939   1.648   5.780   5.127  1.3400  0.2861 -0.4703
  153SAPE  H17S16940   1.525   5.859   5.228  0.3766 -1.7679  1.7753
  153SAPE  C21816941   1.445   5.691   5.125  0.1732  0.2580  0.6945
  153SAPE  H18R16942   1.480   5.589   5.101  1.3600  0.2151  2.4253
  153SAPE  H18S16943   1.422   5.740   5.028 -1.8164 -1.3425  0.2911
  153SAPE  C21916944   1.315   5.682   5.200 -0.1324 -0.1258  0.5277
  153SAPE  H19R16945   1.283   5.781   5.237  3.9645  1.4053  0.5263
  153SAPE  H19S16946   1.331   5.623   5.293  1.1846  2.0315  1.7630
  153SAPE  C22016947   1.202   5.618   5.113  0.0036  0.4195  0.1128
  153SAPE  H20R16948   1.101   5.609   5.158 -0.7997 -0.0927 -1.7073
  153SAPE  H20S16949   1.242   5.518   5.085  0.0021  0.4983 -0.1740
  153SAPE  H20T16950   1.196   5.679   5.020  0.2664  1.1643  0.5698
  153SAPE   C3316951   0.634   6.531   5.863 -0.4512  0.3204 -0.0678
  153SAPE   H3X16952   0.695   6.621   5.840 -0.3559 -0.2981 -2.5502
  153SAPE   H3Y16953   0.631   6.527   5.974  2.1859 -1.7241  0.0111
  153SAPE   C3416954   0.498   6.560   5.804  0.3315 -0.3207  0.4020
  153SAPE   H4X16955   0.448   6.618   5.885  2.6325  0.3640  1.4169
  153SAPE   H4Y16956   0.442   6.465   5.789  0.4085 -0.3535  0.3158
  153SAPE   C3516957   0.492   6.642   5.671 -0.4547 -0.2424  0.4096
  153SAPE   H5X16958   0.598   6.659   5.642  0.5897 -1.8632  2.8641
  153SAPE   H5Y16959   0.446   6.740   5.698 -0.2654  0.2585 -1.0243
  153SAPE   C3616960   0.427   6.567   5.555  0.2839  0.4752  0.2498
  153SAPE   H6X16961   0.325   6.550   5.594  0.8604 -1.2920  1.0971
  153SAPE   H6Y16962   0.470   6.465   5.548 -1.7320 -0.6230  2.4741
  153SAPE   C3716963   0.419   6.645   5.427  0.6552 -0.1684  0.6365
  153SAPE   H7X16964   0.515   6.701   5.429  0.7133 -0.2355  3.1198
  153SAPE   H7Y16965   0.351   6.726   5.461  1.0495  0.4214  0.0406
  153SAPE   C3816966   0.365   6.577   5.300  0.1266 -0.3777 -0.8774
  153SAPE   H8X16967   0.356   6.660   5.225  1.0976  1.4101  0.8877
  153SAPE   H8Y16968   0.261   6.547   5.327  0.2574  0.4237  0.6049
  153SAPE   C3916969   0.443   6.466   5.247 -0.1981  1.0274  0.3452
  153SAPE   H9X16970   0.427   6.367   5.295 -0.2817 -0.5813 -2.6865
  153SAPE   H9Y16971   0.553   6.485   5.247  0.1381 -0.3956 -2.4779
  153SAPE  C31016972   0.404   6.441   5.097  0.4659 -0.1902  0.4221
  153SAPE  H10X16973   0.472   6.366   5.053  0.2089 -0.1464 -0.0648
  153SAPE  H10Y16974   0.422   6.541   5.052  0.7544 -0.9733 -1.2698
  153SAPE  C31116975   0.259   6.395   5.081 -0.2920 -0.7234 -0.0874
  153SAPE  H11X16976   0.217   6.415   4.980  1.2815 -2.1397 -1.0668
  153SAPE  H11Y16977   0.191   6.456   5.144  1.7529 -0.3704  1.9170
  153SAPE  C31216978   0.225   6.250   5.110  0.0119 -0.2229 -0.7557
  153SAPE  H12X16979   0.115   6.251   5.127  0.3444  1.8118  1.9293
  153SAPE  H12Y16980   0.290   6.227   5.197  2.4017  0.5389 -2.2343
  153SAPE  C31316981   0.249   6.158   4.988  0.6049 -0.4369  0.2002
  153SAPE  H13X16982   0.354   6.175   4.955  0.0651 -0.1943 -1.4824
  153SAPE  H13Y16983   0.173   6.187   4.913 -1.4783 -0.0595  2.3202
  153SAPE  C31416984   0.234   6.009   5.028  0.8540  0.2384 -0.1679
  153SAPE  H14X16985   0.140   5.995   5.085  2.8836 -2.8661  2.7930
  153SAPE  H14Y16986   0.320   5.969   5.086  0.1794 -1.8452 -0.5119
  153SAPE  C31516987   0.213   5.919   4.903  0.0138  0.3417 -0.0718
  153SAPE  H15X16988   0.308   5.862   4.899 -0.8599 -1.5390  2.8399
  153SAPE  H15Y16989   0.199   5.980   4.812  1.9875  1.4660  0.3253
  153SAPE  C31616990   0.091   5.827   4.901  0.2850  0.1232  0.1904
  153SAPE  H16X16991  -0.006   5.880   4.898  0.2896  0.0836 -1.0095
  153SAPE  H16Y16992   0.100   5.773   4.997 -2.9048 -2.9415 -1.0600
  153SAPE  C31716993   0.090   5.721   4.794  0.0122  0.1956  0.3425
  153SAPE  H17X16994   0.002   5.654   4.798 -0.6961  1.0742 -0.2733
  153SAPE  H17Y16995   0.183   5.659   4.800  0.7211  1.1629 -0.4010
  153SAPE  C31816996   0.081   5.785   4.657 -0.5783 -0.3908 -0.2990
  153SAPE  H18X16997   0.180   5.815   4.618 -1.0037  0.6958 -0.5785
  153SAPE  H18Y16998   0.027   5.882   4.668  0.5337  0.0271  2.4606
  153SAPE  H18Z16999   0.030   5.727   4.577 -1.1283 -0.6497  0.2294
  154SAPE     N17000   6.845   4.724   6.641  0.1054  0.4329 -0.4075
  154SAPE   HN117001   6.878   4.763   6.731 -0.4032 -0.8326  0.3574
  154SAPE   HN217002   6.876   4.625   6.644  0.7909  0.6541  0.3252
  154SAPE   HN317003   6.887   4.759   6.553  0.1094  1.3471 -0.0503
  154SAPE   C1217004   6.698   4.717   6.638  0.3611 -1.3536 -0.6197
  154SAPE  H12A17005   6.655   4.817   6.618 -0.7683 -1.8508 -0.7191
  154SAPE  H12B17006   6.667   4.682   6.739  0.7412  0.8590  0.3216
  154SAPE   C1117007   6.647   4.625   6.527 -0.5788 -0.0618  0.7372
  154SAPE  H11A17008   6.684   4.653   6.426 -1.5727 -2.3968 -0.3473
  154SAPE  H11B17009   6.536   4.634   6.522 -0.4291  2.2557  0.7150
  154SAPE     P17010   6.790   4.406   6.511  0.3005  0.0137 -0.4664
  154SAPE   O1317011   6.911   4.478   6.550 -0.1319  0.0095 -0.6886
  154SAPE   O1417012   6.778   4.269   6.574 -0.2469 -0.4256 -0.2309
  154SAPE   O1217013   6.673   4.485   6.561  0.2029  0.0955  0.0567
  154SAPE   O1117014   6.770   4.418   6.362  0.4316 -0.3489  0.3049
  154SAPE    C117015   6.645   4.370   6.312 -0.0074 -0.0115 -0.0713
  154SAPE    HA17016   6.555   4.387   6.374 -1.9734  0.6144 -2.9066
  154SAPE    HB17017   6.625   4.426   6.218 -0.0044 -0.8205 -0.5650
  154SAPE    C217018   6.665   4.221   6.267  0.1995  0.3521  0.7714
  154SAPE    HS17019   6.700   4.164   6.356 -0.2853 -0.3622  0.5154
  154SAPE   O2117020   6.752   4.222   6.162  0.0468  0.0977  0.6774
  154SAPE   C2117021   6.784   4.109   6.089 -0.0786 -0.2877  0.2823
  154SAPE   O2217022   6.757   3.999   6.127  0.0988  0.4984  0.4168
  154SAPE   C2217023   6.863   4.155   5.969  0.3605  0.4669 -0.2020
  154SAPE   H2R17024   6.882   4.265   5.965  0.4203  0.4346 -0.7816
  154SAPE   H2S17025   6.964   4.111   5.983  0.5552  0.6785 -0.8987
  154SAPE    C317026   6.527   4.155   6.224 -0.0835  0.3791  0.4497
  154SAPE    HX17027   6.471   4.175   6.318  1.8034 -0.6180  1.8717
  154SAPE    HY17028   6.525   4.047   6.201 -1.6993  0.7194 -1.1743
  154SAPE   O3117029   6.469   4.227   6.108  0.0383  0.0272 -0.2510
  154SAPE   C3117030   6.345   4.193   6.089 -0.3022  0.5984 -0.2655
  154SAPE   O3217031   6.280   4.119   6.157 -0.0942  0.3367 -0.0590
  154SAPE   C3217032   6.292   4.256   5.959 -0.5828  0.3524 -0.3050
  154SAPE   H2X17033   6.379   4.289   5.898  0.7545 -2.4748 -0.1309
  154SAPE   H2Y17034   6.240   4.351   5.984  3.5351  2.3567  1.5701
  154SAPE   C2317035   6.814   4.113   5.835 -0.2201  0.1000 -0.5361
  154SAPE   H3R17036   6.714   4.151   5.805  0.7560  2.2334 -1.3035
  154SAPE   H3S17037   6.826   4.003   5.835 -1.0046  0.0065  0.1867
  154SAPE   C2417038   6.919   4.145   5.727 -0.0754  0.0801 -0.4209
  154SAPE   H4R17039   7.014   4.089   5.738 -0.0622  0.3142  0.6903
  154SAPE   H4S17040   6.953   4.250   5.739 -0.8307  0.0442  2.7060
  154SAPE   C2517041   6.873   4.105   5.588  0.3200  0.2628  0.2543
  154SAPE   H5R17042   6.901   4.001   5.568  2.5256  0.4993  1.8130
  154SAPE   C2617043   6.793   4.181   5.497 -0.3043 -0.1029 -1.0119
  154SAPE   H6R17044   6.776   4.151   5.393  1.8234  0.7631 -1.6644
  154SAPE   C2717045   6.763   4.331   5.511 -0.1093 -0.0555 -0.6434
  154SAPE   H7R17046   6.862   4.381   5.509 -0.7810  1.2980 -0.6932
  154SAPE   H7S17047   6.718   4.351   5.611  0.3886 -2.1685  0.0598
  154SAPE   C2817048   6.668   4.375   5.391  0.1347 -0.4791 -0.0940
  154SAPE   H8R17049   6.564   4.402   5.415  0.5248  1.0024 -0.0048
  154SAPE   C2917050   6.705   4.378   5.260 -0.6633 -0.9037  0.1726
  154SAPE   H9R17051   6.637   4.409   5.179  1.3210 -0.6399 -1.4781
  154SAPE  C21017052   6.844   4.353   5.207  0.2563 -0.3534  0.1292
  154SAPE  H10R17053   6.841   4.254   5.158 -1.1919 -1.0475  1.5199
  154SAPE  H10S17054   6.922   4.351   5.286  0.8556  1.5817 -0.3383
  154SAPE  C21117055   6.888   4.448   5.097  0.3136  0.1282  0.0940
  154SAPE  H11R17056   6.817   4.526   5.066  0.1715  0.3772  1.0312
  154SAPE  C21217057   7.002   4.434   5.028 -0.9004  0.2282 -0.4417
  154SAPE  H12R17058   7.032   4.511   4.956 -1.2969  0.3152 -0.5174
  154SAPE  C21317059   7.113   4.341   5.069  0.0405  0.0502  0.0992
  154SAPE  H13R17060   7.156   4.302   4.974 -3.2118  0.8174 -1.8593
  154SAPE  H13S17061   7.081   4.256   5.132  0.9936 -1.9238 -1.9217
  154SAPE  C21417062   7.213   4.429   5.146  0.6143  0.8496  0.6685
  154SAPE  H14R17063   7.186   4.427   5.253 -1.0615 -3.1441  0.3541
  154SAPE  C21517064   7.316   4.504   5.096 -0.0313  0.1916  0.4440
  154SAPE  H15R17065   7.376   4.560   5.169 -0.5099  0.0887  0.9258
  154SAPE  C21617066   7.360   4.522   4.950  0.3282 -0.1213  0.3412
  154SAPE  H16R17067   7.345   4.627   4.916  0.5109 -0.2946 -0.2887
  154SAPE  H16S17068   7.309   4.449   4.883  0.9764 -0.1730 -0.1062
  154SAPE  C21717069   7.511   4.499   4.940  1.1352 -0.7746  0.0007
  154SAPE  H17R17070   7.564   4.572   5.004  0.2630 -0.2604  0.1509
  154SAPE  H17S17071   7.546   4.522   4.837  2.0007 -1.5128  0.1088
  154SAPE  C21817072   7.562   4.352   4.959  1.0639  0.4237 -0.0965
  154SAPE  H18R17073   7.557   4.304   4.859  2.2041  2.4839 -1.2099
  154SAPE  H18S17074   7.501   4.296   5.033  0.3795  2.1858  0.7428
  154SAPE  C21917075   7.698   4.343   5.021  0.2902 -0.3934 -0.0586
  154SAPE  H19R17076   7.742   4.445   5.028 -2.2040  0.7508 -0.0804
  154SAPE  H19S17077   7.765   4.294   4.947 -0.3514 -1.2662 -0.0811
  154SAPE  C22017078   7.723   4.264   5.146 -0.0313  0.4264 -0.4004
  154SAPE  H20R17079   7.829   4.269   5.179  0.0177  0.0476 -0.4993
  154SAPE  H20S17080   7.709   4.158   5.116  2.7703 -0.4623  1.1098
  154SAPE  H20T17081   7.653   4.297   5.226  0.2977  1.2855 -0.4520
  154SAPE   C3317082   6.212   4.147   5.889  0.2586 -0.1838  0.1795
  154SAPE   H3X17083   6.129   4.112   5.955 -0.1278 -0.0489 -0.2280
  154SAPE   H3Y17084   6.274   4.055   5.881 -0.2767 -0.6840  1.5027
  154SAPE   C3417085   6.150   4.199   5.753  0.0374  0.1216 -0.0631
  154SAPE   H4X17086   6.236   4.230   5.690  0.6077 -3.4147 -1.2418
  154SAPE   H4Y17087   6.083   4.283   5.778 -1.7828 -0.5421 -2.2919
  154SAPE   C3517088   6.053   4.099   5.688  0.8819 -0.0805 -0.1284
  154SAPE   H5X17089   5.963   4.096   5.752 -0.0371 -0.0937 -1.3811
  154SAPE   H5Y17090   6.083   3.993   5.695 -1.0546 -0.6872 -0.5237
  154SAPE   C3617091   6.005   4.129   5.546 -0.0079 -0.0721 -0.1681
  154SAPE   H6X17092   6.088   4.104   5.476  0.9988 -1.5756  1.4492
  154SAPE   H6Y17093   5.990   4.239   5.539 -1.6772 -0.1537  1.3110
  154SAPE   C3717094   5.887   4.044   5.506 -0.2479 -0.1679 -0.2193
  154SAPE   H7X17095   5.793   4.073   5.556  1.6881  3.1851  1.8805
  154SAPE   H7Y17096   5.904   3.938   5.533 -2.0498 -0.5648 -0.5513
  154SAPE   C3817097   5.870   4.042   5.353  0.0352  0.1821 -0.1329
  154SAPE   H8X17098   5.851   4.147   5.322  0.1619  0.1133 -0.4531
  154SAPE   H8Y17099   5.778   3.981   5.335  1.0735 -1.0899 -1.3964
  154SAPE   C3917100   5.987   3.990   5.264  0.3948 -0.5681 -0.1106
  154SAPE   H9X17101   5.986   3.880   5.274  1.2946 -0.9718 -3.4408
  154SAPE   H9Y17102   6.080   4.031   5.309 -0.0770 -1.5358  1.8900
  154SAPE  C31017103   5.968   4.017   5.113 -0.5184 -0.3891 -0.7011
  154SAPE  H10X17104   5.994   4.122   5.086 -1.9012  0.3285  0.5941
  154SAPE  H10Y17105   5.859   4.002   5.097 -0.7720  0.6919 -0.0931
  154SAPE  C31117106   6.042   3.915   5.028 -0.4348  0.4538 -0.3629
  154SAPE  H11X17107   6.012   3.812   5.058  1.5782 -0.6334 -1.8380
  154SAPE  H11Y17108   6.149   3.932   5.054 -0.1927  1.5301 -1.9021
  154SAPE  C31217109   6.037   3.939   4.883  0.1591  0.4232 -0.6530
  154SAPE  H12X17110   5.935   3.945   4.840  0.3773 -0.5054 -1.3331
  154SAPE  H12Y17111   6.087   3.856   4.829  0.4005 -0.6780  1.1706
  154SAPE  C31317112   6.107   4.072   4.829 -0.0621 -0.0830  0.1308
  154SAPE  H13X17113   6.210   4.085   4.869 -1.3224  2.4389  2.9598
  154SAPE  H13Y17114   6.046   4.157   4.867  1.9883  0.4039  2.6210
  154SAPE  C31417115   6.102   4.060   4.679 -0.4548 -0.3823  0.5377
  154SAPE  H14X17116   6.001   4.085   4.638  1.0867  1.3368 -2.6219
  154SAPE  H14Y17117   6.119   3.956   4.643  0.1340 -0.1138  0.0147
  154SAPE  C31517118   6.207   4.155   4.605 -0.5577  0.2249 -0.0332
  154SAPE  H15X17119   6.216   4.241   4.675  1.0455  1.1230 -1.2641
  154SAPE  H15Y17120   6.168   4.197   4.510 -0.5012  0.7034  0.1524
  154SAPE  C31617121   6.337   4.073   4.574 -0.6344 -0.4781 -0.5319
  154SAPE  H16X17122   6.310   3.996   4.499 -0.9173  0.0034 -0.9275
  154SAPE  H16Y17123   6.366   4.024   4.669 -1.4639 -0.2962 -0.1851
  154SAPE  C31717124   6.454   4.153   4.518 -0.6537  0.0319 -0.5697
  154SAPE  H17X17125   6.468   4.244   4.581  3.6189  0.5043 -1.8505
  154SAPE  H17Y17126   6.421   4.193   4.420  3.8868 -0.2124 -2.4323
  154SAPE  C31817127   6.577   4.069   4.491 -0.2859 -0.2547 -0.2872
  154SAPE  H18X17128   6.587   3.994   4.571 -1.3085  0.4443  0.5277
  154SAPE  H18Y17129   6.673   4.122   4.472  0.0469 -0.7146  0.0987
  154SAPE  H18Z17130   6.558   4.007   4.401 -0.7344  1.5684 -1.5176
  155SAPE     N17131   0.278   4.653   6.159 -0.3217 -0.4990 -0.0660
  155SAPE   HN117132   0.267   4.550   6.162  2.9955 -0.9631  1.0620
  155SAPE   HN217133   0.189   4.689   6.119 -0.4134  0.2746  0.7985
  155SAPE   HN317134   0.360   4.684   6.102  0.4101 -2.0249  0.0964
  155SAPE   C1217135   0.272   4.691   6.304  0.0469 -0.4258 -0.4724
  155SAPE  H12A17136   0.368   4.679   6.358 -1.3245  1.4398  2.7115
  155SAPE  H12B17137   0.192   4.634   6.356  0.1426 -1.3833 -1.3506
  155SAPE   C1117138   0.239   4.844   6.310  0.1579  0.3537 -0.2626
  155SAPE  H11A17139   0.308   4.906   6.248  0.0163 -1.4078 -2.2754
  155SAPE  H11B17140   0.253   4.868   6.418  0.3009  0.9604 -0.4087
  155SAPE     P17141  -0.025   4.917   6.323 -0.2715  0.0465 -0.0843
  155SAPE   O1317142  -0.105   4.806   6.386  0.1453  0.4728  0.1286
  155SAPE   O1417143   0.012   5.033   6.410 -0.0889 -0.1531  0.5890
  155SAPE   O1217144   0.106   4.864   6.261  0.5968  0.2398  0.1358
  155SAPE   O1117145  -0.106   4.972   6.202  0.1326  0.2911 -0.2020
  155SAPE    C117146  -0.086   5.086   6.125 -0.2022  0.4283 -0.5496
  155SAPE    HA17147  -0.172   5.157   6.133  0.4672  1.5127 -2.3705
  155SAPE    HB17148   0.008   5.142   6.147 -0.9180  1.9253 -1.1643
  155SAPE    C217149  -0.060   5.039   5.977  0.4096  0.2766 -0.0675
  155SAPE    HS17150   0.022   4.964   5.974 -0.0240 -0.2059  0.0248
  155SAPE   O2117151  -0.028   5.154   5.903  0.0836  0.5361  0.2229
  155SAPE   C2117152   0.034   5.134   5.792  0.3513  0.1670 -0.0253
  155SAPE   O2217153   0.090   5.033   5.754 -0.2257  0.1109  0.8281
  155SAPE   C2217154   0.030   5.262   5.706  0.7417  0.5050 -0.1339
  155SAPE   H2R17155   0.045   5.345   5.779  0.3868 -0.0637  0.5973
  155SAPE   H2S17156   0.119   5.276   5.641  0.1350  0.8218 -0.9136
  155SAPE    C317157  -0.189   4.971   5.920  0.2373  1.0231 -0.1283
  155SAPE    HX17158  -0.276   5.040   5.931 -1.0100 -0.2641 -1.5327
  155SAPE    HY17159  -0.208   4.880   5.981  1.7069  1.3296  0.8416
  155SAPE   O3117160  -0.185   4.942   5.785 -0.6666 -0.2889  0.1853
  155SAPE   C3117161  -0.164   4.815   5.745  0.0575 -0.7408  0.2939
  155SAPE   O3217162  -0.172   4.717   5.820  0.0530 -0.1806  0.1336
  155SAPE   C3217163  -0.140   4.810   5.593 -0.5896 -0.3364 -0.1010
  155SAPE   H2X17164  -0.077   4.720   5.580 -0.5768 -0.1312 -1.6822
  155SAPE   H2Y17165  -0.080   4.900   5.568 -0.2396 -0.5965 -0.2066
  155SAPE   C2317166  -0.097   5.277   5.630  0.4706  0.4761  0.6384
  155SAPE   H3R17167  -0.096   5.387   5.612 -1.3957  0.2583 -1.2465
  155SAPE   H3S17168  -0.188   5.232   5.674 -0.2258 -2.3256 -3.1141
  155SAPE   C2417169  -0.094   5.218   5.489 -0.0873  0.4643 -0.9528
  155SAPE   H4R17170  -0.055   5.114   5.497 -0.4420  0.2178 -2.2707
  155SAPE   H4S17171  -0.019   5.257   5.417  0.1404  0.5232 -0.6841
  155SAPE   C2517172  -0.233   5.219   5.438 -0.3884 -0.3417 -0.3246
  155SAPE   H5R17173  -0.303   5.140   5.470 -1.2545  0.8913  0.9339
  155SAPE   C2617174  -0.280   5.306   5.343  0.0806 -0.1969  0.1611
  155SAPE   H6R17175  -0.389   5.312   5.326  0.2095 -0.1363 -0.7012
  155SAPE   C2717176  -0.202   5.418   5.265  0.0661  0.3773 -0.9701
  155SAPE   H7R17177  -0.125   5.460   5.333 -0.0484  0.2659 -0.7706
  155SAPE   H7S17178  -0.269   5.503   5.242  0.0711  0.7182  0.2018
  155SAPE   C2817179  -0.156   5.355   5.143  0.2373 -0.3838 -0.0074
  155SAPE   H8R17180  -0.240   5.328   5.077 -0.6019  2.0661 -0.0636
  155SAPE   C2917181  -0.037   5.332   5.095 -0.1382 -0.3369 -0.7728
  155SAPE   H9R17182  -0.033   5.275   5.001 -0.2535  0.2076 -1.1099
  155SAPE  C21017183   0.098   5.373   5.159  0.7438 -0.3719 -0.0279
  155SAPE  H10R17184   0.149   5.275   5.173  1.4794  0.0909  0.5979
  155SAPE  H10S17185   0.088   5.412   5.263  1.2867 -1.5095  0.4715
  155SAPE  C21117186   0.176   5.463   5.070 -0.0909 -0.2241 -0.7495
  155SAPE  H11R17187   0.163   5.570   5.092  0.9323 -0.3917  0.8452
  155SAPE  C21217188   0.265   5.413   4.980 -0.1922 -0.5324 -1.0377
  155SAPE  H12R17189   0.339   5.484   4.940  0.4989 -0.7846 -0.2226
  155SAPE  C21317190   0.303   5.269   4.957 -0.4402 -0.0440  0.0008
  155SAPE  H13R17191   0.290   5.232   4.853 -1.4717 -2.5427  0.9288
  155SAPE  H13S17192   0.247   5.196   5.020 -0.8098 -0.5083 -0.8365
  155SAPE  C21417193   0.452   5.262   4.971  0.2255 -0.0583 -0.3811
  155SAPE  H14R17194   0.506   5.357   4.963  0.2360 -0.1775 -1.9003
  155SAPE  C21517195   0.511   5.141   4.988 -0.1095  0.4865 -0.3860
  155SAPE  H15R17196   0.618   5.131   5.010  0.0686 -1.2417 -1.8611
  155SAPE  C21617197   0.448   5.006   4.985  0.1276 -0.3329 -0.2209
  155SAPE  H16R17198   0.340   5.000   5.010  0.1123 -0.3064 -0.2801
  155SAPE  H16S17199   0.510   4.949   5.058  1.3069 -0.5378 -1.3431
  155SAPE  C21717200   0.466   4.923   4.853 -0.4045  0.3544  0.0526
  155SAPE  H17R17201   0.423   4.822   4.869 -0.9544  0.4953 -0.4544
  155SAPE  H17S17202   0.574   4.900   4.845 -0.6575 -0.8097 -0.1448
  155SAPE  C21817203   0.407   4.982   4.715  0.3122 -0.4074 -0.3932
  155SAPE  H18R17204   0.461   5.073   4.680  0.3415  0.6856  2.2517
  155SAPE  H18S17205   0.305   5.020   4.736  1.7319  2.1495  2.6904
  155SAPE  C21917206   0.414   4.887   4.592  0.2631  0.5172 -0.8429
  155SAPE  H19R17207   0.508   4.829   4.596 -0.7791 -1.1702  2.2585
  155SAPE  H19S17208   0.408   4.951   4.501 -3.3675  0.8090 -0.5379
  155SAPE  C22017209   0.299   4.788   4.591 -1.2464 -0.5630 -0.7962
  155SAPE  H20R17210   0.318   4.706   4.518  0.5516 -2.2057  1.3955
  155SAPE  H20S17211   0.202   4.840   4.579 -1.2133 -0.0279  1.0396
  155SAPE  H20T17212   0.293   4.735   4.688 -1.2142  2.1040  0.7558
  155SAPE   C3317213  -0.272   4.802   5.508  0.3640 -0.5350 -0.0964
  155SAPE   H3X17214  -0.331   4.893   5.531  1.9523  0.4851  0.1111
  155SAPE   H3Y17215  -0.332   4.714   5.540 -1.6122  0.1955 -1.6130
  155SAPE   C3417216  -0.223   4.787   5.365 -0.0318  0.0749  0.5035
  155SAPE   H4X17217  -0.192   4.680   5.369  1.5327  0.4101 -1.1667
  155SAPE   H4Y17218  -0.123   4.833   5.351  0.1326 -0.6089 -0.7047
  155SAPE   C3517219  -0.324   4.796   5.254  0.0530 -0.1827 -0.2904
  155SAPE   H5X17220  -0.414   4.733   5.274  0.3957 -1.6600 -2.9084
  155SAPE   H5Y17221  -0.281   4.743   5.167  2.4057  2.8358 -1.0966
  155SAPE   C3617222  -0.364   4.945   5.224  0.2075 -0.6253 -0.2832
  155SAPE   H6X17223  -0.267   4.998   5.209 -0.7488  0.9065 -1.3197
  155SAPE   H6Y17224  -0.420   4.993   5.307  0.7166 -1.8710  0.8165
  155SAPE   C3717225  -0.449   4.953   5.094 -0.1933 -0.8036 -0.0712
  155SAPE   H7X17226  -0.526   4.873   5.096 -0.3820 -0.8329 -3.3008
  155SAPE   H7Y17227  -0.383   4.920   5.011 -1.1164  1.1863 -1.6986
  155SAPE   C3817228  -0.514   5.092   5.052  0.0732 -0.0791  0.3349
  155SAPE   H8X17229  -0.441   5.175   5.064  0.2880 -0.5414  2.7911
  155SAPE   H8Y17230  -0.601   5.109   5.118 -0.8206  0.8596 -1.0463
  155SAPE   C3917231  -0.585   5.084   4.923 -0.8697 -0.2662 -0.4861
  155SAPE   H9X17232  -0.653   4.996   4.927  0.7325 -1.4887  1.8780
  155SAPE   H9Y17233  -0.510   5.071   4.841  0.9337  2.0563  0.6766
  155SAPE  C31017234  -0.673   5.206   4.877 -0.3333  0.6975 -0.2878
  155SAPE  H10X17235  -0.772   5.213   4.926 -0.8062 -1.3076 -0.8899
  155SAPE  H10Y17236  -0.700   5.185   4.772 -3.2140 -3.1908  1.0095
  155SAPE  C31117237  -0.603   5.338   4.916  0.5996  0.7512 -0.3338
  155SAPE  H11X17238  -0.597   5.335   5.027  0.9282  1.4785 -0.3269
  155SAPE  H11Y17239  -0.663   5.427   4.888 -0.3789 -0.3554 -1.9297
  155SAPE  C31217240  -0.474   5.365   4.840 -0.8047  0.2303  0.0629
  155SAPE  H12X17241  -0.502   5.391   4.736  1.6818 -2.0128 -1.3109
  155SAPE  H12Y17242  -0.409   5.275   4.843 -0.6704  0.3370  0.4796
  155SAPE  C31317243  -0.391   5.485   4.902 -0.0951  0.0101  0.0809
  155SAPE  H13X17244  -0.375   5.459   5.009  0.1046 -2.1084 -0.4301
  155SAPE  H13Y17245  -0.455   5.576   4.896 -1.7558 -1.0265  1.2613
  155SAPE  C31417246  -0.255   5.514   4.831  0.4272  0.6157 -0.4182
  155SAPE  H14X17247  -0.194   5.421   4.832 -0.3401  0.0940  0.8227
  155SAPE  H14Y17248  -0.195   5.586   4.889  2.7726  0.6918 -2.7567
  155SAPE  C31517249  -0.261   5.577   4.689 -0.6402  0.1147 -0.2704
  155SAPE  H15X17250  -0.338   5.529   4.626 -0.4806 -1.5751  0.7726
  155SAPE  H15Y17251  -0.161   5.565   4.641 -1.0182 -0.5091 -0.9357
  155SAPE  C31617252  -0.316   5.719   4.687 -0.2630  0.2059 -0.3273
  155SAPE  H16X17253  -0.243   5.788   4.736 -0.5989  0.6276 -0.4108
  155SAPE  H16Y17254  -0.409   5.715   4.747 -0.9950 -2.2390 -1.5077
  155SAPE  C31717255  -0.359   5.767   4.546 -0.3312 -0.0440  0.0648
  155SAPE  H17X17256  -0.397   5.871   4.544  1.2035  0.5395 -1.1781
  155SAPE  H17Y17257  -0.427   5.697   4.493 -0.2322 -0.1295  0.0509
  155SAPE  C31817258  -0.233   5.783   4.461  0.3882  0.6693 -0.0256
  155SAPE  H18X17259  -0.173   5.867   4.500  1.6536 -0.4632  0.5319
  155SAPE  H18Y17260  -0.257   5.799   4.354 -3.3716 -1.3897  0.3417
  155SAPE  H18Z17261  -0.167   5.694   4.469 -2.3290 -1.4030  0.8062
  156SAPE     N17262   1.786   4.680   6.743 -0.5815  0.4179  0.2443
  156SAPE   HN117263   1.705   4.682   6.678 -0.5203 -2.4470 -0.0563
  156SAPE   HN217264   1.870   4.688   6.682 -0.6597  0.5009  0.1478
  156SAPE   HN317265   1.791   4.584   6.782 -0.4887  0.6884  0.9054
  156SAPE   C1217266   1.796   4.796   6.848  0.3905  0.6641  0.0635
  156SAPE  H12A17267   1.891   4.784   6.905  0.5910 -0.4461 -0.4740
  156SAPE  H12B17268   1.717   4.778   6.923  0.3621  0.4863 -0.0089
  156SAPE   C1117269   1.800   4.933   6.769 -0.8742 -0.3299 -0.1460
  156SAPE  H11A17270   1.905   4.935   6.733 -0.7978  0.5434  0.1078
  156SAPE  H11B17271   1.787   5.015   6.843  1.4631  0.2494 -0.2963
  156SAPE     P17272   1.725   5.052   6.542 -0.0503  0.1742 -0.0490
  156SAPE   O1317273   1.596   5.062   6.474  0.2887  0.6295  0.5268
  156SAPE   O1417274   1.771   5.176   6.606  0.4926  0.0582 -0.5663
  156SAPE   O1217275   1.707   4.939   6.661  0.1417  0.2576 -0.1830
  156SAPE   O1117276   1.827   4.989   6.456  0.2768 -0.1278  0.5967
  156SAPE    C117277   1.941   5.067   6.415 -0.3740  0.2104 -0.4201
  156SAPE    HA17278   1.915   5.173   6.395 -0.1406  0.2317 -0.6119
  156SAPE    HB17279   2.016   5.052   6.495 -2.1131 -0.7008  1.1347
  156SAPE    C217280   2.009   5.018   6.287 -0.1748  0.6132  0.1374
  156SAPE    HS17281   2.091   5.089   6.266  0.6670  0.0112  1.2696
  156SAPE   O2117282   1.909   4.997   6.185  0.6697  0.2054  0.4933
  156SAPE   C2117283   1.854   5.113   6.147  0.2424  0.0670  0.1062
  156SAPE   O2217284   1.887   5.220   6.188 -0.3957 -0.4196  0.3764
  156SAPE   C2217285   1.762   5.097   6.024 -0.1311  0.5747 -0.7648
  156SAPE   H2R17286   1.819   5.024   5.962 -2.1681 -0.1615 -1.8406
  156SAPE   H2S17287   1.664   5.062   6.061  1.0660 -1.8409  0.3749
  156SAPE    C317288   2.086   4.885   6.301  1.0151 -0.6185 -0.0786
  156SAPE    HX17289   2.025   4.799   6.337 -2.9032  2.3414  1.1036
  156SAPE    HY17290   2.158   4.899   6.384  0.5747  1.0018  0.0629
  156SAPE   O3117291   2.162   4.861   6.180 -0.1801  0.1350 -0.1414
  156SAPE   C3117292   2.107   4.776   6.096 -0.3084  0.1715  0.2442
  156SAPE   O3217293   1.997   4.718   6.111 -0.8349  0.4495  0.3868
  156SAPE   C3217294   2.201   4.747   5.990  0.0250  0.0158 -0.0980
  156SAPE   H2X17295   2.298   4.706   6.025 -0.4922 -0.2280  1.1117
  156SAPE   H2Y17296   2.228   4.845   5.945 -1.0842 -0.4399 -1.8729
  156SAPE   C2317297   1.769   5.225   5.936 -0.3245  0.1436  0.0055
  156SAPE   H3R17298   1.875   5.237   5.903 -0.2985  0.6116  0.2447
  156SAPE   H3S17299   1.742   5.315   5.996 -1.0082  0.9887 -1.5318
  156SAPE   C2417300   1.666   5.226   5.821  0.5089 -0.5274 -0.1251
  156SAPE   H4R17301   1.674   5.123   5.781 -0.5614 -0.4797 -0.4757
  156SAPE   H4S17302   1.698   5.297   5.742 -0.1062 -0.1645 -0.0555
  156SAPE   C2517303   1.522   5.239   5.865  0.1151  1.4458 -0.1621
  156SAPE   H5R17304   1.496   5.328   5.924 -0.0923  0.4637  1.2565
  156SAPE   C2617305   1.431   5.149   5.848  0.7386 -0.1761  0.9158
  156SAPE   H6R17306   1.328   5.183   5.868  0.4569  0.3109 -1.1298
  156SAPE   C2717307   1.441   5.021   5.763 -0.4256 -0.1034  0.0393
  156SAPE   H7R17308   1.421   4.937   5.834  2.6711 -1.1170 -0.1098
  156SAPE   H7S17309   1.540   4.995   5.718 -0.6183 -1.4589  0.3545
  156SAPE   C2817310   1.339   5.026   5.652  1.2354  0.4095 -0.1260
  156SAPE   H8R17311   1.243   5.066   5.688  1.8171  2.1516 -0.4285
  156SAPE   C2917312   1.342   4.993   5.524 -0.5228  0.4363 -0.1533
  156SAPE   H9R17313   1.252   5.007   5.463  0.9028 -2.1999 -3.1569
  156SAPE  C21017314   1.465   4.929   5.463  0.2309 -0.0743  0.2338
  156SAPE  H10R17315   1.481   4.844   5.533 -1.4267 -1.7563 -1.2928
  156SAPE  H10S17316   1.555   4.992   5.456  0.1405  0.3242  2.1095
  156SAPE  C21117317   1.434   4.847   5.335  0.4414  0.5713 -0.5040
  156SAPE  H11R17318   1.486   4.750   5.327 -0.4333 -0.1834  1.9184
  156SAPE  C21217319   1.350   4.870   5.231 -0.5961 -0.1115 -0.1104
  156SAPE  H12R17320   1.342   4.791   5.155  0.3666  0.3865 -0.7445
  156SAPE  C21317321   1.263   4.989   5.203 -0.7369 -0.7561  0.3045
  156SAPE  H13R17322   1.303   5.082   5.249 -1.4736  1.1413 -2.6152
  156SAPE  H13S17323   1.164   4.976   5.251 -0.6196 -1.8263  0.2788
  156SAPE  C21417324   1.250   5.019   5.054 -0.9098  0.0254 -0.2770
  156SAPE  H14R17325   1.325   4.968   4.991 -0.3684  0.6583 -0.1599
  156SAPE  C21517326   1.170   5.125   5.009  0.0092  0.8156  0.0619
  156SAPE  H15R17327   1.168   5.147   4.902  2.9295  0.7944 -0.0901
  156SAPE  C21617328   1.079   5.216   5.092 -0.9275  0.4570 -0.8029
  156SAPE  H16R17329   1.144   5.300   5.126  0.2410 -1.0729  0.8938
  156SAPE  H16S17330   1.055   5.153   5.180 -1.3712 -3.2669 -3.3612
  156SAPE  C21717331   0.946   5.270   5.031  0.3638  0.2853 -0.4127
  156SAPE  H17R17332   0.887   5.331   5.103  0.6073 -0.0632  0.0914
  156SAPE  H17S17333   0.894   5.179   4.995 -0.3395  0.3156  0.4878
  156SAPE  C21817334   0.971   5.372   4.926 -1.0831 -0.1439 -0.3203
  156SAPE  H18R17335   1.049   5.333   4.857 -1.5974  0.1089 -1.0630
  156SAPE  H18S17336   1.023   5.462   4.964  0.3179 -0.6405 -0.9550
  156SAPE  C21917337   0.843   5.401   4.842  0.5160 -0.4821  0.2426
  156SAPE  H19R17338   0.858   5.497   4.789 -0.0907  0.3821  1.5812
  156SAPE  H19S17339   0.757   5.422   4.909 -0.0746  1.3395 -1.0180
  156SAPE  C22017340   0.811   5.278   4.745  1.0967 -0.4981  0.0878
  156SAPE  H20R17341   0.900   5.251   4.685  1.4010 -1.8211  1.0934
  156SAPE  H20S17342   0.729   5.312   4.678  0.8412  1.1427  1.1483
  156SAPE  H20T17343   0.772   5.194   4.808 -1.5655 -1.0109 -2.0439
  156SAPE   C3317344   2.143   4.659   5.874  0.1808  0.3835 -0.2600
  156SAPE   H3X17345   2.097   4.567   5.917  1.5492 -0.5673 -0.7503
  156SAPE   H3Y17346   2.229   4.622   5.813  1.2386  1.5307  0.4962
  156SAPE   C3417347   2.030   4.728   5.785 -1.7099  0.4534 -0.2960
  156SAPE   H4X17348   1.934   4.749   5.837 -0.7174  1.6249  1.1420
  156SAPE   H4Y17349   2.018   4.661   5.698  1.5489  1.1757 -1.4371
  156SAPE   C3517350   2.073   4.865   5.723 -0.2791 -0.4875 -0.0610
  156SAPE   H5X17351   2.178   4.865   5.685 -1.0826  0.1016 -2.4350
  156SAPE   H5Y17352   2.060   4.948   5.796 -1.6823 -0.2485 -0.5637
  156SAPE   C3617353   1.981   4.901   5.596  0.8800 -0.3311 -0.0739
  156SAPE   H6X17354   1.873   4.889   5.615  1.0027 -0.3789  0.6055
  156SAPE   H6Y17355   2.000   4.830   5.512 -1.9320 -0.0473 -1.0533
  156SAPE   C3717356   2.005   5.045   5.532 -0.6061 -0.8667  0.3171
  156SAPE   H7X17357   2.113   5.038   5.508 -0.3224 -1.4572  1.6920
  156SAPE   H7Y17358   1.976   5.120   5.609 -2.8046 -1.4079  0.0957
  156SAPE   C3817359   1.925   5.068   5.397 -0.1111 -0.4838 -0.5618
  156SAPE   H8X17360   1.942   5.170   5.358 -2.2980 -0.1077 -0.6733
  156SAPE   H8Y17361   1.817   5.054   5.418  0.1059 -0.3871  0.6991
  156SAPE   C3917362   1.969   4.978   5.279  0.8753  0.6990 -1.0505
  156SAPE   H9X17363   1.939   4.876   5.311 -0.8141  1.0853 -1.3135
  156SAPE   H9Y17364   2.079   4.994   5.267  1.7241 -1.6536  2.1012
  156SAPE  C31017365   1.901   5.015   5.152 -0.3557 -0.6851 -0.1038
  156SAPE  H10X17366   1.938   4.949   5.071 -0.3299 -0.9563  0.1302
  156SAPE  H10Y17367   1.928   5.119   5.123  1.1707 -0.9406  0.3077
  156SAPE  C31117368   1.751   4.989   5.141  0.0110 -0.8272 -0.0421
  156SAPE  H11X17369   1.695   5.036   5.225  1.3605 -0.9348  0.9659
  156SAPE  H11Y17370   1.725   4.882   5.157  0.9401 -1.1782 -0.7797
  156SAPE  C31217371   1.689   5.026   5.003  0.3111  0.4193  0.8444
  156SAPE  H12X17372   1.626   4.938   4.978 -1.5302  1.8256  0.2624
  156SAPE  H12Y17373   1.769   5.021   4.926 -0.0128 -0.2483  0.5424
  156SAPE  C31317374   1.608   5.162   4.983 -1.0964 -0.3654 -0.1379
  156SAPE  H13X17375   1.677   5.247   5.004 -2.6734  1.5510 -2.1879
  156SAPE  H13Y17376   1.532   5.167   5.064 -2.7826  1.0046 -1.7070
  156SAPE  C31417377   1.550   5.186   4.840  0.3360 -0.7711 -0.4544
  156SAPE  H14X17378   1.482   5.101   4.816 -0.2661  0.6331 -4.4768
  156SAPE  H14Y17379   1.634   5.173   4.769  0.2346 -0.2032 -0.6798
  156SAPE  C31517380   1.470   5.315   4.817  0.5713 -0.9345  0.3677
  156SAPE  H15X17381   1.402   5.326   4.903 -1.9333 -2.6053 -1.2458
  156SAPE  H15Y17382   1.414   5.307   4.721  0.6515  1.5541  0.0567
  156SAPE  C31617383   1.565   5.444   4.798 -0.0692  0.3997 -0.1973
  156SAPE  H16X17384   1.612   5.418   4.701 -1.2957  1.0475 -0.9887
  156SAPE  H16Y17385   1.638   5.455   4.881 -1.2811 -0.0112  0.9467
  156SAPE  C31717386   1.493   5.571   4.769  0.0576  0.1886 -0.4134
  156SAPE  H17X17387   1.416   5.590   4.847  2.1293  0.1082  1.7487
  156SAPE  H17Y17388   1.456   5.541   4.669  0.1717  0.3979 -0.5185
  156SAPE  C31817389   1.584   5.690   4.750 -0.1438  0.1822 -0.0808
  156SAPE  H18X17390   1.537   5.791   4.746  0.4017  0.4115 -0.9351
  156SAPE  H18Y17391   1.612   5.674   4.644 -1.7946 -2.5984 -0.1989
  156SAPE  H18Z17392   1.672   5.689   4.818 -1.3585 -1.3780  1.5483
  157SAPE     N17393   0.649   2.741   6.611  0.0243  0.0798  0.3071
  157SAPE   HN117394   0.704   2.756   6.697  0.0802 -0.3656  0.3528
  157SAPE   HN217395   0.651   2.833   6.563  0.3952 -0.5609 -0.9658
  157SAPE   HN317396   0.552   2.709   6.632  1.0314 -1.6221  2.7617
  157SAPE   C1217397   0.734   2.651   6.528 -0.2659 -0.6009  0.3971
  157SAPE  H12A17398   0.712   2.676   6.422  0.0926 -0.5226  0.3424
  157SAPE  H12B17399   0.711   2.543   6.543 -1.3122 -0.5098 -0.3825
  157SAPE   C1117400   0.881   2.677   6.562 -0.2844  0.2772 -0.1272
  157SAPE  H11A17401   0.947   2.621   6.492  1.3777 -0.9816  2.3405
  157SAPE  H11B17402   0.903   2.638   6.663  0.1898  0.4178 -0.1762
  157SAPE     P17403   1.018   2.876   6.645 -0.1858 -0.0871 -0.0945
  157SAPE   O1317404   0.953   2.957   6.752  0.1908 -0.2301  0.4146
  157SAPE   O1417405   1.121   2.782   6.687 -0.1592 -0.3886 -0.3775
  157SAPE   O1217406   0.908   2.814   6.545  0.5750  0.0389  0.3292
  157SAPE   O1117407   1.093   2.988   6.557 -0.2978 -0.2852  0.2025
  157SAPE    C117408   1.022   3.062   6.460 -0.7122  0.4283 -0.2617
  157SAPE    HA17409   0.912   3.070   6.476 -0.7450  1.3789 -0.8769
  157SAPE    HB17410   1.058   3.167   6.458  0.0727  0.1668 -0.1816
  157SAPE    C217411   1.026   2.999   6.319 -0.0812  0.2522 -0.3638
  157SAPE    HS17412   1.037   2.889   6.324  1.6747  0.3827 -0.4747
  157SAPE   O2117413   1.142   3.060   6.250  0.4769 -0.2983 -0.6133
  157SAPE   C2117414   1.250   2.983   6.233  0.5788 -0.6376  0.9230
  157SAPE   O2217415   1.264   2.872   6.279 -0.7912  0.2616 -0.2065
  157SAPE   C2217416   1.355   3.048   6.144 -0.6879  0.1677 -0.1502
  157SAPE   H2R17417   1.436   3.091   6.207 -0.2701  0.3270 -0.7882
  157SAPE   H2S17418   1.389   2.968   6.074 -1.6957  2.1368 -3.1091
  157SAPE    C317419   0.901   3.032   6.229 -0.3061 -0.3097 -0.1826
  157SAPE    HX17420   0.897   3.142   6.213 -0.9991  0.1238  2.4394
  157SAPE    HY17421   0.811   3.001   6.287 -1.6241  1.9006 -0.9210
  157SAPE   O3117422   0.918   2.968   6.104  0.0036 -0.1145 -0.1445
  157SAPE   C3117423   0.867   2.845   6.090  0.4090  0.0232  1.1800
  157SAPE   O3217424   0.813   2.781   6.180 -0.1316  0.3834 -0.2380
  157SAPE   C3217425   0.884   2.789   5.950 -0.2611 -0.0847 -0.0339
  157SAPE   H2X17426   0.846   2.852   5.867  1.1759  1.8139  0.6721
  157SAPE   H2Y17427   0.835   2.689   5.955 -0.3034 -0.0749 -0.2638
  157SAPE   C2317428   1.303   3.166   6.055  0.5962  0.3909 -1.0197
  157SAPE   H3R17429   1.292   3.259   6.115  1.9098  0.4723 -0.8831
  157SAPE   H3S17430   1.210   3.139   6.001  0.2633  0.1004 -0.3159
  157SAPE   C2417431   1.408   3.201   5.942 -0.1404  0.2722  0.7190
  157SAPE   H4R17432   1.431   3.113   5.879  2.1878  1.2617  0.0643
  157SAPE   H4S17433   1.508   3.207   5.991  0.4468 -2.5657  0.0081
  157SAPE   C2517434   1.392   3.320   5.855  0.0640 -0.2636  0.2114
  157SAPE   H5R17435   1.371   3.411   5.913 -2.2146 -1.1022  0.8163
  157SAPE   C2617436   1.357   3.317   5.729  0.0809  0.9142 -0.2196
  157SAPE   H6R17437   1.335   3.415   5.686 -0.2589  0.8746 -0.1401
  157SAPE   C2717438   1.334   3.198   5.636  0.3070 -0.1204  0.0949
  157SAPE   H7R17439   1.245   3.226   5.577 -0.5166 -1.2564  0.7618
  157SAPE   H7S17440   1.303   3.114   5.702 -1.8082  2.4191  2.5871
  157SAPE   C2817441   1.456   3.181   5.546  0.6425  1.0811  0.1141
  157SAPE   H8R17442   1.538   3.118   5.584  0.3931  0.8201  0.2193
  157SAPE   C2917443   1.469   3.232   5.422  0.4417  0.2969  0.3168
  157SAPE   H9R17444   1.567   3.222   5.372  0.1807 -1.2270  0.0721
  157SAPE  C21017445   1.372   3.329   5.350  0.4556  0.5857 -0.5365
  157SAPE  H10R17446   1.304   3.374   5.426 -0.5063 -1.1902 -0.2790
  157SAPE  H10S17447   1.293   3.269   5.299 -0.8366  1.5965  0.2155
  157SAPE  C21117448   1.438   3.429   5.261 -0.6163 -0.3941 -0.7371
  157SAPE  H11R17449   1.465   3.520   5.317 -0.7503  0.8502 -2.6071
  157SAPE  C21217450   1.462   3.407   5.131 -0.6496  0.5316  0.2452
  157SAPE  H12R17451   1.494   3.498   5.078  1.2660  0.6729  1.5380
  157SAPE  C21317452   1.426   3.289   5.039  0.3999 -0.0129  0.3513
  157SAPE  H13R17453   1.388   3.340   4.948 -1.7216 -0.7901  0.7480
  157SAPE  H13S17454   1.342   3.227   5.078  1.4936 -0.9584  1.2886
  157SAPE  C21417455   1.548   3.209   4.999  0.4579 -0.1309 -0.0402
  157SAPE  H14R17456   1.628   3.272   4.959  1.7044 -0.7632  1.3400
  157SAPE  C21517457   1.575   3.078   5.013  0.0706  0.4642  0.3950
  157SAPE  H15R17458   1.670   3.027   4.992 -0.0064  0.6912 -0.5422
  157SAPE  C21617459   1.488   2.984   5.081 -0.5494 -0.4549  0.2204
  157SAPE  H16R17460   1.471   2.902   5.007  1.3412  2.4670 -3.8398
  157SAPE  H16S17461   1.395   3.036   5.113 -0.2713  0.4541 -0.4317
  157SAPE  C21717462   1.543   2.932   5.214  0.2017 -0.8620  0.0993
  157SAPE  H17R17463   1.593   3.013   5.271 -1.4085 -0.1865  0.6037
  157SAPE  H17S17464   1.619   2.857   5.183  0.5819 -0.6451  0.4928
  157SAPE  C21817465   1.441   2.881   5.311 -0.2220  0.5609 -0.3840
  157SAPE  H18R17466   1.367   2.812   5.267  0.0725  0.0360 -0.0615
  157SAPE  H18S17467   1.390   2.974   5.346 -1.4006  0.7120 -2.3923
  157SAPE  C21917468   1.506   2.809   5.434 -0.4239  0.4701 -0.3141
  157SAPE  H19R17469   1.576   2.875   5.489  1.7396 -1.4960 -0.5469
  157SAPE  H19S17470   1.553   2.720   5.386  0.5527  2.5635 -3.5342
  157SAPE  C22017471   1.396   2.765   5.534  0.5505  0.6090  0.1728
  157SAPE  H20R17472   1.323   2.699   5.482  0.1899 -2.5799  4.1653
  157SAPE  H20S17473   1.335   2.852   5.567  0.1704  0.2794  0.3464
  157SAPE  H20T17474   1.440   2.720   5.626  0.3016 -1.4247 -0.6580
  157SAPE   C3317475   1.038   2.778   5.920  0.0359 -1.1900 -0.3472
  157SAPE   H3X17476   1.103   2.865   5.942  0.4554 -2.0816  2.3075
  157SAPE   H3Y17477   1.038   2.762   5.810  0.0295 -0.7140 -0.4186
  157SAPE   C3417478   1.106   2.657   5.979 -0.4192  0.0059 -0.1618
  157SAPE   H4X17479   1.033   2.577   5.958 -0.7871 -1.2078  4.5786
  157SAPE   H4Y17480   1.126   2.664   6.088  2.3126 -2.8992 -0.3167
  157SAPE   C3517481   1.236   2.615   5.912 -0.7113  0.1609 -0.4676
  157SAPE   H5X17482   1.225   2.590   5.805 -0.8085  0.7177 -0.5950
  157SAPE   H5Y17483   1.260   2.520   5.964 -0.0064  0.7113  0.2360
  157SAPE   C3617484   1.347   2.708   5.947 -0.0898 -0.4474  0.1538
  157SAPE   H6X17485   1.333   2.749   6.050 -3.3641 -0.8169 -0.0140
  157SAPE   H6Y17486   1.345   2.793   5.875 -2.2660  1.2848  2.0971
  157SAPE   C3717487   1.487   2.650   5.927  0.2245 -0.6901 -0.0801
  157SAPE   H7X17488   1.498   2.619   5.821 -0.6988 -1.2112 -0.0398
  157SAPE   H7Y17489   1.496   2.554   5.983 -0.9009 -1.9491 -1.9380
  157SAPE   C3817490   1.609   2.746   5.973  0.0108 -0.3146  0.6263
  157SAPE   H8X17491   1.698   2.680   5.984 -0.3130 -0.9110 -0.2395
  157SAPE   H8Y17492   1.591   2.808   6.063 -1.5059 -2.0900  1.6198
  157SAPE   C3917493   1.635   2.844   5.849  1.0330  0.2078  0.6503
  157SAPE   H9X17494   1.542   2.904   5.835  0.8935 -0.3988 -1.5188
  157SAPE   H9Y17495   1.647   2.790   5.752  3.0880 -0.6805  1.3573
  157SAPE  C31017496   1.751   2.941   5.871 -0.2545  0.5202 -0.1667
  157SAPE  H10X17497   1.845   2.892   5.903 -0.4140  3.2450  5.6144
  157SAPE  H10Y17498   1.722   2.995   5.963 -0.1640 -0.5531  0.5160
  157SAPE  C31117499   1.783   3.062   5.773  0.0811 -0.4326  0.6348
  157SAPE  H11X17500   1.867   3.114   5.822 -0.9566 -0.6112  2.7177
  157SAPE  H11Y17501   1.696   3.131   5.777 -2.4564 -3.2126 -1.5832
  157SAPE  C31217502   1.799   3.029   5.628  0.0981  0.0987  0.2315
  157SAPE  H12X17503   1.714   2.973   5.583 -1.2465  0.6877  1.9178
  157SAPE  H12Y17504   1.886   2.961   5.622  0.1625  0.1948  0.0679
  157SAPE  C31317505   1.832   3.144   5.533  0.4975  0.0302  0.1860
  157SAPE  H13X17506   1.909   3.199   5.590 -0.7149 -0.0112  1.9426
  157SAPE  H13Y17507   1.741   3.208   5.523 -1.0345 -2.1463 -0.5604
  157SAPE  C31417508   1.862   3.111   5.389 -0.0502  0.0776  0.3830
  157SAPE  H14X17509   1.787   3.045   5.341 -0.0622 -0.9877  1.7769
  157SAPE  H14Y17510   1.958   3.056   5.390  0.3224  0.6987  1.7898
  157SAPE  C31517511   1.874   3.243   5.310  0.1335  0.0071  0.4903
  157SAPE  H15X17512   1.953   3.301   5.362 -0.8695  1.8558  0.0212
  157SAPE  H15Y17513   1.781   3.300   5.330 -0.0690 -0.5248  1.1008
  157SAPE  C31617514   1.901   3.222   5.163 -0.5974  0.2538  0.4534
  157SAPE  H16X17515   1.844   3.133   5.128  1.5855 -1.4609  1.0530
  157SAPE  H16Y17516   2.006   3.195   5.142 -0.7340  0.2429 -0.2462
  157SAPE  C31717517   1.899   3.353   5.092  0.7948 -0.0103  0.4821
  157SAPE  H17X17518   1.974   3.415   5.145  1.5115  0.4609 -1.0335
  157SAPE  H17Y17519   1.802   3.404   5.112  1.6029  1.3407  1.0839
  157SAPE  C31817520   1.927   3.337   4.947 -0.2556 -0.6432  0.1975
  157SAPE  H18X17521   1.853   3.270   4.897 -0.9390  0.5222 -0.3841
  157SAPE  H18Y17522   2.033   3.305   4.941  0.6562  1.9181  1.5274
  157SAPE  H18Z17523   1.919   3.437   4.900 -1.0807  0.4084  2.4254
  158SAPE     N17524   3.542   2.013   6.876 -0.3326 -0.3012 -0.2400
  158SAPE   HN117525   3.491   1.940   6.929 -1.8185 -1.4366 -2.9913
  158SAPE   HN217526   3.601   2.078   6.931  0.9902 -1.0927 -0.6880
  158SAPE   HN317527   3.469   2.068   6.825 -0.1586 -0.7470 -0.9956
  158SAPE   C1217528   3.631   1.930   6.784 -0.0516 -0.9310  0.2130
  158SAPE  H12A17529   3.563   1.886   6.709 -2.0375  1.1082  0.7033
  158SAPE  H12B17530   3.677   1.843   6.836  0.6988 -0.2071  0.7919
  158SAPE   C1117531   3.722   2.029   6.708  0.4912  0.8294  0.3181
  158SAPE  H11A17532   3.648   2.093   6.655 -0.3491  0.1672  0.6764
  158SAPE  H11B17533   3.791   1.969   6.645  0.8047  1.8665 -0.3450
  158SAPE     P17534   3.943   2.056   6.866 -0.2242  0.0116 -0.0453
  158SAPE   O1317535   3.989   2.166   6.959  0.1997 -0.6194  0.2982
  158SAPE   O1417536   3.927   1.925   6.930 -0.0330 -0.1749  0.2905
  158SAPE   O1217537   3.808   2.099   6.792  0.1960 -0.4171  0.3728
  158SAPE   O1117538   4.039   2.036   6.743  0.6196  0.0149 -0.4130
  158SAPE    C117539   4.157   2.111   6.734 -0.0642  0.2959  0.2913
  158SAPE    HA17540   4.205   2.131   6.832 -1.0767  2.7479  0.3324
  158SAPE    HB17541   4.231   2.044   6.685 -0.0380  0.5781 -0.0598
  158SAPE    C217542   4.138   2.246   6.660  0.0267 -0.1038 -0.6702
  158SAPE    HS17543   4.084   2.313   6.731  0.4109  0.9984 -1.3812
  158SAPE   O2117544   4.060   2.221   6.549 -0.7615  0.2225 -0.3458
  158SAPE   C2117545   3.989   2.326   6.515 -0.2395  1.0447  0.2986
  158SAPE   O2217546   3.991   2.437   6.571 -0.1910  0.0520 -0.1491
  158SAPE   C2217547   3.918   2.281   6.383 -0.7332  0.5841  0.7869
  158SAPE   H2R17548   3.993   2.222   6.326 -1.7087  0.2001 -0.1294
  158SAPE   H2S17549   3.838   2.211   6.414 -1.4319  0.7537 -0.5491
  158SAPE    C317550   4.270   2.305   6.605 -0.3361  0.0893 -0.1226
  158SAPE    HX17551   4.349   2.294   6.682  1.0249  1.4384 -1.2522
  158SAPE    HY17552   4.252   2.413   6.588 -1.0594 -0.1410 -0.8739
  158SAPE   O3117553   4.337   2.242   6.496 -0.4686 -0.0748 -0.4647
  158SAPE   C3117554   4.323   2.298   6.378 -0.6398 -0.0059 -0.1914
  158SAPE   O3217555   4.249   2.393   6.356 -0.1884  0.1485 -0.8710
  158SAPE   C3217556   4.427   2.236   6.289  0.2350 -0.3931  0.5817
  158SAPE   H2X17557   4.408   2.126   6.298  0.5818 -0.4841  0.1869
  158SAPE   H2Y17558   4.529   2.262   6.323 -0.6185  3.5459  0.5701
  158SAPE   C2317559   3.883   2.391   6.283 -0.0865  0.1015  0.0213
  158SAPE   H3R17560   3.917   2.481   6.339  1.5894 -1.4233  1.5835
  158SAPE   H3S17561   3.774   2.393   6.264 -0.4425 -0.9831  1.7427
  158SAPE   C2417562   3.972   2.381   6.161 -0.1079 -0.0142  0.0787
  158SAPE   H4R17563   3.972   2.275   6.129 -1.4850 -0.3126  0.9701
  158SAPE   H4S17564   4.076   2.412   6.182 -1.2069  2.8444  1.9063
  158SAPE   C2517565   3.921   2.475   6.055  0.5498  0.5047 -0.2152
  158SAPE   H5R17566   3.812   2.490   6.056  0.3673 -0.7492  0.1605
  158SAPE   C2617567   3.981   2.534   5.957  0.1750 -0.8719 -0.4717
  158SAPE   H6R17568   3.923   2.601   5.893  2.5284 -0.5693 -2.4204
  158SAPE   C2717569   4.124   2.541   5.924 -0.2927 -0.3945  0.1671
  158SAPE   H7R17570   4.193   2.518   6.008 -0.5561 -0.3770  0.3884
  158SAPE   H7S17571   4.154   2.646   5.904  1.7580 -1.1334 -0.9600
  158SAPE   C2817572   4.162   2.442   5.812  0.2925 -0.8292 -0.2915
  158SAPE   H8R17573   4.125   2.342   5.840 -1.0874  0.3301  2.4401
  158SAPE   C2917574   4.229   2.464   5.700 -0.0350  0.0325  0.7670
  158SAPE   H9R17575   4.225   2.382   5.627  0.3210 -0.6514  1.5057
  158SAPE  C21017576   4.266   2.602   5.647 -0.7609  1.1537 -0.2641
  158SAPE  H10R17577   4.376   2.615   5.639 -0.2657 -1.0588  1.8086
  158SAPE  H10S17578   4.228   2.688   5.706 -0.0118  0.8005  0.7718
  158SAPE  C21117579   4.202   2.623   5.511  0.5282  0.5460 -0.7689
  158SAPE  H11R17580   4.110   2.681   5.525  1.5036  1.5044  2.4933
  158SAPE  C21217581   4.233   2.566   5.390  0.3728 -0.3412  0.8949
  158SAPE  H12R17582   4.167   2.594   5.306  1.2639 -0.0032  0.2930
  158SAPE  C21317583   4.341   2.475   5.348  0.2151  0.1052  1.0148
  158SAPE  H13R17584   4.302   2.412   5.265  0.1228  1.4119  0.0247
  158SAPE  H13S17585   4.363   2.396   5.423  0.6274 -1.2130 -0.4405
  158SAPE  C21417586   4.475   2.533   5.307  0.4871  0.0621 -0.2064
  158SAPE  H14R17587   4.496   2.625   5.364 -3.7267 -0.5911  2.9405
  158SAPE  C21517588   4.563   2.475   5.232  0.6512 -0.4860 -0.6280
  158SAPE  H15R17589   4.656   2.520   5.194 -0.2556  3.2867  1.2151
  158SAPE  C21617590   4.537   2.336   5.170  0.2941 -0.8143 -0.4228
  158SAPE  H16R17591   4.431   2.329   5.138  0.7717  1.3895 -2.8584
  158SAPE  H16S17592   4.560   2.250   5.236 -0.2490  0.0051  0.8612
  158SAPE  C21717593   4.602   2.304   5.033  0.2306  0.4075 -0.3586
  158SAPE  H17R17594   4.550   2.208   5.012 -2.2036  0.4364  4.2447
  158SAPE  H17S17595   4.707   2.278   5.057 -0.2893  0.0646  1.7622
  158SAPE  C21817596   4.579   2.414   4.928  0.4229  0.0175 -0.1774
  158SAPE  H18R17597   4.655   2.494   4.938  0.4322  0.1432 -1.1269
  158SAPE  H18S17598   4.477   2.458   4.927 -0.5507 -2.1099  0.2790
  158SAPE  C21917599   4.607   2.355   4.781 -0.3464  0.2927  0.7224
  158SAPE  H19R17600   4.534   2.272   4.769 -0.2427  0.1693  0.9494
  158SAPE  H19S17601   4.706   2.307   4.792 -0.6067 -1.4753 -2.9570
  158SAPE  C22017602   4.602   2.456   4.666 -0.0349 -0.4695 -0.0643
  158SAPE  H20R17603   4.508   2.515   4.672 -0.2248 -0.5156 -1.8231
  158SAPE  H20S17604   4.594   2.402   4.569  0.0243  0.5622 -0.6555
  158SAPE  H20T17605   4.689   2.525   4.665 -0.5071  0.1975  1.4783
  158SAPE   C3317606   4.407   2.275   6.144  0.3816  0.5267  0.4934
  158SAPE   H3X17607   4.465   2.368   6.123 -1.8822  1.5876 -1.6353
  158SAPE   H3Y17608   4.301   2.296   6.117  0.5292 -0.0461 -0.6035
  158SAPE   C3417609   4.457   2.159   6.056  0.1323  0.4645 -0.0947
  158SAPE   H4X17610   4.379   2.083   6.074 -0.6101  1.0320 -0.8394
  158SAPE   H4Y17611   4.556   2.121   6.091 -0.0203 -0.7968 -0.9719
  158SAPE   C3517612   4.455   2.199   5.907  0.2243  0.1272  0.3289
  158SAPE   H5X17613   4.508   2.296   5.895 -1.1079  0.6939 -1.6173
  158SAPE   H5Y17614   4.355   2.230   5.868 -0.0027 -0.8325  0.1369
  158SAPE   C3617615   4.504   2.080   5.821  0.1886 -0.5549  0.1250
  158SAPE   H6X17616   4.440   1.995   5.851  0.1794 -0.1372  1.3901
  158SAPE   H6Y17617   4.611   2.065   5.847  0.5108  0.4106 -0.5834
  158SAPE   C3717618   4.505   2.107   5.671 -0.2214 -0.3200 -0.0834
  158SAPE   H7X17619   4.554   2.206   5.654  0.4988 -0.7908 -0.8097
  158SAPE   H7Y17620   4.403   2.130   5.633 -0.3370  1.4563  1.1837
  158SAPE   C3817621   4.576   2.003   5.588  0.2881 -0.1634  0.0184
  158SAPE   H8X17622   4.531   1.904   5.612  3.1171 -1.2913  1.0949
  158SAPE   H8Y17623   4.684   1.992   5.613  0.0503  0.5372  1.4581
  158SAPE   C3917624   4.572   2.028   5.435 -0.3999  0.6234 -0.5119
  158SAPE   H9X17625   4.627   2.124   5.423  0.7663  0.3341  1.9271
  158SAPE   H9Y17626   4.470   2.040   5.393 -0.6721 -0.4402 -0.1790
  158SAPE  C31017627   4.659   1.935   5.356 -0.0367 -0.2426  0.6687
  158SAPE  H10X17628   4.616   1.832   5.347  1.8673 -0.9312 -1.3720
  158SAPE  H10Y17629   4.758   1.927   5.405  0.3937 -0.6521 -0.2569
  158SAPE  C31117630   4.674   1.970   5.205  0.3196 -0.0601 -0.7305
  158SAPE  H11X17631   4.720   2.071   5.209  2.9247 -1.1867 -0.5237
  158SAPE  H11Y17632   4.576   1.970   5.152  0.5969  2.1191 -1.3458
  158SAPE  C31217633   4.774   1.871   5.139 -0.6555  0.1733  0.4096
  158SAPE  H12X17634   4.737   1.767   5.146  1.3947 -0.6987 -0.9090
  158SAPE  H12Y17635   4.875   1.882   5.184 -0.8248  0.7525  0.6641
  158SAPE  C31317636   4.789   1.897   4.990 -0.1483 -0.0101 -0.7231
  158SAPE  H13X17637   4.858   1.818   4.952  0.3705  0.9294 -1.8222
  158SAPE  H13Y17638   4.829   2.000   4.979 -1.2467  0.1620 -4.5255
  158SAPE  C31417639   4.664   1.892   4.909  0.5256  0.0474 -0.5708
  158SAPE  H14X17640   4.596   1.975   4.937  0.0633 -0.8711  1.1294
  158SAPE  H14Y17641   4.597   1.809   4.939 -1.6763  1.8260 -0.2872
  158SAPE  C31517642   4.679   1.888   4.754 -0.0746  0.4941 -0.5023
  158SAPE  H15X17643   4.744   1.970   4.716 -0.4153  0.5782 -0.9191
  158SAPE  H15Y17644   4.579   1.913   4.711  0.3274  2.2297 -0.5065
  158SAPE  C31617645   4.740   1.763   4.686 -0.1779 -0.1978  0.1202
  158SAPE  H16X17646   4.686   1.667   4.704  0.2277 -0.4131  0.2282
  158SAPE  H16Y17647   4.846   1.761   4.720  0.4465 -0.0709 -1.7128
  158SAPE  C31717648   4.739   1.774   4.532 -0.3934 -0.3787  0.2562
  158SAPE  H17X17649   4.833   1.830   4.509 -1.6737  1.4547 -0.8169
  158SAPE  H17Y17650   4.655   1.830   4.486 -0.6402 -1.3434 -0.5054
  158SAPE  C31817651   4.759   1.638   4.460 -0.4883  0.4476 -0.0042
  158SAPE  H18X17652   4.822   1.575   4.526 -2.1280 -1.8119 -0.4981
  158SAPE  H18Y17653   4.809   1.642   4.361  0.0020  1.9223  0.2670
  158SAPE  H18Z17654   4.661   1.585   4.458 -0.2324 -0.0215 -0.2966
  159SAPE     N17655   6.227   6.722   2.593 -0.3085  0.4156  0.2494
  159SAPE   HN117656   6.247   6.821   2.617 -0.0882  0.5312 -0.4028
  159SAPE   HN217657   6.180   6.673   2.672 -1.5767 -0.4535 -0.9991
  159SAPE   HN317658   6.319   6.680   2.565  0.6557  2.6474 -0.1267
  159SAPE   C1217659   6.150   6.732   2.468 -0.3022  0.3648  0.1967
  159SAPE  H12A17660   6.125   6.628   2.438  0.3538  0.0521  0.7208
  159SAPE  H12B17661   6.200   6.788   2.386  0.4372 -0.2592  0.2133
  159SAPE   C1117662   6.014   6.794   2.499 -0.2346 -0.0986 -0.0288
  159SAPE  H11A17663   5.965   6.819   2.402  3.0788 -1.2942 -2.1906
  159SAPE  H11B17664   6.035   6.888   2.555  2.1432 -0.3359 -0.4137
  159SAPE     P17665   5.846   6.603   2.498 -0.1062  0.3680 -0.3602
  159SAPE   O1317666   5.770   6.674   2.391 -0.7049  1.1330 -0.3203
  159SAPE   O1417667   5.925   6.486   2.452 -0.3976  0.3584  0.7177
  159SAPE   O1217668   5.941   6.697   2.574 -0.1500 -0.9204  0.8607
  159SAPE   O1117669   5.741   6.560   2.613  0.3937 -0.0955  0.1949
  159SAPE    C117670   5.670   6.649   2.705 -0.4293 -0.4218  0.9445
  159SAPE    HA17671   5.659   6.746   2.652  2.5871 -0.6359 -0.3296
  159SAPE    HB17672   5.568   6.610   2.726 -1.2622  1.2512  0.1869
  159SAPE    C217673   5.755   6.656   2.841  0.2918 -0.5765 -0.3563
  159SAPE    HS17674   5.851   6.707   2.818  0.1361 -0.0422  0.1578
  159SAPE   O2117675   5.782   6.518   2.879 -0.0656  0.7055 -0.3308
  159SAPE   C2117676   5.888   6.491   2.952  0.5735  0.2944 -0.4524
  159SAPE   O2217677   5.976   6.573   2.976 -0.2028 -0.0382  0.3610
  159SAPE   C2217678   5.892   6.347   2.995 -0.1979  0.0654 -0.1099
  159SAPE   H2R17679   5.845   6.348   3.096  0.0560  2.3559  0.0422
  159SAPE   H2S17680   5.832   6.289   2.923  0.3567 -1.4808  0.6315
  159SAPE    C317681   5.679   6.737   2.952  0.3149 -0.5990 -0.2086
  159SAPE    HX17682   5.582   6.684   2.961 -0.7467  1.4563  1.0812
  159SAPE    HY17683   5.657   6.841   2.921 -1.2371 -0.7794  0.1948
  159SAPE   O3117684   5.740   6.738   3.080 -0.6512 -0.3219  0.2746
  159SAPE   C3117685   5.841   6.826   3.098 -0.1520  0.3480 -0.4608
  159SAPE   O3217686   5.886   6.895   3.009  0.4362  0.1704  0.3180
  159SAPE   C3217687   5.874   6.826   3.246 -0.5515 -0.2664  0.3811
  159SAPE   H2X17688   5.779   6.822   3.304  1.3533 -1.1040  3.7533
  159SAPE   H2Y17689   5.921   6.924   3.268 -3.1302  1.1694 -0.0739
  159SAPE   C2317690   6.031   6.284   3.006 -1.0270  0.1416  0.9336
  159SAPE   H3R17691   6.092   6.316   2.919 -1.5190  0.3603  0.6648
  159SAPE   H3S17692   6.026   6.173   3.008  1.1840 -0.0012  0.3148
  159SAPE   C2417693   6.102   6.323   3.133  0.8208 -0.7753 -0.4179
  159SAPE   H4R17694   6.092   6.433   3.136  1.3613 -0.7378  0.7777
  159SAPE   H4S17695   6.213   6.315   3.136  1.0858  0.9678 -2.6591
  159SAPE   C2517696   6.043   6.266   3.259 -0.0722  0.2896 -0.3222
  159SAPE   H5R17697   5.943   6.226   3.239 -0.8163  1.5836  0.6611
  159SAPE   C2617698   6.110   6.242   3.373 -0.2290 -0.0138  0.3771
  159SAPE   H6R17699   6.066   6.188   3.459  3.7856  1.8899  4.0008
  159SAPE   C2717700   6.246   6.294   3.406 -0.0294 -1.0048  0.5539
  159SAPE   H7R17701   6.227   6.353   3.498  0.2410 -1.1367  0.6969
  159SAPE   H7S17702   6.276   6.370   3.330 -1.1058 -2.4096 -1.3527
  159SAPE   C2817703   6.348   6.191   3.407 -0.0481  0.4136 -0.7238
  159SAPE   H8R17704   6.345   6.113   3.329  0.1358  0.7119 -1.0314
  159SAPE   C2917705   6.460   6.195   3.487 -0.0488  0.5703  0.8629
  159SAPE   H9R17706   6.527   6.108   3.474 -2.6276 -1.1148 -3.1469
  159SAPE  C21017707   6.494   6.301   3.587 -0.0629  0.6780 -0.2506
  159SAPE  H10R17708   6.486   6.251   3.686  0.8012  1.8175  0.4125
  159SAPE  H10S17709   6.423   6.386   3.579  1.9429  2.4562 -0.0752
  159SAPE  C21117710   6.623   6.355   3.537  0.0202  0.6589  0.0229
  159SAPE  H11R17711   6.634   6.394   3.434  1.8085  1.0239  0.3296
  159SAPE  C21217712   6.723   6.389   3.618 -0.3822 -0.7120 -0.7991
  159SAPE  H12R17713   6.805   6.440   3.565 -0.0127 -0.0130  0.4196
  159SAPE  C21317714   6.740   6.356   3.764 -0.5720 -0.8242 -0.0721
  159SAPE  H13R17715   6.839   6.395   3.798 -1.4446  0.2521  1.3266
  159SAPE  H13S17716   6.744   6.246   3.779 -1.8480 -0.9344 -0.4632
  159SAPE  C21417717   6.636   6.418   3.852 -0.5293  0.2933  0.1527
  159SAPE  H14R17718   6.540   6.450   3.809  0.4679  1.4364 -1.3107
  159SAPE  C21517719   6.650   6.424   3.989 -0.2820  0.8016 -0.3964
  159SAPE  H15R17720   6.567   6.477   4.039 -0.1516  0.0820  0.6175
  159SAPE  C21617721   6.770   6.389   4.068 -0.5052 -0.5384  0.0756
  159SAPE  H16R17722   6.782   6.474   4.139 -0.3833  0.9031 -1.6045
  159SAPE  H16S17723   6.859   6.382   4.002  0.3252  0.6540  1.0132
  159SAPE  C21717724   6.755   6.256   4.140 -0.0795  0.6135  0.1423
  159SAPE  H17R17725   6.857   6.234   4.177  0.3195  0.3101 -1.0875
  159SAPE  H17S17726   6.729   6.174   4.069  1.0741  0.3332  0.0308
  159SAPE  C21817727   6.654   6.262   4.258 -0.4420 -0.4738  0.0526
  159SAPE  H18R17728   6.556   6.274   4.208  0.0847 -3.2003 -1.8375
  159SAPE  H18S17729   6.659   6.354   4.320  2.1736 -1.6521  1.8076
  159SAPE  C21917730   6.652   6.140   4.362 -0.8386  0.5047  0.7232
  159SAPE  H19R17731   6.750   6.158   4.411 -0.4263  3.7669 -0.9657
  159SAPE  H19S17732   6.657   6.042   4.310  0.0879  0.6271  0.5608
  159SAPE  C22017733   6.535   6.136   4.458  0.3797 -0.2161  0.0458
  159SAPE  H20R17734   6.577   6.143   4.560  1.4927 -0.6243 -0.3589
  159SAPE  H20S17735   6.478   6.043   4.437 -0.0208  0.2091 -0.8122
  159SAPE  H20T17736   6.467   6.223   4.444 -0.7509 -1.1216 -0.2601
  159SAPE   C3317737   5.969   6.708   3.284  0.7707 -0.9530 -0.7529
  159SAPE   H3X17738   6.035   6.680   3.199  1.9220 -4.1804  1.0121
  159SAPE   H3Y17739   5.909   6.617   3.308 -0.9409  0.7764  2.1310
  159SAPE   C3417740   6.045   6.727   3.417  0.0856 -0.3374 -0.6847
  159SAPE   H4X17741   6.110   6.814   3.395  1.2128 -1.2832 -1.2175
  159SAPE   H4Y17742   6.109   6.640   3.447 -1.8606 -1.6167 -0.0551
  159SAPE   C3517743   5.976   6.758   3.541  0.5418 -0.5683 -0.6070
  159SAPE   H5X17744   5.933   6.664   3.581  0.4799 -1.6005 -2.9522
  159SAPE   H5Y17745   5.894   6.832   3.531  1.4295  1.0499  2.6366
  159SAPE   C3617746   6.065   6.802   3.661  0.5877  0.1224 -1.3309
  159SAPE   H6X17747   6.115   6.896   3.631 -1.0783  1.9960  1.3699
  159SAPE   H6Y17748   6.149   6.736   3.690 -1.7120 -1.8065  1.5241
  159SAPE   C3717749   5.967   6.812   3.786  0.1727 -0.1538  1.0489
  159SAPE   H7X17750   5.909   6.717   3.790  1.6628 -1.2463 -1.3149
  159SAPE   H7Y17751   5.880   6.877   3.761  0.0242 -1.6678 -3.2656
  159SAPE   C3817752   6.022   6.835   3.921  0.0040  0.5601 -0.0902
  159SAPE   H8X17753   6.082   6.928   3.931  0.1904  0.5006 -0.6338
  159SAPE   H8Y17754   6.091   6.751   3.944 -0.8512  0.0952  0.9040
  159SAPE   C3917755   5.913   6.820   4.026  0.6382 -0.2315 -0.3453
  159SAPE   H9X17756   5.886   6.714   4.045  1.8536 -0.8672 -1.8990
  159SAPE   H9Y17757   5.820   6.870   3.992  0.4562 -1.2597 -1.4448
  159SAPE  C31017758   5.952   6.878   4.162  0.2561  0.3163  0.2966
  159SAPE  H10X17759   5.863   6.851   4.222  0.8286 -2.8717 -0.0943
  159SAPE  H10Y17760   5.961   6.989   4.166  1.3115  0.3014 -1.1426
  159SAPE  C31117761   6.079   6.815   4.218  0.0527 -0.1901 -0.1300
  159SAPE  H11X17762   6.163   6.839   4.149 -1.2789  1.0005 -1.4227
  159SAPE  H11Y17763   6.070   6.705   4.230 -0.0737 -0.1055  0.5926
  159SAPE  C31217764   6.129   6.882   4.349 -0.0532 -0.3611 -0.1687
  159SAPE  H12X17765   6.181   6.809   4.416  2.7004  0.2219 -1.5573
  159SAPE  H12Y17766   6.033   6.912   4.395  0.2729 -0.1846  0.4128
  159SAPE  C31317767   6.221   7.006   4.336  0.0651  0.4012  0.5062
  159SAPE  H13X17768   6.188   7.083   4.263 -3.7094 -1.2254  0.2724
  159SAPE  H13Y17769   6.310   6.963   4.285 -1.7515 -1.6292 -1.0999
  159SAPE  C31417770   6.255   7.085   4.464 -0.5108 -0.0518 -0.0253
  159SAPE  H14X17771   6.318   7.172   4.438 -0.0799 -0.3569  0.0003
  159SAPE  H14Y17772   6.316   7.018   4.529 -0.8653  0.3272  0.7090
  159SAPE  C31517773   6.130   7.131   4.540  0.4839 -0.2658  0.1869
  159SAPE  H15X17774   6.065   7.048   4.574 -0.6547  0.8147  0.7064
  159SAPE  H15Y17775   6.055   7.183   4.477  0.8420  0.9347  0.7250
  159SAPE  C31617776   6.158   7.220   4.660  0.0337  0.3790  0.6424
  159SAPE  H16X17777   6.069   7.282   4.681 -1.3254 -1.9605  2.2083
  159SAPE  H16Y17778   6.237   7.286   4.617  0.3940  1.7380  3.1606
  159SAPE  C31717779   6.203   7.145   4.781 -0.3589  0.3686  0.3598
  159SAPE  H17X17780   6.234   7.222   4.855 -1.2185  0.2972  0.8066
  159SAPE  H17Y17781   6.296   7.091   4.755 -1.6021 -0.4950 -2.7612
  159SAPE  C31817782   6.106   7.046   4.843  0.4769 -0.6194  0.4092
  159SAPE  H18X17783   6.083   6.958   4.779  2.5062 -0.9778  0.0948
  159SAPE  H18Y17784   6.013   7.104   4.861  0.9765  0.0328  0.9432
  159SAPE  H18Z17785   6.137   7.023   4.947 -1.5144 -0.2793  1.1035
  160SAPE     N17786   6.105   3.519   2.297  0.0018 -0.4410 -0.1727
  160SAPE   HN117787   6.082   3.446   2.227 -2.1461  0.4717 -0.4694
  160SAPE   HN217788   6.161   3.600   2.263  1.1379 -1.6266 -1.2253
  160SAPE   HN317789   6.161   3.483   2.377 -0.5821  1.9339  1.4176
  160SAPE   C1217790   5.976   3.569   2.353  0.0495 -0.1533 -0.5583
  160SAPE  H12A17791   5.901   3.580   2.271  0.1451  0.4653 -0.5634
  160SAPE  H12B17792   5.995   3.667   2.400  0.1571 -0.9265  1.0945
  160SAPE   C1117793   5.924   3.472   2.464  0.1533 -0.0995 -0.3093
  160SAPE  H11A17794   5.885   3.532   2.549  2.0095  0.1356  0.4088
  160SAPE  H11B17795   6.007   3.424   2.518 -0.0785 -0.6384 -0.4277
  160SAPE     P17796   5.875   3.233   2.386  0.3231  0.0265  0.0252
  160SAPE   O1317797   5.768   3.163   2.311  0.1427  0.1796 -0.1330
  160SAPE   O1417798   6.010   3.226   2.325  0.7378  0.2367  0.0595
  160SAPE   O1217799   5.828   3.381   2.412 -0.3061  0.1940  0.0999
  160SAPE   O1117800   5.880   3.179   2.535  0.2292 -0.0597 -0.1006
  160SAPE    C117801   5.772   3.183   2.626  0.7827 -0.1217 -0.3980
  160SAPE    HA17802   5.680   3.225   2.581 -0.8569 -3.7440 -0.8271
  160SAPE    HB17803   5.742   3.078   2.647 -1.4585  0.5604 -0.0236
  160SAPE    C217804   5.810   3.261   2.754  0.0379 -0.2076 -0.5933
  160SAPE    HS17805   5.829   3.366   2.724 -1.7035 -0.1675 -1.7289
  160SAPE   O2117806   5.919   3.197   2.818 -0.3007 -0.1115 -0.2449
  160SAPE   C2117807   6.042   3.225   2.784  0.5682  0.6610  0.1282
  160SAPE   O2217808   6.075   3.310   2.702 -0.6445 -0.2285  0.4568
  160SAPE   C2217809   6.140   3.141   2.866  0.6095 -0.1182 -0.5147
  160SAPE   H2R17810   6.130   3.038   2.827  1.1668 -0.5522  0.4442
  160SAPE   H2S17811   6.239   3.181   2.834  0.5560  1.2323  0.8779
  160SAPE    C317812   5.685   3.272   2.854 -0.0981 -0.3479  0.2635
  160SAPE    HX17813   5.648   3.175   2.892  1.0163 -0.7913  0.2537
  160SAPE    HY17814   5.614   3.325   2.787  1.0961  2.0523  0.7764
  160SAPE   O3117815   5.704   3.369   2.965 -0.1574  0.2000  0.3257
  160SAPE   C3117816   5.596   3.417   3.027  0.0870 -0.2677  0.0757
  160SAPE   O3217817   5.479   3.390   3.005 -0.3550  0.4120 -0.4445
  160SAPE   C3217818   5.648   3.504   3.153 -0.1819  0.0285  0.1148
  160SAPE   H2X17819   5.604   3.604   3.135 -0.4596 -0.2919 -1.0636
  160SAPE   H2Y17820   5.758   3.511   3.135  0.0730  0.3467  1.6821
  160SAPE   C2317821   6.117   3.153   3.015  0.0272  0.5586 -0.3553
  160SAPE   H3R17822   6.042   3.077   3.047 -1.6786  1.7384 -1.3510
  160SAPE   H3S17823   6.077   3.251   3.050  0.3406  0.0588  1.5388
  160SAPE   C2417824   6.250   3.134   3.093  0.2929  0.1698  0.1582
  160SAPE   H4R17825   6.243   3.183   3.192 -0.0375  0.4290  0.0104
  160SAPE   H4S17826   6.334   3.190   3.047  3.0077 -2.0099  2.1556
  160SAPE   C2517827   6.287   2.994   3.099 -0.0023  0.3654 -0.1926
  160SAPE   H5R17828   6.316   2.960   2.999 -1.2876  1.9694 -1.1586
  160SAPE   C2617829   6.299   2.918   3.209 -0.1598  0.0270 -0.3441
  160SAPE   H6R17830   6.337   2.815   3.199 -0.1918  0.0225 -0.4161
  160SAPE   C2717831   6.268   2.952   3.357 -0.5078  0.1174  0.1143
  160SAPE   H7R17832   6.166   2.995   3.364  0.0947  1.3759  3.8406
  160SAPE   H7S17833   6.331   3.036   3.394 -2.1554  1.6332 -0.3588
  160SAPE   C2817834   6.274   2.827   3.438  0.8821  0.8900 -0.1876
  160SAPE   H8R17835   6.255   2.735   3.380  3.6937  0.0471  0.0541
  160SAPE   C2917836   6.319   2.808   3.563 -0.4599  0.1366  0.3632
  160SAPE   H9R17837   6.309   2.707   3.604  1.7978  0.1065  1.0261
  160SAPE  C21017838   6.358   2.917   3.662 -0.3692 -1.2555  0.1962
  160SAPE  H10R17839   6.266   2.951   3.713  0.0468 -0.7209  0.6002
  160SAPE  H10S17840   6.396   3.006   3.608 -0.6844 -1.8839 -1.1073
  160SAPE  C21117841   6.457   2.886   3.774 -0.1455 -0.7466 -0.5199
  160SAPE  H11R17842   6.562   2.884   3.741  0.4490 -0.5603  1.2497
  160SAPE  C21217843   6.421   2.857   3.903  0.7720  0.2277  0.8604
  160SAPE  H12R17844   6.504   2.852   3.975  1.9069  1.2495 -0.3181
  160SAPE  C21317845   6.277   2.856   3.961 -0.8509 -0.5816 -0.3596
  160SAPE  H13R17846   6.269   2.777   4.039 -0.0766 -0.5867 -0.2756
  160SAPE  H13S17847   6.205   2.820   3.884 -1.0437 -0.1294 -0.3927
  160SAPE  C21417848   6.227   2.992   4.003 -0.2535 -1.1754 -0.4221
  160SAPE  H14R17849   6.282   3.069   3.945 -1.5683 -0.0443 -0.2049
  160SAPE  C21517850   6.148   3.020   4.110 -0.3298 -0.7926 -0.1855
  160SAPE  H15R17851   6.109   3.121   4.130  1.2646 -0.2317  0.2643
  160SAPE  C21617852   6.081   2.916   4.199 -0.0863  0.4117  0.7023
  160SAPE  H16R17853   6.067   2.823   4.141  0.7491  1.1459 -0.7339
  160SAPE  H16S17854   5.977   2.948   4.219 -0.8181 -1.4968  0.0935
  160SAPE  C21717855   6.153   2.885   4.321  0.3263 -0.0127 -0.7737
  160SAPE  H17R17856   6.258   2.864   4.291 -0.3187 -0.4243 -2.9554
  160SAPE  H17S17857   6.114   2.794   4.371  2.5799 -0.7070 -0.1388
  160SAPE  C21817858   6.156   3.002   4.424 -0.5540  0.4871  0.1185
  160SAPE  H18R17859   6.058   3.004   4.477  0.0641  0.6304  1.2877
  160SAPE  H18S17860   6.172   3.097   4.368 -1.2649  0.6548  0.1894
  160SAPE  C21917861   6.266   2.993   4.525 -0.0102 -0.2596  0.1241
  160SAPE  H19R17862   6.365   2.998   4.475 -0.1578 -0.3818 -0.1836
  160SAPE  H19S17863   6.266   2.899   4.583 -0.0012 -0.5548 -0.3524
  160SAPE  C22017864   6.276   3.109   4.630  0.0498  0.1409 -0.2075
  160SAPE  H20R17865   6.194   3.097   4.704  0.0931  0.4409 -0.1083
  160SAPE  H20S17866   6.275   3.215   4.594  1.8368  1.2593  2.7102
  160SAPE  H20T17867   6.360   3.101   4.701 -2.9073  2.4583  4.0305
  160SAPE   C3317868   5.617   3.443   3.286  0.1448 -0.1430  0.6249
  160SAPE   H3X17869   5.677   3.351   3.303  0.4516  0.3582  2.4274
  160SAPE   H3Y17870   5.508   3.417   3.290  0.0219 -0.4515 -2.3304
  160SAPE   C3417871   5.648   3.537   3.401 -0.2693 -1.1698 -0.1528
  160SAPE   H4X17872   5.601   3.634   3.373 -0.7544 -0.9887  1.1928
  160SAPE   H4Y17873   5.756   3.557   3.385 -0.4848 -1.0286 -1.5409
  160SAPE   C3517874   5.595   3.485   3.528 -0.8539 -0.1052 -0.0193
  160SAPE   H5X17875   5.632   3.382   3.550  0.1319  0.3730  0.6737
  160SAPE   H5Y17876   5.485   3.481   3.532 -0.7896 -0.9419  2.2930
  160SAPE   C3617877   5.640   3.578   3.654  0.0506 -0.2072  0.0214
  160SAPE   H6X17878   5.622   3.686   3.632  2.4708  0.3680  0.5791
  160SAPE   H6Y17879   5.748   3.575   3.681  0.0636  0.6946  0.1127
  160SAPE   C3717880   5.571   3.544   3.779 -0.4259  0.4628 -0.5295
  160SAPE   H7X17881   5.619   3.447   3.801  0.5629  1.1938  0.6560
  160SAPE   H7Y17882   5.460   3.537   3.781 -0.5374  0.2816 -3.5001
  160SAPE   C3817883   5.591   3.643   3.893  0.0059  0.3545  0.0604
  160SAPE   H8X17884   5.552   3.743   3.867  0.0971 -0.1447 -2.2885
  160SAPE   H8Y17885   5.700   3.646   3.917 -0.2639  0.0322  1.4097
  160SAPE   C3917886   5.511   3.604   4.021 -0.0377  0.2491 -0.0129
  160SAPE   H9X17887   5.557   3.520   4.077 -2.3960 -0.2895  1.2476
  160SAPE   H9Y17888   5.406   3.585   3.989 -1.1867  1.2740  2.7203
  160SAPE  C31017889   5.508   3.718   4.128  0.6481  0.4270 -0.7225
  160SAPE  H10X17890   5.417   3.723   4.192 -0.2499 -0.7429 -1.8454
  160SAPE  H10Y17891   5.509   3.817   4.078  0.0308 -0.0735 -1.7674
  160SAPE  C31117892   5.621   3.688   4.228 -0.4924 -0.1868 -0.5387
  160SAPE  H11X17893   5.710   3.652   4.172  0.0401  1.6885 -0.9710
  160SAPE  H11Y17894   5.596   3.613   4.305  4.8567 -1.0295  0.7711
  160SAPE  C31217895   5.641   3.823   4.306  0.9512  0.5506  0.5286
  160SAPE  H12X17896   5.546   3.863   4.348  1.4372  0.0301  2.2225
  160SAPE  H12Y17897   5.673   3.894   4.227  0.3313 -0.9369 -1.1094
  160SAPE  C31317898   5.730   3.799   4.427  0.4745 -0.5796  0.1908
  160SAPE  H13X17899   5.784   3.890   4.460  0.3556  0.8111 -3.1252
  160SAPE  H13Y17900   5.813   3.736   4.388  0.3843 -0.7849  0.3286
  160SAPE  C31417901   5.656   3.736   4.542 -0.5075 -0.2148 -0.3419
  160SAPE  H14X17902   5.620   3.641   4.497 -0.3028  0.3607 -1.7781
  160SAPE  H14Y17903   5.586   3.806   4.591  1.4962  1.5651  0.1227
  160SAPE  C31517904   5.757   3.692   4.650 -0.0714 -0.1651  0.6804
  160SAPE  H15X17905   5.857   3.737   4.636 -0.0391 -0.6336 -0.8805
  160SAPE  H15Y17906   5.780   3.584   4.635 -0.2669 -0.2263  0.8111
  160SAPE  C31617907   5.704   3.702   4.798  0.2777 -0.2212  0.2494
  160SAPE  H16X17908   5.617   3.635   4.817  1.9942 -2.5710  0.3387
  160SAPE  H16Y17909   5.690   3.809   4.823 -0.3839 -0.8224  2.7747
  160SAPE  C31717910   5.811   3.641   4.903 -0.2070  0.2417 -0.2533
  160SAPE  H17X17911   5.912   3.681   4.879  0.4223 -0.5071  1.0637
  160SAPE  H17Y17912   5.836   3.538   4.871  3.5060  1.1916 -0.8774
  160SAPE  C31817913   5.769   3.652   5.050 -0.7275  0.2674 -0.3389
  160SAPE  H18X17914   5.772   3.760   5.077 -1.9945  0.0139  0.9283
  160SAPE  H18Y17915   5.831   3.585   5.113 -3.5000 -0.2863  1.9895
  160SAPE  H18Z17916   5.662   3.624   5.054 -1.0293  1.2132 -1.2654
  161SAPE     N17917   4.628   6.494   2.206 -0.3840 -0.0468  0.0285
  161SAPE   HN117918   4.687   6.453   2.281 -0.9773 -0.3398  0.3386
  161SAPE   HN217919   4.634   6.442   2.116  0.2262  1.2719 -0.7214
  161SAPE   HN317920   4.657   6.592   2.190 -0.0621  0.2781  2.3153
  161SAPE   C1217921   4.485   6.481   2.256  1.2044 -0.7419  0.0154
  161SAPE  H12A17922   4.458   6.373   2.253 -1.3372 -0.1747 -2.9107
  161SAPE  H12B17923   4.413   6.538   2.194 -0.0112  0.9709  2.7898
  161SAPE   C1117924   4.477   6.542   2.395 -0.2891 -0.2559 -0.5708
  161SAPE  H11A17925   4.527   6.479   2.472 -3.2933 -1.1106  0.8491
  161SAPE  H11B17926   4.372   6.546   2.431 -0.0030  2.5370  0.1382
  161SAPE     P17927   4.439   6.798   2.354 -0.2050  0.1088  0.2537
  161SAPE   O1317928   4.512   6.922   2.348  0.1049 -0.5787 -0.4719
  161SAPE   O1417929   4.375   6.754   2.230  0.1844 -0.5815  0.2633
  161SAPE   O1217930   4.532   6.678   2.396 -0.0554  0.1934 -0.3523
  161SAPE   O1117931   4.333   6.797   2.469  0.5413  0.0386  0.5075
  161SAPE    C117932   4.361   6.864   2.592 -0.4654  0.5396 -0.3535
  161SAPE    HA17933   4.468   6.883   2.615 -0.7218  1.6267  0.0488
  161SAPE    HB17934   4.314   6.965   2.595 -0.3402  0.5927 -0.1413
  161SAPE    C217935   4.292   6.789   2.711  0.1275  0.4005 -0.0779
  161SAPE    HS17936   4.190   6.790   2.669  0.8120  0.8947 -1.8268
  161SAPE   O2117937   4.304   6.867   2.835  0.3467  0.0978  0.1612
  161SAPE   C2117938   4.246   6.823   2.944 -0.3437  0.0769  0.4616
  161SAPE   O2217939   4.149   6.746   2.949  0.2982  0.2373  0.3900
  161SAPE   C2217940   4.311   6.891   3.065 -0.6553  0.5896  0.8149
  161SAPE   H2R17941   4.371   6.980   3.038  0.8506 -0.9607 -1.2760
  161SAPE   H2S17942   4.230   6.942   3.122 -0.6847  0.1290  1.1943
  161SAPE    C317943   4.353   6.645   2.730  0.6489 -0.1281 -0.1882
  161SAPE    HX17944   4.320   6.597   2.635 -0.1065 -0.3282  0.1608
  161SAPE    HY17945   4.301   6.599   2.817  0.6249 -1.9188 -1.1097
  161SAPE   O3117946   4.498   6.644   2.743  0.0830 -0.1965 -0.8071
  161SAPE   C3117947   4.552   6.531   2.728 -1.0699 -0.0700  0.7451
  161SAPE   O3217948   4.500   6.420   2.718  0.5550 -0.3194  0.7522
  161SAPE   C3217949   4.705   6.544   2.736 -0.8825  0.3606 -0.5112
  161SAPE   H2X17950   4.742   6.567   2.634  2.3455 -3.9502 -0.5922
  161SAPE   H2Y17951   4.748   6.442   2.746 -0.7583  0.3509 -1.1213
  161SAPE   C2317952   4.398   6.797   3.146 -0.8001  0.0679 -0.1474
  161SAPE   H3R17953   4.447   6.852   3.229 -1.7591  2.5474 -1.1226
  161SAPE   H3S17954   4.480   6.762   3.079 -1.8413 -2.4626 -0.2032
  161SAPE   C2417955   4.328   6.670   3.198 -0.3687 -0.2549  0.1504
  161SAPE   H4R17956   4.397   6.601   3.251  0.0959  1.4641  1.8959
  161SAPE   H4S17957   4.288   6.619   3.108 -0.8098  1.1269 -0.4571
  161SAPE   C2517958   4.203   6.716   3.273  0.9020 -0.3450  0.8272
  161SAPE   H5R17959   4.119   6.751   3.211  2.4894  0.2704 -1.0875
  161SAPE   C2617960   4.186   6.715   3.404  0.9380 -0.9633  0.2625
  161SAPE   H6R17961   4.086   6.739   3.443  2.1171  1.6530  1.9413
  161SAPE   C2717962   4.290   6.687   3.513 -0.0551  0.3735 -0.3057
  161SAPE   H7R17963   4.391   6.708   3.470  1.2456 -2.5393  1.0048
  161SAPE   H7S17964   4.278   6.581   3.546 -0.9515  0.6946  0.4402
  161SAPE   C2817965   4.271   6.787   3.632 -0.0184  0.0352  0.5875
  161SAPE   H8R17966   4.245   6.892   3.612 -2.3745 -0.7767 -1.1417
  161SAPE   C2917967   4.290   6.749   3.764 -0.1626 -0.1308  0.7004
  161SAPE   H9R17968   4.265   6.823   3.843  3.5237  1.1872  0.8106
  161SAPE  C21017969   4.335   6.617   3.817 -0.6461  0.5791 -0.0580
  161SAPE  H10R17970   4.352   6.540   3.738 -0.7507  2.0565 -1.5550
  161SAPE  H10S17971   4.257   6.575   3.884  1.3953 -1.8184  1.0395
  161SAPE  C21117972   4.467   6.641   3.883  1.2075 -0.3585  0.0856
  161SAPE  H11R17973   4.555   6.651   3.818  1.1126  0.1079  0.0243
  161SAPE  C21217974   4.485   6.657   4.017  0.5227 -0.2682 -0.1239
  161SAPE  H12R17975   4.587   6.667   4.057  0.3028 -1.0467  0.6621
  161SAPE  C21317976   4.375   6.659   4.124  0.2400 -0.1357 -0.2148
  161SAPE  H13R17977   4.277   6.642   4.074 -0.6426  0.9381  1.0503
  161SAPE  H13S17978   4.361   6.755   4.179 -2.6131  0.5257 -1.8613
  161SAPE  C21417979   4.418   6.546   4.218  0.6490 -0.7478 -0.3488
  161SAPE  H14R17980   4.440   6.452   4.166  0.4542 -0.7449 -0.4361
  161SAPE  C21517981   4.434   6.557   4.352  0.7800 -0.5557  0.2739
  161SAPE  H15R17982   4.453   6.465   4.410 -0.9534 -2.2151 -1.6393
  161SAPE  C21617983   4.402   6.679   4.438  0.7666  0.0033 -0.4945
  161SAPE  H16R17984   4.297   6.710   4.422  0.6052 -0.3693 -0.1953
  161SAPE  H16S17985   4.471   6.762   4.412  0.8684 -0.2432 -1.0345
  161SAPE  C21717986   4.422   6.648   4.590 -0.8291  0.4467 -0.0357
  161SAPE  H17R17987   4.416   6.751   4.630 -0.2970  0.7129 -0.6273
  161SAPE  H17S17988   4.525   6.608   4.607 -1.6434 -1.0326  1.8213
  161SAPE  C21817989   4.316   6.558   4.654  0.4867  0.8581  0.1976
  161SAPE  H18R17990   4.307   6.460   4.603 -1.3811  1.9446 -1.7444
  161SAPE  H18S17991   4.223   6.620   4.649  0.7716  1.7342  3.4450
  161SAPE  C21917992   4.351   6.522   4.801 -0.6605  0.2792 -0.1535
  161SAPE  H19R17993   4.438   6.453   4.804 -1.2280 -0.4205  1.3052
  161SAPE  H19S17994   4.270   6.455   4.839  0.6610 -1.1338  0.2619
  161SAPE  C22017995   4.371   6.639   4.889 -0.3188  0.9831  0.6393
  161SAPE  H20R17996   4.454   6.707   4.858 -0.4266  0.7844 -0.1204
  161SAPE  H20S17997   4.396   6.619   4.995  0.0265  0.2556  0.4296
  161SAPE  H20T17998   4.270   6.684   4.897 -2.1242 -2.6432  0.3282
  161SAPE   C3317999   4.761   6.643   2.838 -1.0102 -0.1169  0.2366
  161SAPE   H3X18000   4.709   6.741   2.827 -0.8777  0.1093  1.5000
  161SAPE   H3Y18001   4.866   6.673   2.820 -0.7396 -1.3903 -0.4464
  161SAPE   C3418002   4.749   6.583   2.980  0.6757  1.1825  0.2327
  161SAPE   H4X18003   4.750   6.472   2.974 -5.2180  0.8206  0.1100
  161SAPE   H4Y18004   4.651   6.609   3.026  0.5695  0.8116  0.2153
  161SAPE   C3518005   4.861   6.618   3.078  0.6284  0.2720 -0.7537
  161SAPE   H5X18006   4.874   6.728   3.069  0.4260  0.2501 -1.4212
  161SAPE   H5Y18007   4.955   6.578   3.034  0.4854 -0.4707 -0.3997
  161SAPE   C3618008   4.840   6.566   3.219  0.5685 -0.4657  0.3644
  161SAPE   H6X18009   4.937   6.545   3.269  1.7936  1.5204 -1.0274
  161SAPE   H6Y18010   4.794   6.470   3.189 -0.4595  0.4660 -1.1951
  161SAPE   C3718011   4.754   6.666   3.291 -0.0719  0.3443 -0.1377
  161SAPE   H7X18012   4.665   6.688   3.229 -1.0979  1.3760  1.5993
  161SAPE   H7Y18013   4.807   6.761   3.312  0.5625 -0.4812  2.3780
  161SAPE   C3818014   4.700   6.613   3.426  0.0140  0.0645 -0.0304
  161SAPE   H8X18015   4.616   6.682   3.450  2.5584  3.1864  0.5980
  161SAPE   H8Y18016   4.779   6.614   3.504 -0.2291  1.4735  0.2228
  161SAPE   C3918017   4.646   6.476   3.411  0.0284 -0.0822 -0.0346
  161SAPE   H9X18018   4.706   6.402   3.353  0.2761  0.1748 -0.1050
  161SAPE   H9Y18019   4.556   6.490   3.347 -0.1430 -1.4421 -0.1345
  161SAPE  C31018020   4.585   6.403   3.540 -0.3371  0.6711  0.3185
  161SAPE  H10X18021   4.523   6.317   3.508 -0.5478  0.8355  0.2855
  161SAPE  H10Y18022   4.505   6.464   3.586 -1.1918 -1.1987  1.4223
  161SAPE  C31118023   4.686   6.354   3.642  0.0075  0.2511  0.2109
  161SAPE  H11X18024   4.760   6.433   3.666  2.2168 -1.0347 -1.9006
  161SAPE  H11Y18025   4.755   6.278   3.599  0.0450  1.0347 -1.1884
  161SAPE  C31218026   4.629   6.301   3.770 -0.4358 -0.0342 -0.1177
  161SAPE  H12X18027   4.571   6.207   3.757  0.1953 -0.0946 -3.3353
  161SAPE  H12Y18028   4.557   6.379   3.804  1.8104  1.8011  0.7112
  161SAPE  C31318029   4.734   6.284   3.877 -0.2031  0.1041  0.0003
  161SAPE  H13X18030   4.811   6.364   3.874  1.6990 -1.5461  1.5466
  161SAPE  H13Y18031   4.786   6.189   3.853 -0.9031  0.2335 -2.3253
  161SAPE  C31418032   4.676   6.290   4.022  0.1892 -1.4007  1.1612
  161SAPE  H14X18033   4.650   6.397   4.036  2.0456 -0.6877 -0.3987
  161SAPE  H14Y18034   4.754   6.257   4.094 -0.7637 -1.8024  2.0279
  161SAPE  C31518035   4.554   6.195   4.056 -0.6870  0.0497 -0.1102
  161SAPE  H15X18036   4.582   6.096   4.015  0.1513 -0.0857  0.7482
  161SAPE  H15Y18037   4.465   6.245   4.011  0.1412  1.3131 -0.3900
  161SAPE  C31618038   4.539   6.175   4.205  0.1671 -0.1835 -0.1881
  161SAPE  H16X18039   4.519   6.272   4.256 -0.9513 -1.0096  0.9924
  161SAPE  H16Y18040   4.638   6.138   4.240 -0.0089 -0.6933 -0.2296
  161SAPE  C31718041   4.423   6.083   4.245 -0.3084 -0.9086  0.5507
  161SAPE  H17X18042   4.418   6.067   4.355  0.4426  0.8098  0.8681
  161SAPE  H17Y18043   4.449   5.988   4.193  0.7583  0.4606 -1.5692
  161SAPE  C31818044   4.282   6.124   4.197 -0.4248 -0.0927 -0.1230
  161SAPE  H18X18045   4.302   6.206   4.124 -2.6505  0.7737  0.1565
  161SAPE  H18Y18046   4.220   6.162   4.280  0.2077 -0.3239  0.4595
  161SAPE  H18Z18047   4.232   6.037   4.149 -1.7751  0.1598  0.7931
  162SAPE     N18048   3.512   4.856   2.525  0.2088 -0.6640 -0.5128
  162SAPE   HN118049   3.489   4.957   2.537  0.9572 -0.4078 -1.0895
  162SAPE   HN218050   3.419   4.811   2.538 -1.7283  3.3041  0.9313
  162SAPE   HN318051   3.580   4.836   2.601  0.3729 -3.2202 -1.2564
  162SAPE   C1218052   3.579   4.841   2.391 -0.6854  0.3891 -0.0735
  162SAPE  H12A18053   3.689   4.849   2.403 -0.5083  0.8738 -1.7150
  162SAPE  H12B18054   3.542   4.923   2.326  0.6969 -0.0688 -1.5142
  162SAPE   C1118055   3.544   4.709   2.324 -0.0101 -0.0135  0.3124
  162SAPE  H11A18056   3.542   4.633   2.405 -0.7073  0.6196  0.9198
  162SAPE  H11B18057   3.621   4.681   2.250 -1.4530  0.4846 -1.4703
  162SAPE     P18058   3.295   4.643   2.307 -0.4545 -0.3104 -0.2463
  162SAPE   O1318059   3.165   4.709   2.276 -0.0654 -0.2815 -0.7600
  162SAPE   O1418060   3.314   4.505   2.264  0.0872 -0.1020 -0.0186
  162SAPE   O1218061   3.423   4.727   2.258  0.4866 -0.1212  0.9772
  162SAPE   O1118062   3.320   4.648   2.461 -0.2187 -0.4132  0.1571
  162SAPE    C118063   3.253   4.568   2.556  0.5615 -0.5577  0.0116
  162SAPE    HA18064   3.192   4.646   2.607  0.7882 -0.3261 -0.0676
  162SAPE    HB18065   3.182   4.496   2.510  0.6770 -0.1160 -0.8770
  162SAPE    C218066   3.337   4.501   2.665 -0.0740  1.0423 -0.0355
  162SAPE    HS18067   3.262   4.438   2.718  0.6550 -1.7294 -2.0680
  162SAPE   O2118068   3.395   4.608   2.752  0.4493  0.4064 -0.1402
  162SAPE   C2118069   3.305   4.655   2.843  0.1698  0.0281 -0.3416
  162SAPE   O2218070   3.195   4.609   2.875  0.3499  0.6860  0.8255
  162SAPE   C2218071   3.379   4.768   2.913 -1.2236  0.4423  0.1632
  162SAPE   H2R18072   3.479   4.724   2.936 -1.7873  1.1143  5.0627
  162SAPE   H2S18073   3.401   4.839   2.830  1.1975 -0.7049 -0.2526
  162SAPE    C318074   3.449   4.412   2.598  1.0468  0.0869  0.7022
  162SAPE    HX18075   3.522   4.490   2.566  1.3692 -0.6448 -0.3720
  162SAPE    HY18076   3.403   4.364   2.509  0.2487  0.2546  1.0151
  162SAPE   O3118077   3.502   4.319   2.685 -0.3864  0.4610 -0.3746
  162SAPE   C3118078   3.535   4.202   2.629  0.6065 -0.4187 -0.2810
  162SAPE   O3218079   3.529   4.178   2.509 -0.6086  0.6214 -0.4753
  162SAPE   C3218080   3.586   4.093   2.719  0.4716 -0.0790 -0.0003
  162SAPE   H2X18081   3.697   4.094   2.716  0.6849 -3.5331  1.7056
  162SAPE   H2Y18082   3.565   3.993   2.676  0.7410 -0.3925  0.5861
  162SAPE   C2318083   3.314   4.828   3.038 -0.1330 -0.4638 -0.0691
  162SAPE   H3R18084   3.295   4.741   3.104 -0.5933  1.6939  2.8138
  162SAPE   H3S18085   3.218   4.875   3.007  0.8054 -0.2595 -2.9490
  162SAPE   C2418086   3.410   4.920   3.119 -0.2536 -0.7360 -0.0961
  162SAPE   H4R18087   3.494   4.859   3.156 -0.9024 -1.1113  0.7944
  162SAPE   H4S18088   3.352   4.965   3.203 -1.3934 -0.7030 -0.8630
  162SAPE   C2518089   3.471   5.037   3.051 -0.5243  0.4889 -0.2355
  162SAPE   H5R18090   3.533   5.013   2.964 -0.5382 -1.0191  0.1456
  162SAPE   C2618091   3.448   5.168   3.073  0.6288  0.2379 -0.2737
  162SAPE   H6R18092   3.502   5.233   3.003 -1.2899  0.9956 -1.1283
  162SAPE   C2718093   3.345   5.223   3.172  0.3311 -0.0623 -0.5549
  162SAPE   H7R18094   3.392   5.285   3.251 -1.2210 -1.4727  1.5762
  162SAPE   H7S18095   3.301   5.140   3.230  0.3471 -0.2077 -0.7497
  162SAPE   C2818096   3.244   5.321   3.114  0.4798 -0.1102  1.0204
  162SAPE   H8R18097   3.283   5.383   3.031 -0.9118  0.6320  0.9013
  162SAPE   C2918098   3.117   5.340   3.151  0.0691  0.4549  0.6871
  162SAPE   H9R18099   3.064   5.415   3.091  0.5003 -1.0538 -1.7494
  162SAPE  C21018100   3.053   5.268   3.261  0.2231 -0.2000 -0.1690
  162SAPE  H10R18101   3.111   5.187   3.311 -1.3912  0.2633  2.6551
  162SAPE  H10S18102   2.958   5.225   3.223  0.0969  1.2164 -1.5593
  162SAPE  C21118103   3.026   5.371   3.365 -0.6277  0.0783  0.1123
  162SAPE  H11R18104   2.967   5.458   3.332 -0.7733 -0.3828 -0.8754
  162SAPE  C21218105   3.078   5.376   3.494  0.0567 -0.0855 -0.4600
  162SAPE  H12R18106   3.045   5.457   3.560 -2.5096 -0.0101 -1.7089
  162SAPE  C21318107   3.182   5.287   3.551 -0.3503 -0.0146  0.1154
  162SAPE  H13R18108   3.258   5.349   3.603  0.2962 -0.3193 -0.4452
  162SAPE  H13S18109   3.242   5.238   3.471  1.4567  2.4427 -0.1717
  162SAPE  C21418110   3.139   5.170   3.635  0.1051 -0.5874  0.3498
  162SAPE  H14R18111   3.042   5.134   3.598  0.0358 -0.5631  0.5056
  162SAPE  C21518112   3.202   5.091   3.723  0.5628 -0.0110 -0.1544
  162SAPE  H15R18113   3.143   5.009   3.767 -1.3546  0.9555 -0.8252
  162SAPE  C21618114   3.335   5.112   3.782 -0.7084  0.3121 -1.0129
  162SAPE  H16R18115   3.390   5.190   3.725  0.5834  0.6677  0.6270
  162SAPE  H16S18116   3.390   5.018   3.763  0.1270  0.4113  0.7207
  162SAPE  C21718117   3.343   5.161   3.928 -0.4954  0.9855 -0.8278
  162SAPE  H17R18118   3.284   5.255   3.928  0.3558  1.5671 -2.6354
  162SAPE  H17S18119   3.445   5.173   3.970 -1.2508 -0.8294  1.8066
  162SAPE  C21818120   3.280   5.060   4.030 -0.2788  0.5869 -0.4841
  162SAPE  H18R18121   3.327   4.960   4.021 -2.2588 -0.5243  0.7702
  162SAPE  H18S18122   3.171   5.056   4.010  0.0129  1.0592 -2.3257
  162SAPE  C21918123   3.299   5.102   4.180 -1.0217 -0.3528  0.3607
  162SAPE  H19R18124   3.273   5.210   4.190 -1.8541 -0.6459  1.6361
  162SAPE  H19S18125   3.406   5.096   4.210  0.1992  1.0176 -3.1777
  162SAPE  C22018126   3.207   5.035   4.280  0.0541  0.1176 -0.2539
  162SAPE  H20R18127   3.106   5.014   4.238  0.4115 -0.0405 -1.0666
  162SAPE  H20S18128   3.191   5.098   4.370  3.1155  1.3236 -0.4176
  162SAPE  H20T18129   3.245   4.932   4.297 -1.0687 -0.3751 -0.6310
  162SAPE   C3318130   3.542   4.092   2.867 -0.2344 -0.6440 -0.7997
  162SAPE   H3X18131   3.527   4.198   2.898  1.3319 -0.5649 -0.1970
  162SAPE   H3Y18132   3.619   4.045   2.931  0.1953 -1.0490 -1.6023
  162SAPE   C3418133   3.412   4.013   2.888 -0.1084  0.6792 -0.1402
  162SAPE   H4X18134   3.416   3.906   2.858  2.3079  0.5710  0.3782
  162SAPE   H4Y18135   3.341   4.065   2.821 -0.0989 -0.8422 -1.3930
  162SAPE   C3518136   3.364   4.028   3.034  0.0475  0.1498 -0.2282
  162SAPE   H5X18137   3.351   4.138   3.048  2.1230  0.1947  1.8300
  162SAPE   H5Y18138   3.442   3.985   3.100  1.0956  0.9601 -0.9046
  162SAPE   C3618139   3.222   3.976   3.070  1.0029  0.2266  0.0588
  162SAPE   H6X18140   3.215   3.866   3.058 -1.0646  0.1873  1.1802
  162SAPE   H6Y18141   3.141   4.016   3.006  0.3956 -1.9086 -0.5946
  162SAPE   C3718142   3.193   4.011   3.215  0.2360 -0.7919  0.3041
  162SAPE   H7X18143   3.205   4.119   3.238  0.8492 -0.3626 -1.8100
  162SAPE   H7Y18144   3.273   3.956   3.269 -0.2788 -0.4050  1.5164
  162SAPE   C3818145   3.061   3.965   3.266  0.1816 -0.1377 -0.6875
  162SAPE   H8X18146   3.063   3.856   3.243  0.6227  0.1321 -2.0426
  162SAPE   H8Y18147   2.969   3.997   3.212 -0.5548 -0.7275  0.1886
  162SAPE   C3918148   3.039   3.996   3.416 -0.6250  0.0207  0.0357
  162SAPE   H9X18149   3.036   4.104   3.438 -1.7255 -0.0959  0.4806
  162SAPE   H9Y18150   3.125   3.947   3.468 -0.2432 -0.1769 -0.7546
  162SAPE  C31018151   2.918   3.928   3.483  0.4273 -0.5933  0.3242
  162SAPE  H10X18152   2.947   3.820   3.487  0.3500 -0.6212  0.1569
  162SAPE  H10Y18153   2.826   3.948   3.424  0.1035 -0.0921  0.9967
  162SAPE  C31118154   2.903   3.979   3.623  0.6411 -0.1238  0.1933
  162SAPE  H11X18155   2.859   4.080   3.611  1.7816  0.2489 -1.1495
  162SAPE  H11Y18156   3.004   3.990   3.669 -0.0053  2.2185  1.1822
  162SAPE  C31218157   2.809   3.895   3.707 -0.4326  0.0454 -0.1382
  162SAPE  H12X18158   2.855   3.801   3.743  0.5291  0.4259 -0.3511
  162SAPE  H12Y18159   2.709   3.881   3.661 -1.4164 -2.9334  2.5568
  162SAPE  C31318160   2.777   3.977   3.826  0.0156  0.5021  0.2268
  162SAPE  H13X18161   2.707   3.923   3.893  2.7931 -1.6324  1.6465
  162SAPE  H13Y18162   2.729   4.073   3.797 -1.4983  0.2598  1.7845
  162SAPE  C31418163   2.895   4.031   3.905  0.1084 -0.1463  0.2063
  162SAPE  H14X18164   2.950   4.115   3.856 -0.0614 -1.3917 -2.2901
  162SAPE  H14Y18165   2.965   3.945   3.904 -1.6547 -1.6197  0.0669
  162SAPE  C31518166   2.854   4.065   4.050 -0.2910 -0.0295 -0.0170
  162SAPE  H15X18167   2.812   3.982   4.111  0.8005 -2.0893 -1.9056
  162SAPE  H15Y18168   2.772   4.136   4.028  0.8577  1.3975  0.1442
  162SAPE  C31618169   2.968   4.130   4.123  0.6718 -0.2504  0.1479
  162SAPE  H16X18170   3.011   4.203   4.051 -2.8219  0.8075 -1.1179
  162SAPE  H16Y18171   3.037   4.051   4.160  0.1486  0.7300  3.5485
  162SAPE  C31718172   2.917   4.206   4.240  0.2172 -0.2618  0.0839
  162SAPE  H17X18173   2.850   4.288   4.206  1.4797  0.2357 -1.3701
  162SAPE  H17Y18174   3.009   4.256   4.278  0.1571  0.2866 -0.4713
  162SAPE  C31818175   2.871   4.129   4.359  0.2840  0.4214  0.2571
  162SAPE  H18X18176   2.799   4.048   4.336  0.7970 -0.8457  2.7448
  162SAPE  H18Y18177   2.826   4.199   4.433 -1.2107  1.4081 -1.4837
  162SAPE  H18Z18178   2.956   4.082   4.412  1.7077  0.9994 -1.4245
  163SAPE     N18179   4.141   1.701   2.398  0.2341  0.1489  0.5042
  163SAPE   HN118180   4.242   1.714   2.379 -0.2605  3.1774 -0.5838
  163SAPE   HN218181   4.126   1.603   2.432  1.7129 -0.9481 -1.7317
  163SAPE   HN318182   4.103   1.704   2.301  1.9488  0.9283 -0.1712
  163SAPE   C1218183   4.093   1.818   2.483  0.5143  0.5084  0.5413
  163SAPE  H12A18184   4.037   1.877   2.408  0.1174 -1.4938 -0.8056
  163SAPE  H12B18185   4.183   1.879   2.504  0.7434  0.7150 -0.9477
  163SAPE   C1118186   4.028   1.756   2.603  0.7960 -0.0760 -0.4411
  163SAPE  H11A18187   4.006   1.838   2.675 -4.3125  0.8190 -2.5546
  163SAPE  H11B18188   4.096   1.683   2.650  1.1547  0.3005 -0.3732
  163SAPE     P18189   3.854   1.553   2.642  0.1914  0.2759  0.1972
  163SAPE   O1318190   3.718   1.520   2.605 -0.5796  0.7245 -0.8954
  163SAPE   O1418191   3.956   1.447   2.632  0.3549 -0.1022  0.4265
  163SAPE   O1218192   3.904   1.686   2.564 -0.0523 -0.2492 -0.6776
  163SAPE   O1118193   3.872   1.598   2.789 -0.7144 -0.1339  0.6555
  163SAPE    C118194   3.808   1.706   2.849 -0.4567  0.0546 -0.3384
  163SAPE    HA18195   3.875   1.794   2.836  1.0599 -1.0059  0.1166
  163SAPE    HB18196   3.705   1.721   2.810 -0.9267  0.9943  1.1806
  163SAPE    C218197   3.783   1.704   3.005 -0.3457  0.0989  0.2467
  163SAPE    HS18198   3.882   1.734   3.044 -0.4455  0.2827  0.3610
  163SAPE   O2118199   3.743   1.573   3.046  0.7597 -0.6609 -0.0560
  163SAPE   C2118200   3.802   1.524   3.151 -0.8918  0.0116 -0.2585
  163SAPE   O2218201   3.896   1.573   3.210 -0.2079 -0.5628  0.0278
  163SAPE   C2218202   3.741   1.387   3.185 -0.9391  0.0178  0.9835
  163SAPE   H2R18203   3.814   1.347   3.258 -0.9081 -3.2158 -0.6631
  163SAPE   H2S18204   3.642   1.404   3.231 -1.2111 -1.2653  0.9054
  163SAPE    C318205   3.676   1.799   3.042 -0.4243 -0.1287 -0.0493
  163SAPE    HX18206   3.579   1.748   3.021 -0.4432  0.7590 -2.4513
  163SAPE    HY18207   3.690   1.894   2.986 -0.6118 -0.1825 -0.1900
  163SAPE   O3118208   3.687   1.820   3.176  0.6053  0.2834 -0.4009
  163SAPE   C3118209   3.759   1.930   3.206 -0.0653  0.3167 -0.0782
  163SAPE   O3218210   3.819   1.999   3.131 -0.9578 -0.5626  0.4692
  163SAPE   C3218211   3.772   1.943   3.356  0.4153  0.4541  0.2802
  163SAPE   H2X18212   3.730   2.046   3.369  1.9435  1.3011 -1.1788
  163SAPE   H2Y18213   3.881   1.942   3.377  0.3528 -3.6587  1.1056
  163SAPE   C2318214   3.740   1.286   3.069  0.0294  0.5318  0.3190
  163SAPE   H3R18215   3.834   1.292   3.010  0.6637  0.0477  1.2571
  163SAPE   H3S18216   3.654   1.310   3.002  1.0742  0.0359 -1.2593
  163SAPE   C2418217   3.722   1.140   3.115  0.2486  0.1136 -0.2937
  163SAPE   H4R18218   3.792   1.141   3.202  1.0537  1.0476 -0.9167
  163SAPE   H4S18219   3.761   1.066   3.042 -0.6850 -0.4691 -0.2160
  163SAPE   C2518220   3.580   1.100   3.149  0.1178 -0.3073  0.0105
  163SAPE   H5R18221   3.516   1.096   3.060  0.7258  1.6051 -0.5766
  163SAPE   C2618222   3.521   1.088   3.272  0.1309  0.5105 -0.6073
  163SAPE   H6R18223   3.418   1.052   3.288 -0.2076  1.2197 -1.1431
  163SAPE   C2718224   3.604   1.095   3.399 -0.7812  0.0353 -0.2010
  163SAPE   H7R18225   3.529   1.110   3.479 -0.1231 -0.8002  0.5867
  163SAPE   H7S18226   3.652   1.195   3.411 -0.8695 -0.2498  3.6306
  163SAPE   C2818227   3.705   0.985   3.411  0.3232  0.4775 -0.0358
  163SAPE   H8R18228   3.747   0.944   3.318 -2.0548  0.3586 -1.1152
  163SAPE   C2918229   3.745   0.950   3.534  0.1213 -0.5654 -0.3479
  163SAPE   H9R18230   3.828   0.878   3.545 -0.8042 -1.4693  1.1129
  163SAPE  C21018231   3.703   1.008   3.671 -0.6016  0.6695  0.1407
  163SAPE  H10R18232   3.638   1.097   3.663 -1.3842 -0.0693 -3.9588
  163SAPE  H10S18233   3.800   1.043   3.713 -1.3235  1.8953  0.8399
  163SAPE  C21118234   3.639   0.912   3.763 -0.0158  0.2603 -0.1468
  163SAPE  H11R18235   3.620   0.813   3.720 -1.3384 -0.2009  1.3867
  163SAPE  C21218236   3.623   0.927   3.895  0.1414  0.2814 -0.3288
  163SAPE  H12R18237   3.571   0.851   3.956  1.6492 -1.8403 -1.5649
  163SAPE  C21318238   3.661   1.046   3.968 -0.7484 -0.3657 -0.4921
  163SAPE  H13R18239   3.568   1.094   4.004 -0.0084  0.4025  0.4761
  163SAPE  H13S18240   3.717   1.121   3.907 -1.2236  1.2196  0.9255
  163SAPE  C21418241   3.749   1.019   4.087  0.2295  0.0888  0.4091
  163SAPE  H14R18242   3.773   0.913   4.107 -0.1177  0.3527  2.3810
  163SAPE  C21518243   3.792   1.112   4.176  0.1859  0.8046  0.0749
  163SAPE  H15R18244   3.855   1.078   4.260  1.3223 -0.7426 -1.3288
  163SAPE  C21618245   3.758   1.262   4.170 -0.0984  1.3961  0.0730
  163SAPE  H16R18246   3.656   1.290   4.204  0.1806 -0.4454  2.6457
  163SAPE  H16S18247   3.764   1.308   4.069 -1.3460  0.2769 -0.5391
  163SAPE  C21718248   3.852   1.350   4.252 -0.3842 -0.7468  0.5999
  163SAPE  H17R18249   3.840   1.456   4.221 -1.0981 -1.0663 -0.2209
  163SAPE  H17S18250   3.955   1.328   4.215  0.3684  3.5106 -0.3520
  163SAPE  C21818251   3.834   1.328   4.409 -0.1986 -0.7026  0.4029
  163SAPE  H18R18252   3.890   1.236   4.436 -0.3355 -0.0940  3.0567
  163SAPE  H18S18253   3.730   1.314   4.445  0.8716  0.7395  4.7227
  163SAPE  C21918254   3.901   1.425   4.506 -0.3077 -0.1304  0.0563
  163SAPE  H19R18255   3.887   1.387   4.609 -0.3647  3.0979  1.3748
  163SAPE  H19S18256   3.846   1.521   4.498 -2.5566 -1.2344  1.4712
  163SAPE  C22018257   4.052   1.453   4.488  0.5315 -0.0144 -0.9477
  163SAPE  H20R18258   4.077   1.499   4.391  0.5263  2.6521  0.2226
  163SAPE  H20S18259   4.115   1.362   4.486 -0.4046 -0.8440  1.8332
  163SAPE  H20T18260   4.097   1.517   4.567 -0.3584 -1.0861  0.4870
  163SAPE   C3318261   3.688   1.839   3.436 -0.3540  0.3377 -0.0295
  163SAPE   H3X18262   3.727   1.738   3.414  0.7281  0.7205  0.1045
  163SAPE   H3Y18263   3.586   1.822   3.393 -0.5216 -0.1783  0.5651
  163SAPE   C3418264   3.676   1.867   3.583  0.3378 -0.5058  0.2017
  163SAPE   H4X18265   3.645   1.974   3.595 -2.2525 -1.1879  0.2262
  163SAPE   H4Y18266   3.779   1.863   3.625 -0.0756  0.8514  1.4598
  163SAPE   C3518267   3.563   1.796   3.659  0.6036  0.0812  0.3728
  163SAPE   H5X18268   3.579   1.688   3.638  1.6121  0.6620 -2.1884
  163SAPE   H5Y18269   3.466   1.819   3.609  1.1221  0.3829 -0.5130
  163SAPE   C3618270   3.548   1.811   3.811 -0.3249  0.6854 -0.4068
  163SAPE   H6X18271   3.640   1.765   3.853 -0.3822  0.6887 -0.2774
  163SAPE   H6Y18272   3.460   1.752   3.843  0.4119  0.7886  1.9775
  163SAPE   C3718273   3.539   1.954   3.861  0.4206  0.0531 -0.1187
  163SAPE   H7X18274   3.466   2.014   3.803 -0.2947 -1.5215 -0.9098
  163SAPE   H7Y18275   3.635   1.999   3.827 -0.2077  1.0030 -0.6925
  163SAPE   C3818276   3.520   1.955   4.014  0.0156  0.3779 -0.8770
  163SAPE   H8X18277   3.614   1.916   4.061 -1.2298 -1.6177  0.1026
  163SAPE   H8Y18278   3.434   1.890   4.040  1.7880 -1.1741  1.6356
  163SAPE   C3918279   3.481   2.093   4.084  0.2468 -0.0465  0.1316
  163SAPE   H9X18280   3.384   2.129   4.044  0.6709  1.7120  0.5819
  163SAPE   H9Y18281   3.558   2.160   4.042 -0.4153 -0.4960 -1.8839
  163SAPE  C31018282   3.498   2.100   4.237  0.0781 -0.3741 -0.4152
  163SAPE  H10X18283   3.518   2.204   4.269 -1.8608  0.2949 -1.2356
  163SAPE  H10Y18284   3.575   2.030   4.275  0.7828  0.0354 -1.0766
  163SAPE  C31118285   3.370   2.080   4.322 -0.1074  0.1864  0.3196
  163SAPE  H11X18286   3.323   2.180   4.325  1.7518  1.1008  1.2128
  163SAPE  H11Y18287   3.396   2.056   4.427 -1.3779  0.7831  0.7850
  163SAPE  C31218288   3.271   1.968   4.279  0.2629  0.6131  0.3440
  163SAPE  H12X18289   3.321   1.870   4.282 -2.4142 -0.8600  0.1684
  163SAPE  H12Y18290   3.229   1.976   4.176 -0.4364  0.4182  0.6032
  163SAPE  C31318291   3.165   1.944   4.378  0.4454  0.9065 -0.2238
  163SAPE  H13X18292   3.097   2.031   4.393 -0.3393 -0.1988  3.9004
  163SAPE  H13Y18293   3.213   1.938   4.478 -1.1346  0.3536  0.5339
  163SAPE  C31418294   3.085   1.810   4.349  0.4929  0.4930  0.1509
  163SAPE  H14X18295   3.139   1.758   4.268  1.5012  3.6331 -1.3718
  163SAPE  H14Y18296   2.978   1.832   4.328 -0.4321 -4.8474 -2.2900
  163SAPE  C31518297   3.085   1.705   4.461 -0.3967 -0.3052 -0.1871
  163SAPE  H15X18298   3.191   1.673   4.467 -0.6448 -0.8661  2.5956
  163SAPE  H15Y18299   3.050   1.606   4.423 -0.0629  0.5026 -2.7566
  163SAPE  C31618300   3.036   1.750   4.606  0.0950 -0.2588  0.6279
  163SAPE  H16X18301   3.103   1.830   4.645  0.0395 -1.0886  2.4872
  163SAPE  H16Y18302   3.042   1.659   4.668  0.6666 -0.1701  0.7067
  163SAPE  C31718303   2.898   1.810   4.597 -0.5022 -0.0869 -0.1102
  163SAPE  H17X18304   2.886   1.883   4.514 -0.9879 -2.8657 -2.6650
  163SAPE  H17Y18305   2.880   1.861   4.694  1.2267  0.8838 -0.2633
  163SAPE  C31818306   2.794   1.702   4.561  0.0836 -0.2932 -0.4563
  163SAPE  H18X18307   2.795   1.623   4.639  0.7769  1.0841  0.9812
  163SAPE  H18Y18308   2.805   1.658   4.460 -5.7296 -0.4689 -1.3231
  163SAPE  H18Z18309   2.694   1.750   4.568  0.1457 -0.2469  0.1617
  164SAPE     N18310   6.901   0.560   1.791  0.0850 -0.3501 -0.3564
  164SAPE   HN118311   6.938   0.622   1.716  1.6676 -0.0510  0.6102
  164SAPE   HN218312   6.861   0.471   1.756  0.6816 -1.2451  1.1220
  164SAPE   HN318313   6.828   0.610   1.845  0.7505  0.6974 -0.3894
  164SAPE   C1218314   7.021   0.558   1.879 -0.5342  0.0257  0.3710
  164SAPE  H12A18315   7.051   0.665   1.890 -1.1987  0.3573 -0.9281
  164SAPE  H12B18316   7.107   0.511   1.827  0.8826  1.5221  1.2563
  164SAPE   C1118317   6.996   0.491   2.007 -0.6000 -0.5396 -0.4558
  164SAPE  H11A18318   6.921   0.542   2.072 -0.5429 -0.4068 -0.4934
  164SAPE  H11B18319   7.090   0.483   2.066 -0.6696 -1.7518 -0.4895
  164SAPE     P18320   6.887   0.273   2.095  0.2032 -0.1394  0.4734
  164SAPE   O1318321   6.759   0.340   2.135  0.1070 -0.1170 -0.2368
  164SAPE   O1418322   6.867   0.136   2.036 -0.2110 -0.0599 -0.5879
  164SAPE   O1218323   6.954   0.363   1.985 -0.0992  0.5159  0.1662
  164SAPE   O1118324   6.971   0.258   2.223  0.6162  0.3819 -0.7071
  164SAPE    C118325   6.976   0.365   2.322 -0.2664  0.0045 -0.8791
  164SAPE    HA18326   7.081   0.391   2.344 -0.2478 -1.3000  0.7651
  164SAPE    HB18327   6.914   0.449   2.283  1.4452  1.7977  0.1252
  164SAPE    C218328   6.899   0.316   2.455  0.7504 -0.5816  1.1434
  164SAPE    HS18329   6.910   0.399   2.529  1.9908 -0.8052  1.2376
  164SAPE   O2118330   6.964   0.200   2.508  0.2793  0.5200  0.1760
  164SAPE   C2118331   7.087   0.214   2.562  0.7568  0.0123 -0.3317
  164SAPE   O2218332   7.148   0.317   2.572  0.4189  0.4584  0.7915
  164SAPE   C2218333   7.138   0.076   2.611 -0.0823  0.5832  0.2547
  164SAPE   H2R18334   7.069  -0.007   2.585  1.8547 -1.3699  1.0396
  164SAPE   H2S18335   7.227   0.069   2.544 -1.6552 -1.1012 -1.8057
  164SAPE    C318336   6.750   0.277   2.434  0.1822  0.0901 -0.0625
  164SAPE    HX18337   6.741   0.192   2.362  1.0007 -1.1477  1.2423
  164SAPE    HY18338   6.711   0.368   2.385  0.5010 -0.4486 -1.3782
  164SAPE   O3118339   6.681   0.254   2.555  0.0607 -0.0071 -0.0160
  164SAPE   C3118340   6.644   0.127   2.584 -1.0319  0.0661 -0.0763
  164SAPE   O3218341   6.658   0.032   2.512  0.3544  0.1346  0.0675
  164SAPE   C3218342   6.584   0.116   2.727  0.6621 -0.1149  0.2372
  164SAPE   H2X18343   6.473   0.120   2.721  0.7613  2.2845 -1.3552
  164SAPE   H2Y18344   6.615   0.212   2.774  1.3398 -0.9437  1.5254
  164SAPE   C2318345   7.162   0.089   2.762  0.1948  0.9590 -0.4673
  164SAPE   H3R18346   7.206   0.189   2.785  1.0848  0.7138 -1.0430
  164SAPE   H3S18347   7.229   0.007   2.797 -0.0599  1.2667  0.7869
  164SAPE   C2418348   7.025   0.067   2.833  0.0010  0.1961 -0.5057
  164SAPE   H4R18349   7.028   0.003   2.924  0.1715  0.8205 -0.0715
  164SAPE   H4S18350   6.964   0.000   2.768  0.0720 -0.6018  0.2293
  164SAPE   C2518351   6.961   0.199   2.874  0.3609 -0.1679 -0.1388
  164SAPE   H5R18352   6.892   0.241   2.799 -1.1226  0.2396  1.3794
  164SAPE   C2618353   6.966   0.250   3.001 -0.5024  0.6165  0.2781
  164SAPE   H6R18354   6.903   0.338   3.020 -1.3829  0.6337 -2.2910
  164SAPE   C2718355   7.044   0.191   3.115 -0.6504  0.5158  0.0263
  164SAPE   H7R18356   7.144   0.150   3.088 -0.3928  1.3291 -0.2785
  164SAPE   H7S18357   6.984   0.112   3.165  1.1398 -0.3088  0.9604
  164SAPE   C2818358   7.068   0.299   3.227 -0.1262 -0.4212  0.5290
  164SAPE   H8R18359   7.052   0.402   3.193 -0.2259  0.5662  3.3115
  164SAPE   C2918360   7.107   0.282   3.357 -0.9528  0.1575 -0.5528
  164SAPE   H9R18361   7.105   0.368   3.426  0.9245 -0.4658  0.3667
  164SAPE  C21018362   7.143   0.154   3.425 -0.5877 -0.5016  0.8430
  164SAPE  H10R18363   7.122   0.063   3.365 -0.9305  0.1399 -0.0234
  164SAPE  H10S18364   7.078   0.141   3.515 -1.1265 -2.1639  0.2578
  164SAPE  C21118365   7.284   0.180   3.461 -0.4705  0.0010  0.1202
  164SAPE  H11R18366   7.361   0.192   3.384  0.4790 -0.2987  1.0063
  164SAPE  C21218367   7.343   0.197   3.583  0.6984  0.3562  0.8370
  164SAPE  H12R18368   7.452   0.209   3.583  1.0137 -1.6739 -1.5675
  164SAPE  C21318369   7.263   0.191   3.714 -0.0172 -0.2645  0.5340
  164SAPE  H13R18370   7.172   0.254   3.702  0.3419  0.0877 -0.4040
  164SAPE  H13S18371   7.320   0.251   3.788 -0.5965 -1.0050  1.6181
  164SAPE  C21418372   7.222   0.057   3.758  0.0403 -0.9445  0.0886
  164SAPE  H14R18373   7.199  -0.014   3.677  1.5289  0.5116 -1.7125
  164SAPE  C21518374   7.240   0.021   3.888 -0.3044 -0.2515  0.3672
  164SAPE  H15R18375   7.222  -0.082   3.921  3.5511 -1.4100 -0.5950
  164SAPE  C21618376   7.276   0.112   4.000 -0.3031 -0.5612  0.3138
  164SAPE  H16R18377   7.249   0.215   3.968  3.0896 -0.3465 -2.3685
  164SAPE  H16S18378   7.382   0.119   4.031 -0.4730 -1.9382  1.3073
  164SAPE  C21718379   7.208   0.074   4.125  0.0316  0.4777 -0.3980
  164SAPE  H17R18380   7.263  -0.008   4.175  1.8225  0.8054 -1.7576
  164SAPE  H17S18381   7.101   0.053   4.103 -0.5119 -0.7555  2.8369
  164SAPE  C21818382   7.204   0.185   4.228 -0.2017 -0.0701 -0.7899
  164SAPE  H18R18383   7.167   0.278   4.181  1.5024  0.5323 -0.9940
  164SAPE  H18S18384   7.310   0.195   4.258 -0.1573 -0.0287 -0.9616
  164SAPE  C21918385   7.121   0.154   4.358 -0.1418  0.0345 -0.4594
  164SAPE  H19R18386   7.032   0.097   4.323 -0.7909  0.2318  0.7989
  164SAPE  H19S18387   7.078   0.252   4.386  0.8750  0.2882  0.2595
  164SAPE  C22018388   7.192   0.088   4.469 -0.4301 -0.4411 -0.5092
  164SAPE  H20R18389   7.275   0.152   4.504  0.1631 -1.4447 -0.0435
  164SAPE  H20S18390   7.235  -0.008   4.433  0.5450  0.4335 -1.7822
  164SAPE  H20T18391   7.123   0.065   4.553  0.9615 -1.5272  0.3915
  164SAPE   C3318392   6.637  -0.006   2.809 -0.8863 -0.3030 -0.3096
  164SAPE   H3X18393   6.748  -0.007   2.817 -0.4500  2.1671 -3.7297
  164SAPE   H3Y18394   6.605  -0.102   2.761 -2.3915  0.5265 -1.0285
  164SAPE   C3418395   6.576  -0.012   2.946  0.8664 -0.1604 -0.8747
  164SAPE   H4X18396   6.616  -0.104   2.992 -1.0944  0.0981  1.5551
  164SAPE   H4Y18397   6.466  -0.027   2.948  0.4575  1.9878 -2.3920
  164SAPE   C3518398   6.623   0.100   3.043  0.0068 -0.0540  0.1715
  164SAPE   H5X18399   6.581   0.201   3.024 -1.4098 -0.5844  0.3887
  164SAPE   H5Y18400   6.730   0.113   3.015 -0.5282  1.3072 -1.3871
  164SAPE   C3618401   6.612   0.078   3.192  0.5451  0.0874  0.2209
  164SAPE   H6X18402   6.667  -0.011   3.228 -0.0522  0.0528  1.0811
  164SAPE   H6Y18403   6.507   0.050   3.215  0.4452 -0.2731 -0.6090
  164SAPE   C3718404   6.678   0.187   3.270  0.6331 -0.1101  0.0436
  164SAPE   H7X18405   6.607   0.272   3.264 -0.1250 -0.6815  0.6968
  164SAPE   H7Y18406   6.772   0.226   3.226  2.1249  0.4003  3.3804
  164SAPE   C3818407   6.695   0.158   3.422  0.2965  0.5466  1.1117
  164SAPE   H8X18408   6.778   0.086   3.437  2.1102  0.7661 -5.1848
  164SAPE   H8Y18409   6.593   0.139   3.461  0.0716  2.1511  1.3863
  164SAPE   C3918410   6.736   0.290   3.487 -0.2591  0.0434 -0.4458
  164SAPE   H9X18411   6.662   0.371   3.474 -1.6141 -1.4031 -2.2948
  164SAPE   H9Y18412   6.836   0.326   3.452 -0.8633  2.2560 -0.0232
  164SAPE  C31018413   6.749   0.263   3.640  0.2105 -0.3323  0.0783
  164SAPE  H10X18414   6.787   0.161   3.660 -0.1371 -0.3382  0.7341
  164SAPE  H10Y18415   6.656   0.263   3.702  0.4868 -1.5221  0.5162
  164SAPE  C31118416   6.842   0.356   3.708 -0.3703 -0.3695 -0.8179
  164SAPE  H11X18417   6.791   0.455   3.707 -1.6281 -0.9720 -2.8591
  164SAPE  H11Y18418   6.933   0.379   3.649 -2.0278  0.0664 -3.3553
  164SAPE  C31218419   6.889   0.318   3.849 -0.5679 -0.2263 -0.7005
  164SAPE  H12X18420   6.961   0.394   3.888 -0.8285  0.0843 -0.8230
  164SAPE  H12Y18421   6.945   0.223   3.840  1.0618  0.1529  3.2629
  164SAPE  C31318422   6.772   0.304   3.948 -0.1031 -0.1753 -0.2300
  164SAPE  H13X18423   6.694   0.233   3.914 -0.2493 -0.4917  0.7422
  164SAPE  H13Y18424   6.719   0.401   3.951  3.0484  1.7438  3.3832
  164SAPE  C31418425   6.808   0.268   4.091  0.3497 -0.0509  0.2407
  164SAPE  H14X18426   6.890   0.334   4.128  0.1758 -1.3826  3.3254
  164SAPE  H14Y18427   6.850   0.165   4.094  0.4271 -0.0103  0.6278
  164SAPE  C31518428   6.691   0.267   4.191 -0.1026  0.3108  0.0190
  164SAPE  H15X18429   6.609   0.219   4.134  1.1478 -1.8998  0.0076
  164SAPE  H15Y18430   6.659   0.372   4.210 -1.6537  0.0336 -0.8720
  164SAPE  C31618431   6.728   0.191   4.323  0.1325  0.0166 -0.0170
  164SAPE  H16X18432   6.817   0.236   4.372  0.8863 -0.7037 -0.7058
  164SAPE  H16Y18433   6.767   0.089   4.302  0.4736  0.0294  0.5286
  164SAPE  C31718434   6.615   0.165   4.425 -0.2820  0.4149  0.2505
  164SAPE  H17X18435   6.524   0.112   4.390 -0.3755 -0.4618  1.7425
  164SAPE  H17Y18436   6.571   0.262   4.457 -0.1622 -0.2719  2.6990
  164SAPE  C31818437   6.663   0.099   4.556  0.9454 -0.1475 -0.7368
  164SAPE  H18X18438   6.573   0.098   4.621 -0.0674  0.6006 -2.0830
  164SAPE  H18Y18439   6.736   0.164   4.611 -0.2879  0.0972  0.6928
  164SAPE  H18Z18440   6.706  -0.001   4.540  0.2010 -0.1366 -3.0952
  165SAPE     N18441   5.732   0.803   2.317 -0.6052 -0.1364 -0.1741
  165SAPE   HN118442   5.638   0.847   2.305 -0.3162  0.5471  0.0414
  165SAPE   HN218443   5.777   0.835   2.405 -1.6967  1.8363 -0.2652
  165SAPE   HN318444   5.798   0.843   2.247 -0.7782 -0.5548 -0.5810
  165SAPE   C1218445   5.732   0.657   2.288  0.3630  0.4809 -0.0382
  165SAPE  H12A18446   5.798   0.659   2.199 -2.8439  0.9106 -2.6291
  165SAPE  H12B18447   5.634   0.615   2.255  0.7866  0.8724 -1.9279
  165SAPE   C1118448   5.781   0.580   2.412  0.2065 -0.5871  0.3830
  165SAPE  H11A18449   5.782   0.470   2.395  1.6692 -0.8442  1.8293
  165SAPE  H11B18450   5.713   0.607   2.496  2.8985  2.1590  1.8557
  165SAPE     P18451   6.038   0.599   2.400 -0.0364 -0.1422 -0.0356
  165SAPE   O1318452   6.013   0.467   2.333  1.0952 -0.1616  0.4877
  165SAPE   O1418453   6.085   0.705   2.310  0.0287 -0.2735  0.9782
  165SAPE   O1218454   5.901   0.637   2.462 -0.2761 -0.3682  0.1232
  165SAPE   O1118455   6.136   0.586   2.525  0.2937 -0.0468 -0.0695
  165SAPE    C118456   6.139   0.698   2.613 -0.6489 -0.1779  0.4979
  165SAPE    HA18457   6.059   0.772   2.591 -1.4104 -1.4225 -1.0750
  165SAPE    HB18458   6.117   0.654   2.713  0.8440  0.4252  1.1271
  165SAPE    C218459   6.275   0.765   2.612  0.1254  0.2887  0.2219
  165SAPE    HS18460   6.289   0.817   2.514  2.0635 -0.9472 -0.2239
  165SAPE   O2118461   6.369   0.659   2.633 -0.6050 -0.4304 -0.1455
  165SAPE   C2118462   6.495   0.679   2.610  0.8607 -0.4722  0.1852
  165SAPE   O2218463   6.533   0.781   2.552 -0.3856 -0.6881 -0.6628
  165SAPE   C2218464   6.586   0.553   2.642 -0.0912 -0.3991 -0.2510
  165SAPE   H2R18465   6.523   0.462   2.651  0.4922 -0.7465  0.5383
  165SAPE   H2S18466   6.647   0.534   2.550  0.0869  0.1091 -0.2444
  165SAPE    C318467   6.286   0.877   2.717 -0.0787 -0.5899  0.3950
  165SAPE    HX18468   6.209   0.955   2.699 -1.2311 -1.2160  2.2812
  165SAPE    HY18469   6.392   0.908   2.706 -0.7489  0.9748 -3.4947
  165SAPE   O3118470   6.263   0.836   2.852 -0.1867  0.0003  0.7740
  165SAPE   C3118471   6.264   0.935   2.941  0.3414  0.1866 -0.6994
  165SAPE   O3218472   6.284   1.049   2.914 -0.4829 -0.4830  0.3906
  165SAPE   C3218473   6.233   0.872   3.084  0.0977  0.6878  0.0853
  165SAPE   H2X18474   6.311   0.796   3.105 -1.5476 -0.3837  2.8007
  165SAPE   H2Y18475   6.139   0.813   3.082  0.9080 -0.6461 -0.7589
  165SAPE   C2318476   6.687   0.563   2.757 -0.9379 -0.5317  0.0508
  165SAPE   H3R18477   6.730   0.666   2.754 -0.0188 -0.8998  0.2395
  165SAPE   H3S18478   6.777   0.503   2.733 -0.4309  0.9030 -1.9314
  165SAPE   C2418479   6.630   0.536   2.898 -0.8211  0.5407  0.8242
  165SAPE   H4R18480   6.590   0.433   2.905 -0.9754  0.3412 -1.9779
  165SAPE   H4S18481   6.534   0.591   2.909  0.5070  3.2096  0.1323
  165SAPE   C2518482   6.737   0.562   3.001 -0.0543 -0.0914  0.6707
  165SAPE   H5R18483   6.833   0.528   2.960  1.2198  0.7749  2.7574
  165SAPE   C2618484   6.725   0.645   3.104 -0.4704 -0.4085 -0.2494
  165SAPE   H6R18485   6.813   0.657   3.168  0.8755 -2.1085 -1.6622
  165SAPE   C2718486   6.603   0.711   3.159  0.3663 -0.1894 -0.4312
  165SAPE   H7R18487   6.580   0.671   3.260 -1.2287  2.0362  0.1777
  165SAPE   H7S18488   6.508   0.675   3.114  0.2599  0.0338 -0.3884
  165SAPE   C2818489   6.600   0.863   3.183  0.0153 -0.5809  0.3228
  165SAPE   H8R18490   6.546   0.919   3.105 -0.3148 -2.8822 -1.1950
  165SAPE   C2918491   6.645   0.926   3.295  1.1104  0.2955  0.0614
  165SAPE   H9R18492   6.614   1.031   3.306 -2.6276 -0.5110 -1.2624
  165SAPE  C21018493   6.706   0.866   3.422 -0.4179 -0.3660  0.0744
  165SAPE  H10R18494   6.784   0.938   3.457 -1.1636  0.0994  0.8432
  165SAPE  H10S18495   6.765   0.775   3.399 -0.0583 -0.3107  0.7513
  165SAPE  C21118496   6.602   0.836   3.528  0.7350 -0.6622  0.6791
  165SAPE  H11R18497   6.521   0.782   3.476  1.5256 -0.7502 -0.5121
  165SAPE  C21218498   6.597   0.867   3.658  0.2466 -0.3112  0.2913
  165SAPE  H12R18499   6.530   0.803   3.718  0.6530 -1.0486 -0.0441
  165SAPE  C21318500   6.705   0.950   3.731  0.4800 -1.0797 -0.1304
  165SAPE  H13R18501   6.658   1.040   3.775  1.7452 -0.6073  0.2812
  165SAPE  H13S18502   6.757   1.010   3.653 -1.2568  2.2901  1.1429
  165SAPE  C21418503   6.794   0.871   3.816 -0.9317  0.5556 -0.7144
  165SAPE  H14R18504   6.852   0.791   3.769 -0.2964  1.6922 -1.9424
  165SAPE  C21518505   6.793   0.873   3.952 -0.1176 -0.1640  0.4800
  165SAPE  H15R18506   6.830   0.776   3.989  0.9912  0.3244  0.6789
  165SAPE  C21618507   6.703   0.961   4.036  0.4675  0.7235 -0.4723
  165SAPE  H16R18508   6.709   1.059   3.982  1.1851  0.1106 -1.5433
  165SAPE  H16S18509   6.738   0.969   4.141 -0.3336 -1.3008 -0.0166
  165SAPE  C21718510   6.553   0.925   4.057 -0.1564 -0.2006  0.4770
  165SAPE  H17R18511   6.550   0.835   4.122  1.5404  0.3356  1.3614
  165SAPE  H17S18512   6.501   0.904   3.961 -0.3058  1.6810  0.1087
  165SAPE  C21818513   6.470   1.031   4.134  0.5209  0.2299 -0.1023
  165SAPE  H18R18514   6.465   1.125   4.074 -1.4823 -0.6709 -1.4306
  165SAPE  H18S18515   6.524   1.068   4.224  2.9384  1.8187 -2.0602
  165SAPE  C21918516   6.330   0.984   4.167  0.0907 -0.0164  0.4527
  165SAPE  H19R18517   6.321   0.882   4.213 -0.4464  0.6825  1.9892
  165SAPE  H19S18518   6.270   0.985   4.073  0.5218 -0.1029  0.1778
  165SAPE  C22018519   6.251   1.083   4.256 -0.0329  0.3964  0.1672
  165SAPE  H20R18520   6.263   1.188   4.223 -3.1164  0.6503 -0.4826
  165SAPE  H20S18521   6.283   1.067   4.361 -2.6364 -1.4017  0.7810
  165SAPE  H20T18522   6.143   1.064   4.274  0.2866 -0.9364  0.8630
  165SAPE   C3318523   6.230   0.973   3.204 -0.2845 -0.2365 -0.3174
  165SAPE   H3X18524   6.131   1.023   3.215  0.8536  2.0346  0.3635
  165SAPE   H3Y18525   6.300   1.060   3.200 -1.5863  0.8173 -1.1149
  165SAPE   C3418526   6.245   0.909   3.345 -0.1119  0.0420  0.2180
  165SAPE   H4X18527   6.340   0.851   3.339 -2.0694 -3.3110 -0.8604
  165SAPE   H4Y18528   6.161   0.836   3.351 -0.0751 -0.4814 -3.4372
  165SAPE   C3518529   6.234   1.010   3.458 -0.1135  0.0148 -0.5907
  165SAPE   H5X18530   6.166   1.089   3.422 -1.4572 -0.8473 -0.0459
  165SAPE   H5Y18531   6.333   1.057   3.474 -0.6193  1.1042 -0.6328
  165SAPE   C3618532   6.194   0.958   3.601  0.1802 -0.1551  0.3278
  165SAPE   H6X18533   6.288   0.923   3.649  0.4328  2.2451  1.7544
  165SAPE   H6Y18534   6.123   0.873   3.585 -0.8056  0.5962  0.6060
  165SAPE   C3718535   6.131   1.079   3.676 -0.3721  0.2906  0.2475
  165SAPE   H7X18536   6.036   1.099   3.621 -0.2990 -1.9197 -0.8056
  165SAPE   H7Y18537   6.193   1.168   3.698  0.3455 -0.3030  0.6664
  165SAPE   C3818538   6.086   1.034   3.816 -0.1041  0.1567  0.6672
  165SAPE   H8X18539   6.157   0.971   3.874  0.2898  0.6184  0.6935
  165SAPE   H8Y18540   6.004   0.964   3.789 -0.7456  1.3017 -0.4042
  165SAPE   C3918541   6.023   1.137   3.911  0.0943 -1.0145 -0.2744
  165SAPE   H9X18542   6.106   1.196   3.954 -0.6369  1.3551 -1.9034
  165SAPE   H9Y18543   5.966   1.077   3.985  1.6263 -2.8606 -0.5142
  165SAPE  C31018544   5.917   1.227   3.838  0.7099  0.2742 -0.3611
  165SAPE  H10X18545   5.978   1.272   3.757  0.1010 -1.0435 -1.5864
  165SAPE  H10Y18546   5.877   1.305   3.906 -1.7405  0.9530 -2.4320
  165SAPE  C31118547   5.788   1.145   3.793 -0.0078 -0.1306  0.6283
  165SAPE  H11X18548   5.744   1.099   3.884 -0.9342  0.8771  0.7123
  165SAPE  H11Y18549   5.817   1.057   3.732  2.0576  0.9127  0.0134
  165SAPE  C31218550   5.688   1.229   3.718 -0.3448 -0.8341  0.3986
  165SAPE  H12X18551   5.725   1.287   3.631 -3.2945  0.5343 -0.0668
  165SAPE  H12Y18552   5.652   1.306   3.789  1.7592  0.8297 -0.2378
  165SAPE  C31318553   5.574   1.144   3.669  0.7094  0.2583  0.0253
  165SAPE  H13X18554   5.592   1.036   3.687 -0.8218 -0.0268 -0.0412
  165SAPE  H13Y18555   5.567   1.146   3.558  0.9361  1.5201  0.0244
  165SAPE  C31418556   5.432   1.164   3.728  0.1897  0.1205 -0.2694
  165SAPE  H14X18557   5.403   1.264   3.692  1.1473  1.1126  1.5534
  165SAPE  H14Y18558   5.439   1.165   3.839  0.4630 -0.3010 -0.2757
  165SAPE  C31518559   5.324   1.065   3.686  0.4229 -0.1887  0.2051
  165SAPE  H15X18560   5.257   1.040   3.771  0.8584 -0.4306  0.4803
  165SAPE  H15Y18561   5.369   0.970   3.649  0.5912 -0.6289  1.4872
  165SAPE  C31618562   5.231   1.121   3.577  0.0083  0.2898 -0.5339
  165SAPE  H16X18563   5.286   1.142   3.483 -0.5732 -0.5299 -1.0707
  165SAPE  H16Y18564   5.184   1.217   3.608 -0.5038 -0.0648 -0.1900
  165SAPE  C31718565   5.111   1.024   3.540 -0.8318 -0.7173 -0.2746
  165SAPE  H17X18566   5.061   0.993   3.634 -0.7217  0.1250  0.0757
  165SAPE  H17Y18567   5.165   0.942   3.486 -0.3940 -1.2072  0.8823
  165SAPE  C31818568   5.005   1.083   3.445 -0.9802  0.3304  0.2053
  165SAPE  H18X18569   4.925   1.008   3.432 -1.0069  0.4155 -0.1207
  165SAPE  H18Y18570   5.040   1.103   3.341 -3.4294 -1.3163 -1.0245
  165SAPE  H18Z18571   4.957   1.172   3.491  0.4463  1.2689 -0.0451
  166SAPE     N18572   1.064   2.502   2.835 -0.1952  0.3436 -0.6460
  166SAPE   HN118573   1.005   2.585   2.815 -1.6449 -0.0729  1.6204
  166SAPE   HN218574   1.163   2.533   2.829  0.3461 -0.7269  1.6013
  166SAPE   HN318575   1.039   2.428   2.767  0.9368  0.7299 -1.5196
  166SAPE   C1218576   1.019   2.456   2.976  0.1354 -0.0547  0.6584
  166SAPE  H12A18577   1.045   2.533   3.051  2.7082 -0.6942  0.5147
  166SAPE  H12B18578   1.083   2.367   2.992 -0.0604 -0.3650 -0.2004
  166SAPE   C1118579   0.877   2.404   2.981  0.1554 -0.2586  0.3289
  166SAPE  H11A18580   0.848   2.366   3.082 -0.2427 -1.6123 -0.2783
  166SAPE  H11B18581   0.867   2.324   2.905  3.2831 -0.9296  0.4775
  166SAPE     P18582   0.640   2.527   2.972  0.0479 -0.3203  0.6249
  166SAPE   O1318583   0.571   2.613   2.874  0.1865  0.1662  0.2758
  166SAPE   O1418584   0.574   2.394   3.002 -0.6485  0.0489  0.4735
  166SAPE   O1218585   0.790   2.514   2.942 -0.5326  0.4108  0.0678
  166SAPE   O1118586   0.645   2.612   3.107 -0.2483 -0.0946  0.0938
  166SAPE    C118587   0.748   2.688   3.166  0.9877  0.2379 -0.5122
  166SAPE    HA18588   0.829   2.614   3.188  0.5039 -0.9821 -2.5762
  166SAPE    HB18589   0.793   2.762   3.096  0.5199 -0.2969 -1.3953
  166SAPE    C218590   0.691   2.765   3.290 -0.0618  0.3466 -0.2552
  166SAPE    HS18591   0.778   2.776   3.357  0.2417 -1.7342 -0.2363
  166SAPE   O2118592   0.587   2.702   3.360  0.1932 -0.7708 -0.1498
  166SAPE   C2118593   0.624   2.585   3.418 -0.1653  0.1199  0.7274
  166SAPE   O2218594   0.742   2.554   3.436  0.1618  0.1516  0.1785
  166SAPE   C2218595   0.504   2.496   3.441  0.1947 -0.2698  0.6605
  166SAPE   H2R18596   0.529   2.434   3.529  0.8175 -1.5066 -0.3464
  166SAPE   H2S18597   0.416   2.564   3.448  1.8712  1.8322  2.3194
  166SAPE    C318598   0.635   2.906   3.249 -0.4386 -0.0023 -0.2602
  166SAPE    HX18599   0.526   2.889   3.253 -0.2438 -2.0484 -1.7687
  166SAPE    HY18600   0.661   2.945   3.148  3.1944  1.9607  1.2411
  166SAPE   O3118601   0.669   3.008   3.348  0.0439 -0.2944  0.2610
  166SAPE   C3118602   0.783   3.072   3.332 -0.3267 -0.3006  0.4194
  166SAPE   O3218603   0.869   3.036   3.251  0.2827 -0.0367  0.9323
  166SAPE   C3218604   0.780   3.205   3.403  0.0323 -0.1444 -0.3552
  166SAPE   H2X18605   0.698   3.257   3.349  3.0119  3.3325 -1.9488
  166SAPE   H2Y18606   0.870   3.266   3.381 -0.3361  0.4163 -0.3177
  166SAPE   C2318607   0.491   2.390   3.335  0.5538  0.6340  0.2106
  166SAPE   H3R18608   0.582   2.326   3.329  0.1043  0.1158 -2.2502
  166SAPE   H3S18609   0.486   2.436   3.234 -2.0207 -2.8706 -1.4578
  166SAPE   C2418610   0.362   2.302   3.349  0.3362  0.1577 -0.3388
  166SAPE   H4R18611   0.275   2.370   3.360 -0.1887 -0.4452 -0.7262
  166SAPE   H4S18612   0.358   2.239   3.441  1.8301 -1.4504 -1.3057
  166SAPE   C2518613   0.355   2.215   3.224 -0.3648  0.6136 -0.4353
  166SAPE   H5R18614   0.360   2.268   3.128 -2.7424  2.5078  0.3682
  166SAPE   C2618615   0.327   2.085   3.220 -0.1317  0.2086  0.0450
  166SAPE   H6R18616   0.322   2.055   3.114 -2.0687  1.4509 -0.2622
  166SAPE   C2718617   0.296   1.988   3.331  1.0384  0.1006 -0.0118
  166SAPE   H7R18618   0.335   2.024   3.429 -0.3528  3.5735 -0.5834
  166SAPE   H7S18619   0.342   1.890   3.307  1.0063  0.6121 -2.3902
  166SAPE   C2818620   0.144   1.982   3.346  0.0961  0.1460  0.3543
  166SAPE   H8R18621   0.101   2.083   3.344  0.1251  0.2110 -2.8691
  166SAPE   C2918622   0.065   1.873   3.333  0.1423  0.0576 -0.5992
  166SAPE   H9R18623  -0.040   1.899   3.348 -0.3099 -1.2406 -1.3374
  166SAPE  C21018624   0.114   1.729   3.310 -0.6208  0.4327 -0.6362
  166SAPE  H10R18625   0.225   1.728   3.318 -0.5792 -1.2770 -0.9723
  166SAPE  H10S18626   0.085   1.677   3.216 -0.4140 -2.0919  0.6147
  166SAPE  C21118627   0.063   1.634   3.407 -0.5411 -0.4799  0.3057
  166SAPE  H11R18628  -0.032   1.593   3.368 -0.7474 -0.0584  0.3581
  166SAPE  C21218629   0.120   1.593   3.523 -0.0399 -0.3252 -0.6194
  166SAPE  H12R18630   0.064   1.523   3.587 -0.6404  0.4192 -0.3144
  166SAPE  C21318631   0.250   1.656   3.586  0.3027  0.5634  0.4218
  166SAPE  H13R18632   0.228   1.764   3.595  1.5168  1.0396 -1.7422
  166SAPE  H13S18633   0.338   1.654   3.519 -0.6448  1.0603 -0.8769
  166SAPE  C21418634   0.292   1.605   3.722  0.0667 -0.4900  0.2152
  166SAPE  H14R18635   0.224   1.529   3.765 -1.6557  0.3823 -0.8482
  166SAPE  C21518636   0.390   1.644   3.797  0.2119  0.1077  0.4879
  166SAPE  H15R18637   0.410   1.591   3.891  0.4912  1.3030  1.1174
  166SAPE  C21618638   0.489   1.746   3.758 -0.4671  0.6246  1.0530
  166SAPE  H16R18639   0.540   1.768   3.854  0.9707 -0.5731  0.5935
  166SAPE  H16S18640   0.452   1.846   3.728 -3.4415 -0.3665  1.0877
  166SAPE  C21718641   0.600   1.692   3.665 -0.4098 -0.6465  0.2301
  166SAPE  H17R18642   0.566   1.660   3.564 -0.9766  1.2090 -0.2054
  166SAPE  H17S18643   0.658   1.610   3.713 -0.1248 -1.3648 -1.2690
  166SAPE  C21818644   0.714   1.797   3.633  0.4824  0.0572 -0.0675
  166SAPE  H18R18645   0.673   1.879   3.570  0.0986 -1.6054 -2.1102
  166SAPE  H18S18646   0.789   1.745   3.569 -0.5080 -2.8609  0.9814
  166SAPE  C21918647   0.777   1.860   3.758 -0.0269 -0.1349  0.1259
  166SAPE  H19R18648   0.701   1.915   3.818  1.4613  1.1281  0.9068
  166SAPE  H19S18649   0.844   1.940   3.722 -0.0662 -0.0910  0.1493
  166SAPE  C22018650   0.846   1.769   3.856 -0.3038  0.3759 -0.0842
  166SAPE  H20R18651   0.934   1.729   3.801 -3.0188 -1.3040 -3.6013
  166SAPE  H20S18652   0.783   1.684   3.888  0.4105 -0.1547 -0.0745
  166SAPE  H20T18653   0.895   1.817   3.943  0.4957 -0.5733  0.0064
  166SAPE   C3318654   0.736   3.192   3.555 -0.2679  0.3238 -0.4191
  166SAPE   H3X18655   0.818   3.141   3.610 -0.2418  0.9951  0.1894
  166SAPE   H3Y18656   0.651   3.121   3.562  0.4790 -0.6227 -0.7405
  166SAPE   C3418657   0.694   3.323   3.621  0.2816 -0.6369 -0.0843
  166SAPE   H4X18658   0.611   3.366   3.561 -0.2020 -2.9080 -1.1793
  166SAPE   H4Y18659   0.783   3.389   3.615  1.7901 -2.2714  2.4069
  166SAPE   C3518660   0.649   3.312   3.768  0.3430 -0.4863  0.6001
  166SAPE   H5X18661   0.740   3.269   3.815 -0.4668 -2.9177  0.0960
  166SAPE   H5Y18662   0.562   3.245   3.783  0.1121  0.0728  1.9243
  166SAPE   C3618663   0.610   3.446   3.837  0.0805  0.3020 -0.0469
  166SAPE   H6X18664   0.537   3.497   3.770  0.7006  0.5762 -0.5301
  166SAPE   H6Y18665   0.697   3.515   3.845  0.5849 -0.4521  1.2841
  166SAPE   C3718666   0.539   3.420   3.969  0.1271 -0.4897  0.2486
  166SAPE   H7X18667   0.615   3.402   4.048 -0.1976 -1.4085  0.3716
  166SAPE   H7Y18668   0.480   3.325   3.974 -0.1902 -0.3641 -0.8189
  166SAPE   C3818669   0.448   3.539   4.014  0.0090 -0.1868  0.0355
  166SAPE   H8X18670   0.370   3.552   3.936 -1.3375 -0.2802  1.3306
  166SAPE   H8Y18671   0.523   3.619   3.995  1.3791 -1.6503 -0.9682
  166SAPE   C3918672   0.387   3.545   4.154 -0.5754  0.1320 -0.2348
  166SAPE   H9X18673   0.333   3.448   4.167 -0.3202  0.2845  2.6217
  166SAPE   H9Y18674   0.304   3.618   4.145 -0.4706  0.1945 -0.7597
  166SAPE  C31018675   0.491   3.549   4.263  0.0366 -0.0097 -0.9135
  166SAPE  H10X18676   0.590   3.510   4.230  1.0024 -0.4346  2.1003
  166SAPE  H10Y18677   0.461   3.475   4.341  3.1788 -1.3957 -0.8583
  166SAPE  C31118678   0.502   3.693   4.319  0.3532  0.2625  0.2856
  166SAPE  H11X18679   0.403   3.725   4.359  0.7838  0.1399  1.4832
  166SAPE  H11Y18680   0.533   3.758   4.234 -2.3039  0.8149 -0.3711
  166SAPE  C31218681   0.619   3.702   4.422  1.1627 -0.0077  0.2747
  166SAPE  H12X18682   0.658   3.805   4.431  3.2908 -0.6435 -1.0025
  166SAPE  H12Y18683   0.706   3.645   4.382  0.0353 -1.2043 -0.5380
  166SAPE  C31318684   0.588   3.638   4.564 -0.4393 -0.7146 -0.5712
  166SAPE  H13X18685   0.578   3.529   4.548  1.5902 -0.8184 -1.5549
  166SAPE  H13Y18686   0.494   3.677   4.607  0.7535  0.5009  1.0533
  166SAPE  C31418687   0.703   3.671   4.665  0.2605 -0.0786 -0.0183
  166SAPE  H14X18688   0.801   3.669   4.614 -0.3477 -1.6603 -1.2071
  166SAPE  H14Y18689   0.711   3.593   4.744 -1.2065 -0.7540 -0.4969
  166SAPE  C31518690   0.688   3.793   4.756 -0.0055  0.7178  0.0019
  166SAPE  H15X18691   0.607   3.780   4.831 -1.7968  0.8159 -1.8066
  166SAPE  H15Y18692   0.662   3.887   4.704  0.9102  1.1002  0.2190
  166SAPE  C31618693   0.814   3.809   4.839 -0.8662  0.6320  0.1532
  166SAPE  H16X18694   0.911   3.818   4.786  0.1361  1.3075  1.9892
  166SAPE  H16Y18695   0.814   3.717   4.901  0.4223  1.3945  1.3560
  166SAPE  C31718696   0.805   3.929   4.929 -0.1444  0.2758 -0.7850
  166SAPE  H17X18697   0.703   3.930   4.973  0.3989  0.1080  0.5383
  166SAPE  H17Y18698   0.825   4.027   4.881 -0.4160  0.7933  0.1338
  166SAPE  C31818699   0.909   3.916   5.040 -0.8184 -0.0368 -0.6826
  166SAPE  H18X18700   0.876   3.852   5.125  1.1291 -1.1137 -0.6840
  166SAPE  H18Y18701   0.924   4.019   5.077 -1.0986 -0.2744  0.1129
  166SAPE  H18Z18702   1.004   3.882   4.993 -0.1102  2.0925 -0.8635
  167SAPE     N18703   5.844   5.410   2.523  0.4890  0.2913  0.0653
  167SAPE   HN118704   5.918   5.353   2.570 -0.0733  0.1797  0.8485
  167SAPE   HN218705   5.801   5.477   2.590  1.8829  1.4401 -0.1412
  167SAPE   HN318706   5.773   5.343   2.488  1.2622 -1.3249  1.4426
  167SAPE   C1218707   5.911   5.483   2.408  0.1810 -0.7830  0.1956
  167SAPE  H12A18708   5.831   5.537   2.352 -0.9145 -0.8573  1.6338
  167SAPE  H12B18709   5.975   5.417   2.344  0.1680 -1.4040  0.8150
  167SAPE   C1118710   6.016   5.579   2.469  0.3898 -0.0407 -0.7651
  167SAPE  H11A18711   6.092   5.511   2.512 -0.9855 -1.9654 -1.2283
  167SAPE  H11B18712   5.968   5.634   2.553  0.7421 -0.0526 -0.5563
  167SAPE     P18713   6.219   5.725   2.397 -0.0270 -0.3488  0.0007
  167SAPE   O1318714   6.305   5.614   2.347  0.5898 -0.2255 -0.5626
  167SAPE   O1418715   6.225   5.859   2.333 -0.1298 -0.3153 -0.0203
  167SAPE   O1218716   6.069   5.672   2.377  0.3441 -0.5681 -0.2882
  167SAPE   O1118717   6.233   5.736   2.560 -0.2549  0.4017  0.5475
  167SAPE    C118718   6.155   5.822   2.641 -0.2848 -0.2379 -0.4127
  167SAPE    HA18719   6.075   5.872   2.584  0.3852 -0.9346 -2.0210
  167SAPE    HB18720   6.122   5.761   2.728  3.9067 -1.4564  0.5698
  167SAPE    C218721   6.259   5.929   2.712 -1.0992  0.2453  0.3153
  167SAPE    HS18722   6.316   5.981   2.632  0.0026 -1.5236 -0.0991
  167SAPE   O2118723   6.350   5.856   2.801  0.2571  0.8512 -0.3337
  167SAPE   C2118724   6.476   5.899   2.803 -0.0445 -0.4076  0.4995
  167SAPE   O2218725   6.521   5.998   2.742  0.6765  0.5843 -0.4480
  167SAPE   C2218726   6.540   5.829   2.926 -0.2665  0.3227  0.4016
  167SAPE   H2R18727   6.463   5.760   2.965 -1.2945  1.5422  0.5928
  167SAPE   H2S18728   6.612   5.755   2.886 -0.6115  1.4247 -2.4685
  167SAPE    C318729   6.168   6.032   2.787 -0.8169  0.5070  0.7734
  167SAPE    HX18730   6.101   6.073   2.708 -1.9104 -0.3970  1.2023
  167SAPE    HY18731   6.221   6.120   2.829 -1.6706  1.4432 -0.0700
  167SAPE   O3118732   6.086   5.962   2.885  0.1487 -0.2352  0.2734
  167SAPE   C3118733   6.146   5.957   3.008 -0.0580  0.4372  0.5958
  167SAPE   O3218734   6.253   6.006   3.031  0.0739 -0.5550 -0.0098
  167SAPE   C3218735   6.069   5.852   3.098  0.5114 -0.5529 -1.0603
  167SAPE   H2X18736   6.150   5.779   3.121  3.1860  1.8041 -2.2201
  167SAPE   H2Y18737   5.991   5.800   3.039 -3.3315  3.2877  0.1383
  167SAPE   C2318738   6.608   5.923   3.031 -0.2386 -0.8068  0.3190
  167SAPE   H3R18739   6.530   5.996   3.061  0.4140  0.2357 -0.4226
  167SAPE   H3S18740   6.689   5.969   2.971 -1.0678 -0.0046 -0.2209
  167SAPE   C2418741   6.655   5.846   3.153  0.1411  0.2578  0.4003
  167SAPE   H4R18742   6.571   5.780   3.185 -1.2932  0.9000 -1.7655
  167SAPE   H4S18743   6.671   5.927   3.227 -1.6418  0.4447  0.6206
  167SAPE   C2518744   6.778   5.773   3.135 -0.8493  0.7247 -0.4085
  167SAPE   H5R18745   6.801   5.739   3.033 -0.8404 -0.0551 -0.1480
  167SAPE   C2618746   6.859   5.735   3.235 -0.4425  0.0286  0.3646
  167SAPE   H6R18747   6.941   5.669   3.204 -0.8245  0.0338 -0.7238
  167SAPE   C2718748   6.849   5.759   3.387 -0.5578 -0.3913 -0.2830
  167SAPE   H7R18749   6.870   5.661   3.435  3.1972  0.5215  0.1858
  167SAPE   H7S18750   6.742   5.779   3.411 -0.8024  0.1364 -1.7046
  167SAPE   C2818751   6.941   5.863   3.450 -0.1014 -0.0947  0.1189
  167SAPE   H8R18752   7.032   5.907   3.406  0.4217  0.0465  1.3004
  167SAPE   C2918753   6.913   5.915   3.579 -0.1899  0.0625 -0.8034
  167SAPE   H9R18754   7.000   5.966   3.623  0.6779 -0.4777 -1.8413
  167SAPE  C21018755   6.813   5.867   3.680 -0.6606  0.2095 -0.6394
  167SAPE  H10R18756   6.879   5.838   3.764  0.6472  1.2968 -1.2372
  167SAPE  H10S18757   6.754   5.777   3.653 -0.2216 -0.7206  1.3516
  167SAPE  C21118758   6.714   5.978   3.732 -0.1503  0.2004  0.4139
  167SAPE  H11R18759   6.701   6.063   3.662  0.2242  0.2409  0.3950
  167SAPE  C21218760   6.642   5.974   3.843 -0.8252  0.1174  0.4273
  167SAPE  H12R18761   6.579   6.063   3.859 -0.5530  1.0145 -2.8240
  167SAPE  C21318762   6.626   5.866   3.945  1.0180  0.2378  0.2866
  167SAPE  H13R18763   6.723   5.820   3.974  1.5957  1.5490  0.4900
  167SAPE  H13S18764   6.580   5.780   3.892  1.8532 -1.4057  2.0881
  167SAPE  C21418765   6.542   5.899   4.068 -0.1610 -0.9171 -1.0318
  167SAPE  H14R18766   6.549   6.002   4.108 -0.7645 -0.0177 -3.0756
  167SAPE  C21518767   6.479   5.812   4.151  0.1454 -0.0218  0.4588
  167SAPE  H15R18768   6.424   5.847   4.240 -0.5778 -0.0157  0.0155
  167SAPE  C21618769   6.458   5.672   4.119 -0.2124  0.5485  0.7678
  167SAPE  H16R18770   6.556   5.634   4.082 -1.4040  0.2529 -2.3313
  167SAPE  H16S18771   6.371   5.656   4.052  0.2305 -2.0076  0.6994
  167SAPE  C21718772   6.445   5.582   4.246  0.0293  0.2647 -0.4106
  167SAPE  H17R18773   6.540   5.570   4.302 -1.7151 -0.9012  2.5827
  167SAPE  H17S18774   6.421   5.482   4.205  0.8159  0.4321 -1.3256
  167SAPE  C21818775   6.347   5.619   4.360  0.3498  0.7767 -0.5156
  167SAPE  H18R18776   6.242   5.628   4.323  0.4474  0.9898 -0.7419
  167SAPE  H18S18777   6.366   5.718   4.407  2.2381 -1.2256  3.4116
  167SAPE  C21918778   6.340   5.510   4.465  0.8696 -0.4842  0.2090
  167SAPE  H19R18779   6.446   5.495   4.494  0.9881  0.3628  0.2354
  167SAPE  H19S18780   6.300   5.420   4.413  0.2210  0.4364 -0.9396
  167SAPE  C22018781   6.260   5.553   4.590  0.2235 -0.1825 -0.8214
  167SAPE  H20R18782   6.312   5.645   4.626  4.8061 -1.2336 -3.9183
  167SAPE  H20S18783   6.267   5.475   4.669  0.3270  0.1539 -0.4932
  167SAPE  H20T18784   6.153   5.578   4.574 -0.0232 -1.1169 -0.7007
  167SAPE   C3318785   6.005   5.931   3.212 -0.1254  0.2358 -0.4144
  167SAPE   H3X18786   5.921   5.992   3.173 -0.7459 -0.1596  0.2665
  167SAPE   H3Y18787   6.078   5.995   3.267 -1.0913 -0.3770  1.7061
  167SAPE   C3418788   5.927   5.839   3.308 -0.1372  0.9620 -0.7443
  167SAPE   H4X18789   5.996   5.781   3.371 -0.0609  3.4940  1.6723
  167SAPE   H4Y18790   5.864   5.766   3.252 -0.1813  0.7246 -0.3885
  167SAPE   C3518791   5.839   5.920   3.409 -0.4511 -0.8904 -0.1453
  167SAPE   H5X18792   5.772   5.987   3.351  0.6084  1.9279  1.6443
  167SAPE   H5Y18793   5.912   5.996   3.446 -1.1679 -1.4830  2.6988
  167SAPE   C3618794   5.773   5.851   3.523 -0.0588  0.0245 -0.0997
  167SAPE   H6X18795   5.854   5.824   3.595  0.4462  1.5015 -0.0695
  167SAPE   H6Y18796   5.728   5.760   3.477  0.8993 -0.2866 -0.4652
  167SAPE   C3718797   5.664   5.923   3.601 -0.1013 -0.3955 -0.9054
  167SAPE   H7X18798   5.572   5.954   3.547 -1.5807  0.2267  1.7810
  167SAPE   H7Y18799   5.709   6.014   3.645 -2.1161 -0.0067  0.4985
  167SAPE   C3818800   5.615   5.835   3.721 -0.4839  0.0102  0.6059
  167SAPE   H8X18801   5.700   5.813   3.789  0.9187  2.3846 -0.2358
  167SAPE   H8Y18802   5.556   5.748   3.686 -0.1955  0.3594 -0.8035
  167SAPE   C3918803   5.518   5.915   3.816  0.2064  0.7239 -0.2215
  167SAPE   H9X18804   5.429   5.948   3.758  0.0113 -0.3645 -0.5564
  167SAPE   H9Y18805   5.576   6.007   3.838 -0.0698  1.1361 -1.1693
  167SAPE  C31018806   5.473   5.842   3.942 -0.4039  0.6612 -0.1435
  167SAPE  H10X18807   5.566   5.810   3.996 -0.0192 -1.7838 -2.0878
  167SAPE  H10Y18808   5.418   5.748   3.922  3.1582 -1.5143 -0.5472
  167SAPE  C31118809   5.392   5.930   4.044  0.2430  0.1822 -0.5493
  167SAPE  H11X18810   5.297   5.953   3.991 -0.0921 -2.4615 -1.2218
  167SAPE  H11Y18811   5.449   6.024   4.062 -0.7659  0.8714 -0.9075
  167SAPE  C31218812   5.363   5.862   4.178 -0.4874 -0.5246 -0.2407
  167SAPE  H12X18813   5.301   5.939   4.229 -0.1034 -0.5352  0.2481
  167SAPE  H12Y18814   5.460   5.861   4.231 -0.7561  3.8768  0.7315
  167SAPE  C31318815   5.293   5.726   4.185  0.4870 -0.8526 -0.1875
  167SAPE  H13X18816   5.354   5.670   4.111  0.9093 -0.4844 -0.1235
  167SAPE  H13Y18817   5.186   5.723   4.156 -0.0040 -1.6810  1.5447
  167SAPE  C31418818   5.298   5.666   4.322  0.1445  0.0469  0.0610
  167SAPE  H14X18819   5.409   5.655   4.331  0.1113 -0.8061 -0.4536
  167SAPE  H14Y18820   5.268   5.560   4.336  0.5065  0.2769  3.3579
  167SAPE  C31518821   5.243   5.749   4.436 -0.6804  0.5730  0.3129
  167SAPE  H15X18822   5.137   5.768   4.410 -0.0539  2.6680 -0.9055
  167SAPE  H15Y18823   5.288   5.850   4.427  1.7473 -0.4999 -0.2812
  167SAPE  C31618824   5.254   5.694   4.581  0.0362 -0.2823  0.3711
  167SAPE  H16X18825   5.351   5.643   4.599 -0.5771 -0.3312  4.1983
  167SAPE  H16Y18826   5.189   5.606   4.598  0.5457 -0.9699 -1.0194
  167SAPE  C31718827   5.248   5.808   4.690 -0.1385 -0.1974 -0.1585
  167SAPE  H17X18828   5.344   5.861   4.672  0.8940 -1.8602  0.2630
  167SAPE  H17Y18829   5.248   5.757   4.788 -0.7307  0.9280  0.4368
  167SAPE  C31818830   5.118   5.894   4.686  0.0720 -0.0245 -0.0312
  167SAPE  H18X18831   5.120   5.988   4.746 -1.2552  0.8810 -1.3060
  167SAPE  H18Y18832   5.027   5.839   4.719  0.2233 -0.5082 -0.4176
  167SAPE  H18Z18833   5.092   5.935   4.586  0.1218 -0.6719 -0.3161
  168SAPE     N18834   3.443   2.512   2.719 -0.0982 -0.0636  0.7707
  168SAPE   HN118835   3.366   2.454   2.680 -0.7715  0.7343  0.8786
  168SAPE   HN218836   3.497   2.544   2.636  0.4707 -1.2408  0.6740
  168SAPE   HN318837   3.506   2.437   2.754  0.7528 -0.5890 -1.7470
  168SAPE   C1218838   3.382   2.610   2.812  0.0128 -0.6086  0.2090
  168SAPE  H12A18839   3.388   2.712   2.767 -1.2224 -1.6934 -2.6086
  168SAPE  H12B18840   3.433   2.609   2.911 -0.1533 -1.0442  0.2925
  168SAPE   C1118841   3.228   2.573   2.831  0.8036 -0.0052  0.3385
  168SAPE  H11A18842   3.176   2.659   2.877 -0.4043  0.4459 -1.7629
  168SAPE  H11B18843   3.215   2.479   2.889  0.3001 -1.5216 -2.0755
  168SAPE     P18844   3.017   2.508   2.685 -0.0408 -0.1679 -0.1713
  168SAPE   O1318845   2.964   2.583   2.569 -0.0766  0.1496  0.1415
  168SAPE   O1418846   3.010   2.361   2.672 -0.0727  0.1908 -0.4505
  168SAPE   O1218847   3.162   2.551   2.703 -1.0547 -1.0687 -0.0953
  168SAPE   O1118848   2.945   2.565   2.821  0.1883 -0.1325  0.1546
  168SAPE    C118849   2.891   2.479   2.915  0.6968 -0.2147 -0.1824
  168SAPE    HA18850   2.807   2.420   2.872  1.4644 -0.5109 -1.2976
  168SAPE    HB18851   2.975   2.419   2.956  1.6975  0.4554 -1.1902
  168SAPE    C218852   2.844   2.562   3.036 -0.6300 -0.4297  0.4067
  168SAPE    HS18853   2.772   2.501   3.094 -0.0036 -0.8702  0.7362
  168SAPE   O2118854   2.779   2.692   3.004  0.6999 -0.0121  0.4488
  168SAPE   C2118855   2.666   2.669   2.950  0.1210 -0.0926 -0.3099
  168SAPE   O2218856   2.614   2.560   2.942 -0.0182 -0.0330  0.3775
  168SAPE   C2218857   2.608   2.804   2.898  0.0058  0.6440  0.6411
  168SAPE   H2R18858   2.689   2.879   2.888 -0.6479  1.3367  0.4880
  168SAPE   H2S18859   2.561   2.780   2.801 -1.1790  0.1021  1.3208
  168SAPE    C318860   2.945   2.603   3.141 -0.3255 -0.0745  0.0563
  168SAPE    HX18861   2.997   2.694   3.103 -0.7273 -0.4807 -1.5384
  168SAPE    HY18862   3.028   2.530   3.132  0.7376  1.2368 -1.5772
  168SAPE   O3118863   2.903   2.627   3.274 -0.2288  0.1907  0.7525
  168SAPE   C3118864   2.984   2.586   3.373  0.8509  0.7212  0.1893
  168SAPE   O3218865   3.088   2.515   3.365 -0.2544 -0.8241  0.0368
  168SAPE   C3218866   2.927   2.619   3.505 -0.1516 -0.2626 -1.0676
  168SAPE   H2X18867   2.897   2.522   3.550 -0.7260  0.2351 -0.3423
  168SAPE   H2Y18868   2.844   2.693   3.505  0.0283 -0.0369  0.0751
  168SAPE   C2318869   2.493   2.841   2.991  0.5161  1.2191 -0.5832
  168SAPE   H3R18870   2.424   2.754   2.983  0.4600  1.2871 -0.8385
  168SAPE   H3S18871   2.430   2.923   2.950  0.5930  1.0152 -1.1067
  168SAPE   C2418872   2.530   2.864   3.132 -0.5885 -0.2998 -0.5000
  168SAPE   H4R18873   2.587   2.782   3.180 -1.5860 -1.9078 -1.9244
  168SAPE   H4S18874   2.433   2.861   3.187 -0.9334  0.8321 -1.0050
  168SAPE   C2518875   2.595   2.999   3.141  0.1117 -0.1730 -0.3475
  168SAPE   H5R18876   2.546   3.073   3.076 -3.4787  1.2071  3.4714
  168SAPE   C2618877   2.669   3.036   3.244  0.1526  0.5994 -0.5437
  168SAPE   H6R18878   2.694   3.143   3.253  1.3446  0.2104  1.4572
  168SAPE   C2718879   2.706   2.945   3.364 -0.7039 -0.3103  0.0203
  168SAPE   H7R18880   2.727   2.839   3.338  3.6998 -0.1069  1.8768
  168SAPE   H7S18881   2.618   2.941   3.431 -1.0843 -0.7731 -0.4950
  168SAPE   C2818882   2.828   2.998   3.436 -0.2970 -0.0505 -0.2921
  168SAPE   H8R18883   2.921   2.975   3.383  0.2472 -1.1203  1.0516
  168SAPE   C2918884   2.832   3.053   3.563 -0.4244 -0.5138 -0.1160
  168SAPE   H9R18885   2.928   3.082   3.606 -0.4195 -0.5963 -0.0699
  168SAPE  C21018886   2.716   3.088   3.647  0.2822 -0.1724  0.0817
  168SAPE  H10R18887   2.693   3.011   3.723 -1.1828 -2.8375 -2.8543
  168SAPE  H10S18888   2.630   3.090   3.578  3.0631  1.0935 -3.6802
  168SAPE  C21118889   2.748   3.227   3.703 -0.5737  0.1661 -0.3855
  168SAPE  H11R18890   2.757   3.309   3.630  0.8997  0.7373  0.3982
  168SAPE  C21218891   2.775   3.259   3.832 -0.3693 -0.1531  0.3468
  168SAPE  H12R18892   2.822   3.355   3.859  2.3118 -0.3635 -2.8789
  168SAPE  C21318893   2.788   3.159   3.948 -0.0029  0.4052 -0.2822
  168SAPE  H13R18894   2.849   3.204   4.029 -0.7249 -1.9483  1.6949
  168SAPE  H13S18895   2.833   3.061   3.923  0.4211  0.6531 -0.5142
  168SAPE  C21418896   2.650   3.128   4.005  0.2985 -0.1238 -0.6029
  168SAPE  H14R18897   2.590   3.076   3.929  1.1722 -3.6092  0.8798
  168SAPE  C21518898   2.603   3.139   4.133 -0.1174 -0.0549  0.0836
  168SAPE  H15R18899   2.495   3.120   4.143 -0.6497  1.7072 -1.5587
  168SAPE  C21618900   2.677   3.186   4.257  1.2281  0.1863 -0.4700
  168SAPE  H16R18901   2.612   3.251   4.319  0.6774 -2.6633  2.2182
  168SAPE  H16S18902   2.769   3.244   4.237  2.7141 -1.6100  0.8563
  168SAPE  C21718903   2.710   3.067   4.358 -0.6210 -0.5485 -0.3038
  168SAPE  H17R18904   2.624   3.013   4.405 -0.3307 -2.2259 -1.6070
  168SAPE  H17S18905   2.778   3.110   4.435 -1.8986 -0.7098  0.9665
  168SAPE  C21818906   2.784   2.955   4.285  0.6473 -0.0812 -0.7843
  168SAPE  H18R18907   2.852   2.996   4.207  1.8873 -1.7397 -0.6322
  168SAPE  H18S18908   2.705   2.895   4.234 -0.4046  1.4994 -1.0655
  168SAPE  C21918909   2.855   2.852   4.377 -0.0730  0.5795  0.6106
  168SAPE  H19R18910   2.782   2.792   4.435 -1.2120 -0.9607 -2.2379
  168SAPE  H19S18911   2.925   2.912   4.439 -1.1701  0.1213  2.3764
  168SAPE  C22018912   2.926   2.749   4.285  0.8484  0.4976  0.6080
  168SAPE  H20R18913   2.988   2.687   4.352  0.6322 -0.0569  0.3065
  168SAPE  H20S18914   2.987   2.799   4.207 -3.6009  2.3129 -2.1231
  168SAPE  H20T18915   2.852   2.686   4.230  4.1454 -2.2877 -1.0063
  168SAPE   C3318916   3.024   2.690   3.608 -0.7096 -0.5329 -0.0124
  168SAPE   H3X18917   3.031   2.793   3.568 -4.5425 -0.5138 -1.0578
  168SAPE   H3Y18918   3.126   2.646   3.612 -0.5661 -0.4508 -1.7894
  168SAPE   C3418919   2.967   2.688   3.751 -0.1562  0.2823 -0.2971
  168SAPE   H4X18920   3.011   2.596   3.796 -0.4636 -0.2253 -1.0161
  168SAPE   H4Y18921   2.856   2.676   3.753 -0.2863  1.3447  2.0753
  168SAPE   C3518922   3.023   2.808   3.827 -0.0229  0.2199  0.5043
  168SAPE   H5X18923   2.981   2.799   3.929  1.5851  1.6664  1.3431
  168SAPE   H5Y18924   3.002   2.908   3.783  1.2926  2.3694  4.3051
  168SAPE   C3618925   3.178   2.820   3.837 -0.7777  0.4748  0.7081
  168SAPE   H6X18926   3.231   2.809   3.740 -0.6115  1.5247  0.6687
  168SAPE   H6Y18927   3.213   2.733   3.897  1.4581  0.8729  0.0764
  168SAPE   C3718928   3.222   2.946   3.896  0.0295 -0.5058  0.2628
  168SAPE   H7X18929   3.199   3.021   3.817  2.2316 -1.9171 -1.8786
  168SAPE   H7Y18930   3.331   2.956   3.914  0.5238 -1.5164 -1.8275
  168SAPE   C3818931   3.143   2.992   4.027 -0.1598 -0.7196  0.8257
  168SAPE   H8X18932   3.145   2.901   4.091  1.8574 -0.8285  0.6715
  168SAPE   H8Y18933   3.037   3.011   3.997 -0.0710 -2.2626 -0.6593
  168SAPE   C3918934   3.192   3.113   4.101 -0.0769  0.1579  0.3200
  168SAPE   H9X18935   3.191   3.201   4.033  1.9869  0.7001  0.9098
  168SAPE   H9Y18936   3.301   3.110   4.122 -0.1260  1.6570  0.9348
  168SAPE  C31018937   3.126   3.124   4.241  0.0414  0.3153  0.0241
  168SAPE  H10X18938   3.140   3.030   4.298  0.7631  0.4242  0.0277
  168SAPE  H10Y18939   3.019   3.149   4.219  0.0095  0.1603  0.0025
  168SAPE  C31118940   3.188   3.231   4.324 -0.1156 -1.2493 -0.5031
  168SAPE  H11X18941   3.207   3.322   4.263 -1.0217 -0.7328 -0.0227
  168SAPE  H11Y18942   3.281   3.192   4.372 -0.2343 -0.1432  0.6838
  168SAPE  C31218943   3.091   3.272   4.441 -0.1864  0.3437 -0.4712
  168SAPE  H12X18944   2.990   3.278   4.397  0.1388 -1.4155 -1.5595
  168SAPE  H12Y18945   3.123   3.372   4.480 -1.5553 -0.0891  2.0011
  168SAPE  C31318946   3.078   3.170   4.556 -0.6528  0.2800  0.4006
  168SAPE  H13X18947   3.056   3.069   4.515  0.3230 -0.3253  1.3215
  168SAPE  H13Y18948   2.985   3.187   4.615 -0.0543  0.6038  1.2745
  168SAPE  C31418949   3.202   3.158   4.643  0.5699 -0.7501  0.3638
  168SAPE  H14X18950   3.285   3.139   4.571  0.4457 -0.4341  0.1327
  168SAPE  H14Y18951   3.195   3.074   4.715  0.7640 -0.9396  0.1626
  168SAPE  C31518952   3.254   3.290   4.710  0.2882  0.6527  0.6170
  168SAPE  H15X18953   3.179   3.363   4.746  1.4533  3.2521 -1.8261
  168SAPE  H15Y18954   3.329   3.343   4.648  3.0487 -2.2837  1.1432
  168SAPE  C31618955   3.337   3.245   4.836  0.0979 -0.9271  0.2421
  168SAPE  H16X18956   3.412   3.174   4.795  0.5499  1.2284 -3.0382
  168SAPE  H16Y18957   3.256   3.197   4.896  1.4142 -2.3599  0.9477
  168SAPE  C31718958   3.404   3.356   4.918 -0.1266 -0.6910  0.2148
  168SAPE  H17X18959   3.487   3.393   4.854 -0.7582 -2.3913 -1.6571
  168SAPE  H17Y18960   3.452   3.302   5.002  0.5034 -0.1249  0.2307
  168SAPE  C31818961   3.310   3.470   4.961 -0.4777 -0.9183 -0.1153
  168SAPE  H18X18962   3.354   3.551   5.022 -1.5261 -1.1394  0.9738
  168SAPE  H18Y18963   3.234   3.413   5.018 -0.9993 -0.8200 -0.7007
  168SAPE  H18Z18964   3.264   3.523   4.875 -0.8046 -1.4231 -0.2624
  169SAPE     N18965   0.450   4.686   2.363  0.3188  0.3339  0.2929
  169SAPE   HN118966   0.413   4.590   2.381  1.3760  0.0795  1.1958
  169SAPE   HN218967   0.397   4.720   2.280  0.5370  1.1005  0.4635
  169SAPE   HN318968   0.549   4.680   2.331  0.1644 -0.0857 -0.1212
  169SAPE   C1218969   0.434   4.768   2.488 -0.1021 -0.1954 -0.1799
  169SAPE  H12A18970   0.461   4.873   2.461  0.2778 -0.2025  0.1592
  169SAPE  H12B18971   0.514   4.735   2.558  0.3214 -0.8181 -0.9412
  169SAPE   C1118972   0.296   4.766   2.555 -0.0092 -0.6613 -0.2592
  169SAPE  H11A18973   0.312   4.824   2.648  1.9709  0.3298 -1.1657
  169SAPE  H11B18974   0.273   4.663   2.589 -0.6487 -0.2711  0.5361
  169SAPE     P18975   0.161   4.969   2.453 -0.5784  0.1430  0.2403
  169SAPE   O1318976   0.290   5.044   2.446 -0.1076 -0.0610 -0.0895
  169SAPE   O1418977   0.070   4.980   2.340 -0.1965  0.4003 -0.0370
  169SAPE   O1218978   0.197   4.818   2.471  0.0100  0.4229 -0.0141
  169SAPE   O1118979   0.094   4.996   2.595 -0.0082 -0.8235 -0.2467
  169SAPE    C118980  -0.047   4.977   2.616  0.5812  0.6285 -0.7357
  169SAPE    HA18981  -0.117   5.062   2.603 -2.5718 -1.9758 -2.3530
  169SAPE    HB18982  -0.095   4.903   2.549  1.0989  0.7769 -1.2834
  169SAPE    C218983  -0.082   4.915   2.756 -0.5017  0.0388 -0.2365
  169SAPE    HS18984  -0.188   4.883   2.754 -0.5352  0.1829 -1.4728
  169SAPE   O2118985  -0.056   5.014   2.857  0.0711  0.5858 -0.3109
  169SAPE   C2118986  -0.150   5.101   2.873  0.6057  0.5441  0.1767
  169SAPE   O2218987  -0.255   5.113   2.806 -0.5659  0.0075  0.1123
  169SAPE   C2218988  -0.124   5.189   2.993  0.1591 -0.5327 -0.5729
  169SAPE   H2R18989  -0.030   5.247   2.985  0.2281 -0.8088 -1.8308
  169SAPE   H2S18990  -0.212   5.254   3.012  1.0462  0.2420  1.1458
  169SAPE    C318991   0.007   4.789   2.778 -1.1800 -0.1520 -0.0654
  169SAPE    HX18992   0.116   4.811   2.772 -1.2913  0.4251  0.0116
  169SAPE    HY18993  -0.020   4.725   2.691  2.2882  1.6748 -2.7393
  169SAPE   O3118994  -0.031   4.720   2.894  0.5240  0.0132 -0.3498
  169SAPE   C3118995   0.031   4.750   3.010  1.0191  0.1279  0.4581
  169SAPE   O3218996   0.124   4.826   3.022 -0.1268  0.1639  0.1941
  169SAPE   C3218997  -0.038   4.675   3.125 -0.4004 -0.8386 -0.5183
  169SAPE   H2X18998   0.002   4.572   3.132  0.7283 -0.3619  0.1826
  169SAPE   H2Y18999  -0.145   4.671   3.095 -0.8079  0.8119  0.6011
  169SAPE   C2319000  -0.109   5.115   3.135 -0.6675 -0.2529  0.6372
  169SAPE   H3R19001  -0.007   5.070   3.141 -0.0019  1.1619  0.3028
  169SAPE   H3S19002  -0.184   5.033   3.139 -1.0930  0.1259  0.4185
  169SAPE   C2419003  -0.141   5.221   3.243 -0.1471 -0.2075 -0.0493
  169SAPE   H4R19004  -0.234   5.274   3.211  0.1283 -0.4044 -1.2302
  169SAPE   H4S19005  -0.060   5.295   3.232 -1.4963  1.7524  2.2500
  169SAPE   C2519006  -0.148   5.173   3.386  0.5165 -0.2874 -0.7410
  169SAPE   H5R19007  -0.093   5.079   3.403  1.2314  0.4712  1.4728
  169SAPE   C2619008  -0.204   5.239   3.490 -0.2491  0.3679  0.2803
  169SAPE   H6R19009  -0.198   5.195   3.591  0.8169  2.9486  1.4127
  169SAPE   C2719010  -0.276   5.372   3.491 -0.2528  0.9269 -0.4800
  169SAPE   H7R19011  -0.315   5.409   3.394  3.6510  1.7477 -1.9070
  169SAPE   H7S19012  -0.199   5.445   3.522  0.2069  0.1432  0.2780
  169SAPE   C2819013  -0.391   5.366   3.596 -0.2807  0.2665  0.5437
  169SAPE   H8R19014  -0.403   5.268   3.646 -2.1332  0.2924  0.2279
  169SAPE   C2919015  -0.475   5.465   3.616  0.3705  1.0491  0.5531
  169SAPE   H9R19016  -0.551   5.449   3.694  0.4608 -2.4221  0.0659
  169SAPE  C21019017  -0.470   5.596   3.544  0.3334 -0.4743  0.1886
  169SAPE  H10R19018  -0.390   5.589   3.467  2.0992 -5.9435  2.0252
  169SAPE  H10S19019  -0.433   5.676   3.610  1.0065 -0.6811  0.0672
  169SAPE  C21119020  -0.600   5.642   3.470 -0.5306  0.4355 -0.3399
  169SAPE  H11R19021  -0.632   5.579   3.385  1.6523 -1.6141  0.2676
  169SAPE  C21219022  -0.670   5.751   3.496 -0.3198  0.3516  0.4244
  169SAPE  H12R19023  -0.747   5.775   3.421 -1.2493  0.8337  1.4891
  169SAPE  C21319024  -0.652   5.844   3.607  0.1545 -0.5531  0.1902
  169SAPE  H13R19025  -0.701   5.939   3.576  3.7849  2.2631  2.2735
  169SAPE  H13S19026  -0.544   5.867   3.615  0.7406 -1.3721 -3.5054
  169SAPE  C21419027  -0.707   5.799   3.739  0.2550  0.2297  0.1975
  169SAPE  H14R19028  -0.728   5.692   3.750  0.1851  0.4096  1.9724
  169SAPE  C21519029  -0.765   5.882   3.827  0.1352 -0.1447 -0.0343
  169SAPE  H15R19030  -0.802   5.838   3.921  0.6437  0.0984  0.2828
  169SAPE  C21619031  -0.764   6.033   3.811  0.8632  0.4053  0.1020
  169SAPE  H16R19032  -0.864   6.071   3.781  0.6991  0.6464  0.9199
  169SAPE  H16S19033  -0.698   6.069   3.729  0.4817 -1.9218 -1.2967
  169SAPE  C21719034  -0.733   6.102   3.946  0.6454 -0.2305 -0.9379
  169SAPE  H17R19035  -0.737   6.210   3.922  0.3404 -0.3046 -1.2256
  169SAPE  H17S19036  -0.632   6.070   3.980  0.9166  0.6984 -0.8524
  169SAPE  C21819037  -0.845   6.093   4.055 -0.2241 -0.8143  0.2409
  169SAPE  H18R19038  -0.900   5.996   4.055 -1.1471 -0.3474 -1.6258
  169SAPE  H18S19039  -0.923   6.170   4.037 -1.4181 -1.7678  1.1076
  169SAPE  C21919040  -0.782   6.119   4.190 -0.1596  0.9845 -0.1513
  169SAPE  H19R19041  -0.682   6.071   4.198  0.4807  2.4929  1.5626
  169SAPE  H19S19042  -0.852   6.072   4.262 -0.1069  0.4529 -0.4369
  169SAPE  C22019043  -0.761   6.265   4.210 -0.0243 -0.4706  0.9015
  169SAPE  H20R19044  -0.860   6.313   4.202 -0.3295 -1.1592  0.3805
  169SAPE  H20S19045  -0.688   6.300   4.134  0.5185 -2.2027  0.5821
  169SAPE  H20T19046  -0.709   6.290   4.304 -0.9754 -0.9600  1.5710
  169SAPE   C3319047  -0.033   4.745   3.266 -0.0093  0.6110  0.8002
  169SAPE   H3X19048  -0.063   4.852   3.258 -0.4975  0.5621  1.8069
  169SAPE   H3Y19049   0.069   4.728   3.307  0.5033  0.1293 -0.6191
  169SAPE   C3419050  -0.127   4.667   3.364  0.2089  0.7608  0.2492
  169SAPE   H4X19051  -0.103   4.559   3.369  1.2855  1.0479  1.7826
  169SAPE   H4Y19052  -0.233   4.682   3.335  0.1251  0.1311  0.2151
  169SAPE   C3519053  -0.100   4.730   3.498  0.6719 -0.2641  0.1799
  169SAPE   H5X19054  -0.129   4.836   3.510 -2.0590 -1.1436  2.4978
  169SAPE   H5Y19055   0.010   4.724   3.515  1.0421 -1.7344 -2.3177
  169SAPE   C3619056  -0.177   4.661   3.611 -0.6043  0.0166  0.2702
  169SAPE   H6X19057  -0.142   4.557   3.627  1.3489  0.4582 -0.8321
  169SAPE   H6Y19058  -0.282   4.642   3.581  0.5826 -2.5779 -2.8230
  169SAPE   C3719059  -0.152   4.735   3.745 -0.2487 -0.0223 -0.7206
  169SAPE   H7X19060  -0.154   4.844   3.726  1.1886  0.0046 -0.8866
  169SAPE   H7Y19061  -0.048   4.703   3.768 -0.5000 -1.8004 -1.8738
  169SAPE   C3819062  -0.246   4.688   3.849  0.6610  0.4533 -0.3421
  169SAPE   H8X19063  -0.258   4.579   3.829  2.6793 -0.0297  0.8845
  169SAPE   H8Y19064  -0.341   4.738   3.819  0.9922  0.1634 -1.9747
  169SAPE   C3919065  -0.223   4.711   3.996 -0.4584 -0.2813  0.1152
  169SAPE   H9X19066  -0.190   4.816   4.009  3.9699 -1.2972 -1.0298
  169SAPE   H9Y19067  -0.142   4.644   4.033 -0.8023 -0.7025  0.1113
  169SAPE  C31019068  -0.335   4.672   4.089  0.5737 -0.1332  0.2213
  169SAPE  H10X19069  -0.358   4.563   4.084 -0.2513  0.0906 -2.4378
  169SAPE  H10Y19070  -0.431   4.719   4.058 -0.2299 -0.7372  1.6310
  169SAPE  C31119071  -0.287   4.711   4.237 -0.3696 -0.0190 -0.9515
  169SAPE  H11X19072  -0.288   4.822   4.234  1.1681  0.0121 -0.7169
  169SAPE  H11Y19073  -0.181   4.681   4.244 -0.3813 -0.5564 -2.5076
  169SAPE  C31219074  -0.387   4.655   4.345 -0.4994 -0.7258 -0.4875
  169SAPE  H12X19075  -0.329   4.642   4.439 -2.3604 -5.9732  0.2867
  169SAPE  H12Y19076  -0.406   4.550   4.314 -0.4070 -0.9965  0.3690
  169SAPE  C31319077  -0.520   4.726   4.339  0.3698 -0.0473 -0.4759
  169SAPE  H13X19078  -0.578   4.716   4.245  1.2777 -2.4968 -0.8534
  169SAPE  H13Y19079  -0.503   4.834   4.359  0.0706 -0.0863  0.0012
  169SAPE  C31419080  -0.616   4.665   4.451  0.1280  0.3967  0.3697
  169SAPE  H14X19081  -0.568   4.667   4.551 -1.6391  1.0874  1.2334
  169SAPE  H14Y19082  -0.627   4.555   4.454  0.0183  0.4248  2.2231
  169SAPE  C31519083  -0.757   4.733   4.452  0.0283 -0.5766  0.9544
  169SAPE  H15X19084  -0.804   4.749   4.353 -1.7255  3.3877  2.1730
  169SAPE  H15Y19085  -0.745   4.832   4.502  2.4931 -0.5381  0.3905
  169SAPE  C31619086  -0.863   4.647   4.525 -0.2372  0.0447 -0.7866
  169SAPE  H16X19087  -0.881   4.551   4.472 -1.1078 -0.6608  0.7170
  169SAPE  H16Y19088  -0.960   4.700   4.523  0.4964  1.4684 -0.3295
  169SAPE  C31719089  -0.815   4.611   4.666  0.3586 -0.7190 -0.2650
  169SAPE  H17X19090  -0.717   4.558   4.675  0.9032 -0.0348 -1.8452
  169SAPE  H17Y19091  -0.890   4.542   4.711  0.6598  0.1505  1.6688
  169SAPE  C31819092  -0.822   4.738   4.753  0.3344 -0.3118  0.3544
  169SAPE  H18X19093  -0.909   4.796   4.715 -1.5830 -3.2298 -0.0316
  169SAPE  H18Y19094  -0.734   4.806   4.751 -0.9141  1.4321  1.6436
  169SAPE  H18Z19095  -0.827   4.707   4.859  2.8698 -0.3824  0.5050
  170SAPE     N19096   0.667   1.967   2.869  0.6657 -0.6830 -0.0261
  170SAPE   HN119097   0.755   1.921   2.900  1.8398  0.8872 -0.8929
  170SAPE   HN219098   0.650   2.053   2.924 -1.6077 -0.3103 -1.2046
  170SAPE   HN319099   0.585   1.906   2.888 -0.2678  1.2084  2.4452
  170SAPE   C1219100   0.682   1.994   2.723  0.4804  0.2312  0.2128
  170SAPE  H12A19101   0.581   2.018   2.684  0.9039 -0.1748 -1.1858
  170SAPE  H12B19102   0.716   1.897   2.680 -1.3746 -0.6552  0.6194
  170SAPE   C1119103   0.777   2.105   2.688 -0.4963 -0.5622 -0.1670
  170SAPE  H11A19104   0.752   2.196   2.747 -0.2910 -0.9018  0.4478
  170SAPE  H11B19105   0.794   2.124   2.580  3.0125  0.0959  0.3822
  170SAPE     P19106   1.036   2.118   2.674  0.2474 -0.0480  0.1446
  170SAPE   O1319107   1.051   2.089   2.529  0.3386 -0.2544  0.1775
  170SAPE   O1419108   1.040   2.261   2.703  0.4563  0.1721  0.0695
  170SAPE   O1219109   0.899   2.051   2.731 -0.2620  0.3416 -0.7529
  170SAPE   O1119110   1.146   2.046   2.760 -0.5811 -0.8292 -0.2747
  170SAPE    C119111   1.167   1.903   2.734 -0.2174  0.0329 -0.3366
  170SAPE    HA19112   1.150   1.876   2.627 -0.7614  4.0797 -1.4505
  170SAPE    HB19113   1.265   1.856   2.756 -0.1231  0.5851  0.4348
  170SAPE    C219114   1.071   1.816   2.826 -1.1630  0.3716  0.4471
  170SAPE    HS19115   0.966   1.840   2.799 -1.9997 -1.9135  1.3979
  170SAPE   O2119116   1.094   1.839   2.966  0.3798 -0.3356  0.0033
  170SAPE   C2119117   0.985   1.821   3.050 -0.5038 -0.6986 -0.2677
  170SAPE   O2219118   0.875   1.792   3.014 -0.2537 -0.0411 -0.4103
  170SAPE   C2219119   1.039   1.832   3.193 -0.0699 -0.2576  0.2238
  170SAPE   H2R19120   1.097   1.740   3.216  1.0717 -0.1674 -1.9930
  170SAPE   H2S19121   1.117   1.911   3.193  0.2399 -0.5480 -0.6123
  170SAPE    C319122   1.080   1.663   2.773 -0.2645 -0.2500 -0.0692
  170SAPE    HX19123   1.189   1.641   2.779 -0.1787  0.5563  2.4148
  170SAPE    HY19124   1.053   1.651   2.666 -1.1236  0.8513  0.0039
  170SAPE   O3119125   1.000   1.574   2.856 -0.5092 -0.0477  0.2677
  170SAPE   C3119126   0.874   1.573   2.819 -0.2036  0.2994 -0.0499
  170SAPE   O3219127   0.827   1.636   2.727  0.4806  0.1939 -0.3233
  170SAPE   C3219128   0.796   1.484   2.912 -0.3428  0.9443 -1.0768
  170SAPE   H2X19129   0.801   1.382   2.869 -0.2025  0.3833  0.2352
  170SAPE   H2Y19130   0.692   1.525   2.907 -1.7205 -2.1565 -0.1501
  170SAPE   C2319131   0.927   1.868   3.290 -0.4014  0.6228  0.5024
  170SAPE   H3R19132   0.980   1.870   3.388  0.5513 -0.9908  0.0515
  170SAPE   H3S19133   0.837   1.804   3.286 -0.2779  0.4748  0.0409
  170SAPE   C2419134   0.879   2.014   3.277  0.2380  0.5950 -0.2373
  170SAPE   H4R19135   0.815   2.013   3.186  0.6574 -1.8647 -0.5636
  170SAPE   H4S19136   0.960   2.084   3.248  1.5186 -0.5341  0.5094
  170SAPE   C2519137   0.796   2.074   3.387  0.3405  0.6311  0.0188
  170SAPE   H5R19138   0.690   2.085   3.362 -0.2206 -1.6083  1.1769
  170SAPE   C2619139   0.848   2.121   3.500 -0.5766  0.1258  0.3648
  170SAPE   H6R19140   0.785   2.175   3.571 -1.7290 -0.9101  0.1596
  170SAPE   C2719141   0.996   2.118   3.538 -0.1120 -0.0091  0.3097
  170SAPE   H7R19142   1.067   2.080   3.461  1.0586 -0.4220  1.5550
  170SAPE   H7S19143   1.009   2.045   3.620 -0.3691 -0.7595 -0.3114
  170SAPE   C2819144   1.049   2.255   3.583  0.0420  0.6380 -0.1000
  170SAPE   H8R19145   1.109   2.308   3.507 -0.8623  1.3798 -0.3076
  170SAPE   C2919146   1.033   2.302   3.706 -0.2635 -0.1614  0.1026
  170SAPE   H9R19147   1.082   2.398   3.726  3.0440 -1.5889 -0.5006
  170SAPE  C21019148   0.959   2.238   3.817  0.2784  0.1705 -0.0837
  170SAPE  H10R19149   0.895   2.153   3.786  2.5570 -2.0244  0.8450
  170SAPE  H10S19150   0.902   2.318   3.870  0.4646  2.1778 -2.7115
  170SAPE  C21119151   1.053   2.180   3.921 -0.0007 -0.4518 -0.3617
  170SAPE  H11R19152   1.080   2.077   3.894 -2.0980 -1.0601 -0.3141
  170SAPE  C21219153   1.108   2.248   4.022  0.1855 -0.3904 -0.3694
  170SAPE  H12R19154   1.161   2.190   4.099  0.7676  0.6006 -0.0037
  170SAPE  C21319155   1.086   2.397   4.052  0.2285  0.7846  0.4230
  170SAPE  H13R19156   1.013   2.434   3.977  1.4569  0.3550 -1.0503
  170SAPE  H13S19157   1.178   2.452   4.023  0.2349 -0.4730 -2.2491
  170SAPE  C21419158   1.057   2.410   4.197 -0.1333 -0.3960  0.2953
  170SAPE  H14R19159   1.141   2.380   4.262  0.2335  1.1142  0.5612
  170SAPE  C21519160   0.945   2.468   4.244 -0.0818 -0.1236  0.3240
  170SAPE  H15R19161   0.926   2.466   4.353  2.5158  1.4379  0.8793
  170SAPE  C21619162   0.827   2.524   4.177 -0.3769  0.0641  0.4721
  170SAPE  H16R19163   0.837   2.531   4.067 -1.7686 -1.9027  0.1676
  170SAPE  H16S19164   0.812   2.626   4.220 -1.1177  0.9693 -1.7811
  170SAPE  C21719165   0.695   2.454   4.211 -0.1400  0.0475 -0.3413
  170SAPE  H17R19166   0.611   2.500   4.156 -1.5857 -1.5670  0.4293
  170SAPE  H17S19167   0.672   2.480   4.317  2.8678 -0.3482  0.5072
  170SAPE  C21819168   0.693   2.303   4.180  0.4256 -0.8302 -0.3271
  170SAPE  H18R19169   0.748   2.256   4.264  3.2318 -1.4184 -2.3206
  170SAPE  H18S19170   0.753   2.284   4.088  0.3467  2.7850 -1.2695
  170SAPE  C21919171   0.548   2.258   4.150  0.2066  0.3285 -0.6776
  170SAPE  H19R19172   0.568   2.184   4.070 -0.2381  2.4398 -2.8843
  170SAPE  H19S19173   0.492   2.346   4.111 -1.5329 -0.2114  0.4951
  170SAPE  C22019174   0.467   2.194   4.266  0.1382 -0.4076 -0.4831
  170SAPE  H20R19175   0.472   2.249   4.362  1.0529 -1.6539  0.2056
  170SAPE  H20S19176   0.494   2.089   4.290 -0.0573 -0.4396 -0.4005
  170SAPE  H20T19177   0.361   2.192   4.233  0.0695  0.1518 -0.3139
  170SAPE   C3319178   0.840   1.480   3.063  0.4117  0.0724  0.6800
  170SAPE   H3X19179   0.862   1.588   3.084 -0.4978  0.1761  1.1218
  170SAPE   H3Y19180   0.930   1.416   3.077  0.4020  0.1103  0.9351
  170SAPE   C3419181   0.718   1.427   3.140  0.8730  0.2776 -0.0336
  170SAPE   H4X19182   0.715   1.316   3.133  1.6098  0.3377 -1.7692
  170SAPE   H4Y19183   0.621   1.462   3.099  0.7260 -0.5115 -0.3918
  170SAPE   C3519184   0.715   1.459   3.294  0.2930  1.0701 -0.2027
  170SAPE   H5X19185   0.626   1.423   3.351  2.4848 -2.0401  1.5621
  170SAPE   H5Y19186   0.723   1.568   3.316 -1.1488  0.9000  1.4760
  170SAPE   C3619187   0.831   1.390   3.371  0.2271 -0.4854  0.3150
  170SAPE   H6X19188   0.925   1.432   3.330  1.4350 -2.3141  1.1155
  170SAPE   H6Y19189   0.826   1.280   3.356  0.5882 -0.3589 -0.8838
  170SAPE   C3719190   0.823   1.417   3.515 -0.9106 -0.4124  0.0730
  170SAPE   H7X19191   0.718   1.408   3.548 -1.2980  0.9603 -0.7272
  170SAPE   H7Y19192   0.850   1.521   3.540 -1.6287  0.1308 -1.2844
  170SAPE   C3819193   0.925   1.326   3.596  0.3975 -0.4583 -0.3054
  170SAPE   H8X19194   1.025   1.330   3.548  0.1403 -3.3906 -1.3047
  170SAPE   H8Y19195   0.889   1.221   3.605  1.0609 -0.5203  2.5151
  170SAPE   C3919196   0.940   1.355   3.747 -0.2335 -0.4879 -0.0720
  170SAPE   H9X19197   0.839   1.353   3.794  0.1974  0.2943  0.9181
  170SAPE   H9Y19198   0.963   1.463   3.754 -1.0970 -0.1659 -1.7986
  170SAPE  C31019199   1.047   1.276   3.823 -0.5614  0.0682 -0.7299
  170SAPE  H10X19200   1.145   1.293   3.775 -0.6523 -0.5538 -1.1562
  170SAPE  H10Y19201   1.017   1.169   3.816 -0.5232  0.1323 -2.1774
  170SAPE  C31119202   1.051   1.311   3.972  0.6612 -0.2747 -0.1569
  170SAPE  H11X19203   1.048   1.420   3.992 -1.3378 -0.1987 -0.6759
  170SAPE  H11Y19204   1.146   1.279   4.020  2.4013  2.2169 -1.7410
  170SAPE  C31219205   0.935   1.245   4.057 -0.7756 -0.4881  0.2445
  170SAPE  H12X19206   0.924   1.136   4.044  2.1712 -0.8562  0.1362
  170SAPE  H12Y19207   0.838   1.281   4.016  0.1194  1.5517 -0.2307
  170SAPE  C31319208   0.960   1.270   4.200  0.1584  0.0219  0.9533
  170SAPE  H13X19209   0.869   1.261   4.265  1.7038 -0.5419  3.1604
  170SAPE  H13Y19210   1.000   1.373   4.208 -0.6692  0.6224 -1.7374
  170SAPE  C31419211   1.057   1.168   4.265 -0.5572 -0.1744 -0.5005
  170SAPE  H14X19212   1.160   1.172   4.224  0.1218  1.0411  1.2263
  170SAPE  H14Y19213   1.013   1.066   4.259  0.6697 -0.6671 -1.4338
  170SAPE  C31519214   1.084   1.202   4.410 -0.7775  0.0825  0.1129
  170SAPE  H15X19215   0.989   1.252   4.439 -1.2756  0.9003 -2.5730
  170SAPE  H15Y19216   1.166   1.277   4.404  2.1891 -2.9962 -1.2268
  170SAPE  C31619217   1.132   1.077   4.485 -0.5428  0.1162  1.0342
  170SAPE  H16X19218   1.211   1.037   4.418 -1.8607 -0.1382 -0.4158
  170SAPE  H16Y19219   1.058   0.994   4.478  1.5230 -1.6558 -3.2064
  170SAPE  C31719220   1.192   1.104   4.625 -0.5579 -1.0013  0.1430
  170SAPE  H17X19221   1.105   1.123   4.691 -0.5355 -1.1433  0.2139
  170SAPE  H17Y19222   1.250   1.197   4.609  0.0506 -1.6813 -1.9589
  170SAPE  C31819223   1.266   0.983   4.672 -0.4458  0.2973  0.1065
  170SAPE  H18X19224   1.366   0.965   4.626 -1.8254 -3.0839 -1.9502
  170SAPE  H18Y19225   1.206   0.893   4.651 -0.7707  1.0866 -2.9054
  170SAPE  H18Z19226   1.290   0.978   4.780  1.8270 -0.9969 -0.3917
  171SAPE     N19227   1.167   0.291   2.038  0.3194 -0.0206 -0.5131
  171SAPE   HN119228   1.263   0.302   2.000  0.6320  0.1537  0.3065
  171SAPE   HN219229   1.178   0.246   2.131  0.2863  1.1900  0.0971
  171SAPE   HN319230   1.122   0.219   1.978  0.7595 -2.8809  2.3166
  171SAPE   C1219231   1.097   0.423   2.060 -0.2783 -1.0056  0.5484
  171SAPE  H12A19232   1.132   0.496   1.984  1.8207 -0.3436  2.0701
  171SAPE  H12B19233   1.128   0.459   2.160 -2.3226  1.3044  0.4394
  171SAPE   C1119234   0.944   0.395   2.060 -0.2617 -0.6225  0.0938
  171SAPE  H11A19235   0.910   0.365   1.959  0.0963 -1.2591  0.1574
  171SAPE  H11B19236   0.903   0.498   2.068 -1.3746 -0.8412 -2.2179
  171SAPE     P19237   0.756   0.295   2.210  0.3543 -0.2083  0.2438
  171SAPE   O1319238   0.666   0.325   2.097  0.6134  0.2189  0.2864
  171SAPE   O1419239   0.733   0.177   2.297 -0.1202 -0.4741  0.3722
  171SAPE   O1219240   0.906   0.296   2.159  0.2702  0.1201  0.5209
  171SAPE   O1119241   0.751   0.425   2.303 -0.7355  0.1007  0.4965
  171SAPE    C119242   0.873   0.457   2.376  0.0588 -0.2976  0.3946
  171SAPE    HA19243   0.969   0.437   2.324  0.4244  1.5353  0.3100
  171SAPE    HB19244   0.867   0.566   2.398  1.4018 -0.0080 -0.5548
  171SAPE    C219245   0.867   0.387   2.521 -0.2047  0.3379 -0.1185
  171SAPE    HS19246   0.903   0.284   2.499 -1.4106 -0.1493  0.0526
  171SAPE   O2119247   0.732   0.379   2.565  0.0738 -0.3317  0.2098
  171SAPE   C2119248   0.705   0.280   2.652  0.2557 -0.7557  0.0326
  171SAPE   O2219249   0.775   0.190   2.690 -0.3195  0.0904 -0.5811
  171SAPE   C2219250   0.575   0.319   2.711 -0.3771 -0.6206 -0.3366
  171SAPE   H2R19251   0.547   0.426   2.706  1.6692  0.0882  1.5028
  171SAPE   H2S19252   0.492   0.263   2.663 -0.9805  0.5539 -0.6983
  171SAPE    C319253   0.970   0.436   2.625 -0.6863 -0.3098  0.3288
  171SAPE    HX19254   0.911   0.522   2.663 -1.4738 -0.1459 -1.1657
  171SAPE    HY19255   1.059   0.474   2.571 -1.5693  0.1376 -0.8668
  171SAPE   O3119256   0.995   0.340   2.730 -0.1508 -0.8171  0.2020
  171SAPE   C3119257   1.078   0.243   2.700  0.6472 -0.3304 -0.3124
  171SAPE   O3219258   1.159   0.246   2.605  0.8181  0.5539  0.0355
  171SAPE   C3219259   1.063   0.132   2.804  0.1644 -0.1553  0.3269
  171SAPE   H2X19260   0.971   0.076   2.778 -0.4292  0.0231  1.9196
  171SAPE   H2Y19261   1.045   0.182   2.902 -0.9603 -1.7560  0.9802
  171SAPE   C2319262   0.560   0.284   2.861  0.6121 -0.4363 -0.1178
  171SAPE   H3R19263   0.652   0.304   2.920  0.0935  1.5498  0.0770
  171SAPE   H3S19264   0.544   0.175   2.875 -1.8366 -0.0122  0.9497
  171SAPE   C2419265   0.435   0.360   2.928 -0.8921 -0.4188 -0.3014
  171SAPE   H4R19266   0.343   0.327   2.875 -0.3047 -0.6934 -1.1767
  171SAPE   H4S19267   0.446   0.469   2.909  1.3107 -0.4271  0.6607
  171SAPE   C2519268   0.416   0.329   3.074 -0.4933 -1.0726  0.5331
  171SAPE   H5R19269   0.339   0.254   3.098 -2.1397 -0.1594 -1.5761
  171SAPE   C2619270   0.489   0.379   3.179 -0.5509  0.1771 -0.5899
  171SAPE   H6R19271   0.464   0.353   3.283 -2.0937 -0.9772 -1.2231
  171SAPE   C2719272   0.602   0.475   3.173  0.2045 -0.2310  0.2139
  171SAPE   H7R19273   0.631   0.480   3.066  0.6011 -1.4323  0.2569
  171SAPE   H7S19274   0.683   0.426   3.231  0.7433  1.9052  1.3694
  171SAPE   C2819275   0.574   0.600   3.244  0.1171 -0.0711  0.0762
  171SAPE   H8R19276   0.542   0.682   3.177  0.1805  0.8078  1.0877
  171SAPE   C2919277   0.558   0.624   3.374 -0.0037  0.1141 -0.1160
  171SAPE   H9R19278   0.543   0.728   3.405  4.0730  0.7526  0.2126
  171SAPE  C21019279   0.568   0.514   3.481 -0.0390 -0.9896  0.5173
  171SAPE  H10R19280   0.669   0.526   3.524  0.2640  1.7224 -0.6921
  171SAPE  H10S19281   0.554   0.411   3.442 -0.7432 -0.4025 -0.8895
  171SAPE  C21119282   0.475   0.555   3.587 -0.0190 -0.0333 -0.2524
  171SAPE  H11R19283   0.392   0.622   3.559 -1.9267 -2.6270 -1.2163
  171SAPE  C21219284   0.500   0.541   3.719  0.2138 -0.0186  0.1082
  171SAPE  H12R19285   0.430   0.574   3.797 -0.1781  2.0457 -1.0565
  171SAPE  C21319286   0.620   0.472   3.777  0.2022 -0.3875  0.1765
  171SAPE  H13R19287   0.698   0.443   3.703  1.2428 -1.8054  1.7576
  171SAPE  H13S19288   0.581   0.387   3.835 -1.7789  0.0529 -0.4400
  171SAPE  C21419289   0.684   0.572   3.869  0.2247 -0.0274  0.3557
  171SAPE  H14R19290   0.726   0.658   3.814  0.7958 -0.4193  0.1682
  171SAPE  C21519291   0.694   0.578   4.004  0.1880 -0.4329  0.6134
  171SAPE  H15R19292   0.752   0.657   4.054  3.0856 -0.4307 -2.3502
  171SAPE  C21619293   0.636   0.467   4.093 -0.7124 -0.0683 -0.1602
  171SAPE  H16R19294   0.690   0.470   4.190 -3.3323 -0.9368  1.4258
  171SAPE  H16S19295   0.653   0.370   4.041 -1.0359  0.2768 -0.9213
  171SAPE  C21719296   0.487   0.479   4.140 -0.4671  0.1794  0.4653
  171SAPE  H17R19297   0.452   0.378   4.173  0.3995 -0.4333 -0.4269
  171SAPE  H17S19298   0.430   0.522   4.055  0.5124  2.7363  1.0273
  171SAPE  C21819299   0.468   0.574   4.253 -0.9975  0.1945 -0.5954
  171SAPE  H18R19300   0.365   0.573   4.295 -0.8437 -0.4790 -0.2197
  171SAPE  H18S19301   0.484   0.679   4.219 -0.1952  0.2109 -0.1820
  171SAPE  C21919302   0.543   0.547   4.382  0.6799 -0.0302  0.8603
  171SAPE  H19R19303   0.520   0.630   4.452  0.2633  2.5556 -2.1264
  171SAPE  H19S19304   0.647   0.568   4.349 -0.8438 -0.3329 -5.3551
  171SAPE  C22019305   0.541   0.400   4.425 -0.0254  0.7382 -0.3378
  171SAPE  H20R19306   0.590   0.382   4.523 -0.3332 -1.4803 -0.5390
  171SAPE  H20S19307   0.589   0.334   4.350  0.5974 -0.2223  0.8751
  171SAPE  H20T19308   0.432   0.377   4.420 -0.2181  1.3911  0.5991
  171SAPE   C3319309   1.185   0.035   2.793 -0.4464 -0.0585 -0.5594
  171SAPE   H3X19310   1.280   0.092   2.799  1.3395 -2.6825 -1.7790
  171SAPE   H3Y19311   1.191  -0.009   2.691  2.8800  1.1276 -1.0095
  171SAPE   C3419312   1.178  -0.085   2.886  0.3531  0.1139 -0.1556
  171SAPE   H4X19313   1.249  -0.161   2.848 -1.3498 -2.2339  1.1288
  171SAPE   H4Y19314   1.077  -0.130   2.888  0.3579  0.1201  0.5970
  171SAPE   C3519315   1.211  -0.046   3.031  0.2193 -0.5007 -1.2053
  171SAPE   H5X19316   1.144   0.038   3.061  0.3228 -0.7150 -0.3560
  171SAPE   H5Y19317   1.313  -0.004   3.020 -0.7306  2.1040 -0.9845
  171SAPE   C3619318   1.206  -0.153   3.146 -0.4227 -0.5358  0.5883
  171SAPE   H6X19319   1.274  -0.234   3.109 -2.2019 -0.3159 -3.8204
  171SAPE   H6Y19320   1.108  -0.204   3.155  0.0746 -1.4707  0.8414
  171SAPE   C3719321   1.263  -0.108   3.279  0.0896  0.2358 -0.5721
  171SAPE   H7X19322   1.186  -0.035   3.312  0.0998  1.7008 -3.5219
  171SAPE   H7Y19323   1.356  -0.052   3.256 -0.3844  1.4259  0.3061
  171SAPE   C3819324   1.299  -0.222   3.379  0.4932 -0.2444 -0.0366
  171SAPE   H8X19325   1.401  -0.258   3.352  0.5125 -0.8394  0.8015
  171SAPE   H8Y19326   1.231  -0.306   3.353 -0.6354  0.8479 -0.7761
  171SAPE   C3919327   1.301  -0.162   3.516  0.1201 -0.0194  0.8340
  171SAPE   H9X19328   1.221  -0.085   3.522  0.9453  1.2106 -2.0658
  171SAPE   H9Y19329   1.390  -0.099   3.537  0.0150 -0.2417  2.0598
  171SAPE  C31019330   1.290  -0.258   3.638  0.4942 -0.3223 -0.0800
  171SAPE  H10X19331   1.365  -0.338   3.620  0.9428  0.6786 -3.3169
  171SAPE  H10Y19332   1.189  -0.304   3.640  0.5641 -0.5082 -0.5632
  171SAPE  C31119333   1.329  -0.183   3.764 -0.1831 -0.1999 -0.2638
  171SAPE  H11X19334   1.271  -0.088   3.776  0.1322 -0.2153  1.7612
  171SAPE  H11Y19335   1.437  -0.158   3.772  0.1975 -1.7620 -0.3835
  171SAPE  C31219336   1.299  -0.267   3.891  0.3632  0.2978  0.0152
  171SAPE  H12X19337   1.368  -0.354   3.894  0.5373  0.4752  2.1665
  171SAPE  H12Y19338   1.193  -0.299   3.882  0.8043 -0.8677 -1.3931
  171SAPE  C31319339   1.323  -0.191   4.028 -0.9491  0.0021  0.9920
  171SAPE  H13X19340   1.266  -0.096   4.030 -2.9122 -1.1058  0.5306
  171SAPE  H13Y19341   1.432  -0.172   4.041 -0.3529 -1.4779 -1.1697
  171SAPE  C31419342   1.263  -0.263   4.150 -0.2580 -0.2820 -0.4685
  171SAPE  H14X19343   1.164  -0.304   4.121 -1.2573  1.9431 -0.3927
  171SAPE  H14Y19344   1.263  -0.188   4.232  3.3796  1.0523 -1.4943
  171SAPE  C31519345   1.355  -0.384   4.181  0.1921  0.4871  0.7319
  171SAPE  H15X19346   1.460  -0.351   4.194  0.0460  1.1151  0.3577
  171SAPE  H15Y19347   1.359  -0.462   4.102  1.0241  2.1238 -0.9274
  171SAPE  C31619348   1.303  -0.460   4.304 -0.1239  0.3260 -0.0963
  171SAPE  H16X19349   1.199  -0.497   4.292 -0.4911  1.1473  0.4530
  171SAPE  H16Y19350   1.311  -0.392   4.392 -0.0983  0.4714 -0.2104
  171SAPE  C31719351   1.406  -0.573   4.352  0.6642  0.3470  0.2977
  171SAPE  H17X19352   1.504  -0.526   4.372  0.4962  1.0291 -0.4143
  171SAPE  H17Y19353   1.415  -0.647   4.270 -2.9092 -0.5633  0.5308
  171SAPE  C31819354   1.340  -0.650   4.467 -0.5349 -0.2241  0.9451
  171SAPE  H18X19355   1.275  -0.736   4.439 -1.3840  1.1899 -1.7578
  171SAPE  H18Y19356   1.285  -0.580   4.533  0.4719 -0.9202  2.5919
  171SAPE  H18Z19357   1.421  -0.695   4.528  1.4237  1.6374 -0.1155
  172SAPE     N19358   0.533   2.820   2.715  0.2350 -0.0622  0.1512
  172SAPE   HN119359   0.596   2.824   2.633  0.4451  1.7903  0.3548
  172SAPE   HN219360   0.569   2.740   2.770  0.5202 -0.6209 -0.8365
  172SAPE   HN319361   0.435   2.801   2.687 -0.3813 -0.0541  2.1517
  172SAPE   C1219362   0.553   2.939   2.796  0.9112  0.6677 -0.2042
  172SAPE  H12A19363   0.503   2.935   2.895  2.2555  1.0616  0.5144
  172SAPE  H12B19364   0.527   3.030   2.739 -1.0279 -0.3470 -1.0229
  172SAPE   C1119365   0.690   2.937   2.855  0.3199 -0.0762  0.3638
  172SAPE  H11A19366   0.686   2.856   2.932  1.6771 -1.2314 -0.7194
  172SAPE  H11B19367   0.705   3.032   2.911 -0.4700  1.6732 -2.2322
  172SAPE     P19368   0.943   2.871   2.781  0.0744 -0.4957 -0.6502
  172SAPE   O1319369   0.934   2.726   2.803  0.2127  0.6619 -0.1428
  172SAPE   O1419370   1.024   2.918   2.669 -0.0267 -0.3175 -0.0470
  172SAPE   O1219371   0.790   2.922   2.757 -0.1635  0.2502  0.3616
  172SAPE   O1119372   0.994   2.948   2.911 -0.2456 -0.1285  0.4687
  172SAPE    C119373   1.048   2.852   3.009 -0.5282  0.9988  0.1307
  172SAPE    HA19374   0.986   2.844   3.101  0.8395  0.4485  1.0412
  172SAPE    HB19375   1.062   2.744   2.988  0.2585  0.6918  2.0041
  172SAPE    C219376   1.181   2.904   3.063 -0.9159 -0.3418 -0.1574
  172SAPE    HS19377   1.230   2.819   3.114 -1.5149 -0.5785  0.0358
  172SAPE   O2119378   1.151   3.017   3.149 -0.2052  0.5981  0.2410
  172SAPE   C2119379   1.178   2.998   3.274 -1.0436 -0.4787  0.1272
  172SAPE   O2219380   1.203   2.891   3.325 -0.2819 -0.4432 -0.0592
  172SAPE   C2219381   1.182   3.134   3.340  0.6156  0.5066  1.2574
  172SAPE   H2R19382   1.274   3.189   3.310  0.2152 -0.1310 -1.3611
  172SAPE   H2S19383   1.096   3.189   3.296  0.4583 -0.6893 -0.0037
  172SAPE    C319384   1.288   2.949   2.956 -0.3668 -0.3244  0.5398
  172SAPE    HX19385   1.249   3.041   2.907 -3.4534 -1.4845  0.5909
  172SAPE    HY19386   1.287   2.874   2.873 -0.1362  0.9528 -0.6462
  172SAPE   O3119387   1.424   2.958   3.014  0.2283  0.6823 -0.3714
  172SAPE   C3119388   1.514   2.994   2.915 -0.1822  0.3696 -0.4299
  172SAPE   O3219389   1.484   3.005   2.798 -0.2406  0.3924  0.1923
  172SAPE   C3219390   1.644   3.058   2.983 -0.1404 -0.3461  0.0048
  172SAPE   H2X19391   1.728   3.058   2.910 -0.1596  1.5244 -0.0597
  172SAPE   H2Y19392   1.678   2.986   3.061 -0.1416 -0.4784 -0.1166
  172SAPE   C2319393   1.173   3.122   3.487  0.5537  0.1511 -0.7034
  172SAPE   H3R19394   1.257   3.067   3.536 -1.1349 -1.0797  0.9989
  172SAPE   H3S19395   1.076   3.072   3.508  1.4970 -1.4927 -0.0654
  172SAPE   C2419396   1.185   3.251   3.571 -0.1194 -1.0349  0.6599
  172SAPE   H4R19397   1.164   3.212   3.673 -1.9586 -0.0543  0.6766
  172SAPE   H4S19398   1.111   3.326   3.536  1.7463  0.1877 -0.8701
  172SAPE   C2519399   1.328   3.301   3.561 -0.1555  0.3978  0.2874
  172SAPE   H5R19400   1.401   3.230   3.519 -0.6948 -1.0735  1.7511
  172SAPE   C2619401   1.371   3.412   3.620 -0.5507  0.1345 -0.4661
  172SAPE   H6R19402   1.473   3.451   3.606  0.4302 -1.6923  1.2384
  172SAPE   C2719403   1.285   3.495   3.716 -0.2854  0.1806 -0.0010
  172SAPE   H7R19404   1.179   3.478   3.685 -0.9859  1.6321  1.4548
  172SAPE   H7S19405   1.315   3.601   3.704  1.4895 -0.1123  1.3912
  172SAPE   C2819406   1.312   3.455   3.859  0.2409 -0.3097 -0.1698
  172SAPE   H8R19407   1.414   3.437   3.896  0.5466  0.5301 -0.5702
  172SAPE   C2919408   1.213   3.434   3.945 -0.3004  0.9488  0.1906
  172SAPE   H9R19409   1.245   3.387   4.039  1.3970 -1.2061 -1.3515
  172SAPE  C21019410   1.064   3.447   3.914  0.6426  0.6966  0.5095
  172SAPE  H10R19411   1.039   3.384   3.826 -2.1125  1.7380  0.4295
  172SAPE  H10S19412   1.041   3.551   3.881 -0.6252  0.5592  0.9182
  172SAPE  C21119413   0.974   3.405   4.029  0.1630 -0.0226  0.1368
  172SAPE  H11R19414   0.932   3.492   4.081  0.2021 -0.5856  1.1386
  172SAPE  C21219415   0.963   3.277   4.074 -0.1948 -0.8534  0.1154
  172SAPE  H12R19416   0.893   3.272   4.159  0.5289 -1.0264  0.7137
  172SAPE  C21319417   1.009   3.150   4.016  0.3931 -0.0343 -0.0468
  172SAPE  H13R19418   1.072   3.168   3.926  1.4983 -1.0169  0.5021
  172SAPE  H13S19419   0.920   3.096   3.976 -1.6969  0.6530  3.2497
  172SAPE  C21419420   1.091   3.068   4.110 -0.7614 -0.9143  0.8352
  172SAPE  H14R19421   1.087   3.102   4.214  0.4526  1.5046  0.1601
  172SAPE  C21519422   1.155   2.950   4.090  0.3918 -0.2828  0.1733
  172SAPE  H15R19423   1.228   2.918   4.166  0.1308  0.4656  0.7525
  172SAPE  C21619424   1.159   2.868   3.963 -1.1443  0.0523  0.3952
  172SAPE  H16R19425   1.180   2.765   4.000 -0.5873 -0.0380 -0.1449
  172SAPE  H16S19426   1.246   2.890   3.897 -0.8649 -0.9155  0.4215
  172SAPE  C21719427   1.033   2.864   3.871  0.4579 -0.1932 -0.8991
  172SAPE  H17R19428   1.016   2.967   3.832 -0.0708 -0.2055 -0.7064
  172SAPE  H17S19429   0.943   2.827   3.923 -0.6584 -0.5789 -3.0025
  172SAPE  C21819430   1.045   2.784   3.740  0.0083 -0.1868  0.6472
  172SAPE  H18R19431   1.042   2.675   3.762  0.6229 -0.5471 -0.9272
  172SAPE  H18S19432   1.144   2.819   3.704  0.0899 -0.5330  0.5330
  172SAPE  C21919433   0.944   2.820   3.627  0.0485 -0.1522 -0.9170
  172SAPE  H19R19434   0.988   2.760   3.544  0.8070  1.4574 -1.7419
  172SAPE  H19S19435   0.966   2.925   3.597  1.6745 -0.2785 -0.2625
  172SAPE  C22019436   0.799   2.812   3.656 -0.3324  0.1486 -0.8110
  172SAPE  H20R19437   0.772   2.870   3.746 -0.1344 -1.0708  0.0588
  172SAPE  H20S19438   0.761   2.713   3.690 -1.2642  1.3599  1.8827
  172SAPE  H20T19439   0.733   2.846   3.573 -2.8047 -2.7326 -0.2181
  172SAPE   C3319440   1.640   3.203   3.033 -0.3135 -0.2582  0.8543
  172SAPE   H3X19441   1.564   3.202   3.115 -0.4762 -1.3086  0.7010
  172SAPE   H3Y19442   1.606   3.269   2.951 -0.9723 -1.1870  0.3594
  172SAPE   C3419443   1.780   3.257   3.084  0.1868  0.5922 -0.0224
  172SAPE   H4X19444   1.783   3.368   3.082 -1.3646  0.6588 -0.8422
  172SAPE   H4Y19445   1.867   3.222   3.025  0.9184  2.2117  0.0468
  172SAPE   C3519446   1.815   3.214   3.227  0.3450 -0.3212 -0.2112
  172SAPE   H5X19447   1.926   3.207   3.231  0.6248  2.9336  2.3916
  172SAPE   H5Y19448   1.766   3.119   3.255 -0.0674  0.3690  1.5059
  172SAPE   C3619449   1.789   3.322   3.337  0.0450  0.0205  0.3609
  172SAPE   H6X19450   1.685   3.360   3.328 -0.2907 -1.2862 -1.9421
  172SAPE   H6Y19451   1.861   3.405   3.327 -0.5131  1.1561  4.1777
  172SAPE   C3719452   1.807   3.257   3.479 -0.3423 -0.0898  0.2691
  172SAPE   H7X19453   1.908   3.209   3.480 -0.6391 -1.1471 -3.6045
  172SAPE   H7Y19454   1.737   3.171   3.475  1.2615 -1.4316 -3.1269
  172SAPE   C3819455   1.781   3.359   3.598 -0.2776  0.4436 -0.3610
  172SAPE   H8X19456   1.697   3.429   3.579 -0.4553  0.6257  1.0205
  172SAPE   H8Y19457   1.871   3.424   3.605 -0.4530  0.5752  0.8556
  172SAPE   C3919458   1.742   3.288   3.724  0.4334  0.0359 -0.7501
  172SAPE   H9X19459   1.816   3.206   3.738 -0.4029 -1.0326 -2.2796
  172SAPE   H9Y19460   1.649   3.233   3.699 -0.8249  1.8635 -0.2389
  172SAPE  C31019461   1.702   3.379   3.843 -0.0453  0.2461 -0.4085
  172SAPE  H10X19462   1.613   3.443   3.828  0.5867  0.8632 -1.6068
  172SAPE  H10Y19463   1.779   3.453   3.875  0.7007 -0.2352 -1.0597
  172SAPE  C31119464   1.667   3.300   3.971 -0.3155 -0.5232 -0.4210
  172SAPE  H11X19465   1.737   3.213   3.972  1.5495  0.9059 -0.3562
  172SAPE  H11Y19466   1.566   3.255   3.966 -0.6146  0.1020 -0.1620
  172SAPE  C31219467   1.677   3.377   4.107 -0.4209 -0.7241 -0.3169
  172SAPE  H12X19468   1.677   3.487   4.089 -0.3251 -0.5470  0.7101
  172SAPE  H12Y19469   1.774   3.356   4.157  0.4952  2.5085 -0.5027
  172SAPE  C31319470   1.566   3.333   4.205  0.0339 -0.3991 -0.6124
  172SAPE  H13X19471   1.592   3.227   4.225  3.2369  0.6635  1.7587
  172SAPE  H13Y19472   1.472   3.326   4.146  0.1200  0.1324 -0.8130
  172SAPE  C31419473   1.545   3.426   4.326  0.1108 -0.3434 -0.0084
  172SAPE  H14X19474   1.440   3.420   4.363  0.2987 -1.5665  0.3841
  172SAPE  H14Y19475   1.556   3.528   4.284 -2.6053 -0.4064 -1.1045
  172SAPE  C31519476   1.629   3.393   4.453  0.2560  0.2223  0.2504
  172SAPE  H15X19477   1.739   3.384   4.441  0.1287 -1.0755 -0.0423
  172SAPE  H15Y19478   1.604   3.288   4.480  1.0430 -0.2486 -0.7798
  172SAPE  C31619479   1.591   3.489   4.570 -0.1014 -0.1361  0.1633
  172SAPE  H16X19480   1.500   3.438   4.610  0.5396 -1.0793  0.4584
  172SAPE  H16Y19481   1.566   3.592   4.539 -0.0907  0.5598  2.2913
  172SAPE  C31719482   1.694   3.488   4.686 -0.0128 -1.5541  0.4144
  172SAPE  H17X19483   1.789   3.535   4.654 -0.8345 -0.4536 -0.5043
  172SAPE  H17Y19484   1.722   3.385   4.717  0.6072 -1.1148  1.3326
  172SAPE  C31819485   1.632   3.559   4.809  0.1102  0.4066 -0.1770
  172SAPE  H18X19486   1.700   3.525   4.890 -1.0354 -1.5211  0.0463
  172SAPE  H18Y19487   1.537   3.508   4.837  1.6877 -2.2097  0.8132
  172SAPE  H18Z19488   1.630   3.670   4.808 -0.5326  0.4167  0.6586
  173SLPC     N19489   1.461   4.154   6.439  1.3663 -0.2544 -0.3646
  173SLPC   C1319490   1.550   4.250   6.510  0.6222  0.0890 -1.0871
  173SLPC  H13A19491   1.620   4.206   6.579  1.3928  1.0549 -1.2233
  173SLPC  H13B19492   1.614   4.298   6.437  0.5669  0.9741 -0.5677
  173SLPC  H13C19493   1.488   4.317   6.567  1.2573  0.6145 -1.0018
  173SLPC   C1419494   1.415   4.058   6.538  0.2465 -0.4036 -0.8814
  173SLPC  H14A19495   1.332   4.102   6.591 -0.4285 -3.3379  0.7347
  173SLPC  H14B19496   1.373   3.971   6.490  1.6881 -0.5828 -1.8829
  173SLPC  H14C19497   1.490   4.023   6.607 -0.6217  1.3464  1.0553
  173SLPC   C1519498   1.540   4.081   6.338 -0.0950  0.5331  0.5055
  173SLPC  H15A19499   1.596   4.148   6.274  0.1540  2.5054  2.6672
  173SLPC  H15B19500   1.608   4.010   6.382 -0.7194  0.6476  1.6760
  173SLPC  H15C19501   1.476   4.024   6.272  0.6551  0.3561 -0.0904
  173SLPC   C1219502   1.351   4.230   6.365  0.1569 -0.0410  0.8253
  173SLPC  H12A19503   1.309   4.162   6.293  2.1577 -1.8680  1.2556
  173SLPC  H12B19504   1.394   4.308   6.304 -0.7454  0.1629  0.4427
  173SLPC   C1119505   1.243   4.293   6.458 -0.2507  0.2139 -0.0051
  173SLPC  H11A19506   1.181   4.368   6.404  0.7825  2.3302  1.6186
  173SLPC  H11B19507   1.301   4.348   6.534  0.8100  0.1460 -0.7402
  173SLPC     P19508   1.045   4.125   6.458  0.1167 -0.0440 -0.1673
  173SLPC   O1319509   1.045   3.983   6.505 -0.0494  0.6824 -0.0757
  173SLPC   O1419510   0.925   4.208   6.476  0.1054  0.2614  0.3610
  173SLPC   O1219511   1.164   4.197   6.530 -0.1758 -0.1889 -0.6722
  173SLPC   O1119512   1.072   4.131   6.298 -1.3667 -0.1819  0.3511
  173SLPC    C119513   0.997   4.233   6.224 -0.4890  0.5802 -0.7349
  173SLPC    HA19514   0.890   4.205   6.215 -0.6473  1.2023 -0.8152
  173SLPC    HB19515   1.010   4.331   6.274 -1.2009 -1.3145  3.6546
  173SLPC    C219516   1.042   4.236   6.067 -0.0545  0.2289 -0.0760
  173SLPC    HS19517   1.003   4.140   6.026 -2.5429  0.2791  1.9201
  173SLPC   O2119518   1.186   4.243   6.071 -0.1129 -0.2317 -0.2511
  173SLPC   C2119519   1.240   4.195   5.960  0.0364  1.3070  0.1893
  173SLPC   O2219520   1.181   4.135   5.874  0.3435 -0.3608 -0.4953
  173SLPC   C2219521   1.387   4.198   5.972 -0.2808  1.0729 -0.3085
  173SLPC   H2R19522   1.433   4.290   6.014  1.4000  1.5228 -2.8671
  173SLPC   H2S19523   1.411   4.111   6.037  0.2330  1.6495  0.2902
  173SLPC    C319524   0.980   4.350   5.985  0.2850  0.4243 -0.2385
  173SLPC    HX19525   1.005   4.451   6.024 -1.8234  0.8256  0.1971
  173SLPC    HY19526   0.870   4.340   6.001  0.3700 -0.3900 -0.1582
  173SLPC   O3119527   0.997   4.339   5.843 -0.2706 -0.5883 -0.2000
  173SLPC   C3119528   1.081   4.417   5.777 -0.2441  0.4754 -0.3834
  173SLPC   O3219529   1.145   4.513   5.824 -0.8020  0.7402 -0.1523
  173SLPC   C3219530   1.080   4.385   5.628 -0.0172 -0.5025  0.7554
  173SLPC   H2X19531   0.976   4.369   5.591  0.2655  0.1972 -0.4032
  173SLPC   H2Y19532   1.132   4.287   5.617  0.3026 -0.4675  1.8909
  173SLPC   C2319533   1.450   4.170   5.830  0.0344 -0.2173 -0.2022
  173SLPC   H3R19534   1.408   4.249   5.764 -0.5825 -0.6730 -0.3534
  173SLPC   H3S19535   1.418   4.071   5.793 -2.2716  0.3145  0.2527
  173SLPC   C2419536   1.601   4.191   5.835  0.2911  0.5357  0.5233
  173SLPC   H4R19537   1.636   4.132   5.922 -1.3768 -0.3232  0.6544
  173SLPC   H4S19538   1.640   4.294   5.843 -0.5986  1.0700 -1.2925
  173SLPC   C2519539   1.675   4.142   5.707  0.9280 -0.0081 -0.0604
  173SLPC   H5R19540   1.637   4.182   5.610  0.4298 -1.4674 -0.4855
  173SLPC   H5S19541   1.658   4.033   5.709 -1.1513  0.2675 -0.6236
  173SLPC   C2619542   1.820   4.173   5.728  0.4811 -1.4196 -0.0926
  173SLPC   H6R19543   1.854   4.129   5.825 -0.2997  2.5404  2.2277
  173SLPC   H6S19544   1.837   4.283   5.732 -2.6744 -0.7624 -1.5576
  173SLPC   C2719545   1.895   4.108   5.608 -0.2803  0.2669 -0.1992
  173SLPC   H7R19546   1.863   4.156   5.513 -2.2075  2.6679  1.5454
  173SLPC   H7S19547   1.854   4.005   5.598 -0.6749  0.5425 -1.7171
  173SLPC   C2819548   2.053   4.105   5.616  0.2854  0.4330  0.3078
  173SLPC   H8R19549   2.094   4.072   5.519 -0.0096  0.3433  0.2113
  173SLPC   H8S19550   2.080   4.031   5.695 -2.1674 -0.0039  0.8316
  173SLPC   C2919551   2.116   4.245   5.635  0.5041  0.6622  0.5077
  173SLPC   H9R19552   2.122   4.282   5.738  1.6514  2.5941 -0.1994
  173SLPC  C21019553   2.150   4.327   5.534  0.3009  0.0390  0.1755
  173SLPC  H10R19554   2.165   4.432   5.563  0.7800  0.1136 -0.3346
  173SLPC  C21119555   2.154   4.303   5.384  1.2301 -0.3730  0.2758
  173SLPC  H11R19556   2.063   4.346   5.338  2.1381  1.5561  0.2020
  173SLPC  H11S19557   2.162   4.194   5.366 -3.4730 -0.8416 -0.3442
  173SLPC  C21219558   2.277   4.372   5.321 -0.3906  0.8527  0.1499
  173SLPC  H12R19559   2.297   4.470   5.368 -1.4438  0.3737  1.6707
  173SLPC  C21319560   2.352   4.322   5.217  0.7509 -0.0311 -0.0750
  173SLPC  H13R19561   2.442   4.376   5.183  0.5525 -0.4880 -1.3760
  173SLPC  C21419562   2.328   4.186   5.151 -0.3033 -0.2780 -0.7316
  173SLPC  H14R19563   2.222   4.153   5.137  0.4610 -2.6869 -1.3823
  173SLPC  H14S19564   2.366   4.110   5.222 -0.6915 -1.0091 -1.2880
  173SLPC  C21519565   2.382   4.171   5.005  0.7543  0.0995 -0.0351
  173SLPC  H15R19566   2.487   4.208   5.007 -0.4360  3.9516 -0.4091
  173SLPC  H15S19567   2.328   4.241   4.939  2.7390  1.0162 -0.7538
  173SLPC  C21619568   2.373   4.021   4.947  0.3796 -0.3040  0.4328
  173SLPC  H16R19569   2.407   4.011   4.842  0.5638 -1.5732  0.6010
  173SLPC  H16S19570   2.265   3.997   4.945  0.4760 -0.7058 -0.1350
  173SLPC  C21719571   2.447   3.912   5.032  0.1989  0.5931  0.4594
  173SLPC  H17R19572   2.368   3.836   5.054 -0.1620  0.3355 -1.5272
  173SLPC  H17S19573   2.496   3.949   5.124 -0.2252  1.9887  0.1438
  173SLPC  C21819574   2.565   3.831   4.971 -0.2171 -0.1458  0.3795
  173SLPC  H18R19575   2.523   3.775   4.885  1.8698 -1.0228 -0.1420
  173SLPC  H18S19576   2.606   3.752   5.038 -0.8250  1.2543  2.5121
  173SLPC  H18T19577   2.652   3.890   4.934  0.2163 -1.1768 -0.2720
  173SLPC   C3319578   1.131   4.501   5.538 -0.5635 -0.4421 -0.2850
  173SLPC   H3X19579   1.240   4.519   5.555 -1.0158  0.2847  2.2146
  173SLPC   H3Y19580   1.072   4.590   5.569  1.2628  0.9746 -0.6100
  173SLPC   C3419581   1.103   4.482   5.394 -0.2358  0.3121  0.0022
  173SLPC   H4X19582   1.124   4.575   5.336  2.3981  0.2753  0.7409
  173SLPC   H4Y19583   0.997   4.456   5.373 -1.1328  0.6762  3.4627
  173SLPC   C3519584   1.180   4.374   5.313  0.0409 -0.9214  0.0694
  173SLPC   H5X19585   1.134   4.370   5.212 -0.4263  0.3579  0.2100
  173SLPC   H5Y19586   1.170   4.276   5.365 -0.2897 -2.8054 -3.2847
  173SLPC   C3619587   1.328   4.398   5.298  0.4117 -0.4456  0.0388
  173SLPC   H6X19588   1.364   4.425   5.400 -1.2077 -1.1416  0.8254
  173SLPC   H6Y19589   1.321   4.485   5.230 -2.2304 -0.1785  0.5381
  173SLPC   C3719590   1.410   4.286   5.230  0.3709 -0.0305 -1.3714
  173SLPC   H7X19591   1.410   4.194   5.293  0.1043 -0.3817 -1.8833
  173SLPC   H7Y19592   1.505   4.341   5.212  0.9251  0.1644  1.6414
  173SLPC   C3819593   1.367   4.249   5.093 -0.5644 -0.3136  0.6138
  173SLPC   H8X19594   1.372   4.338   5.027 -0.3718 -0.8746 -0.1354
  173SLPC   H8Y19595   1.260   4.219   5.093 -0.3661 -1.0784  1.5958
  173SLPC   C3919596   1.445   4.132   5.022  0.0657 -0.2328 -1.0317
  173SLPC   H9X19597   1.402   4.032   5.043  0.2608  0.0549  0.9618
  173SLPC   H9Y19598   1.551   4.124   5.057 -0.0978 -3.6376 -0.9837
  173SLPC  C31019599   1.451   4.139   4.875 -0.5216 -0.9299  0.3106
  173SLPC  H10X19600   1.517   4.224   4.848 -2.0094 -0.2037 -1.2349
  173SLPC  H10Y19601   1.357   4.162   4.820  0.6326  2.8321 -0.3840
  173SLPC  C31119602   1.534   4.018   4.817  0.1151  0.4093 -0.3964
  173SLPC  H11X19603   1.487   3.921   4.844  1.5583  0.8232  4.4226
  173SLPC  H11Y19604   1.623   4.016   4.884  0.4251  0.6900 -0.7925
  173SLPC  C31219605   1.565   4.014   4.667  0.0798  0.0615  0.1191
  173SLPC  H12X19606   1.597   4.116   4.637  1.7303 -0.2185  0.7637
  173SLPC  H12Y19607   1.467   3.986   4.625 -1.2788 -0.4059  3.3441
  173SLPC  C31319608   1.680   3.916   4.615  0.4036  0.3760 -0.3106
  173SLPC  H13X19609   1.614   3.835   4.577  0.2612  0.6355 -0.6308
  173SLPC  H13Y19610   1.742   3.874   4.696  1.4178  2.3931  0.0194
  173SLPC  C31419611   1.764   3.963   4.500 -0.4683 -0.6182 -0.1131
  173SLPC  H14X19612   1.812   4.061   4.519  0.4282 -1.3055  1.3653
  173SLPC  H14Y19613   1.709   3.977   4.404  1.6094 -0.7252 -1.3848
  173SLPC  C31519614   1.876   3.866   4.459 -0.0270  0.3093  0.0456
  173SLPC  H15X19615   1.826   3.771   4.432 -1.1488  0.1438  2.4423
  173SLPC  H15Y19616   1.948   3.854   4.543 -2.4822  2.6600  2.7066
  173SLPC  C31619617   1.938   3.912   4.324 -0.8664 -0.5996 -0.7923
  173SLPC  H16X19618   1.994   4.005   4.351 -1.0461 -0.6559 -0.2153
  173SLPC  H16Y19619   1.863   3.946   4.250 -0.5634  0.1518 -0.7642
  173SLPC  C31719620   2.033   3.816   4.252 -0.3469 -0.4913  0.2545
  173SLPC  H17X19621   2.112   3.790   4.325  1.9240 -0.4442 -2.0396
  173SLPC  H17Y19622   2.088   3.871   4.172 -0.4412  1.7941  1.6565
  173SLPC  C31819623   1.980   3.705   4.175 -0.0537 -0.2177 -0.3926
  173SLPC  H18X19624   1.910   3.642   4.234 -0.8295  1.2552  0.3526
  173SLPC  H18Y19625   2.057   3.639   4.131  1.4325  0.1924  1.4569
  173SLPC  H18Z19626   1.914   3.739   4.092  0.7923 -2.8349 -2.2293
  174SLPC     N19627   5.090   4.844   7.287 -0.1102 -0.2888 -0.0329
  174SLPC   C1319628   5.044   4.923   7.410 -0.0755  0.1060 -0.2508
  174SLPC  H13A19629   5.087   5.021   7.421 -0.4605  0.1975  0.5075
  174SLPC  H13B19630   4.936   4.919   7.412 -0.0632 -0.3530 -0.4728
  174SLPC  H13C19631   5.074   4.885   7.507 -2.5787  0.2153  0.6435
  174SLPC   C1419632   5.057   4.698   7.302 -0.2051 -0.3802 -0.5631
  174SLPC  H14A19633   4.955   4.672   7.278 -0.3728 -0.8394  0.6033
  174SLPC  H14B19634   5.118   4.635   7.239 -0.6911 -1.5387  0.1002
  174SLPC  H14C19635   5.081   4.659   7.399 -1.4909 -0.3248 -0.2001
  174SLPC   C1519636   5.240   4.848   7.283 -0.5729  0.0457 -0.5475
  174SLPC  H15A19637   5.277   4.822   7.381  0.4993 -0.9903 -1.2046
  174SLPC  H15B19638   5.282   4.781   7.210  2.8648  0.1254  1.1792
  174SLPC  H15C19639   5.273   4.947   7.254  1.4061 -0.2076  0.7216
  174SLPC   C1219640   5.029   4.900   7.163  0.2949 -0.0808 -0.7453
  174SLPC  H12A19641   5.064   5.002   7.162 -0.1977  0.2640  2.9006
  174SLPC  H12B19642   4.921   4.903   7.167  0.2188 -2.5062  1.1256
  174SLPC   C1119643   5.072   4.844   7.026  0.5063 -0.3195 -0.0844
  174SLPC  H11A19644   5.004   4.893   6.953 -0.8122 -0.6809  0.8674
  174SLPC  H11B19645   5.048   4.736   7.027  1.8921 -0.6453  0.5484
  174SLPC     P19646   5.297   4.766   6.929 -0.0239  0.4091  0.4457
  174SLPC   O1319647   5.411   4.829   6.863  0.1805  0.2396  0.5640
  174SLPC   O1419648   5.326   4.671   7.037  0.0431 -0.4440 -0.0166
  174SLPC   O1219649   5.206   4.875   6.984  0.0890 -0.1338 -0.1389
  174SLPC   O1119650   5.210   4.690   6.812  0.1908 -0.0490 -0.6316
  174SLPC    C119651   5.163   4.757   6.692  0.0513 -0.9763 -0.2480
  174SLPC    HA19652   5.090   4.834   6.721  0.2225 -1.0210  0.3070
  174SLPC    HB19653   5.254   4.805   6.650  0.4592 -0.6502  0.9588
  174SLPC    C219654   5.082   4.668   6.594  0.0159  0.3312  0.2867
  174SLPC    HS19655   4.988   4.643   6.646  0.8073  2.5197  3.0193
  174SLPC   O2119656   5.171   4.551   6.565 -0.2689 -0.9526  0.3049
  174SLPC   C2119657   5.106   4.442   6.519  0.5350 -0.5370 -0.6707
  174SLPC   O2219658   4.985   4.432   6.512 -0.0074  0.1246  0.1907
  174SLPC   C2219659   5.204   4.334   6.465 -0.0286  0.5101 -0.0736
  174SLPC   H2R19660   5.237   4.389   6.374  0.1395 -1.2533 -1.1278
  174SLPC   H2S19661   5.286   4.317   6.537 -1.6155  1.7618  2.1464
  174SLPC    C319662   5.051   4.749   6.468  0.2326 -0.5898 -0.0652
  174SLPC    HX19663   5.147   4.781   6.423  0.1467 -1.6910 -1.0762
  174SLPC    HY19664   4.989   4.839   6.492  0.0158 -0.7744  0.0648
  174SLPC   O3119665   4.978   4.670   6.369  0.4848  0.1062 -0.6861
  174SLPC   C3119666   4.849   4.661   6.368 -0.0799  0.4602  0.1343
  174SLPC   O3219667   4.769   4.717   6.441 -0.3378 -0.1513  0.5656
  174SLPC   C3219668   4.794   4.558   6.254  0.1561 -0.6277 -0.8830
  174SLPC   H2X19669   4.710   4.601   6.197 -0.7338 -1.9387 -0.5966
  174SLPC   H2Y19670   4.739   4.482   6.312  0.0623 -1.0817 -1.5669
  174SLPC   C2319671   5.155   4.187   6.442  0.0516  0.3684 -0.4080
  174SLPC   H3R19672   5.053   4.194   6.398 -0.6299 -0.9404  0.8872
  174SLPC   H3S19673   5.143   4.130   6.536 -0.6706  0.2146 -0.5889
  174SLPC   C2419674   5.240   4.108   6.341  0.5097  0.0358 -0.2275
  174SLPC   H4R19675   5.219   4.000   6.354  1.1701 -0.2355 -1.3009
  174SLPC   H4S19676   5.344   4.119   6.376  0.7878  0.2871 -1.1004
  174SLPC   C2519677   5.237   4.161   6.190 -0.0509 -0.1849  0.2445
  174SLPC   H5R19678   5.279   4.264   6.194  1.6205 -0.8214  0.1470
  174SLPC   H5S19679   5.135   4.172   6.149  0.8244 -0.7568 -2.3214
  174SLPC   C2619680   5.327   4.073   6.094  0.2238  0.3465 -0.0414
  174SLPC   H6R19681   5.291   3.970   6.075  1.1142  0.4766 -2.8580
  174SLPC   H6S19682   5.427   4.069   6.142 -0.3176  0.0997  1.1083
  174SLPC   C2719683   5.341   4.138   5.950 -0.0682  0.4712  0.1927
  174SLPC   H7R19684   5.397   4.070   5.883  1.2009  0.2698  1.4072
  174SLPC   H7S19685   5.397   4.234   5.960  1.6311 -0.5999  1.6276
  174SLPC   C2819686   5.207   4.170   5.888 -0.1400 -0.8477 -0.1695
  174SLPC   H8R19687   5.238   4.208   5.788 -1.7758  4.2479  0.9869
  174SLPC   H8S19688   5.154   4.259   5.928 -1.8116 -0.6685 -2.5751
  174SLPC   C2919689   5.109   4.058   5.874  0.1749  0.1769  0.2273
  174SLPC   H9R19690   5.098   3.993   5.962  1.8125  1.2322  1.2629
  174SLPC  C21019691   5.041   4.030   5.763 -0.1036  0.1141 -0.1597
  174SLPC  H10R19692   4.978   3.940   5.758  1.1645 -0.7963 -0.2525
  174SLPC  C21119693   5.035   4.100   5.629 -0.2561 -0.2677  0.7747
  174SLPC  H11R19694   5.102   4.188   5.621 -0.7945  0.0015 -1.9890
  174SLPC  H11S19695   4.935   4.141   5.606  0.6168  2.1776  1.0589
  174SLPC  C21219696   5.070   4.015   5.506 -0.5625  0.1313  0.1599
  174SLPC  H12R19697   5.142   3.933   5.521  0.7911  1.1383 -0.5919
  174SLPC  C21319698   5.031   4.040   5.379 -0.3180 -0.0018  0.4045
  174SLPC  H13R19699   5.057   3.968   5.300 -0.9336  0.9098 -0.6619
  174SLPC  C21419700   4.933   4.145   5.329 -0.0349 -0.0148  0.4006
  174SLPC  H14R19701   4.918   4.218   5.411  1.1245  0.5685  0.1126
  174SLPC  H14S19702   4.834   4.103   5.300 -0.9254  1.9895  0.3760
  174SLPC  C21519703   4.996   4.226   5.217  0.1430 -0.0582  0.1224
  174SLPC  H15R19704   5.105   4.235   5.234  0.5582 -0.5953 -1.9948
  174SLPC  H15S19705   4.952   4.328   5.223  2.9235  1.3610 -1.8006
  174SLPC  C21619706   4.975   4.167   5.081 -1.1147 -0.3979  0.2061
  174SLPC  H16R19707   4.872   4.182   5.044 -1.4070 -0.3746  1.0001
  174SLPC  H16S19708   4.991   4.058   5.095  1.6711 -0.2709 -1.3823
  174SLPC  C21719709   5.078   4.207   4.971  0.1458 -0.5980  0.1616
  174SLPC  H17R19710   5.060   4.131   4.893  0.0560 -1.4367  0.9865
  174SLPC  H17S19711   5.176   4.198   5.023  0.4923  4.0175  0.7804
  174SLPC  C21819712   5.059   4.353   4.916 -0.3971  0.1504 -0.5343
  174SLPC  H18R19713   5.145   4.378   4.849  0.4880 -0.3770  0.3789
  174SLPC  H18S19714   5.067   4.416   5.007 -1.0970 -1.6674  0.8563
  174SLPC  H18T19715   4.960   4.364   4.867 -1.3231 -0.8692  1.0049
  174SLPC   C3319716   4.902   4.478   6.172 -0.0988 -0.4552 -0.5282
  174SLPC   H3X19717   4.971   4.415   6.231 -0.1625  1.0629  1.2723
  174SLPC   H3Y19718   4.968   4.550   6.118 -0.0259 -1.4974 -1.8836
  174SLPC   C3419719   4.833   4.395   6.065  0.6067 -0.3499 -0.6317
  174SLPC   H4X19720   4.769   4.317   6.110 -1.6163  2.0482  0.6399
  174SLPC   H4Y19721   4.917   4.337   6.020  1.6305  0.6644 -0.0984
  174SLPC   C3519722   4.762   4.466   5.943  0.1729 -0.2609  0.3114
  174SLPC   H5X19723   4.836   4.545   5.915 -1.0162  0.5229 -0.7233
  174SLPC   H5Y19724   4.662   4.511   5.961  1.3762  2.3504  1.0824
  174SLPC   C3619725   4.757   4.378   5.814 -0.0485 -0.3078 -0.4246
  174SLPC   H6X19726   4.703   4.290   5.856 -0.4284 -0.9410 -2.1777
  174SLPC   H6Y19727   4.857   4.341   5.782 -0.2333 -0.1756 -1.1720
  174SLPC   C3719728   4.667   4.431   5.702  0.0081  0.0843  0.8820
  174SLPC   H7X19729   4.697   4.536   5.685 -0.2587 -0.3240 -3.0620
  174SLPC   H7Y19730   4.563   4.415   5.736 -0.2597  1.1868  0.6100
  174SLPC   C3819731   4.680   4.345   5.574 -0.4647 -0.1551 -0.1238
  174SLPC   H8X19732   4.654   4.243   5.612 -1.2665  0.5347  1.2699
  174SLPC   H8Y19733   4.783   4.362   5.538 -0.8956 -1.4369 -2.1522
  174SLPC   C3919734   4.578   4.401   5.470  0.4935 -0.0316  0.1607
  174SLPC   H9X19735   4.601   4.508   5.450  1.1090 -0.3234 -0.7543
  174SLPC   H9Y19736   4.481   4.405   5.524 -1.3829  2.3076 -3.0643
  174SLPC  C31019737   4.570   4.321   5.343  0.0298 -0.0399 -0.0127
  174SLPC  H10X19738   4.539   4.218   5.370 -2.0838  0.0698 -1.7308
  174SLPC  H10Y19739   4.675   4.335   5.309 -0.3776 -0.7731 -1.6887
  174SLPC  C31119740   4.466   4.387   5.252 -0.0893  0.5695 -0.0628
  174SLPC  H11X19741   4.510   4.471   5.196 -0.1510  1.8202  1.6772
  174SLPC  H11Y19742   4.386   4.430   5.316 -1.6021 -0.8474 -0.9203
  174SLPC  C31219743   4.406   4.287   5.144 -0.1962 -0.5004  0.1394
  174SLPC  H12X19744   4.313   4.334   5.106 -0.1930 -1.3593 -0.9651
  174SLPC  H12Y19745   4.364   4.199   5.196 -4.1013  2.6745  3.0540
  174SLPC  C31319746   4.501   4.239   5.034 -0.9855  0.1805  0.3012
  174SLPC  H13X19747   4.604   4.231   5.075  0.4404 -0.5879 -3.1375
  174SLPC  H13Y19748   4.504   4.312   4.950  1.3517 -2.1242 -1.7789
  174SLPC  C31419749   4.471   4.108   4.970 -0.6796  0.2664  0.0613
  174SLPC  H14X19750   4.371   4.118   4.922 -1.2958 -2.3768  0.6498
  174SLPC  H14Y19751   4.471   4.027   5.046  0.2579  1.5141  1.4640
  174SLPC  C31519752   4.580   4.056   4.876 -0.0878  0.6063 -0.4236
  174SLPC  H15X19753   4.538   3.957   4.846  0.2396 -0.1201  1.3755
  174SLPC  H15Y19754   4.676   4.036   4.929 -0.5121  0.7948  0.4212
  174SLPC  C31619755   4.618   4.143   4.749  0.4402  0.7088 -0.8532
  174SLPC  H16X19756   4.689   4.093   4.679 -0.5263  1.6831 -2.6070
  174SLPC  H16Y19757   4.677   4.229   4.788  0.5480  1.0604 -1.7774
  174SLPC  C31719758   4.498   4.181   4.671  0.0076  0.7325 -0.4922
  174SLPC  H17X19759   4.428   4.237   4.736  1.9315  0.4608  1.9668
  174SLPC  H17Y19760   4.436   4.106   4.618  0.4129  1.5673 -2.2235
  174SLPC  C31819761   4.536   4.274   4.553 -0.1012  0.0179 -0.2159
  174SLPC  H18X19762   4.439   4.302   4.507  0.7183  1.6021 -1.0773
  174SLPC  H18Y19763   4.604   4.225   4.479  1.6238  1.9429 -0.0197
  174SLPC  H18Z19764   4.578   4.369   4.593 -1.0748  1.6035 -2.7265
  175SLPC     N19765   6.125   0.865   6.823  0.1534 -0.5416  0.3385
  175SLPC   C1319766   6.047   0.745   6.861  0.0057  0.0542  0.1211
  175SLPC  H13A19767   6.108   0.661   6.890 -2.8874 -2.4420 -0.5675
  175SLPC  H13B19768   5.993   0.754   6.955  0.2540 -0.3415  0.3028
  175SLPC  H13C19769   5.981   0.725   6.778  1.8382  0.0883 -1.4120
  175SLPC   C1419770   6.229   0.902   6.926 -0.0626 -0.3678 -0.5619
  175SLPC  H14A19771   6.212   0.882   7.031  0.9829 -0.8103 -0.4640
  175SLPC  H14B19772   6.308   0.829   6.924  1.2124  0.9208  0.4568
  175SLPC  H14C19773   6.267   1.000   6.903  0.1099 -0.4967 -0.8323
  175SLPC   C1519774   6.034   0.976   6.811  0.5559 -0.2968  0.8170
  175SLPC  H15A19775   5.955   0.962   6.739 -0.4391  1.1025  1.5620
  175SLPC  H15B19776   5.989   1.007   6.905  1.6599  2.6562  0.4725
  175SLPC  H15C19777   6.080   1.058   6.758 -2.3920  0.0867 -1.3949
  175SLPC   C1219778   6.195   0.835   6.688 -0.4649  0.3454 -0.6871
  175SLPC  H12A19779   6.271   0.910   6.677  0.8488 -0.4000  2.4667
  175SLPC  H12B19780   6.129   0.857   6.605 -0.6552  2.8704  0.0651
  175SLPC   C1119781   6.259   0.699   6.657  0.0142 -0.1432  0.9813
  175SLPC  H11A19782   6.301   0.708   6.555  0.2071 -1.2225  0.9559
  175SLPC  H11B19783   6.197   0.608   6.643  1.0887 -0.7645  0.1327
  175SLPC     P19784   6.490   0.731   6.748 -0.0086  0.0887 -0.2876
  175SLPC   O1319785   6.482   0.882   6.751  0.1957  0.4674 -0.1961
  175SLPC   O1419786   6.584   0.675   6.848  0.1163 -0.2095  0.2454
  175SLPC   O1219787   6.354   0.664   6.755 -0.3704 -0.2376 -0.2163
  175SLPC   O1119788   6.549   0.689   6.605 -0.4721  0.0809 -0.5977
  175SLPC    C119789   6.606   0.559   6.578  0.4859 -0.1447  0.5218
  175SLPC    HA19790   6.693   0.540   6.643 -0.7159  0.6264  2.4210
  175SLPC    HB19791   6.531   0.481   6.603  0.7700 -0.3795  0.6445
  175SLPC    C219792   6.631   0.531   6.424  0.0937 -0.2151 -0.3943
  175SLPC    HS19793   6.703   0.446   6.424 -0.7138 -0.9446  1.2379
  175SLPC   O2119794   6.682   0.655   6.357  0.5304  0.2125  0.8384
  175SLPC   C2119795   6.800   0.697   6.403 -0.0631  0.0423  0.6945
  175SLPC   O2219796   6.877   0.628   6.462  0.0004 -0.5202  0.6673
  175SLPC   C2219797   6.826   0.841   6.357  0.5158  0.3679 -0.4012
  175SLPC   H2R19798   6.744   0.898   6.404  2.7347  1.2677  2.6689
  175SLPC   H2S19799   6.918   0.876   6.407  1.0997  1.0467 -1.8890
  175SLPC    C319800   6.498   0.472   6.360 -0.2650  0.2971  0.2995
  175SLPC    HX19801   6.422   0.547   6.391 -2.1525 -2.0766  1.7646
  175SLPC    HY19802   6.466   0.385   6.422 -0.1443  0.2568  0.3049
  175SLPC   O3119803   6.493   0.448   6.218 -0.4810 -0.1748  0.4088
  175SLPC   C3119804   6.553   0.342   6.182 -0.2452 -0.1438  0.3617
  175SLPC   O3219805   6.621   0.267   6.253  0.3455  0.6196  0.3554
  175SLPC   C3219806   6.537   0.334   6.027  0.5253  0.2327  0.5521
  175SLPC   H2X19807   6.429   0.329   6.002  0.7976  2.3789 -1.4391
  175SLPC   H2Y19808   6.594   0.242   6.004 -0.1733  0.1733 -1.0160
  175SLPC   C2319809   6.850   0.861   6.207 -0.6239 -0.0021 -0.4865
  175SLPC   H3R19810   6.943   0.808   6.177  1.2517  3.0946 -0.4952
  175SLPC   H3S19811   6.865   0.968   6.184  3.3053 -0.4931 -0.9382
  175SLPC   C2419812   6.743   0.814   6.113 -0.7702  0.1778  0.1570
  175SLPC   H4R19813   6.642   0.835   6.154 -0.7752  2.8223 -0.9852
  175SLPC   H4S19814   6.741   0.705   6.093 -1.3094  0.8551 -4.9162
  175SLPC   C2519815   6.766   0.877   5.965  0.1518  0.5199  0.2457
  175SLPC   H5R19816   6.867   0.842   5.936  0.0308 -1.0571  1.5853
  175SLPC   H5S19817   6.749   0.987   5.972 -1.3837  0.2056  2.1732
  175SLPC   C2619818   6.676   0.809   5.862 -0.1613 -0.2047 -0.6890
  175SLPC   H6R19819   6.570   0.822   5.895  1.2671  3.4386  3.4060
  175SLPC   H6S19820   6.705   0.702   5.853  2.3166  0.3709 -0.2655
  175SLPC   C2719821   6.686   0.864   5.719  0.6946 -0.6299 -1.3776
  175SLPC   H7R19822   6.672   0.776   5.652 -1.7608 -1.8672  0.5523
  175SLPC   H7S19823   6.784   0.913   5.706  0.0924  1.2469  0.5399
  175SLPC   C2819824   6.592   0.990   5.686 -0.1409  0.5258  0.0523
  175SLPC   H8R19825   6.487   0.963   5.713  0.7114 -0.0557  3.2441
  175SLPC   H8S19826   6.592   1.002   5.576  0.5179  0.9365  0.0956
  175SLPC   C2919827   6.631   1.121   5.744 -0.0378  0.1484 -0.0449
  175SLPC   H9R19828   6.698   1.118   5.831 -1.8953 -2.2750  1.4420
  175SLPC  C21019829   6.585   1.241   5.700  0.7176  0.5750 -0.1115
  175SLPC  H10R19830   6.617   1.331   5.754 -2.0799  4.2532 -3.8757
  175SLPC  C21119831   6.493   1.248   5.578 -0.7628  0.1839 -0.0525
  175SLPC  H11R19832   6.425   1.161   5.562  0.3938 -0.6900 -0.3394
  175SLPC  H11S19833   6.549   1.256   5.483  0.9385 -0.2267  0.8723
  175SLPC  C21219834   6.400   1.365   5.586  0.1472  0.3572 -0.4636
  175SLPC  H12R19835   6.385   1.398   5.690  0.9296 -1.7168  0.3563
  175SLPC  C21319836   6.347   1.441   5.488  0.3362  0.2424  0.6027
  175SLPC  H13R19837   6.260   1.502   5.519 -0.3176 -0.5449  0.3540
  175SLPC  C21419838   6.362   1.421   5.335  0.3143  0.5790 -0.6924
  175SLPC  H14R19839   6.356   1.315   5.301  3.2333 -0.3778  1.3640
  175SLPC  H14S19840   6.457   1.461   5.294 -0.4989  3.2010 -0.1931
  175SLPC  C21519841   6.251   1.497   5.250 -0.2802 -0.7264 -0.5230
  175SLPC  H15R19842   6.266   1.605   5.270 -2.2024 -0.2998 -1.2307
  175SLPC  H15S19843   6.151   1.478   5.295 -0.6535 -0.7789 -1.3691
  175SLPC  C21619844   6.259   1.474   5.100  0.2600  0.5375 -0.2913
  175SLPC  H16R19845   6.235   1.366   5.089 -0.0102  0.2292  2.4782
  175SLPC  H16S19846   6.365   1.471   5.068  0.2867 -1.9753 -0.1981
  175SLPC  C21719847   6.174   1.565   5.020  0.2203 -0.0789  0.0540
  175SLPC  H17R19848   6.078   1.581   5.075  0.1125  0.5571 -0.3103
  175SLPC  H17S19849   6.166   1.518   4.920  0.5096  2.4562 -1.2401
  175SLPC  C21819850   6.238   1.705   5.006  0.1123 -0.4503  0.0751
  175SLPC  H18R19851   6.161   1.779   4.976 -0.1765 -0.3560  1.0185
  175SLPC  H18S19852   6.324   1.710   4.936  0.1033  1.7879  0.1514
  175SLPC  H18T19853   6.276   1.746   5.103 -0.9137  1.8661 -0.4485
  175SLPC   C3319854   6.604   0.448   5.946  0.2885 -0.7369  0.0913
  175SLPC   H3X19855   6.712   0.446   5.974  0.2223 -0.6750  0.3482
  175SLPC   H3Y19856   6.570   0.547   5.983  2.5095  0.1975 -0.2038
  175SLPC   C3419857   6.601   0.424   5.800 -0.1125 -0.2048  1.0273
  175SLPC   H4X19858   6.647   0.332   5.757  2.2020  1.7553 -1.0007
  175SLPC   H4Y19859   6.664   0.508   5.765 -1.4774  1.4766  2.4441
  175SLPC   C3519860   6.467   0.433   5.739  0.5251 -0.1203 -0.5764
  175SLPC   H5X19861   6.424   0.530   5.772 -0.3558 -0.2826 -1.2022
  175SLPC   H5Y19862   6.398   0.354   5.777 -1.2991  2.2587  1.4090
  175SLPC   C3619863   6.470   0.423   5.585 -1.0316  0.3316 -0.5128
  175SLPC   H6X19864   6.368   0.449   5.547 -0.5597 -1.1211 -2.9885
  175SLPC   H6Y19865   6.501   0.321   5.557 -1.1654 -0.1193  0.9011
  175SLPC   C3719866   6.555   0.528   5.518  0.1788 -0.0199  0.8106
  175SLPC   H7X19867   6.652   0.477   5.502  1.5721  2.8284 -0.6069
  175SLPC   H7Y19868   6.562   0.624   5.574  1.8801  0.6825 -0.5014
  175SLPC   C3819869   6.508   0.554   5.373 -0.0447 -0.3237 -0.5941
  175SLPC   H8X19870   6.402   0.587   5.371  0.6771  2.2946 -0.4959
  175SLPC   H8Y19871   6.532   0.454   5.333  2.8118  0.3113 -0.7145
  175SLPC   C3919872   6.584   0.662   5.303 -0.1353 -0.0397 -0.5997
  175SLPC   H9X19873   6.569   0.656   5.193 -0.7202 -0.1058 -0.5186
  175SLPC   H9Y19874   6.688   0.648   5.341 -0.3897 -1.0743 -0.2390
  175SLPC  C31019875   6.551   0.802   5.350  0.0014  0.1175 -0.2809
  175SLPC  H10X19876   6.568   0.813   5.459  3.1983  0.9010 -0.7585
  175SLPC  H10Y19877   6.445   0.829   5.336 -0.4821 -1.8115 -0.6235
  175SLPC  C31119878   6.642   0.908   5.284 -0.6431 -0.1280  1.1975
  175SLPC  H11X19879   6.743   0.896   5.329 -1.1870 -0.8090  2.2869
  175SLPC  H11Y19880   6.607   1.008   5.318 -1.2238  0.3471 -0.7100
  175SLPC  C31219881   6.636   0.907   5.134  0.3956  0.8286 -0.4576
  175SLPC  H12X19882   6.531   0.919   5.096  1.0118 -0.5501 -2.8327
  175SLPC  H12Y19883   6.687   0.815   5.100  0.2087  0.6990 -0.3890
  175SLPC  C31319884   6.714   1.022   5.075 -0.1151 -0.6367 -0.3424
  175SLPC  H13X19885   6.811   1.036   5.127 -0.6426 -2.2980  1.1915
  175SLPC  H13Y19886   6.637   1.103   5.078  0.0961 -0.4531  1.8961
  175SLPC  C31419887   6.750   1.004   4.930  0.2382 -0.2512 -0.9232
  175SLPC  H14X19888   6.650   0.985   4.886 -0.6477  2.0187  0.0067
  175SLPC  H14Y19889   6.813   0.914   4.908  0.2995 -0.0321 -1.6849
  175SLPC  C31519890   6.815   1.120   4.852  0.3544 -0.1697 -0.2926
  175SLPC  H15X19891   6.751   1.210   4.851 -1.7521 -1.5923 -0.9194
  175SLPC  H15Y19892   6.839   1.082   4.750  2.5008  0.8277 -0.2036
  175SLPC  C31619893   6.949   1.173   4.910 -0.2123  0.1722 -0.5233
  175SLPC  H16X19894   7.012   1.091   4.951 -0.4828 -0.0939 -0.6396
  175SLPC  H16Y19895   6.923   1.236   4.997 -2.2850  0.2480 -1.1381
  175SLPC  C31719896   7.029   1.248   4.805 -0.0319  0.0069  1.2340
  175SLPC  H17X19897   6.972   1.335   4.765 -1.6469 -0.8490  1.5963
  175SLPC  H17Y19898   7.036   1.177   4.720 -3.1741 -0.4572  1.2234
  175SLPC  C31819899   7.169   1.302   4.837  0.3827 -0.0459  0.0173
  175SLPC  H18X19900   7.235   1.218   4.867  0.1705  0.2261  1.3095
  175SLPC  H18Y19901   7.164   1.384   4.913 -1.5661  0.8908 -1.0526
  175SLPC  H18Z19902   7.208   1.349   4.745  0.3427 -0.3164 -0.1361
  176SLPC     N19903   1.529   6.735   6.716  0.0119  0.2946  0.2516
  176SLPC   C1319904   1.431   6.691   6.615  0.2991  0.4157 -0.2175
  176SLPC  H13A19905   1.439   6.584   6.600 -1.1586 -0.2020  2.7004
  176SLPC  H13B19906   1.334   6.711   6.658  1.2418  0.2623  2.1718
  176SLPC  H13C19907   1.441   6.751   6.526 -0.5741  0.2931 -0.4051
  176SLPC   C1419908   1.513   6.879   6.732 -0.2913 -0.2397 -0.3656
  176SLPC  H14A19909   1.575   6.919   6.811 -1.4136  2.0439 -0.5574
  176SLPC  H14B19910   1.541   6.938   6.646  0.0331 -0.7377 -0.6086
  176SLPC  H14C19911   1.413   6.905   6.762 -0.3967  1.4283 -1.9810
  176SLPC   C1519912   1.661   6.701   6.661  0.1761 -1.1850  0.5057
  176SLPC  H15A19913   1.665   6.598   6.629 -1.2792 -0.6717 -1.4761
  176SLPC  H15B19914   1.677   6.750   6.566 -1.1636 -0.4182  0.6528
  176SLPC  H15C19915   1.734   6.726   6.737  1.6810  1.3485 -1.6463
  176SLPC   C1219916   1.511   6.656   6.844 -0.7753 -0.3038 -0.1129
  176SLPC  H12A19917   1.602   6.672   6.901 -1.5726 -1.0373  1.4239
  176SLPC  H12B19918   1.515   6.550   6.821 -0.4888  0.0979 -2.0874
  176SLPC   C1119919   1.383   6.682   6.929 -0.2840 -0.7681  0.2122
  176SLPC  H11A19920   1.361   6.601   7.001 -1.2550  1.2121  2.2393
  176SLPC  H11B19921   1.298   6.689   6.858  0.4368  1.5768 -0.5104
  176SLPC     P19922   1.280   6.912   7.005 -0.5225  0.0275  0.7671
  176SLPC   O1319923   1.162   6.855   7.075  0.2210  0.7482 -0.0885
  176SLPC   O1419924   1.336   7.036   7.064 -0.3443  0.2303 -0.3270
  176SLPC   O1219925   1.397   6.805   7.001 -0.2110  0.1716 -0.0257
  176SLPC   O1119926   1.239   6.930   6.853  0.2872  0.4046  0.1364
  176SLPC    C119927   1.213   7.054   6.796 -0.4809  0.0253 -0.1878
  176SLPC    HA19928   1.265   7.140   6.843 -3.2365  2.1588 -0.7964
  176SLPC    HB19929   1.254   7.052   6.693 -0.2568  0.5546 -0.1105
  176SLPC    C219930   1.055   7.084   6.772 -0.5450 -0.2168  0.3331
  176SLPC    HS19931   1.007   7.070   6.871 -1.3863 -1.8924 -0.2845
  176SLPC   O2119932   1.001   6.997   6.668 -0.0578 -0.0630 -0.4222
  176SLPC   C2119933   0.871   6.965   6.688  0.5917  0.6795 -0.3375
  176SLPC   O2219934   0.802   7.017   6.769  0.1079 -0.5760 -0.5197
  176SLPC   C2219935   0.822   6.863   6.588 -0.0562 -0.7761 -0.4591
  176SLPC   H2R19936   0.874   6.766   6.605 -0.2046 -0.8720 -0.5482
  176SLPC   H2S19937   0.717   6.832   6.610  0.4767 -2.0335  0.4508
  176SLPC    C319938   1.025   7.234   6.733  0.0681  0.2977  0.5167
  176SLPC    HX19939   1.052   7.302   6.817 -0.7112  1.7100 -0.3347
  176SLPC    HY19940   0.916   7.249   6.714  0.3241 -1.2029 -2.7125
  176SLPC   O3119941   1.101   7.270   6.616  0.5727 -0.2843 -0.5140
  176SLPC   C3119942   1.029   7.284   6.501 -0.6398 -0.2131 -0.1643
  176SLPC   O3219943   0.905   7.280   6.499 -0.5915  0.1870 -0.2666
  176SLPC   C3219944   1.123   7.278   6.383  0.1340  0.0842  0.3011
  176SLPC   H2X19945   1.214   7.222   6.412  3.2950  0.9081 -6.2146
  176SLPC   H2Y19946   1.150   7.384   6.358 -0.4330  0.1871  0.1189
  176SLPC   C2319947   0.846   6.906   6.444  0.3489  0.2915  0.8500
  176SLPC   H3R19948   0.952   6.936   6.435  0.2488  1.3742  2.8225
  176SLPC   H3S19949   0.784   6.998   6.431 -0.6554 -0.5496 -0.6706
  176SLPC   C2419950   0.806   6.795   6.335 -0.3284  0.5811  0.2946
  176SLPC   H4R19951   0.862   6.706   6.369 -0.7828 -0.1164 -0.7542
  176SLPC   H4S19952   0.847   6.817   6.234  1.6514  0.6876  1.0791
  176SLPC   C2519953   0.660   6.748   6.332  0.2013 -0.2979 -0.9609
  176SLPC   H5R19954   0.603   6.827   6.385  3.9087  0.7314  1.9143
  176SLPC   H5S19955   0.647   6.656   6.393 -0.3384  0.3263 -0.1287
  176SLPC   C2619956   0.612   6.720   6.191  0.1735  0.3127  0.0697
  176SLPC   H6R19957   0.693   6.658   6.148  0.8554 -0.2709  2.0745
  176SLPC   H6S19958   0.593   6.812   6.131 -1.2407 -0.0577 -0.0719
  176SLPC   C2719959   0.479   6.642   6.197 -0.1069  0.0313 -0.1337
  176SLPC   H7R19960   0.437   6.658   6.095  0.4837 -3.4735 -1.0660
  176SLPC   H7S19961   0.405   6.682   6.269 -1.3686  0.9818 -1.8775
  176SLPC   C2819962   0.470   6.495   6.233 -0.0803  0.5350 -0.1100
  176SLPC   H8R19963   0.519   6.486   6.333 -0.8620 -0.7678  0.1747
  176SLPC   H8S19964   0.527   6.436   6.158 -1.6565 -0.8336 -0.2804
  176SLPC   C2919965   0.330   6.441   6.265  0.1710  0.0327 -0.1609
  176SLPC   H9R19966   0.272   6.498   6.338 -1.0847 -0.2856 -0.8740
  176SLPC  C21019967   0.270   6.333   6.212 -0.1728 -0.5355  0.5092
  176SLPC  H10R19968   0.177   6.293   6.256 -1.5054  0.1986 -1.4586
  176SLPC  C21119969   0.320   6.248   6.099 -0.4628 -0.2214  0.0433
  176SLPC  H11R19970   0.305   6.139   6.119 -1.5028 -0.1729 -0.4010
  176SLPC  H11S19971   0.430   6.253   6.094 -0.4223  1.6047  1.5155
  176SLPC  C21219972   0.248   6.281   5.966  0.8952 -0.1934 -0.2007
  176SLPC  H12R19973   0.172   6.359   5.979  0.4508 -0.6160 -0.2791
  176SLPC  C21319974   0.259   6.215   5.848 -0.1280 -0.5632 -0.1766
  176SLPC  H13R19975   0.207   6.265   5.765 -1.3392 -0.7395  0.4530
  176SLPC  C21419976   0.360   6.104   5.825  0.3808 -0.4147 -0.0174
  176SLPC  H14R19977   0.307   6.006   5.822 -1.1419  0.3823  0.0969
  176SLPC  H14S19978   0.442   6.104   5.900 -1.9084  2.8146  2.7926
  176SLPC  C21519979   0.409   6.122   5.675 -0.2350 -0.2764  0.0109
  176SLPC  H15R19980   0.447   6.226   5.668 -1.3182  0.1927  0.8460
  176SLPC  H15S19981   0.328   6.127   5.599 -0.5180  0.8628  0.3695
  176SLPC  C21619982   0.516   6.031   5.633 -0.3390  0.8676 -0.0237
  176SLPC  H16R19983   0.472   5.929   5.625 -3.0488  1.9388  0.3933
  176SLPC  H16S19984   0.597   6.033   5.710  0.6869 -0.4990 -1.0095
  176SLPC  C21719985   0.586   6.048   5.495 -0.0130  0.2161  0.8756
  176SLPC  H17R19986   0.506   6.043   5.418  0.2471  0.8404  0.5570
  176SLPC  H17S19987   0.647   5.959   5.468 -0.7520 -0.0422  0.0186
  176SLPC  C21819988   0.670   6.180   5.478  0.3281 -0.5669  0.2080
  176SLPC  H18R19989   0.598   6.264   5.495  2.0059  1.0549 -0.4006
  176SLPC  H18S19990   0.715   6.193   5.378  0.0479  1.4246  0.2921
  176SLPC  H18T19991   0.751   6.178   5.554  0.4952 -1.7490  0.0121
  176SLPC   C3319992   1.065   7.208   6.255  0.1826  0.7582 -0.5025
  176SLPC   H3X19993   0.972   7.252   6.214  0.1201  1.0766 -0.0265
  176SLPC   H3Y19994   1.049   7.102   6.284  3.7027  0.0565 -0.6567
  176SLPC   C3419995   1.172   7.202   6.146 -0.1081 -0.2574  0.5451
  176SLPC   H4X19996   1.261   7.152   6.189 -0.2517 -2.6667 -1.7269
  176SLPC   H4Y19997   1.199   7.303   6.108 -1.9515 -0.7855 -2.5262
  176SLPC   C3519998   1.123   7.131   6.017  0.1474 -0.7235  0.3475
  176SLPC   H5X19999   1.024   7.179   6.000  0.9509  1.1581  0.6758
  176SLPC   H5Y20000   1.118   7.023   6.041  0.8287 -0.7843  0.2391
  176SLPC   C3620001   1.225   7.155   5.893 -0.0536 -0.4344 -0.5411
  176SLPC   H6X20002   1.325   7.110   5.911 -1.0749 -1.9316  1.9183
  176SLPC   H6Y20003   1.249   7.263   5.900 -0.9068 -0.1859 -1.3146
  176SLPC   C3720004   1.171   7.105   5.754  0.2685 -0.7510  0.1868
  176SLPC   H7X20005   1.073   7.156   5.738  0.0038 -1.3135  0.0025
  176SLPC   H7Y20006   1.149   6.999   5.776 -0.2490 -0.3704  1.6059
  176SLPC   C3820007   1.261   7.132   5.636 -0.0713 -0.4045  0.1292
  176SLPC   H8X20008   1.353   7.069   5.634  1.2528  1.4444 -1.4107
  176SLPC   H8Y20009   1.297   7.236   5.625 -2.9569  0.6323 -0.1639
  176SLPC   C3920010   1.197   7.093   5.504  0.8934 -0.8184  0.7458
  176SLPC   H9X20011   1.097   7.142   5.500  1.9205  1.3632 -0.3490
  176SLPC   H9Y20012   1.187   6.983   5.491  0.0259 -0.5912 -0.8382
  176SLPC  C31020013   1.291   7.156   5.387  0.0392  0.1512 -1.1160
  176SLPC  H10X20014   1.394   7.121   5.409  0.6466  2.0282 -0.7996
  176SLPC  H10Y20015   1.288   7.264   5.412 -1.8088 -0.0948 -0.0757
  176SLPC  C31120016   1.238   7.119   5.253 -0.5085  0.0914  0.5198
  176SLPC  H11X20017   1.284   7.185   5.176  2.4750 -5.0227 -2.6207
  176SLPC  H11Y20018   1.128   7.138   5.252 -0.5656 -0.2434 -0.1909
  176SLPC  C31220019   1.273   6.979   5.206 -0.6229  0.4692 -0.7643
  176SLPC  H12X20020   1.252   6.900   5.281  1.8416  2.5367  2.3954
  176SLPC  H12Y20021   1.384   6.976   5.200 -0.6390 -1.4225 -0.7795
  176SLPC  C31320022   1.235   6.934   5.069 -0.8790  0.3706  0.7342
  176SLPC  H13X20023   1.321   6.885   5.018  0.0445 -0.5028  2.9575
  176SLPC  H13Y20024   1.203   7.022   5.010  0.6966 -0.3337 -1.2631
  176SLPC  C31420025   1.116   6.840   5.070  0.6269  0.2632 -0.0546
  176SLPC  H14X20026   1.038   6.899   5.123 -1.5364 -2.2213 -0.2602
  176SLPC  H14Y20027   1.134   6.752   5.136 -1.7748 -0.6817 -0.5232
  176SLPC  C31520028   1.051   6.792   4.936  0.4968  0.0938  0.3802
  176SLPC  H15X20029   1.124   6.724   4.887  0.4219  0.3181 -0.0493
  176SLPC  H15Y20030   1.028   6.880   4.872 -1.2940 -0.4846  0.1882
  176SLPC  C31620031   0.924   6.705   4.960 -0.1738 -0.3157  0.1485
  176SLPC  H16X20032   0.945   6.622   5.030  0.7181 -0.1930  0.0322
  176SLPC  H16Y20033   0.907   6.645   4.867 -1.9989 -0.1146  0.3185
  176SLPC  C31720034   0.795   6.791   4.977 -0.2507  0.4848 -0.7875
  176SLPC  H17X20035   0.802   6.882   4.915 -0.9876  0.6172 -0.6907
  176SLPC  H17Y20036   0.786   6.835   5.079 -2.8382  2.0456 -1.5961
  176SLPC  C31820037   0.661   6.715   4.963 -0.2030 -0.2713 -0.9819
  176SLPC  H18X20038   0.574   6.783   4.967 -0.5256 -0.7218  1.0842
  176SLPC  H18Y20039   0.651   6.656   5.057 -1.4658  1.3502 -0.0416
  176SLPC  H18Z20040   0.657   6.660   4.866 -0.1476 -2.2686  0.0835
  177SLPC     N20041   0.463   0.462   7.294  0.1323 -0.8357  0.1985
  177SLPC   C1320042   0.382   0.547   7.387  0.4304 -0.2715  0.1039
  177SLPC  H13A20043   0.305   0.481   7.423  0.6359 -0.1246  0.8380
  177SLPC  H13B20044   0.437   0.587   7.471  3.1738 -1.3985 -1.0390
  177SLPC  H13C20045   0.338   0.634   7.341  2.7109  0.4390 -0.8857
  177SLPC   C1420046   0.483   0.328   7.353 -0.2298  0.9298 -0.0321
  177SLPC  H14A20047   0.543   0.261   7.292  0.4433  0.3922  1.1741
  177SLPC  H14B20048   0.521   0.322   7.454  2.2109 -1.1088 -0.9381
  177SLPC  H14C20049   0.387   0.281   7.363 -0.6112  1.7831  0.4144
  177SLPC   C1520050   0.596   0.527   7.279 -0.1174 -0.4661  0.2791
  177SLPC  H15A20051   0.645   0.549   7.373 -0.1906 -2.5376  0.8503
  177SLPC  H15B20052   0.665   0.467   7.222  0.7389  0.3795  0.4083
  177SLPC  H15C20053   0.577   0.620   7.229 -1.2914  0.0526  1.6065
  177SLPC   C1220054   0.400   0.458   7.160  0.2252  0.2849  0.8735
  177SLPC  H12A20055   0.455   0.384   7.103  0.6809  1.1346  0.1703
  177SLPC  H12B20056   0.424   0.549   7.107 -0.6367  0.2872  0.4661
  177SLPC   C1120057   0.260   0.395   7.140 -1.1679  0.1239  0.6585
  177SLPC  H11A20058   0.223   0.410   7.037  1.0732  0.7870 -0.1138
  177SLPC  H11B20059   0.191   0.444   7.213 -2.3389 -0.6987  0.1349
  177SLPC     P20060   0.320   0.160   7.053 -0.0117  0.0440 -0.0774
  177SLPC   O1320061   0.467   0.184   7.039 -0.4805 -0.0486 -0.4383
  177SLPC   O1420062   0.288   0.016   7.077  0.0177  0.1317  0.3476
  177SLPC   O1220063   0.261   0.251   7.167 -0.4136 -0.3770  0.0683
  177SLPC   O1120064   0.242   0.219   6.930  0.4787  0.3171  0.7457
  177SLPC    C120065   0.111   0.163   6.897  0.1790 -0.0443  0.2880
  177SLPC    HA20066   0.084   0.061   6.930 -1.2450  0.2831  0.2202
  177SLPC    HB20067   0.034   0.228   6.946 -0.5324  0.0102 -0.8734
  177SLPC    C220068   0.078   0.168   6.743 -0.0411 -0.1314  0.0688
  177SLPC    HS20069   0.012   0.079   6.726  1.6514 -1.3860 -0.2143
  177SLPC   O2120070   0.200   0.153   6.668  0.0431 -0.1410  0.1490
  177SLPC   C2120071   0.277   0.047   6.687 -0.4389  0.1556 -0.8214
  177SLPC   O2220072   0.247  -0.056   6.750 -0.1485  0.2342  0.1180
  177SLPC   C2220073   0.410   0.070   6.605 -0.1617  0.1500  0.1758
  177SLPC   H2R20074   0.478   0.132   6.666  2.3271 -0.9630 -1.2994
  177SLPC   H2S20075   0.454  -0.032   6.599 -2.1543 -0.7933  0.4277
  177SLPC    C320076   0.006   0.300   6.704 -0.3978 -0.0658  0.6639
  177SLPC    HX20077   0.068   0.389   6.728  0.2139 -0.3993  0.3479
  177SLPC    HY20078  -0.087   0.314   6.764  0.3291  2.3916  1.3514
  177SLPC   O3120079  -0.034   0.286   6.566 -0.0153 -0.5343 -0.2837
  177SLPC   C3120080   0.039   0.351   6.480 -0.2696 -0.3877  0.8595
  177SLPC   O3220081   0.136   0.421   6.506  0.2409 -0.2502  0.0052
  177SLPC   C3220082  -0.025   0.335   6.343 -0.0197 -0.5404  0.3228
  177SLPC   H2X20083  -0.066   0.436   6.319  1.7312  0.1298  0.0179
  177SLPC   H2Y20084  -0.104   0.257   6.338 -2.1459  1.5249 -0.3703
  177SLPC   C2320085   0.392   0.145   6.475  0.5678  0.3662  0.1761
  177SLPC   H3R20086   0.333   0.238   6.491 -1.7159 -0.9854  0.0273
  177SLPC   H3S20087   0.332   0.085   6.404 -0.5227  1.5606  0.0573
  177SLPC   C2420088   0.536   0.168   6.427 -0.0946  0.2566 -0.0292
  177SLPC   H4R20089   0.601   0.078   6.422  3.0923  2.0601  3.3206
  177SLPC   H4S20090   0.590   0.238   6.494  0.7822 -0.0386 -0.4203
  177SLPC   C2520091   0.547   0.235   6.284 -0.4489  0.2351  0.1287
  177SLPC   H5R20092   0.614   0.323   6.294  1.8591 -1.4491  0.2874
  177SLPC   H5S20093   0.446   0.275   6.259 -0.3095  0.6067  0.1631
  177SLPC   C2620094   0.596   0.147   6.169 -0.6504  0.7085  0.2368
  177SLPC   H6R20095   0.535   0.054   6.170 -1.8458  1.4424 -0.9153
  177SLPC   H6S20096   0.701   0.113   6.185 -0.7993  1.0422  2.1228
  177SLPC   C2720097   0.591   0.233   6.038  0.3423  0.1161 -0.6355
  177SLPC   H7R20098   0.622   0.337   6.064 -1.4178  0.2367  1.2306
  177SLPC   H7S20099   0.484   0.234   6.008 -0.1577  1.9325  1.0025
  177SLPC   C2820100   0.684   0.171   5.935  0.0404 -0.0379 -0.4787
  177SLPC   H8R20101   0.781   0.166   5.990 -0.3414  0.3985  0.2452
  177SLPC   H8S20102   0.705   0.242   5.852  0.4049 -0.2458 -0.5696
  177SLPC   C2920103   0.619   0.045   5.880 -0.0998 -1.0637 -0.7479
  177SLPC   H9R20104   0.517   0.064   5.844 -0.6976 -0.6232  1.0600
  177SLPC  C21020105   0.680  -0.072   5.875 -0.3833 -0.0657  0.4604
  177SLPC  H10R20106   0.636  -0.156   5.819  2.1785  0.1750 -2.1058
  177SLPC  C21120107   0.826  -0.098   5.919  0.7582  0.2431  0.3990
  177SLPC  H11R20108   0.815  -0.144   6.019 -0.6365 -1.8082 -0.6252
  177SLPC  H11S20109   0.886  -0.004   5.920  0.1166  0.6582  0.1308
  177SLPC  C21220110   0.907  -0.202   5.848 -0.4434 -0.6635  0.4352
  177SLPC  H12R20111   0.934  -0.292   5.905 -0.1250 -1.0454 -0.3068
  177SLPC  C21320112   0.935  -0.212   5.719 -0.4791 -0.7415  0.1137
  177SLPC  H13R20113   0.998  -0.297   5.687 -0.7661 -0.6853 -0.6176
  177SLPC  C21420114   0.896  -0.108   5.620  0.0746 -0.1925 -0.3326
  177SLPC  H14R20115   0.985  -0.086   5.557  0.0107 -2.3388 -1.2526
  177SLPC  H14S20116   0.859  -0.015   5.668  0.1258  0.4697 -1.5374
  177SLPC  C21520117   0.799  -0.144   5.504  0.0602 -0.1723  0.3471
  177SLPC  H15R20118   0.766  -0.049   5.459 -0.2718 -0.4296  0.0413
  177SLPC  H15S20119   0.700  -0.179   5.541 -0.5388  1.4855  0.3586
  177SLPC  C21620120   0.862  -0.244   5.402  0.8992  0.2596 -0.1073
  177SLPC  H16R20121   0.967  -0.220   5.376  2.0713 -2.8846  1.2903
  177SLPC  H16S20122   0.792  -0.228   5.317 -0.8571 -0.0371  1.2168
  177SLPC  C21720123   0.848  -0.395   5.442 -0.3974  0.5083  0.9182
  177SLPC  H17R20124   0.743  -0.430   5.452  0.1752 -1.4443  0.5271
  177SLPC  H17S20125   0.891  -0.409   5.543  0.8203  2.6715  0.7584
  177SLPC  C21820126   0.907  -0.490   5.344  0.3997  0.2861  1.0098
  177SLPC  H18R20127   0.872  -0.472   5.240 -0.6909 -0.0279  1.3039
  177SLPC  H18S20128   0.891  -0.598   5.366  0.0248  0.1795  0.2391
  177SLPC  H18T20129   1.017  -0.478   5.345  0.3796  0.5978  0.2315
  177SLPC   C3320130   0.087   0.304   6.236  0.0249  0.0216  0.6734
  177SLPC   H3X20131   0.145   0.214   6.267  1.2766  0.5730  0.0444
  177SLPC   H3Y20132   0.167   0.381   6.230 -1.6053  1.7103 -0.5059
  177SLPC   C3420133   0.028   0.278   6.092  0.0912 -0.0934 -0.5744
  177SLPC   H4X20134  -0.066   0.218   6.101 -0.3537  0.8683  1.8277
  177SLPC   H4Y20135   0.104   0.213   6.044 -1.0124 -3.2195  1.5829
  177SLPC   C3520136   0.000   0.418   6.025  0.1199 -0.0750  0.3445
  177SLPC   H5X20137   0.088   0.484   6.041 -0.1389  0.6292 -1.0210
  177SLPC   H5Y20138  -0.085   0.466   6.077  1.2680  2.6919 -0.1675
  177SLPC   C3620139  -0.033   0.415   5.877 -0.0873  0.1230  0.2736
  177SLPC   H6X20140  -0.130   0.364   5.859 -0.3364  1.0176 -1.1678
  177SLPC   H6Y20141   0.033   0.339   5.829 -1.5350 -1.3000  0.4719
  177SLPC   C3720142  -0.026   0.543   5.792  0.1280 -0.1703 -0.6996
  177SLPC   H7X20143   0.074   0.588   5.810 -0.0793 -0.7354  2.6313
  177SLPC   H7Y20144  -0.106   0.617   5.811 -0.7450 -0.8912 -1.4814
  177SLPC   C3820145  -0.035   0.518   5.641  0.0503  0.1969  0.4504
  177SLPC   H8X20146  -0.135   0.485   5.605  0.9386 -0.9529 -1.0527
  177SLPC   H8Y20147   0.049   0.448   5.622  0.6132  1.0017 -0.1031
  177SLPC   C3920148  -0.002   0.648   5.568 -0.0059  0.7959 -0.2634
  177SLPC   H9X20149   0.102   0.670   5.599  0.7953 -1.7285 -0.8889
  177SLPC   H9Y20150  -0.073   0.730   5.589 -3.5842 -1.5555 -2.0219
  177SLPC  C31020151   0.009   0.620   5.414 -0.1139 -0.7365 -0.1498
  177SLPC  H10X20152  -0.071   0.560   5.365  0.8474 -0.3512 -2.3384
  177SLPC  H10Y20153   0.104   0.563   5.405  0.6898  0.7599 -1.9920
  177SLPC  C31120154   0.034   0.749   5.328  0.1270 -0.1328 -0.2961
  177SLPC  H11X20155   0.110   0.803   5.389 -0.8253  0.0589  0.7529
  177SLPC  H11Y20156  -0.065   0.799   5.325 -0.1647 -0.4023  2.2262
  177SLPC  C31220157   0.068   0.730   5.182 -0.5161 -0.4346 -0.3674
  177SLPC  H12X20158  -0.016   0.674   5.136  0.3936 -1.1835 -1.1742
  177SLPC  H12Y20159   0.153   0.660   5.188  0.9790  1.4100  1.7387
  177SLPC  C31320160   0.125   0.857   5.115  0.5615 -0.2996 -0.7520
  177SLPC  H13X20161   0.219   0.887   5.166  0.4766 -3.2465  1.4155
  177SLPC  H13Y20162   0.055   0.942   5.134  0.5627 -0.6507  1.0470
  177SLPC  C31420163   0.148   0.852   4.965  0.0584 -1.0851  1.1785
  177SLPC  H14X20164   0.173   0.946   4.912 -1.5365 -1.6328 -0.6826
  177SLPC  H14Y20165   0.067   0.797   4.912  1.0649 -2.5173  1.0822
  177SLPC  C31520166   0.279   0.776   4.933 -0.1268  0.2567  0.4161
  177SLPC  H15X20167   0.268   0.731   4.832 -1.4314 -3.3401  2.0108
  177SLPC  H15Y20168   0.307   0.697   5.006 -0.7737 -0.1362  0.2460
  177SLPC  C31620169   0.394   0.878   4.916  0.4685  0.9030 -0.2760
  177SLPC  H16X20170   0.391   0.950   5.001  0.3442 -0.6311  1.0778
  177SLPC  H16Y20171   0.378   0.945   4.829 -0.1364 -1.9432 -2.5244
  177SLPC  C31720172   0.529   0.806   4.887 -0.2904 -0.4757  0.5379
  177SLPC  H17X20173   0.524   0.737   4.800 -2.4435 -2.1859  1.9234
  177SLPC  H17Y20174   0.544   0.744   4.978  1.9350  0.4875  0.9104
  177SLPC  C31820175   0.654   0.899   4.865 -0.3311  0.1263  0.4129
  177SLPC  H18X20176   0.743   0.843   4.830  0.0544  1.6549 -1.1912
  177SLPC  H18Y20177   0.676   0.938   4.966 -2.9876  3.0409  0.0463
  177SLPC  H18Z20178   0.624   0.982   4.797 -2.9342 -1.0260  0.0148
  178SLPC     N20179   5.898   4.393   6.683 -0.2775 -0.1764 -0.2937
  178SLPC   C1320180   5.789   4.490   6.714 -0.2358 -0.4906  0.0522
  178SLPC  H13A20181   5.688   4.464   6.686 -1.8668  1.0720  3.7766
  178SLPC  H13B20182   5.780   4.494   6.822  0.9861  0.6420  0.1373
  178SLPC  H13C20183   5.818   4.588   6.682  1.8583 -1.1806 -0.2974
  178SLPC   C1420184   5.892   4.359   6.539 -0.2858 -0.1489  0.0814
  178SLPC  H14A20185   5.905   4.454   6.489 -1.7142  1.3671  2.3859
  178SLPC  H14B20186   5.979   4.300   6.515  0.1805  0.2506  0.7495
  178SLPC  H14C20187   5.799   4.314   6.508 -0.9823  0.6077  1.0310
  178SLPC   C1520188   5.883   4.269   6.767 -0.5492  0.0596 -0.9070
  178SLPC  H15A20189   5.972   4.210   6.750 -0.9906 -1.3615  1.3114
  178SLPC  H15B20190   5.882   4.300   6.870  0.7713  0.9726 -1.1396
  178SLPC  H15C20191   5.795   4.209   6.751  1.1778 -3.3796  1.2689
  178SLPC   C1220192   6.030   4.466   6.717 -0.0093 -0.2491  0.1356
  178SLPC  H12A20193   6.108   4.395   6.691  1.3702  1.1286  0.3410
  178SLPC  H12B20194   6.033   4.464   6.825 -3.1187 -2.4206  0.2972
  178SLPC   C1120195   6.060   4.596   6.638  0.2187  0.0345  0.4810
  178SLPC  H11A20196   5.970   4.660   6.634  0.6195  0.7323  1.9604
  178SLPC  H11B20197   6.100   4.561   6.540  0.2206 -1.0730  0.8622
  178SLPC     P20198   6.305   4.671   6.695  0.0717  0.1399 -0.3892
  178SLPC   O1320199   6.369   4.697   6.825  0.1469 -0.1502 -0.4790
  178SLPC   O1420200   6.348   4.545   6.625 -0.4429 -0.6541 -0.1207
  178SLPC   O1220201   6.157   4.670   6.710  0.0955 -0.2014  0.4855
  178SLPC   O1120202   6.340   4.791   6.599  0.7897 -0.2186  0.1017
  178SLPC    C120203   6.241   4.860   6.525 -0.4131  0.2568 -0.5723
  178SLPC    HA20204   6.143   4.867   6.576  0.2083  3.9710  0.4773
  178SLPC    HB20205   6.271   4.965   6.501  1.5032  0.0014  0.4604
  178SLPC    C220206   6.216   4.786   6.391 -0.0664  0.4280 -0.3121
  178SLPC    HS20207   6.199   4.680   6.419 -0.1580  0.2065 -1.1942
  178SLPC   O2120208   6.335   4.801   6.309 -0.2137  0.2538 -0.8617
  178SLPC   C2120209   6.380   4.699   6.246  0.2281 -0.0018 -0.3088
  178SLPC   O2220210   6.330   4.587   6.260  0.2913  0.0940 -0.6249
  178SLPC   C2220211   6.508   4.728   6.168 -0.0096 -1.1294 -0.0978
  178SLPC   H2R20212   6.532   4.836   6.177  1.4891 -1.3880 -0.6083
  178SLPC   H2S20213   6.591   4.663   6.201  0.3745 -0.6036 -0.0074
  178SLPC    C320214   6.091   4.832   6.312 -0.3593 -0.0102  0.5656
  178SLPC    HX20215   6.116   4.933   6.273  0.4376 -0.2523  0.4362
  178SLPC    HY20216   5.997   4.846   6.371 -1.0747 -1.4670 -0.1784
  178SLPC   O3120217   6.070   4.742   6.201 -0.1646  0.3552  0.5306
  178SLPC   C3120218   6.010   4.625   6.236 -1.0024 -0.6373 -0.3163
  178SLPC   O3220219   5.973   4.584   6.345 -0.7080 -0.0618  0.4157
  178SLPC   C3220220   6.011   4.535   6.107  0.3202 -0.0719  0.0511
  178SLPC   H2X20221   6.115   4.523   6.069 -0.2383 -1.0794 -1.2497
  178SLPC   H2Y20222   5.952   4.575   6.023 -2.4634 -0.5637  1.6658
  178SLPC   C2320223   6.494   4.701   6.012 -0.1958 -0.4390  0.0399
  178SLPC   H3R20224   6.571   4.752   5.950 -1.7557  2.2113  0.1257
  178SLPC   H3S20225   6.393   4.739   5.987  0.9711  2.0588 -1.1951
  178SLPC   C2420226   6.487   4.555   5.969 -0.2183  0.8202 -0.1313
  178SLPC   H4R20227   6.398   4.504   6.010  0.5578 -0.7069 -0.2743
  178SLPC   H4S20228   6.568   4.493   6.013 -1.7073 -0.9863  0.2024
  178SLPC   C2520229   6.500   4.544   5.811  0.0698  0.6582 -0.6406
  178SLPC   H5R20230   6.488   4.438   5.781 -1.4477  0.6826 -0.1767
  178SLPC   H5S20231   6.601   4.584   5.785 -0.1401  0.5510 -1.6520
  178SLPC   C2620232   6.384   4.592   5.727  0.0133 -0.0155 -0.0790
  178SLPC   H6R20233   6.386   4.702   5.743  2.2266  0.2483 -1.7620
  178SLPC   H6S20234   6.287   4.555   5.766 -0.0725  0.7983  0.4989
  178SLPC   C2720235   6.394   4.560   5.579 -0.3328  0.4240  0.6421
  178SLPC   H7R20236   6.388   4.453   5.547  0.1297  0.6667 -0.2963
  178SLPC   H7S20237   6.496   4.593   5.553  0.3954 -1.1036  1.3932
  178SLPC   C2820238   6.292   4.646   5.507 -0.4497  0.2494 -0.0730
  178SLPC   H8R20239   6.334   4.648   5.404  1.3682  0.8590  0.6444
  178SLPC   H8S20240   6.292   4.754   5.531  0.4762  0.5257 -1.1706
  178SLPC   C2920241   6.157   4.570   5.527  0.1494 -0.3114  0.9293
  178SLPC   H9R20242   6.136   4.557   5.634 -0.7135  1.4529  1.0048
  178SLPC  C21020243   6.059   4.533   5.434 -0.8855  0.4823  0.5264
  178SLPC  H10R20244   5.975   4.472   5.469  0.7246 -1.2424  1.5834
  178SLPC  C21120245   6.077   4.549   5.289 -0.4289  0.6854 -0.3540
  178SLPC  H11R20246   6.179   4.566   5.250 -0.4119 -1.7028 -1.4922
  178SLPC  H11S20247   6.022   4.639   5.253 -1.1104 -0.2467 -1.7225
  178SLPC  C21220248   6.018   4.426   5.220 -0.3402 -0.1659  0.0730
  178SLPC  H12R20249   6.043   4.325   5.254 -1.0038 -0.9313 -1.6260
  178SLPC  C21320250   5.917   4.433   5.134  0.3004  0.5364  0.1080
  178SLPC  H13R20251   5.883   4.338   5.089  1.0612 -0.2446  1.1148
  178SLPC  C21420252   5.847   4.549   5.073 -0.4838 -0.3456 -0.9844
  178SLPC  H14R20253   5.885   4.647   5.111  0.2301 -1.2480  0.7245
  178SLPC  H14S20254   5.739   4.536   5.096 -0.1206  0.3897  1.4410
  178SLPC  C21520255   5.858   4.553   4.917 -0.3081 -0.2585  0.2561
  178SLPC  H15R20256   5.795   4.473   4.873 -0.9250  0.2800  0.1435
  178SLPC  H15S20257   5.961   4.548   4.875  0.1425  0.6306  1.2000
  178SLPC  C21620258   5.801   4.687   4.868 -0.2124  0.4691  0.0970
  178SLPC  H16R20259   5.859   4.770   4.915 -1.1449  0.2901  1.6465
  178SLPC  H16S20260   5.699   4.690   4.911 -0.0886  0.6859  0.3786
  178SLPC  C21720261   5.794   4.689   4.715 -0.0948 -0.3561 -0.0574
  178SLPC  H17R20262   5.747   4.588   4.716  1.2920 -1.1485  3.5140
  178SLPC  H17S20263   5.893   4.685   4.665 -0.4908  0.4723 -0.9403
  178SLPC  C21820264   5.698   4.787   4.660 -0.2270 -0.2839 -0.0539
  178SLPC  H18R20265   5.742   4.888   4.670 -0.6108 -0.1641  0.4464
  178SLPC  H18S20266   5.610   4.781   4.727  0.3352 -2.0950  0.6008
  178SLPC  H18T20267   5.678   4.762   4.553  2.6429 -0.8620 -0.5442
  178SLPC   C3320268   5.946   4.395   6.129  0.3322  0.2456 -0.1008
  178SLPC   H3X20269   5.994   4.354   6.220  0.2781  3.3769  1.5093
  178SLPC   H3Y20270   5.980   4.326   6.049  1.4304 -2.6268  2.6243
  178SLPC   C3420271   5.792   4.388   6.142  0.3302 -0.3797  0.6245
  178SLPC   H4X20272   5.747   4.417   6.239 -1.6067  1.3400 -0.6791
  178SLPC   H4Y20273   5.761   4.282   6.130 -1.1448 -0.0826  1.4943
  178SLPC   C3520274   5.717   4.460   6.022 -0.0411  0.6352  0.1828
  178SLPC   H5X20275   5.748   4.567   6.014  1.5039  0.3601  1.7766
  178SLPC   H5Y20276   5.607   4.455   6.030 -0.0896 -2.7702 -0.8947
  178SLPC   C3620277   5.750   4.390   5.891 -0.1481 -0.1599  0.4896
  178SLPC   H6X20278   5.739   4.281   5.908 -1.7471  0.1865  2.0001
  178SLPC   H6Y20279   5.856   4.416   5.871 -0.6820  0.8128 -1.3513
  178SLPC   C3720280   5.661   4.428   5.775 -0.9121  0.0021 -0.5496
  178SLPC   H7X20281   5.671   4.537   5.754  0.8973 -0.0577 -0.1155
  178SLPC   H7Y20282   5.552   4.408   5.790 -0.5211 -2.2977 -0.3711
  178SLPC   C3820283   5.703   4.353   5.647  0.4132 -0.1633 -0.2851
  178SLPC   H8X20284   5.710   4.249   5.684  0.4218  0.2194  0.7982
  178SLPC   H8Y20285   5.805   4.379   5.611  0.2875  0.3555 -0.2832
  178SLPC   C3920286   5.603   4.355   5.532  0.3002 -0.3257 -0.4291
  178SLPC   H9X20287   5.655   4.352   5.434  1.5750 -1.9143  0.2438
  178SLPC   H9Y20288   5.542   4.448   5.540 -1.6476 -1.5305 -0.6758
  178SLPC  C31020289   5.496   4.242   5.532  0.1712  0.0684 -0.3740
  178SLPC  H10X20290   5.426   4.262   5.616  0.9067 -0.6984  0.4533
  178SLPC  H10Y20291   5.561   4.156   5.562  0.5234  0.6651  0.6209
  178SLPC  C31120292   5.412   4.231   5.405 -0.8190  0.0299 -0.2579
  178SLPC  H11X20293   5.347   4.321   5.404 -0.6619  0.1718  0.8859
  178SLPC  H11Y20294   5.333   4.153   5.418  0.6207 -1.1449  2.2253
  178SLPC  C31220295   5.487   4.219   5.274  0.1367 -0.1118  0.1869
  178SLPC  H12X20296   5.550   4.127   5.273  0.5678  0.1339 -2.3078
  178SLPC  H12Y20297   5.556   4.305   5.258  0.1290  0.6085  3.3329
  178SLPC  C31320298   5.407   4.222   5.149 -0.0428 -0.4128 -0.5338
  178SLPC  H13X20299   5.339   4.309   5.141  1.3561  0.5896 -2.3519
  178SLPC  H13Y20300   5.350   4.127   5.158  0.1897 -0.4782  0.3832
  178SLPC  C31420301   5.494   4.213   5.019 -0.1558 -0.2103 -0.0417
  178SLPC  H14X20302   5.419   4.186   4.942 -0.7700 -0.1958  0.5427
  178SLPC  H14Y20303   5.577   4.147   5.052  1.6298  3.1913  2.9756
  178SLPC  C31520304   5.534   4.354   4.971  0.4531 -0.4858  1.1144
  178SLPC  H15X20305   5.618   4.347   4.900  1.8186  1.8678  2.3616
  178SLPC  H15Y20306   5.566   4.420   5.055  0.5844 -0.4859  1.0642
  178SLPC  C31620307   5.409   4.435   4.914 -0.5283 -0.2208  1.3558
  178SLPC  H16X20308   5.337   4.450   4.996 -1.3970  1.0124  0.4096
  178SLPC  H16Y20309   5.357   4.373   4.838 -1.8698  1.8610  0.4829
  178SLPC  C31720310   5.457   4.565   4.853 -0.1904  0.3063 -0.4530
  178SLPC  H17X20311   5.549   4.542   4.795 -0.2424 -0.9151 -0.0782
  178SLPC  H17Y20312   5.475   4.646   4.926  1.2762  1.7733 -2.3381
  178SLPC  C31820313   5.349   4.616   4.751  0.1530  0.0140 -0.4898
  178SLPC  H18X20314   5.335   4.539   4.673 -0.3323 -0.7403  0.3306
  178SLPC  H18Y20315   5.373   4.717   4.710  0.0094 -1.1018 -3.5600
  178SLPC  H18Z20316   5.249   4.612   4.799 -0.2515 -1.9637 -1.4107
  179SLPC     N20317   1.914   6.146   1.909  0.3088  0.1452 -0.0721
  179SLPC   C1320318   1.983   6.284   1.920  0.7635  0.3640 -0.3006
  179SLPC  H13A20319   1.967   6.341   2.011  1.8228  0.9413 -0.4662
  179SLPC  H13B20320   2.090   6.270   1.925  0.4675 -2.4897 -0.2520
  179SLPC  H13C20321   1.944   6.335   1.833  0.4243  0.0301 -0.3476
  179SLPC   C1420322   1.974   6.061   2.017 -0.2477  0.0513  0.3434
  179SLPC  H14A20323   1.962   6.113   2.111 -2.3179  0.1480  0.0649
  179SLPC  H14B20324   1.932   5.963   2.038  0.4695  0.2422  3.0004
  179SLPC  H14C20325   2.081   6.058   2.005  0.0572  1.2034  2.3119
  179SLPC   C1520326   1.946   6.082   1.778 -1.0278  0.1874 -0.3165
  179SLPC  H15A20327   1.912   6.150   1.701  1.2173 -0.1681 -1.7094
  179SLPC  H15B20328   2.053   6.076   1.765 -0.5430 -0.5055  3.1181
  179SLPC  H15C20329   1.894   5.988   1.765 -0.6420 -0.1067  0.2365
  179SLPC   C1220330   1.761   6.150   1.930  0.2459  0.1370  0.7793
  179SLPC  H12A20331   1.738   6.045   1.939  0.0929  0.2834  2.4328
  179SLPC  H12B20332   1.711   6.183   1.840  1.3464 -0.1881  0.0221
  179SLPC   C1120333   1.717   6.213   2.057 -0.2748 -0.1153 -0.6188
  179SLPC  H11A20334   1.606   6.214   2.056 -0.3763 -0.4657  1.9915
  179SLPC  H11B20335   1.736   6.322   2.050  1.2091 -0.2797  0.4505
  179SLPC     P20336   1.685   6.096   2.297  0.2844  0.0310 -0.1809
  179SLPC   O1320337   1.563   6.022   2.236 -0.2171  0.3570 -0.0273
  179SLPC   O1420338   1.774   6.020   2.384  0.1962  0.3087 -0.3157
  179SLPC   O1220339   1.775   6.163   2.181 -0.8473  0.6473  0.4858
  179SLPC   O1120340   1.633   6.216   2.376  0.3495  0.0991  0.3388
  179SLPC    C120341   1.701   6.314   2.439  0.7283 -0.4830 -1.1055
  179SLPC    HA20342   1.798   6.336   2.390  1.7141 -0.9226  0.5615
  179SLPC    HB20343   1.649   6.412   2.448  0.3651 -0.8784  3.6647
  179SLPC    C220344   1.732   6.285   2.589  0.5374 -0.0891  0.1823
  179SLPC    HS20345   1.817   6.214   2.578  1.8821  1.6104 -1.0917
  179SLPC   O2120346   1.612   6.228   2.650  0.4979 -0.0389  0.0323
  179SLPC   C2120347   1.624   6.124   2.736 -0.1343  0.7943  0.6116
  179SLPC   O2220348   1.723   6.078   2.780  0.5511  0.3679 -0.5920
  179SLPC   C2220349   1.489   6.055   2.757 -0.3364  0.4611  0.0855
  179SLPC   H2R20350   1.419   6.138   2.782  0.1533  1.1644 -0.8396
  179SLPC   H2S20351   1.479   5.991   2.666  0.2295  0.3851  0.0715
  179SLPC    C320352   1.769   6.407   2.668 -0.4753 -0.2630  0.0520
  179SLPC    HX20353   1.686   6.481   2.663  1.0806  1.9999  3.5764
  179SLPC    HY20354   1.850   6.465   2.620 -1.3019  1.0350  0.1650
  179SLPC   O3120355   1.789   6.390   2.811 -0.0821  0.1132  0.1080
  179SLPC   C3120356   1.896   6.311   2.835 -0.3191 -0.0483 -0.1908
  179SLPC   O3220357   1.967   6.265   2.744 -0.3193  0.0264  0.6939
  179SLPC   C3220358   1.909   6.286   2.986 -0.2794  0.1175 -0.5360
  179SLPC   H2X20359   1.808   6.257   3.024 -0.1103 -1.4718 -1.2571
  179SLPC   H2Y20360   1.920   6.387   3.031 -2.1873  0.1727 -0.0805
  179SLPC   C2320361   1.488   5.951   2.879  0.0271  0.4196  0.5204
  179SLPC   H3R20362   1.556   5.868   2.851 -1.0540  0.0936 -1.2550
  179SLPC   H3S20363   1.391   5.899   2.892 -1.1345  2.1874 -0.5946
  179SLPC   C2420364   1.523   6.013   3.019  0.1545 -0.9733  0.9183
  179SLPC   H4R20365   1.444   6.089   3.036 -0.3068 -0.7767 -1.7742
  179SLPC   H4S20366   1.611   6.080   3.008 -2.2096  2.0860 -0.9849
  179SLPC   C2520367   1.526   5.914   3.129 -0.0923  0.4551 -0.6754
  179SLPC   H5R20368   1.627   5.873   3.152 -0.6802  0.1841  1.6619
  179SLPC   H5S20369   1.452   5.833   3.118  1.7879 -1.3122 -0.8103
  179SLPC   C2620370   1.479   5.973   3.268  0.3455  0.8015  0.8525
  179SLPC   H6R20371   1.418   5.897   3.320  0.2961  0.3630  0.1686
  179SLPC   H6S20372   1.414   6.062   3.248  1.6590  1.1996 -2.2752
  179SLPC   C2720373   1.596   6.004   3.361 -0.3562 -0.0548  0.0619
  179SLPC   H7R20374   1.664   6.075   3.308 -0.4541  0.7591  0.9853
  179SLPC   H7S20375   1.658   5.914   3.379  2.4234  1.2999 -1.8768
  179SLPC   C2820376   1.556   6.062   3.503  0.1966  0.7253  0.2039
  179SLPC   H8R20377   1.495   6.154   3.490 -0.8100 -0.2550 -2.8556
  179SLPC   H8S20378   1.651   6.093   3.551  0.8143 -1.3799  0.4637
  179SLPC   C2920379   1.482   5.962   3.594  0.4645 -0.0992 -0.1471
  179SLPC   H9R20380   1.389   5.919   3.553  1.3086 -2.4663  0.2527
  179SLPC  C21020381   1.518   5.903   3.712  0.1389 -0.1265 -0.0094
  179SLPC  H10R20382   1.442   5.839   3.759 -1.0329  0.7354 -0.6677
  179SLPC  C21120383   1.644   5.928   3.783 -0.6126 -0.6419  0.2475
  179SLPC  H11R20384   1.717   5.983   3.721 -1.0509  0.0992  0.3808
  179SLPC  H11S20385   1.685   5.830   3.816  0.6172  0.1039  0.9702
  179SLPC  C21220386   1.623   6.013   3.903  0.0161 -0.8563  1.1453
  179SLPC  H12R20387   1.635   6.118   3.873 -1.9188 -0.6771  0.8702
  179SLPC  C21320388   1.629   5.979   4.025 -0.4553 -0.3951 -0.6811
  179SLPC  H13R20389   1.609   6.049   4.107  1.1904  0.0158 -0.5975
  179SLPC  C21420390   1.662   5.839   4.086  0.8210 -0.1345  0.5306
  179SLPC  H14R20391   1.754   5.837   4.147  2.5968  0.4918 -1.9686
  179SLPC  H14S20392   1.671   5.762   4.006 -0.9858  0.6391 -0.4898
  179SLPC  C21520393   1.535   5.788   4.163 -0.5164 -0.3836  0.2357
  179SLPC  H15R20394   1.537   5.679   4.186  1.9831  0.1270  3.0864
  179SLPC  H15S20395   1.447   5.807   4.099 -0.5302  0.4462  0.4918
  179SLPC  C21620396   1.521   5.869   4.296 -0.4494 -0.7525  0.1432
  179SLPC  H16R20397   1.489   5.973   4.278 -0.4205 -0.6875  0.4661
  179SLPC  H16S20398   1.615   5.888   4.351 -0.4000  1.0870 -0.5093
  179SLPC  C21720399   1.413   5.810   4.388  0.1894  0.0155  0.3306
  179SLPC  H17R20400   1.444   5.706   4.412  0.2228 -0.1164 -0.2783
  179SLPC  H17S20401   1.323   5.813   4.323  0.3052  0.0447  0.1717
  179SLPC  C21820402   1.391   5.894   4.509  0.5600 -0.2113 -0.7339
  179SLPC  H18R20403   1.355   5.838   4.598 -0.3603  2.7857  0.9290
  179SLPC  H18S20404   1.322   5.978   4.486 -1.6321 -1.5091  0.8279
  179SLPC  H18T20405   1.492   5.929   4.542  0.9615 -1.6201 -0.3928
  179SLPC   C3320406   2.015   6.186   3.032 -0.2192 -0.4123 -0.5195
  179SLPC   H3X20407   2.115   6.214   2.995  0.6013 -2.1348  0.2833
  179SLPC   H3Y20408   1.984   6.086   2.995  0.7429 -0.9234  0.0159
  179SLPC   C3420409   2.040   6.181   3.184  0.0047  0.4985  0.7684
  179SLPC   H4X20410   2.078   6.281   3.214 -0.9265  0.8130  0.9385
  179SLPC   H4Y20411   2.120   6.106   3.200  0.1906  0.5158 -0.0491
  179SLPC   C3520412   1.912   6.138   3.263 -0.6079 -1.1046 -0.1668
  179SLPC   H5X20413   1.826   6.208   3.255  0.9020  1.0597  1.3735
  179SLPC   H5Y20414   1.884   6.036   3.229 -0.5005 -0.3729 -2.6471
  179SLPC   C3620415   1.944   6.133   3.412 -0.0837  0.4769  1.0721
  179SLPC   H6X20416   2.041   6.081   3.425 -0.6609 -1.3578 -1.1612
  179SLPC   H6Y20417   1.864   6.072   3.460  1.0807 -2.5005 -0.4877
  179SLPC   C3720418   1.949   6.270   3.480 -0.7200 -0.2767  0.4913
  179SLPC   H7X20419   1.846   6.309   3.469 -0.8068 -0.8187 -0.8131
  179SLPC   H7Y20420   2.012   6.344   3.427 -1.4918  0.9897  1.3006
  179SLPC   C3820421   1.997   6.258   3.628  0.0592 -0.2070 -0.2505
  179SLPC   H8X20422   1.994   6.357   3.680  1.3578  0.3809 -1.2275
  179SLPC   H8Y20423   2.103   6.233   3.607 -0.0363  1.0171 -2.5895
  179SLPC   C3920424   1.917   6.166   3.725  0.7873 -0.0119  0.3652
  179SLPC   H9X20425   1.905   6.064   3.682 -0.3726  0.3802 -0.2809
  179SLPC   H9Y20426   1.814   6.208   3.728  0.8712  0.1508  1.7590
  179SLPC  C31020427   1.975   6.163   3.864  0.7330  0.6459 -1.1853
  179SLPC  H10X20428   1.911   6.097   3.926  1.0155 -1.6366 -3.1833
  179SLPC  H10Y20429   1.988   6.261   3.915 -1.2662  0.5351 -0.3666
  179SLPC  C31120430   2.103   6.084   3.865 -0.1459  0.8544  0.0526
  179SLPC  H11X20431   2.176   6.133   3.796  0.4462  1.1207  0.8446
  179SLPC  H11Y20432   2.090   5.983   3.821  1.3523 -0.0011  1.4687
  179SLPC  C31220433   2.177   6.079   4.006 -0.0770  0.6201  0.3516
  179SLPC  H12X20434   2.251   5.996   3.996 -1.1581 -0.1869 -1.4267
  179SLPC  H12Y20435   2.104   6.054   4.085 -1.4223  3.5513  0.1639
  179SLPC  C31320436   2.248   6.210   4.034 -0.0819  0.2819 -0.4269
  179SLPC  H13X20437   2.177   6.295   4.027  0.1950  0.5040 -0.5642
  179SLPC  H13Y20438   2.322   6.230   3.954  0.0127  4.4297  0.4657
  179SLPC  C31420439   2.304   6.202   4.177  0.0092  0.1043  0.0250
  179SLPC  H14X20440   2.382   6.123   4.182  1.5837  1.5804 -0.2006
  179SLPC  H14Y20441   2.225   6.173   4.249  0.2788  0.8063  0.6130
  179SLPC  C31520442   2.368   6.330   4.230 -0.1284 -0.0677 -0.8671
  179SLPC  H15X20443   2.402   6.314   4.335  0.2475 -1.5409 -1.1930
  179SLPC  H15Y20444   2.294   6.413   4.235  1.5829  1.4283  2.1922
  179SLPC  C31620445   2.485   6.391   4.153  0.0799 -0.6432  0.0532
  179SLPC  H16X20446   2.466   6.397   4.044  3.7934  0.5486 -0.6817
  179SLPC  H16Y20447   2.574   6.325   4.165 -0.7797 -1.9441 -0.4982
  179SLPC  C31720448   2.518   6.532   4.214 -0.0454 -0.9466 -0.4023
  179SLPC  H17X20449   2.428   6.593   4.189  0.9634  2.4228  3.1631
  179SLPC  H17Y20450   2.609   6.580   4.172  0.0342  0.7336  1.5053
  179SLPC  C31820451   2.534   6.539   4.364 -0.1519  0.0023  0.1155
  179SLPC  H18X20452   2.627   6.486   4.394 -0.9753 -0.1479  2.5682
  179SLPC  H18Y20453   2.459   6.486   4.426  0.1751 -2.8291 -1.7396
  179SLPC  H18Z20454   2.559   6.645   4.390 -0.7683 -0.2996  2.1058
  180SLPC     N20455   1.872   3.883   2.244 -0.0765  0.1408  0.0951
  180SLPC   C1320456   1.994   3.959   2.224  0.4453 -0.4413  1.1688
  180SLPC  H13A20457   1.968   4.039   2.157  3.0649 -0.4989  0.0015
  180SLPC  H13B20458   2.044   3.997   2.311  2.1285 -0.6774  0.3330
  180SLPC  H13C20459   2.065   3.893   2.176 -0.4958 -2.0186  1.8711
  180SLPC   C1420460   1.749   3.973   2.279 -0.5982 -0.1045  0.1283
  180SLPC  H14A20461   1.759   4.023   2.374 -2.0762  0.7931 -0.1592
  180SLPC  H14B20462   1.742   4.047   2.201  2.1817  0.1583  0.0151
  180SLPC  H14C20463   1.663   3.908   2.272  0.7185 -1.7739 -3.1649
  180SLPC   C1520464   1.900   3.793   2.350  0.4322 -0.5901 -1.1151
  180SLPC  H15A20465   1.998   3.749   2.341  0.4310 -0.8567 -0.0101
  180SLPC  H15B20466   1.901   3.841   2.447  1.1984 -1.5678 -0.6249
  180SLPC  H15C20467   1.830   3.711   2.348 -1.8962  1.1132  1.7541
  180SLPC   C1220468   1.837   3.810   2.117  0.5888  0.0497 -0.3858
  180SLPC  H12A20469   1.924   3.761   2.076 -0.6465 -3.0501  0.4069
  180SLPC  H12B20470   1.797   3.884   2.048 -0.4495  0.0546  0.2119
  180SLPC   C1120471   1.742   3.693   2.122  0.8724  0.7363 -0.2371
  180SLPC  H11A20472   1.791   3.607   2.173 -3.5925 -1.3902  0.9451
  180SLPC  H11B20473   1.721   3.670   2.015  0.4089  0.4171 -0.0804
  180SLPC     P20474   1.503   3.796   2.112  0.8092 -0.3623  0.0876
  180SLPC   O1320475   1.561   3.902   2.026 -0.6479 -0.0254 -0.5146
  180SLPC   O1420476   1.414   3.709   2.033 -0.3034 -0.2095  0.4245
  180SLPC   O1220477   1.621   3.723   2.186  0.6788  0.5479  0.0410
  180SLPC   O1120478   1.424   3.860   2.239  0.2277 -0.4464  0.0256
  180SLPC    C120479   1.377   3.786   2.346 -0.3497  0.4056 -0.1765
  180SLPC    HA20480   1.290   3.728   2.306  2.5168 -2.8770 -2.2910
  180SLPC    HB20481   1.453   3.719   2.391 -0.6002 -0.3856 -0.9057
  180SLPC    C220482   1.325   3.887   2.451 -0.3169  0.0204  0.2045
  180SLPC    HS20483   1.253   3.956   2.402  0.1631  1.4046  1.4026
  180SLPC   O2120484   1.435   3.971   2.504  1.1800  0.1803  0.3902
  180SLPC   C2120485   1.386   4.076   2.575  0.1877 -0.1154 -0.3139
  180SLPC   O2220486   1.278   4.131   2.563  0.6539 -0.3890  0.0159
  180SLPC   C2220487   1.489   4.129   2.668 -0.5152  0.3364 -0.0164
  180SLPC   H2R20488   1.586   4.129   2.614  0.0098 -1.1597  0.8626
  180SLPC   H2S20489   1.459   4.236   2.676 -0.0794  0.3912  1.0445
  180SLPC    C320490   1.245   3.820   2.569  0.2783 -0.3537  0.2409
  180SLPC    HX20491   1.191   3.741   2.513 -2.0875  0.3009  1.4713
  180SLPC    HY20492   1.173   3.894   2.610  0.5519 -0.7965  1.5657
  180SLPC   O3120493   1.332   3.756   2.669 -0.3967 -0.5913  0.0385
  180SLPC   C3120494   1.270   3.648   2.736 -0.3759 -0.0759  0.3827
  180SLPC   O3220495   1.156   3.615   2.718  0.0256 -0.0255  0.1441
  180SLPC   C3220496   1.374   3.588   2.836 -0.4596  0.1443 -0.2574
  180SLPC   H2X20497   1.406   3.669   2.904 -1.9049 -0.3233  1.0173
  180SLPC   H2Y20498   1.465   3.564   2.776  0.0438  0.0759  0.5144
  180SLPC   C2320499   1.495   4.054   2.800 -0.5439 -0.1586  0.2789
  180SLPC   H3R20500   1.582   4.092   2.857  0.5348 -0.1784 -1.3021
  180SLPC   H3S20501   1.525   3.948   2.788  2.0918  0.7603 -2.0854
  180SLPC   C2420502   1.375   4.084   2.882 -0.2637 -0.1504  0.3023
  180SLPC   H4R20503   1.289   4.019   2.855 -0.3162 -0.7947  1.8745
  180SLPC   H4S20504   1.340   4.187   2.861 -1.3895 -0.6096 -0.1096
  180SLPC   C2520505   1.388   4.070   3.037 -0.3036 -0.3559  0.2370
  180SLPC   H5R20506   1.443   4.156   3.079 -0.8042 -0.9968  2.3493
  180SLPC   H5S20507   1.441   3.977   3.068  0.4992  0.0893  0.2021
  180SLPC   C2620508   1.256   4.061   3.111 -0.3238  0.0203  0.1009
  180SLPC   H6R20509   1.202   3.983   3.052  0.3223  0.5064 -1.1718
  180SLPC   H6S20510   1.196   4.155   3.109  0.1462  0.3203  0.1330
  180SLPC   C2720511   1.266   4.012   3.250 -0.5434 -0.1354 -0.4811
  180SLPC   H7R20512   1.292   3.904   3.254  0.7711  0.0796 -1.9791
  180SLPC   H7S20513   1.171   4.015   3.307  0.2512 -1.1505  0.9683
  180SLPC   C2820514   1.361   4.103   3.329 -0.2126  0.3511 -0.0103
  180SLPC   H8R20515   1.358   4.212   3.305  0.6294  0.6018  0.9332
  180SLPC   H8S20516   1.462   4.088   3.286  0.1753  1.2254  0.5538
  180SLPC   C2920517   1.377   4.079   3.479  0.0307  0.5209  0.0196
  180SLPC   H9R20518   1.392   3.973   3.505 -2.4944 -0.0845 -0.6861
  180SLPC  C21020519   1.368   4.167   3.583 -0.8848  0.1628 -0.1447
  180SLPC  H10R20520   1.393   4.132   3.684 -0.8084  1.2777  0.2402
  180SLPC  C21120521   1.303   4.305   3.569 -0.9647  0.3065 -0.0508
  180SLPC  H11R20522   1.192   4.312   3.566 -0.8640  1.7152 -1.5024
  180SLPC  H11S20523   1.334   4.345   3.470  0.6708 -3.6992 -1.3795
  180SLPC  C21220524   1.350   4.383   3.688 -0.1025 -0.8590  0.3539
  180SLPC  H12R20525   1.459   4.398   3.690 -0.0535 -1.0503 -0.5121
  180SLPC  C21320526   1.277   4.432   3.785  0.6448 -0.3138  0.3730
  180SLPC  H13R20527   1.321   4.483   3.873 -0.4879  1.3783 -0.0005
  180SLPC  C21420528   1.126   4.428   3.801 -0.1217 -0.8166 -0.3402
  180SLPC  H14R20529   1.086   4.343   3.742 -1.5176  0.6172 -1.5473
  180SLPC  H14S20530   1.086   4.521   3.754 -1.2463 -0.7591  0.6662
  180SLPC  C21520531   1.080   4.420   3.948 -0.7450 -0.2147 -0.1621
  180SLPC  H15R20532   1.099   4.320   3.993  0.3557  0.1445  0.2088
  180SLPC  H15S20533   0.969   4.418   3.941 -0.7165  0.0906 -0.7935
  180SLPC  C21620534   1.114   4.539   4.036 -0.4885 -0.8640 -0.5397
  180SLPC  H16R20535   1.136   4.628   3.973  3.5001 -0.6344  0.8901
  180SLPC  H16S20536   1.205   4.529   4.099 -0.6418  1.5988  0.2051
  180SLPC  C21720537   0.998   4.577   4.122  0.2151  0.6790  0.2589
  180SLPC  H17R20538   0.982   4.486   4.184 -0.0003  0.7299  0.2809
  180SLPC  H17S20539   0.905   4.570   4.060  1.5604 -2.3319 -1.6514
  180SLPC  C21820540   1.011   4.712   4.186  0.1718  0.1197 -0.0570
  180SLPC  H18R20541   1.069   4.725   4.280 -3.6018  2.2763  2.2570
  180SLPC  H18S20542   0.906   4.738   4.214 -0.2060 -0.5688 -0.7875
  180SLPC  H18T20543   1.039   4.789   4.111 -0.1130 -0.1231 -0.4184
  180SLPC   C3320544   1.318   3.460   2.912  0.5516 -0.1509  0.0489
  180SLPC   H3X20545   1.394   3.411   2.976  1.6891  1.1006 -0.2957
  180SLPC   H3Y20546   1.276   3.395   2.832  0.9450  0.5243 -0.7242
  180SLPC   C3420547   1.212   3.497   3.018 -0.4887  0.1564 -0.3395
  180SLPC   H4X20548   1.183   3.401   3.066 -1.4033  0.6835  0.1864
  180SLPC   H4Y20549   1.117   3.540   2.982 -0.3200  0.5898 -0.2776
  180SLPC   C3520550   1.266   3.593   3.124 -0.0691 -0.3034 -0.4864
  180SLPC   H5X20551   1.288   3.693   3.083  3.1816 -0.6119  0.2408
  180SLPC   H5Y20552   1.363   3.544   3.147  0.1270  0.2050 -0.2207
  180SLPC   C3620553   1.201   3.609   3.265 -0.2511  0.5383 -0.1708
  180SLPC   H6X20554   1.268   3.669   3.331  1.7682  1.0445 -2.5189
  180SLPC   H6Y20555   1.203   3.504   3.300 -0.0409  0.5202 -0.2335
  180SLPC   C3720556   1.058   3.665   3.269 -0.2959 -0.4553 -0.9775
  180SLPC   H7X20557   0.990   3.608   3.201 -0.4278 -0.9735 -0.4169
  180SLPC   H7Y20558   1.059   3.770   3.234  0.3635 -0.0354  0.2568
  180SLPC   C3820559   0.998   3.660   3.407 -0.3074  0.2105 -0.2802
  180SLPC   H8X20560   0.998   3.562   3.459 -0.7324  0.7604  0.8046
  180SLPC   H8Y20561   0.894   3.699   3.405 -0.2568  0.3370 -0.4075
  180SLPC   C3920562   1.080   3.745   3.503 -0.2377  0.4041 -0.5632
  180SLPC   H9X20563   1.098   3.842   3.451 -0.2669  1.0679  0.6128
  180SLPC   H9Y20564   1.177   3.693   3.518 -0.2617  0.8063  1.3104
  180SLPC  C31020565   1.010   3.773   3.635 -0.4806  0.0591 -0.0854
  180SLPC  H10X20566   1.012   3.675   3.687  0.3695 -1.0724 -2.1377
  180SLPC  H10Y20567   0.902   3.795   3.617 -0.2654  0.7940 -0.5264
  180SLPC  C31120568   1.057   3.883   3.724  0.1318 -0.2934 -0.1500
  180SLPC  H11X20569   1.046   3.981   3.674 -0.1478  0.3363  1.0979
  180SLPC  H11Y20570   1.166   3.880   3.749  0.0642 -1.4726  0.0281
  180SLPC  C31220571   0.973   3.901   3.853  0.2893  0.2865 -0.6732
  180SLPC  H12X20572   0.956   3.795   3.882  0.7966 -0.8036 -3.8840
  180SLPC  H12Y20573   0.871   3.929   3.820 -0.4491 -0.2174  1.0509
  180SLPC  C31320574   1.039   3.978   3.968  0.2530  0.0951  0.4235
  180SLPC  H13X20575   1.003   4.081   3.949 -0.0647 -0.0626  0.1533
  180SLPC  H13Y20576   1.148   3.988   3.949  0.2628  0.4588  0.6607
  180SLPC  C31420577   1.008   3.931   4.117  0.1287 -0.4437 -0.2658
  180SLPC  H14X20578   1.056   3.831   4.111  2.9635  0.7721  0.4426
  180SLPC  H14Y20579   0.898   3.928   4.128  0.1655  0.6241  0.5714
  180SLPC  C31520580   1.070   4.010   4.240 -0.5791  0.1622  0.1442
  180SLPC  H15X20581   1.174   4.036   4.210 -1.5931  2.9455 -1.2943
  180SLPC  H15Y20582   1.081   3.944   4.328  0.2663 -1.4148 -1.0819
  180SLPC  C31620583   0.996   4.136   4.272 -0.0910 -0.2823  0.1177
  180SLPC  H16X20584   0.906   4.109   4.332 -0.3149 -1.0115 -0.5223
  180SLPC  H16Y20585   0.966   4.188   4.178  0.5177 -1.0074 -0.4853
  180SLPC  C31720586   1.058   4.258   4.349 -0.7681  0.1395 -0.7222
  180SLPC  H17X20587   0.973   4.328   4.366  0.4155  1.0832  1.8248
  180SLPC  H17Y20588   1.128   4.316   4.285 -0.2525  1.1317  0.6894
  180SLPC  C31820589   1.129   4.230   4.481 -0.2955 -0.3229 -0.6083
  180SLPC  H18X20590   1.148   4.316   4.550 -3.9865 -0.5628  0.9429
  180SLPC  H18Y20591   1.227   4.185   4.455  0.0239  0.1374 -0.2245
  180SLPC  H18Z20592   1.077   4.161   4.551 -0.0686  0.2998  0.1972
  181SLPC     N20593   0.106   3.315   2.371 -0.0889  0.2691  0.2203
  181SLPC   C1320594   0.131   3.182   2.438  0.0431  0.3638 -0.1731
  181SLPC  H13A20595   0.076   3.107   2.385 -0.0865 -1.0143  1.8121
  181SLPC  H13B20596   0.237   3.166   2.447  0.0272  0.3832  0.0577
  181SLPC  H13C20597   0.098   3.184   2.541  1.0841 -0.6263  0.1990
  181SLPC   C1420598  -0.035   3.308   2.324 -0.3160 -0.0188  0.2269
  181SLPC  H14A20599  -0.053   3.388   2.255 -1.1798  0.1000  0.5753
  181SLPC  H14B20600  -0.060   3.212   2.280 -1.0493 -0.4545  1.5179
  181SLPC  H14C20601  -0.113   3.327   2.396 -0.1573 -1.5878  0.8712
  181SLPC   C1520602   0.194   3.334   2.254  0.1759  0.1148 -0.0586
  181SLPC  H15A20603   0.294   3.341   2.295  1.2164  1.4284 -2.6118
  181SLPC  H15B20604   0.190   3.253   2.182  2.0073 -1.4593  1.4929
  181SLPC  H15C20605   0.187   3.429   2.204 -0.2680 -0.1681 -0.5411
  181SLPC   C1220606   0.123   3.430   2.477 -0.3998  0.5156  0.1718
  181SLPC  H12A20607   0.043   3.419   2.548 -1.0299 -2.1871 -0.8435
  181SLPC  H12B20608   0.108   3.523   2.425  0.1894 -0.6533 -2.2906
  181SLPC   C1120609   0.265   3.445   2.539  0.5390 -0.2251  0.5425
  181SLPC  H11A20610   0.294   3.357   2.600  1.1243  0.6440  1.5517
  181SLPC  H11B20611   0.250   3.534   2.604 -2.9074 -0.8569  0.8134
  181SLPC     P20612   0.406   3.597   2.356 -0.2774 -0.1873 -0.1432
  181SLPC   O1320613   0.431   3.550   2.220  0.2830  0.0250  0.3025
  181SLPC   O1420614   0.307   3.705   2.376  0.3161 -0.2093 -0.1794
  181SLPC   O1220615   0.377   3.463   2.447 -0.7336 -0.1839  0.0356
  181SLPC   O1120616   0.543   3.646   2.408  0.1342 -0.1622 -0.3519
  181SLPC    C120617   0.625   3.572   2.494  0.1704  0.2518  0.1721
  181SLPC    HA20618   0.568   3.504   2.562  1.0569  2.0154  2.8251
  181SLPC    HB20619   0.694   3.510   2.433  0.7077  0.5596  0.4553
  181SLPC    C220620   0.718   3.667   2.568 -0.2556  0.2063  0.4130
  181SLPC    HS20621   0.796   3.608   2.621 -1.8945 -2.0809  0.4148
  181SLPC   O2120622   0.636   3.733   2.668 -0.4329 -0.2756  0.2301
  181SLPC   C2120623   0.570   3.663   2.760 -0.7909  0.3109  0.0538
  181SLPC   O2220624   0.583   3.546   2.790 -0.1593 -0.1268  0.1669
  181SLPC   C2220625   0.469   3.752   2.836 -0.0304  0.4735  0.5503
  181SLPC   H2R20626   0.520   3.839   2.882 -0.8740 -0.0463  2.5831
  181SLPC   H2S20627   0.391   3.787   2.765  1.5669 -2.4387 -2.9754
  181SLPC    C320628   0.783   3.761   2.468  0.7334 -0.3848 -0.1292
  181SLPC    HX20629   0.711   3.810   2.399  0.8120 -0.4764 -0.2765
  181SLPC    HY20630   0.847   3.701   2.400  0.7318 -0.3067 -0.1990
  181SLPC   O3120631   0.874   3.849   2.533 -0.4157  0.1152  0.3530
  181SLPC   C3120632   0.833   3.962   2.584 -0.0843 -0.4289 -0.8504
  181SLPC   O3220633   0.728   4.026   2.561 -0.6476  0.5126  0.0589
  181SLPC   C3220634   0.931   4.021   2.696  0.2021 -0.0876  1.4143
  181SLPC   H2X20635   0.896   4.121   2.730 -0.5507 -0.6059  2.2195
  181SLPC   H2Y20636   1.036   4.025   2.661  0.1715 -1.2142  1.1301
  181SLPC   C2320637   0.409   3.674   2.950  0.2740  0.4489 -0.4896
  181SLPC   H3R20638   0.486   3.641   3.023  0.7333  2.6633  0.1198
  181SLPC   H3S20639   0.373   3.576   2.914 -0.4405  0.6696 -0.4083
  181SLPC   C2420640   0.286   3.729   3.015 -0.4409 -0.9448  0.2746
  181SLPC   H4R20641   0.229   3.774   2.931  1.9301 -3.3930 -2.9230
  181SLPC   H4S20642   0.326   3.818   3.069 -0.3630  1.3338 -3.2118
  181SLPC   C2520643   0.210   3.634   3.105 -0.2963 -0.3158 -0.7718
  181SLPC   H5R20644   0.276   3.557   3.150  0.2521 -1.3017 -3.1039
  181SLPC   H5S20645   0.137   3.575   3.046 -0.3186 -0.4606 -0.5994
  181SLPC   C2620646   0.137   3.706   3.219  0.1317 -0.5783  0.3789
  181SLPC   H6R20647   0.071   3.785   3.177  2.4574  0.6333 -1.1386
  181SLPC   H6S20648   0.207   3.757   3.289 -1.4918  0.8994  1.0072
  181SLPC   C2720649   0.045   3.603   3.289  0.1819 -0.2288 -0.0306
  181SLPC   H7R20650   0.110   3.523   3.330  0.4493  0.0213  0.0325
  181SLPC   H7S20651  -0.009   3.557   3.203  0.1001  2.1855 -1.3450
  181SLPC   C2820652  -0.058   3.655   3.396  0.7589  0.4959 -0.1650
  181SLPC   H8R20653  -0.004   3.724   3.463 -1.5523  1.6877  0.5628
  181SLPC   H8S20654  -0.100   3.571   3.457  1.7013  0.1138 -0.0230
  181SLPC   C2920655  -0.162   3.737   3.321  0.5585  0.4026 -0.0041
  181SLPC   H9R20656  -0.133   3.765   3.218 -1.3484 -1.0412 -0.9941
  181SLPC  C21020657  -0.275   3.782   3.372  0.0432 -0.5485 -0.4911
  181SLPC  H10R20658  -0.342   3.845   3.311  2.0448  0.7558 -1.4337
  181SLPC  C21120659  -0.324   3.746   3.510 -0.3494 -0.0404  0.2530
  181SLPC  H11R20660  -0.248   3.695   3.573 -1.4109 -2.9654 -0.6635
  181SLPC  H11S20661  -0.390   3.657   3.504  0.3843 -0.5515 -0.6242
  181SLPC  C21220662  -0.389   3.863   3.587 -0.0839 -0.3921  0.0663
  181SLPC  H12R20663  -0.380   3.960   3.536  0.7905 -0.2419  0.4936
  181SLPC  C21320664  -0.458   3.867   3.698  0.0446 -0.0685 -0.5812
  181SLPC  H13R20665  -0.503   3.961   3.732  1.7916  1.0612 -1.2327
  181SLPC  C21420666  -0.493   3.743   3.772 -0.1005 -0.4588 -0.0728
  181SLPC  H14R20667  -0.513   3.783   3.874 -2.1033 -0.4508 -0.4260
  181SLPC  H14S20668  -0.401   3.681   3.782  1.3016  1.5759  0.3585
  181SLPC  C21520669  -0.613   3.673   3.713  0.6060  0.4892  0.7948
  181SLPC  H15R20670  -0.605   3.674   3.602 -0.1792  1.9672  0.7331
  181SLPC  H15S20671  -0.701   3.739   3.724  0.2193  0.3026 -0.9110
  181SLPC  C21620672  -0.634   3.533   3.767  0.0941  1.2830 -0.0981
  181SLPC  H16R20673  -0.535   3.487   3.747 -0.0857  1.5804 -1.9256
  181SLPC  H16S20674  -0.711   3.472   3.715  2.0484 -0.4132 -1.1722
  181SLPC  C21720675  -0.660   3.534   3.919 -0.4434 -0.4096  0.0339
  181SLPC  H17R20676  -0.745   3.602   3.943 -0.5276 -0.6258  0.3514
  181SLPC  H17S20677  -0.574   3.588   3.963  1.8766 -0.6500 -3.7114
  181SLPC  C21820678  -0.675   3.407   4.008 -0.3740  0.9282  0.4434
  181SLPC  H18R20679  -0.776   3.361   3.998 -0.2935  0.0135  3.0260
  181SLPC  H18S20680  -0.655   3.438   4.113  1.4050  1.0315  0.1077
  181SLPC  H18T20681  -0.600   3.335   3.969 -0.0871  1.1264  0.6299
  181SLPC   C3320682   0.923   3.933   2.822  0.2193 -0.5169 -0.1382
  181SLPC   H3X20683   1.020   3.945   2.876 -0.1042  0.9607  0.1397
  181SLPC   H3Y20684   0.902   3.825   2.802  0.5443 -1.0452  2.0881
  181SLPC   C3420685   0.819   3.983   2.918  0.2712 -0.3577  0.3021
  181SLPC   H4X20686   0.725   3.954   2.866  0.1618  0.3523  0.0973
  181SLPC   H4Y20687   0.820   4.091   2.943  2.9018 -0.3397  0.4081
  181SLPC   C3520688   0.833   3.912   3.053 -0.3864 -0.6188  0.1138
  181SLPC   H5X20689   0.921   3.952   3.108 -1.0691 -2.1795  2.5072
  181SLPC   H5Y20690   0.832   3.804   3.027  0.8880 -0.6348  0.0671
  181SLPC   C3620691   0.708   3.944   3.138 -0.2079  0.6059 -0.3749
  181SLPC   H6X20692   0.621   3.898   3.087  0.7374 -0.8211 -0.7392
  181SLPC   H6Y20693   0.700   4.055   3.141  0.1588  0.6306  2.5019
  181SLPC   C3720694   0.716   3.878   3.280  0.2919  0.8293 -0.9223
  181SLPC   H7X20695   0.818   3.881   3.323  0.0392 -0.8313 -0.1187
  181SLPC   H7Y20696   0.685   3.771   3.283 -0.1081  0.9004  2.7465
  181SLPC   C3820697   0.606   3.940   3.372  0.1744 -0.0157 -0.8534
  181SLPC   H8X20698   0.526   3.948   3.296 -0.6987 -0.9176 -0.0547
  181SLPC   H8Y20699   0.642   4.040   3.403 -1.0468 -0.1611  1.1822
  181SLPC   C3920700   0.562   3.854   3.487  0.3256  0.3103  0.0817
  181SLPC   H9X20701   0.621   3.872   3.579  0.2938 -1.1554  0.4160
  181SLPC   H9Y20702   0.573   3.747   3.460  1.0136  0.2465  0.5792
  181SLPC  C31020703   0.411   3.877   3.533  0.5563 -0.0326  0.2306
  181SLPC  H10X20704   0.334   3.835   3.464 -1.2857  1.8975  0.9915
  181SLPC  H10Y20705   0.405   3.987   3.545  1.2745  0.1876 -1.2231
  181SLPC  C31120706   0.376   3.810   3.666 -0.9143  0.4304  0.0546
  181SLPC  H11X20707   0.459   3.812   3.740 -1.5963  1.4280  0.8211
  181SLPC  H11Y20708   0.361   3.704   3.638  0.6026  0.4141 -0.8263
  181SLPC  C31220709   0.252   3.877   3.725  0.6764 -0.7592 -0.0109
  181SLPC  H12X20710   0.179   3.893   3.643  0.3482  2.2128  0.7508
  181SLPC  H12Y20711   0.266   3.981   3.763  0.1721 -0.2201 -1.2498
  181SLPC  C31320712   0.195   3.791   3.845  0.0722 -0.5310 -0.0668
  181SLPC  H13X20713   0.125   3.851   3.907  1.3512  1.2108 -0.2420
  181SLPC  H13Y20714   0.281   3.764   3.911  0.0582 -0.5076 -0.0394
  181SLPC  C31420715   0.119   3.669   3.794 -0.0980 -0.4734 -0.7938
  181SLPC  H14X20716   0.203   3.608   3.756  0.0259 -0.6522 -0.2509
  181SLPC  H14Y20717   0.054   3.690   3.707 -2.9983  0.5292  1.4331
  181SLPC  C31520718   0.040   3.607   3.911  0.5458 -0.6875  0.2387
  181SLPC  H15X20719  -0.013   3.693   3.957 -0.6033 -1.1700 -0.1401
  181SLPC  H15Y20720   0.108   3.559   3.984  0.2522  0.8638  1.6073
  181SLPC  C31620721  -0.062   3.507   3.866 -0.4134  0.2829  0.0315
  181SLPC  H16X20722  -0.026   3.403   3.852 -2.2836 -0.3895 -0.0449
  181SLPC  H16Y20723  -0.107   3.539   3.769 -0.4335 -1.5240 -0.5924
  181SLPC  C31720724  -0.184   3.500   3.968 -0.2798  1.0295 -0.2344
  181SLPC  H17X20725  -0.227   3.600   3.989  2.9498  2.5204  0.0071
  181SLPC  H17Y20726  -0.155   3.456   4.066 -2.5297  0.4815  0.2436
  181SLPC  C31820727  -0.289   3.414   3.912  0.3357  0.5467 -0.5638
  181SLPC  H18X20728  -0.334   3.456   3.820  0.6655  1.6460 -0.2372
  181SLPC  H18Y20729  -0.379   3.410   3.977  1.9752  0.8568  1.8515
  181SLPC  H18Z20730  -0.258   3.311   3.885 -0.9489  0.6957 -2.9110
  182SLPC     N20731   4.867   3.666   2.228  0.1124  0.0646 -0.0913
  182SLPC   C1320732   4.765   3.700   2.333 -0.1283  0.3640  0.1401
  182SLPC  H13A20733   4.799   3.759   2.417 -1.1987 -1.2119  1.7912
  182SLPC  H13B20734   4.680   3.758   2.300  0.7035  1.7078  0.3174
  182SLPC  H13C20735   4.727   3.607   2.374 -1.3633  1.3287  1.3004
  182SLPC   C1420736   4.883   3.787   2.146  0.8304  0.3359 -0.4851
  182SLPC  H14A20737   4.885   3.880   2.199 -0.7811 -0.3928  0.9534
  182SLPC  H14B20738   4.967   3.785   2.078 -0.0533 -1.0350 -1.5994
  182SLPC  H14C20739   4.803   3.791   2.074 -0.2810 -1.6129  0.5480
  182SLPC   C1520740   4.818   3.560   2.139 -0.1677 -0.1533 -0.0532
  182SLPC  H15A20741   4.836   3.463   2.184  0.9842  0.9671  2.0563
  182SLPC  H15B20742   4.715   3.569   2.110  0.2261 -0.3456 -1.6065
  182SLPC  H15C20743   4.875   3.559   2.047 -0.5108  0.7521 -0.2831
  182SLPC   C1220744   5.003   3.626   2.295 -0.1502 -0.1950  0.5839
  182SLPC  H12A20745   5.055   3.713   2.334 -0.5648  1.0948 -1.5956
  182SLPC  H12B20746   5.071   3.591   2.219  1.5356 -1.0752  2.3854
  182SLPC   C1120747   4.994   3.517   2.411  0.5798 -0.4321 -0.3370
  182SLPC  H11A20748   4.940   3.559   2.498  1.5792 -0.7225  0.4406
  182SLPC  H11B20749   5.096   3.505   2.451  1.1418  1.4114 -1.1403
  182SLPC     P20750   4.838   3.309   2.436 -0.3661  0.0708  0.0556
  182SLPC   O1320751   4.730   3.394   2.484  0.3713 -0.4176 -0.3865
  182SLPC   O1420752   4.803   3.194   2.358 -0.3180  0.4640 -0.0585
  182SLPC   O1220753   4.949   3.392   2.364 -0.3571  0.4176 -0.4052
  182SLPC   O1120754   4.910   3.236   2.566  0.1192  0.4117  0.2124
  182SLPC    C120755   5.009   3.134   2.534 -0.0200  0.5547 -0.1029
  182SLPC    HA20756   5.053   3.132   2.431 -0.4528 -0.7507 -0.2757
  182SLPC    HB20757   5.097   3.151   2.599  0.0256  1.3343 -0.3507
  182SLPC    C220758   4.949   2.991   2.551  0.2896 -0.1886  0.8017
  182SLPC    HS20759   4.873   2.996   2.471  0.4476  1.1688  0.7199
  182SLPC   O2120760   4.889   2.983   2.688  0.2178  0.2262 -0.1626
  182SLPC   C2120761   4.802   2.890   2.686 -0.0096  0.5625  0.3336
  182SLPC   O2220762   4.780   2.806   2.597 -0.5455  0.2402  0.0969
  182SLPC   C2220763   4.708   2.898   2.805  0.0729 -0.4547  0.3443
  182SLPC   H2R20764   4.771   2.900   2.896 -0.6983 -2.5504  0.9880
  182SLPC   H2S20765   4.662   2.999   2.792  1.6059  0.0855 -1.3619
  182SLPC    C320766   5.049   2.879   2.522  0.6406  0.1398 -0.1782
  182SLPC    HX20767   5.099   2.910   2.428  2.3281  2.1387  1.2959
  182SLPC    HY20768   4.997   2.781   2.511 -0.5896  0.7346  0.1446
  182SLPC   O3120769   5.160   2.885   2.617 -0.3548  0.5793  0.5076
  182SLPC   C3120770   5.177   2.782   2.695 -0.1709  0.3612  0.6694
  182SLPC   O3220771   5.107   2.682   2.694 -0.1416  0.1763  0.2258
  182SLPC   C3220772   5.270   2.824   2.807 -0.0819 -0.1993  0.0802
  182SLPC   H2X20773   5.339   2.900   2.763 -1.0588  1.3502  1.1155
  182SLPC   H2Y20774   5.329   2.734   2.835 -0.1830 -0.3059 -0.0491
  182SLPC   C2320775   4.603   2.783   2.826 -0.5383  0.3266  0.0589
  182SLPC   H3R20776   4.531   2.774   2.742  0.9050 -1.4225 -1.0757
  182SLPC   H3S20777   4.539   2.813   2.912  1.0280  1.6082  0.8468
  182SLPC   C2420778   4.666   2.646   2.873 -0.7267  0.5691  0.3845
  182SLPC   H4R20779   4.729   2.614   2.787 -1.8935 -0.1993 -0.2164
  182SLPC   H4S20780   4.592   2.566   2.892 -0.5984  0.5323  0.7297
  182SLPC   C2520781   4.754   2.654   2.997 -0.2581  0.2514 -0.4199
  182SLPC   H5R20782   4.696   2.716   3.070  0.0405  0.2011 -0.1385
  182SLPC   H5S20783   4.849   2.711   2.989  1.2518 -2.0128  0.4678
  182SLPC   C2620784   4.783   2.521   3.069 -0.0155  0.1341 -0.2179
  182SLPC   H6R20785   4.688   2.466   3.087  0.7201 -1.1187 -0.0871
  182SLPC   H6S20786   4.822   2.549   3.169 -1.5645  0.1947  0.4082
  182SLPC   C2720787   4.899   2.444   3.004  0.2617 -0.1086 -0.0403
  182SLPC   H7R20788   4.873   2.415   2.900 -0.1636 -0.4726  0.1653
  182SLPC   H7S20789   4.898   2.343   3.050 -0.3179 -0.4239 -0.7312
  182SLPC   C2820790   5.034   2.509   3.015  0.4300  0.3428  1.0257
  182SLPC   H8R20791   5.051   2.537   3.121  2.9074 -1.1550  1.1055
  182SLPC   H8S20792   5.022   2.600   2.952 -2.0682  0.7568  1.9565
  182SLPC   C2920793   5.139   2.420   2.955 -0.6050  0.2019 -0.1595
  182SLPC   H9R20794   5.115   2.389   2.852  2.7932 -1.3315 -0.6272
  182SLPC  C21020795   5.253   2.372   3.005 -0.5181  0.2854  0.1691
  182SLPC  H10R20796   5.330   2.321   2.945 -1.3664 -0.0187 -0.6983
  182SLPC  C21120797   5.294   2.385   3.152 -0.3530  0.4507 -0.4284
  182SLPC  H11R20798   5.241   2.471   3.198  0.4068  2.0284 -2.3516
  182SLPC  H11S20799   5.401   2.416   3.159  0.5997 -2.5099 -0.2269
  182SLPC  C21220800   5.271   2.262   3.237  0.1859 -0.5036  0.7250
  182SLPC  H12R20801   5.245   2.169   3.184 -0.8684  0.7946 -1.1525
  182SLPC  C21320802   5.278   2.262   3.371 -0.8112 -0.0520 -0.8406
  182SLPC  H13R20803   5.255   2.168   3.423 -2.4618  1.7482  1.9968
  182SLPC  C21420804   5.326   2.372   3.468  0.3020  0.1251 -0.3795
  182SLPC  H14R20805   5.239   2.436   3.493 -0.0179 -0.4413 -0.0259
  182SLPC  H14S20806   5.401   2.438   3.419  2.1896 -3.1101 -2.2075
  182SLPC  C21520807   5.381   2.312   3.594 -0.1292  0.4113 -0.2698
  182SLPC  H15R20808   5.474   2.257   3.566 -0.2006  0.0767  0.1310
  182SLPC  H15S20809   5.312   2.246   3.650  0.9310 -0.4997  0.0126
  182SLPC  C21620810   5.436   2.427   3.690  0.5315  0.6144 -0.0185
  182SLPC  H16R20811   5.360   2.502   3.719 -1.7968 -1.6778  0.1307
  182SLPC  H16S20812   5.514   2.480   3.630  0.5496 -0.5249 -1.0542
  182SLPC  C21720813   5.504   2.359   3.815 -0.3047  0.1642 -0.3373
  182SLPC  H17R20814   5.543   2.260   3.784  0.8556 -0.0850  1.7410
  182SLPC  H17S20815   5.418   2.345   3.883  0.6267  1.6262  1.2316
  182SLPC  C21820816   5.616   2.442   3.875  0.6448 -0.2978 -0.2758
  182SLPC  H18R20817   5.679   2.495   3.801  1.2946 -0.0931  0.4245
  182SLPC  H18S20818   5.680   2.393   3.950  0.3517 -1.4979 -0.7719
  182SLPC  H18T20819   5.566   2.518   3.938  1.7137  0.2008 -0.0132
  182SLPC   C3320820   5.189   2.874   2.921  0.3458 -0.4849 -0.5806
  182SLPC   H3X20821   5.121   2.789   2.946  0.4572 -0.0105  1.4824
  182SLPC   H3Y20822   5.133   2.965   2.894 -0.3826 -0.4664  0.8958
  182SLPC   C3420823   5.276   2.899   3.047 -0.4069 -0.3167  0.4372
  182SLPC   H4X20824   5.347   2.982   3.028  1.0866 -2.1866 -2.8625
  182SLPC   H4Y20825   5.330   2.804   3.065 -1.2588 -1.0379 -0.6754
  182SLPC   C3520826   5.211   2.926   3.184 -0.7148  0.8094  0.4494
  182SLPC   H5X20827   5.169   3.028   3.178 -0.2655  0.9393 -0.8797
  182SLPC   H5Y20828   5.299   2.931   3.252 -0.9241 -0.0537  0.7989
  182SLPC   C3620829   5.110   2.816   3.237  0.2631 -0.0076 -0.1051
  182SLPC   H6X20830   5.157   2.717   3.220  1.6341  0.6700 -0.4496
  182SLPC   H6Y20831   5.012   2.825   3.185 -0.8146 -1.8925  1.4643
  182SLPC   C3720832   5.077   2.833   3.388  0.5958 -0.2936  0.2964
  182SLPC   H7X20833   5.025   2.931   3.402 -2.7109 -1.9430  0.4227
  182SLPC   H7Y20834   5.168   2.831   3.453  0.1594 -1.3498  0.8893
  182SLPC   C3820835   4.991   2.722   3.442  0.2426  0.6825 -0.6355
  182SLPC   H8X20836   5.027   2.617   3.434 -2.2362 -0.1681 -1.5264
  182SLPC   H8Y20837   4.900   2.715   3.380 -0.0938 -0.0515 -0.0713
  182SLPC   C3920838   4.954   2.738   3.591 -0.5318 -0.0389  0.4921
  182SLPC   H9X20839   4.869   2.671   3.615  1.4758 -2.2761  1.8800
  182SLPC   H9Y20840   4.933   2.845   3.613 -0.6874  0.4406 -1.8073
  182SLPC  C31020841   5.074   2.666   3.665  0.1475 -0.2504 -0.3737
  182SLPC  H10X20842   5.176   2.702   3.639  0.0035 -0.3822 -1.1192
  182SLPC  H10Y20843   5.075   2.559   3.636  1.4152  0.0004 -1.3279
  182SLPC  C31120844   5.065   2.659   3.822  0.1603  0.4092 -0.4535
  182SLPC  H11X20845   4.960   2.642   3.854 -0.0294  1.4614 -0.4560
  182SLPC  H11Y20846   5.088   2.763   3.855  1.3716 -0.4969  1.7434
  182SLPC  C31220847   5.166   2.564   3.897  0.7913 -0.1787 -0.4984
  182SLPC  H12X20848   5.265   2.604   3.867  0.5893  0.1214 -0.7603
  182SLPC  H12Y20849   5.159   2.456   3.870  0.2551 -0.4831  0.7510
  182SLPC  C31320850   5.141   2.567   4.056  0.1488 -0.3207  0.5080
  182SLPC  H13X20851   5.049   2.517   4.094 -1.3227  1.6027 -0.3807
  182SLPC  H13Y20852   5.139   2.676   4.078 -0.9977  0.3612 -2.4375
  182SLPC  C31420853   5.268   2.503   4.129  0.5456 -0.1708  0.6556
  182SLPC  H14X20854   5.361   2.545   4.085  0.4698 -0.2999  0.3727
  182SLPC  H14Y20855   5.266   2.397   4.096  1.0766 -0.3206  1.0916
  182SLPC  C31520856   5.266   2.547   4.275 -0.4978 -0.2759 -0.2862
  182SLPC  H15X20857   5.193   2.487   4.333 -0.0214  1.3312  2.0849
  182SLPC  H15Y20858   5.247   2.656   4.282 -1.4425 -0.0189 -4.1303
  182SLPC  C31620859   5.397   2.517   4.347 -0.3908  0.3937 -0.4481
  182SLPC  H16X20860   5.399   2.577   4.441  0.0561 -1.8689  1.0670
  182SLPC  H16Y20861   5.479   2.549   4.279 -2.6550  1.6114 -2.7595
  182SLPC  C31720862   5.419   2.370   4.389  0.2696 -0.0289 -0.5057
  182SLPC  H17X20863   5.330   2.325   4.439  0.6970 -1.0213 -0.6085
  182SLPC  H17Y20864   5.491   2.365   4.474 -0.0068  2.6592 -0.0221
  182SLPC  C31820865   5.446   2.268   4.277 -0.4421  0.1183 -0.8978
  182SLPC  H18X20866   5.356   2.239   4.219 -1.2256  3.1701 -1.3919
  182SLPC  H18Y20867   5.508   2.184   4.313  1.4281  1.3760 -1.0370
  182SLPC  H18Z20868   5.516   2.316   4.205 -0.8007 -0.2332 -1.4803
  183SLPC     N20869   0.478   4.046   2.255  0.0904  0.4274  0.7401
  183SLPC   C1320870   0.437   4.121   2.122 -0.2585 -0.0860  0.7574
  183SLPC  H13A20871   0.374   4.064   2.055  0.0984  0.3624  0.0251
  183SLPC  H13B20872   0.400   4.221   2.136  0.3025 -0.2282  4.0014
  183SLPC  H13C20873   0.527   4.126   2.063 -0.6772 -0.8022  0.0185
  183SLPC   C1420874   0.530   3.912   2.225 -0.2057 -0.1677 -0.2588
  183SLPC  H14A20875   0.458   3.849   2.174  0.0369  1.0958 -2.2668
  183SLPC  H14B20876   0.618   3.922   2.165 -0.7710 -0.0838 -1.0908
  183SLPC  H14C20877   0.557   3.846   2.306 -1.6925 -1.3525 -0.6791
  183SLPC   C1520878   0.351   4.028   2.324 -0.4432 -0.1337 -0.3584
  183SLPC  H15A20879   0.315   4.122   2.362  1.5007  0.5967 -0.1933
  183SLPC  H15B20880   0.275   3.982   2.263 -0.7399  1.1682 -0.9901
  183SLPC  H15C20881   0.361   3.957   2.405 -0.5929  0.3408  0.0787
  183SLPC   C1220882   0.582   4.128   2.330  0.3905 -0.5094  0.2029
  183SLPC  H12A20883   0.671   4.135   2.269 -0.4538 -2.3805 -1.3610
  183SLPC  H12B20884   0.608   4.085   2.426 -1.6691 -2.3359  0.0380
  183SLPC   C1120885   0.540   4.271   2.376 -0.0645 -0.8222  0.2962
  183SLPC  H11A20886   0.493   4.325   2.291  2.2959  1.6588  0.4149
  183SLPC  H11B20887   0.628   4.334   2.401  0.4531 -0.4909 -2.1121
  183SLPC     P20888   0.369   4.386   2.530  0.2027  0.0180 -0.0776
  183SLPC   O1320889   0.327   4.457   2.404 -0.0290  0.1564  0.4543
  183SLPC   O1420890   0.264   4.343   2.626 -0.0940  0.5142  0.3368
  183SLPC   O1220891   0.456   4.261   2.487  0.5878  0.1341  0.0593
  183SLPC   O1120892   0.477   4.467   2.603  0.0097  0.2775 -0.3701
  183SLPC    C120893   0.560   4.405   2.704 -0.1472  0.1449  0.2203
  183SLPC    HA20894   0.560   4.294   2.709 -1.1091  0.0944 -0.6229
  183SLPC    HB20895   0.668   4.430   2.699 -0.3544  1.4905  1.5088
  183SLPC    C220896   0.525   4.456   2.846 -1.0303 -0.1010  0.4333
  183SLPC    HS20897   0.617   4.450   2.909 -0.5493  2.9711  0.1982
  183SLPC   O2120898   0.421   4.385   2.900  0.7534  0.1852  0.5195
  183SLPC   C2120899   0.446   4.270   2.960 -0.6708  0.3664  0.3310
  183SLPC   O2220900   0.555   4.211   2.962  0.2316  0.0091 -0.3622
  183SLPC   C2220901   0.319   4.216   3.026  0.3253 -0.5100  0.0929
  183SLPC   H2R20902   0.263   4.307   3.058 -0.3375 -0.5051 -1.0286
  183SLPC   H2S20903   0.265   4.162   2.946 -1.3198 -0.5116  1.1591
  183SLPC    C320904   0.479   4.602   2.853 -0.9936  0.0869 -0.5824
  183SLPC    HX20905   0.380   4.618   2.805 -1.3134  0.5733  0.2295
  183SLPC    HY20906   0.541   4.672   2.793 -1.2384  0.3925 -0.4811
  183SLPC   O3120907   0.476   4.643   2.994 -0.5757 -0.2069 -0.4948
  183SLPC   C3120908   0.368   4.619   3.058  0.1872  0.1725  0.0108
  183SLPC   O3220909   0.265   4.563   3.017  0.6235  0.9533 -0.1010
  183SLPC   C3220910   0.378   4.672   3.195 -0.2218  0.1966  1.1161
  183SLPC   H2X20911   0.292   4.740   3.213 -1.2343  0.1040 -2.6010
  183SLPC   H2Y20912   0.467   4.738   3.205 -0.2004  0.3315  0.1595
  183SLPC   C2320913   0.353   4.119   3.140  0.2131 -0.4731 -0.9458
  183SLPC   H3R20914   0.407   4.183   3.213  0.4230  1.1868 -2.4872
  183SLPC   H3S20915   0.417   4.035   3.103 -0.2179 -0.4248 -1.8370
  183SLPC   C2420916   0.227   4.066   3.215 -1.0067  0.2642  0.6090
  183SLPC   H4R20917   0.267   3.988   3.284 -0.7578  1.2374  1.5974
  183SLPC   H4S20918   0.166   4.008   3.143  0.2060  2.0680 -2.0166
  183SLPC   C2520919   0.149   4.168   3.289 -0.1185 -0.5950  0.5773
  183SLPC   H5R20920   0.105   4.246   3.223 -0.1902  0.4439  1.8085
  183SLPC   H5S20921   0.215   4.218   3.364 -0.4918  2.2272 -0.8584
  183SLPC   C2620922   0.038   4.110   3.365  0.2673  0.3881 -0.5026
  183SLPC   H6R20923   0.074   4.018   3.417  2.6498  0.4975 -1.8316
  183SLPC   H6S20924  -0.049   4.075   3.306  1.8883 -4.6506 -0.4033
  183SLPC   C2720925  -0.013   4.215   3.461 -0.0474 -0.7139  0.0048
  183SLPC   H7R20926  -0.050   4.299   3.399 -2.2861 -1.5556  0.1311
  183SLPC   H7S20927   0.068   4.258   3.524 -0.4250 -1.8604  1.3313
  183SLPC   C2820928  -0.121   4.174   3.560 -0.3091 -0.3167  0.1980
  183SLPC   H8R20929  -0.220   4.153   3.515 -2.2842  0.0278  3.9403
  183SLPC   H8S20930  -0.140   4.262   3.625  2.3355  0.3752  0.1461
  183SLPC   C2920931  -0.091   4.055   3.651  0.2433  0.3853  1.0600
  183SLPC   H9R20932  -0.059   3.964   3.597 -3.8546 -1.5497  1.4974
  183SLPC  C21020933  -0.110   4.048   3.787  0.2741  0.3316  0.8855
  183SLPC  H10R20934  -0.093   3.954   3.840 -1.0006  0.3637  1.4011
  183SLPC  C21120935  -0.146   4.157   3.878 -0.0045  0.2372 -0.6658
  183SLPC  H11R20936  -0.125   4.256   3.833  2.2763  0.0443 -0.1693
  183SLPC  H11S20937  -0.077   4.127   3.960 -0.3950 -0.1409 -0.4701
  183SLPC  C21220938  -0.293   4.163   3.928  0.2366 -0.5074  0.3934
  183SLPC  H12R20939  -0.361   4.198   3.849  0.4670  0.9380  0.7991
  183SLPC  C21320940  -0.351   4.105   4.036 -0.7179  0.2697  0.4088
  183SLPC  H13R20941  -0.460   4.106   4.046 -0.8334 -0.3751 -0.6584
  183SLPC  C21420942  -0.280   4.042   4.150 -0.2832  0.0048  0.3359
  183SLPC  H14R20943  -0.340   4.075   4.238 -1.7021 -0.7118 -0.3217
  183SLPC  H14S20944  -0.180   4.088   4.163  0.5648 -1.1469 -1.6660
  183SLPC  C21520945  -0.257   3.886   4.129 -0.3011 -0.5160  0.0887
  183SLPC  H15R20946  -0.198   3.878   4.035 -1.6305  1.4341 -0.9949
  183SLPC  H15S20947  -0.355   3.834   4.137 -0.4260 -0.5362 -1.2518
  183SLPC  C21620948  -0.178   3.822   4.241 -0.2299 -0.3195  0.2576
  183SLPC  H16R20949  -0.160   3.717   4.209  0.1876  0.3645 -1.9095
  183SLPC  H16S20950  -0.226   3.805   4.340  1.4218 -2.1761  0.8102
  183SLPC  C21720951  -0.042   3.896   4.271  0.5560  0.2499  0.5010
  183SLPC  H17R20952  -0.061   4.000   4.307 -1.8404  1.4046 -3.4369
  183SLPC  H17S20953   0.010   3.911   4.174 -1.4472 -0.9670 -0.8411
  183SLPC  C21820954   0.044   3.834   4.384  0.2117  0.4833 -0.0257
  183SLPC  H18R20955   0.118   3.905   4.427  0.7468 -0.4728  0.6582
  183SLPC  H18S20956   0.099   3.750   4.336 -0.0362 -0.3382  1.0670
  183SLPC  H18T20957  -0.014   3.784   4.465 -0.5552 -0.8326 -1.3588
  183SLPC   C3320958   0.376   4.556   3.303 -0.1664  0.5009  0.1000
  183SLPC   H3X20959   0.478   4.512   3.304 -0.1001  0.5909 -1.1517
  183SLPC   H3Y20960   0.297   4.482   3.281 -0.7025 -0.2441  3.8642
  183SLPC   C3420961   0.356   4.611   3.453 -0.2221  0.3729  0.0928
  183SLPC   H4X20962   0.282   4.694   3.446 -0.9672  0.0124  2.6148
  183SLPC   H4Y20963   0.447   4.659   3.494 -0.8330  1.4390  0.2372
  183SLPC   C3520964   0.307   4.503   3.545 -0.7608  0.2595 -0.3156
  183SLPC   H5X20965   0.399   4.452   3.580 -1.0910 -0.4720 -0.4834
  183SLPC   H5Y20966   0.245   4.430   3.488  0.8797 -0.7516 -0.8694
  183SLPC   C3620967   0.242   4.547   3.675  0.1019  0.0389  0.0793
  183SLPC   H6X20968   0.156   4.613   3.651 -0.5791  0.2016  2.7442
  183SLPC   H6Y20969   0.309   4.617   3.729 -0.1049  2.4309 -2.4977
  183SLPC   C3720970   0.197   4.430   3.759  0.1442 -0.2938 -0.1346
  183SLPC   H7X20971   0.290   4.375   3.781  0.1726  0.4282  1.7444
  183SLPC   H7Y20972   0.136   4.366   3.692  0.5476 -0.4589 -0.3469
  183SLPC   C3820973   0.124   4.463   3.887  0.2722 -0.8995 -0.0447
  183SLPC   H8X20974   0.015   4.471   3.867  0.4986  2.9061 -0.4931
  183SLPC   H8Y20975   0.167   4.559   3.922  1.7749 -1.6560  0.2933
  183SLPC   C3920976   0.155   4.360   4.001  0.5509  0.1117  0.6685
  183SLPC   H9X20977   0.263   4.346   4.026  0.9234 -0.2316 -1.0253
  183SLPC   H9Y20978   0.105   4.262   3.981 -0.4600  1.0921 -1.9323
  183SLPC  C31020979   0.076   4.405   4.132 -0.1138  0.8995  0.0811
  183SLPC  H10X20980  -0.018   4.449   4.093 -0.1247  1.4326  0.7023
  183SLPC  H10Y20981   0.127   4.488   4.186  0.5593  0.6446 -0.1428
  183SLPC  C31120982   0.035   4.283   4.223  0.0376 -0.4074  0.3302
  183SLPC  H11X20983   0.130   4.228   4.239  1.0589  0.7998 -1.2440
  183SLPC  H11Y20984  -0.028   4.209   4.167  1.9219 -0.9379 -1.2010
  183SLPC  C31220985  -0.003   4.309   4.369 -0.2003 -0.2571 -0.4097
  183SLPC  H12X20986   0.086   4.348   4.424  1.2477 -0.3550 -2.5252
  183SLPC  H12Y20987  -0.031   4.211   4.412 -3.1809  0.5511 -0.3276
  183SLPC  C31320988  -0.125   4.406   4.373  0.7748  0.2651  0.6570
  183SLPC  H13X20989  -0.186   4.391   4.281 -1.0989  0.0492  1.9024
  183SLPC  H13Y20990  -0.092   4.512   4.359 -2.0095  1.0735 -0.5641
  183SLPC  C31420991  -0.217   4.392   4.496  0.3880 -0.5868 -0.1478
  183SLPC  H14X20992  -0.213   4.289   4.538 -0.3393  0.1206  1.7723
  183SLPC  H14Y20993  -0.324   4.396   4.467  0.5434 -2.5245 -1.1605
  183SLPC  C31520994  -0.185   4.486   4.615 -0.0070  0.5022  0.0682
  183SLPC  H15X20995  -0.200   4.590   4.578  1.7659  0.4453 -0.9262
  183SLPC  H15Y20996  -0.081   4.474   4.652  0.2367 -0.4815 -0.8845
  183SLPC  C31620997  -0.283   4.486   4.734  0.0050 -0.2763 -0.2504
  183SLPC  H16X20998  -0.257   4.408   4.809  2.3064  1.0813  0.4704
  183SLPC  H16Y20999  -0.386   4.460   4.703  0.6818 -1.9801 -1.2473
  183SLPC  C31721000  -0.274   4.617   4.822 -0.0870 -0.0475  0.1284
  183SLPC  H17X21001  -0.174   4.640   4.863 -0.7873  1.8012  0.9009
  183SLPC  H17Y21002  -0.337   4.587   4.909  0.1508  0.3558  0.4413
  183SLPC  C31821003  -0.338   4.736   4.759  0.1000 -0.3277 -0.2006
  183SLPC  H18X21004  -0.286   4.749   4.662 -0.8162 -0.2981 -0.6975
  183SLPC  H18Y21005  -0.332   4.827   4.823  0.3454 -1.0417  0.8288
  183SLPC  H18Z21006  -0.448   4.723   4.755  0.2633 -1.6136 -0.9067
  184SLPC     N21007   0.810   6.283   2.422  0.2097 -0.0404  0.1885
  184SLPC   C1321008   0.851   6.203   2.304  0.0900 -0.5934  0.2946
  184SLPC  H13A21009   0.806   6.246   2.216 -1.3350  0.1640  1.3549
  184SLPC  H13B21010   0.957   6.194   2.288 -0.1280 -0.9596 -1.1031
  184SLPC  H13C21011   0.828   6.098   2.306  0.5128 -0.6903  0.0773
  184SLPC   C1421012   0.664   6.317   2.418  0.0396  0.1894 -0.4195
  184SLPC  H14A21013   0.643   6.373   2.508  2.5740 -0.7579  0.8395
  184SLPC  H14B21014   0.647   6.381   2.333  0.2491 -1.3521 -1.6735
  184SLPC  H14C21015   0.597   6.233   2.408  0.8408 -0.6403  0.8733
  184SLPC   C1521016   0.900   6.409   2.407  0.3019 -0.4558 -0.3965
  184SLPC  H15A21017   0.870   6.493   2.467  0.3085 -0.4153 -0.4501
  184SLPC  H15B21018   1.005   6.387   2.402  0.6906  1.4132 -1.4069
  184SLPC  H15C21019   0.873   6.449   2.310 -3.4276 -0.7574  0.3514
  184SLPC   C1221020   0.855   6.204   2.550  0.4518  0.1572  0.1898
  184SLPC  H12A21021   0.847   6.267   2.637 -1.0448 -0.3335  0.4394
  184SLPC  H12B21022   0.958   6.177   2.531  0.0598 -0.2730 -1.5098
  184SLPC   C1121023   0.784   6.068   2.578 -0.2169  0.5240  0.5336
  184SLPC  H11A21024   0.673   6.077   2.588 -0.7768 -1.7895 -2.3559
  184SLPC  H11B21025   0.811   6.020   2.675 -0.4719 -2.4098 -0.7511
  184SLPC     P21026   0.865   5.825   2.513  0.1112 -0.1012 -0.1950
  184SLPC   O1321027   0.841   5.734   2.403  0.9164  0.2829 -0.2513
  184SLPC   O1421028   1.005   5.842   2.556 -0.4479 -0.1428  0.4991
  184SLPC   O1221029   0.804   5.973   2.474  0.5195 -0.3954 -0.1796
  184SLPC   O1121030   0.769   5.776   2.624  0.0477  0.4533 -0.5893
  184SLPC    C121031   0.628   5.786   2.595  0.4049  0.1145  0.4003
  184SLPC    HA21032   0.605   5.891   2.567  2.7207  0.7619  0.6913
  184SLPC    HB21033   0.603   5.728   2.504 -1.3941  2.2534 -0.5845
  184SLPC    C221034   0.531   5.748   2.713  0.1879  0.0931  0.5431
  184SLPC    HS21035   0.434   5.734   2.660 -0.5828  1.6615  1.4528
  184SLPC   O2121036   0.535   5.867   2.804 -0.1124 -0.1134 -0.0798
  184SLPC   C2121037   0.413   5.911   2.837 -0.2226  0.1003  0.3286
  184SLPC   O2221038   0.308   5.861   2.800  0.1773 -0.4795  0.2784
  184SLPC   C2221039   0.437   6.031   2.931 -0.2485  0.7909  0.4459
  184SLPC   H2R21040   0.543   6.063   2.930  0.0616 -0.1654 -1.3989
  184SLPC   H2S21041   0.378   6.116   2.891  0.8969  0.8829 -1.1198
  184SLPC    C321042   0.576   5.617   2.773  0.3271  0.3610 -0.3475
  184SLPC    HX21043   0.668   5.634   2.833  0.6765  0.5241 -0.9220
  184SLPC    HY21044   0.606   5.553   2.688 -0.2245  0.3816 -0.5653
  184SLPC   O3121045   0.458   5.565   2.846  0.2510  0.4447  0.5017
  184SLPC   C3121046   0.461   5.577   2.979  0.1964  0.6795 -0.2020
  184SLPC   O3221047   0.544   5.627   3.045  0.2221 -0.1293 -0.0883
  184SLPC   C3221048   0.323   5.519   3.027  0.2767  0.2327  0.0391
  184SLPC   H2X21049   0.331   5.412   3.000 -0.7188 -0.8060  3.3780
  184SLPC   H2Y21050   0.261   5.580   2.959  3.0108 -0.7805 -3.7225
  184SLPC   C2321051   0.389   6.002   3.082  0.5994  0.2776  0.9893
  184SLPC   H3R21052   0.321   5.916   3.065 -0.5109  1.7024 -3.1269
  184SLPC   H3S21053   0.332   6.093   3.111  1.0227  1.0155 -0.4091
  184SLPC   C2421054   0.511   5.972   3.170  1.1582  0.0330  0.5414
  184SLPC   H4R21055   0.561   6.065   3.136 -0.6961  0.3787 -1.4795
  184SLPC   H4S21056   0.559   5.879   3.131  4.2678  1.0965  1.5488
  184SLPC   C2521057   0.473   5.966   3.311 -0.3180 -0.5563 -0.0464
  184SLPC   H5R21058   0.411   6.047   3.355 -0.4911 -0.3443 -0.6771
  184SLPC   H5S21059   0.572   5.951   3.359  0.1194 -0.7377 -0.9956
  184SLPC   C2621060   0.398   5.841   3.334  0.8413  0.1810 -0.0249
  184SLPC   H6R21061   0.449   5.755   3.285 -1.2607 -0.7378 -0.7013
  184SLPC   H6S21062   0.298   5.855   3.288  1.1330  0.8745 -0.4700
  184SLPC   C2721063   0.364   5.802   3.483  0.0446  0.4354  0.3780
  184SLPC   H7R21064   0.453   5.762   3.535  0.3345  2.1484  1.2603
  184SLPC   H7S21065   0.291   5.718   3.477 -2.1697  2.3370 -1.3995
  184SLPC   C2821066   0.316   5.928   3.563  0.0404  0.6121 -0.6178
  184SLPC   H8R21067   0.241   5.981   3.500 -1.8684 -1.7738 -0.5185
  184SLPC   H8S21068   0.407   5.991   3.568  1.0841 -0.8686 -0.5215
  184SLPC   C2921069   0.274   5.872   3.698 -0.4379  0.4046  0.2252
  184SLPC   H9R21070   0.173   5.830   3.707 -1.3885  2.8788  2.1601
  184SLPC  C21021071   0.351   5.875   3.811  0.4407  0.2211  0.4942
  184SLPC  H10R21072   0.312   5.828   3.902 -0.1231  2.2768  1.3537
  184SLPC  C21121073   0.489   5.932   3.818  0.4626  0.0174  0.0463
  184SLPC  H11R21074   0.491   6.038   3.849 -1.0759  0.2556 -0.5615
  184SLPC  H11S21075   0.538   5.922   3.719  1.4917  0.1492  0.5303
  184SLPC  C21221076   0.573   5.860   3.922 -0.0682 -0.3725 -0.5001
  184SLPC  H12R21077   0.642   5.781   3.890  0.8772  0.0845  0.3359
  184SLPC  C21321078   0.591   5.894   4.049 -0.4656 -0.0863 -0.7240
  184SLPC  H13R21079   0.646   5.817   4.106 -2.3002 -1.2257 -0.4078
  184SLPC  C21421080   0.527   6.009   4.120  1.2252 -0.3872  0.0263
  184SLPC  H14R21081   0.437   6.055   4.074  0.2028 -0.2518  2.0576
  184SLPC  H14S21082   0.596   6.095   4.133  0.2673  0.7988 -2.1579
  184SLPC  C21521083   0.489   5.948   4.254 -0.3023  1.0017  0.1866
  184SLPC  H15R21084   0.578   5.910   4.309 -1.9207 -1.1618  1.4856
  184SLPC  H15S21085   0.423   5.859   4.249  1.6559 -0.5975  1.4261
  184SLPC  C21621086   0.410   6.057   4.342 -0.1058  0.0211  0.0504
  184SLPC  H16R21087   0.331   6.111   4.285 -1.9347  0.0987  2.5220
  184SLPC  H16S21088   0.483   6.137   4.368  0.4027 -0.6226  0.6257
  184SLPC  C21721089   0.368   6.007   4.483  0.0966 -0.0006 -0.1822
  184SLPC  H17R21090   0.453   5.940   4.509  0.1755  0.7542  1.6182
  184SLPC  H17S21091   0.274   5.949   4.467  0.6000 -2.0261  3.1672
  184SLPC  C21821092   0.368   6.125   4.584 -0.1251  0.4717 -0.1944
  184SLPC  H18R21093   0.467   6.174   4.586 -0.0447  0.3355 -0.6196
  184SLPC  H18S21094   0.346   6.096   4.689  2.9865  3.4580  1.4729
  184SLPC  H18T21095   0.297   6.208   4.561 -0.1564  0.4074 -0.3340
  184SLPC   C3321096   0.295   5.532   3.175 -0.1984  0.7664  0.6861
  184SLPC   H3X21097   0.293   5.640   3.201 -2.1594  1.3208 -1.4484
  184SLPC   H3Y21098   0.377   5.477   3.226  2.2913  2.3798 -1.3081
  184SLPC   C3421099   0.168   5.461   3.219 -0.1048 -0.1151  0.6472
  184SLPC   H4X21100   0.183   5.354   3.195 -0.8108  0.0184 -0.4788
  184SLPC   H4Y21101   0.081   5.502   3.162 -0.0586 -1.7254 -0.6403
  184SLPC   C3521102   0.141   5.478   3.369  0.0826  0.0889 -0.3027
  184SLPC   H5X21103   0.045   5.431   3.402 -0.5118  2.9034  2.4015
  184SLPC   H5Y21104   0.106   5.581   3.390  0.9127  0.0800  1.2204
  184SLPC   C3621105   0.237   5.414   3.466 -0.2535 -0.9602  0.1796
  184SLPC   H6X21106   0.322   5.484   3.484  1.3909 -2.7235 -0.4102
  184SLPC   H6Y21107   0.292   5.330   3.418  1.5387 -0.1160  0.6768
  184SLPC   C3721108   0.158   5.366   3.591 -0.2981 -0.4828  0.6766
  184SLPC   H7X21109   0.233   5.337   3.669 -0.8604 -1.5149  0.8368
  184SLPC   H7Y21110   0.101   5.274   3.570  0.9303 -0.8163 -1.4718
  184SLPC   C3821111   0.075   5.473   3.663 -0.5589 -0.2801 -0.2415
  184SLPC   H8X21112  -0.014   5.489   3.599 -0.0744 -0.9886 -1.1005
  184SLPC   H8Y21113   0.131   5.568   3.677 -2.1025  0.9771 -1.9478
  184SLPC   C3921114   0.035   5.426   3.800  0.7330  0.3107 -1.2428
  184SLPC   H9X21115   0.124   5.408   3.865 -1.2582 -1.3041  1.2269
  184SLPC   H9Y21116  -0.019   5.329   3.796  1.5534 -0.3650  1.4813
  184SLPC  C31021117  -0.059   5.531   3.860  0.2809 -0.1715 -0.1343
  184SLPC  H10X21118  -0.130   5.564   3.782 -1.0090 -1.9546  0.2113
  184SLPC  H10Y21119   0.001   5.617   3.898  1.5893 -0.6853 -0.9683
  184SLPC  C31121120  -0.137   5.468   3.973  0.4395 -0.2409  0.5811
  184SLPC  H11X21121  -0.175   5.544   4.045 -0.4951 -1.1859  1.1276
  184SLPC  H11Y21122  -0.075   5.395   4.029  1.1295  0.6776  1.0369
  184SLPC  C31221123  -0.260   5.399   3.917 -0.0846  0.1661 -0.4222
  184SLPC  H12X21124  -0.226   5.324   3.843  1.8859  1.0143 -0.4597
  184SLPC  H12Y21125  -0.319   5.479   3.867 -0.5166 -0.1426 -0.4057
  184SLPC  C31321126  -0.351   5.352   4.032  0.4173  0.1012 -0.1581
  184SLPC  H13X21127  -0.435   5.289   3.993 -0.2614  0.4525  0.7038
  184SLPC  H13Y21128  -0.403   5.440   4.075 -2.3669 -1.4780 -0.0614
  184SLPC  C31421129  -0.291   5.261   4.145 -0.1216 -0.4125  0.0936
  184SLPC  H14X21130  -0.195   5.299   4.185  0.0423  0.1462 -0.8104
  184SLPC  H14Y21131  -0.262   5.160   4.110  1.4092 -0.5330  1.5459
  184SLPC  C31521132  -0.398   5.242   4.257  0.6372 -0.1401 -0.7520
  184SLPC  H15X21133  -0.495   5.221   4.207  1.6892 -1.6344 -2.2654
  184SLPC  H15Y21134  -0.412   5.344   4.299 -0.2628 -1.3034  1.9805
  184SLPC  C31621135  -0.359   5.140   4.365  0.2675 -0.0210 -0.3169
  184SLPC  H16X21136  -0.284   5.180   4.436  0.5894 -0.0738 -0.6275
  184SLPC  H16Y21137  -0.321   5.056   4.304 -1.1674  0.9058 -2.6364
  184SLPC  C31721138  -0.481   5.100   4.439 -1.0041 -0.5492 -0.2629
  184SLPC  H17X21139  -0.546   5.048   4.365 -1.9199 -1.7194  1.3041
  184SLPC  H17Y21140  -0.542   5.185   4.474 -0.4781  0.3020 -1.3199
  184SLPC  C31821141  -0.446   4.987   4.543  0.2797  0.3259 -0.5184
  184SLPC  H18X21142  -0.538   4.934   4.575  0.1193 -0.1380 -1.6734
  184SLPC  H18Y21143  -0.383   5.018   4.629  1.1119 -0.9662 -0.6280
  184SLPC  H18Z21144  -0.393   4.904   4.492 -1.9137 -1.3236 -0.2746
  185POPC     N21145   1.514   1.514   7.387 -0.5264  0.4933  0.0096
  185POPC   C1221146   1.515   1.454   7.251  0.6443  0.5044  0.7945
  185POPC  H12A21147   1.415   1.424   7.222  1.1233 -0.8842  0.5133
  185POPC  H12B21148   1.572   1.362   7.254  1.1290  0.8198  1.4518
  185POPC   C1321149   1.469   1.403   7.475  0.7582 -0.0139 -0.0982
  185POPC  H13A21150   1.488   1.442   7.575 -0.1433 -1.3496  0.6200
  185POPC  H13B21151   1.367   1.374   7.455  0.0000  0.0543  3.0714
  185POPC  H13C21152   1.536   1.320   7.461  2.8959  1.1612  2.2622
  185POPC   C1421153   1.653   1.562   7.415 -0.6514  0.3589 -1.1226
  185POPC  H14A21154   1.718   1.476   7.414 -0.6342 -0.1882  5.2391
  185POPC  H14B21155   1.686   1.627   7.336  0.0382 -1.3844 -2.3264
  185POPC  H14C21156   1.649   1.600   7.516 -2.1308 -2.1495 -0.1418
  185POPC   C1521157   1.430   1.629   7.412  0.6780 -0.2220 -0.3116
  185POPC  H15A21158   1.449   1.690   7.499  0.7854  0.0195 -0.5055
  185POPC  H15B21159   1.326   1.600   7.413 -0.2471  2.1072 -4.7248
  185POPC  H15C21160   1.432   1.693   7.326 -0.7056 -2.2169 -1.9512
  185POPC   C1121161   1.565   1.542   7.133 -0.0337 -0.3320 -0.2567
  185POPC  H11A21162   1.516   1.641   7.151  2.7243  1.3030 -1.0700
  185POPC  H11B21163   1.527   1.501   7.037 -1.1892 -2.6638  1.1168
  185POPC     P21164   1.793   1.429   7.085  0.1952  0.1231  0.1296
  185POPC   O1321165   1.753   1.297   7.149 -0.2005 -0.0698 -0.4069
  185POPC   O1421166   1.929   1.474   7.104 -0.3480 -0.8895  0.2699
  185POPC   O1221167   1.707   1.556   7.136  0.1617  0.3579  0.1630
  185POPC   O1121168   1.758   1.423   6.932  0.3303 -0.0777  0.0507
  185POPC    C121169   1.774   1.536   6.848  0.1185  0.3296  1.1018
  185POPC    HA21170   1.818   1.624   6.900  1.5692  0.7670 -0.7777
  185POPC    HB21171   1.673   1.551   6.804 -0.2485 -1.3888  1.2919
  185POPC    C221172   1.877   1.515   6.735  0.0799 -0.5907  0.3626
  185POPC    HS21173   1.890   1.609   6.677  2.8848 -1.0723  0.0574
  185POPC   O2121174   1.835   1.408   6.646  0.3423 -0.3635  0.2966
  185POPC   C2121175   1.742   1.447   6.564  0.6330  0.6388 -0.5140
  185POPC   O2221176   1.715   1.564   6.547  0.3952 -0.0331  0.4586
  185POPC   C2221177   1.697   1.331   6.487  0.3903  0.3636 -0.8318
  185POPC   H2R21178   1.650   1.257   6.555  3.0433 -0.3175  0.3615
  185POPC   H2S21179   1.774   1.265   6.442  0.7270 -0.0559  0.3321
  185POPC    C321180   2.010   1.486   6.798 -0.4190 -0.2601 -0.2277
  185POPC    HX21181   1.997   1.383   6.839 -0.1782 -0.0736  0.3257
  185POPC    HY21182   2.024   1.560   6.880 -1.2700 -0.2116 -0.1083
  185POPC   O3121183   2.120   1.486   6.699 -0.0451  0.2831 -0.4821
  185POPC   C3121184   2.164   1.610   6.675 -0.1894  0.3136 -0.5446
  185POPC   O3221185   2.113   1.718   6.704  0.6275  0.7293 -0.1672
  185POPC   C3221186   2.290   1.604   6.584 -0.1484  0.3719 -1.1399
  185POPC   H2X21187   2.327   1.499   6.582  0.4863  0.5899 -1.0740
  185POPC   H2Y21188   2.369   1.660   6.639 -2.0280  1.0875  0.9843
  185POPC   C2321189   1.598   1.360   6.373  0.4118 -0.0409 -0.0043
  185POPC   H3R21190   1.504   1.405   6.409 -0.8975 -1.3620 -1.5746
  185POPC   H3S21191   1.566   1.258   6.343  1.6645  0.4301 -3.4327
  185POPC   C2421192   1.665   1.440   6.265  0.1897  0.7709 -0.1323
  185POPC   H4R21193   1.766   1.395   6.252 -1.1827 -2.9490  0.7228
  185POPC   H4S21194   1.670   1.548   6.293  1.2737  1.0507 -1.3338
  185POPC   C2521195   1.596   1.434   6.128 -0.2225 -0.1091 -0.7971
  185POPC   H5R21196   1.486   1.440   6.144 -0.0748 -0.2817  0.3923
  185POPC   H5S21197   1.614   1.329   6.097 -2.6495 -0.5083 -1.0588
  185POPC   C2621198   1.662   1.529   6.028 -0.6559  0.2496  0.4289
  185POPC   H6R21199   1.769   1.552   6.046 -0.5387 -0.7169  1.0107
  185POPC   H6S21200   1.623   1.628   6.061  0.4801  0.6321  0.7000
  185POPC   C2721201   1.632   1.503   5.879  0.2638  0.0975  0.1497
  185POPC   H7R21202   1.633   1.604   5.833  1.5350 -0.4247 -1.0555
  185POPC   H7S21203   1.524   1.477   5.869  0.6039 -1.7749  0.8288
  185POPC   C2821204   1.722   1.400   5.796 -0.1754  0.4573  0.1898
  185POPC   H8R21205   1.674   1.370   5.700  0.3920 -1.3918  0.4256
  185POPC   H8S21206   1.728   1.302   5.848 -1.8179 -1.4212 -2.8639
  185POPC   C2921207   1.863   1.454   5.777 -0.1859  0.3694  0.0248
  185POPC   H9121208   1.928   1.461   5.865  0.2445  1.6116 -0.3666
  185POPC  C21021209   1.927   1.478   5.661  0.1362  0.2685 -1.2135
  185POPC  H10121210   2.034   1.499   5.673  0.2004 -1.1239  1.2343
  185POPC  C21121211   1.881   1.466   5.517 -0.5981  0.1346 -0.6234
  185POPC  H11R21212   1.773   1.489   5.517 -0.7122 -0.0692  1.8894
  185POPC  H11S21213   1.900   1.364   5.477 -0.4495  0.1302 -0.5447
  185POPC  C21221214   1.953   1.574   5.432 -0.2535 -0.1305  0.0050
  185POPC  H12R21215   2.064   1.565   5.427 -0.2457  0.6806 -2.9974
  185POPC  H12S21216   1.932   1.675   5.472 -2.1863 -0.5341  0.1156
  185POPC  C21321217   1.910   1.571   5.287 -0.3206 -0.2190 -0.3634
  185POPC  H13R21218   1.799   1.572   5.292 -0.2942  0.3391  0.2009
  185POPC  H13S21219   1.946   1.479   5.238 -0.3466 -0.5100  0.1590
  185POPC  C21421220   1.960   1.707   5.218  0.6111  0.2695  0.2058
  185POPC  H14R21221   1.939   1.791   5.288 -0.7293 -0.8263  1.1681
  185POPC  H14S21222   1.900   1.717   5.125  0.5505 -2.4549 -0.1425
  185POPC  C21521223   2.112   1.698   5.167 -0.1734 -0.6914 -0.1617
  185POPC  H15R21224   2.157   1.597   5.180  0.8882 -0.6850 -2.9597
  185POPC  H15S21225   2.175   1.762   5.231  1.2471 -0.1975 -1.9677
  185POPC  C21621226   2.133   1.719   5.013  0.1681  0.4701 -0.7415
  185POPC  H16R21227   2.058   1.651   4.967  0.7549 -0.0940 -0.8727
  185POPC  H16S21228   2.233   1.683   4.981  0.0060  0.0245 -0.7454
  185POPC  C21721229   2.126   1.864   4.973 -0.0034  0.2355  0.3434
  185POPC  H17R21230   2.216   1.917   5.011  1.0215  0.8473 -2.6291
  185POPC  H17S21231   2.038   1.924   5.007 -1.2581  0.5120 -2.9482
  185POPC  C21821232   2.130   1.878   4.820  0.0140 -0.3548 -0.4183
  185POPC  H18R21233   2.233   1.849   4.789  0.1918  1.7418 -2.0509
  185POPC  H18S21234   2.119   1.983   4.785 -2.1816 -0.3260  0.2002
  185POPC  H18T21235   2.049   1.824   4.766 -1.3205  1.7221 -0.6227
  185POPC   C3321236   2.252   1.666   6.451 -0.0173  0.0040 -0.4813
  185POPC   H3X21237   2.347   1.667   6.393  1.3275  0.1467  1.5922
  185POPC   H3Y21238   2.216   1.769   6.471  2.6016  0.8943  0.0817
  185POPC   C3421239   2.149   1.582   6.371  0.3414 -0.7191 -0.8383
  185POPC   H4X21240   2.064   1.561   6.439  0.7819 -0.1017 -0.0831
  185POPC   H4Y21241   2.197   1.485   6.342  1.7473  0.2616 -1.9758
  185POPC   C3521242   2.080   1.653   6.252  0.2355 -0.4332 -0.1210
  185POPC   H5X21243   2.046   1.755   6.281 -2.9750 -1.9209  1.9980
  185POPC   H5Y21244   1.983   1.601   6.235 -1.6322  1.8234  2.5972
  185POPC   C3621245   2.157   1.658   6.124  0.0024  0.3286  0.3044
  185POPC   H6X21246   2.183   1.551   6.110 -1.0377 -0.1671  1.9179
  185POPC   H6Y21247   2.247   1.721   6.143  0.1914 -0.1455  1.0023
  185POPC   C3721248   2.076   1.707   6.000 -0.0526  0.0628 -0.4064
  185POPC   H7X21249   2.023   1.801   6.028  0.1855 -0.2246  1.0882
  185POPC   H7Y21250   1.998   1.633   5.973 -2.8231  1.9923  1.6903
  185POPC   C3821251   2.154   1.737   5.877 -0.4881 -0.3104 -0.6910
  185POPC   H8X21252   2.074   1.732   5.801 -1.3456  0.0876  0.1722
  185POPC   H8Y21253   2.232   1.660   5.856 -0.0598 -0.1707  0.3541
  185POPC   C3921254   2.231   1.876   5.882 -0.2812 -0.3498  0.1345
  185POPC   H9X21255   2.326   1.863   5.939 -0.3749  2.6563  1.1597
  185POPC   H9Y21256   2.175   1.949   5.943 -0.2250 -2.3581  2.7509
  185POPC  C31021257   2.268   1.909   5.737 -1.1396 -0.3550  0.9548
  185POPC  H10X21258   2.214   1.998   5.697 -0.2087 -1.4214 -3.1472
  185POPC  H10Y21259   2.240   1.834   5.660 -0.0000  0.6353 -0.4816
  185POPC  C31121260   2.414   1.943   5.732 -0.0298 -0.0551 -0.0906
  185POPC  H11X21261   2.481   1.857   5.751 -0.0747  0.1235  0.9893
  185POPC  H11Y21262   2.434   2.031   5.797 -1.6025  2.1106 -2.3758
  185POPC  C31221263   2.444   1.988   5.583 -0.5799 -0.2598 -0.5016
  185POPC  H12X21264   2.374   2.070   5.557  0.3321  0.5011 -0.5992
  185POPC  H12Y21265   2.440   1.898   5.517  0.7252 -0.8722  0.2098
  185POPC  C31321266   2.590   2.046   5.570  0.1220  0.3926 -0.0933
  185POPC  H13X21267   2.665   1.970   5.599  1.0966  0.3408 -2.4929
  185POPC  H13Y21268   2.602   2.136   5.634  1.1089 -0.7816  1.4323
  185POPC  C31421269   2.636   2.108   5.435 -0.2616 -0.4481  0.1370
  185POPC  H14X21270   2.572   2.192   5.401 -1.0035 -0.5190  1.3010
  185POPC  H14Y21271   2.629   2.026   5.361 -1.7703  0.6834 -1.0243
  185POPC  C31521272   2.790   2.152   5.414  0.2503 -0.6600  0.7513
  185POPC  H15X21273   2.812   2.223   5.496  2.4367  0.1327 -0.4357
  185POPC  H15Y21274   2.803   2.203   5.316  1.0623 -0.7450  0.8037
  185POPC  C31621275   2.898   2.043   5.416 -0.1441 -0.8916  0.1248
  185POPC  H16X21276   2.902   2.005   5.520 -0.6640  0.5939  0.7168
  185POPC  H16Y21277   2.996   2.092   5.397 -0.1304 -0.6638  0.7557
  185POPC  H16Z21278   2.891   1.958   5.345  2.8652 -0.6383 -0.6062
  186POPC     N21279   3.791   2.809   6.759 -1.0625  0.5756 -0.5472
  186POPC   C1221280   3.763   2.916   6.652  0.1981  0.2737 -0.6674
  186POPC  H12A21281   3.666   2.894   6.609  0.3621 -2.5944  0.2093
  186POPC  H12B21282   3.833   2.891   6.575  0.5872  0.0275 -0.2397
  186POPC   C1321283   3.926   2.826   6.821 -0.6196 -0.0401  0.2653
  186POPC  H13A21284   4.006   2.835   6.749  0.1377  0.2881  1.1212
  186POPC  H13B21285   3.916   2.909   6.890  0.1192 -0.9214  1.4650
  186POPC  H13C21286   3.957   2.740   6.878  1.0004 -0.9530 -1.8571
  186POPC   C1421287   3.699   2.823   6.874 -0.5781  0.1309  0.3180
  186POPC  H14A21288   3.719   2.916   6.925 -0.0227  0.3756 -0.3354
  186POPC  H14B21289   3.595   2.815   6.847 -1.3879 -0.0575  3.1850
  186POPC  H14C21290   3.717   2.748   6.950 -1.1830  0.1119  0.4432
  186POPC   C1521291   3.782   2.668   6.703 -1.2158  0.1962  0.2432
  186POPC  H15A21292   3.838   2.663   6.611 -0.8422  0.5238  0.4490
  186POPC  H15B21293   3.678   2.639   6.692 -0.3950 -4.1869  1.8518
  186POPC  H15C21294   3.829   2.600   6.773 -0.2654  0.5635 -0.0235
  186POPC   C1121295   3.758   3.065   6.691 -0.1219 -0.3875 -0.0271
  186POPC  H11A21296   3.667   3.083   6.753 -0.7118 -0.3408 -0.8921
  186POPC  H11B21297   3.741   3.134   6.606  0.0563 -1.2598 -0.7864
  186POPC     P21298   4.001   3.175   6.684 -0.0830  0.2426 -0.4885
  186POPC   O1321299   4.126   3.110   6.732 -0.0281  0.0952  0.0748
  186POPC   O1421300   3.998   3.319   6.708  0.2937 -0.0622  0.0714
  186POPC   O1221301   3.882   3.102   6.755  0.1020  0.0021 -0.0092
  186POPC   O1121302   3.967   3.147   6.536 -0.0146  0.0265 -0.3606
  186POPC    C121303   4.043   3.070   6.442  0.2204  0.0977 -0.1618
  186POPC    HA21304   3.977   3.030   6.362  0.2260 -0.0719 -0.0811
  186POPC    HB21305   4.083   2.977   6.489  3.7616  1.0526 -0.9397
  186POPC    C221306   4.155   3.149   6.379 -0.8308 -0.4062  0.0739
  186POPC    HS21307   4.218   3.195   6.459 -1.8894  1.1773  0.0499
  186POPC   O2121308   4.092   3.242   6.288 -0.3176  0.4714  0.3919
  186POPC   C2121309   4.144   3.363   6.278  0.6885  0.0458  0.6644
  186POPC   O2221310   4.233   3.407   6.348  0.0985  0.1037 -0.2573
  186POPC   C2221311   4.075   3.439   6.158 -0.2523 -0.3375  0.5363
  186POPC   H2R21312   4.021   3.531   6.191  0.4425 -0.8200  3.3623
  186POPC   H2S21313   3.990   3.377   6.124 -1.6690  1.9458 -0.3362
  186POPC    C321314   4.257   3.057   6.302 -0.4020 -0.1376 -0.1516
  186POPC    HX21315   4.193   2.998   6.232 -1.2669  0.2748  0.2782
  186POPC    HY21316   4.319   2.989   6.364 -0.1116  0.8174  0.6330
  186POPC   O3121317   4.340   3.140   6.212  0.2169 -0.5499 -0.4631
  186POPC   C3121318   4.449   3.192   6.270 -0.8264  0.4351  0.1005
  186POPC   O3221319   4.500   3.148   6.374  0.6110 -1.0645  0.0361
  186POPC   C3221320   4.530   3.288   6.166  0.6764  0.0514 -0.0306
  186POPC   H2X21321   4.482   3.280   6.067  0.3261 -0.2812  0.1621
  186POPC   H2Y21322   4.627   3.237   6.151 -0.1274 -1.8254  0.7912
  186POPC   C2321323   4.163   3.459   6.038 -0.1365  0.0981  0.4709
  186POPC   H3R21324   4.264   3.483   6.079 -0.8995  2.1119  1.3026
  186POPC   H3S21325   4.130   3.552   5.987  0.3358 -0.3998 -0.7927
  186POPC   C2421326   4.172   3.329   5.952  0.0909 -0.1973  0.1114
  186POPC   H4R21327   4.069   3.298   5.924 -0.5481  2.1866 -0.4273
  186POPC   H4S21328   4.208   3.253   6.024 -0.7444  0.0099  0.7532
  186POPC   C2521329   4.263   3.332   5.830 -0.8516 -0.0667  0.8385
  186POPC   H5R21330   4.249   3.243   5.765 -1.5959  1.4489 -1.1968
  186POPC   H5S21331   4.371   3.336   5.858 -0.1992 -1.9500 -1.1056
  186POPC   C2621332   4.225   3.443   5.730 -0.4951 -0.1717 -0.4232
  186POPC   H6R21333   4.261   3.540   5.772  0.7606 -1.8205  2.6134
  186POPC   H6S21334   4.114   3.453   5.719 -0.4749  0.3912 -0.1630
  186POPC   C2721335   4.278   3.436   5.588 -1.1626 -0.0810 -0.4403
  186POPC   H7R21336   4.216   3.367   5.526 -0.1398 -0.7600 -0.7153
  186POPC   H7S21337   4.375   3.385   5.605 -1.3770 -1.3845 -2.6522
  186POPC   C2821338   4.282   3.576   5.523 -0.3228 -0.2918  0.0535
  186POPC   H8R21339   4.330   3.559   5.424 -0.2822  0.8771 -0.1329
  186POPC   H8S21340   4.355   3.646   5.568 -0.0078  1.0604 -2.3775
  186POPC   C2921341   4.143   3.634   5.489  0.7896 -0.5498 -0.1051
  186POPC   H9121342   4.086   3.679   5.572  1.4940  1.3639 -0.6162
  186POPC  C21021343   4.086   3.640   5.360 -0.8020 -0.2225 -0.6358
  186POPC  H10121344   3.984   3.677   5.345 -0.6110 -0.0375 -1.5705
  186POPC  C21121345   4.137   3.587   5.226 -0.1415 -0.3995 -0.1248
  186POPC  H11R21346   4.047   3.573   5.163 -1.0800  0.9667  0.8508
  186POPC  H11S21347   4.179   3.485   5.232 -1.3676 -0.8435  1.8785
  186POPC  C21221348   4.240   3.675   5.155 -0.5031  0.7274  0.1035
  186POPC  H12R21349   4.335   3.662   5.212  0.0105 -2.3131 -1.2304
  186POPC  H12S21350   4.198   3.777   5.155  1.3115  1.5136 -0.2193
  186POPC  C21321351   4.250   3.633   5.005  0.8711  0.8798  0.2572
  186POPC  H13R21352   4.162   3.587   4.957  1.6270  0.0513 -0.3709
  186POPC  H13S21353   4.331   3.556   5.005 -0.7675 -0.9098  0.2927
  186POPC  C21421354   4.301   3.752   4.917  0.2920  0.8042 -0.2938
  186POPC  H14R21355   4.356   3.707   4.831  1.7133  0.0375  0.9553
  186POPC  H14S21356   4.373   3.809   4.980  0.0510  0.3264  0.4227
  186POPC  C21521357   4.193   3.855   4.883  0.6608  0.0635  0.3466
  186POPC  H15R21358   4.178   3.928   4.965 -1.2719 -0.8743  0.9094
  186POPC  H15S21359   4.088   3.817   4.892  1.3567 -1.4962  2.9504
  186POPC  C21621360   4.221   3.925   4.751 -0.0513  0.6257  0.1444
  186POPC  H16R21361   4.250   3.844   4.680  1.3103 -0.8274  2.2412
  186POPC  H16S21362   4.303   3.999   4.755  1.9201 -1.3544 -0.8848
  186POPC  C21721363   4.092   4.002   4.698  0.3341  0.2164  0.7024
  186POPC  H17R21364   4.074   4.086   4.768  0.7331  1.5351 -0.7232
  186POPC  H17S21365   3.998   3.942   4.700  0.6126 -0.3086 -0.8230
  186POPC  C21821366   4.133   4.050   4.554 -0.1298  0.2166  0.1908
  186POPC  H18R21367   4.198   4.139   4.553 -1.3071  1.1007 -0.5880
  186POPC  H18S21368   4.037   4.072   4.503  0.5239 -0.4444 -1.4090
  186POPC  H18T21369   4.181   3.969   4.495 -0.7711  0.1209 -0.2095
  186POPC   C3321370   4.545   3.434   6.214  0.5121 -0.3477 -0.7295
  186POPC   H3X21371   4.607   3.436   6.306  1.4418  1.0493 -1.3544
  186POPC   H3Y21372   4.443   3.472   6.236 -0.2992 -1.9513 -1.5457
  186POPC   C3421373   4.631   3.523   6.118  0.8256  0.0165 -0.4387
  186POPC   H4X21374   4.734   3.483   6.110  1.7815  2.0005  0.8852
  186POPC   H4Y21375   4.640   3.626   6.159  1.9603  0.2715 -1.2518
  186POPC   C3521376   4.578   3.535   5.972  0.1508 -0.0359 -0.4197
  186POPC   H5X21377   4.491   3.603   5.974 -0.2387 -0.5406 -0.1015
  186POPC   H5Y21378   4.541   3.434   5.944 -0.5392  0.2346 -0.4995
  186POPC   C3621379   4.695   3.559   5.876  0.7697  0.3872  0.3707
  186POPC   H6X21380   4.748   3.466   5.849  1.4704  1.0813 -0.7107
  186POPC   H6Y21381   4.770   3.635   5.905  3.3239 -0.7859 -2.6309
  186POPC   C3721382   4.634   3.614   5.742  0.4020  0.3752  0.2412
  186POPC   H7X21383   4.575   3.706   5.761 -1.2674 -0.1219 -2.1321
  186POPC   H7Y21384   4.562   3.535   5.711 -0.1682  0.3385  1.5848
  186POPC   C3821385   4.747   3.623   5.637  0.1604  0.0199 -0.5942
  186POPC   H8X21386   4.800   3.526   5.651 -0.8783 -0.1699  3.1533
  186POPC   H8Y21387   4.809   3.710   5.666 -3.0887  2.8114 -1.4485
  186POPC   C3921388   4.687   3.641   5.495 -0.3425  0.7491  0.0339
  186POPC   H9X21389   4.587   3.593   5.493 -0.1373  0.1349  1.8960
  186POPC   H9Y21390   4.757   3.591   5.424 -0.0625 -0.4686  1.1178
  186POPC  C31021391   4.668   3.791   5.452  0.1772  0.1902  0.6535
  186POPC  H10X21392   4.768   3.840   5.443 -0.4042  1.2609 -0.1123
  186POPC  H10Y21393   4.618   3.823   5.546  0.0297 -0.5504  0.8362
  186POPC  C31121394   4.574   3.817   5.331  0.3650  0.2832  0.0366
  186POPC  H11X21395   4.572   3.927   5.317 -1.0035  0.2443 -0.2247
  186POPC  H11Y21396   4.473   3.787   5.366 -0.5559  2.0653 -0.9685
  186POPC  C31221397   4.612   3.749   5.201  0.4879 -0.0890 -1.4118
  186POPC  H12X21398   4.521   3.755   5.137 -0.0187 -2.1827 -0.9684
  186POPC  H12Y21399   4.624   3.639   5.211 -0.5078 -0.1191 -0.4400
  186POPC  C31321400   4.736   3.809   5.129  0.2487 -0.5887 -0.0238
  186POPC  H13X21401   4.821   3.777   5.193 -0.1767 -0.4784  0.6095
  186POPC  H13Y21402   4.736   3.920   5.117  0.9403 -0.8340 -3.2205
  186POPC  C31421403   4.758   3.742   4.990  0.3867  0.2390  0.1942
  186POPC  H14X21404   4.669   3.764   4.926 -0.2979 -2.0424  0.2730
  186POPC  H14Y21405   4.749   3.633   5.006 -0.0891  0.0129 -1.4306
  186POPC  C31521406   4.883   3.788   4.909 -0.1211  0.6221  0.1623
  186POPC  H15X21407   4.970   3.766   4.974 -0.8097 -2.2142  0.2392
  186POPC  H15Y21408   4.868   3.897   4.896  2.8758  1.0943 -0.1094
  186POPC  C31621409   4.908   3.721   4.770 -0.7392 -0.3170  0.0028
  186POPC  H16X21410   4.992   3.773   4.720  0.3815 -0.4558  1.6452
  186POPC  H16Y21411   4.821   3.720   4.701 -0.2875 -1.7912 -0.5781
  186POPC  H16Z21412   4.939   3.615   4.784  2.5757  0.6445  0.9608
  187POPC     N21413   6.897   1.542   2.031 -0.7580  0.7836  0.0044
  187POPC   C1221414   6.841   1.595   2.156 -0.7319  0.0194 -0.1195
  187POPC  H12A21415   6.750   1.649   2.135 -0.7622 -0.8313 -2.4449
  187POPC  H12B21416   6.906   1.675   2.188 -1.3334 -0.1776  1.7073
  187POPC   C1321417   6.951   1.648   1.946 -0.1174 -0.0132 -0.0478
  187POPC  H13A21418   6.982   1.616   1.848  0.5090  0.1603  0.0945
  187POPC  H13B21419   6.871   1.719   1.927 -0.8559 -0.2163  2.0131
  187POPC  H13C21420   7.025   1.716   1.986  0.2477  0.4857 -1.5040
  187POPC   C1421421   7.022   1.456   2.053 -0.3927  0.0817 -0.1503
  187POPC  H14A21422   7.091   1.515   2.111 -0.4433 -0.2806  0.2909
  187POPC  H14B21423   6.989   1.369   2.108  1.1094 -0.5629 -0.2298
  187POPC  H14C21424   7.069   1.429   1.960 -0.2642  1.4579 -0.5010
  187POPC   C1521425   6.800   1.463   1.955  0.0888 -0.1604 -0.4281
  187POPC  H15A21426   6.784   1.375   2.016  0.9597  1.4422  2.2649
  187POPC  H15B21427   6.838   1.437   1.858  0.1618 -0.6498 -0.2714
  187POPC  H15C21428   6.701   1.503   1.939  0.5585  0.6094 -1.5321
  187POPC   C1121429   6.802   1.492   2.263 -0.2550 -0.0315 -0.8358
  187POPC  H11A21430   6.795   1.542   2.362  2.8539  0.6167 -0.8502
  187POPC  H11B21431   6.879   1.415   2.279 -0.1983  0.1273 -0.3165
  187POPC     P21432   6.655   1.283   2.262 -0.6129 -0.0628  0.1763
  187POPC   O1321433   6.695   1.209   2.141 -0.2761  0.6150 -0.2190
  187POPC   O1421434   6.521   1.267   2.311 -0.3489  0.8701  0.6446
  187POPC   O1221435   6.672   1.440   2.233  0.2175 -0.3465  0.7310
  187POPC   O1121436   6.755   1.249   2.378  0.8255 -0.2795 -0.2136
  187POPC    C121437   6.704   1.247   2.509 -0.5114 -0.6798  1.4303
  187POPC    HA21438   6.622   1.172   2.510  0.0201 -1.4688 -1.8355
  187POPC    HB21439   6.677   1.351   2.537  1.0372  0.5085 -1.1056
  187POPC    C221440   6.810   1.191   2.608  0.3452  0.1753  0.4909
  187POPC    HS21441   6.901   1.254   2.613  0.0036  0.5637  2.3252
  187POPC   O2121442   6.847   1.055   2.570  0.2408 -0.2025 -0.1912
  187POPC   C2121443   6.958   1.009   2.621 -0.2241  0.3452 -0.0121
  187POPC   O2221444   7.038   1.075   2.684  0.8764 -0.4125 -0.7062
  187POPC   C2221445   6.944   0.856   2.610 -0.4644  0.1484  0.2653
  187POPC   H2R21446   6.919   0.839   2.503  1.5075  1.3730 -0.4549
  187POPC   H2S21447   6.860   0.836   2.680  1.8471 -0.1544  3.1739
  187POPC    C321448   6.736   1.177   2.750  0.4312  0.2187  0.8732
  187POPC    HX21449   6.649   1.112   2.729  1.4195 -1.0966  0.7574
  187POPC    HY21450   6.692   1.276   2.776 -0.5305 -0.0071  0.1335
  187POPC   O3121451   6.813   1.119   2.859 -0.3116  0.3674 -0.3119
  187POPC   C3121452   6.902   1.193   2.907 -0.0033  0.3441  0.7858
  187POPC   O3221453   6.899   1.316   2.895  0.3876  0.2100  1.0040
  187POPC   C3221454   7.011   1.122   2.978  0.6487  0.8050  0.7590
  187POPC   H2X21455   7.110   1.157   2.941  0.3578  1.5567  0.6887
  187POPC   H2Y21456   7.000   1.014   2.953  0.4100  0.9423  0.2463
  187POPC   C2321457   7.076   0.779   2.646 -0.9567 -0.2433 -0.6253
  187POPC   H3R21458   7.177   0.811   2.611 -0.1013 -2.8327 -0.7121
  187POPC   H3S21459   7.068   0.681   2.596  1.2691 -0.9609  0.2719
  187POPC   C2421460   7.094   0.750   2.794 -0.2079  0.5267 -0.2237
  187POPC   H4R21461   7.015   0.674   2.813 -0.0825  0.5914  0.6162
  187POPC   H4S21462   7.067   0.844   2.848  0.8327 -0.7213  2.6369
  187POPC   C2521463   7.222   0.695   2.847  0.2333  0.1117  0.4480
  187POPC   H5R21464   7.306   0.752   2.802 -1.4162  0.9765 -1.7283
  187POPC   H5S21465   7.228   0.590   2.813  1.1756  0.8181 -1.7531
  187POPC   C2621466   7.236   0.713   2.993  0.1386 -0.2235 -0.4407
  187POPC   H6R21467   7.214   0.820   3.010 -2.1798 -0.5704 -0.9700
  187POPC   H6S21468   7.339   0.698   3.033  0.0672 -0.5667 -0.3794
  187POPC   C2721469   7.141   0.625   3.079 -0.3981 -0.7074 -0.5393
  187POPC   H7R21470   7.167   0.523   3.044 -0.0287 -0.5229 -0.8091
  187POPC   H7S21471   7.037   0.651   3.049  0.1196 -0.7296 -2.5344
  187POPC   C2821472   7.166   0.642   3.230  0.2607  0.3548  1.0415
  187POPC   H8R21473   7.272   0.614   3.244 -0.0585 -1.1764  0.5633
  187POPC   H8S21474   7.122   0.551   3.275  0.9499 -1.3683 -1.5344
  187POPC   C2921475   7.117   0.771   3.293  0.3652  0.2072  0.9982
  187POPC   H9121476   7.073   0.840   3.218  0.4684  2.2448  2.7214
  187POPC  C21021477   7.081   0.778   3.422 -0.0209  0.7127  0.2828
  187POPC  H10121478   7.044   0.873   3.461 -1.9144 -0.3027  1.0953
  187POPC  C21121479   7.108   0.673   3.525  0.0222  0.6334  0.2789
  187POPC  H11R21480   7.180   0.594   3.494  0.9578  1.9303 -1.0166
  187POPC  H11S21481   7.011   0.621   3.541 -1.0828  2.4217 -0.3573
  187POPC  C21221482   7.161   0.730   3.657  0.0013 -0.2637 -0.0713
  187POPC  H12R21483   7.101   0.822   3.673  1.4246  0.7969 -0.6131
  187POPC  H12S21484   7.264   0.768   3.642 -0.5552  0.9437 -1.0624
  187POPC  C21321485   7.145   0.634   3.778 -0.1900  0.0652  0.2852
  187POPC  H13R21486   7.220   0.551   3.782  0.0432  0.2856  3.5843
  187POPC  H13S21487   7.044   0.588   3.772  0.5381 -1.5788 -0.1943
  187POPC  C21421488   7.161   0.701   3.917  0.1576  0.9092  0.3948
  187POPC  H14R21489   7.100   0.794   3.918  0.2261  0.9561  1.1685
  187POPC  H14S21490   7.260   0.746   3.940  0.5702  0.1601  0.1140
  187POPC  C21521491   7.114   0.606   4.033 -0.1717 -0.7909  0.3027
  187POPC  H15R21492   7.175   0.513   4.029 -0.0050 -0.7164  1.0909
  187POPC  H15S21493   7.009   0.573   4.020 -0.4158  0.1176 -0.1444
  187POPC  C21621494   7.123   0.683   4.163 -0.1373  0.8346  0.8291
  187POPC  H16R21495   7.070   0.778   4.143 -0.1309  0.5827 -0.4687
  187POPC  H16S21496   7.224   0.725   4.177 -0.3208  1.3933  0.5206
  187POPC  C21721497   7.037   0.617   4.277 -0.7407  1.2407 -0.3510
  187POPC  H17R21498   7.087   0.635   4.374 -1.4750 -1.9337  0.7356
  187POPC  H17S21499   7.042   0.508   4.252 -0.8530  1.4754 -1.4809
  187POPC  C21821500   6.893   0.672   4.276 -0.1150  0.0711  0.2333
  187POPC  H18R21501   6.833   0.614   4.350  0.9232 -3.0193 -1.1731
  187POPC  H18S21502   6.847   0.673   4.175  1.1882  1.3920 -0.3852
  187POPC  H18T21503   6.891   0.777   4.312 -1.1227 -0.3423  1.4477
  187POPC   C3321504   6.998   1.138   3.129 -0.2269  0.6682 -0.3168
  187POPC   H3X21505   7.078   1.076   3.174  1.9337  1.3632 -2.9776
  187POPC   H3Y21506   6.904   1.086   3.160  0.8428  0.4433  3.0134
  187POPC   C3421507   7.011   1.285   3.187 -0.2029 -0.1045 -0.0037
  187POPC   H4X21508   6.942   1.350   3.130  0.6536 -0.4767 -1.5531
  187POPC   H4Y21509   7.112   1.332   3.182  0.4269 -1.4897 -1.4780
  187POPC   C3521510   6.968   1.280   3.333  0.2178  0.9190 -0.1749
  187POPC   H5X21511   6.861   1.251   3.341  0.1765  0.5597 -1.7727
  187POPC   H5Y21512   6.970   1.387   3.363  0.9003  0.5588  1.1299
  187POPC   C3621513   7.063   1.205   3.432 -0.1829 -0.5364 -0.8189
  187POPC   H6X21514   7.167   1.242   3.425  0.0281 -0.7016  1.0160
  187POPC   H6Y21515   7.063   1.097   3.406 -1.0078 -1.1923  1.6822
  187POPC   C3721516   7.013   1.225   3.580 -0.5852 -0.0985  0.6756
  187POPC   H7X21517   6.919   1.167   3.579  0.9829 -3.0036 -2.7907
  187POPC   H7Y21518   7.003   1.333   3.605 -1.4777 -0.1426  0.5336
  187POPC   C3821519   7.112   1.156   3.678 -0.2853  0.1705  0.4916
  187POPC   H8X21520   7.210   1.208   3.668  0.3665 -0.6941  2.1348
  187POPC   H8Y21521   7.125   1.052   3.641  0.7820  0.2664  0.5729
  187POPC   C3921522   7.068   1.148   3.821  0.5923  0.0428 -0.3338
  187POPC   H9X21523   7.118   1.062   3.870  2.5583  1.3281  0.0344
  187POPC   H9Y21524   6.957   1.136   3.824  0.5571  0.4630  0.4804
  187POPC  C31021525   7.125   1.272   3.904 -0.3942 -0.3921  0.6201
  187POPC  H10X21526   7.081   1.364   3.860 -1.3364 -1.1087  0.0272
  187POPC  H10Y21527   7.234   1.273   3.885 -0.6467  2.6718 -1.2335
  187POPC  C31121528   7.096   1.256   4.052  0.3034  0.1357  0.3089
  187POPC  H11X21529   7.162   1.173   4.083  0.7537  0.0102 -0.9030
  187POPC  H11Y21530   6.993   1.220   4.073  0.9489 -0.5485  2.6006
  187POPC  C31221531   7.131   1.372   4.151  0.0415  0.4915  0.3172
  187POPC  H12X21532   7.149   1.323   4.249  0.1711  0.7123  0.4050
  187POPC  H12Y21533   7.044   1.440   4.168 -1.0352 -1.2500  2.2936
  187POPC  C31321534   7.257   1.456   4.106 -1.1217 -0.1832  0.6353
  187POPC  H13X21535   7.223   1.542   4.044 -0.8995 -0.3824  0.2300
  187POPC  H13Y21536   7.329   1.391   4.053 -0.3875 -0.4361  1.9052
  187POPC  C31421537   7.324   1.520   4.224  0.4048 -0.4318 -0.1417
  187POPC  H14X21538   7.368   1.438   4.285  0.0768 -1.4303 -1.1977
  187POPC  H14Y21539   7.244   1.571   4.281  2.7866  1.0552  2.0729
  187POPC  C31521540   7.433   1.618   4.187 -0.0784 -0.0369 -0.5713
  187POPC  H15X21541   7.469   1.678   4.273 -1.9132  1.4733 -0.7910
  187POPC  H15Y21542   7.384   1.696   4.125 -1.6339  0.1854  0.8711
  187POPC  C31621543   7.562   1.559   4.121  0.2229  0.4057 -0.4502
  187POPC  H16X21544   7.645   1.628   4.093  0.5938 -0.7769 -2.5172
  187POPC  H16Y21545   7.532   1.513   4.024 -0.0337  1.4623 -0.8886
  187POPC  H16Z21546   7.601   1.474   4.180 -0.8869  1.9789  2.7543
  188POPC     N21547   6.920   6.812   2.272  0.1956  0.4206 -0.0501
  188POPC   C1221548   6.910   6.789   2.417  0.1746  0.0623  0.0170
  188POPC  H12A21549   6.845   6.868   2.450  1.2708  0.6807  0.7421
  188POPC  H12B21550   7.007   6.794   2.463  0.1899 -1.3186  0.1740
  188POPC   C1321551   6.967   6.947   2.234  0.0516  0.3960  0.4752
  188POPC  H13A21552   6.953   6.968   2.129 -3.1967  0.1373  0.7415
  188POPC  H13B21553   6.898   7.019   2.276 -0.3712 -0.3566  1.0902
  188POPC  H13C21554   7.069   6.971   2.259  0.5013 -0.6870 -0.2563
  188POPC   C1421555   7.013   6.716   2.211 -0.1781  0.5404  0.7445
  188POPC  H14A21556   6.992   6.617   2.251  0.3724  0.2382  0.2890
  188POPC  H14B21557   7.016   6.698   2.104  1.6088 -2.9873  1.2294
  188POPC  H14C21558   7.114   6.735   2.243 -0.2484 -0.0605  1.3631
  188POPC   C1521559   6.792   6.806   2.200 -0.2327  0.0323 -0.3015
  188POPC  H15A21560   6.812   6.782   2.097  2.1400 -0.7551  0.2739
  188POPC  H15B21561   6.739   6.899   2.216 -0.0872  0.1245 -0.3610
  188POPC  H15C21562   6.733   6.724   2.240 -0.7935  0.6407  0.1384
  188POPC   C1121563   6.840   6.655   2.463 -0.2958  0.1383  0.0608
  188POPC  H11A21564   6.856   6.642   2.572 -1.8210  0.4765  0.3521
  188POPC  H11B21565   6.883   6.570   2.406  2.7892  1.1371  0.6901
  188POPC     P21566   6.595   6.551   2.461  0.0930 -0.0397 -0.1150
  188POPC   O1321567   6.606   6.471   2.338 -0.1037  0.3645 -0.5844
  188POPC   O1421568   6.463   6.607   2.483 -0.0783  0.1673  0.0993
  188POPC   O1221569   6.696   6.672   2.457 -0.3121 -0.3464  0.2356
  188POPC   O1121570   6.642   6.477   2.585 -0.8528  0.0502  0.4363
  188POPC    C121571   6.649   6.536   2.723 -0.5884 -0.3799 -0.4425
  188POPC    HA21572   6.647   6.646   2.729  3.3278 -0.1503 -0.9569
  188POPC    HB21573   6.745   6.513   2.775 -1.0757  0.3802  0.8436
  188POPC    C221574   6.541   6.469   2.807  0.0282  0.0531 -0.4992
  188POPC    HS21575   6.447   6.473   2.748 -0.1518  2.5488 -0.1359
  188POPC   O2121576   6.528   6.542   2.931  0.1707  0.1696 -0.0641
  188POPC   C2121577   6.425   6.502   2.999  0.3739 -0.0826  0.7567
  188POPC   O2221578   6.323   6.450   2.952  0.2299 -0.1622 -0.1868
  188POPC   C2221579   6.439   6.553   3.137  0.3534 -0.2918  0.2045
  188POPC   H2R21580   6.547   6.562   3.159  1.0956 -0.9107 -2.8526
  188POPC   H2S21581   6.399   6.473   3.204 -1.6378 -0.9085 -1.5958
  188POPC    C321582   6.571   6.318   2.834 -0.0467  0.1282  0.1096
  188POPC    HX21583   6.568   6.275   2.732 -1.3592  1.6596 -0.5515
  188POPC    HY21584   6.488   6.268   2.888  0.5489 -0.1370  0.7972
  188POPC   O3121585   6.696   6.289   2.898 -0.7264 -0.0217 -0.2277
  188POPC   C3121586   6.704   6.283   3.030 -0.0798 -0.3108  0.8721
  188POPC   O3221587   6.614   6.306   3.108  0.4091 -0.2683  0.1077
  188POPC   C3221588   6.844   6.224   3.064 -0.1245  0.0212 -0.4071
  188POPC   H2X21589   6.921   6.302   3.045 -0.3244  1.3127  3.1911
  188POPC   H2Y21590   6.866   6.140   2.996  0.2451 -0.3566  0.1758
  188POPC   C2321591   6.371   6.693   3.160  0.4509  0.4655 -0.4767
  188POPC   H3R21592   6.270   6.658   3.190  2.0721 -2.2722  2.1945
  188POPC   H3S21593   6.359   6.758   3.070 -2.8357  1.5982  0.6049
  188POPC   C2421594   6.405   6.778   3.284 -0.0677 -0.5314 -0.3224
  188POPC   H4R21595   6.324   6.852   3.305 -1.1122 -2.2803  2.2386
  188POPC   H4S21596   6.493   6.843   3.263 -1.2803  1.4656  0.4999
  188POPC   C2521597   6.429   6.685   3.407 -0.4815 -0.3576 -0.4974
  188POPC   H5R21598   6.532   6.643   3.401 -0.1410  0.2488  0.7711
  188POPC   H5S21599   6.345   6.612   3.412 -2.2437  1.6645  1.2684
  188POPC   C2621600   6.430   6.770   3.532 -0.2187  0.1501 -0.2784
  188POPC   H6R21601   6.331   6.819   3.548 -1.3102 -2.4424  1.6643
  188POPC   H6S21602   6.507   6.848   3.511 -0.0379  0.4372  1.3527
  188POPC   C2721603   6.478   6.692   3.663 -0.1456 -0.7269  0.5442
  188POPC   H7R21604   6.570   6.635   3.636 -0.7696 -1.4032 -0.2009
  188POPC   H7S21605   6.407   6.613   3.696 -0.9584 -0.8295 -1.3097
  188POPC   C2821606   6.528   6.793   3.774  0.1848  0.4669 -0.2403
  188POPC   H8R21607   6.611   6.854   3.730  4.3287 -3.6673  0.9860
  188POPC   H8S21608   6.578   6.729   3.850 -0.8608  1.0138  0.9382
  188POPC   C2921609   6.413   6.875   3.835  0.0209 -0.0209  0.1593
  188POPC   H9121610   6.338   6.879   3.755  1.7498  0.0090 -1.5487
  188POPC  C21021611   6.400   6.927   3.959 -0.5833 -0.8320 -0.3104
  188POPC  H10121612   6.309   6.988   3.972 -1.7770 -2.1884 -1.8915
  188POPC  C21121613   6.523   6.938   4.047 -0.1856  0.3265 -0.5276
  188POPC  H11R21614   6.515   7.023   4.119 -1.5553 -0.6538  0.5163
  188POPC  H11S21615   6.616   6.967   3.993  2.4750 -0.2225  3.2891
  188POPC  C21221616   6.562   6.821   4.139 -0.3723 -0.6153 -0.7692
  188POPC  H12R21617   6.617   6.740   4.087  2.2347  0.3780  0.2844
  188POPC  H12S21618   6.466   6.776   4.171 -0.5116 -1.5832 -2.4231
  188POPC  C21321619   6.645   6.855   4.264  0.0966 -0.1277 -0.0859
  188POPC  H13R21620   6.592   6.910   4.344 -0.4691 -1.6273  0.6224
  188POPC  H13S21621   6.742   6.904   4.240 -0.2174  1.4301  1.6324
  188POPC  C21421622   6.698   6.722   4.320  0.3841  0.3211 -0.8091
  188POPC  H14R21623   6.770   6.675   4.249  0.1622 -0.7375 -0.3513
  188POPC  H14S21624   6.604   6.664   4.331 -0.3092  1.5936  0.2890
  188POPC  C21521625   6.763   6.724   4.461  0.6644 -1.2274  0.5431
  188POPC  H15R21626   6.685   6.754   4.535 -0.2747  1.5523 -1.3927
  188POPC  H15S21627   6.836   6.807   4.469  0.5573 -1.1011  0.2165
  188POPC  C21621628   6.829   6.587   4.484  0.9765 -0.1310  0.3506
  188POPC  H16R21629   6.908   6.594   4.406  0.7452  0.7398  0.1829
  188POPC  H16S21630   6.747   6.520   4.450  0.3343  1.2472 -0.9907
  188POPC  C21721631   6.877   6.572   4.630  0.1473  0.0088 -0.0103
  188POPC  H17R21632   6.786   6.589   4.691  0.3289  0.3768  0.1586
  188POPC  H17S21633   6.951   6.653   4.645 -1.0656  1.4394 -1.4117
  188POPC  C21821634   6.946   6.438   4.663 -0.7652 -0.7752 -0.1333
  188POPC  H18R21635   6.970   6.438   4.771  0.6692 -2.8241 -0.3909
  188POPC  H18S21636   7.027   6.402   4.596  0.1620 -0.4237  0.7849
  188POPC  H18T21637   6.873   6.354   4.656  1.8387 -3.2804  1.0887
  188POPC   C3321638   6.871   6.177   3.214  1.0609  0.3330 -0.0049
  188POPC   H3X21639   6.923   6.079   3.218 -1.4111 -1.2397 -2.5052
  188POPC   H3Y21640   6.763   6.165   3.238  0.1795  3.2722 -1.9942
  188POPC   C3421641   6.929   6.283   3.304  0.0037 -0.3334  0.0541
  188POPC   H4X21642   6.918   6.241   3.406 -1.6799  0.3478  0.1835
  188POPC   H4Y21643   6.868   6.374   3.285  2.7948  1.5600 -0.4276
  188POPC   C3521644   7.072   6.319   3.275 -0.6742 -0.5681  0.2254
  188POPC   H5X21645   7.073   6.392   3.191  0.4657  2.7844  2.9149
  188POPC   H5Y21646   7.123   6.226   3.243 -1.6517 -1.9379  2.4667
  188POPC   C3621647   7.149   6.399   3.383  0.0166  0.0940 -0.0148
  188POPC   H6X21648   7.119   6.505   3.376  1.7751  0.5114 -2.1030
  188POPC   H6Y21649   7.255   6.389   3.351 -0.3439  1.4075 -1.7743
  188POPC   C3721650   7.139   6.350   3.524 -0.3549 -0.2258  0.7247
  188POPC   H7X21651   7.111   6.242   3.520  0.8120 -0.6405  2.8177
  188POPC   H7Y21652   7.047   6.397   3.564 -0.9254 -1.5326  1.0204
  188POPC   C3821653   7.265   6.363   3.610 -0.0092 -0.3219  0.0114
  188POPC   H8X21654   7.270   6.468   3.646 -1.6347 -1.0355  2.6634
  188POPC   H8Y21655   7.355   6.336   3.552 -0.8741  0.1810 -1.6172
  188POPC   C3921656   7.252   6.269   3.731 -0.0674 -1.0398 -0.0022
  188POPC   H9X21657   7.351   6.275   3.782  1.4075 -3.1875 -2.3848
  188POPC   H9Y21658   7.237   6.166   3.691 -1.5142 -0.9640  0.2860
  188POPC  C31021659   7.141   6.312   3.825  0.0346  0.3329  0.0594
  188POPC  H10X21660   7.045   6.296   3.773  0.0663  1.6652 -0.4564
  188POPC  H10Y21661   7.160   6.417   3.859 -0.9111  0.5152  0.0373
  188POPC  C31121662   7.149   6.243   3.964  0.0581  0.5432 -0.3202
  188POPC  H11X21663   7.095   6.311   4.034 -0.1197  0.5363 -0.4527
  188POPC  H11Y21664   7.253   6.239   4.004  0.0463  2.7137  0.0429
  188POPC  C31221665   7.088   6.105   3.965 -0.0837 -0.7837  0.3438
  188POPC  H12X21666   7.128   6.030   3.895 -2.2898 -0.4692 -1.3441
  188POPC  H12Y21667   6.980   6.117   3.941 -0.5086 -0.9831  2.0039
  188POPC  C31321668   7.111   6.053   4.111 -0.0336 -0.2024  0.1693
  188POPC  H13X21669   7.083   6.136   4.179 -1.6999  0.0570 -0.7655
  188POPC  H13Y21670   7.218   6.025   4.115  0.3169  1.1891  1.4580
  188POPC  C31421671   7.025   5.934   4.147 -0.7214 -0.1559  0.4591
  188POPC  H14X21672   6.982   5.899   4.051 -0.7677  1.4006 -0.1222
  188POPC  H14Y21673   6.936   5.978   4.198 -0.6293  1.4232 -0.6595
  188POPC  C31521674   7.086   5.817   4.221  0.8449 -0.2838  0.3026
  188POPC  H15X21675   6.998   5.755   4.247  0.2341  1.0994  1.7375
  188POPC  H15Y21676   7.129   5.841   4.321 -1.0401  0.7931  0.9071
  188POPC  C31621677   7.180   5.739   4.128 -0.0395 -0.7470 -0.1901
  188POPC  H16X21678   7.197   5.631   4.147  0.7918 -0.6193 -0.1544
  188POPC  H16Y21679   7.279   5.790   4.132 -0.2256 -0.4507  1.4133
  188POPC  H16Z21680   7.140   5.737   4.025  0.9558  0.5475 -0.6388
  189SAPI   C1221681   3.155   3.020   6.630  0.3741 -0.7598 -0.4017
  189SAPI    H221682   3.153   3.021   6.519 -1.2950  1.6553 -0.4350
  189SAPI    O221683   3.077   3.135   6.665  0.0015 -0.0122  0.1577
  189SAPI   HO221684   3.114   3.204   6.610 -1.6693  1.4207  0.7340
  189SAPI   C1321685   3.090   2.891   6.673 -0.5884  0.2992 -0.0521
  189SAPI    H321686   3.145   2.800   6.640 -1.1771 -0.1402  0.1603
  189SAPI    O321687   2.970   2.874   6.601  0.8427  0.2174  0.6434
  189SAPI   HO321688   2.904   2.917   6.656 -0.5920 -0.0326 -0.8112
  189SAPI   C1421689   3.081   2.884   6.823  0.6165 -0.9543  0.0897
  189SAPI    H421690   2.999   2.955   6.845  1.9976 -0.5045  5.0939
  189SAPI    O421691   3.039   2.755   6.858 -0.1029 -0.1050  0.5958
  189SAPI   HO421692   3.075   2.689   6.799 -1.8971  0.4952 -1.3041
  189SAPI   C1521693   3.200   2.934   6.902  0.2520  0.5519  0.3566
  189SAPI    H521694   3.266   2.845   6.904  2.1116  1.8881  0.8229
  189SAPI    O521695   3.171   2.963   7.039  0.2505 -0.0805 -0.3982
  189SAPI   HO521696   3.155   2.882   7.087  1.3084 -0.5442 -0.7953
  189SAPI   C1621697   3.288   3.039   6.841  0.2112  0.0939 -0.0040
  189SAPI    H621698   3.241   3.138   6.856  1.2528  0.6712 -0.4327
  189SAPI    O621699   3.426   3.033   6.892  0.8996 -0.0278  0.3927
  189SAPI   HO621700   3.464   3.108   6.847 -1.2345  1.9878  1.7408
  189SAPI   C1121701   3.292   3.023   6.690 -0.1381  0.4055  0.5788
  189SAPI    H121702   3.331   2.922   6.663 -2.4962 -0.3377 -0.2283
  189SAPI     P21703   3.450   3.116   6.492 -0.3972 -0.1044 -0.1307
  189SAPI   O1321704   3.505   2.983   6.479 -0.1369 -0.0964  0.0079
  189SAPI   O1421705   3.547   3.229   6.487 -0.3538 -0.9875  0.6007
  189SAPI   O1221706   3.376   3.129   6.639 -0.0322  0.4170 -0.4546
  189SAPI   O1121707   3.346   3.143   6.378  0.0828  0.2492  0.3641
  189SAPI    C121708   3.313   3.053   6.276 -0.2536  0.4420  0.5368
  189SAPI    HA21709   3.280   2.954   6.312  0.5227 -0.4490 -1.0734
  189SAPI    HB21710   3.220   3.091   6.228 -0.8147 -0.5881  0.7775
  189SAPI    C221711   3.421   3.028   6.169 -0.3503 -1.1083  0.4410
  189SAPI    HS21712   3.504   2.976   6.221 -0.0326  0.4978  1.6192
  189SAPI   O2121713   3.453   3.166   6.134  0.0981  0.0414  0.4044
  189SAPI   C2121714   3.579   3.186   6.100  0.0717  0.2210  0.1273
  189SAPI   O2221715   3.669   3.097   6.094  0.1827 -0.7518  0.4994
  189SAPI   C2221716   3.607   3.336   6.060 -1.0013  0.2723 -0.2261
  189SAPI   H2R21717   3.505   3.374   6.041  0.1410  3.9437  0.1308
  189SAPI   H2S21718   3.657   3.391   6.143  2.8050  1.8791 -3.2634
  189SAPI    C321719   3.371   2.964   6.040 -0.6079 -0.9129  0.2387
  189SAPI    HX21720   3.323   3.042   5.977  1.2656  0.8002  0.8088
  189SAPI    HY21721   3.290   2.901   6.083 -0.1534 -0.8592  1.2014
  189SAPI   O3121722   3.467   2.883   5.971 -0.1608  0.3359 -0.4194
  189SAPI   C3121723   3.514   2.924   5.849 -0.3712  0.4090  0.1537
  189SAPI   O3221724   3.480   3.024   5.797  0.5435 -0.5663 -0.3373
  189SAPI   C3221725   3.640   2.845   5.798  0.4869 -0.1690 -0.1178
  189SAPI   H2X21726   3.609   2.795   5.703 -1.0771 -1.4454  1.0119
  189SAPI   H2Y21727   3.646   2.758   5.866 -1.2794 -0.9652 -0.9229
  189SAPI   C2321728   3.701   3.342   5.935 -0.2928  0.5147 -0.0438
  189SAPI   H3R21729   3.672   3.269   5.856 -2.4009 -0.5841  1.6414
  189SAPI   H3S21730   3.804   3.308   5.962 -0.7469 -0.7721  0.1678
  189SAPI   C2421731   3.696   3.477   5.873 -0.4923 -0.6002  0.3813
  189SAPI   H4R21732   3.588   3.499   5.857 -0.5239  0.1468  1.5317
  189SAPI   H4S21733   3.751   3.476   5.777 -0.4873 -2.3528  0.3764
  189SAPI   C2521734   3.758   3.586   5.963 -0.4506  0.0700 -0.1259
  189SAPI   H5R21735   3.716   3.582   6.064 -0.4126  1.7713 -0.0149
  189SAPI   C2621736   3.844   3.676   5.919  0.3076  0.0882  0.0248
  189SAPI   H6R21737   3.870   3.761   5.985 -1.2840  1.7478 -1.3550
  189SAPI   C2721738   3.907   3.689   5.783 -0.6080 -0.4042 -0.0528
  189SAPI   H7R21739   3.951   3.592   5.752 -1.5479 -0.5063 -1.1275
  189SAPI   H7S21740   3.991   3.756   5.808 -0.2930 -1.1684  1.0071
  189SAPI   C2821741   3.815   3.746   5.677 -0.4901 -0.2764  0.0534
  189SAPI   H8R21742   3.720   3.692   5.671 -2.2475  2.7292 -2.3188
  189SAPI   C2921743   3.825   3.864   5.619 -0.0907 -0.3320 -0.0466
  189SAPI   H9R21744   3.737   3.887   5.557 -1.4681 -1.4682  1.4012
  189SAPI  C21021745   3.929   3.967   5.631 -0.4679  0.5292 -0.5297
  189SAPI  H10R21746   3.988   3.961   5.725  2.0231  1.7856 -1.9304
  189SAPI  H10S21747   3.872   4.061   5.647 -0.3849  0.2381  1.8202
  189SAPI  C21121748   4.010   3.981   5.500  0.0252 -0.2067 -0.1514
  189SAPI  H11R21749   3.957   3.966   5.405 -0.0792 -1.4605  0.0870
  189SAPI  C21221750   4.145   3.996   5.505 -0.2923  0.3178  0.2366
  189SAPI  H12R21751   4.195   3.995   5.407  0.0248  1.7479  0.3663
  189SAPI  C21321752   4.222   4.012   5.633 -0.0488 -0.0358  0.3096
  189SAPI  H13R21753   4.205   3.937   5.713  0.0365  0.7896  1.1085
  189SAPI  H13S21754   4.195   4.110   5.678  2.9977  0.6450  0.8179
  189SAPI  C21421755   4.368   4.024   5.615 -0.3206  0.1412  0.0301
  189SAPI  H14R21756   4.406   4.020   5.512 -0.2652  2.0999 -0.0582
  189SAPI  C21521757   4.459   4.034   5.711  0.3589 -0.5661  0.2517
  189SAPI  H15R21758   4.565   4.047   5.685  0.6877 -1.6506  0.9966
  189SAPI  C21621759   4.434   4.056   5.862 -0.9214  0.7849  0.0219
  189SAPI  H16R21760   4.333   4.099   5.881 -0.6050  2.0074 -0.9212
  189SAPI  H16S21761   4.504   4.136   5.893  0.0913  1.0585 -2.6792
  189SAPI  C21721762   4.462   3.931   5.949 -0.3803 -0.5649  0.2492
  189SAPI  H17R21763   4.430   3.840   5.893 -0.2589 -0.1050 -0.5816
  189SAPI  H17S21764   4.392   3.946   6.033 -0.2542  1.9296 -0.0394
  189SAPI  C21821765   4.598   3.918   6.015 -0.4033  0.3930 -0.3938
  189SAPI  H18R21766   4.669   3.885   5.936  0.5131 -1.5576  1.1343
  189SAPI  H18S21767   4.598   3.829   6.082  1.6740 -0.3930 -1.3506
  189SAPI  C21921768   4.653   4.035   6.088  0.5067 -0.7866  0.3545
  189SAPI  H19R21769   4.574   4.073   6.156 -0.5589 -1.4098 -0.5119
  189SAPI  H19S21770   4.679   4.116   6.017 -0.6607 -0.6395  0.0761
  189SAPI  C22021771   4.772   4.006   6.182  0.9323 -0.2309  0.3039
  189SAPI  H20R21772   4.754   3.907   6.229 -0.1143 -0.4103 -0.4376
  189SAPI  H20S21773   4.778   4.070   6.272 -0.3138  0.6704 -0.2244
  189SAPI  H20T21774   4.865   4.006   6.121 -0.1832 -0.4461 -1.4958
  189SAPI   C3321775   3.783   2.909   5.804  0.6903  0.0781 -0.2887
  189SAPI   H3X21776   3.857   2.826   5.807  2.9101  1.9353  3.7374
  189SAPI   H3Y21777   3.794   2.947   5.907 -0.5971 -1.3888  0.4384
  189SAPI   C3421778   3.799   3.024   5.703  0.1618 -0.1450 -0.2273
  189SAPI   H4X21779   3.729   3.109   5.718  1.5776  1.1210 -0.5962
  189SAPI   H4Y21780   3.775   2.976   5.606 -0.0703 -1.7591  0.5992
  189SAPI   C3521781   3.944   3.080   5.691  0.6454 -0.6681  0.6121
  189SAPI   H5X21782   4.014   2.995   5.679 -0.1388 -1.0518 -1.7348
  189SAPI   H5Y21783   3.974   3.125   5.789 -0.4682  2.0924 -0.1974
  189SAPI   C3621784   3.952   3.181   5.577 -0.0915  0.1883 -0.5919
  189SAPI   H6X21785   4.044   3.240   5.598 -0.4932  0.2949  1.0482
  189SAPI   H6Y21786   3.865   3.250   5.580  0.2008  0.5862  2.8788
  189SAPI   C3721787   3.966   3.122   5.437 -0.1833  0.0869  0.0241
  189SAPI   H7X21788   3.959   3.213   5.374  0.2899 -0.2406 -0.5213
  189SAPI   H7Y21789   3.878   3.059   5.412  0.4743 -0.2209 -1.6629
  189SAPI   C3821790   4.094   3.047   5.408 -1.0874 -0.8158  0.0993
  189SAPI   H8X21791   4.090   2.953   5.467  0.1992 -0.3533  0.9484
  189SAPI   H8Y21792   4.189   3.100   5.431 -1.1266 -0.8866  0.4283
  189SAPI   C3921793   4.096   3.013   5.260 -0.9887  0.4825 -0.2959
  189SAPI   H9X21794   4.123   3.102   5.199  1.4895 -1.5097 -2.3599
  189SAPI   H9Y21795   3.997   2.982   5.222 -0.5207  1.3709 -2.3493
  189SAPI  C31021796   4.212   2.912   5.235 -0.0455 -0.7564 -0.3761
  189SAPI  H10X21797   4.177   2.810   5.262  2.1695 -1.1401  1.3360
  189SAPI  H10Y21798   4.295   2.939   5.303  1.0243 -2.5535 -0.9267
  189SAPI  C31121799   4.270   2.932   5.093  0.7260  0.1429 -0.5234
  189SAPI  H11X21800   4.331   3.025   5.083 -0.8544  1.0739 -2.0221
  189SAPI  H11Y21801   4.187   2.948   5.021  0.5469 -0.2939 -0.4206
  189SAPI  C31221802   4.367   2.827   5.043 -0.2306  0.0654 -0.1212
  189SAPI  H12X21803   4.328   2.724   5.028  1.1474 -0.4571 -0.3024
  189SAPI  H12Y21804   4.436   2.827   5.131 -2.2523  1.2195  1.5661
  189SAPI  C31321805   4.449   2.869   4.917  0.6152  0.0394  0.1768
  189SAPI  H13X21806   4.525   2.787   4.910  2.0948  1.2797  1.0448
  189SAPI  H13Y21807   4.496   2.967   4.940  0.9396 -0.2339  0.7263
  189SAPI  C31421808   4.372   2.873   4.784 -0.0287 -0.1931  0.2391
  189SAPI  H14X21809   4.286   2.940   4.804 -0.3714 -0.0186 -1.5789
  189SAPI  H14Y21810   4.330   2.774   4.755  0.1911 -0.5971  1.2592
  189SAPI  C31521811   4.461   2.911   4.671 -0.9506  0.2490 -0.0123
  189SAPI  H15X21812   4.529   2.992   4.706 -0.7651 -0.3145  0.9721
  189SAPI  H15Y21813   4.398   2.945   4.587  3.0414 -0.9098 -3.8673
  189SAPI  C31621814   4.536   2.790   4.604 -1.2222  0.3817  0.1678
  189SAPI  H16X21815   4.472   2.710   4.562  0.2286 -0.9401  0.3784
  189SAPI  H16Y21816   4.598   2.746   4.685 -0.8023  0.8914  0.1307
  189SAPI  C31721817   4.635   2.848   4.501 -0.4804  0.4041 -0.0624
  189SAPI  H17X21818   4.706   2.916   4.552 -1.6088  0.8904  0.8987
  189SAPI  H17Y21819   4.571   2.908   4.432 -1.7958 -0.0015  0.7858
  189SAPI  C31821820   4.711   2.733   4.440  0.2305 -0.6152 -1.3242
  189SAPI  H18X21821   4.764   2.775   4.352 -1.8533  1.7216 -1.5789
  189SAPI  H18Y21822   4.645   2.649   4.408  0.5848 -0.4558 -2.5144
  189SAPI  H18Z21823   4.788   2.698   4.512 -1.5439 -2.5771 -0.2586
  190SAPI   C1221824   3.767   5.580   6.818  0.6077 -0.1297  0.4638
  190SAPI    H221825   3.837   5.516   6.760 -0.5307  1.2520 -2.6338
  190SAPI    O221826   3.750   5.542   6.950  0.1051 -0.3527 -0.3353
  190SAPI   HO221827   3.679   5.478   6.958 -0.2558  0.2333  1.9550
  190SAPI   C1321828   3.819   5.721   6.809  0.2272 -0.1852  0.6010
  190SAPI    H321829   3.830   5.735   6.699 -4.8598  1.1560  0.0030
  190SAPI    O321830   3.945   5.726   6.873 -0.2233  0.5222 -0.0986
  190SAPI   HO321831   4.005   5.795   6.843  0.7442 -0.7142 -1.1445
  190SAPI   C1421832   3.724   5.827   6.865 -0.2942  0.7110 -0.1764
  190SAPI    H421833   3.724   5.817   6.975  0.7268  0.9694 -0.1378
  190SAPI    O421834   3.779   5.957   6.831  0.4336  0.0172  0.6521
  190SAPI   HO421835   3.825   5.992   6.908  0.5175 -2.1059  1.6432
  190SAPI   C1521836   3.579   5.817   6.807 -0.1271 -0.8077 -0.4069
  190SAPI    H521837   3.575   5.864   6.706 -2.3329  2.9637  1.2071
  190SAPI    O521838   3.488   5.905   6.869  0.1641  0.5889 -0.3649
  190SAPI   HO521839   3.461   5.969   6.802  0.1387 -0.0776 -1.0045
  190SAPI   C1621840   3.524   5.676   6.789  0.3943  0.3555 -0.5087
  190SAPI    H621841   3.483   5.632   6.883 -1.2060 -1.2320 -1.8806
  190SAPI    O621842   3.409   5.666   6.703  0.0539  0.2507 -0.3941
  190SAPI   HO621843   3.430   5.670   6.610  0.9259  0.8143 -0.1804
  190SAPI   C1121844   3.634   5.574   6.737 -0.3920  0.4430 -0.9342
  190SAPI    H121845   3.656   5.604   6.633  0.4640 -0.5116 -1.0447
  190SAPI     P21846   3.641   5.331   6.643 -0.2169  0.4022  0.3830
  190SAPI   O1321847   3.608   5.193   6.685  0.3001  0.7238 -0.0102
  190SAPI   O1421848   3.786   5.350   6.606 -0.2826  0.4536  0.1109
  190SAPI   O1221849   3.583   5.441   6.753 -0.1524  0.9108  0.3641
  190SAPI   O1121850   3.549   5.380   6.518 -0.4093  0.7336 -0.1273
  190SAPI    C121851   3.408   5.363   6.524  0.1539 -0.1832 -0.6019
  190SAPI    HA21852   3.362   5.357   6.625 -0.7614  2.6293 -0.7780
  190SAPI    HB21853   3.364   5.459   6.492 -1.2967 -0.1219  1.4012
  190SAPI    C221854   3.339   5.258   6.427  0.1947  0.3662 -0.0356
  190SAPI    HS21855   3.381   5.160   6.459 -2.9971  0.2402  4.8337
  190SAPI   O2121856   3.360   5.295   6.295  0.4492  0.2487 -0.5227
  190SAPI   C2121857   3.378   5.200   6.207  0.5340 -0.4168  0.1489
  190SAPI   O2221858   3.404   5.084   6.227  0.3617  0.3302  0.1622
  190SAPI   C2221859   3.377   5.269   6.077 -0.3582 -0.1352  0.1409
  190SAPI   H2R21860   3.287   5.334   6.074  1.4525  2.5131 -0.5657
  190SAPI   H2S21861   3.464   5.338   6.085 -1.6324  2.0095 -2.8690
  190SAPI    C321862   3.186   5.237   6.452 -0.5241  0.7312 -0.2714
  190SAPI    HX21863   3.125   5.329   6.437 -1.9083 -0.2355 -0.8971
  190SAPI    HY21864   3.176   5.219   6.561 -0.2659 -2.6339 -0.6924
  190SAPI   O3121865   3.129   5.116   6.388 -0.0822  0.2626 -0.1433
  190SAPI   C3121866   3.057   5.148   6.275  0.0465  0.6513  0.2552
  190SAPI   O3221867   3.051   5.259   6.231  0.1985 -0.0161 -0.6721
  190SAPI   C3221868   2.976   5.021   6.221 -0.5460  0.4128 -0.5267
  190SAPI   H2X21869   2.963   4.948   6.304 -0.3187 -1.3140 -1.9470
  190SAPI   H2Y21870   3.048   4.972   6.153 -0.5363 -0.8843  0.3741
  190SAPI   C2321871   3.392   5.176   5.951 -0.6622 -0.5411  0.3831
  190SAPI   H3R21872   3.471   5.105   5.982  1.2429  2.1842  2.2038
  190SAPI   H3S21873   3.439   5.234   5.869 -1.4178 -0.8932 -0.3065
  190SAPI   C2421874   3.265   5.100   5.910 -0.1247 -0.1243 -0.1255
  190SAPI   H4R21875   3.235   5.035   5.995 -0.8978 -0.7108 -0.8283
  190SAPI   H4S21876   3.312   5.031   5.837 -3.6596 -1.2231 -1.6326
  190SAPI   C2521877   3.148   5.195   5.879  0.2080  0.4107 -0.3607
  190SAPI   H5R21878   3.090   5.238   5.962  1.2962 -0.3118  0.8275
  190SAPI   C2621879   3.116   5.231   5.753 -0.0433  0.5445 -0.1223
  190SAPI   H6R21880   3.041   5.304   5.719 -0.5393 -0.4184 -1.1932
  190SAPI   C2721881   3.202   5.182   5.630  0.3595  0.4029 -0.8209
  190SAPI   H7R21882   3.220   5.072   5.635 -0.0712  0.3148 -1.1338
  190SAPI   H7S21883   3.301   5.232   5.626 -0.1232  1.3354 -1.7446
  190SAPI   C2821884   3.126   5.210   5.500  0.3635  0.2203  0.8400
  190SAPI   H8R21885   3.026   5.252   5.520 -0.8556 -2.1978  0.3261
  190SAPI   C2921886   3.163   5.186   5.372 -0.2600 -1.1536 -0.2202
  190SAPI   H9R21887   3.086   5.210   5.297  0.2092 -2.5811 -1.2102
  190SAPI  C21021888   3.293   5.140   5.318 -0.2095  0.6200 -0.0533
  190SAPI  H10R21889   3.370   5.123   5.396 -1.7731 -1.1654  1.2074
  190SAPI  H10S21890   3.336   5.227   5.264  3.0097 -1.5841 -1.3809
  190SAPI  C21121891   3.274   5.033   5.210 -0.3744  0.5593 -0.2605
  190SAPI  H11R21892   3.296   4.928   5.235 -0.4651  0.2908 -1.2709
  190SAPI  C21221893   3.242   5.052   5.085 -0.6381 -0.1270 -0.4724
  190SAPI  H12R21894   3.226   4.963   5.022 -2.1317  0.3056 -0.7490
  190SAPI  C21321895   3.210   5.184   5.015  0.2565  0.1923 -0.5579
  190SAPI  H13R21896   3.187   5.261   5.091  0.5399 -0.6692  0.4166
  190SAPI  H13S21897   3.115   5.174   4.958 -1.3823 -1.4836  2.2455
  190SAPI  C21421898   3.324   5.233   4.921  0.1330 -0.6656 -0.5321
  190SAPI  H14R21899   3.419   5.231   4.977 -0.3086  3.5374  0.6915
  190SAPI  C21521900   3.327   5.264   4.792 -0.4729  0.0588  0.3174
  190SAPI  H15R21901   3.415   5.317   4.752  0.3378  0.3566  2.3625
  190SAPI  C21621902   3.207   5.261   4.696 -0.2682 -0.2843 -0.1274
  190SAPI  H16R21903   3.140   5.178   4.727  1.1727 -1.2684  0.4616
  190SAPI  H16S21904   3.228   5.236   4.590 -1.1515  0.0639 -0.3994
  190SAPI  C21721905   3.137   5.399   4.703 -0.4115  0.1242 -0.3775
  190SAPI  H17R21906   3.213   5.468   4.661 -0.4368 -0.5287 -1.5601
  190SAPI  H17S21907   3.110   5.415   4.809  1.2371  0.8120 -0.0311
  190SAPI  C21821908   3.015   5.418   4.606  0.4303 -0.3015  0.1967
  190SAPI  H18R21909   2.987   5.524   4.627  0.9380 -0.2609  0.6978
  190SAPI  H18S21910   2.930   5.350   4.629  1.2799 -1.3134  0.3960
  190SAPI  C21921911   3.050   5.400   4.462  0.3242  0.3565  0.4174
  190SAPI  H19R21912   3.087   5.296   4.448  0.6052  0.5602 -0.4126
  190SAPI  H19S21913   3.126   5.475   4.432  0.9980 -0.1676  0.7952
  190SAPI  C22021914   2.931   5.421   4.366 -0.3664  0.1162  0.1278
  190SAPI  H20R21915   2.859   5.339   4.389 -0.3217  0.5673  2.0787
  190SAPI  H20S21916   2.965   5.411   4.261  1.7337 -0.8502  0.8452
  190SAPI  H20T21917   2.892   5.523   4.386  2.2117  0.7793  2.4373
  190SAPI   C3321918   2.839   5.066   6.156 -0.0053  0.7006 -0.7670
  190SAPI   H3X21919   2.774   5.117   6.230  0.0713 -0.7692  0.3677
  190SAPI   H3Y21920   2.789   4.968   6.138  1.2783 -0.0228 -0.5371
  190SAPI   C3421921   2.844   5.134   6.021 -0.0105  0.2822 -0.2075
  190SAPI   H4X21922   2.915   5.076   5.959  0.8660 -1.0581  1.9507
  190SAPI   H4Y21923   2.881   5.237   6.043 -1.5184  0.7483  0.3232
  190SAPI   C3521924   2.700   5.152   5.957 -0.3203  0.5183 -0.0047
  190SAPI   H5X21925   2.643   5.215   6.029 -0.9682 -0.4101  0.3089
  190SAPI   H5Y21926   2.647   5.055   5.955  0.8723 -0.1426 -1.0149
  190SAPI   C3621927   2.719   5.217   5.823  0.2889  1.0375  0.3092
  190SAPI   H6X21928   2.799   5.295   5.822  0.5270  0.7989 -0.8313
  190SAPI   H6Y21929   2.624   5.256   5.782  0.8328  0.9600 -1.0676
  190SAPI   C3721930   2.767   5.110   5.721  0.2140 -0.6635  0.1048
  190SAPI   H7X21931   2.707   5.017   5.710 -1.7571  0.6305 -0.6391
  190SAPI   H7Y21932   2.873   5.079   5.736  0.3910 -0.2603 -0.2824
  190SAPI   C3821933   2.744   5.165   5.580 -0.2661  0.3504  0.5061
  190SAPI   H8X21934   2.798   5.262   5.571 -0.3146  0.1531 -3.4762
  190SAPI   H8Y21935   2.638   5.188   5.557 -0.3559 -1.0433 -0.5688
  190SAPI   C3921936   2.776   5.069   5.467  0.0478  0.2536  0.3549
  190SAPI   H9X21937   2.719   4.975   5.479 -0.2666  0.2263 -1.1705
  190SAPI   H9Y21938   2.879   5.030   5.473  0.1415  0.4690  0.1678
  190SAPI  C31021939   2.750   5.135   5.325  0.2377  0.2565 -0.3340
  190SAPI  H10X21940   2.798   5.235   5.315  0.6860  0.0123 -0.6937
  190SAPI  H10Y21941   2.641   5.149   5.310  0.2175 -0.2812 -0.7346
  190SAPI  C31121942   2.809   5.054   5.206 -0.3764  0.8694  0.2875
  190SAPI  H11X21943   2.765   4.953   5.204 -2.3825  1.7079 -0.6040
  190SAPI  H11Y21944   2.920   5.041   5.207 -0.5043 -0.3003  0.3549
  190SAPI  C31221945   2.785   5.106   5.069 -0.0675 -0.5296  0.3252
  190SAPI  H12X21946   2.842   5.200   5.058  0.0015 -0.6121 -0.0384
  190SAPI  H12Y21947   2.680   5.141   5.056 -0.2962 -0.7593  1.4237
  190SAPI  C31321948   2.836   5.011   4.957  0.1051 -0.5662  0.0412
  190SAPI  H13X21949   2.766   4.926   4.938 -1.0556  0.5389 -0.7526
  190SAPI  H13Y21950   2.935   4.967   4.982 -0.0521 -0.5575  0.6967
  190SAPI  C31421951   2.847   5.089   4.820  0.1626  0.3443 -0.2258
  190SAPI  H14X21952   2.918   5.174   4.834 -0.3966  0.8540 -0.4443
  190SAPI  H14Y21953   2.750   5.136   4.795  0.0305 -0.0560 -0.4791
  190SAPI  C31521954   2.895   5.008   4.704 -0.6997 -0.4990 -0.7823
  190SAPI  H15X21955   2.992   4.960   4.731 -0.2753  1.2254  0.9555
  190SAPI  H15Y21956   2.920   5.077   4.621 -3.8164  0.9791 -0.6388
  190SAPI  C31621957   2.795   4.909   4.638 -0.0755  0.2684  0.6429
  190SAPI  H16X21958   2.702   4.957   4.602  0.6563  0.2813 -1.3413
  190SAPI  H16Y21959   2.771   4.849   4.729  0.9805  0.4442  1.0510
  190SAPI  C31721960   2.866   4.815   4.538 -0.6794 -0.1443 -0.0765
  190SAPI  H17X21961   2.786   4.751   4.495 -1.1347  0.9882 -0.9927
  190SAPI  H17Y21962   2.941   4.752   4.589 -2.4383 -1.9553  0.3809
  190SAPI  C31821963   2.937   4.876   4.408 -0.0794 -0.3154  0.0721
  190SAPI  H18X21964   2.879   4.959   4.361 -0.7160 -1.6407 -1.5892
  190SAPI  H18Y21965   2.959   4.807   4.324  0.4325 -0.7427  0.5509
  190SAPI  H18Z21966   3.034   4.923   4.438 -0.3085 -0.1832  0.6182
  191SAPI   C1221967   5.034   5.418   2.495  0.6144 -0.2143  0.5203
  191SAPI    H221968   5.055   5.461   2.596  1.1448  0.0060  0.3152
  191SAPI    O221969   5.147   5.349   2.444  0.2515 -0.3177 -0.2577
  191SAPI   HO221970   5.215   5.416   2.438  1.5025 -1.4999  0.1922
  191SAPI   C1321971   4.911   5.330   2.510  0.2440  0.8305 -0.6220
  191SAPI    H321972   4.827   5.382   2.561 -0.7817 -0.5391 -0.8513
  191SAPI    O321973   4.933   5.218   2.598 -0.2558 -0.4440  0.3213
  191SAPI   HO321974   5.012   5.181   2.558  0.3896  0.4483  0.7434
  191SAPI   C1421975   4.843   5.283   2.381 -1.0167  0.0129 -0.7275
  191SAPI    H421976   4.908   5.203   2.340 -0.9684 -0.4534  0.2346
  191SAPI    O421977   4.717   5.216   2.404 -0.1896  0.1680  0.1264
  191SAPI   HO421978   4.741   5.135   2.450 -1.0928  0.0386  0.4005
  191SAPI   C1521979   4.841   5.388   2.264 -0.1098 -0.1323 -0.9752
  191SAPI    H521980   4.743   5.437   2.284  1.0247  1.6284  0.5873
  191SAPI    O521981   4.838   5.325   2.140 -0.4363  0.4090  0.3105
  191SAPI   HO521982   4.762   5.363   2.095  0.4917  0.7616 -1.0279
  191SAPI   C1621983   4.947   5.500   2.270 -0.2440 -0.1182  0.0867
  191SAPI    H621984   5.030   5.467   2.204 -0.8134 -0.0605 -0.6621
  191SAPI    O621985   4.898   5.614   2.199 -0.1400 -0.4163  0.0739
  191SAPI   HO621986   4.916   5.698   2.241  0.6720 -1.2227  1.4028
  191SAPI   C1121987   5.004   5.536   2.402 -0.9517 -0.6202 -0.6378
  191SAPI    H121988   4.922   5.594   2.450 -0.0168 -0.6544  1.0890
  191SAPI     P21989   5.127   5.777   2.416 -0.3230 -0.8741 -0.0675
  191SAPI   O1321990   5.001   5.839   2.365 -0.0153 -0.7609  0.0969
  191SAPI   O1421991   5.258   5.825   2.367  0.2482 -0.2499  0.1202
  191SAPI   O1221992   5.123   5.613   2.395  0.4266 -0.4469  0.8210
  191SAPI   O1121993   5.133   5.769   2.577 -0.1208 -0.0164 -0.4378
  191SAPI    C121994   5.241   5.708   2.658  0.5930  0.3252 -0.3906
  191SAPI    HA21995   5.209   5.604   2.681 -0.0906 -0.0775 -2.8449
  191SAPI    HB21996   5.331   5.688   2.596 -0.2694 -1.1619 -1.2209
  191SAPI    C221997   5.283   5.802   2.778 -0.4923  0.4254  0.4134
  191SAPI    HS21998   5.373   5.756   2.824 -1.3229  2.4008  4.4259
  191SAPI   O2121999   5.177   5.823   2.872 -0.5966  0.4759  0.1184
  191SAPI   C2122000   5.159   5.724   2.958 -0.1405 -0.0308  0.4409
  191SAPI   O2222001   5.242   5.633   2.974  0.3171  0.0105  0.5652
  191SAPI   C2222002   5.043   5.760   3.048  0.4284  0.2094 -0.0131
  191SAPI   H2R22003   5.084   5.856   3.086  2.2968  0.3956 -2.2579
  191SAPI   H2S22004   4.946   5.763   2.994  0.4978 -2.8767 -0.4857
  191SAPI    C322005   5.349   5.933   2.724 -0.7202  0.6533  0.4240
  191SAPI    HX22006   5.263   5.996   2.692  0.1461  0.8584 -1.6836
  191SAPI    HY22007   5.400   5.904   2.629 -2.0027 -1.1589  0.2409
  191SAPI   O3122008   5.445   6.000   2.811 -0.2157  0.1341 -0.0091
  191SAPI   C3122009   5.563   5.942   2.831  0.2373  0.1023 -0.1383
  191SAPI   O3222010   5.603   5.840   2.774  0.1991 -0.5894 -0.0392
  191SAPI   C3222011   5.636   6.025   2.940  0.0813  0.0609  0.5712
  191SAPI   H2X22012   5.572   6.113   2.963 -0.0741  0.6836 -1.9358
  191SAPI   H2Y22013   5.741   6.048   2.909  0.1442 -1.0841 -0.1101
  191SAPI   C2322014   5.022   5.659   3.165 -0.3808  0.2604 -0.9385
  191SAPI   H3R22015   5.126   5.650   3.204  0.0307  2.0290 -1.5174
  191SAPI   H3S22016   4.997   5.557   3.130 -0.7159 -0.8189  2.1642
  191SAPI   C2422017   4.910   5.696   3.261  0.0917 -0.5708  0.2458
  191SAPI   H4R22018   4.939   5.787   3.317  0.1868  0.3308 -1.2278
  191SAPI   H4S22019   4.911   5.614   3.337 -3.0852  0.3642  1.4610
  191SAPI   C2522020   4.771   5.714   3.217  0.0613 -0.3722 -0.4541
  191SAPI   H5R22021   4.737   5.819   3.212 -1.1743 -0.7896 -1.2694
  191SAPI   C2622022   4.685   5.609   3.200  0.4366 -0.8473 -0.6630
  191SAPI   H6R22023   4.589   5.635   3.153  0.4372  2.0998  0.7410
  191SAPI   C2722024   4.710   5.460   3.223 -0.2236 -0.0532 -0.2774
  191SAPI   H7R22025   4.682   5.424   3.324  0.2171 -0.0620 -0.1555
  191SAPI   H7S22026   4.816   5.436   3.200  0.3897  2.3826 -0.3391
  191SAPI   C2822027   4.631   5.380   3.124 -0.3009 -0.6654 -0.4161
  191SAPI   H8R22028   4.668   5.394   3.022  0.2130  3.8824  0.1835
  191SAPI   C2922029   4.525   5.307   3.148  0.8771  0.3332  0.1129
  191SAPI   H9R22030   4.497   5.246   3.061  1.5073 -0.1455  0.2405
  191SAPI  C21022031   4.457   5.278   3.275  0.1349  0.3754 -0.8976
  191SAPI  H10R22032   4.464   5.370   3.338 -1.3201  0.6556 -1.1033
  191SAPI  H10S22033   4.513   5.200   3.331  2.1903  2.5838  0.3722
  191SAPI  C21122034   4.308   5.244   3.261 -0.5750  0.3526  0.1972
  191SAPI  H11R22035   4.242   5.326   3.227  0.3866  1.5356  1.0903
  191SAPI  C21222036   4.251   5.129   3.300 -0.4508  0.1121  0.1470
  191SAPI  H12R22037   4.142   5.120   3.301 -0.7281  2.5384 -0.9373
  191SAPI  C21322038   4.328   5.012   3.344  0.1148  0.1290 -0.2519
  191SAPI  H13R22039   4.374   5.037   3.442  0.5003  1.4716 -0.7566
  191SAPI  H13S22040   4.416   4.992   3.279  1.8329  0.8549  1.7156
  191SAPI  C21422041   4.248   4.887   3.354 -0.3390 -0.5291 -0.2946
  191SAPI  H14R22042   4.226   4.844   3.255 -0.6682  0.6469 -0.7479
  191SAPI  C21522043   4.202   4.834   3.474 -0.5633 -0.4794 -0.1616
  191SAPI  H15R22044   4.141   4.743   3.480  1.6319 -2.0628 -0.6744
  191SAPI  C21622045   4.226   4.892   3.616 -0.0878  0.2822 -0.2003
  191SAPI  H16R22046   4.241   5.002   3.617 -2.9492  0.7452 -0.0251
  191SAPI  H16S22047   4.316   4.839   3.654 -0.2018  0.2947  0.0936
  191SAPI  C21722048   4.115   4.857   3.721 -0.5385  0.3537 -0.1322
  191SAPI  H17R22049   4.145   4.884   3.824 -0.6743 -1.6274  0.4719
  191SAPI  H17S22050   4.091   4.750   3.705  1.3369 -0.2252  0.6460
  191SAPI  C21822051   3.999   4.948   3.687 -0.9883  0.3638  0.3088
  191SAPI  H18R22052   3.959   4.915   3.589  1.4314 -0.4620 -0.4699
  191SAPI  H18S22053   4.035   5.052   3.671  1.4042 -0.7183 -2.3991
  191SAPI  C21922054   3.886   4.948   3.793 -0.0628 -0.4600 -1.0064
  191SAPI  H19R22055   3.838   4.849   3.799  2.0238 -1.5076 -0.6931
  191SAPI  H19S22056   3.819   5.031   3.760  1.3754  1.9353  1.6088
  191SAPI  C22022057   3.934   4.999   3.935  1.4039 -0.5824  0.5886
  191SAPI  H20R22058   3.960   5.106   3.923  1.6188 -0.7738 -0.7934
  191SAPI  H20S22059   4.017   4.945   3.985  1.0462 -1.6706  0.0403
  191SAPI  H20T22060   3.837   4.990   3.989  1.1046 -0.5682  0.0609
  191SAPI   C3322061   5.648   5.943   3.073 -0.6523 -0.1476  0.0543
  191SAPI   H3X22062   5.707   6.002   3.147 -0.1224 -3.6628  2.7236
  191SAPI   H3Y22063   5.722   5.862   3.061  1.7133  1.9239 -0.2614
  191SAPI   C3422064   5.518   5.880   3.114  0.1417  0.2193 -0.2939
  191SAPI   H4X22065   5.482   5.811   3.035 -0.0474 -1.4005  1.1420
  191SAPI   H4Y22066   5.443   5.962   3.123  0.9371  0.9261 -0.0699
  191SAPI   C3522067   5.526   5.803   3.246  0.1984  0.6274  0.8457
  191SAPI   H5X22068   5.586   5.860   3.321  0.7426  1.9642 -0.5627
  191SAPI   H5Y22069   5.575   5.706   3.225 -1.7897 -0.3165  0.3468
  191SAPI   C3622070   5.385   5.768   3.293 -0.0336 -0.0896  0.5955
  191SAPI   H6X22071   5.364   5.675   3.236 -0.3308 -0.5073  1.3683
  191SAPI   H6Y22072   5.306   5.843   3.275  1.3814  1.4674  0.6622
  191SAPI   C3722073   5.390   5.732   3.444 -0.3379  0.1924 -0.0056
  191SAPI   H7X22074   5.407   5.818   3.513  4.8237  1.0178 -1.8811
  191SAPI   H7Y22075   5.483   5.675   3.463  0.1035  1.1565  0.8603
  191SAPI   C3822076   5.261   5.663   3.495 -0.3946 -0.5046  0.2519
  191SAPI   H8X22077   5.227   5.588   3.420 -0.8982  1.3749 -1.5003
  191SAPI   H8Y22078   5.181   5.738   3.481 -0.3532 -0.7031 -1.2190
  191SAPI   C3922079   5.275   5.631   3.643 -0.3972 -0.0116  1.0734
  191SAPI   H9X22080   5.301   5.720   3.703  2.1764 -0.1343  0.2896
  191SAPI   H9Y22081   5.359   5.559   3.655  0.5329  1.1939  1.9612
  191SAPI  C31022082   5.144   5.559   3.691 -0.5097  0.1061  0.1390
  191SAPI  H10X22083   5.099   5.500   3.608 -1.4446 -2.3854  2.2830
  191SAPI  H10Y22084   5.066   5.630   3.725  0.1684  1.2783 -0.6682
  191SAPI  C31122085   5.160   5.446   3.794 -0.4916  1.1797  0.2252
  191SAPI  H11X22086   5.232   5.372   3.756  0.9826  2.8175 -0.3027
  191SAPI  H11Y22087   5.060   5.398   3.797  0.3552 -0.7249 -0.4607
  191SAPI  C31222088   5.218   5.481   3.935 -0.1374  0.4105 -0.1347
  191SAPI  H12X22089   5.154   5.565   3.970 -0.9479  0.1594 -0.9565
  191SAPI  H12Y22090   5.316   5.533   3.924 -0.6947  1.2075 -1.7948
  191SAPI  C31322091   5.219   5.363   4.028  0.1821 -0.0458 -0.8835
  191SAPI  H13X22092   5.273   5.384   4.123 -1.2514  0.2669 -0.1112
  191SAPI  H13Y22093   5.275   5.283   3.976  0.5957 -0.0228 -0.4815
  191SAPI  C31422094   5.090   5.325   4.079 -0.1909  0.7267  0.2192
  191SAPI  H14X22095   5.031   5.273   4.000 -1.3564  0.0570  1.4933
  191SAPI  H14Y22096   5.044   5.423   4.105  0.0628  0.8070  0.3702
  191SAPI  C31522097   5.087   5.230   4.197 -0.6849 -0.2848  0.6780
  191SAPI  H15X22098   5.137   5.273   4.286 -1.8157 -1.0543  1.7047
  191SAPI  H15Y22099   5.151   5.144   4.169  0.0642  0.7492 -1.0302
  191SAPI  C31622100   4.943   5.182   4.230 -0.3830  0.8300 -0.2917
  191SAPI  H16X22101   4.890   5.134   4.146  0.0639 -0.0871 -0.0596
  191SAPI  H16Y22102   4.892   5.277   4.257  2.0273  1.8039  1.2861
  191SAPI  C31722103   4.933   5.084   4.341  1.3381 -0.2628  0.6954
  191SAPI  H17X22104   4.986   4.989   4.318  0.0993 -0.6870 -0.5444
  191SAPI  H17Y22105   4.827   5.054   4.356  1.0387  0.4244  0.0302
  191SAPI  C31822106   4.957   5.145   4.483  0.0131  0.2799 -0.2821
  191SAPI  H18X22107   5.061   5.183   4.490  0.4273 -1.0398  1.3707
  191SAPI  H18Y22108   4.949   5.063   4.558 -1.5259  0.9625  0.3514
  191SAPI  H18Z22109   4.888   5.228   4.511  0.9469  0.9515  0.0939
  192SAPI   C1222110   6.530   3.492   2.539  0.2496  0.5322  0.3978
  192SAPI    H222111   6.523   3.559   2.451  1.3162 -1.5234 -1.3643
  192SAPI    O222112   6.525   3.565   2.666 -0.5088 -0.2236 -0.3933
  192SAPI   HO222113   6.618   3.578   2.688 -0.8103  0.9223  0.2887
  192SAPI   C1322114   6.415   3.384   2.524 -0.3187  0.1764 -0.0389
  192SAPI    H322115   6.431   3.323   2.433 -0.3756 -2.0189  1.3409
  192SAPI    O322116   6.284   3.451   2.509 -0.0557  0.2516  0.1267
  192SAPI   HO322117   6.283   3.517   2.578 -0.4109 -2.7718  3.3144
  192SAPI   C1422118   6.421   3.283   2.638  0.0854 -0.2248  0.3070
  192SAPI    H422119   6.389   3.339   2.729 -1.8088 -0.0748 -0.4085
  192SAPI    O422120   6.319   3.188   2.612 -0.7567 -0.4420  0.2344
  192SAPI   HO422121   6.246   3.246   2.587  1.0436  1.1521 -1.6393
  192SAPI   C1522122   6.557   3.230   2.675 -0.2142 -0.4560 -0.7446
  192SAPI    H522123   6.565   3.126   2.636  0.3849 -1.0694  0.8867
  192SAPI    O522124   6.556   3.201   2.819 -0.9139  0.0540 -0.2565
  192SAPI   HO522125   6.511   3.119   2.839 -0.6256 -0.3911 -1.3725
  192SAPI   C1622126   6.677   3.307   2.634  1.0076 -0.1992  0.1152
  192SAPI    H622127   6.694   3.372   2.723 -0.5669  2.2964 -1.2927
  192SAPI    O622128   6.788   3.229   2.604 -0.0078  0.3597 -0.5793
  192SAPI   HO622129   6.862   3.273   2.647  1.6776 -1.3364 -1.5634
  192SAPI   C1122130   6.665   3.417   2.523 -0.2131 -0.3405  0.2639
  192SAPI    H122131   6.673   3.358   2.429  0.8938 -1.3566  0.9656
  192SAPI     P22132   6.815   3.630   2.449 -0.3535  0.5428 -0.4627
  192SAPI   O1322133   6.760   3.600   2.315 -0.0251 -0.3581  0.3921
  192SAPI   O1422134   6.958   3.647   2.458 -0.4769 -0.4865  0.1567
  192SAPI   O1222135   6.777   3.507   2.547  0.1261  0.3867  0.6715
  192SAPI   O1122136   6.738   3.741   2.522  0.2023  0.2005 -0.0010
  192SAPI    C122137   6.801   3.815   2.628 -0.2773  0.1694  0.8095
  192SAPI    HA22138   6.874   3.885   2.583 -1.1254  0.5316 -0.0469
  192SAPI    HB22139   6.731   3.892   2.667  0.0022  0.2982  1.0638
  192SAPI    C222140   6.862   3.738   2.746  0.3721 -0.8443 -0.4888
  192SAPI    HS22141   6.941   3.665   2.719  0.9927  0.2923 -1.8629
  192SAPI   O2122142   6.752   3.674   2.821 -0.4452 -0.4289  0.0082
  192SAPI   C2122143   6.799   3.596   2.920  0.2967  0.7068  0.5292
  192SAPI   O2222144   6.912   3.555   2.923  0.2848 -0.6305 -0.6312
  192SAPI   C2222145   6.693   3.551   3.019  0.4649  0.8663 -0.5329
  192SAPI   H2R22146   6.654   3.637   3.077 -0.0822  0.0419  0.3579
  192SAPI   H2S22147   6.608   3.519   2.954 -0.8539  0.0528  1.4901
  192SAPI    C322148   6.939   3.841   2.843  0.4509 -0.4759  0.7130
  192SAPI    HX22149   7.008   3.895   2.775 -0.0499  0.4731  0.9319
  192SAPI    HY22150   7.001   3.793   2.921 -0.0354  2.0500  2.8304
  192SAPI   O3122151   6.848   3.928   2.924  0.2305 -0.0572 -0.3595
  192SAPI   C3122152   6.871   4.058   2.920  0.2556 -0.3883  0.3688
  192SAPI   O3222153   6.977   4.109   2.880 -0.2090  0.3079  0.3881
  192SAPI   C3222154   6.758   4.137   2.976  0.1368 -0.4610 -0.2209
  192SAPI   H2X22155   6.701   4.074   3.047  0.2239 -0.7369 -0.3930
  192SAPI   H2Y22156   6.693   4.164   2.890  0.3897  0.5523 -0.1061
  192SAPI   C2322157   6.741   3.417   3.096  0.3424 -0.4408 -0.1287
  192SAPI   H3R22158   6.818   3.449   3.168 -0.5886 -0.3691  0.8641
  192SAPI   H3S22159   6.784   3.342   3.025 -3.2623 -1.8283 -1.0993
  192SAPI   C2422160   6.620   3.350   3.169 -0.0604  0.0098  0.4064
  192SAPI   H4R22161   6.532   3.345   3.101  0.0024 -1.3429  0.4121
  192SAPI   H4S22162   6.590   3.418   3.252 -0.3281 -2.3085  2.3131
  192SAPI   C2522163   6.646   3.217   3.224 -0.0211  0.6560 -0.4015
  192SAPI   H5R22164   6.643   3.144   3.142  0.1123  0.8784 -0.6072
  192SAPI   C2622165   6.674   3.179   3.350  0.2684 -0.1967  0.1345
  192SAPI   H6R22166   6.684   3.073   3.376  1.2631 -0.1099  0.1797
  192SAPI   C2722167   6.689   3.272   3.466  1.1769  0.2713 -0.1218
  192SAPI   H7R22168   6.649   3.374   3.448  1.1718  0.0326 -1.5279
  192SAPI   H7S22169   6.798   3.270   3.489  1.1351 -0.4501  0.0364
  192SAPI   C2822170   6.603   3.221   3.586 -0.2734  0.8291  0.1193
  192SAPI   H8R22171   6.495   3.242   3.590 -0.5920 -0.7951  0.8286
  192SAPI   C2922172   6.655   3.152   3.690 -0.1670  0.2754 -0.1948
  192SAPI   H9R22173   6.578   3.120   3.761 -0.8447  0.0499 -1.0169
  192SAPI  C21022174   6.799   3.103   3.720  0.1829 -1.0649 -0.2485
  192SAPI  H10R22175   6.852   3.181   3.779  0.3331 -0.8576 -0.6540
  192SAPI  H10S22176   6.863   3.102   3.629  1.0089  3.5286  0.0218
  192SAPI  C21122177   6.792   2.965   3.782 -0.4182 -0.6612 -0.2708
  192SAPI  H11R22178   6.817   2.888   3.708  2.3617 -2.7792  2.5840
  192SAPI  C21222179   6.774   2.931   3.913 -0.2366 -0.0006 -0.3840
  192SAPI  H12R22180   6.775   2.824   3.938 -2.5206  0.2348  0.9019
  192SAPI  C21322181   6.730   3.028   4.026 -0.2561  0.8473  0.8099
  192SAPI  H13R22182   6.646   3.082   3.978 -0.5496  0.3623  0.7726
  192SAPI  H13S22183   6.812   3.101   4.044 -0.1614  0.9157  0.1228
  192SAPI  C21422184   6.686   2.958   4.157  0.2014 -0.1248  0.0248
  192SAPI  H14R22185   6.744   2.872   4.192 -0.9847  0.4449  3.8944
  192SAPI  C21522186   6.583   2.993   4.238 -0.2891 -0.1701  0.0334
  192SAPI  H15R22187   6.562   2.937   4.330 -0.4360 -1.2542 -0.6432
  192SAPI  C21622188   6.487   3.108   4.232  0.6919 -0.0678 -0.8105
  192SAPI  H16R22189   6.383   3.069   4.238  0.8418 -0.4809 -0.8979
  192SAPI  H16S22190   6.498   3.156   4.132 -2.4479 -1.7716 -2.1167
  192SAPI  C21722191   6.522   3.219   4.331  0.4198 -0.5489 -0.4492
  192SAPI  H17R22192   6.526   3.174   4.433 -0.1009 -0.1712 -0.2569
  192SAPI  H17S22193   6.449   3.303   4.327  1.8859  0.7904 -0.0555
  192SAPI  C21822194   6.655   3.293   4.288 -0.0020 -0.0840 -0.1633
  192SAPI  H18R22195   6.636   3.324   4.182 -0.0735 -1.2653 -0.5050
  192SAPI  H18S22196   6.744   3.229   4.300 -1.6831 -3.0920 -2.2927
  192SAPI  C21922197   6.669   3.419   4.370  0.0232 -0.5045 -0.1193
  192SAPI  H19R22198   6.773   3.454   4.384 -0.2371  0.5122 -0.6239
  192SAPI  H19S22199   6.623   3.411   4.471 -1.4670  0.1251 -0.7140
  192SAPI  C22022200   6.587   3.542   4.304  0.2045 -0.9699  0.0999
  192SAPI  H20R22201   6.642   3.580   4.215 -1.8803  0.7292 -0.5666
  192SAPI  H20S22202   6.584   3.626   4.377  2.0206  0.7322 -1.6435
  192SAPI  H20T22203   6.482   3.515   4.278  0.0936 -1.6060  1.1495
  192SAPI   C3322204   6.811   4.260   3.064  0.5058 -0.3709  0.9051
  192SAPI   H3X22205   6.869   4.325   2.996 -1.8587 -0.1049 -1.0223
  192SAPI   H3Y22206   6.879   4.224   3.144 -0.7719 -0.7641  1.8416
  192SAPI   C3422207   6.702   4.345   3.108  0.9451 -0.0243 -1.0145
  192SAPI   H4X22208   6.614   4.342   3.041 -0.7266  2.4823  0.8672
  192SAPI   H4Y22209   6.738   4.450   3.102 -1.4680  1.0164  0.8061
  192SAPI   C3522210   6.662   4.299   3.253 -0.4412  0.6338 -0.3043
  192SAPI   H5X22211   6.752   4.323   3.312 -0.1277 -0.2503 -0.3955
  192SAPI   H5Y22212   6.654   4.188   3.251 -0.4019  0.6345 -1.6689
  192SAPI   C3622213   6.543   4.375   3.308 -0.3954  0.2305 -0.1155
  192SAPI   H6X22214   6.446   4.360   3.257  0.2536 -0.6208 -1.1319
  192SAPI   H6Y22215   6.559   4.485   3.309 -3.2696  0.7130  0.2011
  192SAPI   C3722216   6.528   4.340   3.455  0.7056  0.3544 -0.4889
  192SAPI   H7X22217   6.624   4.358   3.508  2.4560 -3.2375 -2.0935
  192SAPI   H7Y22218   6.522   4.229   3.465  4.1641  0.0009 -1.1795
  192SAPI   C3822219   6.407   4.420   3.515 -0.8294 -0.0124 -0.2734
  192SAPI   H8X22220   6.313   4.367   3.491 -1.5982  1.6659 -1.0815
  192SAPI   H8Y22221   6.395   4.508   3.449 -2.0249 -1.3114 -1.8745
  192SAPI   C3922222   6.415   4.454   3.663  0.3230 -0.4192  0.1735
  192SAPI   H9X22223   6.516   4.498   3.680 -0.9072  2.5789  0.3625
  192SAPI   H9Y22224   6.408   4.357   3.715 -1.1171 -0.9233 -0.8756
  192SAPI  C31022225   6.306   4.543   3.714  0.3684  0.4536  0.3263
  192SAPI  H10X22226   6.331   4.645   3.679 -0.2634  0.3376 -0.5064
  192SAPI  H10Y22227   6.310   4.543   3.825  2.2956  0.4613  0.2890
  192SAPI  C31122228   6.163   4.517   3.658 -0.4930  0.5668  0.5193
  192SAPI  H11X22229   6.134   4.411   3.675 -1.7581  0.9403  0.8688
  192SAPI  H11Y22230   6.157   4.512   3.548 -3.5273 -1.1420  0.6207
  192SAPI  C31222231   6.065   4.608   3.706 -0.2390  0.4931  0.3736
  192SAPI  H12X22232   5.958   4.586   3.685 -0.1981  1.7104 -1.2725
  192SAPI  H12Y22233   6.076   4.713   3.671  1.1434  0.4254  0.5755
  192SAPI  C31322234   6.064   4.613   3.862  0.1278  0.6660 -0.2885
  192SAPI  H13X22235   5.971   4.668   3.890 -1.1660 -1.4888 -0.1052
  192SAPI  H13Y22236   6.153   4.676   3.884  0.1012  0.3326  0.8061
  192SAPI  C31422237   6.052   4.485   3.943 -0.0555  0.0355 -0.0204
  192SAPI  H14X22238   6.119   4.401   3.914 -0.8147 -1.0709  1.3438
  192SAPI  H14Y22239   5.947   4.448   3.946  0.1387 -0.5302 -0.0729
  192SAPI  C31522240   6.096   4.508   4.088 -0.3097  0.0135  0.2176
  192SAPI  H15X22241   6.198   4.550   4.098  0.1039 -1.0751  0.7327
  192SAPI  H15Y22242   6.094   4.410   4.140 -0.0986 -0.8180 -1.2769
  192SAPI  C31622243   6.010   4.610   4.165  0.4101  0.6850 -0.0316
  192SAPI  H16X22244   5.997   4.705   4.110  0.3698  0.5722 -0.2188
  192SAPI  H16Y22245   6.074   4.637   4.251 -0.0869 -0.2088  0.6430
  192SAPI  C31722246   5.873   4.553   4.210  0.2318  0.0801  0.1571
  192SAPI  H17X22247   5.883   4.469   4.281  1.9371  0.8001  0.8249
  192SAPI  H17Y22248   5.826   4.517   4.116  0.5812 -0.0404  0.0241
  192SAPI  C31822249   5.784   4.654   4.281 -0.4334 -0.0477 -0.1883
  192SAPI  H18X22250   5.832   4.689   4.375 -1.7812 -2.4488  1.4955
  192SAPI  H18Y22251   5.687   4.613   4.315 -0.2885  0.1371  0.4580
  192SAPI  H18Z22252   5.765   4.739   4.212  0.5043  0.3366  0.0127
  193SOD    SOD22253   0.577   5.469   2.342  0.0059  0.0743  0.1572
  194SOD    SOD22254   2.502   2.710   2.486 -0.1877  0.1494 -0.4587
  195SOD    SOD22255   6.126   4.804   1.299  0.6486  0.4626 -0.4607
  196SOD    SOD22256   4.189   1.327   6.977  0.1140 -0.1333  0.4039
  197SOD    SOD22257   3.626   0.954   2.054 -0.1896  0.4512 -0.0550
  198SOD    SOD22258   0.893   4.566   0.040  0.3678 -0.2446  0.3111
  199SOD    SOD22259   6.573   4.973   2.430 -0.3046  0.2230  0.1876
  200SOD    SOD22260   0.751   1.836   2.303  0.2058 -0.1005  0.2599
  201SOD    SOD22261   0.941   2.930   7.221  0.5514  0.4435  0.0091
  202SOD    SOD22262   0.111   3.701   6.957  0.1655  0.4831 -0.5729
  203SOD    SOD22263   5.282   6.514   1.978  0.0917 -0.0738 -0.5449
  204SOD    SOD22264   4.042   5.099   7.997 -0.2443  0.3206  0.0731
  205SOD    SOD22265   5.252   3.956   7.620 -0.6324  0.2549  0.4563
  206SOD    SOD22266   4.476   0.873   1.477  0.3642 -0.2865  0.0248
  207SOD    SOD22267   4.484   0.093   1.998  0.2885  0.8059 -0.1413
  208SOD    SOD22268   4.548   3.220   6.584  0.3064  0.0136 -0.0104
  209SOD    SOD22269   2.467   3.809   8.067 -0.0636 -0.3717  0.0443
  210SOD    SOD22270   2.162   6.278   2.380 -0.4258  0.0673 -0.0917
  211SOD    SOD22271   5.546   1.729   2.215 -0.5881 -0.0620  0.3430
  212SOD    SOD22272   5.655   5.663   6.977 -0.4554  0.2084  0.2734
  213SOD    SOD22273   3.696   3.988   7.177 -0.1983 -0.1980  0.3429
  214SOD    SOD22274   5.301   6.784   0.768 -0.2004  0.3184 -0.3410
  215SOD    SOD22275   2.852   4.609   0.617 -0.1829  0.0157 -0.2355
  216SOD    SOD22276   0.815   6.607   6.998  0.3993  0.2221  0.4815
  217SOD    SOD22277   4.660   1.946   7.105 -0.2053  0.1478 -0.0066
  218SOD    SOD22278   0.123   4.205   2.744 -0.3012  0.2490  0.2871
  219SOD    SOD22279   3.925   5.641   7.383 -0.4261 -0.4288 -0.0320
  220SOD    SOD22280   0.704   0.489   6.880  0.2826 -0.3493 -0.1920
  221SOD    SOD22281   3.381   0.162   1.447  0.1233  0.0972  0.0452
  222SOD    SOD22282   3.560   3.051   1.316  0.1457 -0.4967 -0.2416
  223SOD    SOD22283   3.141   2.119   7.558  0.0780  0.2358  0.7155
  224SOD    SOD22284   6.011   2.953   7.029 -0.0420 -0.5643  0.5634
  225SOD    SOD22285   1.600   5.206   0.879  0.5915  0.1296  0.2660
  226SOD    SOD22286   4.750   5.017   0.291  0.4095 -0.2092 -0.1796
  227SOD    SOD22287   3.921   4.898   6.640  0.0778  0.0715 -0.0674
  228SOD    SOD22288   3.472   5.142   1.746  0.1865 -0.0192 -0.2770
  229SOD    SOD22289   0.948   3.800   6.859  0.0841  0.5647 -0.2881
  230SOD    SOD22290   3.327   5.872   7.321  0.6788 -0.0885 -0.5657
  231SOD    SOD22291   0.471   0.989   1.365  0.7202  0.3114 -0.1835
  232SOD    SOD22292   4.168   5.107   1.605 -0.4542 -0.0492  0.6539
  233SOD    SOD22293   6.745   6.556   1.919  0.3353  0.5790  0.3640
  234CLA    CLA22294   2.847   6.118   7.878  0.0180  0.2863 -0.1333
  235CLA    CLA22295   5.144   1.844   0.883  0.0257 -0.0156  0.4154
  236CLA    CLA22296   4.917   0.583   1.635 -0.0853 -0.0430  0.3083
  237CLA    CLA22297   0.089   2.418   1.299 -0.0138  0.2818  0.2410
  238CLA    CLA22298   6.540   3.277   1.526  0.1401 -0.0401  0.2512
  239CLA    CLA22299   4.081   5.385   8.010 -0.0794 -0.0256 -0.1896
  240CLA    CLA22300   0.676   6.132   7.497 -0.2002  0.1147  0.0166
  241CLA    CLA22301   2.916   3.224   1.372  0.1017  0.0763  0.2215
  242CLA    CLA22302   1.958   6.524   0.837 -0.0971 -0.0361  0.1510
  243CLA    CLA22303   0.082   1.717   1.173  0.1947 -0.2074 -0.0015
  244CLA    CLA22304   5.654   4.255   0.432 -0.0124 -0.2033 -0.2845
  245CLA    CLA22305   2.945   4.160   1.396  0.0579  0.0943 -0.0690
  246CLA    CLA22306   1.141   2.578   8.005  0.2245  0.1931  0.3686
  247CLA    CLA22307   1.775   5.534   8.049  0.1586 -0.0209 -0.6168
  248CLA    CLA22308   0.494   4.705   7.363 -0.2559 -0.0485 -0.4081
  249CLA    CLA22309   3.528   1.940   7.303  0.8087  0.0336 -0.1889
  250CLA    CLA22310   0.889   0.113   0.887  0.6394  0.3968  0.0261
  251TIP3   OH222311   3.961   3.290   8.253  0.5226  0.6615  0.5064
  251TIP3    H122312   3.973   3.218   8.192  0.8435 -0.0586  1.4064
  251TIP3    H222313   3.867   3.308   8.250  0.3781 -0.0468  0.5387
  252TIP3   OH222314   5.763   0.647   8.250 -0.6303  0.3789 -0.3737
  252TIP3    H122315   5.733   0.654   8.341 -0.6629  1.1353 -0.4361
  252TIP3    H222316   5.692   0.600   8.205 -0.2025 -0.8252  0.1700
  253TIP3   OH222317   1.825   2.588   0.821  0.3382  0.1022  0.3420
  253TIP3    H122318   1.808   2.516   0.759 -1.8236 -0.3565  1.3793
  253TIP3    H222319   1.854   2.660   0.765 -2.0703 -0.1044 -1.3626
  254TIP3   OH222320   1.385   3.391   7.999 -0.1995  0.0195  0.2184
  254TIP3    H122321   1.476   3.364   8.010 -0.3340 -1.1360 -1.1694
  254TIP3    H222322   1.335   3.310   8.005 -1.2842  0.7581  1.9990
  255TIP3   OH222323   4.417   4.888   0.619 -0.3142  0.2475 -0.0411
  255TIP3    H122324   4.468   4.857   0.693  0.1586 -2.4952 -1.3846
  255TIP3    H222325   4.403   4.810   0.565 -2.9347  1.5893 -1.5069
  256TIP3   OH222326   0.985   3.864   0.321 -0.1664 -0.1727  0.2075
  256TIP3    H122327   0.976   3.823   0.234  0.6038  0.2371 -0.0745
  256TIP3    H222328   0.917   3.931   0.322 -1.1120 -1.0971  0.4796
  257TIP3   OH222329   0.910   0.611   7.653 -0.3144 -0.4877  0.3684
  257TIP3    H122330   0.923   0.628   7.560  1.9467  2.8121  1.1000
  257TIP3    H222331   0.823   0.645   7.672  0.0915  0.9250 -0.1861
  258TIP3   OH222332   3.350   0.997   0.400 -0.1458 -0.3196 -0.2728
  258TIP3    H122333   3.440   1.029   0.407 -0.3484  0.3718 -0.7257
  258TIP3    H222334   3.347   0.955   0.313 -0.3805  0.0655 -0.4530
  259TIP3   OH222335   3.801   4.893   1.588 -0.1721 -0.1796 -0.5695
  259TIP3    H122336   3.791   4.978   1.632 -0.9124 -0.4751 -0.1380
  259TIP3    H222337   3.733   4.893   1.520 -1.1205 -0.9738  0.3459
  260TIP3   OH222338   6.553   5.473   1.338  0.2598 -0.4132 -0.6533
  260TIP3    H122339   6.617   5.515   1.394 -2.3206  0.0973  2.1971
  260TIP3    H222340   6.578   5.381   1.337  0.8152 -0.2867  0.6881
  261TIP3   OH222341   1.172   4.712   8.062 -0.0750  0.2461  0.0885
  261TIP3    H122342   1.236   4.670   8.005 -0.8759 -0.5432 -0.2528
  261TIP3    H222343   1.215   4.792   8.093  1.0611 -0.2684 -0.1361
  262TIP3   OH222344   6.312   5.652   7.752  0.0583  0.0098 -0.0125
  262TIP3    H122345   6.381   5.608   7.801 -0.5144 -1.0924 -0.1789
  262TIP3    H222346   6.340   5.647   7.660  0.9031  1.6662  0.1174
  263TIP3   OH222347   4.312   4.711   1.469  0.3142 -0.5408  0.2029
  263TIP3    H122348   4.403   4.681   1.461  0.5895  0.5513 -1.1049
  263TIP3    H222349   4.319   4.794   1.517  0.0403 -0.3115 -0.1539
  264TIP3   OH222350   3.608   1.270   2.305 -0.4504  0.9739 -0.1923
  264TIP3    H122351   3.603   1.185   2.262 -1.6612  0.3739  1.0544
  264TIP3    H222352   3.524   1.312   2.285 -0.7084  1.0069  0.8665
  265TIP3   OH222353   6.987   4.708   7.860 -0.0408  0.1230  0.0043
  265TIP3    H122354   6.896   4.688   7.880 -0.4867 -0.4958 -2.3696
  265TIP3    H222355   6.987   4.800   7.835  0.0245  0.1690  0.1707
  266TIP3   OH222356   1.200   5.350   1.494  0.2562  0.9474 -0.1375
  266TIP3    H122357   1.195   5.410   1.569 -0.7423  2.2198 -1.1671
  266TIP3    H222358   1.206   5.407   1.418  1.2226 -0.3229 -1.0503
  267TIP3   OH222359   4.144   5.510   1.589  0.9224  0.5299 -0.3068
  267TIP3    H122360   4.126   5.507   1.683 -3.0777 -1.3992 -0.9244
  267TIP3    H222361   4.122   5.600   1.564 -0.1939  0.4533  0.3249
  268TIP3   OH222362   6.834   2.340   6.514  0.0951  0.1975  0.1822
  268TIP3    H122363   6.797   2.420   6.478 -0.6467 -0.7162 -1.1833
  268TIP3    H222364   6.928   2.346   6.496  0.2071  1.2125  1.0416
  269TIP3   OH222365   4.191   1.431   1.661  0.0886 -0.0115 -0.2084
  269TIP3    H122366   4.202   1.411   1.754  2.4270 -0.6154 -0.5541
  269TIP3    H222367   4.206   1.525   1.654  0.4732 -0.0591 -0.0336
  270TIP3   OH222368   0.173   4.804   7.450 -0.1296 -0.2548  0.0663
  270TIP3    H122369   0.259   4.779   7.416  0.3180  1.2299 -0.0083
  270TIP3    H222370   0.130   4.846   7.376 -0.2770  0.4386  0.5306
  271TIP3   OH222371   0.908   6.809   0.836 -0.0957 -0.4554 -0.2504
  271TIP3    H122372   0.824   6.788   0.795  0.2811 -0.5898 -0.9652
  271TIP3    H222373   0.912   6.905   0.836 -1.4596 -0.2951  2.2963
  272TIP3   OH222374   2.456   4.430   7.951  0.3115 -0.3917  0.4484
  272TIP3    H122375   2.437   4.504   8.009 -1.5408 -0.7482  0.3608
  272TIP3    H222376   2.385   4.368   7.967  1.7873 -2.1427  0.4556
  273TIP3   OH222377   3.970   2.635   8.115  0.1900  0.3061 -0.3544
  273TIP3    H122378   3.997   2.700   8.179  0.1615  1.7210 -1.7341
  273TIP3    H222379   4.005   2.666   8.032  1.4922 -2.2340 -0.8709
  274TIP3   OH222380   5.184   1.247   8.324 -0.2061 -0.3360  0.0087
  274TIP3    H122381   5.196   1.301   8.246 -0.9622 -0.1114  0.0448
  274TIP3    H222382   5.134   1.302   8.385 -1.5653 -1.2798 -0.1973
  275TIP3   OH222383   1.522   3.829   6.747  0.0298  0.1350  0.2599
  275TIP3    H122384   1.447   3.778   6.777 -0.3846 -0.8479 -2.1507
  275TIP3    H222385   1.535   3.800   6.656  1.4570  2.4366 -0.3531
  276TIP3   OH222386   1.009   3.763   6.379  0.3561 -0.5404 -0.3698
  276TIP3    H122387   1.085   3.754   6.321  0.7317 -2.8626  0.3826
  276TIP3    H222388   1.014   3.853   6.411  1.5979 -0.0013 -1.9282
  277TIP3   OH222389   2.897   0.923   6.871  0.0509  0.7120  0.7202
  277TIP3    H122390   2.890   0.838   6.827 -0.6228  0.8636  0.5109
  277TIP3    H222391   2.926   0.983   6.803  0.1296  0.7296  0.7691
  278TIP3   OH222392   1.078   5.617   1.952  0.2423  0.3926  0.0930
  278TIP3    H122393   1.148   5.556   1.975 -0.8320 -0.6050  0.8619
  278TIP3    H222394   1.029   5.629   2.034 -0.4290  1.1406 -0.4015
  279TIP3   OH222395   2.267   6.073   7.892 -0.4808 -0.1804  0.4931
  279TIP3    H122396   2.188   6.127   7.888 -0.1020  0.3426 -1.1054
  279TIP3    H222397   2.339   6.135   7.879  0.0574 -0.8918 -0.0285
  280TIP3   OH222398   3.913   3.903   7.107 -0.1478 -0.2587  0.0352
  280TIP3    H122399   3.898   3.865   7.021  0.7668 -1.1288  0.2431
  280TIP3    H222400   3.974   3.843   7.150  0.3915  0.8173  0.8242
  281TIP3   OH222401   2.953   0.931   0.778  0.1338 -0.3804 -0.0242
  281TIP3    H122402   3.020   0.956   0.714  1.0872 -0.4856  0.8997
  281TIP3    H222403   2.905   1.012   0.796 -0.1717 -0.3618 -0.8995
  282TIP3   OH222404   4.290   4.939   0.240  0.1266 -0.2312  0.2856
  282TIP3    H122405   4.272   4.890   0.321  0.4247  0.6639  0.9113
  282TIP3    H222406   4.204   4.972   0.213 -0.0433 -0.9056 -0.0219
  283TIP3   OH222407   0.718   0.957   7.939  0.4118 -0.3000  0.4256
  283TIP3    H122408   0.779   1.030   7.943  0.4817  0.0714 -3.6628
  283TIP3    H222409   0.691   0.953   7.848 -2.2085 -3.3176  1.1626
  284TIP3   OH222410   5.566   5.226   8.284 -0.2668  0.0312  0.2142
  284TIP3    H122411   5.518   5.181   8.215 -1.0768  0.5381  0.4376
  284TIP3    H222412   5.549   5.175   8.363 -1.9289  1.1721  0.6537
  285TIP3   OH222413   1.159   4.835   1.295  0.0694  0.5764 -0.0974
  285TIP3    H122414   1.184   4.919   1.256  1.4847  0.2412  0.0353
  285TIP3    H222415   1.227   4.774   1.267 -0.5105 -0.3573  0.4548
  286TIP3   OH222416   0.600   4.748   1.685 -0.1983  0.1579  0.0036
  286TIP3    H122417   0.621   4.835   1.719  0.2052  0.3163 -0.6299
  286TIP3    H222418   0.661   4.689   1.728 -0.0919  0.2722  0.0086
  287TIP3   OH222419   4.140   5.291   0.601  0.3878 -0.1521 -0.1736
  287TIP3    H122420   4.062   5.345   0.612 -0.1310 -0.9648  0.2476
  287TIP3    H222421   4.206   5.351   0.566 -0.7900  0.2628 -1.8033
  288TIP3   OH222422   3.999   1.432   8.179  0.1872  0.1688  0.1584
  288TIP3    H122423   4.083   1.439   8.226 -0.5738  1.6441  1.4157
  288TIP3    H222424   3.937   1.404   8.246 -0.4067 -0.5508 -0.6784
  289TIP3   OH222425   1.384   2.547   0.240  0.1927  0.6558 -0.1077
  289TIP3    H122426   1.477   2.536   0.263  0.1754  0.5761 -0.0745
  289TIP3    H222427   1.339   2.559   0.323  0.0869  0.0387 -0.0682
  290TIP3   OH222428   0.189   2.250   0.404  0.1484  0.1704 -0.3140
  290TIP3    H122429   0.270   2.300   0.412 -0.9154  1.7666  1.1109
  290TIP3    H222430   0.124   2.314   0.376 -0.5927 -1.1595 -1.7875
  291TIP3   OH222431   6.388   3.913   7.329  0.1138 -0.0918  0.1732
  291TIP3    H122432   6.381   3.906   7.234  1.6194 -2.1079  0.1509
  291TIP3    H222433   6.325   3.981   7.352  0.2827  1.0358 -2.3264
  292TIP3   OH222434   4.844   0.176   1.626  0.4514 -0.7532  0.2501
  292TIP3    H122435   4.856   0.208   1.715  1.1821 -1.5645  0.4591
  292TIP3    H222436   4.762   0.216   1.597  0.9046  0.6169  0.7741
  293TIP3   OH222437   1.423   6.404   2.066  0.1817  0.9100 -0.2926
  293TIP3    H122438   1.428   6.435   2.157 -0.4970  0.3395 -0.0469
  293TIP3    H222439   1.329   6.394   2.050  0.3073  0.8758 -1.0176
  294TIP3   OH222440   0.147   3.975   8.346 -0.2349 -0.8501  0.1530
  294TIP3    H122441   0.165   3.894   8.299  1.5993 -0.5993  0.3530
  294TIP3    H222442   0.234   4.011   8.366 -1.0007  1.1142  0.1335
  295TIP3   OH222443   3.982   6.346   2.198 -0.0179  0.4031  0.1830
  295TIP3    H122444   3.919   6.287   2.157  0.0615  0.9006 -0.6713
  295TIP3    H222445   4.067   6.306   2.182 -0.0406  0.1672  0.6108
  296TIP3   OH222446   3.551   6.949   1.852 -0.1642  0.3390 -0.5394
  296TIP3    H122447   3.483   6.882   1.852  0.1095  0.0490 -1.1939
  296TIP3    H222448   3.604   6.929   1.930 -1.1530  0.9267  0.3077
  297TIP3   OH222449   0.062   5.787   1.115  0.0048  0.4572 -0.2430
  297TIP3    H122450   0.098   5.810   1.029 -0.5931 -0.2749 -0.7088
  297TIP3    H222451   0.134   5.744   1.161 -0.3606 -1.4593 -1.3589
  298TIP3   OH222452   2.629   6.788   1.723  0.0606  0.1440 -0.5125
  298TIP3    H122453   2.627   6.786   1.819  1.0714  0.2477 -0.4792
  298TIP3    H222454   2.552   6.738   1.696  0.0490 -0.3126  0.3456
  299TIP3   OH222455   2.411   5.503   1.632  0.0779 -0.1790 -0.2325
  299TIP3    H122456   2.488   5.517   1.577 -0.0190  0.7232 -0.1524
  299TIP3    H222457   2.445   5.508   1.722  0.3046 -2.0181 -0.1658
  300TIP3   OH222458   6.614   2.195   1.679  0.7961  0.1889  0.4427
  300TIP3    H122459   6.667   2.261   1.634  1.7481 -0.0139  1.2412
  300TIP3    H222460   6.672   2.157   1.744  1.2436 -3.4519 -1.7913
  301TIP3   OH222461   5.241   6.661   1.577 -0.0545  0.3510 -0.4092
  301TIP3    H122462   5.283   6.674   1.492 -0.3515  0.0861 -0.6011
  301TIP3    H222463   5.298   6.705   1.639  0.7684 -0.4124 -0.6035
  302TIP3   OH222464   5.135   6.627   7.794 -0.2880 -0.1825  0.3429
  302TIP3    H122465   5.124   6.561   7.862  0.4740  0.4721  1.1287
  302TIP3    H222466   5.063   6.611   7.733 -0.4239 -1.3908  0.7914
  303TIP3   OH222467   6.008   6.037   1.965 -0.1101  0.2049  0.6003
  303TIP3    H122468   6.053   6.104   1.912 -0.5711  0.0428 -0.0026
  303TIP3    H222469   5.972   6.086   2.039  0.6939  0.4041  0.8722
  304TIP3   OH222470   2.153   3.438   7.723 -0.5526 -0.2525  0.1580
  304TIP3    H122471   2.124   3.460   7.811 -0.7723 -1.3828  0.3914
  304TIP3    H222472   2.226   3.377   7.737  1.6990  2.1384 -0.4126
  305TIP3   OH222473   3.261   0.777   7.914 -0.0347  0.6318  0.1690
  305TIP3    H122474   3.231   0.845   7.852 -0.2480 -1.0522 -1.6686
  305TIP3    H222475   3.194   0.709   7.908 -0.3353  0.6343  2.7200
  306TIP3   OH222476   1.341   6.016   0.802  0.1366  0.3130 -0.1347
  306TIP3    H122477   1.326   6.023   0.708  0.2153  0.1115 -0.1636
  306TIP3    H222478   1.277   6.075   0.842 -1.3354 -1.1725 -0.1964
  307TIP3   OH222479   3.930   4.924   7.881 -0.1150 -0.2469  0.0180
  307TIP3    H122480   3.975   4.853   7.927  1.3867  0.2018 -0.6701
  307TIP3    H222481   3.927   4.896   7.790 -1.8436 -0.5292  0.1301
  308TIP3   OH222482   1.886   0.802   1.789  0.2892  0.2114 -0.2894
  308TIP3    H122483   1.828   0.866   1.831 -1.1422 -1.2376  0.0214
  308TIP3    H222484   1.839   0.719   1.795  2.1290 -0.9070 -0.6270
  309TIP3   OH222485   4.455   5.754   0.475  0.2371 -0.2210 -0.2165
  309TIP3    H122486   4.372   5.720   0.442 -0.8693 -0.2115  2.3565
  309TIP3    H222487   4.433   5.837   0.517  1.7023  0.1337 -0.0798
  310TIP3   OH222488   4.135   2.140   2.712 -0.0001 -0.0252  0.3450
  310TIP3    H122489   4.183   2.057   2.723 -2.6172 -1.9841 -1.8211
  310TIP3    H222490   4.062   2.134   2.773 -0.4851  0.4802 -0.1749
  311TIP3   OH222491   1.555   0.228   1.883  0.4308  0.6490 -0.3291
  311TIP3    H122492   1.538   0.138   1.913 -1.3188  1.2511  0.6121
  311TIP3    H222493   1.650   0.236   1.885  0.6114 -1.0746 -0.0908
  312TIP3   OH222494   6.791   2.439   1.812 -1.0349 -0.3825 -0.6048
  312TIP3    H122495   6.711   2.438   1.864 -1.8817  2.0872 -1.7109
  312TIP3    H222496   6.762   2.424   1.722 -0.1198 -0.4833 -0.8986
  313TIP3   OH222497   4.256   6.000   0.615  0.1021  0.2032 -0.1591
  313TIP3    H122498   4.169   5.994   0.574 -0.0965 -1.3750  0.4553
  313TIP3    H222499   4.275   6.094   0.615 -1.5685  0.5790 -0.3766
  314TIP3   OH222500   0.268   2.142   0.154  0.2705  0.2180 -0.4961
  314TIP3    H122501   0.286   2.165   0.245  0.7451 -0.6006 -0.3687
  314TIP3    H222502   0.337   2.185   0.104  0.7651 -0.3724 -0.3298
  315TIP3   OH222503   2.351   2.217   1.112  0.0705  0.0101  0.0280
  315TIP3    H122504   2.296   2.190   1.039 -0.3076  0.9420 -0.0369
  315TIP3    H222505   2.350   2.142   1.171 -1.3217  0.0311  0.0627
  316TIP3   OH222506   1.038   0.025   7.526  0.6203  0.2218  0.2425
  316TIP3    H122507   1.080   0.078   7.459 -1.0767  1.7985  0.3394
  316TIP3    H222508   1.070  -0.064   7.511  3.0944  1.1410 -0.3004
  317TIP3   OH222509   3.783   1.669   0.397 -0.3228 -0.2289  0.3478
  317TIP3    H122510   3.735   1.721   0.461  0.6315  0.5525  0.4604
  317TIP3    H222511   3.875   1.682   0.420 -0.0331 -2.9673  1.1623
  318TIP3   OH222512   6.082   2.237   0.588  0.1073  0.1769  0.0852
  318TIP3    H122513   6.011   2.173   0.601 -0.6119  0.8051 -0.6308
  318TIP3    H222514   6.134   2.232   0.668 -1.7863  0.9631  1.4415
  319TIP3   OH222515   2.865   6.669   7.635  0.4094  0.1382 -0.1125
  319TIP3    H122516   2.943   6.657   7.689  1.9190  1.9954 -1.7278
  319TIP3    H222517   2.835   6.757   7.656 -0.2577  0.0676 -0.7467
  320TIP3   OH222518   5.065   5.682   1.860 -0.3486 -0.6564 -0.3412
  320TIP3    H122519   5.007   5.705   1.933 -0.4214  0.0489 -0.6104
  320TIP3    H222520   5.007   5.680   1.784  0.0599  0.6624 -0.7169
  321TIP3   OH222521   4.998   4.108   0.269 -0.8610  0.1386  0.5505
  321TIP3    H122522   5.059   4.170   0.229  0.6952 -1.7612 -0.1645
  321TIP3    H222523   4.915   4.123   0.224 -0.0808  0.5931 -0.7706
  322TIP3   OH222524   2.501   6.292   1.820  0.3554 -0.1922  0.6523
  322TIP3    H122525   2.517   6.347   1.897 -1.6321  1.9712 -0.3547
  322TIP3    H222526   2.555   6.331   1.751 -1.5229  1.0225 -0.2261
  323TIP3   OH222527   2.805   6.159   6.872 -0.0398  0.2898  0.2836
  323TIP3    H122528   2.812   6.217   6.948  0.9483  1.8145 -0.8997
  323TIP3    H222529   2.769   6.214   6.803 -0.9351 -1.0659 -0.3801
  324TIP3   OH222530   2.280   3.100   2.333  0.0410 -0.1610 -0.0263
  324TIP3    H122531   2.235   3.133   2.255  0.7304  0.0290 -0.3587
  324TIP3    H222532   2.237   3.144   2.406 -2.3749 -2.2622 -0.0344
  325TIP3   OH222533   0.029   2.914   7.884 -0.0555 -1.1052  0.1564
  325TIP3    H122534  -0.026   2.973   7.833  1.5137  0.1742 -0.1479
  325TIP3    H222535  -0.033   2.861   7.935 -1.5542  1.4154  1.1445
  326TIP3   OH222536   5.171   5.453   7.266  0.1912 -0.2221  0.3751
  326TIP3    H122537   5.265   5.468   7.259  0.5155 -2.5862 -1.9276
  326TIP3    H222538   5.158   5.422   7.355  1.7540 -0.6219  0.4912
  327TIP3   OH222539   1.261   0.524   1.143  0.6674  0.3852 -0.6731
  327TIP3    H122540   1.354   0.503   1.156  0.3081 -1.2299 -0.5344
  327TIP3    H222541   1.216   0.441   1.153 -0.8988  1.2808  0.0303
  328TIP3   OH222542   6.153   6.090   2.426 -0.6063  0.3387  0.2548
  328TIP3    H122543   6.185   6.006   2.395 -0.2931  1.0176 -1.3591
  328TIP3    H222544   6.068   6.101   2.384 -0.3002  1.1485 -0.1940
  329TIP3   OH222545   5.302   2.850   8.048 -0.9752  0.8257 -0.2905
  329TIP3    H122546   5.238   2.786   8.017 -1.0094  0.5744  0.2741
  329TIP3    H222547   5.377   2.839   7.991 -0.7126 -0.2119  0.2313
  330TIP3   OH222548   5.805   1.673   1.715  0.0360  0.3112  0.4810
  330TIP3    H122549   5.725   1.621   1.714 -0.4933  1.0757 -1.2957
  330TIP3    H222550   5.869   1.620   1.668  0.3770 -0.0115  1.3077
  331TIP3   OH222551   3.208   2.501   1.768  0.1301 -0.1736 -0.2658
  331TIP3    H122552   3.242   2.583   1.804  0.2521 -1.0319  1.6654
  331TIP3    H222553   3.113   2.514   1.765 -0.1376 -0.8106  2.5230
  332TIP3   OH222554   5.612   5.910   0.353  0.3740 -0.0618  0.7893
  332TIP3    H122555   5.684   5.881   0.297  1.4301  0.1488  2.0001
  332TIP3    H222556   5.564   5.973   0.300  0.7939 -0.5605 -0.2089
  333TIP3   OH222557   5.415   3.727   1.792  0.1780 -0.5144 -0.0926
  333TIP3    H122558   5.472   3.672   1.845 -0.1247 -0.4584  0.2938
  333TIP3    H222559   5.326   3.701   1.816 -0.0354 -2.2819 -2.4004
  334TIP3   OH222560   1.182   3.871   8.304  0.4605 -0.2364  0.2811
  334TIP3    H122561   1.231   3.951   8.283 -0.5537  0.1174 -0.8002
  334TIP3    H222562   1.111   3.868   8.240  0.0276 -1.6123  0.7882
  335TIP3   OH222563   2.746   6.258   0.554  0.0223  0.0611 -0.2233
  335TIP3    H122564   2.766   6.303   0.472 -0.3655 -0.1472 -0.4349
  335TIP3    H222565   2.658   6.287   0.577  0.9080  1.8037  1.2683
  336TIP3   OH222566   5.849   6.853   0.019  0.0432  0.0491  0.1102
  336TIP3    H122567   5.773   6.800  -0.007  0.4839 -1.2460  1.3569
  336TIP3    H222568   5.822   6.943   0.001 -2.7497 -0.1067  2.6295
  337TIP3   OH222569   5.978   4.867   8.259  0.0237  0.1354 -0.2397
  337TIP3    H122570   6.061   4.907   8.233 -1.0407  1.6133 -1.5971
  337TIP3    H222571   6.000   4.810   8.332  2.2712  0.2634 -0.7510
  338TIP3   OH222572   2.336   1.036   7.512  0.1146  0.0580  0.0116
  338TIP3    H122573   2.243   1.057   7.522 -0.0071 -0.7327  0.6024
  338TIP3    H222574   2.379   1.121   7.505 -0.7264  0.4232 -0.9951
  339TIP3   OH222575   5.984   5.646   0.777  0.0547  0.2849  0.4124
  339TIP3    H122576   6.053   5.592   0.738 -0.8037  0.0746 -0.8911
  339TIP3    H222577   6.026   5.729   0.797  0.4270  0.6417 -1.6143
  340TIP3   OH222578   4.467   2.018   1.806  0.2213  0.3380 -0.5980
  340TIP3    H122579   4.404   2.065   1.861  0.0953  0.4790 -0.8591
  340TIP3    H222580   4.552   2.053   1.831  0.1848  0.2267 -0.3214
  341TIP3   OH222581   3.874   0.232   7.152  0.7063  0.3689 -0.1941
  341TIP3    H122582   3.939   0.229   7.223  0.2384  0.1270  0.2319
  341TIP3    H222583   3.790   0.231   7.197  0.3987 -0.0259 -0.7645
  342TIP3   OH222584   2.906   4.880   1.567 -0.3928 -0.0011  0.1548
  342TIP3    H122585   2.860   4.886   1.650 -2.7621  1.0117 -1.1395
  342TIP3    H222586   2.888   4.792   1.535 -1.9258  0.5316 -0.5512
  343TIP3   OH222587   4.503   4.616   0.072 -0.4531  0.1376 -0.1462
  343TIP3    H122588   4.421   4.665   0.061 -0.1920  0.7496  0.5395
  343TIP3    H222589   4.552   4.633  -0.008 -0.4381  0.8646  0.0104
  344TIP3   OH222590   2.327   1.534   6.978 -0.6672 -0.1954 -0.8507
  344TIP3    H122591   2.393   1.599   6.954  0.6681 -1.7503 -1.6076
  344TIP3    H222592   2.373   1.473   7.035 -1.6388 -0.9407 -0.8348
  345TIP3   OH222593   6.962   1.715   6.139  0.3144  0.2103  0.1343
  345TIP3    H122594   6.988   1.688   6.051  2.5139  0.4242  0.6558
  345TIP3    H222595   7.004   1.651   6.197 -2.7609 -1.1826  1.0211
  346TIP3   OH222596   3.102   6.787   2.385  0.4599 -0.0931  0.0466
  346TIP3    H122597   3.165   6.750   2.448 -1.2878 -1.7748  0.9159
  346TIP3    H222598   3.054   6.853   2.435 -0.4146 -0.8961  0.3099
  347TIP3   OH222599   4.174   0.027   2.274 -0.7991 -0.3240 -0.9483
  347TIP3    H122600   4.187   0.065   2.360 -1.5412  0.0858 -1.0151
  347TIP3    H222601   4.135   0.097   2.221 -0.2290 -0.5228 -1.6586
  348TIP3   OH222602   3.540   4.043   1.152  0.0052  0.4599  0.5040
  348TIP3    H122603   3.455   4.071   1.115 -0.3958  0.2085  1.2169
  348TIP3    H222604   3.522   4.030   1.245  0.3955 -1.3179  0.3559
  349TIP3   OH222605   0.506   1.528   7.275  0.4856 -0.4473  0.3175
  349TIP3    H122606   0.566   1.600   7.293 -1.4789  1.1008  1.0175
  349TIP3    H222607   0.463   1.512   7.359  2.0425 -3.6865  0.6606
  350TIP3   OH222608   5.180   5.965   7.926  0.2805 -0.1227 -0.3107
  350TIP3    H122609   5.241   6.011   7.870  0.4295 -0.9826 -0.8708
  350TIP3    H222610   5.174   6.019   8.005 -1.2415  2.0194 -1.7653
  351TIP3   OH222611   3.794   0.727   6.719  0.1111 -0.2358 -0.5252
  351TIP3    H122612   3.733   0.800   6.725 -0.9418 -1.1446  0.1593
  351TIP3    H222613   3.875   0.760   6.757  0.1703  1.0825 -1.7137
  352TIP3   OH222614   0.652   2.465   6.974 -0.2073  0.0857 -0.0621
  352TIP3    H122615   0.700   2.441   6.894  0.2237 -0.1325  0.2588
  352TIP3    H222616   0.698   2.419   7.044 -1.2175 -0.5818  0.1904
  353TIP3   OH222617   1.574   0.951   8.069  0.2635  0.6747  0.9939
  353TIP3    H122618   1.665   0.965   8.094  1.2439  0.0698 -1.8520
  353TIP3    H222619   1.574   0.867   8.023 -1.7523  0.6264  0.9776
  354TIP3   OH222620   6.699   3.302   7.694 -0.1438  0.2616  0.5342
  354TIP3    H122621   6.763   3.233   7.677 -0.1296  0.8312 -2.2921
  354TIP3    H222622   6.650   3.309   7.612 -3.0105  0.7311  2.1763
  355TIP3   OH222623   0.655   5.805   7.683 -0.4665 -0.3590 -0.4944
  355TIP3    H122624   0.751   5.807   7.686 -0.4173 -1.3954 -0.8854
  355TIP3    H222625   0.634   5.803   7.590 -0.9053  0.7155 -0.4263
  356TIP3   OH222626   5.612   1.473   1.512 -0.1880 -0.5086  0.0899
  356TIP3    H122627   5.657   1.503   1.432  1.9297 -0.4567  1.2179
  356TIP3    H222628   5.525   1.512   1.506  0.2159  0.2457 -1.7493
  357TIP3   OH222629   1.684   2.921   0.519  0.0108 -0.1001 -0.0340
  357TIP3    H122630   1.762   2.870   0.541  0.7213  0.5195 -1.0513
  357TIP3    H222631   1.689   2.997   0.577 -0.8920 -0.9887  1.2718
  358TIP3   OH222632   5.089   1.780   2.747  0.4197 -0.3828 -0.1610
  358TIP3    H122633   5.126   1.856   2.703 -2.0975  0.7660 -0.5104
  358TIP3    H222634   5.158   1.714   2.745  2.6488  1.7967 -0.0241
  359TIP3   OH222635   5.094   3.096   8.024  0.0036 -0.0593  0.3488
  359TIP3    H122636   5.142   3.060   8.098  1.0255  0.8073  0.1297
  359TIP3    H222637   5.111   3.035   7.952 -0.3288 -0.4678  0.6137
  360TIP3   OH222638   4.757   3.138   7.033  0.0047  0.0963  0.3697
  360TIP3    H122639   4.705   3.102   7.104 -1.1913 -1.3826 -1.1838
  360TIP3    H222640   4.822   3.070   7.014  0.3052  0.4668  0.0492
  361TIP3   OH222641   1.549   4.851   0.360 -0.5249  0.3544  0.0459
  361TIP3    H122642   1.489   4.854   0.434  0.9722 -0.0714  1.3438
  361TIP3    H222643   1.493   4.844   0.283 -2.1367  1.0258  1.1142
  362TIP3   OH222644   0.431   5.562   8.283 -0.8840 -0.0397  0.5112
  362TIP3    H122645   0.349   5.612   8.277 -2.1132 -2.0662 -0.9987
  362TIP3    H222646   0.424   5.497   8.213  2.8029  0.7434 -0.7930
  363TIP3   OH222647   0.908   6.814   7.008 -0.2664  0.4671 -0.0375
  363TIP3    H122648   0.874   6.900   7.031  1.3527  1.5618 -1.4077
  363TIP3    H222649   1.003   6.823   7.017  0.0654 -0.6125 -1.8756
  364TIP3   OH222650   2.351   4.623   0.302 -0.5086 -0.0278 -0.0478
  364TIP3    H122651   2.442   4.648   0.288 -0.4839  0.1557  0.3941
  364TIP3    H222652   2.341   4.539   0.257 -0.2133  0.1124 -0.3769
  365TIP3   OH222653   1.043   3.345   8.288 -0.0604 -0.6741 -0.0091
  365TIP3    H122654   0.971   3.301   8.334  0.6930 -0.5585  1.3525
  365TIP3    H222655   1.104   3.275   8.267  0.1360 -0.5750  0.2257
  366TIP3   OH222656   2.833   5.024   8.127  0.4456  0.5267 -0.1893
  366TIP3    H122657   2.928   5.023   8.113  0.5161  1.0098  0.2206
  366TIP3    H222658   2.811   5.117   8.129  0.1615  0.4471  1.0396
  367TIP3   OH222659   6.551   0.200   8.018 -0.1609  0.3793  0.2405
  367TIP3    H122660   6.543   0.218   7.924  0.6156 -0.1350  0.0663
  367TIP3    H222661   6.562   0.105   8.023  0.4451  0.4742  0.8012
  368TIP3   OH222662   0.519   2.065   7.305  0.1649 -0.3886 -0.5045
  368TIP3    H122663   0.524   2.009   7.382 -0.2769  0.4664  0.1455
  368TIP3    H222664   0.572   2.019   7.239  0.7788 -0.9763  0.3875
  369TIP3   OH222665   5.408   1.842   7.702  0.3231  0.1119  0.1666
  369TIP3    H122666   5.349   1.767   7.695 -0.8684  1.0379 -0.0527
  369TIP3    H222667   5.489   1.813   7.661 -0.4213 -0.7634 -0.7305
  370TIP3   OH222668   2.977   4.358   7.110 -0.1032 -0.4966  0.1588
  370TIP3    H122669   2.902   4.410   7.082  0.8607  2.1348  2.0031
  370TIP3    H222670   3.040   4.365   7.038 -0.2116  0.4985  0.1439
  371TIP3   OH222671   3.752   2.917   1.900  0.5459 -0.4346 -0.2345
  371TIP3    H122672   3.720   3.006   1.911 -2.7096 -1.2392 -1.6304
  371TIP3    H222673   3.764   2.884   1.989  0.7237  1.0420  0.3106
  372TIP3   OH222674   2.739   1.868   7.256  0.2936 -0.2477 -0.4876
  372TIP3    H122675   2.709   1.958   7.267  0.1747 -0.4690  1.2843
  372TIP3    H222676   2.801   1.872   7.184 -0.0523  1.1681 -0.7356
  373TIP3   OH222677   6.361   5.483   2.121  0.6232  0.6005 -0.6456
  373TIP3    H122678   6.453   5.504   2.139  0.3083  1.8484 -0.4052
  373TIP3    H222679   6.312   5.539   2.181 -0.2925 -0.6768 -0.1586
  374TIP3   OH222680   0.229   3.996   2.741  0.5951  0.2869 -0.8670
  374TIP3    H122681   0.319   4.014   2.715  2.4696 -4.3122  1.2396
  374TIP3    H222682   0.200   3.927   2.681  0.1518 -1.1746  0.9051
  375TIP3   OH222683   4.650   5.288   7.093 -0.3242 -0.1600  0.0241
  375TIP3    H122684   4.713   5.261   7.159  0.5455 -2.5663 -1.6410
  375TIP3    H222685   4.613   5.370   7.126  1.3648 -0.3295  2.5573
  376TIP3   OH222686   6.601   5.907   1.186 -0.2135  0.4473  0.3096
  376TIP3    H122687   6.558   5.869   1.110 -1.2910  1.4302  0.3991
  376TIP3    H222688   6.647   5.833   1.227 -0.3361 -0.2613 -0.7934
  377TIP3   OH222689   5.417   6.339   0.215 -0.1302 -0.7999  0.0115
  377TIP3    H122690   5.357   6.269   0.242 -1.8627  0.8345  0.6591
  377TIP3    H222691   5.504   6.300   0.220 -0.7433 -2.0453  3.3786
  378TIP3   OH222692   6.193   1.431   2.079 -0.5576  0.4553  0.3861
  378TIP3    H122693   6.141   1.483   2.139 -1.0674  2.1022 -1.3924
  378TIP3    H222694   6.129   1.395   2.017  0.0961 -0.0874  0.0087
  379TIP3   OH222695   6.727   3.446   2.115 -0.3847  0.6797 -0.4198
  379TIP3    H122696   6.774   3.503   2.054 -0.3340  0.5242 -0.5271
  379TIP3    H222697   6.741   3.486   2.201 -0.7591  1.1033 -0.5499
  380TIP3   OH222698   0.432   5.074   0.401 -0.2304 -0.4702 -0.4399
  380TIP3    H122699   0.451   5.162   0.368 -0.1449 -0.7513 -1.1625
  380TIP3    H222700   0.337   5.074   0.415 -0.1010  0.0375  0.4775
  381TIP3   OH222701   4.208   6.685   6.658 -0.2854  0.1174 -0.2132
  381TIP3    H122702   4.245   6.606   6.698  0.4032  1.2554  1.5293
  381TIP3    H222703   4.164   6.730   6.730 -1.3995  0.9348 -1.3554
  382TIP3   OH222704   3.101   4.397   1.577 -0.5593 -0.5364  0.4435
  382TIP3    H122705   3.189   4.361   1.578  0.3991  1.6620  0.0899
  382TIP3    H222706   3.048   4.330   1.532  1.0482 -1.5745  0.0269
  383TIP3   OH222707   6.759   0.122   0.529 -0.2859  0.3768 -0.0153
  383TIP3    H122708   6.695   0.173   0.579 -1.5388  0.6532 -1.8255
  383TIP3    H222709   6.831   0.184   0.513 -1.1447  1.1724 -0.9339
  384TIP3   OH222710   4.206   4.443   0.572 -0.2827  0.3523 -0.0325
  384TIP3    H122711   4.244   4.394   0.500  0.7651 -0.3337  0.9601
  384TIP3    H222712   4.171   4.377   0.631  1.4314  0.7035  1.4819
  385TIP3   OH222713   0.794   2.974   1.821 -0.2078 -0.7292 -0.0151
  385TIP3    H122714   0.784   3.067   1.799  0.1867 -0.7757 -0.4047
  385TIP3    H222715   0.755   2.927   1.747  1.0942 -0.8866 -0.6345
  386TIP3   OH222716   6.436   2.941   0.743  0.2414 -0.2897  0.1559
  386TIP3    H122717   6.403   2.858   0.710 -1.8907  0.7490 -0.5311
  386TIP3    H222718   6.413   2.941   0.836  1.9127 -1.2008  0.5995
  387TIP3   OH222719   0.529   2.991   2.167 -0.2783 -0.1400  0.0974
  387TIP3    H122720   0.434   2.985   2.154 -0.1782 -0.5964 -0.4528
  387TIP3    H222721   0.542   3.076   2.209 -0.8694  0.2527 -0.4859
  388TIP3   OH222722   0.282   3.201   1.811 -0.0658 -0.1415  0.5776
  388TIP3    H122723   0.246   3.119   1.780 -3.2858 -0.2835  3.9160
  388TIP3    H222724   0.364   3.177   1.855  1.0672 -0.8392 -1.7925
  389TIP3   OH222725   4.923   2.712   0.622 -0.6578 -0.4644 -0.3358
  389TIP3    H122726   4.940   2.756   0.705  1.8989 -0.7661 -0.6237
  389TIP3    H222727   4.834   2.738   0.599 -0.7149  1.2074  1.5278
  390TIP3   OH222728   3.621   2.598   1.349  0.6286 -0.0678  0.5750
  390TIP3    H122729   3.699   2.576   1.401 -0.8134 -0.0174  2.9387
  390TIP3    H222730   3.551   2.602   1.414 -1.9451 -2.8585 -1.7813
  391TIP3   OH222731   2.566   5.794   7.721  0.2901  0.1409 -0.3029
  391TIP3    H122732   2.605   5.857   7.780  1.1096  0.2869 -0.9807
  391TIP3    H222733   2.589   5.825   7.633 -0.1056 -0.5709 -0.6746
  392TIP3   OH222734   2.827   4.512   8.133 -0.2218  0.0935  0.0575
  392TIP3    H122735   2.796   4.596   8.097  2.3549  2.1595  2.2015
  392TIP3    H222736   2.871   4.470   8.059 -2.3979  0.0772 -1.3258
  393TIP3   OH222737   4.109   1.941   0.943 -0.1549 -0.0837 -0.1043
  393TIP3    H122738   4.186   1.885   0.953  2.0311  2.7639  0.0209
  393TIP3    H222739   4.123   2.013   1.004 -2.6922  0.8466 -0.4885
  394TIP3   OH222740   5.311   1.050   1.088  0.4207 -0.2674 -0.0519
  394TIP3    H122741   5.297   0.959   1.116 -1.1593 -0.2596 -0.7145
  394TIP3    H222742   5.224   1.090   1.092  0.9345  0.9590 -0.6791
  395TIP3   OH222743   4.448   3.823   7.129  0.0770  0.0985 -0.6241
  395TIP3    H122744   4.429   3.752   7.067  0.0027  0.6088 -1.1850
  395TIP3    H222745   4.469   3.898   7.074 -1.9649  1.1289 -0.0789
  396TIP3   OH222746   3.287   1.190   6.906  0.0975  0.0153  0.3824
  396TIP3    H122747   3.287   1.206   7.001 -1.7568 -2.8889  0.9886
  396TIP3    H222748   3.199   1.214   6.878  0.6126  0.7800 -0.6364
  397TIP3   OH222749   5.524   6.867   0.761 -0.3816  0.2596 -0.1299
  397TIP3    H122750   5.531   6.954   0.801  0.3845  1.1083 -1.9642
  397TIP3    H222751   5.576   6.874   0.680 -0.0207 -2.0191 -0.1546
  398TIP3   OH222752   3.770   1.300   6.589  0.2623 -0.3643 -0.2080
  398TIP3    H122753   3.801   1.210   6.594  3.0095  0.5040 -0.2138
  398TIP3    H222754   3.776   1.333   6.679 -2.3701 -0.5904  0.1502
  399TIP3   OH222755   1.963   6.481   7.578 -0.1146 -0.9440 -0.6900
  399TIP3    H122756   1.922   6.518   7.656  0.7482  0.2004 -0.7615
  399TIP3    H222757   1.930   6.535   7.506  1.6388  0.1622 -0.7262
  400TIP3   OH222758   0.553   3.879   0.247 -0.3193  0.0952  0.4485
  400TIP3    H122759   0.554   3.950   0.183  1.9174 -0.5252 -0.2918
  400TIP3    H222760   0.496   3.911   0.317 -2.1861  1.1420 -1.4240
  401TIP3   OH222761   6.187   1.195   1.218  0.0348 -0.0911  0.6727
  401TIP3    H122762   6.217   1.256   1.286 -0.6362  1.8077 -0.6341
  401TIP3    H222763   6.092   1.210   1.214  0.1235  0.1933 -0.9623
  402TIP3   OH222764   6.800   1.612   7.493  0.4326 -0.1571 -0.0909
  402TIP3    H122765   6.714   1.602   7.452  0.0777  0.2042  0.5465
  402TIP3    H222766   6.858   1.641   7.422 -0.1134  0.2249 -0.3894
  403TIP3   OH222767   1.737   0.067   7.969 -0.7934  0.4781  0.3505
  403TIP3    H122768   1.646   0.075   7.997 -0.2573  1.3094  1.9195
  403TIP3    H222769   1.767   0.157   7.957 -0.0615  0.2243  0.2149
  404TIP3   OH222770   1.461   3.273   1.164 -0.2003  0.3501 -0.0733
  404TIP3    H122771   1.550   3.253   1.191 -0.8921 -1.6479  0.9222
  404TIP3    H222772   1.455   3.368   1.169  1.2477  0.3874  1.9546
  405TIP3   OH222773   5.881   0.856   7.348 -0.1926  0.4211 -0.5123
  405TIP3    H122774   5.938   0.932   7.355  0.2651  0.0539 -0.1858
  405TIP3    H222775   5.805   0.878   7.402  0.0237  0.5718 -0.2690
  406TIP3   OH222776   4.232   1.558   0.955 -0.2201 -0.2352  0.0403
  406TIP3    H122777   4.239   1.652   0.967  1.2101 -0.2840 -0.2275
  406TIP3    H222778   4.148   1.535   0.994 -1.4578  1.3816 -1.5122
  407TIP3   OH222779   2.915   6.039   1.786 -0.3884 -0.0229  0.4370
  407TIP3    H122780   2.918   5.976   1.858 -0.3106 -0.6070 -0.0630
  407TIP3    H222781   2.827   6.030   1.750 -0.4966  0.4179  0.5894
  408TIP3   OH222782   3.023   0.065   7.575  0.2792  0.9174  0.0809
  408TIP3    H122783   3.006   0.159   7.569 -1.5048  0.5564 -1.0255
  408TIP3    H222784   3.086   0.047   7.505  1.1337  1.3640  0.7110
  409TIP3   OH222785   5.279   4.174   0.520  0.4029  0.5193 -0.5226
  409TIP3    H122786   5.238   4.089   0.528  1.6979  0.0500  3.0914
  409TIP3    H222787   5.217   4.227   0.469 -1.8205 -1.7251 -0.3179
  410TIP3   OH222788   1.555   0.620   6.490  0.4280  0.2570 -0.6250
  410TIP3    H122789   1.565   0.713   6.469 -0.0756  1.1223  2.5202
  410TIP3    H222790   1.607   0.607   6.569  3.0401 -2.9565 -2.5826
  411TIP3   OH222791   5.183   1.009   8.153 -0.5300 -0.5972  0.7620
  411TIP3    H122792   5.201   1.091   8.199 -2.8205  0.1698  0.3847
  411TIP3    H222793   5.203   0.941   8.218  2.3014  0.1054  0.7850
  412TIP3   OH222794   0.914   5.881   7.673 -0.0889 -0.2651  0.1904
  412TIP3    H122795   0.967   5.860   7.597  0.1705 -0.6284  0.4682
  412TIP3    H222796   0.916   5.976   7.679  2.7695 -0.3227  1.7384
  413TIP3   OH222797   0.318   0.666   1.779 -0.5209 -0.0095 -0.4278
  413TIP3    H122798   0.401   0.712   1.764  0.5573 -1.7351 -0.1340
  413TIP3    H222799   0.284   0.649   1.692 -1.8686  2.7686 -0.5642
  414TIP3   OH222800   0.789   6.850   0.387 -0.3370 -0.5639 -0.5910
  414TIP3    H122801   0.702   6.810   0.398 -0.0453 -0.7258  1.4307
  414TIP3    H222802   0.821   6.862   0.476  1.9841 -1.0513 -1.2988
  415TIP3   OH222803   5.256   3.340   6.808 -0.0017  0.4342 -0.1200
  415TIP3    H122804   5.336   3.300   6.841 -0.0520  1.2677  1.0635
  415TIP3    H222805   5.243   3.300   6.722 -0.2900 -2.4216  1.1450
  416TIP3   OH222806   6.805   4.435   8.252  0.6186 -0.1536 -0.0696
  416TIP3    H122807   6.784   4.525   8.278  2.5317  0.7464 -1.3775
  416TIP3    H222808   6.793   4.434   8.157  3.0501 -0.4695 -0.4563
  417TIP3   OH222809   0.823   5.251   7.201  0.5358  0.0359 -0.0726
  417TIP3    H122810   0.825   5.192   7.276 -0.0436  0.8421  0.5986
  417TIP3    H222811   0.788   5.199   7.129 -0.1490 -0.3805  0.5612
  418TIP3   OH222812   6.021   1.514   7.253 -0.0832  0.0875 -0.5909
  418TIP3    H122813   5.943   1.547   7.299 -2.1153 -1.5217 -2.6474
  418TIP3    H222814   6.052   1.588   7.201 -0.9888  0.4385 -0.6470
  419TIP3   OH222815   1.960   4.458   6.223  0.1503 -0.2147 -0.7794
  419TIP3    H122816   1.871   4.441   6.253  0.6291 -0.4356  0.5565
  419TIP3    H222817   1.964   4.554   6.213  0.2744 -0.0240  0.8730
  420TIP3   OH222818   5.981   2.363   8.025 -0.0791  0.4886 -0.0277
  420TIP3    H122819   5.967   2.457   8.028  0.6477  0.5758  1.4675
  420TIP3    H222820   5.937   2.330   8.103  1.8572 -0.0648  0.8949
  421TIP3   OH222821   0.324   4.121   0.962 -0.2607 -0.4711 -0.3450
  421TIP3    H122822   0.379   4.179   0.911 -0.4485  0.1663  0.1666
  421TIP3    H222823   0.385   4.067   1.013 -0.0885  0.7186  0.7660
  422TIP3   OH222824   4.476   1.867   0.448 -0.3646 -0.1292 -0.4236
  422TIP3    H122825   4.520   1.793   0.406  1.1648  0.3235  0.3267
  422TIP3    H222826   4.448   1.833   0.533 -1.3398 -0.3514 -0.8108
  423TIP3   OH222827   1.035   0.647   7.900 -0.2965 -0.3853 -0.4640
  423TIP3    H122828   0.986   0.613   7.825  0.2787 -0.7463 -0.6865
  423TIP3    H222829   1.126   0.646   7.871 -0.3425  3.0076 -1.1477
  424TIP3   OH222830   0.001   2.769   1.910 -0.5245  0.3336  0.0069
  424TIP3    H122831  -0.079   2.799   1.952 -0.4163 -1.6748  1.8373
  424TIP3    H222832  -0.011   2.675   1.901  0.4237  0.3906 -2.5179
  425TIP3   OH222833   3.659   1.058   1.206  0.4756  0.1554 -0.3933
  425TIP3    H122834   3.621   1.028   1.124  1.5682 -0.2150 -0.7820
  425TIP3    H222835   3.753   1.060   1.190  0.7356 -0.1763  0.9193
  426TIP3   OH222836   3.634   3.435   1.544 -0.2295  0.7433 -0.8076
  426TIP3    H122837   3.542   3.409   1.549  0.2973 -0.9824  0.7440
  426TIP3    H222838   3.645   3.501   1.612 -1.0113  3.5748 -3.2050
  427TIP3   OH222839   4.747   4.813   1.496  0.3156 -0.3036 -0.5948
  427TIP3    H122840   4.825   4.791   1.446  0.9228 -0.2169  0.2988
  427TIP3    H222841   4.733   4.906   1.479  0.2877 -0.3601 -0.9001
  428TIP3   OH222842   2.515   5.780   0.588  0.4963 -0.5914 -0.2398
  428TIP3    H122843   2.557   5.796   0.503  0.2042 -0.6353 -0.3947
  428TIP3    H222844   2.421   5.783   0.569  0.4296 -1.3158 -0.0526
  429TIP3   OH222845   2.268   3.826   2.175 -1.1521 -0.1850  0.4032
  429TIP3    H122846   2.250   3.832   2.268  1.5710 -2.0333  1.1588
  429TIP3    H222847   2.341   3.886   2.161  0.1832 -1.8103  0.0665
  430TIP3   OH222848   2.785   0.989   1.116  0.1208 -0.1298  0.0377
  430TIP3    H122849   2.746   0.921   1.061 -1.8713  0.6889  0.3396
  430TIP3    H222850   2.817   1.055   1.054 -0.1736 -0.2027 -0.1951
  431TIP3   OH222851   6.963   1.067   7.864 -0.5980  0.2095  0.0558
  431TIP3    H122852   6.971   1.084   7.958  0.7608  2.6115 -0.4212
  431TIP3    H222853   6.884   1.114   7.838 -0.0776  0.9113 -0.2697
  432TIP3   OH222854   4.645   3.867   0.342 -0.6202 -0.3675  0.1533
  432TIP3    H122855   4.715   3.860   0.407 -0.6133 -1.7429  0.0273
  432TIP3    H222856   4.602   3.782   0.344 -0.9773 -0.2452 -1.2312
  433TIP3   OH222857   2.960   1.982   1.252 -0.1864  0.1604 -0.0373
  433TIP3    H122858   2.920   1.965   1.167  0.7281  0.2021 -0.4739
  433TIP3    H222859   2.924   1.913   1.309 -0.4181 -0.1616 -0.5680
  434TIP3   OH222860   1.268   5.784   1.606 -0.4990  0.2311 -0.4092
  434TIP3    H122861   1.315   5.718   1.555  0.1315  1.1924 -1.1021
  434TIP3    H222862   1.306   5.868   1.579 -0.2746  0.7911  1.5225
  435TIP3   OH222863   3.767   0.477   0.071  0.3207  0.0852  0.3647
  435TIP3    H122864   3.692   0.493   0.014  0.1131  0.7558  0.8148
  435TIP3    H222865   3.837   0.532   0.034  0.4651 -0.2125  0.1953
  436TIP3   OH222866   2.617   1.505   7.773  0.1155 -0.2924 -0.1850
  436TIP3    H122867   2.675   1.441   7.815  0.9734  0.0455 -0.8180
  436TIP3    H222868   2.580   1.555   7.845 -0.5712 -1.4823  0.3260
  437TIP3   OH222869   1.703   5.124   1.706  0.8195  0.2673 -0.2075
  437TIP3    H122870   1.699   5.041   1.659 -0.3875  0.2340 -0.0593
  437TIP3    H222871   1.742   5.101   1.791 -0.8761 -0.4331  0.4092
  438TIP3   OH222872   5.591   0.312   8.333  0.3055 -0.1219  0.2569
  438TIP3    H122873   5.679   0.273   8.341 -0.0626 -0.9025  0.6977
  438TIP3    H222874   5.588   0.347   8.245  0.2151 -2.2968 -0.6802
  439TIP3   OH222875   3.294   5.903   7.589 -0.2975  0.0702  0.7482
  439TIP3    H122876   3.210   5.856   7.593 -0.9475  1.0055 -0.7920
  439TIP3    H222877   3.280   5.981   7.642 -1.0485  1.0991 -0.8874
  440TIP3   OH222878   5.051   5.293   1.972  0.1873  0.2486  0.6290
  440TIP3    H122879   5.000   5.277   2.051  0.0175  0.5347  0.5802
  440TIP3    H222880   4.991   5.340   1.914 -0.1476 -1.2112 -0.2311
  441TIP3   OH222881   6.513   1.882   6.786  0.2767  0.4836  0.1933
  441TIP3    H122882   6.602   1.897   6.817  0.8999 -1.1359 -0.7149
  441TIP3    H222883   6.523   1.845   6.698 -1.3209  0.9648 -0.2358
  442TIP3   OH222884   2.158   6.445   1.644 -0.0561  0.1333  0.1888
  442TIP3    H122885   2.091   6.426   1.579 -0.4956 -0.0967  0.6951
  442TIP3    H222886   2.240   6.440   1.596 -0.3926  0.2984 -0.4146
  443TIP3   OH222887   0.371   3.661   7.862 -0.0168 -0.2683 -0.5617
  443TIP3    H122888   0.336   3.750   7.868 -0.9996 -0.5275 -1.9010
  443TIP3    H222889   0.299   3.604   7.889  0.1537 -0.7152 -1.0194
  444TIP3   OH222890   3.789   5.120   7.491 -0.0468 -0.7485 -0.4146
  444TIP3    H122891   3.879   5.148   7.508  0.3915 -0.6542 -2.6805
  444TIP3    H222892   3.784   5.032   7.529  0.0018  0.3883  2.4936
  445TIP3   OH222893   2.599   5.345   8.301  0.0360 -0.0164  0.2909
  445TIP3    H122894   2.513   5.308   8.282  0.1617  0.0043 -0.3420
  445TIP3    H222895   2.589   5.387   8.387 -0.6400  0.1634  0.1276
  446TIP3   OH222896   3.805   2.366   1.244  0.3530  0.8040  0.3415
  446TIP3    H122897   3.818   2.446   1.294 -0.1896  1.4471 -0.5249
  446TIP3    H222898   3.855   2.379   1.163 -0.5803  0.7186 -0.2700
  447TIP3   OH222899   6.621   3.070   6.896 -0.4801 -0.0496 -0.3590
  447TIP3    H122900   6.591   3.116   6.817  1.1337 -0.4841 -1.2503
  447TIP3    H222901   6.716   3.075   6.893 -0.3519 -1.0568  0.9829
  448TIP3   OH222902   6.371   1.311   1.668  0.6550 -0.6284  0.2130
  448TIP3    H122903   6.298   1.307   1.729 -0.7625  1.9075 -1.1597
  448TIP3    H222904   6.449   1.302   1.723 -0.5737 -3.9763  1.6620
  449TIP3   OH222905   3.673   6.549   7.813 -0.1605 -0.4593  0.2904
  449TIP3    H122906   3.687   6.572   7.905  0.1211  1.1082 -0.1149
  449TIP3    H222907   3.711   6.622   7.764 -1.6565 -0.5299 -1.0577
  450TIP3   OH222908   3.795   6.221   1.581  0.0807 -0.0750 -0.0378
  450TIP3    H122909   3.705   6.191   1.596  0.1927 -1.2571 -1.4515
  450TIP3    H222910   3.804   6.299   1.635 -1.2053 -0.9441  1.5109
  451TIP3   OH222911   1.663   2.204   7.218  0.4056 -0.0340  0.5197
  451TIP3    H122912   1.733   2.174   7.160  0.1234  0.1346  0.0902
  451TIP3    H222913   1.708   2.255   7.286  1.0925 -2.6218  2.1429
  452TIP3   OH222914   5.657   2.911   1.969 -0.0137  0.8834  0.5699
  452TIP3    H122915   5.628   2.886   1.881  0.8856  0.0889  0.4823
  452TIP3    H222916   5.576   2.919   2.019 -0.4969  0.6243 -0.1426
  453TIP3   OH222917   5.672   1.768   7.589 -0.0266 -0.4510  0.5279
  453TIP3    H122918   5.758   1.766   7.630 -0.1860 -0.8941  0.8484
  453TIP3    H222919   5.689   1.763   7.495  0.2865 -0.7437  0.6002
  454TIP3   OH222920   0.446   5.327   0.082  0.2981  0.0192 -0.6490
  454TIP3    H122921   0.477   5.410   0.045  0.1255 -0.0790 -1.0164
  454TIP3    H222922   0.353   5.343   0.099 -0.1086 -0.6102 -2.1928
  455TIP3   OH222923   4.464   6.215   1.817  0.1723  0.1010 -0.8556
  455TIP3    H122924   4.421   6.164   1.748 -1.5127 -0.1928  0.3395
  455TIP3    H222925   4.489   6.150   1.883  1.7892  0.3697 -1.1687
  456TIP3   OH222926   2.275   0.595   2.572 -0.2397 -0.2761  0.3270
  456TIP3    H122927   2.230   0.577   2.490  2.3183 -1.6072 -0.9172
  456TIP3    H222928   2.236   0.534   2.635 -1.5272  0.0378 -0.1504
  457TIP3   OH222929   3.745   4.321   8.237  0.1045 -0.0173 -0.0192
  457TIP3    H122930   3.819   4.378   8.258 -0.0554  0.0950  0.2459
  457TIP3    H222931   3.779   4.261   8.170  0.6172 -0.3513  0.5202
  458TIP3   OH222932   4.018   1.855   7.821  0.1407 -0.3290 -0.2341
  458TIP3    H122933   3.963   1.831   7.895  0.3237  2.9764  1.1382
  458TIP3    H222934   3.957   1.883   7.753  0.0484  0.5816  0.2183
  459TIP3   OH222935   1.374   4.684   6.830  0.6905 -0.4191 -0.3732
  459TIP3    H122936   1.464   4.660   6.854  0.2568 -2.0722 -0.2467
  459TIP3    H222937   1.361   4.643   6.745  0.2591  0.3993 -0.7127
  460TIP3   OH222938   3.871   1.364   0.451  0.3746 -0.3042  0.2364
  460TIP3    H122939   3.922   1.445   0.457 -0.2192 -0.0009  1.6698
  460TIP3    H222940   3.791   1.383   0.501  0.5385 -1.9818  1.1981
  461TIP3   OH222941   3.923   5.657   7.147  0.7069  0.2678 -0.3529
  461TIP3    H122942   3.894   5.616   7.066 -0.1667  0.0836  0.0394
  461TIP3    H222943   3.981   5.728   7.120  0.8477 -0.1342 -1.1091
  462TIP3   OH222944   3.098   3.344   2.370  0.1200  0.3244  0.4108
  462TIP3    H122945   3.157   3.336   2.445  1.1003  2.5743 -0.0435
  462TIP3    H222946   3.013   3.316   2.404  1.0901 -1.5239  1.5084
  463TIP3   OH222947   4.012   2.092   2.094 -0.0814  0.0969 -0.0837
  463TIP3    H122948   3.963   2.131   2.167  0.3096 -0.0260  0.2447
  463TIP3    H222949   3.992   2.149   2.019 -0.4934  0.2184  0.1133
  464TIP3   OH222950   1.679   1.797   6.420 -0.4693  0.3634  0.6914
  464TIP3    H122951   1.680   1.713   6.466  2.9215 -1.0912 -1.6501
  464TIP3    H222952   1.766   1.833   6.435 -1.5325  3.1138  0.8417
  465TIP3   OH222953   3.027   5.478   1.587  0.1687  0.3446  0.0299
  465TIP3    H122954   2.992   5.553   1.635 -1.5051 -2.1869  3.1864
  465TIP3    H222955   3.119   5.472   1.614 -0.7489 -1.0656  3.3355
  466TIP3   OH222956   0.505   6.084   8.281 -0.0825  0.0690 -0.5066
  466TIP3    H122957   0.456   6.075   8.363 -1.1916 -0.7138 -1.2212
  466TIP3    H222958   0.448   6.044   8.215  1.0573  0.1280 -1.5588
  467TIP3   OH222959   4.574   6.230   1.237  0.1057 -0.0392 -0.3244
  467TIP3    H122960   4.624   6.157   1.200 -0.9732 -0.5705 -0.7921
  467TIP3    H222961   4.488   6.223   1.196  0.0712  1.7104 -0.6463
  468TIP3   OH222962   1.984   6.426   1.452  0.0881  0.2261 -0.3387
  468TIP3    H122963   1.944   6.356   1.401 -0.4161  1.4531 -1.7181
  468TIP3    H222964   2.015   6.488   1.386  1.2689  0.9053  0.8173
  469TIP3   OH222965   2.958   5.057   1.846 -0.3485 -0.3961  0.0430
  469TIP3    H122966   3.030   5.120   1.841  0.7077 -1.5528  0.3167
  469TIP3    H222967   2.879   5.111   1.847  0.3071  0.8488 -3.2100
  470TIP3   OH222968   6.219   5.668   8.247  0.0682 -0.0754 -0.3612
  470TIP3    H122969   6.290   5.635   8.302 -1.6190 -2.7826  0.3471
  470TIP3    H222970   6.180   5.739   8.298  0.5570 -0.3863  0.4640
  471TIP3   OH222971   6.997   4.210   6.728  0.4859  0.5285 -0.0198
  471TIP3    H122972   7.009   4.118   6.704 -0.2575  0.1048  1.1754
  471TIP3    H222973   6.925   4.240   6.672  1.3934  0.6958 -1.1398
  472TIP3   OH222974   6.764   1.914   6.917 -0.3004 -0.2408 -0.0222
  472TIP3    H122975   6.824   1.934   6.845 -0.5995 -0.5597 -0.3630
  472TIP3    H222976   6.820   1.908   6.994 -0.0240  0.4733 -0.1609
  473TIP3   OH222977   1.175   0.213   2.325  0.0617  0.4749 -0.0219
  473TIP3    H122978   1.159   0.209   2.419  1.8051 -0.3401  0.2751
  473TIP3    H222979   1.139   0.131   2.291  1.5537 -0.3643  0.3294
  474TIP3   OH222980   2.277   5.892   1.888 -0.0787  0.4200 -0.3546
  474TIP3    H122981   2.253   5.833   1.817  1.6989  0.0305 -0.6832
  474TIP3    H222982   2.292   5.835   1.963  0.1394  0.6049 -0.2551
  475TIP3   OH222983   5.947   5.198   0.904  0.3464 -0.5510 -0.1457
  475TIP3    H122984   6.029   5.190   0.856 -0.3710 -2.6455 -1.1388
  475TIP3    H222985   5.890   5.131   0.866 -1.4355  0.0334  1.3215
  476TIP3   OH222986   5.287   0.976   1.576  0.2746 -0.5154 -0.5782
  476TIP3    H122987   5.275   1.026   1.495  2.1770  2.1083  0.5893
  476TIP3    H222988   5.229   1.019   1.639 -0.4512 -1.9086 -0.2560
  477TIP3   OH222989   6.451   2.605   2.467 -0.9836  0.3642 -0.0357
  477TIP3    H122990   6.534   2.584   2.424 -0.6188  0.5854  0.5469
  477TIP3    H222991   6.476   2.659   2.542 -1.7503  1.4087 -0.5087
  478TIP3   OH222992   4.184   3.783   7.157  0.2514 -0.8630 -0.1921
  478TIP3    H122993   4.184   3.805   7.064  1.7157 -1.8861 -0.4698
  478TIP3    H222994   4.267   3.817   7.190 -0.7513  0.5267  1.0443
  479TIP3   OH222995   1.969   1.730   1.134  0.0703 -0.6226 -0.4025
  479TIP3    H122996   1.983   1.696   1.045 -0.7010  0.0269 -0.7896
  479TIP3    H222997   1.879   1.761   1.133 -0.3145 -1.6309  0.9631
  480TIP3   OH222998   3.248   0.079   0.537  0.3168  0.6004  0.4718
  480TIP3    H122999   3.293   0.105   0.618  1.4172 -1.4270  0.5682
  480TIP3    H223000   3.286  -0.006   0.514 -1.0308  0.4305 -1.3850
  481TIP3   OH223001   0.010   0.224   0.892  0.9813 -0.1508  0.2900
  481TIP3    H123002  -0.035   0.308   0.898  2.4500  0.5736  2.3432
  481TIP3    H223003   0.030   0.214   0.799 -0.1907  1.1989 -0.1475
  482TIP3   OH223004   4.894   0.968   0.347 -0.2692 -0.1557  0.0510
  482TIP3    H123005   4.899   0.884   0.301 -1.0809  0.1440 -0.6206
  482TIP3    H223006   4.977   1.011   0.328 -1.1045  0.5774 -2.4387
  483TIP3   OH223007   3.359   4.567   0.061 -0.5394  0.4199  0.0007
  483TIP3    H123008   3.321   4.589  -0.024 -1.0009 -1.5553 -0.3417
  483TIP3    H223009   3.349   4.473   0.069  1.3473  0.2709  1.3715
  484TIP3   OH223010   5.532   3.202   6.567 -0.2906  0.2199  0.4359
  484TIP3    H123011   5.599   3.243   6.512 -0.9560  0.0460 -0.5380
  484TIP3    H223012   5.576   3.128   6.608  0.6245  1.2240  1.3312
  485TIP3   OH223013   4.540   3.792   1.539 -0.4876 -0.4107  0.4403
  485TIP3    H123014   4.517   3.771   1.449 -0.3519 -0.8087  0.4977
  485TIP3    H223015   4.636   3.797   1.539 -0.5230  0.3025  0.4071
  486TIP3   OH223016   5.599   4.454   8.181 -0.3960 -0.5432 -0.1834
  486TIP3    H123017   5.650   4.423   8.107 -1.0136  0.3182 -0.9989
  486TIP3    H223018   5.664   4.492   8.240 -0.1635  2.8961 -2.3645
  487TIP3   OH223019   6.405   2.534   8.006 -0.0681  0.3864 -0.1495
  487TIP3    H123020   6.419   2.451   7.960 -2.0292 -0.4725  0.6613
  487TIP3    H223021   6.451   2.524   8.089 -1.5543 -0.5794  0.6077
  488TIP3   OH223022   4.386   0.659   1.451  0.4387 -0.3596 -0.4926
  488TIP3    H123023   4.346   0.632   1.369  1.6864  0.1563 -1.2986
  488TIP3    H223024   4.393   0.578   1.502  0.3444 -0.8229 -1.1971
  489TIP3   OH223025   5.375   1.911   0.664 -0.1553  0.2769 -0.1635
  489TIP3    H123026   5.328   1.890   0.744  2.6903  0.3155  1.6736
  489TIP3    H223027   5.379   2.007   0.663 -0.6098  0.2988 -0.6617
  490TIP3   OH223028   4.622   2.656   8.272 -0.5820  0.0764  0.0189
  490TIP3    H123029   4.599   2.633   8.182 -0.7689  0.6833 -0.0995
  490TIP3    H223030   4.564   2.729   8.293 -1.0708 -0.5510  0.9037
  491TIP3   OH223031   2.654   4.692   2.008  0.0852  0.1434 -0.1266
  491TIP3    H123032   2.692   4.705   2.095 -1.8930  1.1252  0.6490
  491TIP3    H223033   2.704   4.750   1.951  1.5820 -0.7118  0.2613
  492TIP3   OH223034   6.523   6.073   0.593  0.7204 -0.4652  0.3698
  492TIP3    H123035   6.613   6.050   0.568  0.8018  0.6859 -0.4524
  492TIP3    H223036   6.476   5.990   0.592  1.2770 -0.7983 -1.3451
  493TIP3   OH223037   6.040   6.504   0.806  0.1327  0.2558  0.2379
  493TIP3    H123038   6.118   6.507   0.750 -0.3567  1.5817 -0.4369
  493TIP3    H223039   6.009   6.413   0.800  0.8804  0.0393 -0.5455
  494TIP3   OH223040   4.618   5.377   0.012  0.7201  0.1359 -0.4262
  494TIP3    H123041   4.639   5.470   0.017  1.2248  0.0210 -0.3325
  494TIP3    H223042   4.648   5.341   0.096  1.0134 -0.2032 -0.6731
  495TIP3   OH223043   0.012   1.819   8.249 -0.3277  0.1112 -0.1818
  495TIP3    H123044   0.054   1.886   8.302 -2.0874 -0.0320  1.4805
  495TIP3    H223045  -0.052   1.867   8.196  0.2637  0.0377 -0.9903
  496TIP3   OH223046   1.399   5.192   7.945  0.2057 -0.4738  0.3978
  496TIP3    H123047   1.346   5.188   7.865 -0.2181 -0.2450  0.6642
  496TIP3    H223048   1.489   5.200   7.913 -0.0410  0.6828 -0.0551
  497TIP3   OH223049   0.594   0.916   7.337  0.7691 -0.5509 -0.1189
  497TIP3    H123050   0.647   0.876   7.405  2.2368 -0.1746 -1.0111
  497TIP3    H223051   0.635   0.890   7.255 -0.0476  0.2816 -0.8224
  498TIP3   OH223052   1.310   4.981   7.499  0.0816  0.2775 -0.1878
  498TIP3    H123053   1.231   4.958   7.449 -0.1991  0.9806 -0.0809
  498TIP3    H223054   1.324   4.906   7.557 -0.3045 -0.0103 -0.4597
  499TIP3   OH223055   2.061   3.167   6.686  0.0463 -0.0698 -1.0648
  499TIP3    H123056   2.025   3.254   6.671 -0.4275  0.2091  1.2386
  499TIP3    H223057   2.004   3.108   6.637 -1.4505  0.6861 -0.2996
  500TIP3   OH223058   6.718   0.645   7.283 -0.4200 -0.5418 -0.3424
  500TIP3    H123059   6.748   0.614   7.198 -2.7525 -3.2611 -0.3116
  500TIP3    H223060   6.656   0.715   7.262 -0.3054 -0.5827 -0.8356
  501TIP3   OH223061   6.153   6.493   2.730  0.5565  0.2403  0.0752
  501TIP3    H123062   6.104   6.423   2.687  2.6323 -1.0861 -0.2514
  501TIP3    H223063   6.183   6.455   2.812  0.9819  1.0327  0.2940
  502TIP3   OH223064   0.197   3.715   0.372 -0.1775 -0.0711  0.1560
  502TIP3    H123065   0.222   3.748   0.459 -1.4435  0.8646  0.2012
  502TIP3    H223066   0.145   3.637   0.390  0.5849 -0.5960  0.1612
  503TIP3   OH223067   4.264   6.559   6.421  0.0472 -0.2711  0.0687
  503TIP3    H123068   4.228   6.605   6.497  0.4961  1.3458 -0.6595
  503TIP3    H223069   4.209   6.481   6.413 -1.5655  0.7435  0.6119
  504TIP3   OH223070   6.452   6.915   7.800  0.2004  0.6397  0.3152
  504TIP3    H123071   6.464   6.891   7.708  0.2222 -0.8236  0.6842
  504TIP3    H223072   6.541   6.928   7.833  0.2721 -0.2391  0.4827
  505TIP3   OH223073   5.974   3.105   8.010  0.2207 -0.0151  0.4668
  505TIP3    H123074   6.019   3.088   8.093  0.2721 -1.0999  0.2377
  505TIP3    H223075   5.955   3.198   8.011 -1.5099 -0.3256  2.5818
  506TIP3   OH223076   5.403   2.734   7.055 -0.5809 -0.3950 -0.2661
  506TIP3    H123077   5.311   2.725   7.030 -0.4136 -2.2942 -0.3570
  506TIP3    H223078   5.410   2.689   7.139  0.4499 -1.1900 -0.7545
  507TIP3   OH223079   3.656   3.676   1.726  0.1956  0.0523 -0.0231
  507TIP3    H123080   3.680   3.731   1.652 -0.6699  1.8680  0.9715
  507TIP3    H223081   3.729   3.685   1.787 -1.7808  3.9660  2.1321
  508TIP3   OH223082   1.391   3.288   1.834  0.8202 -0.3257 -0.6264
  508TIP3    H123083   1.412   3.266   1.925 -1.0495  0.9776  0.1910
  508TIP3    H223084   1.432   3.373   1.820  1.3039 -0.6319 -1.0899
  509TIP3   OH223085   5.127   3.952   0.568 -0.1946 -0.4781 -0.3159
  509TIP3    H123086   5.050   3.894   0.572 -1.1122  0.5973 -1.6884
  509TIP3    H223087   5.126   3.999   0.651  0.4295 -2.2120  0.7261
  510TIP3   OH223088   5.716   0.337   2.167 -0.4395  0.1782  0.3991
  510TIP3    H123089   5.653   0.355   2.097 -0.0933  0.0838  0.0601
  510TIP3    H223090   5.672   0.274   2.224  0.0160 -1.3061 -0.8238
  511TIP3   OH223091   3.124   6.539   0.372  0.6277  0.1226  0.2049
  511TIP3    H123092   3.096   6.586   0.293  1.1183  0.8828  0.4687
  511TIP3    H223093   3.109   6.447   0.352  2.2121  0.1593 -1.4122
  512TIP3   OH223094   4.609   4.913   0.957  0.1702 -0.2459  0.7919
  512TIP3    H123095   4.633   4.869   0.876 -0.7664  0.5610  0.0559
  512TIP3    H223096   4.646   4.858   1.026  3.2779  0.4049 -0.2015
  513TIP3   OH223097   1.631   2.628   7.375  0.7343  0.1416  0.1830
  513TIP3    H123098   1.590   2.542   7.381 -0.2362  0.5371 -0.5704
  513TIP3    H223099   1.724   2.610   7.360  0.6847 -0.7622  0.8646
  514TIP3   OH223100   1.108   1.706   1.821  0.6668 -0.3872  0.1459
  514TIP3    H123101   1.198   1.715   1.790  1.2149  0.7335  1.9134
  514TIP3    H223102   1.115   1.705   1.917 -1.1508 -1.0174  0.3166
  515TIP3   OH223103   1.741   4.179   7.480  0.1153  0.3055  0.6472
  515TIP3    H123104   1.652   4.150   7.499  0.2233  1.0845  2.5879
  515TIP3    H223105   1.796   4.105   7.507  0.0764 -0.7436 -1.8355
  516TIP3   OH223106   0.517   1.502   7.679 -0.3598  0.1884 -0.7565
  516TIP3    H123107   0.459   1.567   7.639  0.1254  1.1424  0.0493
  516TIP3    H223108   0.582   1.482   7.611 -2.2770 -1.8245 -2.1292
  517TIP3   OH223109   5.374   4.822   2.233  0.2686  0.3738  0.1778
  517TIP3    H123110   5.442   4.755   2.229 -0.4171 -0.4463  1.4135
  517TIP3    H223111   5.294   4.773   2.251 -0.1152  1.5521  1.9565
  518TIP3   OH223112   5.523   6.160   7.544 -0.6693  0.3251  0.2623
  518TIP3    H123113   5.602   6.118   7.509 -1.7386 -0.2539 -1.5485
  518TIP3    H223114   5.525   6.248   7.508 -1.1137  0.1407 -0.2184
  519TIP3   OH223115   1.375   5.627   1.383  0.5705 -0.7009  0.3963
  519TIP3    H123116   1.401   5.660   1.297 -0.7587 -2.6898 -0.8630
  519TIP3    H223117   1.447   5.570   1.410  1.4354  0.6763  1.1154
  520TIP3   OH223118   4.446   1.633   0.640 -0.4261 -0.6148 -0.2787
  520TIP3    H123119   4.506   1.632   0.565 -1.1547  0.9976 -0.9402
  520TIP3    H223120   4.485   1.573   0.703  1.5515 -0.1212 -0.9505
  521TIP3   OH223121   0.806   1.686   2.476 -0.3348 -0.0031  0.0586
  521TIP3    H123122   0.840   1.598   2.457  0.6588  0.7576 -2.0522
  521TIP3    H223123   0.789   1.685   2.570  0.9297 -2.0213  0.3439
  522TIP3   OH223124   1.338   4.100   1.074  0.7150 -0.3758  0.2598
  522TIP3    H123125   1.373   4.145   0.997 -0.2756 -0.1672 -0.0849
  522TIP3    H223126   1.249   4.133   1.082  0.7946 -0.4194  1.4889
  523TIP3   OH223127   4.395   6.459   0.892 -0.3705 -0.5411 -0.9525
  523TIP3    H123128   4.316   6.408   0.908 -0.0350 -0.9352 -0.5178
  523TIP3    H223129   4.402   6.516   0.969 -1.9381  1.7620 -2.4082
  524TIP3   OH223130   0.849   1.288   2.185 -0.2828  0.0005 -0.4195
  524TIP3    H123131   0.771   1.322   2.141  0.0081  3.2613  1.2985
  524TIP3    H223132   0.828   1.197   2.203 -2.7030  0.1286 -2.1068
  525TIP3   OH223133   6.616   3.921   0.242 -0.3608 -0.0840  0.2174
  525TIP3    H123134   6.612   3.833   0.203 -1.3311  0.0783 -0.0563
  525TIP3    H223135   6.530   3.935   0.280 -0.3982  0.9779 -0.2232
  526TIP3   OH223136   1.877   4.664   2.394 -0.1544  0.3096 -0.3040
  526TIP3    H123137   1.796   4.711   2.417 -0.7275 -1.5801  1.9605
  526TIP3    H223138   1.847   4.576   2.371  1.2514 -0.6684  1.3539
  527TIP3   OH223139   2.922   6.320   0.022  0.4083 -0.2419 -0.1315
  527TIP3    H123140   2.943   6.405   0.061  0.9421 -0.2309 -0.4314
  527TIP3    H223141   2.848   6.287   0.074  0.8326 -0.0399  0.6089
  528TIP3   OH223142   3.862   0.046   2.183  0.3998  0.0157 -0.4842
  528TIP3    H123143   3.912   0.127   2.184  0.0383  0.2644  1.1840
  528TIP3    H223144   3.882   0.005   2.268 -0.3549 -1.0410 -0.8027
  529TIP3   OH223145   3.331   1.755   8.006  0.2463  0.6246  0.8463
  529TIP3    H123146   3.287   1.787   7.927  1.1167  0.5696  0.3339
  529TIP3    H223147   3.283   1.675   8.028  1.0605 -0.3077 -0.6285
  530TIP3   OH223148   0.483   0.174   2.399  0.1058  0.0857  0.3950
  530TIP3    H123149   0.567   0.164   2.355 -0.5661 -1.1923 -0.7027
  530TIP3    H223150   0.439   0.090   2.385 -1.1741  0.5757  1.3088
  531TIP3   OH223151   2.510   4.029   2.383  0.3752  0.8732  0.1628
  531TIP3    H123152   2.596   4.013   2.421 -0.0611  0.3686  0.9709
  531TIP3    H223153   2.502   3.965   2.312  0.6980  0.9814  0.0288
  532TIP3   OH223154   3.743   2.304   0.254 -0.1917 -0.1606 -0.3091
  532TIP3    H123155   3.835   2.310   0.281 -0.4746  1.0592  0.4838
  532TIP3    H223156   3.716   2.216   0.281  0.7891 -0.6010 -0.7252
  533TIP3   OH223157   4.035   2.931   0.848 -0.0927  0.0491  0.0891
  533TIP3    H123158   4.071   3.004   0.897  1.6538 -0.7342  0.0450
  533TIP3    H223159   4.053   2.854   0.903 -3.0958 -0.2830  0.7887
  534TIP3   OH223160   3.416   3.072   7.845 -0.9225  0.4448 -0.4137
  534TIP3    H123161   3.506   3.055   7.871 -0.7575  0.2641 -1.1062
  534TIP3    H223162   3.395   3.005   7.781 -3.2961 -3.0081  3.4715
  535TIP3   OH223163   5.819   3.297   7.696 -0.6249  0.2568  0.1932
  535TIP3    H123164   5.832   3.350   7.774  2.7021  0.8191 -0.6073
  535TIP3    H223165   5.741   3.334   7.655 -0.2944  2.3806  1.3451
  536TIP3   OH223166   5.454   2.608   2.186 -0.4910 -0.5377 -0.3399
  536TIP3    H123167   5.395   2.615   2.261 -0.8100  0.4288 -0.6620
  536TIP3    H223168   5.532   2.565   2.220 -0.2940  0.6300  0.7600
  537TIP3   OH223169   3.447   4.428   1.114  0.7117  0.5344  0.4650
  537TIP3    H123170   3.421   4.520   1.123 -0.1731  0.4083 -0.5607
  537TIP3    H223171   3.391   4.381   1.177  0.0510  0.5346 -0.1063
  538TIP3   OH223172   3.130   6.798   1.369  0.4566 -0.0905  0.3073
  538TIP3    H123173   3.166   6.740   1.437  0.9268 -0.9617 -0.6531
  538TIP3    H223174   3.140   6.749   1.288  2.1127  1.8426 -0.7646
  539TIP3   OH223175   6.252   0.516   7.868  0.0212 -0.0354  0.2618
  539TIP3    H123176   6.191   0.568   7.921  0.8348 -0.2604  1.4618
  539TIP3    H223177   6.321   0.490   7.929  2.9256  2.6147 -1.6247
  540TIP3   OH223178   0.275   5.953   1.046 -0.1396  0.5620 -0.4744
  540TIP3    H123179   0.351   5.975   0.993  0.3713  0.8762  0.3718
  540TIP3    H223180   0.311   5.915   1.125 -0.8812  0.3617 -0.2231
  541TIP3   OH223181   5.510   6.613   2.347 -0.0195  0.2739 -0.2169
  541TIP3    H123182   5.530   6.616   2.440 -0.4229  1.2333 -0.1495
  541TIP3    H223183   5.594   6.632   2.304 -0.1037  1.1882 -0.0074
  542TIP3   OH223184   0.856   1.066   1.654 -0.2100  0.2591 -0.2304
  542TIP3    H123185   0.886   1.111   1.576  0.3898 -0.7515 -0.6007
  542TIP3    H223186   0.926   1.079   1.718 -0.7334  1.1493  0.1805
  543TIP3   OH223187   6.010   1.651   0.014 -0.5920  0.1177  0.0075
  543TIP3    H123188   6.095   1.616  -0.011 -1.0133 -0.8443 -0.1265
  543TIP3    H223189   5.979   1.698  -0.063 -0.1722  0.5117  0.0741
  544TIP3   OH223190   3.309   3.378   6.214  0.2997  0.1181 -0.4610
  544TIP3    H123191   3.328   3.287   6.193  0.5515 -0.3129  1.5022
  544TIP3    H223192   3.223   3.394   6.175  0.0732 -1.0836 -0.4853
  545TIP3   OH223193   0.276   2.757   2.632  0.1006  0.0554  0.3554
  545TIP3    H123194   0.279   2.676   2.579 -2.7707 -0.6030  1.0656
  545TIP3    H223195   0.191   2.796   2.612  0.5115  1.7629  1.7327
  546TIP3   OH223196   2.634   2.770   1.305 -0.7039  0.3056 -0.1097
  546TIP3    H123197   2.582   2.699   1.344 -1.0059  0.1893 -0.7144
  546TIP3    H223198   2.583   2.798   1.229  1.0048 -1.1203 -1.8803
  547TIP3   OH223199   1.599   5.437   0.479  0.2865 -0.3580 -0.4444
  547TIP3    H123200   1.653   5.473   0.409  2.3671  0.7317  1.5707
  547TIP3    H223201   1.524   5.495   0.485  0.0063 -0.5529 -1.8098
  548TIP3   OH223202   1.998   4.467   0.545 -0.1652 -0.7015 -0.3243
  548TIP3    H123203   2.004   4.535   0.612  1.5030 -0.6935 -0.4274
  548TIP3    H223204   2.011   4.514   0.462 -0.9784 -0.8856 -0.5663
  549TIP3   OH223205   1.507   1.706   2.644  0.2711 -0.4464 -0.0690
  549TIP3    H123206   1.596   1.688   2.614  0.0990 -3.3467  0.9215
  549TIP3    H223207   1.517   1.725   2.737 -0.2388 -2.5547  0.4676
  550TIP3   OH223208   3.427   6.996   6.343  0.0896  0.1465  0.0219
  550TIP3    H123209   3.353   6.975   6.285 -0.9566  1.0164  0.9965
  550TIP3    H223210   3.445   6.915   6.390  0.6736 -0.4536 -1.1822
  551TIP3   OH223211   6.444   2.227   7.400  0.2308 -0.2342 -0.1236
  551TIP3    H123212   6.367   2.274   7.366 -0.6067 -0.6708  1.0755
  551TIP3    H223213   6.467   2.275   7.479  0.6439 -0.6329 -0.0020
  552TIP3   OH223214   6.222   0.714   0.434 -0.5896 -0.3067 -0.2895
  552TIP3    H123215   6.173   0.631   0.432 -0.0192 -0.6458 -0.5988
  552TIP3    H223216   6.214   0.749   0.345  0.7599 -0.9987 -0.7188
  553TIP3   OH223217   1.578   0.652   1.915  0.0716  0.2519 -0.0110
  553TIP3    H123218   1.539   0.714   1.977  0.0460  0.0390  0.1898
  553TIP3    H223219   1.658   0.623   1.958  1.3922  1.9825 -1.1534
  554TIP3   OH223220   6.578   3.475   0.170 -0.0743 -0.0635 -0.1441
  554TIP3    H123221   6.618   3.464   0.256  0.1515 -1.0595 -0.3627
  554TIP3    H223222   6.560   3.385   0.141 -0.7734  0.2976 -0.8374
  555TIP3   OH223223   6.710   0.847   0.201 -0.2220  0.2274  0.9778
  555TIP3    H123224   6.671   0.814   0.120  0.8231 -0.6281  0.7976
  555TIP3    H223225   6.679   0.938   0.208  1.4969  1.1295 -1.6259
  556TIP3   OH223226   6.343   4.748   1.179 -0.0957  0.6498 -0.0568
  556TIP3    H123227   6.334   4.658   1.149 -2.5156  0.2814  1.4719
  556TIP3    H223228   6.359   4.799   1.100  1.5911 -1.1228 -0.9206
  557TIP3   OH223229   6.855   5.773   8.268 -0.0086  0.0047  0.2629
  557TIP3    H123230   6.795   5.804   8.336 -1.9199 -0.4171 -1.1542
  557TIP3    H223231   6.800   5.765   8.189  1.7162 -1.3054 -0.8739
  558TIP3   OH223232   3.507   3.973   2.217  0.0406 -0.4778  0.1294
  558TIP3    H123233   3.566   3.977   2.293  0.0147 -0.8770  0.1738
  558TIP3    H223234   3.545   3.904   2.162  1.0402  0.9486 -1.0569
  559TIP3   OH223235   6.960   4.439   2.626 -0.3576  0.1532  0.0598
  559TIP3    H123236   7.003   4.469   2.705  3.3452 -0.6548 -1.4459
  559TIP3    H223237   6.982   4.505   2.560 -1.4365 -0.3222 -0.8167
  560TIP3   OH223238   0.365   3.685   0.141 -0.2496 -0.6217 -0.4713
  560TIP3    H123239   0.441   3.729   0.179 -0.4033  0.0133 -0.8918
  560TIP3    H223240   0.293   3.709   0.199 -0.1026 -1.3856  0.0416
  561TIP3   OH223241   4.791   1.155   6.575 -0.4635 -0.2695 -0.1663
  561TIP3    H123242   4.868   1.196   6.613 -0.5580 -0.0604 -0.1996
  561TIP3    H223243   4.813   1.062   6.570 -0.2940 -0.2391  0.0178
  562TIP3   OH223244   2.060   5.193   7.956  0.0855 -0.3173 -0.3911
  562TIP3    H123245   2.040   5.281   7.923 -0.4633  0.6431  2.2644
  562TIP3    H223246   2.156   5.189   7.953  0.1956  0.8484  0.4306
  563TIP3   OH223247   4.303   5.480   0.523 -0.2288  0.3868 -0.3614
  563TIP3    H123248   4.258   5.553   0.480  0.2554  0.3405 -0.9542
  563TIP3    H223249   4.316   5.510   0.613 -2.8863 -0.2031  0.3237
  564TIP3   OH223250   1.992   4.313   8.258  0.1354  0.2400  0.2381
  564TIP3    H123251   2.066   4.327   8.317  1.6862 -0.0502 -1.5906
  564TIP3    H223252   2.020   4.245   8.198  0.1207  2.9690 -3.2074
  565TIP3   OH223253   6.058   5.231   6.866  0.3105 -0.3986 -0.0627
  565TIP3    H123254   6.101   5.164   6.919 -2.0999 -1.5082  0.6371
  565TIP3    H223255   6.041   5.188   6.782 -0.1883 -0.2839 -0.0250
  566TIP3   OH223256   5.013   0.699   2.330  0.3610  0.3836  0.0414
  566TIP3    H123257   4.922   0.671   2.339  1.0760 -2.9457 -1.6059
  566TIP3    H223258   5.060   0.653   2.400  0.9087  1.4973  0.4261
  567TIP3   OH223259   5.578   6.805   8.363  0.4999  0.0761  0.3463
  567TIP3    H123260   5.515   6.818   8.292  0.7776 -2.5404 -0.4724
  567TIP3    H223261   5.566   6.882   8.419 -1.9590  0.6715 -0.8366
  568TIP3   OH223262   4.875   6.494   6.858 -0.2850 -0.4000 -0.7072
  568TIP3    H123263   4.917   6.409   6.871 -0.3494 -0.3759 -0.3134
  568TIP3    H223264   4.786   6.482   6.891 -0.5792 -0.4357 -1.4893
  569TIP3   OH223265   0.856   4.190   7.113 -0.4123 -0.0433 -0.3538
  569TIP3    H123266   0.897   4.268   7.075 -0.5331  0.0151 -0.3630
  569TIP3    H223267   0.803   4.223   7.185  1.0107 -0.2963  0.8521
  570TIP3   OH223268   0.127   2.482   7.662 -0.2252 -0.0790 -0.3118
  570TIP3    H123269   0.047   2.531   7.644 -0.1776  0.4066  0.7650
  570TIP3    H223270   0.153   2.508   7.750  1.9219  0.8902 -1.1562
  571TIP3   OH223271   5.397   5.142   0.524  0.6530 -0.0131  0.6050
  571TIP3    H123272   5.446   5.204   0.468  0.7942  1.4901  2.2976
  571TIP3    H223273   5.411   5.057   0.483  2.6848  0.7061 -0.3538
  572TIP3   OH223274   1.246   4.304   2.091  0.5472  0.3658  0.1612
  572TIP3    H123275   1.205   4.219   2.083 -0.4862  0.8054  0.6562
  572TIP3    H223276   1.300   4.297   2.171 -0.4110  0.5167  0.8342
  573TIP3   OH223277   0.838   3.237   0.055 -0.1872 -0.1457  0.7013
  573TIP3    H123278   0.822   3.146   0.080  1.4061  0.0822  2.8664
  573TIP3    H223279   0.799   3.288   0.125 -0.0561  0.8003  0.1045
  574TIP3   OH223280   3.382   2.645   0.416  0.4949  0.2158 -0.2142
  574TIP3    H123281   3.377   2.569   0.475  0.7307  2.0194  2.2970
  574TIP3    H223282   3.465   2.633   0.369  0.8710 -0.7432  0.6521
  575TIP3   OH223283   4.729   6.403   7.672  0.6816 -0.5829 -0.0345
  575TIP3    H123284   4.778   6.353   7.607 -0.2496 -0.4817 -0.8332
  575TIP3    H223285   4.776   6.486   7.680  0.7212 -0.5450 -0.6740
  576TIP3   OH223286   6.925   5.584   0.484 -0.2770 -0.1053 -0.2775
  576TIP3    H123287   6.928   5.584   0.580 -1.5024 -1.8612 -0.1836
  576TIP3    H223288   6.840   5.621   0.463 -0.4769 -0.7373 -0.6189
  577TIP3   OH223289   3.850   6.515   1.175  0.3633 -0.4087  0.2917
  577TIP3    H123290   3.886   6.446   1.230  0.2142 -1.6162 -1.0842
  577TIP3    H223291   3.759   6.524   1.203  0.0479 -1.6083 -0.3030
  578TIP3   OH223292   5.783   4.163   7.596 -0.1024  0.4733 -0.5706
  578TIP3    H123293   5.810   4.128   7.511 -1.1035 -1.3032 -0.2138
  578TIP3    H223294   5.728   4.238   7.575 -0.4674 -0.0409 -1.4962
  579TIP3   OH223295   5.333   0.442   7.337  0.1039  0.3250  0.1027
  579TIP3    H123296   5.383   0.361   7.329  0.9955  0.6648  1.7214
  579TIP3    H223297   5.249   0.423   7.296  1.2110 -0.5524 -1.9197
  580TIP3   OH223298   2.057   0.532   6.756  0.4487 -0.0888 -0.1438
  580TIP3    H123299   2.138   0.575   6.727 -0.0425 -0.3564 -2.0863
  580TIP3    H223300   1.995   0.604   6.767 -0.0779 -0.1001 -2.3923
  581TIP3   OH223301   6.391   4.054   7.073 -0.8190 -0.3374  0.1563
  581TIP3    H123302   6.406   4.140   7.112 -0.2834 -0.8301  1.0703
  581TIP3    H223303   6.453   4.049   7.000 -1.2088  0.2418 -0.2245
  582TIP3   OH223304   6.397   5.832   0.561 -0.3998 -0.3672  0.3014
  582TIP3    H123305   6.349   5.753   0.589 -1.4751  0.9474  2.3963
  582TIP3    H223306   6.330   5.886   0.519 -0.0870  0.2132  0.5440
  583TIP3   OH223307   4.296   1.935   7.894  0.0721  0.2075  0.4619
  583TIP3    H123308   4.200   1.938   7.895 -0.0587 -1.8410 -0.3948
  583TIP3    H223309   4.318   1.855   7.942  1.5111  1.7920  2.6299
  584TIP3   OH223310   5.210   0.571   1.814 -0.1522  0.4726  0.1738
  584TIP3    H123311   5.120   0.570   1.781  0.4004  0.8175 -1.4543
  584TIP3    H223312   5.263   0.553   1.737  1.2010  0.4846  1.0715
  585TIP3   OH223313   0.146   5.996   7.353  0.1804 -0.3223  0.0611
  585TIP3    H123314   0.226   6.026   7.397 -1.1817  2.5198  0.8553
  585TIP3    H223315   0.140   6.049   7.274 -1.0758 -0.1885  0.2158
  586TIP3   OH223316   2.961   1.286   1.059 -0.1569 -0.0134 -0.0785
  586TIP3    H123317   2.906   1.349   1.105 -0.4192 -0.8152  0.7294
  586TIP3    H223318   2.959   1.315   0.968 -0.0042  1.3287  0.3330
  587TIP3   OH223319   2.620   4.445   1.169 -0.6525 -0.3921 -0.4552
  587TIP3    H123320   2.587   4.533   1.185 -0.6316 -0.2942 -0.9527
  587TIP3    H223321   2.555   4.405   1.112  0.0032 -0.2487 -1.3167
  588TIP3   OH223322   4.083   4.006   7.426  0.3500  0.1393 -0.3380
  588TIP3    H123323   4.166   3.960   7.413  0.5818  0.7267 -0.9831
  588TIP3    H223324   4.108   4.096   7.447 -0.1037  0.0280  0.7634
  589TIP3   OH223325   5.459   5.725   0.458  0.4698  0.2826  0.6908
  589TIP3    H123326   5.465   5.766   0.544  2.7791  0.7599  0.3722
  589TIP3    H223327   5.510   5.782   0.401 -2.0401  0.7055 -1.3553
  590TIP3   OH223328   4.193   3.779   8.049 -0.4222 -0.1549  0.1872
  590TIP3    H123329   4.143   3.701   8.073 -0.8165  0.4830  1.6016
  590TIP3    H223330   4.210   3.822   8.133 -0.8545  1.6417 -0.5974
  591TIP3   OH223331   3.630   6.964   0.088 -0.4001 -0.4389  0.1988
  591TIP3    H123332   3.607   6.984  -0.003 -2.2422 -0.8154  0.5410
  591TIP3    H223333   3.551   6.984   0.137  0.6535  0.0055  1.7841
  592TIP3   OH223334   0.132   6.449   2.029  0.4003 -0.3168  0.0944
  592TIP3    H123335   0.141   6.452   2.125  1.2372  0.2817  0.0106
  592TIP3    H223336   0.172   6.531   1.999 -0.8375  0.0227 -0.7073
  593TIP3   OH223337   2.553   3.822   8.296 -0.7710 -0.8802  0.7497
  593TIP3    H123338   2.631   3.863   8.335  0.4205 -2.2402 -0.1144
  593TIP3    H223339   2.490   3.818   8.368 -0.0944  0.3323  1.4447
  594TIP3   OH223340   0.464   2.270   2.763  0.1986 -0.3350  0.0464
  594TIP3    H123341   0.374   2.275   2.795  0.1135  2.3059 -0.4213
  594TIP3    H223342   0.515   2.319   2.828  0.5664  2.0080 -1.8884
  595TIP3   OH223343   2.685   3.765   7.723 -0.1437  0.5048  0.5558
  595TIP3    H123344   2.595   3.783   7.752 -0.3780  0.3473 -0.0468
  595TIP3    H223345   2.681   3.676   7.688  0.5356  0.0288  1.6443
  596TIP3   OH223346   5.034   5.669   7.553 -0.2104 -0.1357  0.2859
  596TIP3    H123347   5.121   5.642   7.582 -0.5708 -0.1348  1.3944
  596TIP3    H223348   4.994   5.707   7.631 -0.8626  0.7228 -0.4516
  597TIP3   OH223349   4.603   1.467   8.019 -0.0877  0.0701  0.4862
  597TIP3    H123350   4.640   1.392   7.972  2.3254  1.4597  0.0464
  597TIP3    H223351   4.515   1.477   7.983  0.0561 -1.6862 -0.4299
  598TIP3   OH223352   6.419   5.003   1.884 -0.0804 -0.0169 -0.1824
  598TIP3    H123353   6.465   5.086   1.898  0.9826 -0.4883 -0.7226
  598TIP3    H223354   6.436   4.981   1.792 -1.5835 -0.1100 -0.4568
  599TIP3   OH223355   1.315   4.068   0.354  0.0595  0.1693 -0.4199
  599TIP3    H123356   1.238   4.104   0.311 -1.0514 -0.5583  0.8635
  599TIP3    H223357   1.342   3.995   0.298 -1.7172 -1.1396  0.3469
  600TIP3   OH223358   0.037   0.136   0.641 -0.7674 -0.1609  0.2185
  600TIP3    H123359   0.031   0.205   0.575  0.1860 -0.0280  0.2541
  600TIP3    H223360   0.011   0.056   0.594 -2.2877  0.2641  0.2878
  601TIP3   OH223361   6.336   3.453   6.866  0.3870  0.1569  0.0640
  601TIP3    H123362   6.328   3.358   6.878 -1.1057  0.3416  0.7427
  601TIP3    H223363   6.295   3.469   6.781 -0.2901  0.3016  0.4115
  602TIP3   OH223364   4.343   0.720   0.566  0.3373 -0.3027 -0.2011
  602TIP3    H123365   4.333   0.727   0.661  2.1230  1.0428 -0.0621
  602TIP3    H223366   4.400   0.644   0.554  4.4165  2.3520  0.2868
  603TIP3   OH223367   3.985   6.008   1.691 -0.0388 -0.2671 -0.3444
  603TIP3    H123368   4.014   6.047   1.773  2.6418 -1.2242 -0.7407
  603TIP3    H223369   3.967   6.082   1.634  1.6796  0.4359 -0.0309
  604TIP3   OH223370   5.768   3.819   1.134  0.1124 -0.4636 -0.3570
  604TIP3    H123371   5.818   3.814   1.216 -1.3325  0.6706  0.6610
  604TIP3    H223372   5.799   3.899   1.092 -0.5027 -0.0007  0.0548
  605TIP3   OH223373   2.686   2.624   0.396  0.2460  0.4028 -0.2556
  605TIP3    H123374   2.596   2.594   0.393 -0.2952  1.9928 -1.8014
  605TIP3    H223375   2.737   2.552   0.358 -0.4721 -0.1952 -0.0884
  606TIP3   OH223376   2.871   3.701   1.151 -0.6941 -0.0093  0.4140
  606TIP3    H123377   2.911   3.633   1.205  0.9304 -1.6415 -2.5940
  606TIP3    H223378   2.777   3.688   1.162 -0.4549 -2.8542 -0.0770
  607TIP3   OH223379   0.375   6.366   1.866 -0.1792 -0.2230  1.0110
  607TIP3    H123380   0.308   6.431   1.884 -0.5022  0.3826 -1.8702
  607TIP3    H223381   0.449   6.417   1.831  0.4839 -1.1921  0.9637
  608TIP3   OH223382   0.323   2.795   0.621  0.5684  0.0652 -0.0777
  608TIP3    H123383   0.311   2.711   0.664  2.0378 -0.8328 -1.3170
  608TIP3    H223384   0.403   2.831   0.659  0.9741  0.0180 -0.8516
  609TIP3   OH223385   3.502   0.649   0.486 -0.7593 -0.3172 -0.2225
  609TIP3    H123386   3.549   0.693   0.415 -1.4753  3.9732  1.6443
  609TIP3    H223387   3.410   0.666   0.468 -1.0546 -0.8356  0.7257
  610TIP3   OH223388   6.156   2.121   0.013 -0.1490  0.1968  0.5600
  610TIP3    H123389   6.106   2.099   0.091 -0.3445 -0.6275  0.2107
  610TIP3    H223390   6.135   2.213  -0.004 -0.0392  0.4064  1.5179
  611TIP3   OH223391   2.367   1.565   2.386  0.5747 -0.5951  0.0851
  611TIP3    H123392   2.273   1.557   2.402  0.4236  1.5663  0.6460
  611TIP3    H223393   2.400   1.610   2.464  2.0416 -1.0997 -0.2195
  612TIP3   OH223394   2.325   3.480   1.166  0.0076  0.5624  0.6054
  612TIP3    H123395   2.374   3.437   1.235 -0.8793 -0.0052  0.8911
  612TIP3    H223396   2.255   3.527   1.211  0.1990  1.2637  0.1918
  613TIP3   OH223397   6.674   1.820   1.912 -0.0204  0.7292 -0.1765
  613TIP3    H123398   6.625   1.901   1.924  1.4793  1.5622  0.7640
  613TIP3    H223399   6.632   1.757   1.970 -1.5562  0.6251 -1.3423
  614TIP3   OH223400   0.097   3.156   7.388 -0.2991  0.5775 -0.6549
  614TIP3    H123401   0.057   3.200   7.463 -0.1823  1.4259 -1.0742
  614TIP3    H223402   0.069   3.065   7.396  1.2454  0.2229  1.4548
  615TIP3   OH223403   0.168   5.592   6.209  0.5797 -0.2215 -0.2706
  615TIP3    H123404   0.213   5.513   6.179  0.8923 -0.1331 -0.0353
  615TIP3    H223405   0.104   5.561   6.272  0.9204 -0.2527  0.0595
  616TIP3   OH223406   2.339   2.278   7.695 -0.4282  0.2935  0.0474
  616TIP3    H123407   2.380   2.219   7.758 -1.0814 -0.1907  0.0236
  616TIP3    H223408   2.319   2.224   7.619 -1.5484  0.4017  0.2461
  617TIP3   OH223409   3.531   2.423   1.153  0.5730 -0.0628  0.1980
  617TIP3    H123410   3.535   2.494   1.217  2.0138 -0.8667  1.0475
  617TIP3    H223411   3.611   2.373   1.168  0.1388 -1.2175 -1.1518
  618TIP3   OH223412   6.064   4.711   7.674 -0.2845  0.3575  0.7527
  618TIP3    H123413   6.144   4.758   7.652 -0.5121  0.2191 -0.4731
  618TIP3    H223414   6.009   4.775   7.719 -0.7476  1.4280 -1.2193
  619TIP3   OH223415   3.360   0.492   0.278  0.0723 -0.0878  0.5667
  619TIP3    H123416   3.296   0.543   0.327  1.5586 -0.3105  2.8959
  619TIP3    H223417   3.388   0.550   0.208 -0.9826  0.8631  0.9047
  620TIP3   OH223418   4.965   4.335   2.272  0.1215  0.0594  1.2125
  620TIP3    H123419   5.028   4.369   2.336  0.5054  0.7699  0.4791
  620TIP3    H223420   4.902   4.406   2.261 -0.7698 -0.6159  1.8736
  621TIP3   OH223421   5.513   6.616   6.912  0.7141  0.2573  0.0111
  621TIP3    H123422   5.587   6.676   6.920 -0.3065  1.6621 -0.4552
  621TIP3    H223423   5.542   6.550   6.850  2.3089 -0.4801  1.4557
  622TIP3   OH223424   6.200   0.506   6.994  0.8113  0.1828 -0.2856
  622TIP3    H123425   6.167   0.427   7.036  0.0894  0.0572 -1.0509
  622TIP3    H223426   6.225   0.564   7.066 -2.0592  0.7036  0.4125
  623TIP3   OH223427   4.043   2.222   7.856 -0.2185 -0.5871  0.0798
  623TIP3    H123428   3.964   2.228   7.803 -0.0708  2.9518  0.0329
  623TIP3    H223429   4.011   2.210   7.946 -0.7125 -0.8632 -0.1331
  624TIP3   OH223430   4.937   6.508   6.583  0.4703  0.5066 -0.0536
  624TIP3    H123431   4.919   6.479   6.673  1.6654 -1.7538 -0.4654
  624TIP3    H223432   4.878   6.583   6.570 -2.2974 -1.2338  1.4273
  625TIP3   OH223433   5.912   1.596   6.544  0.1699 -0.3240  0.1605
  625TIP3    H123434   5.840   1.639   6.499 -0.9047 -1.2325  0.9583
  625TIP3    H223435   5.991   1.638   6.509 -0.6530 -0.3596 -1.8776
  626TIP3   OH223436   5.715   0.732   7.011 -0.7223  0.5075 -0.1880
  626TIP3    H123437   5.790   0.705   7.064 -0.0450 -0.2848 -1.4958
  626TIP3    H223438   5.642   0.682   7.046 -0.2327 -0.1974 -0.1397
  627TIP3   OH223439   3.221   2.907   0.132 -0.4283  0.1497 -0.0176
  627TIP3    H123440   3.275   2.985   0.115  1.4267 -0.9907  0.3098
  627TIP3    H223441   3.221   2.859   0.049 -1.4431  0.3955 -0.1746
  628TIP3   OH223442   3.794   4.525   7.746  0.1194 -0.1944 -0.3782
  628TIP3    H123443   3.834   4.456   7.694  1.4248 -1.6140  2.3232
  628TIP3    H223444   3.732   4.479   7.803  0.0753  1.0230  0.5933
  629TIP3   OH223445   0.906   2.703   7.229 -0.2010 -0.4067 -0.3262
  629TIP3    H123446   0.876   2.627   7.277  1.8622 -0.4631  1.0031
  629TIP3    H223447   0.949   2.667   7.151 -0.5634 -0.5120 -0.4767
  630TIP3   OH223448   4.408   4.652   2.625 -0.1230 -0.7356 -0.2547
  630TIP3    H123449   4.363   4.676   2.544 -2.7630  1.1238  1.5489
  630TIP3    H223450   4.400   4.730   2.680  2.5869 -1.5199  1.4336
  631TIP3   OH223451   2.784   0.422   7.638 -0.4720 -0.0034 -0.1212
  631TIP3    H123452   2.849   0.454   7.701 -0.9657  1.6280 -0.3894
  631TIP3    H223453   2.835   0.377   7.571  0.6050  2.5294 -1.1281
  632TIP3   OH223454   5.455   0.016   1.123 -0.6176 -0.1568  0.8027
  632TIP3    H123455   5.378   0.036   1.175  0.9405  0.0944  3.1595
  632TIP3    H223456   5.498   0.100   1.108 -0.1096 -0.4270  0.6820
  633TIP3   OH223457   3.339   2.164   7.095 -0.8132 -0.2832  0.4233
  633TIP3    H123458   3.339   2.157   7.191 -0.6497  1.9855  0.6258
  633TIP3    H223459   3.255   2.125   7.069 -0.4054 -1.8777  1.3761
  634TIP3   OH223460   1.411   1.398   6.669 -0.4337 -0.1628 -0.4217
  634TIP3    H123461   1.375   1.427   6.753  1.1367  0.1519  0.1791
  634TIP3    H223462   1.375   1.460   6.605  1.2209  1.9338  0.5493
  635TIP3   OH223463   4.935   4.798   0.963  0.5743 -0.0023  0.4094
  635TIP3    H123464   4.959   4.796   0.870  1.0118  0.0385  0.5210
  635TIP3    H223465   4.969   4.715   0.998 -0.6624 -0.5823  0.2713
  636TIP3   OH223466   4.241   2.724   0.758  0.0587  0.0025  0.1275
  636TIP3    H123467   4.203   2.737   0.845  1.0703  1.1535  0.4188
  636TIP3    H223468   4.318   2.669   0.774  1.1710  1.5285  0.2203
  637TIP3   OH223469   1.853   6.102   1.153 -0.0026 -0.2651  0.0588
  637TIP3    H123470   1.759   6.113   1.167 -0.5490  0.4351 -3.1858
  637TIP3    H223471   1.885   6.191   1.135  1.1455 -0.5858  0.4077
  638TIP3   OH223472   2.058   5.836   0.770  0.3040  0.6853 -0.4948
  638TIP3    H123473   1.985   5.820   0.711 -0.8354  1.9735  0.4799
  638TIP3    H223474   2.024   5.899   0.834  2.5444  2.0871 -0.5515
  639TIP3   OH223475   3.064   3.058   0.943 -0.1209 -0.0906 -0.2084
  639TIP3    H123476   3.095   3.115   1.013 -0.3836  0.7367 -0.7510
  639TIP3    H223477   3.129   3.067   0.874 -0.3112 -0.2367 -0.4068
  640TIP3   OH223478   2.555   0.619   7.239  0.2241  0.2048 -0.3332
  640TIP3    H123479   2.507   0.568   7.173 -0.4140 -0.4175  0.5826
  640TIP3    H223480   2.502   0.698   7.251  0.2701  0.2566 -0.4697
  641TIP3   OH223481   3.579   2.085   1.773  0.0528  0.2841 -0.6789
  641TIP3    H123482   3.519   2.113   1.704 -0.3520 -2.0803 -1.3830
  641TIP3    H223483   3.666   2.092   1.734 -0.1080 -0.1593 -1.1356
  642TIP3   OH223484   1.172   5.911   0.271 -0.0518 -0.0692  0.1370
  642TIP3    H123485   1.126   5.980   0.223 -0.0425 -0.8128 -0.9783
  642TIP3    H223486   1.112   5.886   0.341  0.3547  1.7418  1.1906
  643TIP3   OH223487   1.494   3.195   6.485 -0.3719 -0.3487 -0.1590
  643TIP3    H123488   1.427   3.146   6.533 -0.6897  1.0063  0.8636
  643TIP3    H223489   1.460   3.284   6.482  0.8077  0.1013 -0.7429
  644TIP3   OH223490   5.161   1.363   1.146 -0.1896 -0.1385  0.2464
  644TIP3    H123491   5.163   1.274   1.110 -0.6992  0.3406 -1.0450
  644TIP3    H223492   5.230   1.364   1.212  0.7262 -1.1233 -0.6545
  645TIP3   OH223493   2.452   1.677   0.529 -0.6867 -0.3012  0.5250
  645TIP3    H123494   2.377   1.617   0.520 -1.2308  0.6290 -2.6561
  645TIP3    H223495   2.525   1.629   0.490 -0.2112 -0.2954  1.4089
  646TIP3   OH223496   1.575   3.660   8.122  0.6144  0.2227  1.0933
  646TIP3    H123497   1.553   3.753   8.126 -0.6189 -0.0663  1.5116
  646TIP3    H223498   1.508   3.617   8.174 -1.3407 -1.3240 -2.3539
  647TIP3   OH223499   4.735   4.595   7.269 -0.4262  0.2522 -0.1208
  647TIP3    H123500   4.762   4.587   7.177  0.4899  3.4244 -0.2572
  647TIP3    H223501   4.640   4.608   7.265 -0.3585  0.6283 -0.6590
  648TIP3   OH223502   6.350   4.576   0.090  0.0963  0.6597 -0.1109
  648TIP3    H123503   6.300   4.542   0.016 -0.6927  2.8248 -0.6534
  648TIP3    H223504   6.355   4.503   0.151  0.1084 -0.9662 -1.9509
  649TIP3   OH223505   0.423   1.922   0.330  0.0884  0.6224 -0.3920
  649TIP3    H123506   0.341   1.970   0.346 -1.5230 -2.1272  0.2143
  649TIP3    H223507   0.418   1.897   0.238 -0.5596 -0.8589  0.0194
  650TIP3   OH223508   0.820   5.060   0.206 -0.1004  0.4065  0.2786
  650TIP3    H123509   0.756   5.128   0.230  0.6167  1.0518  0.4097
  650TIP3    H223510   0.901   5.089   0.247  0.8580  0.8235 -1.8067
  651TIP3   OH223511   0.232   6.784   0.107 -0.0549 -0.4101  0.2398
  651TIP3    H123512   0.253   6.874   0.080 -1.7796  0.3247  1.1600
  651TIP3    H223513   0.284   6.729   0.048  2.4870  1.1614  0.8141
  652TIP3   OH223514   4.793   4.275   8.142  0.1561 -0.5081  0.1285
  652TIP3    H123515   4.814   4.206   8.078  1.8732 -2.1745  2.3443
  652TIP3    H223516   4.808   4.235   8.227 -0.0371  2.2450  1.5810
  653TIP3   OH223517   0.713   4.821   6.994  0.0782 -0.3346 -0.4416
  653TIP3    H123518   0.780   4.764   6.957  0.2654 -2.2830  2.5559
  653TIP3    H223519   0.634   4.801   6.943  1.1150  0.0881 -2.3184
  654TIP3   OH223520   3.649   1.665   1.398  0.3787 -0.0802 -0.0531
  654TIP3    H123521   3.614   1.607   1.465  0.4969 -1.0584 -0.8055
  654TIP3    H223522   3.685   1.740   1.446  1.0443 -1.0603  1.0147
  655TIP3   OH223523   4.877   1.960   7.479  0.0838  0.2432  0.1819
  655TIP3    H123524   4.790   1.948   7.517 -0.1104 -1.9380 -0.7828
  655TIP3    H223525   4.902   2.049   7.502 -1.0358 -0.1217  3.2846
  656TIP3   OH223526   0.310   5.128   6.562 -0.8934 -0.3091  0.2142
  656TIP3    H123527   0.267   5.134   6.477 -3.1190  0.2400  1.3145
  656TIP3    H223528   0.272   5.199   6.613  2.1878  0.9623  0.9802
  657TIP3   OH223529   6.115   1.015   2.050  0.0223 -0.1949  0.3148
  657TIP3    H123530   6.173   0.946   2.080  1.3577  0.6743 -0.1747
  657TIP3    H223531   6.174   1.082   2.013 -1.2563  0.9055  0.1846
  658TIP3   OH223532   3.219   4.514   8.162  0.2031  0.5004 -0.6592
  658TIP3    H123533   3.148   4.494   8.101 -0.5117  0.9676 -0.0027
  658TIP3    H223534   3.271   4.434   8.166  0.1834  0.4068 -1.7555
  659TIP3   OH223535   5.063   6.602   2.576 -0.6346  0.0126 -0.4410
  659TIP3    H123536   5.158   6.597   2.580 -0.4920  0.4077 -2.6072
  659TIP3    H223537   5.035   6.512   2.559 -0.7525 -0.2906  1.1961
  660TIP3   OH223538   3.107   0.205   8.003  0.2518 -0.4270  0.1062
  660TIP3    H123539   3.135   0.232   8.091  2.8284  0.3919 -0.8680
  660TIP3    H223540   3.057   0.124   8.018  1.5161 -0.9088  2.2592
  661TIP3   OH223541   2.257   5.209   1.018  0.2637 -0.1888 -0.0224
  661TIP3    H123542   2.269   5.270   0.945 -0.3960  0.6228  0.5221
  661TIP3    H223543   2.344   5.202   1.057  0.4612 -0.0280 -0.4185
  662TIP3   OH223544   0.623   0.728   7.599  0.0415 -0.2838 -0.0391
  662TIP3    H123545   0.568   0.666   7.646 -0.6011  0.7555  0.6236
  662TIP3    H223546   0.635   0.801   7.661 -1.3655  1.4230 -1.6773
  663TIP3   OH223547   2.391   6.413   8.055 -0.0278 -0.7258 -0.5841
  663TIP3    H123548   2.447   6.355   8.004 -0.6534 -0.1006 -2.0347
  663TIP3    H223549   2.337   6.458   7.990  0.6820  1.7821  0.4071
  664TIP3   OH223550   5.359   0.671   2.290 -0.0208  0.2221 -0.2939
  664TIP3    H123551   5.353   0.630   2.204  1.1798 -0.7914  0.0783
  664TIP3    H223552   5.385   0.761   2.271 -0.8878  0.3310 -1.0346
  665TIP3   OH223553   6.151   2.143   7.990  0.3970 -0.0944  1.0510
  665TIP3    H123554   6.235   2.170   7.954 -0.0861 -0.1989 -0.2265
  665TIP3    H223555   6.099   2.224   7.994  0.5380 -0.0372  1.7896
  666TIP3   OH223556   0.573   2.883   7.742 -0.0912 -0.1713 -0.0706
  666TIP3    H123557   0.663   2.914   7.734 -0.0414 -0.7524 -2.4273
  666TIP3    H223558   0.541   2.923   7.823  1.9939  0.7288  0.3766
  667TIP3   OH223559   5.936   2.931   2.616 -0.1450  0.2395 -0.5201
  667TIP3    H123560   5.969   2.926   2.527  1.9579  0.4725  0.1783
  667TIP3    H223561   5.872   3.002   2.614 -2.4086 -1.6875 -2.4218
  668TIP3   OH223562   6.125   0.016   0.175 -0.1048 -0.2824  0.5681
  668TIP3    H123563   6.206  -0.026   0.204 -0.1309 -1.5661 -1.1013
  668TIP3    H223564   6.142   0.040   0.084 -1.3850  0.0405  0.3970
  669TIP3   OH223565   6.960   6.078   7.175  0.1389 -0.4759 -0.0032
  669TIP3    H123566   6.929   6.105   7.261 -0.8573 -1.0124 -0.1826
  669TIP3    H223567   6.966   6.159   7.124  0.7736 -0.1513  0.5717
  670TIP3   OH223568   5.919   2.816   1.507 -0.9401  0.4250 -0.3242
  670TIP3    H123569   5.900   2.769   1.589 -0.1079 -0.3076 -0.5365
  670TIP3    H223570   6.013   2.830   1.509 -0.6414 -1.0896 -1.9271
  671TIP3   OH223571   5.029   2.631   7.525 -0.4815 -0.2546 -0.1012
  671TIP3    H123572   5.113   2.642   7.569 -1.2802 -2.3734  2.2029
  671TIP3    H223573   5.047   2.570   7.454  0.3756  1.3165 -1.2780
  672TIP3   OH223574   3.873   6.970   2.487  0.4578  0.4404 -0.3804
  672TIP3    H123575   3.968   6.978   2.498  0.3208  0.4842  1.0075
  672TIP3    H223576   3.850   6.893   2.539 -0.3326  0.7406 -0.2755
  673TIP3   OH223577   3.923   3.499   0.675  0.2026  0.1371  0.0740
  673TIP3    H123578   3.973   3.484   0.755  2.4106  1.1086 -1.0210
  673TIP3    H223579   3.860   3.567   0.699 -0.8692 -1.3094  1.5735
  674TIP3   OH223580   4.348   0.870   7.510  0.1396 -0.0671  0.2181
  674TIP3    H123581   4.412   0.822   7.565 -0.4366  1.0013  1.9030
  674TIP3    H223582   4.290   0.912   7.573 -1.5473 -0.0612 -1.2756
  675TIP3   OH223583   5.889   4.215   0.247  0.3537  0.2116  0.7867
  675TIP3    H123584   5.814   4.255   0.290 -1.2817  1.1565 -2.5349
  675TIP3    H223585   5.851   4.150   0.187  2.1802  0.3017 -0.5816
  676TIP3   OH223586   0.347   1.326   7.120 -0.4961 -0.2885  0.0074
  676TIP3    H123587   0.393   1.359   7.197 -1.7312 -1.0462  1.1271
  676TIP3    H223588   0.300   1.402   7.086 -0.3369 -0.0539  0.3026
  677TIP3   OH223589   2.597   3.490   7.665  0.1292  0.4976  0.1340
  677TIP3    H123590   2.691   3.485   7.681 -0.1747 -1.8658  1.6846
  677TIP3    H223591   2.580   3.428   7.595 -0.0420  2.7407 -1.9465
  678TIP3   OH223592   6.653   3.472   6.324 -0.1182  0.1725  0.2227
  678TIP3    H123593   6.622   3.523   6.399 -0.9293 -0.7619  0.5511
  678TIP3    H223594   6.613   3.386   6.336 -1.0443  0.2852 -1.8230
  679TIP3   OH223595   0.380   5.979   0.174 -0.4733  0.2464 -0.6778
  679TIP3    H123596   0.423   6.050   0.222 -0.9978 -0.3956  0.7870
  679TIP3    H223597   0.307   5.952   0.230 -1.1347 -0.5190 -1.8561
  680TIP3   OH223598   3.512   1.534   1.596 -0.1445  0.1474 -0.9668
  680TIP3    H123599   3.531   1.460   1.653  0.5523 -1.1658 -2.8054
  680TIP3    H223600   3.486   1.605   1.655 -0.6126 -1.4855  0.8670
  681TIP3   OH223601   2.235   5.792   0.535 -0.2549 -0.3532 -0.0908
  681TIP3    H123602   2.238   5.862   0.469  0.5331 -0.8359 -0.5915
  681TIP3    H223603   2.162   5.815   0.592  1.7735  2.5614  1.6156
  682TIP3   OH223604   2.758   0.897   7.977 -0.3515 -0.1456 -0.5151
  682TIP3    H123605   2.703   0.963   7.934 -1.7765 -1.4379 -0.7467
  682TIP3    H223606   2.833   0.947   8.011 -1.2231  1.5351 -0.9561
  683TIP3   OH223607   3.642   5.913   0.497 -0.0108 -0.0601  0.1329
  683TIP3    H123608   3.547   5.923   0.494  0.0989  1.2977  0.3900
  683TIP3    H223609   3.667   5.949   0.582  0.7712 -0.0057 -0.1103
  684TIP3   OH223610   2.791   1.154   0.523  1.0439 -0.1396 -1.0500
  684TIP3    H123611   2.779   1.208   0.445  0.0381  2.0450  0.5131
  684TIP3    H223612   2.714   1.172   0.577  2.2000 -0.7614  0.9006
  685TIP3   OH223613   3.928   3.397   1.588  0.3614 -0.2083  0.3253
  685TIP3    H123614   3.911   3.382   1.495  1.4532  0.0730  0.0676
  685TIP3    H223615   3.880   3.478   1.608  0.4458 -0.0542 -0.0886
  686TIP3   OH223616   0.592   5.524   0.293  0.0903  0.1946  0.1899
  686TIP3    H123617   0.497   5.532   0.282  0.0287  1.2208  1.2602
  686TIP3    H223618   0.626   5.610   0.268  0.6906  0.0070  0.3425
  687TIP3   OH223619   6.096   6.626   7.307 -0.3247 -0.3222  0.0198
  687TIP3    H123620   6.012   6.580   7.296  0.3897 -1.6709 -0.0511
  687TIP3    H223621   6.072   6.718   7.313 -2.1141 -0.8287  2.7858
  688TIP3   OH223622   5.110   0.516   7.181  0.5037 -0.1178  0.3328
  688TIP3    H123623   5.022   0.505   7.145  0.4894 -0.3135  0.4259
  688TIP3    H223624   5.122   0.611   7.187  1.0296 -0.0207 -1.4876
  689TIP3   OH223625   3.585   4.070   7.586 -0.2116  0.0797  0.0889
  689TIP3    H123626   3.595   3.976   7.604 -1.0056 -0.5597 -2.4026
  689TIP3    H223627   3.601   4.112   7.671  1.9850 -2.1506  0.9197
  690TIP3   OH223628   2.720   5.299   6.946  0.0140  0.3176 -0.7343
  690TIP3    H123629   2.694   5.370   6.887  1.2549  1.5426  0.1250
  690TIP3    H223630   2.704   5.334   7.034  0.0604 -0.7162 -0.3007
  691TIP3   OH223631   2.681   2.166   6.566  0.0984 -0.7259 -0.4050
  691TIP3    H123632   2.619   2.170   6.493 -0.4204 -0.9595  0.0201
  691TIP3    H223633   2.736   2.090   6.546 -0.0550 -0.8034 -0.5384
  692TIP3   OH223634   4.745   1.838   6.891  0.3669  0.2921  0.5980
  692TIP3    H123635   4.768   1.887   6.812  0.5408  1.2906  1.2517
  692TIP3    H223636   4.657   1.806   6.875  0.2900  0.7350  0.1177
  693TIP3   OH223637   0.554   1.006   0.982 -0.2057 -0.9568  0.2503
  693TIP3    H123638   0.629   0.977   0.930 -0.7811 -1.0744 -0.5353
  693TIP3    H223639   0.577   0.983   1.072  0.7181 -0.9458  0.0318
  694TIP3   OH223640   3.362   3.158   0.377  0.1968 -0.0992 -0.1335
  694TIP3    H123641   3.458   3.153   0.370  0.5024  2.3404  1.2358
  694TIP3    H223642   3.334   3.067   0.390  2.3123 -0.8608 -0.4842
  695TIP3   OH223643   2.287   1.413   1.048 -0.5181 -0.1047  0.2648
  695TIP3    H123644   2.270   1.384   1.137 -0.4338 -1.2177 -0.0697
  695TIP3    H223645   2.309   1.506   1.057 -1.7343  0.1174  1.2606
  696TIP3   OH223646   6.587   1.523   7.044 -0.0546  0.0231 -0.3192
  696TIP3    H123647   6.588   1.443   7.097 -0.9413  0.7285  0.8128
  696TIP3    H223648   6.528   1.503   6.972 -0.8139 -0.1346  0.3308
  697TIP3   OH223649   4.960   4.329   7.623  0.4784  0.2037 -0.6860
  697TIP3    H123650   4.924   4.337   7.711 -0.2039  0.8332 -1.0145
  697TIP3    H223651   4.899   4.377   7.567  1.6025  0.9371 -1.3231
  698TIP3   OH223652   6.606   6.067   1.733 -0.2812 -0.1101 -0.4298
  698TIP3    H123653   6.537   6.007   1.761 -0.6838  0.7093  0.3658
  698TIP3    H223654   6.674   6.058   1.799 -0.7582  1.0016  0.2515
  699TIP3   OH223655   1.964   5.238   7.565 -0.3242 -0.0943 -0.0626
  699TIP3    H123656   1.962   5.311   7.504 -0.4616 -0.0686 -0.0285
  699TIP3    H223657   2.038   5.257   7.623  0.3894 -0.5833 -0.7872
  700TIP3   OH223658   3.327   2.941   2.638 -0.4538  0.1630  0.5872
  700TIP3    H123659   3.374   2.974   2.714 -1.2410  0.5890  0.8968
  700TIP3    H223660   3.393   2.892   2.588  0.6014  1.6630  0.4422
  701TIP3   OH223661   3.046   0.222   0.931  0.5556 -0.2781  0.1291
  701TIP3    H123662   3.072   0.305   0.970  1.1067 -0.7768  0.8353
  701TIP3    H223663   2.961   0.240   0.891  0.2743  0.4035  1.0130
  702TIP3   OH223664   3.269   2.472   7.313  0.1290  0.3762 -1.0493
  702TIP3    H123665   3.308   2.402   7.365 -0.6125  0.4885 -0.3126
  702TIP3    H223666   3.281   2.445   7.222  0.6559 -0.2566 -0.7961
  703TIP3   OH223667   2.034   0.921   1.260 -0.4946  0.2411  0.3895
  703TIP3    H123668   1.983   0.999   1.239 -0.8482  0.0800  0.6359
  703TIP3    H223669   2.011   0.901   1.351  2.4600  2.0457  1.6660
  704TIP3   OH223670   3.597   0.337   1.800  0.3095 -0.4392  0.3042
  704TIP3    H123671   3.600   0.294   1.885  0.2764  0.2691  0.6657
  704TIP3    H223672   3.585   0.430   1.820  3.0459  0.1275 -0.3837
  705TIP3   OH223673   5.925   2.514   0.338  0.3159  0.7480  0.4844
  705TIP3    H123674   5.860   2.476   0.279 -0.3807  1.0322  1.0484
  705TIP3    H223675   5.986   2.560   0.280  1.3970 -1.4693 -0.2553
  706TIP3   OH223676   0.202   5.317   2.387 -0.0314 -0.0044  0.4266
  706TIP3    H123677   0.215   5.236   2.337 -0.0817  0.1989  0.0772
  706TIP3    H223678   0.117   5.306   2.429  0.4970 -0.6377  1.3630
  707TIP3   OH223679   4.316   5.762   1.820  0.0328 -0.5011  0.4033
  707TIP3    H123680   4.253   5.819   1.864  0.4207 -0.5392  1.0087
  707TIP3    H223681   4.275   5.742   1.735 -0.5611 -0.1557  0.6062
  708TIP3   OH223682   1.574   3.982   6.970 -0.7056 -0.1895 -0.1658
  708TIP3    H123683   1.629   4.048   6.927  1.1226 -1.3208  0.3542
  708TIP3    H223684   1.552   3.920   6.900 -0.6272 -0.1710 -0.2065
  709TIP3   OH223685   5.865   6.031   8.094 -0.2035 -0.4018 -0.0247
  709TIP3    H123686   5.906   5.982   8.165 -1.5040 -0.9002  0.4052
  709TIP3    H223687   5.777   5.995   8.087 -0.2274 -0.1028 -1.6565
  710TIP3   OH223688   4.816   2.860   1.262  0.2676  0.2806 -0.1507
  710TIP3    H123689   4.746   2.795   1.266 -0.5470  1.0059 -1.8784
  710TIP3    H223690   4.871   2.841   1.338 -0.5107 -1.7650 -0.0579
  711TIP3   OH223691   4.560   2.376   1.498 -0.0524 -0.2151 -0.1419
  711TIP3    H123692   4.585   2.368   1.590  0.5890  0.1035 -0.2820
  711TIP3    H223693   4.478   2.327   1.490 -1.1372  1.3311  1.0124
  712TIP3   OH223694   3.772   4.558   1.988 -0.0278 -0.2036  0.0957
  712TIP3    H123695   3.796   4.491   1.923 -1.0525 -0.7516  0.2538
  712TIP3    H223696   3.698   4.604   1.948  0.2701  0.4210  0.2613
  713TIP3   OH223697   2.255   1.102   0.254 -0.3313  0.3228 -0.3354
  713TIP3    H123698   2.201   1.179   0.235  0.9384  0.8054 -2.3445
  713TIP3    H223699   2.200   1.028   0.229 -1.5984  0.4954  1.6946
  714TIP3   OH223700   6.275   6.749   0.444 -0.0421  0.3051 -0.1881
  714TIP3    H123701   6.211   6.723   0.377  1.5103 -1.2202 -1.1603
  714TIP3    H223702   6.325   6.820   0.402 -0.1380  0.4724 -0.0169
  715TIP3   OH223703   6.554   4.968   7.472 -0.0872 -0.0758  0.5067
  715TIP3    H123704   6.511   5.054   7.474 -2.6028 -1.0362 -2.6816
  715TIP3    H223705   6.634   4.983   7.422 -0.1808  0.5159  0.5220
  716TIP3   OH223706   0.281   5.293   1.908 -0.1690  0.1447 -0.0369
  716TIP3    H123707   0.322   5.379   1.922  2.0764 -0.4710 -2.0653
  716TIP3    H223708   0.209   5.311   1.847 -0.0362  0.6441 -0.0536
  717TIP3   OH223709   4.677   5.014   6.534  0.6782  0.0693  0.0845
  717TIP3    H123710   4.674   5.105   6.505 -0.3160 -0.0201 -0.1371
  717TIP3    H223711   4.618   4.968   6.474  0.1642 -0.4919  1.0040
  718TIP3   OH223712   4.528   3.279   0.243 -0.7026  0.6315  0.5147
  718TIP3    H123713   4.571   3.194   0.249 -1.8075 -0.0109 -0.3112
  718TIP3    H223714   4.598   3.341   0.224 -0.2462 -0.5370 -1.9911
  719TIP3   OH223715   0.131   0.705   6.937 -0.2910 -0.4691 -0.0955
  719TIP3    H123716   0.068   0.724   7.006 -0.9116 -0.3013 -0.7002
  719TIP3    H223717   0.079   0.668   6.865  0.1064  0.7807 -1.0619
  720TIP3   OH223718   6.727   2.412   0.941  1.1239  1.0198 -0.1975
  720TIP3    H123719   6.694   2.502   0.942 -0.4835  0.5068 -1.6292
  720TIP3    H223720   6.653   2.359   0.969  1.5539  0.0162 -0.8919
  721TIP3   OH223721   1.141   6.158   0.942 -0.2111  0.0741  0.1239
  721TIP3    H123722   1.058   6.187   0.904 -0.7208  0.3862  1.4460
  721TIP3    H223723   1.199   6.234   0.933  0.3307 -0.5003 -1.8243
  722TIP3   OH223724   2.298   1.869   3.047  0.3659 -0.3036  0.4501
  722TIP3    H123725   2.360   1.938   3.069 -0.4175  1.3576 -2.0753
  722TIP3    H223726   2.326   1.837   2.961  0.2377 -2.6460  1.2024
  723TIP3   OH223727   5.049   6.001   7.458  0.5008  0.3726  0.2142
  723TIP3    H123728   5.005   6.042   7.384 -0.3259 -0.0675  0.4436
  723TIP3    H223729   5.081   5.917   7.423  0.3747  0.2983  0.2776
  724TIP3   OH223730   4.559   6.137   8.168  0.1035  0.0425 -0.0241
  724TIP3    H123731   4.536   6.087   8.090 -1.2757  0.7961 -0.1297
  724TIP3    H223732   4.550   6.074   8.240 -0.0751 -0.2782 -0.3245
  725TIP3   OH223733   0.648   4.946   7.251 -0.2976  0.3021 -0.4294
  725TIP3    H123734   0.683   4.906   7.172 -0.6229  1.8059 -1.3829
  725TIP3    H223735   0.607   4.874   7.299  1.2695 -0.9249 -0.8352
  726TIP3   OH223736   5.768   6.840   7.742  0.6415  0.1285 -0.0210
  726TIP3    H123737   5.684   6.838   7.695 -0.0682  0.8304  1.1641
  726TIP3    H223738   5.750   6.892   7.821  2.5196  1.3542 -0.3385
  727TIP3   OH223739   4.565   5.877   8.005 -0.3991 -0.1917 -0.1103
  727TIP3    H123740   4.567   5.810   7.937 -1.5696 -0.2944 -0.0599
  727TIP3    H223741   4.578   5.828   8.087 -0.5088 -0.2563 -0.1329
  728TIP3   OH223742   3.894   6.762   2.645  0.3051  0.3785 -0.6868
  728TIP3    H123743   3.902   6.685   2.589 -0.1045 -0.7972  0.7858
  728TIP3    H223744   3.896   6.726   2.734  3.5080  2.3782  0.1880
  729TIP3   OH223745   0.037   4.443   0.413 -0.0511  0.3133  0.3603
  729TIP3    H123746   0.087   4.481   0.486 -1.7478  1.2974  1.0646
  729TIP3    H223747  -0.041   4.407   0.455 -0.8601  0.5353 -0.9266
  730TIP3   OH223748   4.018   5.025   0.583  0.2888  0.6337 -0.5209
  730TIP3    H123749   4.060   5.104   0.617  1.3598  0.9234 -2.3436
  730TIP3    H223750   3.943   5.011   0.639  0.0594  2.9772 -0.1536
  731TIP3   OH223751   0.535   3.213   0.807  0.1851  0.2396 -0.1339
  731TIP3    H123752   0.584   3.294   0.793  0.7828 -0.3177 -1.3957
  731TIP3    H223753   0.443   3.239   0.800  0.3629  0.8467 -0.2746
  732TIP3   OH223754   1.159   1.331   1.580  0.1767  0.1059 -0.6002
  732TIP3    H123755   1.252   1.340   1.596  0.2329 -1.0591 -0.2088
  732TIP3    H223756   1.150   1.249   1.532 -0.6911 -0.0166 -0.2466
  733TIP3   OH223757   4.894   5.078   1.732  0.0248 -0.1082 -0.0415
  733TIP3    H123758   4.812   5.053   1.689  0.0326 -0.0764 -0.0755
  733TIP3    H223759   4.904   5.171   1.712  0.2502 -0.1928 -0.3378
  734TIP3   OH223760   0.938   6.613   0.990  0.3265 -0.4846  0.0070
  734TIP3    H123761   0.915   6.691   0.940  1.9253  0.8947  1.2867
  734TIP3    H223762   1.003   6.568   0.936 -0.7724 -1.1052 -0.8423
  735TIP3   OH223763   3.981   1.494   1.037 -0.0492  0.6935 -0.1746
  735TIP3    H123764   3.901   1.442   1.044  0.3069  0.1136 -0.3487
  735TIP3    H223765   3.952   1.579   1.003 -0.7574  0.9250  0.9292
  736TIP3   OH223766   4.207   4.396   8.038  0.5416 -0.0121 -0.1064
  736TIP3    H123767   4.112   4.406   8.043  0.3636 -1.7728  1.0982
  736TIP3    H223768   4.241   4.484   8.053 -0.8854  0.3239  1.5042
  737TIP3   OH223769   6.358   5.446   0.410 -0.3552 -0.2740 -0.0954
  737TIP3    H123770   6.438   5.439   0.462 -1.7098 -1.8973  1.9599
  737TIP3    H223771   6.289   5.462   0.474 -1.5700  2.6653 -1.9473
  738TIP3   OH223772   4.481   6.196   2.564  0.1574 -0.5958  0.2800
  738TIP3    H123773   4.570   6.203   2.529 -0.3424 -0.0434 -0.9535
  738TIP3    H223774   4.476   6.263   2.631  1.0870 -1.5475  1.3488
  739TIP3   OH223775   2.124   4.860   2.458 -0.2629  0.3559  0.2300
  739TIP3    H123776   2.060   4.816   2.402  0.6435  0.7694 -1.1779
  739TIP3    H223777   2.106   4.953   2.447 -1.7280  0.4536  2.6696
  740TIP3   OH223778   1.394   4.859   7.794 -0.3298  0.0897 -0.0381
  740TIP3    H123779   1.488   4.858   7.810 -0.6544 -0.7223  2.3695
  740TIP3    H223780   1.370   4.766   7.786 -0.8353  0.3210 -1.4440
  741TIP3   OH223781   2.081   3.205   7.541 -0.3589  0.4623  0.5198
  741TIP3    H123782   2.128   3.174   7.464  1.1450 -0.7696  1.8844
  741TIP3    H223783   2.149   3.225   7.605 -1.6352 -1.0274  2.4394
  742TIP3   OH223784   2.770   2.155   1.635 -0.3372  0.3832 -0.0791
  742TIP3    H123785   2.706   2.095   1.674  0.1309 -0.0668  0.0103
  742TIP3    H223786   2.765   2.234   1.690 -0.7157  0.3006  0.0087
  743TIP3   OH223787   1.834   3.827   6.775 -0.0077 -0.4720 -0.6938
  743TIP3    H123788   1.804   3.745   6.737 -1.9568  0.0788 -0.4520
  743TIP3    H223789   1.850   3.884   6.700 -1.5676 -0.1479 -0.8266
  744TIP3   OH223790   5.891   4.559   1.751  0.2273 -0.3201 -0.3711
  744TIP3    H123791   5.880   4.644   1.794  2.3129  0.6854 -1.6391
  744TIP3    H223792   5.941   4.507   1.813 -2.0975 -1.1357  0.9276
  745TIP3   OH223793   5.881   0.010   2.771  0.1742 -0.1354  0.2627
  745TIP3    H123794   5.977   0.010   2.782  0.0759 -0.1183  1.1654
  745TIP3    H223795   5.847  -0.027   2.852 -0.6362  0.9270  0.4297
  746TIP3   OH223796   3.749   1.786   8.000 -0.1791 -0.3151  0.2187
  746TIP3    H123797   3.714   1.837   7.927 -0.2498 -1.8691 -0.8882
  746TIP3    H223798   3.687   1.801   8.071  0.0007  1.3931  0.0460
  747TIP3   OH223799   0.046   6.675   8.111 -0.5629 -0.1590  0.1638
  747TIP3    H123800   0.048   6.587   8.074 -1.5074 -0.7835  1.5232
  747TIP3    H223801   0.111   6.674   8.181 -1.2279 -0.0864  0.7994
  748TIP3   OH223802   4.964   6.672   1.453 -0.9371 -0.0156  0.2043
  748TIP3    H123803   5.057   6.686   1.469 -0.1571 -3.5179 -0.3492
  748TIP3    H223804   4.919   6.735   1.510  1.6886  2.2406 -0.0243
  749TIP3   OH223805   4.341   2.616   7.423 -0.1282  0.3200 -0.0988
  749TIP3    H123806   4.263   2.612   7.368 -0.3202  1.2148  0.0919
  749TIP3    H223807   4.330   2.544   7.485 -0.7611  0.3733 -0.1421
  750TIP3   OH223808   3.736   6.474   8.278  0.4671 -0.2857 -0.0174
  750TIP3    H123809   3.723   6.382   8.256  1.9178 -0.8136  1.1803
  750TIP3    H223810   3.713   6.480   8.371  1.3895  0.3197  0.1893
  751TIP3   OH223811   5.424   5.349   1.561  0.0436 -0.2309  0.3306
  751TIP3    H123812   5.487   5.390   1.502 -1.4257  1.5701 -0.0840
  751TIP3    H223813   5.377   5.422   1.600 -1.8352 -1.4969  0.5502
  752TIP3   OH223814   6.652   2.671   1.689 -0.0384  0.7830  0.1618
  752TIP3    H123815   6.710   2.598   1.709 -1.9911 -0.8403  0.1100
  752TIP3    H223816   6.712   2.743   1.668  1.9599 -0.8803 -0.1947
  753TIP3   OH223817   0.988   4.792   0.955  0.0344  0.8954 -0.8589
  753TIP3    H123818   1.053   4.861   0.971 -1.5814  2.3558 -0.3496
  753TIP3    H223819   0.914   4.815   1.011 -0.9883 -0.6751 -1.4985
  754TIP3   OH223820   5.911   5.670   0.039  0.1015 -0.3038 -0.6848
  754TIP3    H123821   5.872   5.583   0.051  0.2332 -0.2950 -0.1940
  754TIP3    H223822   5.882   5.696  -0.048 -0.0452 -0.7868 -0.7875
  755TIP3   OH223823   0.289   5.740   1.264 -0.1446 -0.5121  0.0779
  755TIP3    H123824   0.327   5.670   1.212  0.2067 -0.7194  0.6107
  755TIP3    H223825   0.364   5.790   1.297 -0.3956  0.2297 -0.4514
  756TIP3   OH223826   2.539   1.867   1.325 -0.4109  0.0460 -0.2995
  756TIP3    H123827   2.538   1.862   1.420 -0.6142 -1.5238 -0.3601
  756TIP3    H223828   2.596   1.795   1.298  1.0451  1.4961 -1.3366
  757TIP3   OH223829   1.115   1.036   1.971 -0.0132 -0.0498  0.0324
  757TIP3    H123830   1.094   1.117   1.924  0.1005 -0.1322 -0.1604
  757TIP3    H223831   1.033   1.012   2.015 -0.2454 -0.2178 -0.4862
  758TIP3   OH223832   1.256   2.586   6.579 -0.3276 -0.0048 -0.4567
  758TIP3    H123833   1.300   2.631   6.507 -0.2623  1.1006  0.2585
  758TIP3    H223834   1.201   2.653   6.620  0.8695 -0.1568  1.5301
  759TIP3   OH223835   1.009   4.035   0.975  0.5012 -0.2370 -0.1274
  759TIP3    H123836   1.080   4.016   0.914  0.9161 -0.7609  0.5062
  759TIP3    H223837   0.949   3.962   0.966 -0.5008  0.7111 -1.4159
  760TIP3   OH223838   1.669   2.871   7.551  0.5841  0.9812 -0.0344
  760TIP3    H123839   1.692   2.782   7.525  0.1620  1.0343 -0.6115
  760TIP3    H223840   1.740   2.899   7.609  0.2416 -0.0650  0.9034
  761TIP3   OH223841   5.331   2.692   7.554  0.4614  0.3506 -0.2363
  761TIP3    H123842   5.380   2.762   7.597  0.0565  1.0560 -0.9027
  761TIP3    H223843   5.325   2.622   7.620 -0.0677  1.3653  0.8215
  762TIP3   OH223844   3.102   6.116   7.033 -0.1657  0.0958 -0.4000
  762TIP3    H123845   3.059   6.063   6.966  0.8800  1.7472 -2.5281
  762TIP3    H223846   3.044   6.191   7.046 -0.2761 -0.1247  0.4657
  763TIP3   OH223847   3.234   1.619   1.795 -0.0761  0.5779 -0.3079
  763TIP3    H123848   3.211   1.707   1.764  2.6330  1.3998 -0.2450
  763TIP3    H223849   3.226   1.624   1.890 -1.2224  0.3108 -0.3761
  764TIP3   OH223850   1.359   2.152   0.987 -0.6341 -0.0462 -0.7710
  764TIP3    H123851   1.331   2.077   0.935 -1.8313  0.4513 -0.8770
  764TIP3    H223852   1.442   2.178   0.949  0.3183 -1.9289 -0.0912
  765TIP3   OH223853   6.040   4.000   6.613 -0.3962 -0.2291  0.0830
  765TIP3    H123854   6.065   4.067   6.549  1.2563  0.1415  1.0451
  765TIP3    H223855   6.113   3.997   6.675 -1.8571 -0.6605  1.8996
  766TIP3   OH223856   1.670   6.883   0.995  0.4223  0.0376 -0.1170
  766TIP3    H123857   1.698   6.931   0.917  1.1964 -0.0632  0.0926
  766TIP3    H223858   1.575   6.895   0.997  0.6426  2.0971  0.2666
  767TIP3   OH223859   4.487   2.142   1.288 -0.3058 -0.4328 -0.7224
  767TIP3    H123860   4.433   2.131   1.366 -1.4519  1.1355 -1.2396
  767TIP3    H223861   4.516   2.054   1.266  1.1286 -0.7929  2.1865
  768TIP3   OH223862   1.910   2.140   1.362 -0.3321 -0.2612  0.5259
  768TIP3    H123863   1.946   2.156   1.274 -0.7667 -0.5179  0.2972
  768TIP3    H223864   1.946   2.055   1.387 -0.7754 -0.5264  0.2898
  769TIP3   OH223865   1.329   6.331   7.503 -0.0552  0.4816 -0.1748
  769TIP3    H123866   1.423   6.335   7.486  0.1704 -1.7524  0.2941
  769TIP3    H223867   1.319   6.372   7.589  0.0059  3.5002 -1.4906
  770TIP3   OH223868   2.851   3.328   1.036  0.1290 -0.0967  0.7205
  770TIP3    H123869   2.756   3.317   1.027  0.3585 -0.6330 -2.1380
  770TIP3    H223870   2.872   3.288   1.120 -2.1770  0.1743  1.4974
  771TIP3   OH223871   2.385   1.911   7.645  0.1063  0.2107 -0.1865
  771TIP3    H123872   2.338   1.959   7.577 -1.7045 -0.5883  0.4448
  771TIP3    H223873   2.404   1.826   7.606  0.9942  0.4877 -0.3978
  772TIP3   OH223874   0.107   5.856   2.120  0.5174  0.5914 -0.3312
  772TIP3    H123875   0.080   5.829   2.032 -0.3167  2.5925 -0.7429
  772TIP3    H223876   0.094   5.950   2.121 -1.3044  0.4391  2.5220
  773TIP3   OH223877   1.654   6.856   7.036  0.2761  0.4638 -0.9864
  773TIP3    H123878   1.562   6.833   7.024  0.5815 -1.0353 -0.6919
  773TIP3    H223879   1.661   6.886   7.126  0.3892 -1.2544 -0.3918
  774TIP3   OH223880   3.762   1.994   1.090 -0.6351 -0.5109  0.8047
  774TIP3    H123881   3.792   1.908   1.119 -0.6212 -0.5807  0.5919
  774TIP3    H223882   3.799   2.003   1.002  0.3197  0.1977  1.2601
  775TIP3   OH223883   2.699   2.627   2.566  0.1824 -0.0978  0.1923
  775TIP3    H123884   2.665   2.540   2.587 -0.2418 -0.2919 -1.2015
  775TIP3    H223885   2.793   2.619   2.580  0.2904 -1.1227 -0.9442
  776TIP3   OH223886   3.350   3.519   6.607 -0.4835  0.3458 -1.1429
  776TIP3    H123887   3.434   3.536   6.564  0.0252 -0.0301 -0.3344
  776TIP3    H223888   3.331   3.601   6.654 -1.8364  1.3468 -3.2927
  777TIP3   OH223889   2.015   0.708   7.444 -0.1308 -0.0477  0.2979
  777TIP3    H123890   1.988   0.675   7.359 -3.3260  1.2870  0.6695
  777TIP3    H223891   2.078   0.644   7.476 -0.0318 -1.4044 -2.3540
  778TIP3   OH223892   5.571   1.207   1.413  0.1134  0.0100 -0.3393
  778TIP3    H123893   5.508   1.210   1.342 -1.3747  0.4240  0.9494
  778TIP3    H223894   5.568   1.295   1.452  0.3160 -0.4313  0.7240
  779TIP3   OH223895   5.631   5.430   0.696 -0.5235  0.2202  0.4405
  779TIP3    H123896   5.682   5.437   0.778  0.4974 -0.6683 -0.0965
  779TIP3    H223897   5.671   5.495   0.638  0.2095 -0.6705 -0.0762
  780TIP3   OH223898   2.126   5.660   0.271 -0.2153 -0.1420 -0.9930
  780TIP3    H123899   2.212   5.644   0.310  0.0642  1.2991 -0.9803
  780TIP3    H223900   2.099   5.574   0.238  1.2208 -0.6302 -0.9796
  781TIP3   OH223901   2.195   0.444   0.414  0.0903  0.1180 -0.4553
  781TIP3    H123902   2.128   0.402   0.361 -1.0079  0.9546  0.2348
  781TIP3    H223903   2.177   0.416   0.504 -0.4931  1.7659 -0.0158
  782TIP3   OH223904   5.973   3.001   7.254 -0.2882 -0.6238 -0.7408
  782TIP3    H123905   5.926   3.070   7.302 -0.1341 -1.6604  0.9593
  782TIP3    H223906   5.954   2.921   7.302  1.4472 -1.4111 -1.3091
  783TIP3   OH223907   4.193   1.471   2.554 -0.0770  0.1741 -0.5391
  783TIP3    H123908   4.232   1.400   2.605  0.0532  0.4064 -0.3104
  783TIP3    H223909   4.100   1.468   2.576 -0.2554 -0.5911 -1.3383
  784TIP3   OH223910   5.344   1.591   0.402 -0.6766  0.8861 -0.3198
  784TIP3    H123911   5.280   1.647   0.447 -0.1480  0.3381  1.1649
  784TIP3    H223912   5.428   1.611   0.443 -0.4914 -1.0694  0.3932
  785TIP3   OH223913   6.397   5.006   1.610  0.3313 -0.2398  0.3916
  785TIP3    H123914   6.449   5.086   1.615 -0.5825  0.3163  1.2197
  785TIP3    H223915   6.364   5.006   1.520  0.3779  0.2878  0.3672
  786TIP3   OH223916   3.420   2.381   7.987 -0.5877  0.0463 -0.5923
  786TIP3    H123917   3.495   2.440   7.992  0.6471 -1.6044  1.6508
  786TIP3    H223918   3.361   2.411   8.056 -1.0435  0.0302 -0.9630
  787TIP3   OH223919   3.608   0.988   0.628 -0.4069 -0.0637 -0.2946
  787TIP3    H123920   3.664   1.055   0.667 -1.2855  0.2642  0.4364
  787TIP3    H223921   3.666   0.940   0.570  0.7156  0.0639  0.6760
  788TIP3   OH223922   1.473   2.813   0.655 -0.2867 -0.4160 -0.3401
  788TIP3    H123923   1.400   2.874   0.668  1.9297  2.4210 -0.3437
  788TIP3    H223924   1.524   2.851   0.584  0.6024 -2.9841 -1.1770
  789TIP3   OH223925   4.547   5.568   1.113  0.2645 -0.1517  0.7104
  789TIP3    H123926   4.461   5.609   1.108  1.0206  1.3711 -0.4833
  789TIP3    H223927   4.604   5.622   1.058  2.5297  0.2118  3.1741
  790TIP3   OH223928   0.847   6.627   0.056 -0.3430 -0.2952  0.1175
  790TIP3    H123929   0.833   6.546   0.006  1.3439 -0.0119 -0.8923
  790TIP3    H223930   0.855   6.597   0.147  2.0074 -1.5609 -0.4189
  791TIP3   OH223931   5.915   0.450   2.018  0.0384  0.4242  0.4884
  791TIP3    H123932   5.876   0.537   2.010 -0.1651  0.3587  0.7325
  791TIP3    H223933   5.849   0.399   2.066  0.7375  0.5074  1.5591
  792TIP3   OH223934   3.493   0.267   0.388 -0.6530  0.2591 -0.0920
  792TIP3    H123935   3.445   0.346   0.362  0.5902  0.8359 -0.7132
  792TIP3    H223936   3.542   0.293   0.466 -0.4958 -0.0054 -0.1010
  793TIP3   OH223937   2.253   6.748   1.486 -0.0262  0.2179 -0.3139
  793TIP3    H123938   2.300   6.712   1.562  1.1753  0.5285 -0.8768
  793TIP3    H223939   2.286   6.697   1.412 -0.7934  0.2737 -0.7019
  794TIP3   OH223940   0.348   1.783   6.982  0.8740  0.1162  0.2340
  794TIP3    H123941   0.398   1.704   6.999 -0.2155 -0.3498  1.5196
  794TIP3    H223942   0.260   1.751   6.959  0.6613  0.9240 -0.1081
  795TIP3   OH223943   1.116   4.562   1.760  0.0815 -0.1214  0.2853
  795TIP3    H123944   1.132   4.655   1.777 -1.5472  0.3872 -0.7404
  795TIP3    H223945   1.060   4.534   1.832 -2.1052  0.5799 -1.0353
  796TIP3   OH223946   4.285   5.724   7.149 -0.9398 -0.5122  0.1266
  796TIP3    H123947   4.332   5.749   7.229  0.3005 -0.9024 -0.4601
  796TIP3    H223948   4.224   5.795   7.134  1.0020  1.1424 -0.3154
  797TIP3   OH223949   2.171   2.947   8.214  0.6481 -0.0398  0.1899
  797TIP3    H123950   2.170   2.966   8.307 -0.8007  1.6226 -0.0959
  797TIP3    H223951   2.260   2.965   8.186  0.8829  0.2611  1.1038
  798TIP3   OH223952   0.155   6.639   7.818 -0.2292 -0.3529  0.1417
  798TIP3    H123953   0.204   6.564   7.783  0.3740  0.3679 -0.6149
  798TIP3    H223954   0.213   6.677   7.884 -0.5493 -0.5740  0.5508
  799TIP3   OH223955   3.933   5.835   8.319 -0.0431  0.0024  0.0002
  799TIP3    H123956   3.970   5.781   8.249  0.4856 -0.5968  0.7231
  799TIP3    H223957   3.850   5.866   8.284  0.5744  0.3706 -1.2030
  800TIP3   OH223958   4.566   5.833   6.570  0.1643  0.1063  0.1000
  800TIP3    H123959   4.660   5.821   6.555  0.3306  2.0581 -0.6951
  800TIP3    H223960   4.561   5.898   6.639 -0.6541 -1.6894  1.8236
  801TIP3   OH223961   6.147   4.999   0.257  0.4317  0.1515 -0.1245
  801TIP3    H123962   6.102   4.945   0.323 -1.0366  0.6208 -0.7029
  801TIP3    H223963   6.213   5.047   0.307 -0.4070  0.2268  0.9548
  802TIP3   OH223964   2.488   5.605   0.973 -0.0260 -0.2832 -0.2053
  802TIP3    H123965   2.423   5.673   0.954  0.2739  0.6528  1.8722
  802TIP3    H223966   2.515   5.621   1.063  3.0619 -0.6869 -0.9385
  803TIP3   OH223967   5.093   4.884   1.740 -0.8564 -0.3186 -0.6376
  803TIP3    H123968   5.140   4.935   1.805 -0.3009 -0.2282 -1.1025
  803TIP3    H223969   5.001   4.906   1.754 -0.7157 -0.0753 -0.0812
  804TIP3   OH223970   0.526   2.287   7.445 -0.1728  0.3970  0.1896
  804TIP3    H123971   0.435   2.279   7.476 -0.2023 -1.0300 -0.2070
  804TIP3    H223972   0.539   2.212   7.388  1.1554  0.7967 -0.0733
  805TIP3   OH223973   2.788   5.041   6.562 -0.4781 -0.4668 -0.1174
  805TIP3    H123974   2.731   5.023   6.637 -0.6868 -0.3961 -0.2588
  805TIP3    H223975   2.815   4.955   6.531 -0.7302 -0.5084 -0.2208
  806TIP3   OH223976   0.603   0.854   6.543  0.4992 -0.2054  0.5443
  806TIP3    H123977   0.682   0.814   6.508  0.4147 -0.5037  0.6931
  806TIP3    H223978   0.569   0.791   6.606  0.4897  0.1977  0.9520
  807TIP3   OH223979   3.071   2.911   0.580 -0.1472 -0.1808  0.1960
  807TIP3    H123980   3.146   2.909   0.519  1.2759 -0.3732  1.8749
  807TIP3    H223981   3.075   2.997   0.621 -1.2829  0.0631 -0.1655
  808TIP3   OH223982   6.856   1.122   1.885 -0.0504  0.1401  0.0436
  808TIP3    H123983   6.937   1.083   1.916  0.0361  1.5045  1.6798
  808TIP3    H223984   6.787   1.076   1.933  0.0048  1.3408  1.3417
  809TIP3   OH223985   6.553   5.696   2.349 -0.2323 -0.6917 -0.0962
  809TIP3    H123986   6.591   5.648   2.276 -0.8833 -0.1980 -0.7799
  809TIP3    H223987   6.459   5.700   2.329  0.0575  3.2381 -1.5597
  810TIP3   OH223988   5.230   2.520   7.742  0.2480  0.5643  0.0772
  810TIP3    H123989   5.223   2.425   7.736 -1.5476  0.6515  0.2722
  810TIP3    H223990   5.195   2.542   7.828 -1.7827  1.5741 -0.9476
  811TIP3   OH223991   6.457   6.552   1.630  0.7422  0.0139 -0.3306
  811TIP3    H123992   6.527   6.512   1.681  0.3334  1.2358  1.2553
  811TIP3    H223993   6.469   6.646   1.641 -0.1184  0.2899 -1.4826
  812TIP3   OH223994   0.265   3.073   0.595  0.6689 -0.3013  0.5197
  812TIP3    H123995   0.291   2.986   0.622  0.3085 -0.6665 -0.2655
  812TIP3    H223996   0.178   3.085   0.633  1.8512  0.9200  3.1465
  813TIP3   OH223997   4.757   0.630   8.179 -0.1699  0.2222  0.1646
  813TIP3    H123998   4.674   0.593   8.211 -1.0930  0.9369 -1.2661
  813TIP3    H223999   4.739   0.651   8.087  2.2218 -1.4357 -0.7804
  814TIP3   OH224000   5.979   0.723   2.056 -0.7730 -0.1457  0.8211
  814TIP3    H124001   5.934   0.803   2.085 -0.8539 -0.0981  0.5700
  814TIP3    H224002   6.040   0.703   2.127 -0.8982  0.0237  0.9794
  815TIP3   OH224003   4.366   6.629   0.007  0.1049 -0.0549  0.0790
  815TIP3    H124004   4.275   6.602   0.021  0.1737 -0.4972 -0.2925
  815TIP3    H224005   4.407   6.553  -0.034  0.2623  0.6815 -1.1714
  816TIP3   OH224006   3.877   4.773   7.640 -0.6823 -0.4917  0.3322
  816TIP3    H124007   3.852   4.687   7.673 -0.5422 -0.9670 -0.7461
  816TIP3    H224008   3.933   4.754   7.564 -0.9701  0.5381 -0.1550
  817TIP3   OH224009   5.459   5.704   1.123  0.1802  0.2920  0.8051
  817TIP3    H124010   5.440   5.614   1.148  0.2726  0.0938  0.1664
  817TIP3    H224011   5.374   5.740   1.096  0.6699 -0.7213 -2.4600
  818TIP3   OH224012   4.439   4.040   1.605  0.3103  0.5832  1.0765
  818TIP3    H124013   4.487   4.078   1.531 -1.3371  0.1504 -0.2976
  818TIP3    H224014   4.456   3.946   1.599 -1.0121  0.3575  0.2619
  819TIP3   OH224015   0.970   3.966   1.969 -0.3872  0.4619 -0.2392
  819TIP3    H124016   0.974   3.870   1.969 -1.4203  0.3923  0.8252
  819TIP3    H224017   1.029   3.992   2.040 -1.9958  0.4605  1.1561
  820TIP3   OH224018   3.073   4.208   1.780  0.3295  0.2623  0.3663
  820TIP3    H124019   3.059   4.283   1.721  0.3727 -0.6473 -0.8353
  820TIP3    H224020   3.163   4.218   1.810  1.0993 -0.4724 -1.5492
  821TIP3   OH224021   6.891   6.984   0.991  0.3429  0.2963 -0.1362
  821TIP3    H124022   6.829   6.997   1.063 -3.0526  0.2325 -2.7937
  821TIP3    H224023   6.934   7.069   0.981  0.7753  0.3568  1.7737
  822TIP3   OH224024   4.106   0.047   6.914 -0.5881 -0.6186  0.2954
  822TIP3    H124025   4.093   0.114   6.847 -0.9549  0.1930  1.1562
  822TIP3    H224026   4.018   0.024   6.944 -0.4473 -1.2370  0.2555
  823TIP3   OH224027   1.627   4.980   0.837  0.4687  0.3513  0.1320
  823TIP3    H124028   1.664   4.970   0.749  0.5214  0.7761  0.1059
  823TIP3    H224029   1.577   4.899   0.851  0.6209  0.1965 -0.2104
  824TIP3   OH224030   6.963   4.083   7.990  0.5887 -0.2587 -0.2073
  824TIP3    H124031   6.913   4.096   7.909 -0.4538 -1.9270  0.1221
  824TIP3    H224032   6.904   4.112   8.060  0.3092 -1.5899  0.1374
  825TIP3   OH224033   4.683   5.290   8.131  0.7833 -0.2974  0.8504
  825TIP3    H124034   4.591   5.279   8.106  0.6113 -0.1375  1.4067
  825TIP3    H224035   4.680   5.316   8.223  1.3208  0.9331  0.5402
  826TIP3   OH224036   0.701   1.936   7.130 -0.1334 -0.2863  0.2470
  826TIP3    H124037   0.789   1.937   7.093 -0.2435 -0.1235 -0.0140
  826TIP3    H224038   0.643   1.951   7.055 -0.4122 -0.8497  0.3377
  827TIP3   OH224039   4.460   6.627   1.097 -0.0625  0.0768 -0.5690
  827TIP3    H124040   4.433   6.600   1.184  1.6754 -1.4250 -0.4307
  827TIP3    H224041   4.511   6.707   1.111  0.9027 -0.6064 -0.0833
  828TIP3   OH224042   5.546   2.385   8.360  0.1266 -0.3050  0.1992
  828TIP3    H124043   5.533   2.360   8.269 -0.8691 -3.4922  1.0879
  828TIP3    H224044   5.460   2.374   8.401  0.6433  0.6525  1.5977
  829TIP3   OH224045   2.028   2.458   1.077  0.1734  0.0792  0.0339
  829TIP3    H124046   1.968   2.529   1.101  1.6694  1.9760 -1.5273
  829TIP3    H224047   2.074   2.437   1.158 -0.7931  0.3785  0.6743
  830TIP3   OH224048   4.067   4.129   7.165  0.4172 -0.3012 -0.1886
  830TIP3    H124049   4.012   4.063   7.123 -0.9162 -0.0219  1.0360
  830TIP3    H224050   4.080   4.097   7.254  0.8165  0.4883  0.0490
  831TIP3   OH224051   4.179   4.182   7.785 -0.0938 -0.4842 -0.2799
  831TIP3    H124052   4.265   4.155   7.754 -0.2906 -1.5502  0.0762
  831TIP3    H224053   4.172   4.146   7.873 -0.9695 -0.5430 -0.3672
  832TIP3   OH224054   1.727   3.824   1.043  0.3558  0.3939  0.1502
  832TIP3    H124055   1.679   3.904   1.068  1.4262  0.8307  0.8881
  832TIP3    H224056   1.690   3.799   0.959 -0.7390  1.0643  0.4181
  833TIP3   OH224057   0.057   4.878   7.168 -0.0387  0.4879  0.0683
  833TIP3    H124058   0.009   4.959   7.151  0.5912  0.6231 -1.1864
  833TIP3    H224059   0.147   4.897   7.142 -0.2847 -1.2374 -2.4752
  834TIP3   OH224060   3.000   6.195   0.652  0.8058  0.1981 -0.0195
  834TIP3    H124061   2.905   6.206   0.655  0.7442  0.5869 -2.1538
  834TIP3    H224062   3.035   6.278   0.684  0.4898 -0.5475  2.4390
  835TIP3   OH224063   6.470   0.600   7.539  0.0648  0.4109 -0.1225
  835TIP3    H124064   6.522   0.650   7.603 -1.1202  0.5733  0.7465
  835TIP3    H224065   6.529   0.532   7.509  1.0065  0.9921  0.3383
  836TIP3   OH224066   4.990   0.622   7.655  0.0896  0.0361 -0.4935
  836TIP3    H124067   5.014   0.684   7.586  1.6251 -1.3322 -1.2240
  836TIP3    H224068   5.062   0.560   7.658 -0.9198 -1.1147  0.9603
  837TIP3   OH224069   5.252   6.125   0.332 -0.1533  0.0322  0.0478
  837TIP3    H124070   5.209   6.190   0.388 -1.3116  0.3557 -1.1561
  837TIP3    H224071   5.324   6.091   0.385 -0.7332  0.8747  1.4285
  838TIP3   OH224072   3.703   6.416   0.269 -0.2884  0.1386 -0.2633
  838TIP3    H124073   3.690   6.430   0.363  2.9033  1.1739  0.1662
  838TIP3    H224074   3.617   6.393   0.235 -1.8048  1.0235  2.6853
  839TIP3   OH224075   6.615   0.228   6.785 -0.6924 -0.4128 -0.8816
  839TIP3    H124076   6.522   0.251   6.772 -0.2996  1.1387 -1.2311
  839TIP3    H224077   6.651   0.225   6.696 -0.0491  0.7427 -0.6814
  840TIP3   OH224078   3.817   4.709   6.771 -0.5983 -0.2558 -0.1744
  840TIP3    H124079   3.874   4.693   6.846  1.9852  1.3213 -1.6645
  840TIP3    H224080   3.734   4.736   6.809 -0.1659 -1.8539  2.1007
  841TIP3   OH224081   2.900   2.458   0.357  0.1966  0.2697  0.3802
  841TIP3    H124082   2.966   2.476   0.290  0.8914 -1.3313  0.5959
  841TIP3    H224083   2.926   2.513   0.431 -0.3639  1.7642 -0.4727
  842TIP3   OH224084   2.741   0.521   1.013  0.0882  0.7418  0.6604
  842TIP3    H124085   2.765   0.610   0.985  1.2193  0.1482 -0.3239
  842TIP3    H224086   2.647   0.516   0.999  0.0600  1.6873  0.4541
  843TIP3   OH224087   5.084   6.716   0.746 -0.0601  0.3009  0.0141
  843TIP3    H124088   5.056   6.625   0.748 -1.2224  0.6529  1.0006
  843TIP3    H224089   5.016   6.761   0.696  0.6421  0.6086 -0.6953
  844TIP3   OH224090   2.991   4.183   8.109  0.0247  0.3318 -0.2074
  844TIP3    H124091   3.004   4.195   8.203 -0.2391  0.5945 -0.2036
  844TIP3    H224092   2.903   4.216   8.093  0.6726  1.8102 -0.8321
  845TIP3   OH224093   5.799   0.050   1.271  0.4070  0.6239 -0.4006
  845TIP3    H124094   5.859   0.031   1.199  0.1617  1.8602 -0.9582
  845TIP3    H224095   5.735  -0.021   1.268  2.7295 -1.7274  1.3013
  846TIP3   OH224096   3.022   5.590   0.206  0.1157 -0.0393 -0.6726
  846TIP3    H124097   2.936   5.583   0.163  0.7458  3.1608 -2.7631
  846TIP3    H224098   3.002   5.583   0.300 -2.0385 -1.7636 -1.1534
  847TIP3   OH224099   6.923   5.937   7.918 -0.1987 -0.2786  0.5816
  847TIP3    H124100   6.898   5.990   7.842  1.9095 -1.4155 -1.0104
  847TIP3    H224101   6.861   5.864   7.917 -0.0766 -0.3822 -0.1930
  848TIP3   OH224102   5.822   1.427   7.605  0.1964 -0.3856 -0.5775
  848TIP3    H124103   5.746   1.421   7.548 -0.7131  0.8096  0.4420
  848TIP3    H224104   5.814   1.514   7.646  1.4013 -0.7670  0.5244
  849TIP3   OH224105   3.327   6.658   0.130  0.2344  0.1322 -0.5884
  849TIP3    H124106   3.326   6.744   0.090  0.3125  0.1778 -0.4921
  849TIP3    H224107   3.237   6.626   0.122  0.5407 -0.4365 -2.0484
  850TIP3   OH224108   3.782   1.174   0.273  0.1638  0.0096  0.6612
  850TIP3    H124109   3.818   1.086   0.288  0.2895 -0.1701 -0.5600
  850TIP3    H224110   3.823   1.228   0.339  1.7440 -0.4460  0.1029
  851TIP3   OH224111   5.501   2.338   7.923  0.1897  0.3637 -0.3460
  851TIP3    H124112   5.537   2.265   7.973  1.4746  1.5143  0.5013
  851TIP3    H224113   5.577   2.379   7.882 -0.4750  1.3504 -0.6351
  852TIP3   OH224114   0.340   1.631   7.488  0.0627 -0.3985  0.1676
  852TIP3    H124115   0.299   1.687   7.423  0.0449  0.1981  0.6886
  852TIP3    H224116   0.308   1.664   7.572 -0.1936 -1.3713  0.4781
  853TIP3   OH224117   1.962   4.239   1.382 -0.0533 -0.1893  0.5668
  853TIP3    H124118   1.908   4.251   1.304  0.0291 -0.6523  0.4373
  853TIP3    H224119   2.029   4.176   1.355  1.0871  1.0337  0.4619
  854TIP3   OH224120   3.724   4.913   1.958 -0.7925  0.0267 -0.3543
  854TIP3    H124121   3.762   4.923   2.045 -0.1571  0.3253 -0.6621
  854TIP3    H224122   3.687   4.824   1.958  1.7771 -1.1252 -0.7436
  855TIP3   OH224123   0.422   1.371   8.159  0.3908  0.3903 -0.0247
  855TIP3    H124124   0.408   1.307   8.229 -0.8011 -1.2169 -1.6167
  855TIP3    H224125   0.334   1.397   8.134  0.8560  3.3811  1.1124
  856TIP3   OH224126   0.802   6.206   1.366  0.2730 -0.0870  0.1058
  856TIP3    H124127   0.818   6.272   1.299 -0.0546 -0.5087 -0.3914
  856TIP3    H224128   0.816   6.252   1.449 -0.2680  0.6869 -0.2276
  857TIP3   OH224129   4.469   1.489   2.014  0.4100  0.5500  0.0244
  857TIP3    H124130   4.517   1.510   1.934  0.2924 -1.1582 -0.5531
  857TIP3    H224131   4.466   1.393   2.015  0.4577  0.5159  2.1189
  858TIP3   OH224132   5.389   6.769   8.167  0.0477 -0.2977  0.2694
  858TIP3    H124133   5.340   6.792   8.088 -0.8510  0.2323  0.9636
  858TIP3    H224134   5.337   6.700   8.208  1.0915 -1.3767 -0.1601
  859TIP3   OH224135   6.693   5.404   7.625  0.1563 -0.2290  0.0849
  859TIP3    H124136   6.643   5.375   7.701  0.0467 -0.2312  0.0120
  859TIP3    H224137   6.744   5.327   7.600 -0.5643 -0.5396 -0.4556
  860TIP3   OH224138   1.179   6.552   0.048  0.9505 -0.2440 -0.2335
  860TIP3    H124139   1.227   6.635   0.045 -0.6338  0.7446  0.5157
  860TIP3    H224140   1.247   6.485   0.046  2.3438  1.0865  0.4461
  861TIP3   OH224141   4.966   1.326   2.618 -0.7992 -0.2668 -0.8719
  861TIP3    H124142   4.964   1.421   2.630 -0.6976 -0.2589 -0.9235
  861TIP3    H224143   5.045   1.298   2.664  0.7406 -0.0149 -3.1852
  862TIP3   OH224144   0.208   5.160   7.911 -0.0384 -0.1080  0.3563
  862TIP3    H124145   0.303   5.172   7.909  0.0872 -0.9452  0.6634
  862TIP3    H224146   0.189   5.134   8.001 -0.3389 -1.4560 -0.0620
  863TIP3   OH224147   3.797   3.437   7.596 -0.0612 -0.6226 -0.2926
  863TIP3    H124148   3.849   3.441   7.515  1.4791 -0.8044  0.6503
  863TIP3    H224149   3.825   3.514   7.646 -2.0443  0.3031 -0.4922
  864TIP3   OH224150   2.667   2.913   6.699 -0.5075 -0.4624 -0.8157
  864TIP3    H124151   2.652   2.879   6.611  1.2321 -0.2788 -1.2286
  864TIP3    H224152   2.639   3.005   6.694 -1.2132 -0.6794 -0.9213
  865TIP3   OH224153   6.207   1.802   7.327 -0.2097  0.3995  0.3112
  865TIP3    H124154   6.156   1.874   7.366 -2.1008 -0.7954  0.1663
  865TIP3    H224155   6.161   1.782   7.246  0.7144 -0.5299  0.0035
  866TIP3   OH224156   0.307   1.631   2.869 -0.1132 -0.0711 -0.5614
  866TIP3    H124157   0.221   1.591   2.875 -0.1440 -0.2486 -1.9478
  866TIP3    H224158   0.365   1.562   2.836  0.4334  0.2207 -0.2425
  867TIP3   OH224159   1.481   2.516   8.254 -0.2014  0.2281 -0.9054
  867TIP3    H124160   1.489   2.521   8.349 -3.1588 -2.9826 -0.2836
  867TIP3    H224161   1.561   2.473   8.226 -0.1630 -0.6405  0.4392
  868TIP3   OH224162   1.491   4.766   7.213  0.2224 -0.4955  0.2711
  868TIP3    H124163   1.518   4.787   7.302 -1.1270  0.0871  0.5734
  868TIP3    H224164   1.533   4.833   7.159 -0.2556  0.1510  0.6778
  869TIP3   OH224165   2.888   6.797   1.636 -0.7845  0.5643  0.5567
  869TIP3    H124166   2.799   6.819   1.660 -0.3821  1.4220  1.3248
  869TIP3    H224167   2.884   6.704   1.611 -2.0820  0.8878 -0.5210
  870TIP3   OH224168   2.883   1.456   7.741 -0.7058 -0.4761 -0.0840
  870TIP3    H124169   2.967   1.461   7.786  0.6626  0.3726 -2.5157
  870TIP3    H224170   2.875   1.541   7.697 -1.5475 -1.4860 -1.9889
  871TIP3   OH224171   3.464   2.736   7.075 -0.2189 -0.0235 -0.0349
  871TIP3    H124172   3.392   2.730   7.138 -0.1277 -0.5816  0.0171
  871TIP3    H224173   3.423   2.719   6.990 -0.8245  3.0335 -0.4955
  872TIP3   OH224174   4.374   5.119   1.497 -0.1461 -0.0643  0.1336
  872TIP3    H124175   4.371   5.035   1.450 -0.6888 -1.0099  1.7776
  872TIP3    H224176   4.361   5.185   1.429 -1.3532 -1.3875 -0.9908
  873TIP3   OH224177   0.871   5.571   7.773  0.2491  0.1153  0.0925
  873TIP3    H124178   0.843   5.559   7.682  0.4684 -1.7491  0.2276
  873TIP3    H224179   0.965   5.588   7.767 -0.1019  2.2025 -0.1208
  874TIP3   OH224180   0.093   4.376   0.745  0.5338  0.3000 -0.2187
  874TIP3    H124181   0.180   4.346   0.720  0.5952  0.8664 -0.6926
  874TIP3    H224182   0.081   4.341   0.834  1.6220  1.0136  0.2270
  875TIP3   OH224183   2.226   5.698   1.713  0.1130 -0.1267 -0.9033
  875TIP3    H124184   2.169   5.723   1.641  1.8828  0.0276 -2.3217
  875TIP3    H224185   2.279   5.626   1.679  0.6954 -0.3609  0.4007
  876TIP3   OH224186   5.549   6.020   6.724 -0.6300 -0.2904  0.0851
  876TIP3    H124187   5.495   6.009   6.645 -0.0851 -1.0353 -0.2046
  876TIP3    H224188   5.583   6.109   6.717 -1.8648  0.2210  0.3145
  877TIP3   OH224189   2.226   6.089   6.517  0.2399  0.3416 -0.2878
  877TIP3    H124190   2.280   6.012   6.503  0.1831  0.4767 -1.3654
  877TIP3    H224191   2.208   6.090   6.611 -0.1281 -1.2002 -0.3139
  878TIP3   OH224192   6.222   6.005   0.421  0.0977  0.3185  0.2580
  878TIP3    H124193   6.135   5.978   0.450  0.0237  0.3840  0.0974
  878TIP3    H224194   6.242   6.083   0.472  0.3083 -0.0319  0.7169
  879TIP3   OH224195   0.566   6.700   0.348  0.2925 -0.1643  0.1022
  879TIP3    H124196   0.488   6.676   0.398  0.6985 -0.4509  0.6171
  879TIP3    H224197   0.626   6.626   0.361  0.0629 -0.6886 -1.5794
  880TIP3   OH224198   4.383   1.628   8.247  0.0312 -0.5299 -0.1932
  880TIP3    H124199   4.363   1.675   8.167 -0.6881  0.1121  0.3544
  880TIP3    H224200   4.454   1.678   8.287 -1.1259  0.4842  0.6843
  881TIP3   OH224201   3.847   3.223   7.347 -0.1935  0.0758  0.5130
  881TIP3    H124202   3.920   3.171   7.311 -1.0531 -0.8372  0.0315
  881TIP3    H224203   3.824   3.179   7.428 -0.9031 -0.2887  0.1224
  882TIP3   OH224204   1.430   1.793   0.042 -0.1346 -0.3215 -0.4557
  882TIP3    H124205   1.351   1.844   0.022  1.2931  2.7884  1.1574
  882TIP3    H224206   1.480   1.793  -0.039 -0.1421  0.9921 -0.4819
  883TIP3   OH224207   1.625   3.394   1.440  0.0883  0.0702 -0.5871
  883TIP3    H124208   1.569   3.321   1.414 -2.0353  0.9535  1.1565
  883TIP3    H224209   1.707   3.353   1.468 -0.6605 -1.5577 -0.6732
  884TIP3   OH224210   1.948   2.506   2.265 -0.2945  0.1964  0.1208
  884TIP3    H124211   1.927   2.597   2.286  0.1684 -0.0477  1.8245
  884TIP3    H224212   2.043   2.506   2.252 -0.3641  0.0435 -0.3927
  885TIP3   OH224213   1.715   0.566   6.708  0.3009 -0.1396  0.4923
  885TIP3    H124214   1.646   0.570   6.774  1.5770  1.1551  1.8242
  885TIP3    H224215   1.781   0.628   6.738  1.1327  0.2058 -1.8190
  886TIP3   OH224216   4.625   5.270   6.502 -0.0606  0.1933 -0.1756
  886TIP3    H124217   4.599   5.311   6.420 -1.1026  0.2078  0.1580
  886TIP3    H224218   4.548   5.275   6.558  0.5645 -0.0233  0.7326
  887TIP3   OH224219   2.357   0.998   1.732 -0.0280 -0.3006  0.0522
  887TIP3    H124220   2.421   1.042   1.676  1.4045 -1.1108  0.9862
  887TIP3    H224221   2.282   1.058   1.735  0.9717  1.0208 -0.4781
  888TIP3   OH224222   3.185   3.188   7.671  0.6857  0.3632 -0.4698
  888TIP3    H124223   3.251   3.150   7.729 -1.6252 -3.4585 -0.0090
  888TIP3    H224224   3.204   3.151   7.585 -1.6163 -2.1416 -0.0179
  889TIP3   OH224225   4.417   2.302   7.526 -0.1530 -0.2455  0.4115
  889TIP3    H124226   4.426   2.366   7.597  0.9252  0.5730 -0.4378
  889TIP3    H224227   4.346   2.245   7.555  1.1791 -0.8246  2.8161
  890TIP3   OH224228   4.088   4.635   7.373 -0.9460 -0.0891 -0.4208
  890TIP3    H124229   4.058   4.695   7.305  0.7869 -0.6102 -1.7073
  890TIP3    H224230   4.103   4.552   7.326 -0.5859 -0.7222  0.7748
  891TIP3   OH224231   6.148   5.730   7.255  0.0462 -0.2330  0.0411
  891TIP3    H124232   6.224   5.744   7.312  0.7143  1.7433 -1.2112
  891TIP3    H224233   6.180   5.754   7.168 -1.8492 -0.0074 -0.6299
  892TIP3   OH224234   3.918   5.674   8.073 -0.5067  0.8628  0.2343
  892TIP3    H124235   3.947   5.586   8.049  1.1181  1.3055  0.4294
  892TIP3    H224236   3.906   5.720   7.990 -1.2435  0.5063  0.1359
  893TIP3   OH224237   0.811   2.251   0.869  0.1343 -0.1164 -0.2395
  893TIP3    H124238   0.859   2.169   0.873 -1.8624 -1.3246  1.3096
  893TIP3    H224239   0.751   2.240   0.795 -0.5486 -0.3508  0.3313
  894TIP3   OH224240   5.388   0.170   0.848  0.2545  0.4005 -0.2624
  894TIP3    H124241   5.438   0.186   0.928 -0.4970 -1.6259  0.6852
  894TIP3    H224242   5.304   0.215   0.863  0.5123  0.9250 -0.3824
  895TIP3   OH224243   0.953   6.418   6.250  0.3856  0.4238 -0.3714
  895TIP3    H124244   0.945   6.324   6.261 -1.4639  0.5660 -0.1484
  895TIP3    H224245   0.901   6.438   6.172 -2.0761  1.5930  1.4165
  896TIP3   OH224246   1.537   4.167   7.258 -0.3244 -0.9410  0.4003
  896TIP3    H124247   1.509   4.121   7.179 -1.3635 -0.4409  0.4617
  896TIP3    H224248   1.503   4.114   7.330 -2.2223  0.2686  0.4721
  897TIP3   OH224249   6.448   4.193   0.595 -0.4592 -0.0405  0.0944
  897TIP3    H124250   6.499   4.153   0.665 -1.0087 -0.6193  0.1758
  897TIP3    H224251   6.504   4.186   0.518 -0.2946 -0.4142  0.2411
  898TIP3   OH224252   3.163   5.123   2.868  0.5637 -0.5522 -0.0558
  898TIP3    H124253   3.200   5.126   2.956  2.2666  1.7050 -0.7556
  898TIP3    H224254   3.233   5.154   2.811 -0.6807 -1.3944 -2.1693
  899TIP3   OH224255   0.635   1.635   1.910 -1.1618  0.0555 -0.3145
  899TIP3    H124256   0.551   1.615   1.868 -0.2364  0.0868 -2.2987
  899TIP3    H224257   0.694   1.654   1.837  1.5790 -3.5897  0.6864
  900TIP3   OH224258   1.763   0.819   0.031  1.0719 -0.2839 -0.5093
  900TIP3    H124259   1.807   0.886  -0.020  1.7205 -0.3151 -0.0030
  900TIP3    H224260   1.692   0.788  -0.025 -0.4855  2.1832 -0.0495
  901TIP3   OH224261   4.006   4.812   0.418 -0.5383  0.3632 -0.2017
  901TIP3    H124262   4.007   4.896   0.463 -1.7638 -0.2212  0.9913
  901TIP3    H224263   3.916   4.781   0.426 -0.7112  0.0083 -2.7107
  902TIP3   OH224264   6.075   4.817   1.067 -0.1478 -0.5573 -0.3916
  902TIP3    H124265   6.086   4.886   1.002 -0.8425 -0.1166 -0.0514
  902TIP3    H224266   6.053   4.739   1.017  0.5931 -0.5283 -0.7740
  903TIP3   OH224267   4.408   4.374   0.756 -0.5298  0.1170 -0.5972
  903TIP3    H124268   4.486   4.374   0.699  0.2803 -0.3259  0.4663
  903TIP3    H224269   4.341   4.420   0.706 -0.0068 -0.7057 -2.1268
  904TIP3   OH224270   0.156   6.914   1.851 -0.5051  0.8277 -0.2991
  904TIP3    H124271   0.093   6.986   1.843 -0.0898  1.2101 -0.1667
  904TIP3    H224272   0.189   6.900   1.763 -0.8662  0.5399 -0.3918
  905TIP3   OH224273   1.143   1.879   7.146  0.5257  0.0866 -0.0712
  905TIP3    H124274   1.193   1.801   7.124  1.1215  1.0630 -2.4668
  905TIP3    H224275   1.080   1.889   7.074  0.8482  2.0988 -0.1412
  906TIP3   OH224276   0.683   0.671   2.691  0.7591  0.5806  0.1775
  906TIP3    H124277   0.635   0.752   2.710  0.5155  0.3754  0.4343
  906TIP3    H224278   0.766   0.682   2.737  2.3808  2.3601 -2.8179
  907TIP3   OH224279   1.189   6.086   7.765 -0.1623  0.1479 -0.3230
  907TIP3    H124280   1.254   6.065   7.698  0.4292  1.2751 -0.1307
  907TIP3    H224281   1.105   6.078   7.720  0.2258  0.8492 -1.2123
  908TIP3   OH224282   2.301   6.627   0.082 -0.5942 -0.0541 -0.3660
  908TIP3    H124283   2.379   6.582   0.116 -1.8983 -0.5226  2.2294
  908TIP3    H224284   2.318   6.720   0.097 -0.5234 -0.1502  0.1434
  909TIP3   OH224285   2.767   4.399   0.039 -0.4313  0.0130  0.0870
  909TIP3    H124286   2.754   4.444  -0.044 -0.3507  1.4896  0.8328
  909TIP3    H224287   2.801   4.467   0.098 -1.8616 -0.5920  1.7249
  910TIP3   OH224288   2.076   2.017   2.550 -0.4898 -0.5918 -0.5806
  910TIP3    H124289   2.076   2.108   2.579 -2.5889 -0.5655 -0.4947
  910TIP3    H224290   2.083   1.966   2.631 -0.3366 -0.5122 -0.5433
  911TIP3   OH224291   3.599   0.386   0.612  0.5477  0.1449  0.5342
  911TIP3    H124292   3.586   0.478   0.589 -1.2124  0.4770  2.5183
  911TIP3    H224293   3.686   0.383   0.651  1.2796  0.6091 -0.9848
  912TIP3   OH224294   5.021   4.175   0.910 -0.4067  0.1667  0.4075
  912TIP3    H124295   5.110   4.188   0.942 -0.1450  1.2058 -0.6928
  912TIP3    H224296   5.007   4.246   0.848 -2.1548  0.2715  0.8659
  913TIP3   OH224297   6.067   5.192   1.299 -0.4186  0.6025 -0.4101
  913TIP3    H124298   6.063   5.283   1.269 -3.5499  0.2796 -1.3083
  913TIP3    H224299   6.011   5.190   1.377 -0.9938 -0.6910 -0.8351
  914TIP3   OH224300   4.627   6.758   8.249 -0.4185 -0.6354 -0.4356
  914TIP3    H124301   4.579   6.836   8.276  0.0778  0.3880 -2.2891
  914TIP3    H224302   4.661   6.720   8.330 -0.1691  1.4196  0.4734
  915TIP3   OH224303   4.834   4.157   0.006  0.2089 -0.3875  0.7166
  915TIP3    H124304   4.908   4.113  -0.035 -0.0054  0.5012 -0.6771
  915TIP3    H224305   4.780   4.086   0.041 -0.1345 -1.2831 -1.4778
  916TIP3   OH224306   2.207   2.117   0.913 -0.2731  0.3117 -0.3693
  916TIP3    H124307   2.180   2.067   0.836 -0.7928  1.1460 -0.7318
  916TIP3    H224308   2.266   2.184   0.878  0.8741 -0.3637  0.1875
  917TIP3   OH224309   5.357   5.488   0.403 -0.5526  0.3008 -0.7021
  917TIP3    H124310   5.376   5.568   0.451  0.6363 -1.8463  2.8322
  917TIP3    H224311   5.304   5.436   0.463 -0.8378 -1.7844 -2.6187
  918TIP3   OH224312   3.696   1.101   1.566 -0.1270  0.0853  0.8209
  918TIP3    H124313   3.647   1.171   1.523 -1.6642 -1.4577 -0.0546
  918TIP3    H224314   3.777   1.094   1.515 -1.3219 -0.7996 -1.0545
  919TIP3   OH224315   2.337   0.796   0.256 -0.1507  0.0981 -0.6231
  919TIP3    H124316   2.291   0.740   0.320 -1.8111  1.1642 -0.8084
  919TIP3    H224317   2.266   0.833   0.203  0.7798  2.8952 -0.0745
  920TIP3   OH224318   2.080   6.627   1.283 -0.1188 -0.0496  0.0990
  920TIP3    H124319   2.021   6.686   1.238  0.4652  0.1284 -0.4492
  920TIP3    H224320   2.158   6.624   1.228  0.2293 -0.5885  0.6037
  921TIP3   OH224321   6.781   3.750   0.740  0.4757 -0.3102 -0.4579
  921TIP3    H124322   6.854   3.739   0.801 -0.0267  0.6999  0.3600
  921TIP3    H224323   6.792   3.839   0.706 -1.0715  0.3523  0.6658
  922TIP3   OH224324   1.910   1.434   1.093  0.1037 -0.0253 -0.2357
  922TIP3    H124325   1.835   1.492   1.104  0.0557 -0.2407  0.6379
  922TIP3    H224326   1.973   1.486   1.043  0.8096  1.4891  2.0800
  923TIP3   OH224327   0.467   0.088   0.269  0.1584  0.1567 -0.4241
  923TIP3    H124328   0.513   0.063   0.349 -0.4675 -1.6447 -0.5742
  923TIP3    H224329   0.513   0.041   0.199 -1.3001 -0.9953 -0.6794
  924TIP3   OH224330   1.650   1.250   8.257 -0.1750  0.4093  0.0009
  924TIP3    H124331   1.600   1.250   8.176  0.9946 -1.2628 -0.7672
  924TIP3    H224332   1.585   1.232   8.325 -0.7951 -0.6851 -0.8535
  925TIP3   OH224333   1.676   0.244   0.630 -0.0354 -0.0285 -0.3885
  925TIP3    H124334   1.684   0.315   0.566 -1.1321  0.6223  0.1781
  925TIP3    H224335   1.604   0.190   0.597 -1.4074  0.9577  0.8550
  926TIP3   OH224336   5.843   4.029   0.955 -0.1405  0.0807  0.0847
  926TIP3    H124337   5.879   4.100   1.008  0.0868  1.0698 -1.3424
  926TIP3    H224338   5.793   4.074   0.887 -1.6540 -1.1905  0.2930
  927TIP3   OH224339   5.597   1.473   7.452 -0.7230 -0.5099  0.3420
  927TIP3    H124340   5.576   1.404   7.389 -0.6058  1.2283 -1.7121
  927TIP3    H224341   5.545   1.548   7.423 -1.6302  0.0439  3.1078
  928TIP3   OH224342   1.095   3.352   2.379 -0.8070 -0.0021  0.4867
  928TIP3    H124343   1.094   3.304   2.462 -0.9750 -2.6631 -0.9288
  928TIP3    H224344   1.186   3.345   2.349 -0.3686  2.3080  1.1021
  929TIP3   OH224345   0.904   5.127   7.838  0.5646  0.8021 -0.1642
  929TIP3    H124346   0.907   5.204   7.895 -0.1637  1.0353 -0.4289
  929TIP3    H224347   0.995   5.101   7.827  0.7827  1.3839  0.2583
  930TIP3   OH224348   1.366   1.780   1.442  0.2577  0.8670 -0.3798
  930TIP3    H124349   1.304   1.798   1.371  1.1180 -0.4179 -1.4978
  930TIP3    H224350   1.391   1.867   1.474  2.2042  1.7158 -3.7412
  931TIP3   OH224351   0.641   2.263   0.619 -0.0535 -0.3918 -0.2723
  931TIP3    H124352   0.691   2.247   0.539 -0.0446 -1.1600 -0.1187
  931TIP3    H224353   0.549   2.259   0.591 -0.0466 -0.3601 -0.2994
  932TIP3   OH224354   0.685   2.209   2.080 -1.0022  0.1446 -0.3508
  932TIP3    H124355   0.748   2.223   2.009  0.3580  1.2681  0.9944
  932TIP3    H224356   0.600   2.221   2.039 -0.3352 -0.7514 -2.1020
  933TIP3   OH224357   1.653   2.740   7.128  0.3542  0.2000 -0.2906
  933TIP3    H124358   1.639   2.691   7.209  1.6789  0.4318  0.0923
  933TIP3    H224359   1.721   2.804   7.150 -0.2651  1.2068 -1.2045
  934TIP3   OH224360   6.684   0.678   1.930  0.3444 -0.6257  0.0273
  934TIP3    H124361   6.648   0.767   1.929  0.8277 -0.4319 -0.2151
  934TIP3    H224362   6.674   0.649   2.020  0.3182 -0.2714  0.1394
  935TIP3   OH224363   5.324   6.589   0.195  0.4512  0.3972 -0.0914
  935TIP3    H124364   5.327   6.594   0.100  0.8340  1.9778 -0.0204
  935TIP3    H224365   5.346   6.498   0.215 -0.2194 -0.0996 -1.5237
  936TIP3   OH224366   0.539   2.557   7.443 -0.3769  0.0402  0.1424
  936TIP3    H124367   0.534   2.465   7.418 -0.1217 -0.2751  1.1966
  936TIP3    H224368   0.463   2.571   7.499 -0.6686  0.5946 -0.3843
  937TIP3   OH224369   3.983   1.344   0.722 -0.3729 -0.0223 -0.4523
  937TIP3    H124370   4.077   1.343   0.703  0.1202  0.4616  1.7330
  937TIP3    H224371   3.952   1.427   0.684  0.9949  1.9676  2.3700
  938TIP3   OH224372   4.342   0.898   7.809  0.1012 -0.3520  0.0872
  938TIP3    H124373   4.420   0.845   7.793 -0.0554 -0.5328 -0.0761
  938TIP3    H224374   4.369   0.987   7.788  0.3116 -0.3911  0.1886
  939TIP3   OH224375   6.296   2.696   6.507  0.2109 -0.2292 -0.3694
  939TIP3    H124376   6.220   2.708   6.450 -0.5406 -0.6429  0.5231
  939TIP3    H224377   6.270   2.625   6.566 -0.2594  2.2205  2.5483
  940TIP3   OH224378   6.989   2.052   1.753 -0.5498 -0.2023  0.1725
  940TIP3    H124379   6.996   2.120   1.685  2.2799 -1.1730 -0.6194
  940TIP3    H224380   6.956   1.975   1.706 -2.3306  0.1344  0.7755
  941TIP3   OH224381   3.648   5.390   0.758 -0.5802 -0.0859 -0.0287
  941TIP3    H124382   3.612   5.430   0.837 -0.9572 -0.5300  0.0290
  941TIP3    H224383   3.571   5.359   0.710 -0.3209 -0.2841 -0.3187
  942TIP3   OH224384   5.587   5.218   1.062 -0.0636 -0.1186 -0.7240
  942TIP3    H124385   5.672   5.174   1.067 -1.1445 -2.3313 -0.4156
  942TIP3    H224386   5.574   5.234   0.969  0.4125 -0.4045 -0.8457
  943TIP3   OH224387   6.172   5.427   7.046  0.6350  0.2955 -0.0850
  943TIP3    H124388   6.148   5.507   6.999 -0.4916  0.0273  0.0166
  943TIP3    H224389   6.129   5.357   6.997  1.3628 -0.2247  0.0048
  944TIP3   OH224390   1.865   2.545   7.247  0.7437 -0.3639  0.0700
  944TIP3    H124391   1.941   2.491   7.226 -0.0153 -0.6932 -2.0202
  944TIP3    H224392   1.875   2.624   7.193 -0.2851 -0.3296 -0.0979
  945TIP3   OH224393   2.662   5.059   6.812 -0.0251 -0.4143 -0.2681
  945TIP3    H124394   2.573   5.046   6.779 -1.2930 -0.0999  2.6901
  945TIP3    H224395   2.661   5.147   6.848  0.6324 -1.3220  2.1211
  946TIP3   OH224396   6.459   4.262   0.003  0.6807 -0.4126 -0.0603
  946TIP3    H124397   6.483   4.344   0.046 -0.3517 -0.1330  0.0175
  946TIP3    H224398   6.508   4.194   0.049 -0.5796 -0.1558  1.7488
  947TIP3   OH224399   4.490   3.715   2.039  0.7359  0.1926  0.1007
  947TIP3    H124400   4.502   3.788   2.100 -2.5129  0.0739  1.0839
  947TIP3    H224401   4.419   3.744   1.982 -0.1023 -1.8744  0.0298
  948TIP3   OH224402   5.984   5.954   0.577  0.3066  0.6079  0.1394
  948TIP3    H124403   5.913   6.009   0.544 -0.4040  0.1145  0.8060
  948TIP3    H224404   5.983   5.877   0.521 -0.2554  0.2178  0.6676
  949TIP3   OH224405   5.773   5.430   7.738  0.0708 -0.0907 -0.0808
  949TIP3    H124406   5.817   5.510   7.766 -2.0956  1.0063  0.4325
  949TIP3    H224407   5.832   5.391   7.674  2.0340  0.9267  0.9953
  950TIP3   OH224408   2.011   3.934   0.194  0.0463 -0.3043  0.7036
  950TIP3    H124409   1.943   3.935   0.261 -1.1896 -0.3941 -0.5031
  950TIP3    H224410   2.043   4.025   0.192  1.7619 -0.7694  2.9713
  951TIP3   OH224411   5.000   2.235   7.570  0.4290 -0.8287 -0.6465
  951TIP3    H124412   5.065   2.270   7.509  3.3640 -1.9183  1.6257
  951TIP3    H224413   4.985   2.305   7.633  0.2856 -0.9813 -0.5079
  952TIP3   OH224414   6.302   0.253   7.338 -0.5402 -0.1838  0.2607
  952TIP3    H124415   6.252   0.330   7.366 -0.5718  1.5186 -3.8799
  952TIP3    H224416   6.250   0.215   7.267  0.9938 -2.2492  0.1492
  953TIP3   OH224417   2.479   3.313   7.180 -0.4871 -0.3335  0.2497
  953TIP3    H124418   2.529   3.324   7.100 -2.1397  5.3576 -0.4648
  953TIP3    H224419   2.540   3.335   7.251 -0.3372 -0.1614  0.0655
  954TIP3   OH224420   5.601   3.463   1.615 -0.1343  0.8040  0.2448
  954TIP3    H124421   5.573   3.502   1.698  1.0538  0.2085  0.9582
  954TIP3    H224422   5.622   3.373   1.638 -1.1992  0.2114 -1.0297
  955TIP3   OH224423   0.121   1.467   0.968 -0.7784  0.3411  0.4872
  955TIP3    H124424   0.204   1.425   0.992 -0.4418  0.0424 -1.1025
  955TIP3    H224425   0.110   1.537   1.033  0.4663  0.0863  1.0004
  956TIP3   OH224426   6.396   6.844   0.689  0.0936 -0.3656 -0.2226
  956TIP3    H124427   6.375   6.767   0.637  0.7703 -0.1200 -0.8765
  956TIP3    H224428   6.492   6.851   0.685  0.0338  0.6164 -0.3589
  957TIP3   OH224429   3.759   1.923   8.316  0.2153 -0.5889  0.0290
  957TIP3    H124430   3.820   1.907   8.244  1.6554  1.4934  0.6863
  957TIP3    H224431   3.677   1.884   8.287  0.9962 -0.6307 -2.3379
  958TIP3   OH224432   2.206   2.790   6.757  0.3255 -0.2796 -0.7737
  958TIP3    H124433   2.135   2.750   6.706  0.0235 -0.8081  0.0384
  958TIP3    H224434   2.284   2.741   6.733 -0.2984 -2.5008  1.3845
  959TIP3   OH224435   1.857   4.587   7.080  0.2870 -0.3150 -0.4845
  959TIP3    H124436   1.864   4.544   7.165 -0.2793  0.1596 -0.1940
  959TIP3    H224437   1.833   4.516   7.020 -0.6989 -0.4101  0.0031
  960TIP3   OH224438   1.061   2.228   2.308 -0.4515 -0.0557 -0.2746
  960TIP3    H124439   0.997   2.296   2.327  0.8346  1.1026  0.0789
  960TIP3    H224440   1.063   2.174   2.388 -0.5273  0.2817 -0.0423
  961TIP3   OH224441   4.075   0.640   1.171  0.2894 -0.0037 -0.2291
  961TIP3    H124442   4.054   0.575   1.104 -0.6811 -0.0216  0.0832
  961TIP3    H224443   3.991   0.676   1.198  0.8601  2.1792 -1.1533
  962TIP3   OH224444   3.440   6.821   7.009  0.0369 -0.0799  0.4117
  962TIP3    H124445   3.502   6.884   7.047  0.4405  0.9849 -1.8548
  962TIP3    H224446   3.407   6.864   6.930 -0.7885 -2.1549 -0.4507
  963TIP3   OH224447   4.298   6.056   7.305  0.5253  0.2228  0.3871
  963TIP3    H124448   4.289   6.098   7.390 -1.9809  0.3018  0.1580
  963TIP3    H224449   4.221   6.084   7.256  1.1162 -1.0335 -1.3747
  964TIP3   OH224450   0.979   0.814   1.374  0.1701  0.2433 -0.2545
  964TIP3    H124451   1.057   0.810   1.319 -0.5242  0.1271 -1.2393
  964TIP3    H224452   1.005   0.769   1.455  2.1944  3.0392  0.8149
  965TIP3   OH224453   2.994   1.870   6.847 -0.4176 -0.0910 -0.5545
  965TIP3    H124454   2.927   1.928   6.881  1.4947  1.9310 -0.0222
  965TIP3    H224455   2.990   1.793   6.905 -1.4844  0.4896  0.1823
  966TIP3   OH224456   4.676   1.774   1.950 -0.5023 -0.2895  0.8944
  966TIP3    H124457   4.667   1.684   1.919 -0.4905 -0.3776  1.1399
  966TIP3    H224458   4.738   1.815   1.890  1.5215 -1.1801  2.2862
  967TIP3   OH224459   0.492   0.449   6.806 -0.7372 -0.0197  0.6470
  967TIP3    H124460   0.426   0.393   6.849 -0.9893  0.1062  0.4294
  967TIP3    H224461   0.440   0.509   6.753 -0.3619 -1.8187 -1.9005
  968TIP3   OH224462   0.700   5.868   1.593 -0.6026 -0.5282 -0.4076
  968TIP3    H124463   0.742   5.910   1.518  0.4836  0.6498  0.8018
  968TIP3    H224464   0.759   5.797   1.617 -1.0713 -1.0565 -0.8115
  969TIP3   OH224465   2.055   2.444   0.697 -0.6173  0.2488 -0.4861
  969TIP3    H124466   2.071   2.536   0.718  2.0142  0.5802 -3.2868
  969TIP3    H224467   2.131   2.397   0.730 -1.0360 -0.6260 -0.7207
  970TIP3   OH224468   4.232   6.185   2.416 -0.2756 -0.8347 -0.1259
  970TIP3    H124469   4.271   6.113   2.365  1.2458 -1.5311  1.8889
  970TIP3    H224470   4.303   6.216   2.471 -1.1460  1.7207 -0.3369
  971TIP3   OH224471   3.828   0.225   6.582  0.0244  0.0388  0.2337
  971TIP3    H124472   3.875   0.305   6.557 -0.2861  1.1041  2.8158
  971TIP3    H224473   3.768   0.209   6.508  0.5168  1.8272 -0.6151
  972TIP3   OH224474   4.767   0.349   0.740 -0.0169  0.4417 -0.0614
  972TIP3    H124475   4.688   0.298   0.727  1.3854 -2.1219  0.8351
  972TIP3    H224476   4.836   0.300   0.694  1.1858  2.2806 -0.3487
  973TIP3   OH224477   3.511   1.241   6.505 -0.4669 -0.4127 -0.1815
  973TIP3    H124478   3.606   1.248   6.499 -0.1999 -1.1376  2.1892
  973TIP3    H224479   3.478   1.300   6.438  1.6402 -0.7205 -1.5737
  974TIP3   OH224480   5.427   5.118   0.139 -0.4686  0.1162  0.2229
  974TIP3    H124481   5.364   5.046   0.148  0.6745 -0.7270  2.0940
  974TIP3    H224482   5.404   5.178   0.209  1.3234 -0.6715  1.5628
  975TIP3   OH224483   6.246   1.340   7.258  0.6611  0.5042 -0.2017
  975TIP3    H124484   6.288   1.426   7.254 -0.0720  0.9066  0.4712
  975TIP3    H224485   6.190   1.344   7.335 -0.3065 -0.1554 -0.8446
  976TIP3   OH224486   3.809   2.429   2.048  0.3287  0.1068 -0.2206
  976TIP3    H124487   3.800   2.516   2.008 -1.0916 -0.5072 -1.3018
  976TIP3    H224488   3.893   2.396   2.013  0.0543  0.3738 -1.1706
  977TIP3   OH224489   2.337   4.403   0.141  0.1487 -0.2747  0.0828
  977TIP3    H124490   2.375   4.366   0.061 -0.5637 -1.9272  0.4649
  977TIP3    H224491   2.258   4.447   0.111 -0.2931 -1.1657 -0.1216
  978TIP3   OH224492   0.388   2.736   1.986 -0.3623 -0.8360 -0.2937
  978TIP3    H124493   0.482   2.747   1.975 -0.1677 -1.2578  0.8170
  978TIP3    H224494   0.357   2.821   2.018 -0.1442 -1.0858  0.5944
  979TIP3   OH224495   4.921   2.738   7.939  0.2823 -0.4993  0.1413
  979TIP3    H124496   4.981   2.769   7.871  1.5102 -1.3064  0.8145
  979TIP3    H224497   4.834   2.744   7.899  0.9069 -0.3107 -1.2504
  980TIP3   OH224498   1.171   5.496   6.700 -0.5226  0.3453 -0.0635
  980TIP3    H124499   1.123   5.564   6.747 -0.7000  0.1662  0.0146
  980TIP3    H224500   1.144   5.414   6.741 -0.9148  0.1610 -0.6685
  981TIP3   OH224501   0.256   1.234   0.585 -0.2275  0.4272  0.3574
  981TIP3    H124502   0.333   1.206   0.635 -0.6672 -0.8345  0.3530
  981TIP3    H224503   0.289   1.247   0.496  0.5653  2.6984  0.9048
  982TIP3   OH224504   0.478   6.223   7.192  0.0071  0.1427  0.0721
  982TIP3    H124505   0.513   6.303   7.230 -0.7415  0.0325  1.0267
  982TIP3    H224506   0.452   6.170   7.268 -1.9634  0.1094 -0.5879
  983TIP3   OH224507   1.926   3.014   1.813  0.0662 -0.1163 -0.1801
  983TIP3    H124508   1.984   3.088   1.832 -1.7511  1.2740  0.2468
  983TIP3    H224509   1.937   2.998   1.719  1.2458  0.0028 -0.0748
  984TIP3   OH224510   3.174   5.669   0.988  0.2618  0.1725 -0.8061
  984TIP3    H124511   3.189   5.638   1.078  0.2703 -2.4122 -1.6271
  984TIP3    H224512   3.082   5.698   0.988  0.5108  1.0491  0.2192
  985TIP3   OH224513   3.295   0.989   7.718 -0.0274 -0.0485 -0.1257
  985TIP3    H124514   3.354   0.921   7.684 -1.3774 -0.9999 -0.6186
  985TIP3    H224515   3.353   1.048   7.766  1.0031 -2.6344  2.0795
  986TIP3   OH224516   5.187   5.064   1.902 -0.5022  0.2417  0.4684
  986TIP3    H124517   5.128   5.136   1.921 -0.1654  0.5310  0.4362
  986TIP3    H224518   5.255   5.103   1.846 -0.6013 -0.2178  0.0171
  987TIP3   OH224519   5.380   5.812   2.122 -0.4246  0.5237 -0.1870
  987TIP3    H124520   5.345   5.802   2.211  1.7374  1.0142  0.8155
  987TIP3    H224521   5.475   5.812   2.135 -0.0607  0.9644 -2.4857
  988TIP3   OH224522   2.550   3.659   7.274  0.9457  0.4010 -0.3249
  988TIP3    H124523   2.609   3.591   7.239  1.6078  0.8527 -0.1077
  988TIP3    H224524   2.570   3.737   7.222  1.0916  0.7625  0.2653
  989TIP3   OH224525   0.233   3.125   7.841  0.6279 -0.4207  0.8212
  989TIP3    H124526   0.138   3.134   7.833  0.8326  0.4153 -1.2042
  989TIP3    H224527   0.261   3.206   7.884  0.7202  1.0350 -1.7922
  990TIP3   OH224528   5.638   3.071   1.289  0.3313  1.0275  0.3945
  990TIP3    H124529   5.695   3.090   1.215  1.6964  1.0921  1.4263
  990TIP3    H224530   5.557   3.119   1.271 -0.7835 -1.6141 -2.7169
  991TIP3   OH224531   0.320   4.062   6.988  0.4527 -0.3439 -0.7178
  991TIP3    H124532   0.259   3.995   6.957  2.0219 -1.6342 -1.2003
  991TIP3    H224533   0.404   4.016   6.993  1.0420  0.8499  1.7192
  992TIP3   OH224534   0.149   2.956   1.776 -0.5578 -0.2843  0.1463
  992TIP3    H124535   0.108   2.879   1.814  1.5337 -1.2606  0.5873
  992TIP3    H224536   0.078   3.019   1.764 -2.6268 -2.7482 -1.5687
  993TIP3   OH224537   6.116   6.766   0.025  0.3699  0.3136  0.2201
  993TIP3    H124538   6.027   6.801   0.029 -0.5544 -1.9047  1.1878
  993TIP3    H224539   6.172   6.842   0.016 -1.4616  2.0220  2.2120
  994TIP3   OH224540   5.376   1.581   0.120  0.3190 -0.0926  0.6869
  994TIP3    H124541   5.347   1.561   0.210 -2.3688  0.7863  0.1018
  994TIP3    H224542   5.397   1.674   0.122  0.4615 -0.1212  0.4679
  995TIP3   OH224543   4.247   3.555   7.260  0.0835  0.0631  0.1999
  995TIP3    H124544   4.183   3.507   7.313 -1.5275  0.7164 -1.0734
  995TIP3    H224545   4.196   3.623   7.216  1.9765  1.7456  0.4706
  996TIP3   OH224546   6.478   6.650   0.160  1.1439 -0.5412 -0.2712
  996TIP3    H124547   6.445   6.561   0.170 -1.9135  0.5925  0.7791
  996TIP3    H224548   6.464   6.671   0.068  0.9691 -0.8163 -0.3093
  997TIP3   OH224549   1.696   2.785   2.783 -0.2505  0.2847 -0.2524
  997TIP3    H124550   1.668   2.747   2.866 -1.0366  0.1077 -0.5848
  997TIP3    H224551   1.763   2.725   2.750 -1.1671 -0.6038 -0.5619
  998TIP3   OH224552   0.833   2.364   2.364 -0.1140 -0.3854  0.2716
  998TIP3    H124553   0.798   2.433   2.307  0.3031  0.3833  0.9301
  998TIP3    H224554   0.756   2.328   2.408 -0.6804 -2.1488 -1.9585
  999TIP3   OH224555   3.895   6.200   7.463  0.2095  0.5027  0.0384
  999TIP3    H124556   3.801   6.183   7.472  0.4234 -1.1710 -0.6530
  999TIP3    H224557   3.917   6.249   7.542 -0.8192 -1.0333  1.3506
 1000TIP3   OH224558   6.536   4.330   2.618 -0.0871  0.1826  0.1184
 1000TIP3    H124559   6.482   4.293   2.687  0.4031  1.1644  1.0518
 1000TIP3    H224560   6.527   4.424   2.628  1.4527  0.3659  0.0399
 1001TIP3   OH224561   0.402   2.963   1.581  0.4776 -0.1911  0.1204
 1001TIP3    H124562   0.472   2.902   1.557 -0.6902 -0.9107 -1.6101
 1001TIP3    H224563   0.345   2.913   1.639  0.5928 -0.0726  0.3398
 1002TIP3   OH224564   3.482   4.653   7.266 -0.4637  0.0998  0.7562
 1002TIP3    H124565   3.423   4.642   7.191 -0.9153  2.7281  0.6202
 1002TIP3    H224566   3.445   4.597   7.334 -0.8328 -1.2780 -0.5173
 1003TIP3   OH224567   3.259   5.480   6.878 -0.3938 -0.2154  0.3796
 1003TIP3    H124568   3.333   5.506   6.823  0.2576 -1.4617  0.6282
 1003TIP3    H224569   3.182   5.516   6.834  0.3722  1.5231  0.3685
 1004TIP3   OH224570   2.265   7.000   8.245 -0.2525  0.3227 -0.6114
 1004TIP3    H124571   2.178   6.982   8.208 -0.7346  0.0504  0.6207
 1004TIP3    H224572   2.283   7.091   8.222 -0.1264 -0.1010 -2.2999
 1005TIP3   OH224573   6.208   3.335   1.436  0.3178 -0.2646  0.6052
 1005TIP3    H124574   6.180   3.322   1.526  1.0799 -2.1125  0.6029
 1005TIP3    H224575   6.303   3.342   1.440  0.2941  0.7170  0.0318
 1006TIP3   OH224576   4.537   1.143   7.743 -0.1668  0.4017 -0.2119
 1006TIP3    H124577   4.560   1.139   7.836 -0.4408  1.4560 -0.0871
 1006TIP3    H224578   4.584   1.219   7.709  0.8709 -0.6537 -1.2235
 1007TIP3   OH224579   5.774   2.984   7.056 -0.3765 -0.7180  0.1766
 1007TIP3    H124580   5.720   3.063   7.051  0.1694 -0.3520 -0.0988
 1007TIP3    H224581   5.717   2.918   7.094 -1.2594 -0.5499 -0.8188
 1008TIP3   OH224582   1.791   0.301   6.690  0.4546 -0.2797  0.4999
 1008TIP3    H124583   1.783   0.390   6.725 -0.3254 -0.3564  0.5342
 1008TIP3    H224584   1.713   0.256   6.723 -0.0170 -0.5120 -0.8825
 1009TIP3   OH224585   6.038   1.315   0.177 -0.4966  0.1826 -0.5150
 1009TIP3    H124586   5.981   1.377   0.222 -0.6302 -0.5481  0.3519
 1009TIP3    H224587   6.074   1.365   0.103 -0.1674  1.4622  0.4646
 1010TIP3   OH224588   2.693   0.047   1.638 -0.8879  0.0723 -0.3955
 1010TIP3    H124589   2.667  -0.045   1.634 -0.4259 -0.0752 -0.0517
 1010TIP3    H224590   2.693   0.075   1.547  0.1604 -0.6130 -0.6316
 1011TIP3   OH224591   4.075   2.575   7.310 -0.4592  0.2358 -0.0461
 1011TIP3    H124592   4.080   2.642   7.242 -0.6575 -0.3008 -0.5959
 1011TIP3    H224593   4.032   2.500   7.268 -1.0937  0.0954  0.8293
 1012TIP3   OH224594   2.731   6.016   1.397  0.4139 -0.2421  0.1165
 1012TIP3    H124595   2.676   5.996   1.473 -0.8467  1.8684 -0.1825
 1012TIP3    H224596   2.813   5.968   1.414 -0.5230 -1.3396  1.8529
 1013TIP3   OH224597   4.509   3.945   2.182  0.1156 -0.1428 -0.0501
 1013TIP3    H124598   4.493   3.923   2.274 -0.6901 -0.7580 -0.3247
 1013TIP3    H224599   4.525   4.039   2.182  1.3973 -0.3256  0.8732
 1014TIP3   OH224600   1.296   2.645   1.728 -0.4430  0.5599  0.1081
 1014TIP3    H124601   1.376   2.695   1.742 -1.0678  1.0392  2.4585
 1014TIP3    H224602   1.312   2.560   1.769 -0.4516 -0.1278 -1.2390
 1015TIP3   OH224603   0.465   1.536   0.154 -0.4144  0.0943  0.1534
 1015TIP3    H124604   0.419   1.611   0.115 -0.8729  0.9581  2.2147
 1015TIP3    H224605   0.542   1.524   0.099 -1.1417  1.0766 -1.1387
 1016TIP3   OH224606   1.598   2.847   0.107 -0.7048 -0.3747 -0.1416
 1016TIP3    H124607   1.594   2.905   0.031 -1.1839 -1.9544 -1.3772
 1016TIP3    H224608   1.688   2.854   0.139 -0.7841  1.1051 -0.1963
 1017TIP3   OH224609   2.475   5.465   7.493  0.5037  0.3582  0.0551
 1017TIP3    H124610   2.487   5.374   7.465 -1.0911  0.4207 -0.9286
 1017TIP3    H224611   2.381   5.479   7.487  0.8442  2.4867 -1.1169
 1018TIP3   OH224612   5.896   5.025   0.500  0.4761  0.5572 -0.3775
 1018TIP3    H124613   5.825   5.001   0.440 -0.7003 -1.5228  1.7027
 1018TIP3    H224614   5.954   4.949   0.502 -0.3418 -0.0962  2.2033
 1019TIP3   OH224615   2.349   1.197   2.477 -0.3928 -0.1932  1.0512
 1019TIP3    H124616   2.422   1.248   2.512  1.7356  0.0612 -3.1422
 1019TIP3    H224617   2.277   1.260   2.469  0.7011  0.9971  0.2989
 1020TIP3   OH224618   5.543   5.770   1.466 -0.0716 -0.3148 -1.3208
 1020TIP3    H124619   5.576   5.838   1.406 -1.4014  0.9201 -0.7041
 1020TIP3    H224620   5.468   5.810   1.509  0.9441 -1.0731  1.3735
 1021TIP3   OH224621   1.117   5.513   1.266 -0.5487  0.2770  0.0916
 1021TIP3    H124622   1.180   5.583   1.283 -1.0284  0.4846  1.1251
 1021TIP3    H224623   1.047   5.528   1.330 -0.8061 -0.9685  0.1246
 1022TIP3   OH224624   6.601   6.114   0.219  0.0329  0.0198  0.4670
 1022TIP3    H124625   6.568   6.195   0.257  0.4809  1.1021 -1.3634
 1022TIP3    H224626   6.575   6.117   0.127  0.9864 -1.3987  0.1039
 1023TIP3   OH224627   3.468   0.990   1.719 -0.2604  0.0095 -0.3309
 1023TIP3    H124628   3.563   0.992   1.707 -0.2453 -2.8421 -1.4656
 1023TIP3    H224629   3.455   1.010   1.812  1.5525 -0.4228  0.0507
 1024TIP3   OH224630   6.321   0.973   0.461  0.1232 -0.0815  0.3669
 1024TIP3    H124631   6.298   0.885   0.489 -1.1282  1.0943  3.4418
 1024TIP3    H224632   6.416   0.976   0.467  0.1049 -0.9135  1.2839
 1025TIP3   OH224633   0.727   0.954   0.378  0.3319 -0.4658  0.4154
 1025TIP3    H124634   0.748   0.932   0.468  1.3511  0.1684  0.3532
 1025TIP3    H224635   0.808   0.992   0.343  0.3470 -1.8311 -1.1421
 1026TIP3   OH224636   4.279   1.862   7.195  0.0561  0.5635  0.7713
 1026TIP3    H124637   4.269   1.864   7.100  1.5194  0.1345  0.5886
 1026TIP3    H224638   4.290   1.954   7.219  0.7781  0.5780  0.3955
 1027TIP3   OH224639   5.624   3.728   7.787 -0.2233 -0.9254 -0.0491
 1027TIP3    H124640   5.540   3.719   7.832 -0.1854 -0.3463  0.1361
 1027TIP3    H224641   5.682   3.768   7.851 -0.0022 -0.6645 -0.4100
 1028TIP3   OH224642   2.938   3.263   7.514  0.0211  0.2155  0.1810
 1028TIP3    H124643   2.996   3.187   7.504 -1.2294 -0.6041 -1.4331
 1028TIP3    H224644   2.962   3.301   7.598  2.3496 -0.5334 -0.0784
 1029TIP3   OH224645   2.039   1.584   0.918  0.5674  0.2248  0.3029
 1029TIP3    H124646   1.961   1.610   0.868  0.3123  0.7664  0.9584
 1029TIP3    H224647   2.112   1.622   0.870  0.2536  1.6218  0.8611
 1030TIP3   OH224648   0.815   2.049   2.238  0.0332 -0.1066  0.4267
 1030TIP3    H124649   0.747   2.090   2.184 -0.3222  0.7705  1.4955
 1030TIP3    H224650   0.887   2.113   2.238 -0.4168  0.4347  1.8888
 1031TIP3   OH224651   2.399   2.548   2.325 -0.1217  0.7385 -0.0120
 1031TIP3    H124652   2.328   2.504   2.373 -1.2386  1.7161 -0.7085
 1031TIP3    H224653   2.356   2.587   2.250  1.0372  2.0478 -0.0270
 1032TIP3   OH224654   3.393   1.230   1.605 -0.2611  0.1732  0.2571
 1032TIP3    H124655   3.409   1.240   1.511 -3.2084 -0.7604 -0.4548
 1032TIP3    H224656   3.423   1.142   1.625  0.1424  0.2842  0.1581
 1033TIP3   OH224657   5.443   2.273   7.210  0.2629  0.2364 -0.0454
 1033TIP3    H124658   5.423   2.342   7.147 -1.0805  0.3956  0.5333
 1033TIP3    H224659   5.513   2.222   7.168  0.0661  0.9098 -1.2310
 1034TIP3   OH224660   4.477   3.404   2.427  0.2655  0.1742 -0.2310
 1034TIP3    H124661   4.571   3.402   2.443  0.0858  0.8097  1.1157
 1034TIP3    H224662   4.468   3.415   2.332  1.4956 -1.7760 -0.6310
 1035TIP3   OH224663   2.542   3.672   1.105 -0.0808  0.2111 -0.4852
 1035TIP3    H124664   2.454   3.636   1.101 -0.3361  0.9296 -1.7426
 1035TIP3    H224665   2.571   3.653   1.195 -1.4728 -0.0931 -0.0683
 1036TIP3   OH224666   1.725   4.608   0.376 -0.0233 -0.9632  0.1163
 1036TIP3    H124667   1.639   4.646   0.361 -0.0029  0.1489  2.3467
 1036TIP3    H224668   1.780   4.682   0.404  1.4717 -1.7590 -0.5839
 1037TIP3   OH224669   6.151   4.791   2.298 -0.3336  0.0298  0.1740
 1037TIP3    H124670   6.128   4.809   2.389 -0.0912 -1.7594  0.6178
 1037TIP3    H224671   6.158   4.878   2.258  0.1669  0.8784  1.9996
 1038TIP3   OH224672   4.684   5.618   1.638 -0.7663 -0.6454  0.5147
 1038TIP3    H124673   4.685   5.615   1.734  0.1899  0.2469  0.5433
 1038TIP3    H224674   4.677   5.711   1.616 -0.9019 -0.8352 -0.2854
 1039TIP3   OH224675   0.496   6.314   7.869  0.3948 -0.3194  0.4616
 1039TIP3    H124676   0.562   6.245   7.860  0.9270  0.1375  0.7652
 1039TIP3    H224677   0.471   6.311   7.961  2.0818  1.3330  1.0647
 1040TIP3   OH224678   4.554   0.388   1.283 -0.1697  0.0408  0.0286
 1040TIP3    H124679   4.501   0.463   1.257  0.7471  0.4505 -0.7401
 1040TIP3    H224680   4.572   0.342   1.201 -0.2024 -0.6755  0.4153
 1041TIP3   OH224681   6.123   2.553   7.557 -0.2117 -0.4973 -0.1360
 1041TIP3    H124682   6.088   2.597   7.634 -2.2607  1.8420 -2.1977
 1041TIP3    H224683   6.078   2.469   7.555 -1.9295  0.3696  0.0358
 1042TIP3   OH224684   4.306   3.586   0.816 -0.2139 -0.1594 -0.4181
 1042TIP3    H124685   4.344   3.611   0.731  1.5827 -0.9128  0.1082
 1042TIP3    H224686   4.382   3.565   0.870 -1.3850 -0.8078  1.0299
 1043TIP3   OH224687   0.382   3.048   7.610  1.2617  0.6656 -0.5377
 1043TIP3    H124688   0.445   2.991   7.654 -1.2917 -1.1915  0.9857
 1043TIP3    H224689   0.322   3.076   7.679 -0.8502  0.5373 -2.2123
 1044TIP3   OH224690   3.506   2.286   6.803 -0.0173  0.5379 -0.1795
 1044TIP3    H124691   3.505   2.364   6.747 -0.9213  0.2058 -0.6382
 1044TIP3    H224692   3.425   2.290   6.853  0.6591  0.6880  0.9354
 1045TIP3   OH224693   3.446   4.425   7.755 -0.3224 -0.7887  0.0521
 1045TIP3    H124694   3.507   4.442   7.827 -0.4532 -1.4624  0.3288
 1045TIP3    H224695   3.379   4.493   7.765 -0.9160 -1.5176  1.2335
 1046TIP3   OH224696   5.720   1.668   0.092  0.3547  0.1674  0.0830
 1046TIP3    H124697   5.814   1.651   0.088  0.4264  0.3308  0.8493
 1046TIP3    H224698   5.709   1.754   0.052  0.4786 -0.0356 -0.3873
 1047TIP3   OH224699   3.271   3.731   1.126 -0.6379 -0.1607  0.1146
 1047TIP3    H124700   3.268   3.667   1.055 -2.9831 -0.2462  0.2150
 1047TIP3    H224701   3.252   3.680   1.205 -3.1446  0.6808  0.1186
 1048TIP3   OH224702   3.631   3.005   1.558  0.3088  0.2243  0.7547
 1048TIP3    H124703   3.673   3.078   1.604  0.2871  0.7457 -0.0216
 1048TIP3    H224704   3.590   2.953   1.627  1.8182 -0.0319  1.4825
 1049TIP3   OH224705   6.589   1.642   1.085  0.5206 -0.3329 -0.2089
 1049TIP3    H124706   6.661   1.599   1.130  1.4293  2.2589  0.9758
 1049TIP3    H224707   6.511   1.616   1.135  0.9212 -1.2123 -0.0178
 1050TIP3   OH224708   2.864   5.292   1.513 -0.4272 -0.2098 -0.0261
 1050TIP3    H124709   2.928   5.221   1.508 -0.1889  0.0739 -1.1548
 1050TIP3    H224710   2.915   5.368   1.541 -0.6999 -0.4810  1.2785
 1051TIP3   OH224711   2.590   6.590   2.474 -0.0847 -0.1086  0.0087
 1051TIP3    H124712   2.506   6.561   2.509 -0.8593  1.2448 -0.6508
 1051TIP3    H224713   2.607   6.531   2.401  0.4385 -1.5145  1.2206
 1052TIP3   OH224714   3.034   0.455   1.094 -0.7279  0.2550  0.2823
 1052TIP3    H124715   3.124   0.488   1.095 -0.2620 -0.9306 -0.5073
 1052TIP3    H224716   2.980   0.533   1.107  0.3650  1.1854 -0.5468
 1053TIP3   OH224717   4.294   3.448   0.149 -0.1768 -0.3655 -0.2271
 1053TIP3    H124718   4.211   3.431   0.194 -0.1423  1.5660  0.6880
 1053TIP3    H224719   4.360   3.405   0.202 -0.4425 -0.5586 -0.0536
 1054TIP3   OH224720   4.110   1.006   7.587  0.2766  0.1140  0.3109
 1054TIP3    H124721   4.021   1.040   7.600 -0.1593 -0.6237 -0.6556
 1054TIP3    H224722   4.107   0.962   7.503  1.6091  0.1922  0.1999
 1055TIP3   OH224723   1.994   5.672   7.719 -0.9547 -0.3737  0.1628
 1055TIP3    H124724   1.901   5.654   7.704 -2.1030  3.6791  1.1205
 1055TIP3    H224725   2.004   5.764   7.697  3.0199 -0.7353 -0.2886
 1056TIP3   OH224726   5.168   4.140   1.726  0.2062 -0.1568  0.1782
 1056TIP3    H124727   5.086   4.092   1.744 -0.5997  1.4471  0.9607
 1056TIP3    H224728   5.210   4.147   1.812  0.7639 -0.2400 -0.0877
 1057TIP3   OH224729   3.897   3.577   7.087 -0.3070  0.3490 -1.0384
 1057TIP3    H124730   3.914   3.637   7.015 -0.0618  0.4808 -0.8747
 1057TIP3    H224731   3.934   3.494   7.058  2.2957  1.0318  0.0022
 1058TIP3   OH224732   0.614   0.678   7.000 -0.0380  0.5102  0.1234
 1058TIP3    H124733   0.544   0.725   6.954  1.6556  1.4716 -1.6125
 1058TIP3    H224734   0.667   0.747   7.040  0.8373 -0.1050  0.0384
 1059TIP3   OH224735   3.282   4.714   1.895  0.4574  0.1513 -0.1956
 1059TIP3    H124736   3.257   4.708   1.803  2.2686 -0.1166 -0.7272
 1059TIP3    H224737   3.202   4.736   1.942 -1.2287 -2.9655 -1.3933
 1060TIP3   OH224738   1.366   6.132   2.090  0.7687  0.0984  0.0342
 1060TIP3    H124739   1.391   6.224   2.085  0.6002  0.2438  1.5153
 1060TIP3    H224740   1.415   6.098   2.165  0.8150 -1.0202 -0.4797
 1061TIP3   OH224741   6.015   0.173   1.935  0.0434 -0.1852 -0.9535
 1061TIP3    H124742   5.992   0.121   2.011  1.2709 -1.0422 -1.1404
 1061TIP3    H224743   6.057   0.251   1.971  1.8407 -1.2065 -0.7532
 1062TIP3   OH224744   6.658   4.571   0.559 -0.1438 -0.2690 -0.5043
 1062TIP3    H124745   6.719   4.500   0.539  1.4955  0.8692  0.2824
 1062TIP3    H224746   6.689   4.645   0.507 -0.2513  0.6025  0.6453
 1063TIP3   OH224747   6.932   4.343   1.955  0.3408 -0.2223  0.6229
 1063TIP3    H124748   6.960   4.414   2.013  3.2975 -0.2591 -0.6056
 1063TIP3    H224749   6.863   4.382   1.902  2.1334  1.9409 -0.2585
 1064TIP3   OH224750   4.114   0.631   8.088 -0.0895  0.0326  0.2497
 1064TIP3    H124751   4.152   0.691   8.152  1.5428  0.6476 -1.1820
 1064TIP3    H224752   4.154   0.546   8.108 -0.5956 -0.0682  0.8424
 1065TIP3   OH224753   1.385   5.972   6.573  0.1726  0.2532 -0.0229
 1065TIP3    H124754   1.351   5.893   6.532 -0.7562  0.7645 -0.2487
 1065TIP3    H224755   1.352   6.044   6.520  0.0537  0.8528  0.8407
 1066TIP3   OH224756   3.865   3.634   1.891 -0.0846 -0.6562  0.0843
 1066TIP3    H124757   3.945   3.583   1.885  0.7366  0.6119  0.0805
 1066TIP3    H224758   3.834   3.619   1.981  0.8786 -0.0921  0.5170
 1067TIP3   OH224759   1.630   4.537   1.012 -0.0658 -0.3062 -0.2363
 1067TIP3    H124760   1.622   4.553   1.106  0.5617  0.4476 -0.2990
 1067TIP3    H224761   1.682   4.457   1.006  0.4017 -0.0349  0.0638
 1068TIP3   OH224762   2.811   3.339   0.029 -0.0423 -0.5143  0.0441
 1068TIP3    H124763   2.835   3.303   0.114  1.1243 -0.4492 -0.2419
 1068TIP3    H224764   2.776   3.425   0.048  0.6674 -0.3066  0.4225
 1069TIP3   OH224765   5.513   5.054   2.201 -0.3189 -0.2989  0.1425
 1069TIP3    H124766   5.452   4.983   2.184 -0.4169 -0.7362  2.0566
 1069TIP3    H224767   5.488   5.087   2.288  1.4100  0.2717  0.4659
 1070TIP3   OH224768   5.869   0.587   0.883 -0.4400 -0.0851  0.4579
 1070TIP3    H124769   5.835   0.501   0.861 -1.4770  0.5069 -0.3583
 1070TIP3    H224770   5.814   0.648   0.834 -0.4011  1.1067  1.8240
 1071TIP3   OH224771   4.005   5.943   0.995  0.5082  0.0283 -0.2629
 1071TIP3    H124772   3.992   5.929   0.901 -0.3124  0.0654 -0.1644
 1071TIP3    H224773   4.019   5.855   1.030  0.3943 -0.0299 -0.3630
 1072TIP3   OH224774   0.325   5.365   6.166  0.0644  0.1210 -0.0316
 1072TIP3    H124775   0.403   5.312   6.180  0.0734  0.2751  0.5605
 1072TIP3    H224776   0.253   5.313   6.202  0.0238  0.3502  0.2263
 1073TIP3   OH224777   1.957   1.515   7.701 -0.5470  0.0053 -0.1794
 1073TIP3    H124778   1.991   1.601   7.676  1.3780 -0.3348  1.0813
 1073TIP3    H224779   1.897   1.534   7.774  0.7611  0.2253  0.8810
 1074TIP3   OH224780   1.738   2.235   6.514  0.2259  0.2810  0.2708
 1074TIP3    H124781   1.781   2.211   6.432  0.1981 -0.3252  0.4293
 1074TIP3    H224782   1.797   2.299   6.554  1.8156 -1.6537  1.2247
 1075TIP3   OH224783   6.368   0.909   0.875 -0.0255  0.3321 -0.0972
 1075TIP3    H124784   6.391   0.881   0.786  0.3501  1.2281 -0.2960
 1075TIP3    H224785   6.436   0.872   0.930 -0.3250 -0.3260 -0.1674
 1076TIP3   OH224786   0.327   2.211   1.592 -0.1283  0.1176  0.1362
 1076TIP3    H124787   0.378   2.291   1.597 -1.3834  0.9253  0.2807
 1076TIP3    H224788   0.316   2.195   1.499 -0.8938  0.7820  0.1086
 1077TIP3   OH224789   0.251   4.568   0.239  0.0547 -0.4279  0.2931
 1077TIP3    H124790   0.169   4.557   0.287  1.0377 -2.9928  1.5901
 1077TIP3    H224791   0.319   4.558   0.306  1.4655  1.0929 -0.8360
 1078TIP3   OH224792   2.580   4.349   0.298  0.2440  0.1415  0.3100
 1078TIP3    H124793   2.505   4.364   0.241  0.3545 -0.3447  0.0324
 1078TIP3    H224794   2.550   4.283   0.360  0.4077  0.0373  0.2770
 1079TIP3   OH224795   6.150   0.623   8.208 -0.1935  0.2706 -0.2139
 1079TIP3    H124796   6.163   0.544   8.156 -1.6297  0.0731 -0.3124
 1079TIP3    H224797   6.078   0.669   8.164  1.5386  2.3662 -0.9788
 1080TIP3   OH224798   0.787   2.681   0.933 -0.0349 -0.0337  0.3698
 1080TIP3    H124799   0.878   2.651   0.930 -0.6667 -2.1532  0.1687
 1080TIP3    H224800   0.745   2.633   0.862 -1.8485 -1.1675  2.1161
 1081TIP3   OH224801   3.638   1.824   0.613  0.2941  0.1565  0.2302
 1081TIP3    H124802   3.697   1.888   0.654  1.4955 -0.0499 -1.0921
 1081TIP3    H224803   3.560   1.874   0.590 -0.3424  0.3281  2.5159
 1082TIP3   OH224804   3.810   6.072   1.144  0.0476  0.5911  0.6631
 1082TIP3    H124805   3.866   6.008   1.101  1.2633 -0.6000  3.7344
 1082TIP3    H224806   3.808   6.147   1.084  0.7715 -1.2613 -1.8154
 1083TIP3   OH224807   4.995   3.614   7.430  0.0113 -0.0247 -0.3830
 1083TIP3    H124808   4.945   3.582   7.355 -0.2637 -0.0896 -0.1753
 1083TIP3    H224809   5.059   3.545   7.447 -1.8383 -1.4512  1.2867
 1084TIP3   OH224810   3.218   0.016   2.659  0.1829 -0.4787 -0.7423
 1084TIP3    H124811   3.144  -0.029   2.617  0.3016 -1.6281  0.2141
 1084TIP3    H224812   3.201   0.109   2.645 -0.9385 -0.7590 -1.3653
 1085TIP3   OH224813   3.060   3.442   1.540  0.3948 -0.4148  0.1392
 1085TIP3    H124814   3.011   3.373   1.497 -0.0120  0.1549 -0.3305
 1085TIP3    H224815   3.079   3.505   1.471  0.2622  0.2256  0.6732
 1086TIP3   OH224816   5.642   6.516   8.320 -0.5017 -0.6533  0.3573
 1086TIP3    H124817   5.666   6.474   8.403  0.1093  0.8125  0.9613
 1086TIP3    H224818   5.614   6.604   8.345 -0.3752 -0.2078 -0.9907
 1087TIP3   OH224819   0.386   2.367   7.815  0.0960 -0.1775 -0.3051
 1087TIP3    H124820   0.314   2.392   7.871 -0.4219 -1.2093 -0.4774
 1087TIP3    H224821   0.451   2.437   7.825 -0.4825  0.2345  0.6496
 1088TIP3   OH224822   6.401   2.714   1.837  0.6170 -0.2801 -0.1595
 1088TIP3    H124823   6.321   2.712   1.785  0.6298  1.3731 -0.3204
 1088TIP3    H224824   6.471   2.716   1.772  0.9521 -3.3455 -0.0386
 1089TIP3   OH224825   5.256   3.282   7.194 -0.6533  0.2102  0.4811
 1089TIP3    H124826   5.165   3.293   7.167 -1.0373 -1.9567  0.6552
 1089TIP3    H224827   5.279   3.194   7.163  0.8190  0.0367  1.9055
 1090TIP3   OH224828   1.695   5.969   1.379 -0.0661 -0.1124 -0.2640
 1090TIP3    H124829   1.759   5.943   1.446 -1.0246  0.3505  0.8602
 1090TIP3    H224830   1.678   5.888   1.330  3.0612  0.1739 -2.1474
 1091TIP3   OH224831   6.747   5.245   8.341  0.0278  1.0720 -0.1667
 1091TIP3    H124832   6.748   5.339   8.321 -0.2841  0.6253 -2.5150
 1091TIP3    H224833   6.837   5.225   8.364  0.0750  1.9447  0.4944
 1092TIP3   OH224834   2.757   0.985   1.913  0.3308  0.3060 -0.2364
 1092TIP3    H124835   2.846   1.014   1.894  1.3112 -2.0217  0.4636
 1092TIP3    H224836   2.765   0.891   1.930 -2.4306 -0.2122 -1.2024
 1093TIP3   OH224837   4.546   1.738   7.177  0.5290 -0.1749 -0.1736
 1093TIP3    H124838   4.455   1.730   7.151  1.0175 -1.4937 -1.6073
 1093TIP3    H224839   4.566   1.656   7.222  0.4078  1.0460  2.2595
 1094TIP3   OH224840   2.271   6.217   7.296  0.4672 -0.6048 -0.2517
 1094TIP3    H124841   2.238   6.162   7.224  1.1502 -1.4448  0.0572
 1094TIP3    H224842   2.359   6.243   7.268 -0.1182  0.9628 -0.7178
 1095TIP3   OH224843   6.129   6.809   1.199  0.0884 -0.0420  0.3489
 1095TIP3    H124844   6.195   6.754   1.241  1.7464  1.1911 -0.5616
 1095TIP3    H224845   6.088   6.752   1.134  2.9402  0.1457 -1.7755
 1096TIP3   OH224846   5.572   2.038   7.831  0.4370 -0.2886  0.0708
 1096TIP3    H124847   5.509   1.973   7.800  0.8702 -1.3183  1.2568
 1096TIP3    H224848   5.523   2.091   7.893 -0.1679  1.1587 -1.5661
 1097TIP3   OH224849   2.019   5.268   6.685 -0.2474 -0.3154 -0.6031
 1097TIP3    H124850   1.932   5.240   6.712 -0.7753  1.2261 -0.6376
 1097TIP3    H224851   2.012   5.285   6.591 -0.1403  0.6165 -0.4502
 1098TIP3   OH224852   0.493   2.843   2.388 -0.4322 -1.0236  0.2477
 1098TIP3    H124853   0.507   2.904   2.316  0.0082 -0.7274  0.5828
 1098TIP3    H224854   0.433   2.777   2.352 -0.1042 -0.9579 -0.4316
 1099TIP3   OH224855   5.147   3.382   7.427  0.0066  0.0224  0.2032
 1099TIP3    H124856   5.214   3.366   7.493 -0.3284 -0.0326  0.5336
 1099TIP3    H224857   5.163   3.316   7.360  1.3476  1.0628 -0.5719
 1100TIP3   OH224858   3.770   4.581   7.252  0.6671 -0.5288  0.0040
 1100TIP3    H124859   3.677   4.564   7.239  0.5699 -0.0163 -0.0103
 1100TIP3    H224860   3.795   4.634   7.176  1.2775 -1.7371 -0.6682
 1101TIP3   OH224861   6.577   5.383   0.593  0.2777  0.1040  0.2149
 1101TIP3    H124862   6.624   5.345   0.519  0.4402 -0.6641  0.7021
 1101TIP3    H224863   6.583   5.317   0.662  2.1954  1.7637  1.7495
 1102TIP3   OH224864   6.851   1.714   2.745  0.3122  0.0845  0.6724
 1102TIP3    H124865   6.779   1.656   2.772 -2.5923  3.0325 -0.1157
 1102TIP3    H224866   6.817   1.760   2.668  3.3896  1.1554 -0.1857
 1103TIP3   OH224867   3.030   3.636   7.994  0.3506  0.7155 -0.1983
 1103TIP3    H124868   3.079   3.704   7.947  0.2620  1.6865  1.0787
 1103TIP3    H224869   3.074   3.554   7.970  1.6374  1.4115 -0.2960
 1104TIP3   OH224870   4.485   6.412   7.545 -0.1112  0.1182 -0.0175
 1104TIP3    H124871   4.404   6.447   7.582 -0.3079 -0.2301 -0.1160
 1104TIP3    H224872   4.541   6.397   7.620 -0.0369  0.6028  0.0314
 1105TIP3   OH224873   0.035   0.448   8.028  0.1566 -0.0492 -0.2875
 1105TIP3    H124874  -0.039   0.388   8.017 -1.6743  1.9203  0.5555
 1105TIP3    H224875  -0.006   0.533   8.046  2.5464  0.5001  3.7490
 1106TIP3   OH224876   1.023   4.959   7.021  0.1876  0.2057 -0.1250
 1106TIP3    H124877   1.096   4.923   7.072 -0.0357 -0.5556 -0.3275
 1106TIP3    H224878   0.992   4.885   6.969 -0.7170  0.5265 -0.0601
 1107TIP3   OH224879   6.771   2.386   1.548  0.0019 -0.1192  0.4912
 1107TIP3    H124880   6.856   2.351   1.578  0.1694  1.0737  1.5064
 1107TIP3    H224881   6.785   2.408   1.456  0.1282 -1.8958  0.0372
 1108TIP3   OH224882   4.066   4.250   1.733 -0.1148  0.3801 -1.3194
 1108TIP3    H124883   4.115   4.330   1.717  1.9536 -0.2898  1.0902
 1108TIP3    H224884   3.989   4.279   1.782  0.6851  0.9173 -0.3436
 1109TIP3   OH224885   4.666   6.379   0.903  0.4181 -0.6083 -0.9971
 1109TIP3    H124886   4.678   6.304   0.845  0.2846 -1.6378  0.2613
 1109TIP3    H224887   4.580   6.413   0.881  0.8419 -0.2359 -2.1968
 1110TIP3   OH224888   3.074   5.522   6.244 -0.2892  1.0303 -0.2445
 1110TIP3    H124889   3.058   5.429   6.229  0.6536  0.9987 -1.2209
 1110TIP3    H224890   3.003   5.550   6.301 -1.0033 -0.1246 -0.5316
 1111TIP3   OH224891   0.282   3.338   6.520  0.4635  0.5443  0.8299
 1111TIP3    H124892   0.349   3.285   6.476  1.1258 -0.3668  2.8231
 1111TIP3    H224893   0.329   3.416   6.550  0.2828  0.6239  0.9089
 1112TIP3   OH224894   2.621   4.559   2.451 -0.5048  0.1155 -0.1390
 1112TIP3    H124895   2.682   4.591   2.518 -1.4345 -0.3624  0.9637
 1112TIP3    H224896   2.668   4.487   2.409 -0.0770  0.1217  0.3150
 1113TIP3   OH224897   0.260   0.526   1.511 -0.1495  0.2398 -0.3807
 1113TIP3    H124898   0.275   0.596   1.448 -1.2066 -0.7523 -1.8141
 1113TIP3    H224899   0.335   0.468   1.501  0.1570  0.5616 -0.0096
 1114TIP3   OH224900   4.923   6.463   7.221 -0.0432 -0.1131 -0.0659
 1114TIP3    H124901   5.006   6.458   7.174 -0.2476  1.2979 -0.6357
 1114TIP3    H224902   4.863   6.411   7.168  0.3889 -0.8523  0.1618
 1115TIP3   OH224903   2.350   1.717   1.028  0.2558  0.5192 -0.3161
 1115TIP3    H124904   2.291   1.733   0.955 -0.1247  1.9541  0.2792
 1115TIP3    H224905   2.419   1.783   1.019 -0.9170  2.1680  1.7409
 1116TIP3   OH224906   4.814   5.959   7.617 -0.0609 -0.5931 -0.0675
 1116TIP3    H124907   4.903   5.958   7.581 -0.0554  1.2660 -0.1997
 1116TIP3    H224908   4.826   5.974   7.711 -0.2413 -0.3067 -0.0911
 1117TIP3   OH224909   4.022   6.523   0.431 -0.5917 -0.2466 -0.7402
 1117TIP3    H124910   3.975   6.594   0.387 -1.7003  0.5016  1.5219
 1117TIP3    H224911   4.107   6.561   0.453  0.0783 -0.7087 -2.3457
 1118TIP3   OH224912   3.292   6.535   7.393 -0.3245 -0.2099 -0.9764
 1118TIP3    H124913   3.205   6.556   7.358 -0.1016  1.6141 -0.5647
 1118TIP3    H224914   3.349   6.601   7.354  0.4679  0.0184  0.5037
 1119TIP3   OH224915   6.280   5.014   1.332  0.6409  0.3394  0.3878
 1119TIP3    H124916   6.362   5.048   1.296  0.0601  1.3254 -0.0731
 1119TIP3    H224917   6.221   5.089   1.329  0.3305  0.2342  2.6990
 1120TIP3   OH224918   5.867   6.201   1.096 -0.3666 -0.1680 -0.1939
 1120TIP3    H124919   5.944   6.145   1.082  1.1742  2.1951 -1.9750
 1120TIP3    H224920   5.899   6.273   1.149 -1.4880  0.5727 -0.4972
 1121TIP3   OH224921   3.785   6.787   7.723  0.1726 -0.1740 -0.2675
 1121TIP3    H124922   3.876   6.764   7.742 -0.0109  0.0616  0.9381
 1121TIP3    H224923   3.787   6.817   7.632  0.9986 -1.7165 -0.7847
 1122TIP3   OH224924   3.947   2.240   8.117  0.4167  0.0092 -0.3122
 1122TIP3    H124925   4.013   2.306   8.137  0.3931  0.9735 -3.1029
 1122TIP3    H224926   3.893   2.235   8.197  3.7759 -0.9151  2.1468
 1123TIP3   OH224927   4.271   4.242   0.945  0.3322  0.1801  0.2692
 1123TIP3    H124928   4.343   4.261   0.884  0.1305  2.2604  0.6012
 1123TIP3    H224929   4.209   4.314   0.931 -1.3007 -1.1217  0.5911
 1124TIP3   OH224930   2.050   5.442   7.855 -0.1537 -0.0574  0.1991
 1124TIP3    H124931   2.051   5.513   7.791 -0.3555  0.6087  0.9207
 1124TIP3    H224932   1.994   5.473   7.926  0.6959 -0.4494  1.0764
 1125TIP3   OH224933   1.320   0.075   1.232  0.3936  0.2720  0.0888
 1125TIP3    H124934   1.295   0.047   1.320  1.0560  0.7973  0.4476
 1125TIP3    H224935   1.411   0.049   1.223  0.4293  0.5294 -0.3154
 1126TIP3   OH224936   4.022   4.219   8.329  0.3126  0.0634  0.6503
 1126TIP3    H124937   4.098   4.172   8.295 -0.3393  0.9884 -2.4315
 1126TIP3    H224938   4.057   4.300   8.364  0.9436 -0.5953  1.6062
 1127TIP3   OH224939   2.800   1.210   7.801 -0.2554  0.1147 -0.0762
 1127TIP3    H124940   2.792   1.298   7.765  1.3046  0.1550 -0.3997
 1127TIP3    H224941   2.875   1.172   7.755  0.7409 -0.4591  1.9114
 1128TIP3   OH224942   6.310   4.829   2.046 -0.6106 -0.7712  0.0675
 1128TIP3    H124943   6.242   4.865   2.104 -0.5511 -0.4841 -0.0388
 1128TIP3    H224944   6.335   4.902   1.991  0.4843 -0.6034  0.7546
 1129TIP3   OH224945   1.862   2.308   1.903  0.1000 -0.6737  0.3905
 1129TIP3    H124946   1.798   2.311   1.973 -2.4894 -0.0791 -1.8366
 1129TIP3    H224947   1.849   2.389   1.854  1.4315 -1.2972 -1.1043
 1130TIP3   OH224948   0.016   3.109   8.236 -0.2832  0.3977 -0.1970
 1130TIP3    H124949  -0.069   3.097   8.194  0.2733  0.4591 -1.3788
 1130TIP3    H224950   0.022   3.203   8.250 -1.0588  0.2461  1.3350
 1131TIP3   OH224951   1.840   2.859   6.813 -0.7732 -0.0329 -0.3039
 1131TIP3    H124952   1.861   2.792   6.748 -1.0860 -0.3857 -0.0423
 1131TIP3    H224953   1.820   2.937   6.761 -0.6005 -0.1960 -0.6153
 1132TIP3   OH224954   4.912   1.788   1.761  0.0337  0.1523 -0.1108
 1132TIP3    H124955   4.937   1.713   1.706  0.4047  0.7904 -0.8364
 1132TIP3    H224956   4.956   1.863   1.720  0.4534  0.6214  1.1678
 1133TIP3   OH224957   2.557   1.654   6.857 -0.2261 -0.3745  0.0269
 1133TIP3    H124958   2.638   1.604   6.871  0.0117 -0.0878 -0.2952
 1133TIP3    H224959   2.570   1.696   6.772 -2.1385 -3.1142 -1.8028
 1134TIP3   OH224960   1.081   1.400   2.080 -0.1997 -0.0352 -0.4449
 1134TIP3    H124961   0.989   1.371   2.082 -0.5323  0.9848 -0.1152
 1134TIP3    H224962   1.102   1.419   2.171  0.4705 -0.6208 -0.4718
 1135TIP3   OH224963   2.880   3.006   8.055 -0.1268  0.4760 -0.1580
 1135TIP3    H124964   2.856   2.914   8.048  2.2755 -0.2354 -0.0716
 1135TIP3    H224965   2.857   3.029   8.145  1.7239 -0.8977  0.7339
 1136TIP3   OH224966   6.222   3.982   8.048  0.0055 -0.0059 -0.1707
 1136TIP3    H124967   6.253   4.062   8.091  0.0630 -1.2908  2.3385
 1136TIP3    H224968   6.297   3.951   7.998 -0.6184  2.5219 -2.9796
 1137TIP3   OH224969   1.504   6.995   7.319 -0.3100  0.1087  0.3632
 1137TIP3    H124970   1.472   7.041   7.397 -0.1935  2.7122 -0.9928
 1137TIP3    H224971   1.449   7.028   7.248  0.4243 -1.1946 -0.8627
 1138TIP3   OH224972   2.652   3.061   1.988 -0.1046  0.9483 -0.4624
 1138TIP3    H124973   2.569   3.075   1.944 -1.0088  0.3466  0.9697
 1138TIP3    H224974   2.657   2.967   2.002  0.5687  1.0271 -0.0761
 1139TIP3   OH224975   1.538   2.618   2.627  0.8284 -0.4019  0.2961
 1139TIP3    H124976   1.587   2.692   2.662  1.7475 -0.7391 -0.2191
 1139TIP3    H224977   1.583   2.541   2.662  1.0794 -0.7245 -0.6874
 1140TIP3   OH224978   6.836   5.172   7.599 -0.0029  0.4335  0.4184
 1140TIP3    H124979   6.834   5.077   7.593 -0.4214  0.3403  1.7304
 1140TIP3    H224980   6.929   5.194   7.596  0.0600  0.2991 -3.2637
 1141TIP3   OH224981   1.290   0.611   1.425 -0.0609 -0.0925 -0.1102
 1141TIP3    H124982   1.269   0.624   1.333  0.3147  1.1026 -0.0508
 1141TIP3    H224983   1.372   0.561   1.424 -0.3344 -0.5458 -0.4011
 1142TIP3   OH224984   6.761   5.595   0.954 -0.1111 -0.2970  1.1345
 1142TIP3    H124985   6.714   5.661   0.902 -1.9424 -1.2559  1.5068
 1142TIP3    H224986   6.697   5.565   1.018  0.5420 -2.7099  0.7424
 1143TIP3   OH224987   6.397   2.931   0.233 -0.1995 -0.1925 -0.1512
 1143TIP3    H124988   6.339   2.884   0.293 -0.7414  1.4640  0.7036
 1143TIP3    H224989   6.484   2.894   0.250 -0.7956 -1.8537 -0.5604
 1144TIP3   OH224990   5.199   0.776   0.024 -0.4818 -0.2296 -0.2253
 1144TIP3    H124991   5.231   0.741   0.107 -1.7003  1.2015  0.9244
 1144TIP3    H224992   5.111   0.740   0.015 -0.8601  0.6364 -0.1870
 1145TIP3   OH224993   3.158   0.572   7.172  0.3003 -0.2919 -0.1537
 1145TIP3    H124994   3.078   0.551   7.221  1.3382 -1.5066  1.1186
 1145TIP3    H224995   3.154   0.667   7.160 -2.0745 -0.4814 -1.5218
 1146TIP3   OH224996   1.349   0.389   6.565  0.3395 -0.1342  0.1363
 1146TIP3    H124997   1.395   0.471   6.585  0.6141 -0.3209  0.2624
 1146TIP3    H224998   1.279   0.384   6.629  0.4832 -0.1292  0.2931
 1147TIP3   OH224999   0.753   1.684   1.361 -0.4846 -0.1201  0.3744
 1147TIP3    H125000   0.675   1.697   1.307  0.7120  0.8548 -1.2078
 1147TIP3    H225001   0.752   1.757   1.423  0.8516  1.9004 -1.8340
 1148TIP3   OH225002   3.526   4.103   6.377  0.2984 -0.1006  0.6453
 1148TIP3    H125003   3.584   4.027   6.387  0.1540 -0.1934  0.8012
 1148TIP3    H225004   3.476   4.085   6.297  0.9939  0.3278  0.1066
 1149TIP3   OH225005   3.817   5.394   8.192  0.2895 -0.0566  0.1866
 1149TIP3    H125006   3.897   5.391   8.139  0.6072  0.6670  0.6236
 1149TIP3    H225007   3.831   5.329   8.261  1.0872  1.0538  1.0825
 1150TIP3   OH225008   5.228   0.693   7.970  0.0616 -0.8340  0.1868
 1150TIP3    H125009   5.308   0.743   7.954 -1.5595  1.1518 -2.5366
 1150TIP3    H225010   5.236   0.616   7.913  0.4289 -1.1708  0.6813
 1151TIP3   OH225011   3.079   0.443   0.542  0.0350  0.2037  0.4874
 1151TIP3    H125012   2.991   0.420   0.513  0.5721 -0.5182 -0.6293
 1151TIP3    H225013   3.071   0.454   0.637 -1.3565  0.6823  0.3256
 1152TIP3   OH225014   1.978   0.299   1.261  0.1033  0.7686  0.5722
 1152TIP3    H125015   1.949   0.211   1.237  1.4699  0.8014 -1.4199
 1152TIP3    H225016   1.992   0.295   1.356  0.3005 -1.2087  0.4923
 1153TIP3   OH225017   3.431   1.475   7.800 -0.1575 -0.3123 -0.1426
 1153TIP3    H125018   3.444   1.492   7.893  2.6073  1.9125 -0.8059
 1153TIP3    H225019   3.475   1.391   7.785 -3.2551 -2.2976  0.9710
 1154TIP3   OH225020   4.608   2.240   8.314  0.2144 -0.6350 -1.0204
 1154TIP3    H125021   4.680   2.301   8.333  0.8050 -1.4589 -0.5843
 1154TIP3    H225022   4.551   2.290   8.256 -0.2409  1.0010  0.7110
 1155TIP3   OH225023   3.726   1.478   0.716  0.7401  0.5547  0.2020
 1155TIP3    H125024   3.728   1.429   0.798  1.9197 -0.2602 -0.2764
 1155TIP3    H225025   3.702   1.567   0.741  1.0016  0.2933  1.4237
 1156TIP3   OH225026   5.678   4.583   2.058 -0.2159 -0.4283  0.1216
 1156TIP3    H125027   5.772   4.571   2.049 -0.2955  0.0690 -1.7581
 1156TIP3    H225028   5.639   4.501   2.028 -0.4051 -0.3200  0.0658
 1157TIP3   OH225029   2.510   3.247   8.040 -0.2458  0.3106  0.2457
 1157TIP3    H125030   2.491   3.327   7.991  0.2213  0.4267  0.2455
 1157TIP3    H225031   2.483   3.268   8.130  0.3351  0.6508  0.3481
 1158TIP3   OH225032   4.841   6.490   1.979  0.4551  0.4238 -0.2075
 1158TIP3    H125033   4.822   6.584   1.971  0.4354  0.3990 -0.4629
 1158TIP3    H225034   4.831   6.456   1.891 -1.0061 -0.1074  0.1432
 1159TIP3   OH225035   2.492   2.768   1.799  0.7317 -0.0684  0.5587
 1159TIP3    H125036   2.486   2.839   1.736  1.8348  0.5148  1.0713
 1159TIP3    H225037   2.425   2.705   1.772  0.3026  0.7766 -0.3934
 1160TIP3   OH225038   0.557   6.972   6.898 -0.9578 -0.4518  0.1394
 1160TIP3    H125039   0.528   7.045   6.954  0.0218  0.9581 -1.1087
 1160TIP3    H225040   0.644   6.998   6.868 -0.9889 -1.6925 -1.1369
 1161TIP3   OH225041   1.749   5.073   7.624 -0.1764  0.0713 -0.1133
 1161TIP3    H125042   1.807   5.145   7.600 -1.7268  1.6981  0.7560
 1161TIP3    H225043   1.678   5.114   7.674 -0.5135 -2.2434  1.4997
 1162TIP3   OH225044   2.549   3.124   0.200 -0.0080 -0.1317  0.5325
 1162TIP3    H125045   2.540   3.029   0.187  1.0951 -0.1630 -0.1205
 1162TIP3    H225046   2.631   3.134   0.247  0.2350  0.5529 -0.0311
 1163TIP3   OH225047   1.017   2.147   0.615  0.4798 -0.0913  0.2739
 1163TIP3    H125048   0.962   2.088   0.563 -0.1756  1.1742 -0.5011
 1163TIP3    H225049   1.004   2.118   0.706 -0.3281 -0.7234 -0.0316
 1164TIP3   OH225050   1.101   0.406   7.683 -0.7029  0.3825  0.1256
 1164TIP3    H125051   1.021   0.370   7.646 -0.6263 -0.4211  0.7250
 1164TIP3    H225052   1.082   0.499   7.695 -1.0495  0.4727 -1.0444
 1165TIP3   OH225053   4.659   2.423   7.029 -0.4019 -0.7036  0.0632
 1165TIP3    H125054   4.742   2.426   6.982 -0.7103  0.7964 -0.4258
 1165TIP3    H225055   4.683   2.398   7.119  0.5309 -0.5808 -0.1404
 1166TIP3   OH225056   1.833   2.292   2.427 -0.6512 -0.6865 -0.1564
 1166TIP3    H125057   1.874   2.291   2.513 -3.4880  0.2947  1.3457
 1166TIP3    H225058   1.869   2.370   2.385 -0.0974 -0.5073  0.6210
 1167TIP3   OH225059   2.462   5.694   8.228 -0.4698 -0.1584 -0.4801
 1167TIP3    H125060   2.492   5.617   8.277 -0.7824  0.9387  1.5224
 1167TIP3    H225061   2.367   5.691   8.236 -0.4239  1.4812  1.3876
 1168TIP3   OH225062   2.196   2.598   8.131 -0.4093 -0.3717  0.2328
 1168TIP3    H125063   2.253   2.521   8.129 -0.8040 -0.6652 -2.1441
 1168TIP3    H225064   2.239   2.658   8.191 -0.2614 -2.5304  2.4385
 1169TIP3   OH225065   2.421   2.526   0.371  0.1399  0.5467 -0.1651
 1169TIP3    H125066   2.376   2.559   0.449 -0.1576  2.5720 -1.1220
 1169TIP3    H225067   2.351   2.492   0.316  0.3066 -0.4859  0.2328
 1170TIP3   OH225068   1.296   2.379   0.669 -0.0435 -0.5790 -0.0720
 1170TIP3    H125069   1.324   2.417   0.752 -0.8474 -1.3220  0.5714
 1170TIP3    H225070   1.201   2.370   0.679 -0.3332  0.5099 -1.5844
 1171TIP3   OH225071   1.887   3.626   1.809 -0.2390 -0.0145  0.0424
 1171TIP3    H125072   1.866   3.533   1.820 -1.5019 -0.1405 -2.5617
 1171TIP3    H225073   1.976   3.627   1.775 -0.2826 -0.2711 -0.0802
 1172TIP3   OH225074   2.924   2.041   1.919  0.0082 -0.3924  0.1805
 1172TIP3    H125075   2.975   2.121   1.908  1.4685 -1.4878 -1.5301
 1172TIP3    H225076   2.850   2.051   1.858 -1.7410  1.0182  2.3696
 1173TIP3   OH225077   3.203   0.960   1.067 -0.0062 -0.4116 -0.2622
 1173TIP3    H125078   3.136   1.001   1.012 -0.8189 -3.0748 -1.3953
 1173TIP3    H225079   3.160   0.948   1.151 -0.2751 -0.3268 -0.3864
 1174TIP3   OH225080   5.761   6.890   0.575  1.3891  0.0236 -0.1014
 1174TIP3    H125081   5.751   6.963   0.514  0.3601 -1.7340 -2.1807
 1174TIP3    H225082   5.811   6.824   0.526  2.2752 -0.7153  1.6870
 1175TIP3   OH225083   6.716   1.990   2.167 -0.2126  0.6935 -0.2634
 1175TIP3    H125084   6.625   1.993   2.138  0.4066  3.0628 -2.3490
 1175TIP3    H225085   6.712   2.016   2.259 -1.6662  0.6489 -0.2890
 1176TIP3   OH225086   2.639   4.070   0.793  0.5653  0.8003 -0.2014
 1176TIP3    H125087   2.715   4.059   0.736  1.0093 -2.1825  0.7568
 1176TIP3    H225088   2.673   4.114   0.871  1.8235 -1.8283  0.8737
 1177TIP3   OH225089   0.033   1.027   7.599  0.0164 -0.1883  0.2774
 1177TIP3    H125090  -0.050   1.042   7.555  0.1860  0.2052  0.0823
 1177TIP3    H225091   0.013   1.033   7.692 -0.2141 -0.3049  0.2338
 1178TIP3   OH225092   0.419   3.625   8.223  0.1008 -0.0128  0.1504
 1178TIP3    H125093   0.385   3.635   8.312 -1.6572  1.3817 -0.6194
 1178TIP3    H225094   0.392   3.538   8.197 -0.5675  0.0784  0.5147
 1179TIP3   OH225095   6.186   0.651   7.249  0.3506  0.1560 -0.1698
 1179TIP3    H125096   6.173   0.659   7.344 -0.9075 -2.8884  0.0404
 1179TIP3    H225097   6.281   0.649   7.238  0.5184  0.3069  1.0774
 1180TIP3   OH225098   2.345   2.656   2.696  0.1632 -0.6116  0.0499
 1180TIP3    H125099   2.283   2.726   2.716  2.2754  0.8402  2.0458
 1180TIP3    H225100   2.348   2.603   2.776  1.6862 -0.4528  0.1366
 1181TIP3   OH225101   5.561   2.357   0.596  0.1181  0.4249 -0.4393
 1181TIP3    H125102   5.489   2.419   0.604 -0.4258 -0.2419 -0.0997
 1181TIP3    H225103   5.543   2.310   0.515  0.8546  1.1015 -1.0197
 1182TIP3   OH225104   0.975   3.428   1.720  0.0663  0.8257  0.1959
 1182TIP3    H125105   1.004   3.379   1.797  0.9632  1.3501  0.1981
 1182TIP3    H225106   0.888   3.392   1.701 -0.1102  0.5801  1.3574
 1183TIP3   OH225107   5.469   0.887   2.492 -0.2360 -0.2215 -0.3114
 1183TIP3    H125108   5.447   0.807   2.540 -0.0842  0.8599  1.6562
 1183TIP3    H225109   5.399   0.948   2.515  0.8653  0.9192  0.0677
 1184TIP3   OH225110   3.420   1.326   1.844 -0.0638  0.1467 -0.2713
 1184TIP3    H125111   3.342   1.380   1.855  1.4964  2.6030 -0.4114
 1184TIP3    H225112   3.414   1.292   1.755 -0.2264  1.6779 -0.8824
 1185TIP3   OH225113   2.234   6.081   2.272 -0.0507  0.2026 -0.1019
 1185TIP3    H125114   2.268   6.105   2.186  0.6743 -1.2728 -0.2579
 1185TIP3    H225115   2.305   6.032   2.313 -1.0197 -0.6204  0.6352
 1186TIP3   OH225116   5.479   1.273   0.574 -0.3699 -0.2993  0.4302
 1186TIP3    H125117   5.503   1.356   0.615 -1.5592  0.2317  0.1096
 1186TIP3    H225118   5.523   1.206   0.626 -0.7792  0.4378  1.7610
 1187TIP3   OH225119   4.434   2.636   0.315 -0.1097 -0.5325 -0.1838
 1187TIP3    H125120   4.376   2.629   0.391 -0.4927  0.1320 -0.3948
 1187TIP3    H225121   4.522   2.632   0.351 -0.2591  1.3296  0.5077
 1188TIP3   OH225122   0.102   1.111   0.765 -0.6517 -0.1669  0.1076
 1188TIP3    H125123   0.151   1.176   0.714 -0.0087 -0.3657  0.4653
 1188TIP3    H225124   0.011   1.141   0.759 -0.5094  0.1470 -0.6518
 1189TIP3   OH225125   5.631   4.277   2.719  0.0551  0.4888 -0.0799
 1189TIP3    H125126   5.664   4.216   2.785  2.1363  0.0255 -1.4502
 1189TIP3    H225127   5.617   4.359   2.767  0.3851 -0.1521  1.1577
 1190TIP3   OH225128   3.381   1.488   7.002 -0.0092  1.0205  0.1345
 1190TIP3    H125129   3.307   1.529   6.956  0.1613 -1.2288 -2.3805
 1190TIP3    H225130   3.458   1.513   6.951  0.4165 -0.2043  0.1608
 1191TIP3   OH225131   3.417   0.889   1.282 -0.2037 -0.1947 -0.0958
 1191TIP3    H125132   3.383   0.936   1.205 -0.8113 -0.7828 -0.2053
 1191TIP3    H225133   3.511   0.903   1.279 -0.4281  1.6437  0.3101
 1192TIP3   OH225134   2.501   1.658   7.584  0.3489  0.1342  0.0633
 1192TIP3    H125135   2.520   1.584   7.642 -2.1173 -1.3641 -0.9194
 1192TIP3    H225136   2.578   1.664   7.528  1.6740 -0.0280  1.7688
 1193TIP3   OH225137   5.426   6.227   2.521 -0.7287 -0.2143 -0.2079
 1193TIP3    H125138   5.438   6.140   2.481 -0.8645 -0.1232 -0.4473
 1193TIP3    H225139   5.495   6.232   2.588  1.4893  0.7942 -2.3905
 1194TIP3   OH225140   5.647   5.556   0.320  0.1755  0.3472 -0.3875
 1194TIP3    H125141   5.679   5.606   0.396  0.2011  0.3251 -0.3838
 1194TIP3    H225142   5.552   5.571   0.321 -0.0688 -1.0583  0.6844
 1195TIP3   OH225143   6.323   2.179   0.731  0.2145 -0.3152  0.3639
 1195TIP3    H125144   6.394   2.119   0.753 -0.4795 -0.3393  2.9052
 1195TIP3    H225145   6.272   2.185   0.811 -2.0175  0.6018 -1.0484
 1196TIP3   OH225146   5.991   3.663   0.288 -0.0735  0.7954 -0.1938
 1196TIP3    H125147   6.039   3.664   0.371 -1.5656 -2.1073  0.8303
 1196TIP3    H225148   5.937   3.742   0.291 -1.3146 -0.0295  2.4617
 1197TIP3   OH225149   5.308   2.042   7.991 -0.1298  0.0393  0.0360
 1197TIP3    H125150   5.321   2.034   8.086 -1.7391 -1.0728  0.2098
 1197TIP3    H225151   5.236   1.982   7.972  0.0119  0.4167 -1.8710
 1198TIP3   OH225152   0.612   5.632   1.385 -0.0229  0.0841 -0.3574
 1198TIP3    H125153   0.628   5.620   1.291  1.0736 -0.2277 -0.1376
 1198TIP3    H225154   0.598   5.726   1.395  1.3889  0.3376 -0.6175
 1199TIP3   OH225155   5.600   3.932   0.203 -0.2239  0.6757 -0.3832
 1199TIP3    H125156   5.580   3.840   0.186  1.2622  0.3728 -0.6331
 1199TIP3    H225157   5.565   3.949   0.291 -0.1739 -0.2302 -0.1824
 1200TIP3   OH225158   2.130   2.336   1.318  0.2354  0.3215  0.0752
 1200TIP3    H125159   2.218   2.300   1.306  0.4259  0.3519  1.2284
 1200TIP3    H225160   2.104   2.305   1.405 -1.3071 -0.5082 -0.6580
 1201TIP3   OH225161   1.089   0.910   7.119  0.2848 -0.3659 -0.5624
 1201TIP3    H125162   1.073   0.935   7.028 -1.5345 -0.0252 -0.1767
 1201TIP3    H225163   1.061   0.819   7.125 -0.0100 -0.2557 -0.2448
 1202TIP3   OH225164   6.742   0.916   8.228 -0.2443  0.4335  0.1449
 1202TIP3    H125165   6.832   0.897   8.254 -1.1087 -0.3533  2.9041
 1202TIP3    H225166   6.696   0.833   8.238 -1.2120  0.6663 -1.8319
 1203TIP3   OH225167   2.336   5.410   1.255 -0.0074 -0.1441  0.0940
 1203TIP3    H125168   2.253   5.457   1.248  1.8150  3.3873 -0.0008
 1203TIP3    H225169   2.340   5.381   1.346 -1.4120 -0.6524  0.0222
 1204TIP3   OH225170   4.395   3.460   1.842  0.7542  0.2856 -0.0447
 1204TIP3    H125171   4.300   3.471   1.849  0.8556  0.3562  1.5330
 1204TIP3    H225172   4.419   3.507   1.763 -0.4537  0.7446 -0.1556
 1205TIP3   OH225173   3.640   6.000   1.387  0.0810  0.6662 -0.4594
 1205TIP3    H125174   3.648   6.058   1.311  1.0966  1.7344  0.4305
 1205TIP3    H225175   3.580   6.047   1.446  0.8986  0.8273  0.2608
 1206TIP3   OH225176   5.717   6.142   2.025  0.7509 -0.0202 -0.2376
 1206TIP3    H125177   5.733   6.216   2.084 -0.9158  1.2378 -1.2657
 1206TIP3    H225178   5.630   6.111   2.050 -0.1738  0.7946 -2.1942
 1207TIP3   OH225179   4.065   0.795   6.780 -0.1388 -0.2613  0.7665
 1207TIP3    H125180   4.129   0.750   6.725 -1.5920 -0.1084 -1.1573
 1207TIP3    H225181   4.116   0.831   6.852  1.8530 -0.5266 -0.4389
 1208TIP3   OH225182   4.754   0.501   1.886  0.1166 -0.0028 -0.4333
 1208TIP3    H125183   4.769   0.569   1.952 -1.0843 -1.4404  1.4236
 1208TIP3    H225184   4.807   0.528   1.811  0.8211  2.1882  0.7744
 1209TIP3   OH225185   5.236   1.492   2.570  0.5195  0.4430 -0.1581
 1209TIP3    H125186   5.237   1.397   2.562 -0.7744  0.3423  0.4913
 1209TIP3    H225187   5.314   1.522   2.523  0.5407 -0.8825 -1.0168
 1210TIP3   OH225188   4.611   5.392   7.455 -0.0812 -0.0279 -0.2069
 1210TIP3    H125189   4.566   5.456   7.511 -0.6654  0.5960 -1.3718
 1210TIP3    H225190   4.696   5.431   7.438 -0.7221  0.8291 -1.5527
 1211TIP3   OH225191   2.185   4.179   2.071 -0.5037 -0.1586  0.2266
 1211TIP3    H125192   2.236   4.111   2.027  1.9504  1.7399 -0.0634
 1211TIP3    H225193   2.190   4.156   2.164  1.4171  0.2774  0.2588
 1212TIP3   OH225194   3.077   2.188   0.965 -0.9553  0.1119  0.6640
 1212TIP3    H125195   3.066   2.281   0.986 -0.6411  0.0459  1.1332
 1212TIP3    H225196   2.994   2.148   0.990 -1.0448  0.2452  0.5826
 1213TIP3   OH225197   0.847   3.536   7.948 -0.3915 -0.3011  0.5269
 1213TIP3    H125198   0.796   3.536   8.029  0.8203 -0.7239  1.3144
 1213TIP3    H225199   0.912   3.467   7.960 -0.1542 -0.3338 -0.7891
 1214TIP3   OH225200   0.457   5.973   2.249  0.1507  0.3759  0.2750
 1214TIP3    H125201   0.436   6.018   2.331  2.2503  1.2116  0.4198
 1214TIP3    H225202   0.448   6.041   2.181  0.3223  0.2111  0.0852
 1215TIP3   OH225203   6.910   5.792   7.140  0.1454  0.5649 -0.0396
 1215TIP3    H125204   6.935   5.884   7.149 -0.6632  0.7140  0.7443
 1215TIP3    H225205   6.868   5.769   7.223 -2.4364  0.3665 -1.2879
 1216TIP3   OH225206   0.288   3.624   1.635 -0.7004  0.1188  0.0886
 1216TIP3    H125207   0.294   3.530   1.617 -2.1776 -0.0121  0.1553
 1216TIP3    H225208   0.255   3.629   1.725  0.7307  0.7309  0.6026
 1217TIP3   OH225209   1.505   6.621   1.653  0.0598 -0.2866  0.1211
 1217TIP3    H125210   1.579   6.623   1.593 -1.0683 -0.3907 -1.3301
 1217TIP3    H225211   1.543   6.638   1.739  1.6224  0.6136 -0.7093
 1218TIP3   OH225212   1.362   5.647   8.276 -0.0691  0.6194 -0.2515
 1218TIP3    H125213   1.329   5.681   8.359  1.3751  1.2072  0.1140
 1218TIP3    H225214   1.288   5.656   8.215 -1.8744 -1.8268  1.4262
 1219TIP3   OH225215   5.489   3.117   7.029  0.0943 -0.1679 -0.3016
 1219TIP3    H125216   5.481   3.086   6.939  1.9075 -0.4895 -0.3909
 1219TIP3    H225217   5.444   3.051   7.081 -1.3663  0.2494 -0.9688
 1220TIP3   OH225218   2.967   5.814   2.289 -0.1019  0.0392  0.0014
 1220TIP3    H125219   2.908   5.836   2.362  0.1136  0.0413  0.1759
 1220TIP3    H225220   3.027   5.749   2.326  0.3773  0.4704 -0.0014
 1221TIP3   OH225221   4.482   6.686   0.267  0.2741  0.0851 -0.3597
 1221TIP3    H125222   4.455   6.659   0.179  0.5562 -0.8081 -0.1832
 1221TIP3    H225223   4.566   6.729   0.253 -0.9307  2.4218 -0.8459
 1222TIP3   OH225224   6.412   3.217   0.967 -0.6408 -0.1565 -0.2208
 1222TIP3    H125225   6.450   3.263   0.893 -0.1068 -0.4558 -0.1439
 1222TIP3    H225226   6.488   3.183   1.015 -0.9348  0.6570  0.8675
 1223TIP3   OH225227   3.367   6.479   7.898  0.1054  0.1246  0.5295
 1223TIP3    H125228   3.432   6.531   7.945 -1.0658  0.7405  1.5522
 1223TIP3    H225229   3.319   6.433   7.967  0.3893 -1.4619 -0.2941
 1224TIP3   OH225230   3.835   6.721   0.875  0.1456  0.2051  0.0978
 1224TIP3    H125231   3.893   6.654   0.914 -0.5160  0.9048  2.4564
 1224TIP3    H225232   3.768   6.736   0.941 -2.3738 -0.0124 -2.2298
 1225TIP3   OH225233   3.538   1.868   8.161  0.0968 -0.1168  0.1678
 1225TIP3    H125234   3.493   1.843   8.080  2.3097 -1.3354 -0.7768
 1225TIP3    H225235   3.530   1.963   8.164 -0.7424 -0.1212 -1.0404
 1226TIP3   OH225236   6.518   6.246   2.021 -0.2136 -0.5256  0.1884
 1226TIP3    H125237   6.543   6.211   2.106 -0.4865  0.9977  0.9224
 1226TIP3    H225238   6.430   6.211   2.005 -0.7200  0.2708  1.1762
 1227TIP3   OH225239   6.294   6.516   7.784  0.7595 -0.0244 -0.2910
 1227TIP3    H125240   6.346   6.580   7.835 -0.1426  0.1707  0.4161
 1227TIP3    H225241   6.278   6.445   7.846  1.1546 -0.6176 -0.8646
 1228TIP3   OH225242   4.122   0.796   7.410 -0.6456  0.0693 -0.1140
 1228TIP3    H125243   4.112   0.703   7.433 -1.3229 -0.1277 -1.1314
 1228TIP3    H225244   4.207   0.820   7.444 -0.1276 -1.1433 -0.4850
 1229TIP3   OH225245   6.083   3.352   1.669 -0.0831  0.0851  0.7522
 1229TIP3    H125246   6.079   3.447   1.659  0.9413  0.0665  0.0297
 1229TIP3    H225247   5.992   3.323   1.661 -0.2072  0.8422 -0.9631
 1230TIP3   OH225248   2.075   4.085   8.072  0.5905  0.8323 -0.3283
 1230TIP3    H125249   2.039   4.033   8.144  2.7783 -2.3114 -1.3088
 1230TIP3    H225250   2.025   4.058   7.995  0.1571  2.0373 -0.4835
 1231TIP3   OH225251   0.378   3.792   1.412  0.0476 -0.1664 -0.2604
 1231TIP3    H125252   0.378   3.778   1.317  0.5857 -2.5829  0.0332
 1231TIP3    H225253   0.352   3.883   1.423  2.2601  0.9133 -2.8348
 1232TIP3   OH225254   6.717   4.881   7.110  0.0465 -0.6663 -0.0520
 1232TIP3    H125255   6.753   4.931   7.183  1.2505  0.4532 -1.3857
 1232TIP3    H225256   6.623   4.877   7.129  0.3100 -0.3517  1.5098
 1233TIP3   OH225257   1.227   2.042   8.128  0.1128 -0.1436 -0.0591
 1233TIP3    H125258   1.253   2.129   8.098 -1.9290  0.4160 -0.3920
 1233TIP3    H225259   1.265   2.034   8.216 -1.8341  2.2522  1.1347
 1234TIP3   OH225260   3.063   5.824   2.547  0.2986 -0.2529 -0.7163
 1234TIP3    H125261   3.066   5.763   2.620 -0.4302 -0.3466 -0.7622
 1234TIP3    H225262   3.148   5.868   2.550  1.4004 -2.2250 -1.5305
 1235TIP3   OH225263   2.057   6.339   0.215  0.8070 -0.2715 -0.6490
 1235TIP3    H125264   2.004   6.261   0.230 -0.5987  0.8658  0.6724
 1235TIP3    H225265   2.147   6.309   0.223  0.2831 -1.4445  1.6959
 1236TIP3   OH225266   4.539   4.999   0.150  0.4695  0.3046  0.2812
 1236TIP3    H125267   4.554   4.926   0.089 -1.6204  0.0541 -0.0053
 1236TIP3    H225268   4.453   4.981   0.188  0.0111  2.4753  0.3927
 1237TIP3   OH225269   4.963   1.588   2.045 -0.1803  0.0291  0.1406
 1237TIP3    H125270   4.891   1.622   1.991 -0.0938 -0.2164 -0.1290
 1237TIP3    H225271   4.992   1.509   2.000  0.6881  0.4695 -0.0951
 1238TIP3   OH225272   5.204   5.029   0.816  0.3737 -0.2610  0.0022
 1238TIP3    H125273   5.278   5.009   0.873 -0.1442 -0.2574  0.6816
 1238TIP3    H225274   5.178   5.118   0.841  0.8251  0.1642 -0.9909
 1239TIP3   OH225275   5.560   0.371   7.597  0.0372  0.7249  0.4267
 1239TIP3    H125276   5.519   0.298   7.551 -2.9603  2.5469 -0.0740
 1239TIP3    H225277   5.627   0.403   7.536 -0.3581 -0.0495 -0.4400
 1240TIP3   OH225278   3.183   6.297   7.262 -0.6632 -0.5666  0.2320
 1240TIP3    H125279   3.107   6.316   7.207 -0.5884 -0.1197  0.2744
 1240TIP3    H225280   3.180   6.364   7.331 -0.0416 -0.3372  0.0400
 1241TIP3   OH225281   2.956   0.676   2.564 -0.3620 -0.0619 -0.0802
 1241TIP3    H125282   2.963   0.638   2.477  0.0288  0.1530 -0.1463
 1241TIP3    H225283   3.046   0.676   2.597 -0.4887 -0.0193  0.2702
 1242TIP3   OH225284   0.277   6.420   7.737  0.1765 -0.7732  0.1533
 1242TIP3    H125285   0.371   6.418   7.755  0.2053 -0.4498  0.0379
 1242TIP3    H225286   0.251   6.327   7.734  1.0079 -1.0010 -2.5423
 1243TIP3   OH225287   3.416   4.773   7.686 -0.1013 -0.0936  0.1760
 1243TIP3    H125288   3.410   4.823   7.605 -1.6031 -2.0270 -0.9952
 1243TIP3    H225289   3.508   4.782   7.713 -0.2079  2.9401 -0.0963
 1244TIP3   OH225290   4.757   1.892   0.708 -0.3165 -0.1332  0.0817
 1244TIP3    H125291   4.769   1.798   0.699 -1.4111 -0.2871  0.0676
 1244TIP3    H225292   4.791   1.912   0.795  1.6208 -0.2074 -0.6063
 1245TIP3   OH225293   5.588   4.859   0.842  0.2560 -0.1413 -0.4402
 1245TIP3    H125294   5.535   4.916   0.898  0.9867 -0.1710  0.3165
 1245TIP3    H225295   5.616   4.788   0.900  0.0324 -0.8435 -1.1661
 1246TIP3   OH225296   2.753   6.946   0.653 -0.0707  0.1415  0.1891
 1246TIP3    H125297   2.743   6.991   0.737 -1.3228 -0.2188  0.2542
 1246TIP3    H225298   2.840   6.907   0.656 -0.0798  0.1961  1.2935
 1247TIP3   OH225299   6.890   2.669   0.059  0.2158  0.2518 -0.2017
 1247TIP3    H125300   6.976   2.710   0.048  0.0617  0.7126  0.2127
 1247TIP3    H225301   6.906   2.597   0.120  0.1638  0.8791  0.5707
 1248TIP3   OH225302   0.138   4.575   6.646 -0.2359  0.1299 -0.4970
 1248TIP3    H125303   0.053   4.567   6.602 -0.4409  1.3569 -0.3408
 1248TIP3    H225304   0.152   4.488   6.684 -1.3010 -0.1705 -0.7360
 1249TIP3   OH225305   4.366   3.519   8.095  0.7496  0.4776 -0.0904
 1249TIP3    H125306   4.275   3.531   8.067  1.1755  0.6454 -1.5284
 1249TIP3    H225307   4.395   3.606   8.120  0.0987  0.1842  1.8648
 1250TIP3   OH225308   5.840   6.661   0.265 -0.3705  0.1890 -0.6009
 1250TIP3    H125309   5.753   6.670   0.304 -0.3621 -0.3156 -0.4582
 1250TIP3    H225310   5.845   6.731   0.200 -0.6135  0.6607 -0.1186
 1251TIP3   OH225311   6.147   4.001   2.645 -0.6419 -0.0482  0.5554
 1251TIP3    H125312   6.166   4.094   2.658 -1.0992  0.1694 -0.2937
 1251TIP3    H225313   6.088   3.979   2.718 -0.1444  0.1967  1.0414
 1252TIP3   OH225314   1.790   4.137   1.575 -0.3113  0.3307 -0.3820
 1252TIP3    H125315   1.840   4.171   1.501  0.1208 -1.4175 -0.9483
 1252TIP3    H225316   1.853   4.085   1.625 -0.7104  1.1132  0.9749
 1253TIP3   OH225317   6.194   6.026   1.372  0.3677  0.0085  0.2723
 1253TIP3    H125318   6.276   6.067   1.398  0.9983 -1.1581  0.1761
 1253TIP3    H225319   6.174   5.965   1.443 -0.3873  0.2341  0.2621
 1254TIP3   OH225320   2.315   2.519   2.928 -0.6935 -0.4495  0.3780
 1254TIP3    H125321   2.331   2.427   2.907 -1.5946 -0.3869 -0.6786
 1254TIP3    H225322   2.395   2.548   2.971 -0.2034 -1.5919  0.2794
 1255TIP3   OH225323   0.320   5.557   0.221 -0.7759  0.1267 -0.5149
 1255TIP3    H125324   0.320   5.647   0.190 -0.7636  1.8567  3.9199
 1255TIP3    H225325   0.233   5.544   0.259 -0.1115 -1.0299  0.6896
 1256TIP3   OH225326   5.938   3.969   2.397 -0.3783  0.1642  0.8993
 1256TIP3    H125327   5.902   4.055   2.417 -0.8926 -0.4520  2.8369
 1256TIP3    H225328   6.003   3.953   2.465  3.5585  1.0981 -2.2745
 1257TIP3   OH225329   5.819   6.166   0.061  0.1423  0.1435  0.1903
 1257TIP3    H125330   5.844   6.177  -0.031 -1.7981  0.5690 -0.3286
 1257TIP3    H225331   5.804   6.254   0.093  1.4850  0.0557  1.1703
 1258TIP3   OH225332   0.737   1.503   7.502 -0.4905  0.2682  0.4934
 1258TIP3    H125333   0.797   1.531   7.571 -1.1508 -0.9115  1.5815
 1258TIP3    H225334   0.766   1.551   7.424  1.2313  0.4774  1.2193
 1259TIP3   OH225335   2.925   3.603   2.103  0.4647  0.1158  0.2015
 1259TIP3    H125336   2.944   3.511   2.087  1.1549  0.3248 -0.2361
 1259TIP3    H225337   2.862   3.626   2.034 -1.0509 -0.4443  1.3400
 1260TIP3   OH225338   5.614   3.370   0.053  0.0615 -0.4372  0.0880
 1260TIP3    H125339   5.596   3.446  -0.003 -4.2931  0.3031  2.0778
 1260TIP3    H225340   5.684   3.400   0.111 -0.7662  1.6915  0.0822
 1261TIP3   OH225341   0.641   5.290   6.790  0.0834 -0.1164  0.2243
 1261TIP3    H125342   0.687   5.210   6.763  1.4396  0.2599  1.3357
 1261TIP3    H225343   0.613   5.272   6.880  1.1097  0.9293  0.7819
 1262TIP3   OH225344   1.041   2.784   0.079 -0.2545  0.1242 -0.1007
 1262TIP3    H125345   1.053   2.743   0.165 -0.2969  0.3215 -0.0001
 1262TIP3    H225346   1.119   2.758   0.030  0.9626  1.9139  0.7554
 1263TIP3   OH225347   5.852   5.792   1.104  0.3465  0.4494  0.5184
 1263TIP3    H125348   5.944   5.789   1.133  0.5363  0.0380 -0.1094
 1263TIP3    H225349   5.823   5.701   1.110  0.3264  0.3889 -0.3807
 1264TIP3   OH225350   2.407   3.710   0.155  0.4646 -0.3471  0.0132
 1264TIP3    H125351   2.410   3.624   0.198  1.5804 -0.6011 -0.5206
 1264TIP3    H225352   2.325   3.709   0.106  1.2569 -1.8645 -1.4016
 1265TIP3   OH225353   3.280   5.021   0.279  0.1283  0.1998  0.0261
 1265TIP3    H125354   3.316   5.061   0.200  0.2338  0.4972  0.2231
 1265TIP3    H225355   3.251   5.095   0.332 -2.5177 -0.0535 -0.9134
 1266TIP3   OH225356   6.987   1.256   6.217  0.3251 -0.1138 -0.0333
 1266TIP3    H125357   7.007   1.322   6.284 -1.3199  1.6603 -1.1840
 1266TIP3    H225358   6.964   1.177   6.267 -0.7262  1.1150  1.5194
 1267TIP3   OH225359   6.068   6.082   0.185 -0.0033 -0.6325 -0.2390
 1267TIP3    H125360   5.989   6.133   0.165 -0.2322 -0.3285  1.3529
 1267TIP3    H225361   6.081   6.093   0.279  2.2796 -0.2045 -0.5431
 1268TIP3   OH225362   6.903   2.944   0.630  0.0286 -0.0274  0.7499
 1268TIP3    H125363   6.837   2.976   0.568  1.1508  0.2021 -0.3581
 1268TIP3    H225364   6.937   3.024   0.672 -0.7458 -0.1816  1.7258
 1269TIP3   OH225365   0.699   4.861   6.255  0.0728  0.3331  0.5957
 1269TIP3    H125366   0.632   4.909   6.304  0.5236 -0.0242  1.5905
 1269TIP3    H225367   0.780   4.909   6.272  0.0529  0.9399 -0.8433
 1270TIP3   OH225368   5.206   0.340   8.335 -0.6974 -0.0633 -0.2009
 1270TIP3    H125369   5.212   0.366   8.243 -0.1120 -0.1488 -0.1851
 1270TIP3    H225370   5.164   0.254   8.333  1.3926 -1.1328 -0.5630
 1271TIP3   OH225371   4.177   1.775   0.691  0.0076  0.4947 -0.5694
 1271TIP3    H125372   4.195   1.853   0.743  2.1014  1.1689 -2.1684
 1271TIP3    H225373   4.263   1.734   0.679 -0.6940 -0.6683 -1.8461
 1272TIP3   OH225374   4.088   5.693   0.578 -1.0060 -0.5680 -0.0849
 1272TIP3    H125375   4.120   5.744   0.503  1.2847 -1.2734  0.3215
 1272TIP3    H225376   4.013   5.645   0.544 -3.1530  2.7876 -0.5470
 1273TIP3   OH225377   1.207   2.743   2.579  0.4336 -0.2798  0.1738
 1273TIP3    H125378   1.164   2.673   2.530  1.4362 -0.9107  0.1654
 1273TIP3    H225379   1.137   2.805   2.599 -0.1724 -0.4536 -1.2694
 1274TIP3   OH225380   2.205   2.018   7.468  0.2536 -0.0837  0.3879
 1274TIP3    H125381   2.244   2.006   7.382  2.6521  0.6771  1.3078
 1274TIP3    H225382   2.124   2.067   7.451  0.8173  0.2904 -1.3959
 1275TIP3   OH225383   2.684   6.189   8.168  0.5030  1.0592  0.1665
 1275TIP3    H125384   2.773   6.203   8.202  1.0054  4.0307 -1.9342
 1275TIP3    H225385   2.698   6.151   8.081 -0.4454 -0.4753  0.6492
 1276TIP3   OH225386   0.988   6.031   0.655  0.0852  0.2670 -0.1740
 1276TIP3    H125387   0.980   6.121   0.624  0.3417  0.4065  0.1574
 1276TIP3    H225388   0.993   5.978   0.575  0.1321  0.5648 -0.3677
 1277TIP3   OH225389   0.320   2.145   2.586 -0.1370  0.0674 -0.4728
 1277TIP3    H125390   0.249   2.137   2.649  0.1889 -2.2594 -0.2838
 1277TIP3    H225391   0.385   2.201   2.628 -0.8815  0.3700  0.2906
 1278TIP3   OH225392   4.491   3.647   7.552  0.1506 -0.2456 -0.0349
 1278TIP3    H125393   4.532   3.564   7.527 -1.1652 -1.1440  0.6496
 1278TIP3    H225394   4.483   3.642   7.648 -0.1538  0.5672 -0.0096
 1279TIP3   OH225395   4.317   1.144   2.329  0.1791 -0.4629 -0.1689
 1279TIP3    H125396   4.379   1.123   2.399  0.1981  1.2088  0.3633
 1279TIP3    H225397   4.238   1.096   2.353  0.3160 -0.2406  0.7970
 1280TIP3   OH225398   0.721   1.924   8.137 -0.1241  0.4290  0.3069
 1280TIP3    H125399   0.758   1.851   8.086  0.7549  1.1012 -0.0431
 1280TIP3    H225400   0.642   1.887   8.178  1.4949 -1.4418  2.0080
 1281TIP3   OH225401   6.629   6.882   0.548 -0.2255 -0.2324 -0.1700
 1281TIP3    H125402   6.679   6.823   0.491 -0.9174  0.0972 -1.1463
 1281TIP3    H225403   6.683   6.962   0.552  0.2569 -0.5758  0.3858
 1282TIP3   OH225404   1.879   0.530   1.903  0.2169 -0.1902  0.2992
 1282TIP3    H125405   1.927   0.556   1.982  0.1343 -2.3644  1.1255
 1282TIP3    H225406   1.885   0.435   1.902 -0.6113 -0.2590 -1.8255
 1283TIP3   OH225407   2.515   5.120   1.147 -0.1050  0.7779  0.1698
 1283TIP3    H125408   2.587   5.134   1.208  0.0700  0.2502  0.0902
 1283TIP3    H225409   2.543   5.160   1.065  0.3951 -0.0332 -0.0634
 1284TIP3   OH225410   5.366   4.671   8.130  0.4042 -0.4504 -0.6458
 1284TIP3    H125411   5.403   4.640   8.212  0.3785  0.8522 -0.1196
 1284TIP3    H225412   5.394   4.606   8.065  0.2668 -1.5907  0.4021
 1285TIP3   OH225413   0.131   3.809   7.760 -0.3251  0.7488  0.4123
 1285TIP3    H125414   0.139   3.904   7.758 -1.7572  0.9816  2.6365
 1285TIP3    H225415   0.051   3.792   7.810  0.2097 -1.6202  0.5934
 1286TIP3   OH225416   0.670   4.117   7.983 -0.5616  0.1139  0.6294
 1286TIP3    H125417   0.699   4.171   8.057 -3.4644 -0.2249  2.1773
 1286TIP3    H225418   0.624   4.178   7.926 -0.2680 -0.0303  0.2352
 1287TIP3   OH225419   0.588   4.207   6.954 -0.5101  0.9817  0.7134
 1287TIP3    H125420   0.554   4.295   6.938 -0.3860  0.7410 -1.1008
 1287TIP3    H225421   0.680   4.221   6.976 -1.0852  1.4487  3.1724
 1288TIP3   OH225422   2.487   1.780   1.694  0.1193 -0.6033 -1.0617
 1288TIP3    H125423   2.393   1.771   1.704  0.0012 -2.0136 -2.9349
 1288TIP3    H225424   2.525   1.715   1.754 -0.0137  0.4489  0.2260
 1289TIP3   OH225425   2.955   6.578   8.221  0.9393 -0.3212  0.3838
 1289TIP3    H125426   3.045   6.593   8.192  0.5389  0.0827 -0.7201
 1289TIP3    H225427   2.921   6.512   8.160  0.2143  0.1849  0.2338
 1290TIP3   OH225428   6.571   3.203   7.923  0.1608 -0.8139 -0.3797
 1290TIP3    H125429   6.493   3.187   7.870 -0.1270  0.9483 -0.5282
 1290TIP3    H225430   6.637   3.234   7.860  0.1766  0.1581  0.0999
 1291TIP3   OH225431   0.884   1.618   7.702  0.3250 -0.3421  0.2392
 1291TIP3    H125432   0.966   1.570   7.701  1.0514  0.8362 -0.9229
 1291TIP3    H225433   0.870   1.640   7.794  1.0565 -0.9538  0.5101
 1292TIP3   OH225434   4.238   1.840   6.915 -0.3353 -0.9091  0.1558
 1292TIP3    H125435   4.264   1.748   6.913 -1.5496 -1.3125  1.0881
 1292TIP3    H225436   4.160   1.844   6.859  1.3924  0.2069 -2.3512
 1293TIP3   OH225437   6.429   6.008   6.969  0.5629  0.1465 -0.2882
 1293TIP3    H125438   6.444   6.068   6.896  1.7531 -0.4355 -0.5343
 1293TIP3    H225439   6.346   5.965   6.947 -1.7341  3.4135  1.1001
 1294TIP3   OH225440   1.920   4.858   1.836 -0.5129 -0.5147 -0.0335
 1294TIP3    H125441   1.882   4.776   1.802  1.1541 -2.8182  3.0874
 1294TIP3    H225442   1.885   4.864   1.925  2.2162  0.1270  1.0771
 1295TIP3   OH225443   0.145   1.155   6.831 -0.4250 -0.0103 -0.0506
 1295TIP3    H125444   0.131   1.122   6.742  1.6466 -2.0837  0.2721
 1295TIP3    H225445   0.091   1.098   6.886  0.2289 -0.4026  0.1980
 1296TIP3   OH225446   1.611   0.529   1.617 -0.5438 -0.6425  0.3232
 1296TIP3    H125447   1.701   0.496   1.609  0.1569  0.8524  1.5531
 1296TIP3    H225448   1.594   0.530   1.711 -1.6333 -0.3123  0.1364
 1297TIP3   OH225449   1.665   1.041   0.524  0.1187 -0.4697 -0.1432
 1297TIP3    H125450   1.642   0.949   0.541  1.5686 -0.5169  1.8355
 1297TIP3    H225451   1.664   1.082   0.610  1.6057  0.8535 -0.7173
 1298TIP3   OH225452   6.497   5.582   0.789 -0.3846 -0.1138 -0.6120
 1298TIP3    H125453   6.511   5.495   0.752  0.7041  0.7043 -2.2594
 1298TIP3    H225454   6.498   5.568   0.884  1.0092 -1.7392 -0.8071
 1299TIP3   OH225455   5.694   5.425   7.245  0.4287 -0.3338  0.2271
 1299TIP3    H125456   5.732   5.429   7.158  1.6753 -5.0992  0.2819
 1299TIP3    H225457   5.768   5.416   7.304 -0.3964  2.6237  1.9413
 1300TIP3   OH225458   0.854   0.984   2.017  0.2820 -0.4961  0.2507
 1300TIP3    H125459   0.814   1.059   1.973 -0.7062 -1.3743 -0.3995
 1300TIP3    H225460   0.834   0.997   2.110  0.1004  0.0276  0.1379
 1301TIP3   OH225461   2.534   6.853   1.438 -0.2927  0.5282  0.5628
 1301TIP3    H125462   2.452   6.871   1.391 -0.0566  0.9628  0.3087
 1301TIP3    H225463   2.509   6.851   1.530 -0.9761 -1.4456  0.3957
 1302TIP3   OH225464   4.680   2.836   0.535 -0.6798 -0.1107 -0.2352
 1302TIP3    H125465   4.644   2.749   0.520 -3.0899  0.6820  0.4357
 1302TIP3    H225466   4.677   2.879   0.450 -0.5714 -0.3167 -0.3420
 1303TIP3   OH225467   5.419   6.066   1.899  0.1369  0.2538 -0.2213
 1303TIP3    H125468   5.340   6.040   1.947  0.3997  2.3532  1.4975
 1303TIP3    H225469   5.442   5.988   1.848 -1.0062 -1.6334  1.9269
 1304TIP3   OH225470   2.749   3.975   2.814  0.3844 -0.5444 -0.1796
 1304TIP3    H125471   2.805   4.052   2.821 -1.4775  0.8160  0.5455
 1304TIP3    H225472   2.776   3.934   2.731  1.8270  0.5257 -0.2868
 1305TIP3   OH225473   1.725   5.519   0.724  0.2739 -0.0377  0.1478
 1305TIP3    H125474   1.726   5.461   0.801  2.4391 -0.6906 -0.2865
 1305TIP3    H225475   1.673   5.472   0.659 -0.2971 -0.2004  0.7195
 1306TIP3   OH225476   5.233   4.923   1.353 -0.2756  0.2246  0.3795
 1306TIP3    H125477   5.217   4.982   1.427 -2.9940 -0.8480  0.7485
 1306TIP3    H225478   5.196   4.969   1.278  1.8495  0.9949 -0.2710
 1307TIP3   OH225479   0.103   5.185   7.532  0.3098  0.3527  0.1530
 1307TIP3    H125480   0.141   5.151   7.450 -0.0536  2.6589 -1.0565
 1307TIP3    H225481   0.140   5.272   7.542 -0.4915  0.5449  1.8965
 1308TIP3   OH225482   1.500   2.868   7.756 -0.3794  0.0784  0.6682
 1308TIP3    H125483   1.516   2.790   7.809  1.4374 -0.3806 -0.4435
 1308TIP3    H225484   1.556   2.856   7.679 -0.3497  2.2995  0.2786
 1309TIP3   OH225485   4.238   6.443   6.783  0.5021 -0.2687  0.2677
 1309TIP3    H125486   4.196   6.474   6.863 -0.5247  0.1068 -0.3994
 1309TIP3    H225487   4.331   6.434   6.806  0.5553  1.7032  0.9531
 1310TIP3   OH225488   5.293   2.045   7.569 -0.1848 -0.2053 -0.0754
 1310TIP3    H125489   5.288   2.098   7.648  1.8640  1.8450 -1.2030
 1310TIP3    H225490   5.340   1.967   7.595 -1.8442 -0.8124  1.2678
 1311TIP3   OH225491   6.255   6.234   6.382  0.4067  0.6671 -0.3192
 1311TIP3    H125492   6.262   6.261   6.474 -1.0994  2.0743 -0.5732
 1311TIP3    H225493   6.165   6.254   6.357  0.8819  0.6884 -2.2147
 1312TIP3   OH225494   2.185   3.029   0.128  0.3289 -0.1356  0.0622
 1312TIP3    H125495   2.183   3.122   0.103  1.7154 -0.2208 -0.4269
 1312TIP3    H225496   2.198   3.031   0.223  2.6090  0.2116 -0.1999
 1313TIP3   OH225497   2.229   2.868   7.024  0.4729 -0.2482  0.2181
 1313TIP3    H125498   2.316   2.906   7.015  1.1431 -1.7078  0.3258
 1313TIP3    H225499   2.209   2.832   6.938 -0.3321  0.6679  0.0006
 1314TIP3   OH225500   6.831   2.461   6.899  0.4078 -0.2881 -0.4379
 1314TIP3    H125501   6.749   2.440   6.945  0.6736  0.2504  0.2955
 1314TIP3    H225502   6.899   2.420   6.952  0.7322  0.4767 -0.2516
 1315TIP3   OH225503   1.531   0.659   7.552 -0.2205 -0.2903  0.3815
 1315TIP3    H125504   1.540   0.637   7.645 -1.0769  1.2914  0.9048
 1315TIP3    H225505   1.475   0.737   7.553 -0.7395 -0.5985 -1.5135
 1316TIP3   OH225506   1.652   2.140   1.035  0.2615  0.5027 -0.0258
 1316TIP3    H125507   1.738   2.131   1.077  0.2415  1.4517  0.2502
 1316TIP3    H225508   1.671   2.155   0.943  0.4373  1.5136  0.1633
 1317TIP3   OH225509   3.545   1.255   1.390 -0.5176  0.1059 -0.5852
 1317TIP3    H125510   3.569   1.185   1.329 -1.5657  0.0104 -0.8973
 1317TIP3    H225511   3.504   1.322   1.336  0.4909  0.9929 -0.2868
 1318TIP3   OH225512   0.037   0.917   2.010 -0.2958 -0.1409  0.3739
 1318TIP3    H125513   0.102   0.956   2.068  0.1514  0.2608 -0.3929
 1318TIP3    H225514  -0.026   0.876   2.070  0.9815 -1.0789  1.1163
 1319TIP3   OH225515   3.576   4.996   0.670 -0.5421 -0.1030 -0.0730
 1319TIP3    H125516   3.512   5.061   0.698 -1.1314 -1.4137  1.7938
 1319TIP3    H225517   3.542   4.964   0.586 -0.6214  1.4453 -0.6583
 1320TIP3   OH225518   6.400   0.070   0.517  0.1336 -0.2031  0.2175
 1320TIP3    H125519   6.344   0.053   0.592 -0.3858 -2.7238 -0.6246
 1320TIP3    H225520   6.465  -0.001   0.520 -0.0077 -0.4709 -1.7436
 1321TIP3   OH225521   6.037   0.877   1.443  0.3260  0.1010  0.1485
 1321TIP3    H125522   5.986   0.877   1.362 -2.1988  0.2274  1.6403
 1321TIP3    H225523   5.973   0.893   1.512  2.2205 -0.9524  2.2943
 1322TIP3   OH225524   6.413   2.441   0.190 -0.6145  0.1680 -0.1526
 1322TIP3    H125525   6.447   2.511   0.245  0.4793 -0.8787  0.5421
 1322TIP3    H225526   6.444   2.361   0.231 -0.3895 -0.6755 -1.8670
 1323TIP3   OH225527   0.105   5.773   6.681 -0.4918  0.1213  0.2611
 1323TIP3    H125528   0.012   5.766   6.657 -0.2874 -1.0448 -0.2747
 1323TIP3    H225529   0.113   5.719   6.759  0.1051 -1.5381 -0.8815
 1324TIP3   OH225530   0.818   1.254   7.916 -0.1713  0.6757 -0.3538
 1324TIP3    H125531   0.750   1.316   7.941  1.0555  2.5027 -1.3376
 1324TIP3    H225532   0.897   1.285   7.961  0.7545  0.6133 -1.8521
 1325TIP3   OH225533   0.651   0.315   0.374  0.1648  0.3466  0.3718
 1325TIP3    H125534   0.610   0.229   0.368 -0.1176  0.5044  0.0178
 1325TIP3    H225535   0.592   0.373   0.327  0.1639  0.8037  0.9281
 1326TIP3   OH225536   3.840   4.181   8.014 -0.2589  0.1735  0.2718
 1326TIP3    H125537   3.815   4.088   8.006  0.9304 -0.2464  1.1037
 1326TIP3    H225538   3.934   4.181   7.999 -0.4359  1.4580 -1.0049
 1327TIP3   OH225539   0.663   3.449   0.738  0.0584 -0.3358 -0.1156
 1327TIP3    H125540   0.707   3.506   0.800 -0.6262  1.6245 -1.3247
 1327TIP3    H225541   0.733   3.411   0.686  0.5418 -0.7864  0.8495
 1328TIP3   OH225542   4.050   6.111   8.347 -0.1356 -1.0742 -0.1845
 1328TIP3    H125543   3.985   6.045   8.373 -0.6804 -0.6615 -0.4706
 1328TIP3    H225544   4.014   6.193   8.381 -0.1456 -0.7326 -1.0115
 1329TIP3   OH225545   1.733   4.903   7.396 -0.0878 -0.2859 -0.3523
 1329TIP3    H125546   1.704   4.977   7.450 -1.1421 -0.6874 -0.3553
 1329TIP3    H225547   1.826   4.921   7.380 -0.3397  1.0898 -0.4254
 1330TIP3   OH225548   5.080   2.511   2.253  0.2885  0.0005 -0.4009
 1330TIP3    H125549   5.094   2.426   2.211  0.5441  0.4630 -1.2714
 1330TIP3    H225550   4.997   2.542   2.217 -0.2088 -0.2383  0.5274
 1331TIP3   OH225551   2.424   1.750   8.343 -0.4380 -0.0812  0.2130
 1331TIP3    H125552   2.496   1.729   8.403  0.9990  0.2171 -1.3367
 1331TIP3    H225553   2.351   1.772   8.401  1.0737  0.8890  1.8727
 1332TIP3   OH225554   4.521   3.751   8.094 -0.1860  0.3324  0.2519
 1332TIP3    H125555   4.545   3.842   8.077  0.9936 -0.1197 -0.6582
 1332TIP3    H225556   4.556   3.702   8.019  0.2221 -1.0154  1.2765
 1333TIP3   OH225557   2.930   4.189   7.803  0.1356  0.4282  0.4759
 1333TIP3    H125558   2.853   4.210   7.857 -0.9479 -0.8092 -0.5096
 1333TIP3    H225559   2.933   4.093   7.803 -1.2417  0.2121 -3.3296
 1334TIP3   OH225560   5.634   3.808   8.254 -0.1409 -0.5722  0.1743
 1334TIP3    H125561   5.620   3.713   8.259  1.7917 -0.8457  1.7840
 1334TIP3    H225562   5.547   3.846   8.268 -1.0716 -2.0759 -1.2129
 1335TIP3   OH225563   1.261   0.242   0.606 -0.2421  0.2203  0.0039
 1335TIP3    H125564   1.170   0.211   0.604 -0.5694  0.9938  1.7218
 1335TIP3    H225565   1.304   0.187   0.671 -0.0502  1.3147  0.8169
 1336TIP3   OH225566   3.047   2.066   1.615  0.2460 -0.6958 -0.0981
 1336TIP3    H125567   3.034   2.160   1.628  0.5010 -0.7649  0.6816
 1336TIP3    H225568   2.965   2.036   1.576 -0.3994 -0.3990  0.9860
 1337TIP3   OH225569   6.200   4.508   8.229  0.0071 -0.2252  0.3294
 1337TIP3    H125570   6.152   4.450   8.288  0.0710 -0.9871 -0.3431
 1337TIP3    H225571   6.135   4.538   8.166 -0.2944  1.4389  1.3895
 1338TIP3   OH225572   2.658   3.545   0.101 -0.1021 -0.9516 -0.1971
 1338TIP3    H125573   2.697   3.632   0.112 -0.9402 -0.5541 -0.2310
 1338TIP3    H225574   2.593   3.540   0.171 -0.5065 -1.2934 -0.5905
 1339TIP3   OH225575   2.901   3.219   0.277 -0.4584 -0.3995 -0.1042
 1339TIP3    H125576   2.895   3.183   0.366 -0.4252  1.2244  0.6040
 1339TIP3    H225577   2.987   3.263   0.275 -1.4474  1.6689 -0.0540
 1340TIP3   OH225578   5.541   4.753   7.376 -0.3542  0.2825  0.0009
 1340TIP3    H125579   5.508   4.667   7.403  0.0109  0.0801 -0.1885
 1340TIP3    H225580   5.507   4.813   7.442 -1.2901  0.1141 -0.3045
 1341TIP3   OH225581   2.057   1.794   2.377  0.1240  0.4709 -0.0009
 1341TIP3    H125582   2.005   1.722   2.412 -1.6801  0.6096 -2.1756
 1341TIP3    H225583   2.062   1.858   2.448 -1.3913 -0.2334  0.7647
 1342TIP3   OH225584   1.478   5.821   2.100  0.8147 -0.0772  0.1780
 1342TIP3    H125585   1.518   5.892   2.151  0.4474  0.6874 -0.5604
 1342TIP3    H225586   1.429   5.770   2.164  2.2902 -0.5722  0.9783
 1343TIP3   OH225587   0.608   5.405   0.936  0.0604  0.3429  0.0161
 1343TIP3    H125588   0.642   5.315   0.937  0.2815  0.4226  1.3177
 1343TIP3    H225589   0.537   5.403   0.871 -2.7927 -1.8940  2.8288
 1344TIP3   OH225590   4.831   1.423   8.176  0.0764  0.1131  0.1089
 1344TIP3    H125591   4.752   1.421   8.122  0.5523  0.4554 -0.6217
 1344TIP3    H225592   4.878   1.343   8.153  0.0899  0.0646  0.3092
 1345TIP3   OH225593   6.251   3.901   0.883  0.2576  0.3076 -0.0825
 1345TIP3    H125594   6.261   3.964   0.953  0.7834  1.4240 -1.1219
 1345TIP3    H225595   6.201   3.947   0.815 -0.5916 -0.8753 -0.2945
 1346TIP3   OH225596   4.429   6.436   1.534  0.4499 -0.2846  1.1819
 1346TIP3    H125597   4.517   6.400   1.521  2.2558  2.1952  4.7184
 1346TIP3    H225598   4.385   6.372   1.590  1.4470  0.1313  2.4916
 1347TIP3   OH225599   3.386   3.030   2.365  0.4326  0.0378 -0.2008
 1347TIP3    H125600   3.368   3.097   2.432 -0.3559  0.3962 -0.7491
 1347TIP3    H225601   3.394   2.949   2.415 -1.6023  0.0399  0.2513
 1348TIP3   OH225602   0.504   5.168   6.188 -0.3751  0.9047  0.1969
 1348TIP3    H125603   0.535   5.124   6.267  0.7179  0.0062 -0.6788
 1348TIP3    H225604   0.493   5.097   6.124 -1.4985  1.5711 -0.3812
 1349TIP3   OH225605   2.334   4.842   7.449 -0.3980 -0.4104 -0.2876
 1349TIP3    H125606   2.269   4.882   7.506 -1.2689  0.0680 -1.5875
 1349TIP3    H225607   2.285   4.809   7.374  0.4348 -2.8535  0.1216
 1350TIP3   OH225608   2.111   1.965   2.829 -0.1081  0.7025  0.0741
 1350TIP3    H125609   2.105   2.021   2.907  1.2549  0.7530  0.1579
 1350TIP3    H225610   2.203   1.941   2.824 -0.5842 -1.1948 -0.2086
 1351TIP3   OH225611   5.635   6.811   1.199  0.1780  0.3380 -0.5775
 1351TIP3    H125612   5.571   6.879   1.179 -0.5631 -0.0565  0.3939
 1351TIP3    H225613   5.605   6.772   1.281  2.0603  0.6560  0.3321
 1352TIP3   OH225614   6.811   0.975   7.167 -0.2870 -0.0097 -0.0090
 1352TIP3    H125615   6.727   0.944   7.133 -0.3645  1.1822 -0.9746
 1352TIP3    H225616   6.800   0.976   7.262 -0.9639 -0.9599 -0.0702
 1353TIP3   OH225617   1.855   3.252   1.458 -0.5703 -0.0459  0.2045
 1353TIP3    H125618   1.935   3.253   1.510 -1.3163 -1.0914  1.4605
 1353TIP3    H225619   1.870   3.185   1.391 -0.3304 -0.1280  0.3405
 1354TIP3   OH225620   0.408   3.602   6.547  0.4099  0.0691 -0.0870
 1354TIP3    H125621   0.422   3.686   6.591  0.6109  0.2045 -0.4041
 1354TIP3    H225622   0.495   3.562   6.545  0.8573  1.0224 -2.2969
 1355TIP3   OH225623   3.451   3.792   6.610 -0.2700  0.6727 -0.3599
 1355TIP3    H125624   3.526   3.786   6.550  0.2222  2.0080  0.0916
 1355TIP3    H225625   3.377   3.814   6.553 -0.1957 -0.0070 -0.7264
 1356TIP3   OH225626   1.631   5.218   0.637 -0.5711 -0.2165 -0.7888
 1356TIP3    H125627   1.623   5.284   0.568  0.8530  0.4896 -0.3213
 1356TIP3    H225628   1.667   5.141   0.593  0.0552  0.1332 -0.8949
 1357TIP3   OH225629   3.772   2.769   0.513 -0.0087 -0.5050  0.6954
 1357TIP3    H125630   3.841   2.816   0.467  0.7232 -0.7749  1.5022
 1357TIP3    H225631   3.755   2.692   0.460 -1.0095  0.4851 -0.4837
 1358TIP3   OH225632   5.310   6.284   6.771  0.1635 -0.4815 -0.1400
 1358TIP3    H125633   5.406   6.282   6.777  0.1505  0.4137  0.5788
 1358TIP3    H225634   5.280   6.245   6.853 -0.1015 -1.1093 -0.5268
 1359TIP3   OH225635   5.659   4.097   2.267 -0.0072  0.1980  0.0688
 1359TIP3    H125636   5.581   4.074   2.318 -0.5137 -0.8011 -1.0876
 1359TIP3    H225637   5.732   4.055   2.314 -0.4825 -0.8223 -0.0654
 1360TIP3   OH225638   0.305   4.992   1.435 -0.4558 -0.2159  0.2768
 1360TIP3    H125639   0.326   4.958   1.521 -1.3369  1.2547  1.1214
 1360TIP3    H225640   0.213   5.020   1.442 -0.2069  0.9804 -0.7579
 1361TIP3   OH225641   5.867   3.761   6.621 -0.3364 -0.5246 -0.2327
 1361TIP3    H125642   5.930   3.735   6.689  2.1007  1.3621 -1.6120
 1361TIP3    H225643   5.888   3.853   6.603 -3.2855  0.0929 -1.0991
 1362TIP3   OH225644   6.093   3.706   0.909  0.2312  0.3188  1.0340
 1362TIP3    H125645   6.005   3.730   0.882  0.7226 -0.5299 -1.6349
 1362TIP3    H225646   6.149   3.775   0.874  1.0148 -1.3804 -1.3308
 1363TIP3   OH225647   2.152   4.880   6.728  0.6241 -0.1005 -0.0747
 1363TIP3    H125648   2.239   4.908   6.699  0.9029 -0.4386  0.4222
 1363TIP3    H225649   2.146   4.910   6.819 -0.0968  0.6320 -0.3517
 1364TIP3   OH225650   3.873   4.110   0.317 -0.2826  1.0601 -0.2385
 1364TIP3    H125651   3.790   4.157   0.319 -1.3934 -0.7606 -0.7901
 1364TIP3    H225652   3.864   4.042   0.384  0.5309  0.4823 -0.6914
 1365TIP3   OH225653   5.057   3.318   6.981 -0.2366 -0.1905  0.2697
 1365TIP3    H125654   5.037   3.227   6.960  0.6141 -0.1284 -0.9534
 1365TIP3    H225655   5.136   3.337   6.930  0.8459  0.6017  2.1330
 1366TIP3   OH225656   5.538   3.730   1.239  0.1539  0.4214  0.2427
 1366TIP3    H125657   5.619   3.762   1.200  0.5017 -2.1176 -1.3452
 1366TIP3    H225658   5.565   3.656   1.294 -1.0664 -0.5617 -0.4289
 1367TIP3   OH225659   6.339   1.594   7.208  0.0733  1.1580 -0.1307
 1367TIP3    H125660   6.277   1.635   7.268 -1.0771  0.3853 -0.7309
 1367TIP3    H225661   6.344   1.654   7.133 -0.4381  0.9449 -0.3442
 1368TIP3   OH225662   4.875   1.613   7.022 -0.0819 -0.0842  0.0688
 1368TIP3    H125663   4.865   1.696   6.975  1.4738  0.8968  1.3729
 1368TIP3    H225664   4.963   1.584   7.000 -0.4322 -1.1362  0.0327
 1369TIP3   OH225665   1.584   3.446   6.935  0.2134  0.1227  0.6967
 1369TIP3    H125666   1.640   3.380   6.894  1.9223  0.3372  2.5021
 1369TIP3    H225667   1.527   3.477   6.865  2.7098  0.2549 -1.4267
 1370TIP3   OH225668   5.495   5.206   0.807  0.1330 -0.4995  0.6707
 1370TIP3    H125669   5.430   5.161   0.753  1.3800 -0.9550 -0.4999
 1370TIP3    H225670   5.549   5.254   0.744  1.4020 -0.7465  1.5353
 1371TIP3   OH225671   5.113   1.730   0.495  0.5504 -0.3833 -0.1183
 1371TIP3    H125672   5.143   1.814   0.531 -0.7207  0.1638 -0.2757
 1371TIP3    H225673   5.046   1.700   0.557 -1.6606  0.5564 -1.9023
 1372TIP3   OH225674   5.151   4.717   2.490 -0.5126  0.7675 -0.3719
 1372TIP3    H125675   5.161   4.805   2.526 -4.5652  0.7010  1.4918
 1372TIP3    H225676   5.208   4.662   2.544 -0.7805  1.7601  0.9626
 1373TIP3   OH225677   0.057   5.786   8.093 -0.0423 -0.4064 -0.3749
 1373TIP3    H125678   0.033   5.842   8.020 -1.0386  0.4683  0.6046
 1373TIP3    H225679  -0.014   5.796   8.157  1.7612  0.4983  1.6314
 1374TIP3   OH225680   4.334   3.118   0.053 -0.1034  0.0471  0.2796
 1374TIP3    H125681   4.285   3.161   0.123 -0.3049  0.0795  0.1166
 1374TIP3    H225682   4.317   3.170  -0.025 -0.4421 -0.3908  0.0545
 1375TIP3   OH225683   1.599   2.435   7.960  0.6147 -0.4383  0.1774
 1375TIP3    H125684   1.602   2.340   7.970  0.3307 -0.7502 -2.1020
 1375TIP3    H225685   1.664   2.468   8.021  1.0879 -2.1335  0.6359
 1376TIP3   OH225686   4.432   1.630   1.376  0.4142  0.3319 -0.9838
 1376TIP3    H125687   4.430   1.703   1.438  0.6617  1.8116 -2.6370
 1376TIP3    H225688   4.340   1.617   1.352  0.2896 -0.4240 -0.1192
 1377TIP3   OH225689   4.379   4.742   0.941  0.0795  0.1445  0.1874
 1377TIP3    H125690   4.361   4.696   1.023 -1.3945  1.1149  0.4456
 1377TIP3    H225691   4.456   4.795   0.960  0.4843 -0.5517  0.5475
 1378TIP3   OH225692   1.992   6.870   0.848 -0.1314 -0.2541  0.0468
 1378TIP3    H125693   1.918   6.931   0.847 -1.4532 -1.7707  0.7840
 1378TIP3    H225694   1.969   6.805   0.915  0.1895 -2.7480 -2.1119
 1379TIP3   OH225695   1.370   3.443   0.050 -0.1146 -0.4030 -0.8686
 1379TIP3    H125696   1.298   3.385   0.077 -1.5225  0.7410 -1.9876
 1379TIP3    H225697   1.330   3.502  -0.014  1.5624  1.0192 -0.6712
 1380TIP3   OH225698   6.257   1.878   0.174 -0.4413 -0.2718 -0.5363
 1380TIP3    H125699   6.292   1.929   0.101  2.4730 -1.2865 -0.0053
 1380TIP3    H225700   6.280   1.929   0.252 -1.4807 -0.2847 -0.2145
 1381TIP3   OH225701   4.792   0.698   2.057  0.3388 -0.0647  0.1051
 1381TIP3    H125702   4.797   0.790   2.082 -1.4047 -0.5400  2.4882
 1381TIP3    H225703   4.778   0.651   2.139  1.5033 -2.5313 -0.9993
 1382TIP3   OH225704   1.576   0.295   0.037 -0.4550  1.0767 -0.3286
 1382TIP3    H125705   1.545   0.382   0.065 -0.0661  1.1966 -0.2733
 1382TIP3    H225706   1.668   0.293   0.063 -0.0821  1.1818 -1.6018
 1383TIP3   OH225707   6.212   2.364   6.857  0.4018  0.3195  0.2086
 1383TIP3    H125708   6.137   2.383   6.914 -0.0289  1.8645 -0.8190
 1383TIP3    H225709   6.187   2.283   6.813 -0.6981  0.8008 -0.1124
 1384TIP3   OH225710   2.640   3.212   1.555 -0.0017  0.1422 -0.0513
 1384TIP3    H125711   2.703   3.234   1.486  0.2223 -0.3866 -0.0172
 1384TIP3    H225712   2.642   3.288   1.614 -2.2845  1.9058 -2.0868
 1385TIP3   OH225713   4.903   5.081   7.804 -0.0301  0.3775 -0.2130
 1385TIP3    H125714   4.990   5.111   7.776 -0.1519 -0.8063 -2.0233
 1385TIP3    H225715   4.843   5.148   7.773 -0.1864 -1.0082 -3.2247
 1386TIP3   OH225716   5.869   2.657   6.450 -0.1027  0.0432 -0.8430
 1386TIP3    H125717   5.896   2.586   6.392  1.9448  1.0708 -1.2508
 1386TIP3    H225718   5.900   2.631   6.536 -1.3034 -0.5294 -0.5654
 1387TIP3   OH225719   5.066   6.310   7.913  0.7213  0.1286  0.3671
 1387TIP3    H125720   5.160   6.326   7.915  0.5816  1.4126 -1.3047
 1387TIP3    H225721   5.056   6.230   7.862  0.8402  0.8979 -0.8934
 1388TIP3   OH225722   1.685   0.627   7.339 -0.0801 -0.4502  0.2046
 1388TIP3    H125723   1.635   0.629   7.421 -0.8794  0.8045 -0.2837
 1388TIP3    H225724   1.648   0.698   7.287  3.9777  2.5319  0.8699
 1389TIP3   OH225725   3.781   1.697   7.392 -0.4079  0.0563 -0.1165
 1389TIP3    H125726   3.711   1.731   7.337 -2.1505 -1.0472  1.3367
 1389TIP3    H225727   3.861   1.725   7.348 -1.7254  2.1191 -1.3571
 1390TIP3   OH225728   0.189   0.232   1.273  0.3177 -0.5295 -0.3621
 1390TIP3    H125729   0.250   0.182   1.219  0.0295 -2.6522  1.1498
 1390TIP3    H225730   0.199   0.195   1.361 -0.9148  1.1969  0.5600
 1391TIP3   OH225731   6.372   5.362   2.468  0.1472  0.5600  0.1061
 1391TIP3    H125732   6.287   5.337   2.431  1.3057 -0.5578 -1.9902
 1391TIP3    H225733   6.381   5.455   2.446 -0.8689  0.9249  1.1212
 1392TIP3   OH225734   4.988   7.003   7.293 -0.0055  0.8512 -0.1987
 1392TIP3    H125735   4.901   6.989   7.329  0.3363  1.1177  0.7813
 1392TIP3    H225736   4.976   7.002   7.198 -0.9776  0.3295 -0.0823
 1393TIP3   OH225737   6.371   2.882   1.018  0.1891  0.4646 -0.2644
 1393TIP3    H125738   6.353   2.831   1.097  2.1330  0.5391  0.2969
 1393TIP3    H225739   6.380   2.972   1.049 -2.9264  1.1983 -1.2094
 1394TIP3   OH225740   4.340   1.654   7.987  0.2096 -0.2420 -0.0143
 1394TIP3    H125741   4.293   1.572   7.975  0.5586 -0.5197  0.4762
 1394TIP3    H225742   4.412   1.650   7.924 -0.2296  0.0423 -0.5419
 1395TIP3   OH225743   2.240   4.896   0.312 -0.2079  0.6961 -0.4009
 1395TIP3    H125744   2.231   4.943   0.229  0.1239 -2.8370 -2.6640
 1395TIP3    H225745   2.302   4.826   0.293 -3.7608 -3.3168  1.1939
 1396TIP3   OH225746   3.025   3.795   1.798 -0.2728 -0.2960 -0.4502
 1396TIP3    H125747   3.057   3.864   1.740 -1.1237  0.1218 -0.4305
 1396TIP3    H225748   2.961   3.838   1.855  0.2312 -0.7940  0.5188
 1397TIP3   OH225749   3.635   2.837   8.310 -0.0872 -0.3792 -0.6880
 1397TIP3    H125750   3.614   2.928   8.330  1.3885 -0.1062 -0.2951
 1397TIP3    H225751   3.717   2.820   8.356  0.0007 -1.7108 -1.2843
 1398TIP3   OH225752   0.695   2.817   1.585 -0.0751  0.1840  0.4729
 1398TIP3    H125753   0.737   2.732   1.596  1.0579  0.9609  2.9627
 1398TIP3    H225754   0.651   2.812   1.501  0.0702 -2.7968  0.4820
 1399TIP3   OH225755   0.839   1.849   0.267 -0.3841 -0.1362 -0.3190
 1399TIP3    H125756   0.813   1.839   0.175 -3.6293  0.4160  0.4475
 1399TIP3    H225757   0.776   1.798   0.316  1.6714 -0.9417  1.6575
 1400TIP3   OH225758   4.068   0.960   0.823  0.5525 -0.1877 -0.6073
 1400TIP3    H125759   4.038   0.899   0.756  0.7378  0.6596 -1.4880
 1400TIP3    H225760   4.005   1.032   0.819  0.7175 -0.0110 -0.0534
 1401TIP3   OH225761   3.273   2.888   0.401 -0.0859  0.0839  0.3411
 1401TIP3    H125762   3.309   2.802   0.422  1.1795  0.0662 -1.7097
 1401TIP3    H225763   3.260   2.887   0.306 -0.4002  2.0356  0.3143
 1402TIP3   OH225764   4.717   0.248   1.943 -0.4185 -0.0487  0.4711
 1402TIP3    H125765   4.720   0.336   1.906  0.6357 -0.9201 -1.7501
 1402TIP3    H225766   4.744   0.259   2.034 -0.5737  1.9356  0.3221
 1403TIP3   OH225767   2.195   6.496   1.036 -0.7471  0.1069  0.3120
 1403TIP3    H125768   2.118   6.521   0.984  0.1426  0.3139 -0.9567
 1403TIP3    H225769   2.226   6.415   0.995 -1.8787 -1.5863  2.5529
 1404TIP3   OH225770   5.825   5.425   0.195  0.3435  0.4117 -0.0577
 1404TIP3    H125771   5.757   5.483   0.229 -0.0886 -0.4015  0.4962
 1404TIP3    H225772   5.906   5.459   0.232  0.0026  0.1904  0.9109
 1405TIP3   OH225773   1.467   5.711   1.822 -0.1220 -0.0173  0.3585
 1405TIP3    H125774   1.440   5.755   1.903  0.2899  0.3485  0.3013
 1405TIP3    H225775   1.411   5.749   1.754 -0.7760 -0.6507  0.5435
 1406TIP3   OH225776   2.659   3.699   0.406  0.0928  0.1680  0.2990
 1406TIP3    H125777   2.662   3.603   0.404 -0.8794  0.1407 -0.7061
 1406TIP3    H225778   2.726   3.726   0.343 -0.2598  0.1277 -0.0957
 1407TIP3   OH225779   3.701   3.909   2.418 -0.8055 -0.7523  0.4119
 1407TIP3    H125780   3.785   3.928   2.377 -0.1434 -1.4866  1.3735
 1407TIP3    H225781   3.724   3.864   2.500 -2.1120 -0.4288  0.9837
 1408TIP3   OH225782   4.685   4.138   0.909  0.0536  0.2970  0.0796
 1408TIP3    H125783   4.700   4.083   0.986 -0.6099 -0.0333 -0.0157
 1408TIP3    H225784   4.772   4.162   0.879  0.3256  0.3154  0.8533
 1409TIP3   OH225785   0.571   6.893   1.265  0.7109 -0.0525 -0.2287
 1409TIP3    H125786   0.601   6.982   1.285  1.3617 -0.5796  1.2692
 1409TIP3    H225787   0.628   6.865   1.193  0.6247  0.6559 -0.5892
 1410TIP3   OH225788   2.843   1.444   1.573  0.5801  0.4984  0.9363
 1410TIP3    H125789   2.866   1.395   1.652  0.0438 -0.2810  0.6283
 1410TIP3    H225790   2.905   1.517   1.570  1.9972 -0.6683  0.9271
 1411TIP3   OH225791   3.544   2.437   7.088 -0.0524 -0.0404  0.1592
 1411TIP3    H125792   3.525   2.450   6.995 -2.0754  1.4726  0.6996
 1411TIP3    H225793   3.570   2.524   7.119  1.7872 -0.7794  0.7988
 1412TIP3   OH225794   2.112   0.983   7.939  0.2789 -0.1077 -0.4407
 1412TIP3    H125795   2.203   0.954   7.939  0.1963 -0.3712  0.0010
 1412TIP3    H225796   2.116   1.077   7.958  0.3493 -0.5196  1.8213
 1413TIP3   OH225797   4.106   3.961   6.739  0.3517 -0.1322  1.2096
 1413TIP3    H125798   4.170   3.901   6.778  1.0548  1.2386  2.2696
 1413TIP3    H225799   4.153   4.003   6.666  0.8834  1.2163  2.2742
 1414TIP3   OH225800   3.483   3.532   7.864 -0.4186 -0.0517  0.3469
 1414TIP3    H125801   3.485   3.496   7.775 -0.5490 -0.1962  0.4030
 1414TIP3    H225802   3.512   3.623   7.853  0.7910 -0.4113  0.3244
 1415TIP3   OH225803   3.789   3.182   1.726  0.1468  0.0345 -0.4087
 1415TIP3    H125804   3.744   3.237   1.791 -0.6797 -1.2302  0.1311
 1415TIP3    H225805   3.834   3.245   1.669 -1.3757  1.3176 -0.2803
 1416TIP3   OH225806   1.714   6.208   8.328  0.6463  0.1044  0.0482
 1416TIP3    H125807   1.689   6.273   8.262 -0.0094 -1.0769 -0.9062
 1416TIP3    H225808   1.636   6.153   8.338  0.6718  0.3549  1.9512
 1417TIP3   OH225809   2.806   5.616   1.801  0.3583  0.1931  0.3250
 1417TIP3    H125810   2.843   5.688   1.750  0.3385  0.8163  1.1815
 1417TIP3    H225811   2.872   5.597   1.868 -0.2585  0.3852  1.0013
 1418TIP3   OH225812   5.349   3.013   7.748  0.0713  0.2268 -0.1083
 1418TIP3    H125813   5.422   3.074   7.755  0.8355 -0.4892 -1.3846
 1418TIP3    H225814   5.343   2.992   7.655 -0.6047 -1.1133  0.1993
 1419TIP3   OH225815   2.624   3.076   7.587  0.1652  0.1712 -0.0842
 1419TIP3    H125816   2.596   2.984   7.588  0.9418 -0.0854 -0.8428
 1419TIP3    H225817   2.682   3.083   7.663  0.4755 -0.0913 -0.2925
 1420TIP3   OH225818   5.795   6.043   7.448 -0.4104  0.5435 -1.0897
 1420TIP3    H125819   5.785   6.131   7.411 -0.1521  0.5865 -1.0581
 1420TIP3    H225820   5.849   5.997   7.384  2.2946  1.3872  0.4359
 1421TIP3   OH225821   2.139   3.319   0.145 -0.5610 -0.1666  0.3123
 1421TIP3    H125822   2.177   3.321   0.233 -3.3214 -0.0462  1.6106
 1421TIP3    H225823   2.144   3.410   0.114  1.9215 -0.4839 -0.4534
 1422TIP3   OH225824   0.897   3.377   0.611 -0.1667  0.5218 -0.2523
 1422TIP3    H125825   0.953   3.395   0.686 -1.3951  0.6502  0.6572
 1422TIP3    H225826   0.941   3.305   0.565  1.1703  1.1836 -0.0411
 1423TIP3   OH225827   2.069   4.962   7.015  0.2170  0.2126  0.3746
 1423TIP3    H125828   2.001   5.029   7.007  1.6083  1.7233  0.8223
 1423TIP3    H225829   2.054   4.922   7.101 -1.6829 -1.3451 -0.5835
 1424TIP3   OH225830   0.322   0.112   7.867 -0.8006  0.3685 -0.5281
 1424TIP3    H125831   0.249   0.053   7.889 -0.3219 -0.1921 -0.4140
 1424TIP3    H225832   0.282   0.199   7.863 -1.4651  0.0772 -0.4068
 1425TIP3   OH225833   4.293   3.003   1.988  0.8059  0.2558  0.4443
 1425TIP3    H125834   4.349   3.024   2.063  0.7433  1.5271  0.1567
 1425TIP3    H225835   4.312   3.072   1.924 -1.1382  0.7831  0.3789
 1426TIP3   OH225836   1.668   3.631   7.791 -0.0196 -0.1555  0.2788
 1426TIP3    H125837   1.639   3.633   7.699  0.3218  0.0437  0.1753
 1426TIP3    H225838   1.668   3.538   7.813  1.8763 -0.3999 -0.5600
 1427TIP3   OH225839   2.520   0.064   8.007 -0.2918  0.1062  0.1806
 1427TIP3    H125840   2.425   0.067   8.023 -0.1180  1.1090  1.0766
 1427TIP3    H225841   2.542   0.152   7.978  0.3640 -0.1347 -0.0509
 1428TIP3   OH225842   5.465   1.767   2.424 -0.0916  0.2513 -0.0813
 1428TIP3    H125843   5.410   1.837   2.459  0.1584  0.6634 -0.5005
 1428TIP3    H225844   5.511   1.732   2.500 -1.1722 -0.3348  0.3393
 1429TIP3   OH225845   0.263   5.106   7.307 -0.3678 -0.6602 -0.2165
 1429TIP3    H125846   0.332   5.123   7.371 -0.4691 -0.6644 -0.1048
 1429TIP3    H225847   0.307   5.061   7.235  0.1084  0.9335 -0.9705
 1430TIP3   OH225848   0.576   4.566   6.413  0.3025  0.3771 -0.4332
 1430TIP3    H125849   0.669   4.550   6.432  0.3923  0.0867 -1.1134
 1430TIP3    H225850   0.555   4.645   6.464  0.6628 -0.1128  0.5015
 1431TIP3   OH225851   4.775   6.364   1.731  0.4561 -0.5163 -0.5341
 1431TIP3    H125852   4.720   6.288   1.715  0.3403 -0.2116 -1.6927
 1431TIP3    H225853   4.853   6.349   1.677  1.1472 -0.5554  0.4532
 1432TIP3   OH225854   3.128   2.533   1.324  0.1438  0.0301 -0.2292
 1432TIP3    H125855   3.049   2.540   1.270 -0.5573 -2.6948  0.2823
 1432TIP3    H225856   3.182   2.468   1.281  1.7922  1.2308 -0.0994
 1433TIP3   OH225857   2.847   3.809   8.202  0.3806 -0.4205 -0.2833
 1433TIP3    H125858   2.837   3.722   8.162  0.8349 -1.3927  1.6205
 1433TIP3    H225859   2.863   3.867   8.128 -1.7150 -1.6395 -1.8018
 1434TIP3   OH225860   2.730   6.084   0.947 -0.3337 -0.2197  0.6526
 1434TIP3    H125861   2.691   6.030   1.016 -1.1509  0.2054  0.5409
 1434TIP3    H225862   2.809   6.037   0.922 -0.1047 -0.4632  1.7646
 1435TIP3   OH225863   1.997   1.264   7.732 -0.4763  0.2240 -0.4087
 1435TIP3    H125864   2.052   1.250   7.810  0.0753 -1.5979 -1.0614
 1435TIP3    H225865   1.997   1.359   7.720 -1.1859  0.6481  2.2169
 1436TIP3   OH225866   4.955   3.521   7.152  0.3644  0.0269 -0.9238
 1436TIP3    H125867   4.861   3.521   7.131 -0.1216 -0.0458  1.0119
 1436TIP3    H225868   4.988   3.440   7.113 -0.1632  0.5021 -2.4161
 1437TIP3   OH225869   6.147   0.691   1.591 -0.7031 -0.3305 -0.4528
 1437TIP3    H125870   6.133   0.738   1.673  1.3141 -1.7799  0.8229
 1437TIP3    H225871   6.144   0.759   1.524 -0.9955  1.1274  0.9572
 1438TIP3   OH225872   6.662   0.964   0.500 -0.2763 -0.3853 -0.0340
 1438TIP3    H125873   6.693   0.995   0.585  0.7165 -0.7488 -0.2515
 1438TIP3    H225874   6.665   1.042   0.444 -0.2427 -0.3021  0.0845
 1439TIP3   OH225875   1.927   1.880   6.499  0.2271 -0.0206 -0.2935
 1439TIP3    H125876   1.986   1.943   6.459  2.3333 -2.1812 -0.8276
 1439TIP3    H225877   1.975   1.847   6.575 -0.6100 -1.3007 -0.2866
 1440TIP3   OH225878   3.120   5.394   7.896  0.0407 -0.5010  0.0984
 1440TIP3    H125879   3.123   5.362   7.806  2.2829  0.6114 -0.3002
 1440TIP3    H225880   3.028   5.389   7.921 -0.4739 -1.8512 -1.8643
 1441TIP3   OH225881   0.316   2.525   1.111  0.4037 -0.2501 -0.2014
 1441TIP3    H125882   0.257   2.513   1.187  1.0601  1.5456  0.6419
 1441TIP3    H225883   0.402   2.538   1.150  1.1056 -1.2129 -1.3716
 1442TIP3   OH225884   0.257   1.634   2.011 -0.2207  0.6469  0.1820
 1442TIP3    H125885   0.290   1.692   1.943  2.0132 -0.2579  0.4009
 1442TIP3    H225886   0.318   1.646   2.084 -0.1591 -1.3612  0.5146
 1443TIP3   OH225887   1.109   1.099   8.116  0.4978  0.3618 -0.3473
 1443TIP3    H125888   1.089   1.072   8.027  0.6539 -1.1571  0.0558
 1443TIP3    H225889   1.037   1.064   8.169  0.5079  1.0738  0.1550
 1444TIP3   OH225890   4.617   3.415   8.119  0.2692 -0.1566  0.9951
 1444TIP3    H125891   4.522   3.417   8.116  0.2882 -0.5356  0.0258
 1444TIP3    H225892   4.638   3.362   8.196 -0.3051 -1.1236  0.4943
 1445TIP3   OH225893   4.821   1.030   0.645  0.4122  0.8073 -0.1493
 1445TIP3    H125894   4.879   0.971   0.597  0.4503  0.4737  0.2940
 1445TIP3    H225895   4.879   1.099   0.678  0.9269 -0.4730  1.8303
 1446TIP3   OH225896   3.347   2.913   7.620 -0.2176  0.5955  0.2316
 1446TIP3    H125897   3.275   2.857   7.649  0.8793 -0.7225  0.4830
 1446TIP3    H225898   3.368   2.881   7.532  0.8785  0.1143  0.6480
 1447TIP3   OH225899   1.534   1.724   8.126  0.3975 -0.2257  0.6701
 1447TIP3    H125900   1.470   1.693   8.062  1.3349  0.0917 -0.4374
 1447TIP3    H225901   1.559   1.811   8.095  0.2190  0.3233  1.9644
 1448TIP3   OH225902   5.319   3.266   2.381 -0.2267 -0.6042 -0.0447
 1448TIP3    H125903   5.372   3.321   2.439 -1.0820  0.5783 -0.3528
 1448TIP3    H225904   5.379   3.196   2.353  0.8662  0.1183  0.4184
 1449TIP3   OH225905   5.622   4.533   1.741 -0.2020  0.2325  0.7348
 1449TIP3    H125906   5.715   4.545   1.760  0.1110  0.7566 -0.9918
 1449TIP3    H225907   5.604   4.441   1.762  1.1675 -0.3899 -0.6392
 1450TIP3   OH225908   6.815   4.681   7.597 -0.6426 -0.2360 -0.6937
 1450TIP3    H125909   6.845   4.769   7.575  1.3572 -0.4185  1.0275
 1450TIP3    H225910   6.875   4.622   7.550 -0.2086 -0.6358  0.3291
 1451TIP3   OH225911   5.978   0.895   6.456 -0.1655  0.0553 -0.3815
 1451TIP3    H125912   5.913   0.966   6.465 -1.7009 -1.0048 -2.4223
 1451TIP3    H225913   6.049   0.935   6.406 -0.5342  0.4629 -0.5962
 1452TIP3   OH225914   5.898   3.841   1.423  0.3510 -0.5981  0.3192
 1452TIP3    H125915   5.929   3.752   1.442 -1.2432 -1.2822 -0.1134
 1452TIP3    H225916   5.846   3.865   1.500 -1.6517 -1.2414 -0.7671
 1453TIP3   OH225917   4.053   5.512   1.888  0.4475 -0.0245 -0.6990
 1453TIP3    H125918   4.061   5.478   1.977 -0.0296 -0.3714 -0.7841
 1453TIP3    H225919   3.970   5.476   1.856 -0.2240  1.4375 -0.7038
 1454TIP3   OH225920   4.387   3.694   0.040 -0.2299 -0.6419 -0.0849
 1454TIP3    H125921   4.482   3.693   0.031 -0.2654 -1.5852 -0.5012
 1454TIP3    H225922   4.364   3.604   0.062 -1.0241 -0.4168  0.0307
 1455TIP3   OH225923   2.785   1.394   0.337  0.1938  0.4535 -0.1681
 1455TIP3    H125924   2.767   1.436   0.422 -2.5477 -0.1460 -0.3381
 1455TIP3    H225925   2.823   1.464   0.283 -1.3886  1.9126  0.4872
 1456TIP3   OH225926   4.707   6.484   1.185 -0.0421  0.9265 -0.0118
 1456TIP3    H125927   4.665   6.409   1.226  0.0262  1.2256  0.6130
 1456TIP3    H225928   4.647   6.510   1.115  0.6463 -0.6433 -1.2568
 1457TIP3   OH225929   1.538   1.865   0.275 -0.1673  0.5032 -0.6575
 1457TIP3    H125930   1.462   1.890   0.326 -0.5689  0.0177 -1.0050
 1457TIP3    H225931   1.503   1.814   0.202  0.6269 -1.8177  0.4695
 1458TIP3   OH225932   1.672   6.363   0.939  0.8918  0.6679  0.6527
 1458TIP3    H125933   1.614   6.345   0.865  1.8679 -1.4851  0.3214
 1458TIP3    H225934   1.753   6.393   0.898  0.8272  1.2879  0.9716
 1459TIP3   OH225935   0.191   5.619   0.511 -0.3611 -0.5400 -0.2300
 1459TIP3    H125936   0.098   5.626   0.533 -0.5303  0.0538 -1.0878
 1459TIP3    H225937   0.211   5.700   0.464  0.8941 -0.1015  0.9867
 1460TIP3   OH225938   2.441   3.238   1.368  0.1697  0.0376 -0.3478
 1460TIP3    H125939   2.404   3.323   1.393 -0.1758 -0.3696  0.5622
 1460TIP3    H225940   2.496   3.213   1.442  2.3476  0.6183 -1.6451
 1461TIP3   OH225941   2.705   2.163   7.186  0.2899 -0.3708 -0.2095
 1461TIP3    H125942   2.716   2.231   7.253 -1.5591 -1.8416  1.7275
 1461TIP3    H225943   2.641   2.199   7.125  0.9461  0.4273 -0.4607
 1462TIP3   OH225944   5.998   6.305   6.431  0.2010  0.1112  0.4971
 1462TIP3    H125945   6.013   6.390   6.391  1.3310  0.2295  1.1324
 1462TIP3    H225946   5.937   6.323   6.503  1.0708  0.5506  1.1493
 1463TIP3   OH225947   1.227   5.496   1.716  1.2313 -0.2548  0.5334
 1463TIP3    H125948   1.236   5.578   1.764  1.4995  1.3960 -2.1479
 1463TIP3    H225949   1.316   5.461   1.712  1.7890  1.1763 -1.2061
 1464TIP3   OH225950   5.539   3.706   2.434  0.1762 -0.4737 -0.0157
 1464TIP3    H125951   5.593   3.776   2.398  1.3750 -0.2265  2.0712
 1464TIP3    H225952   5.462   3.750   2.468 -0.5278 -0.5962 -1.3978
 1465TIP3   OH225953   2.856   0.959   2.777 -0.4095 -0.3856  0.7447
 1465TIP3    H125954   2.772   0.975   2.732 -0.3723  3.3679  1.6275
 1465TIP3    H225955   2.831   0.917   2.859 -1.2236 -0.8806  0.2650
 1466TIP3   OH225956   5.341   2.963   0.088  0.0459  0.1211 -0.0497
 1466TIP3    H125957   5.429   2.931   0.072  0.1224 -0.5902  1.6300
 1466TIP3    H225958   5.351   3.058   0.094  0.4774  0.1511 -1.0107
 1467TIP3   OH225959   6.601   2.523   0.390 -0.1974 -0.1177  0.3056
 1467TIP3    H125960   6.639   2.566   0.467  2.9881 -0.8912 -0.6636
 1467TIP3    H225961   6.551   2.450   0.426 -0.0825  0.4356  1.6839
 1468TIP3   OH225962   5.187   2.656   6.924 -0.6900 -0.5990  0.0921
 1468TIP3    H125963   5.162   2.740   6.885  1.9485  0.0343 -0.3777
 1468TIP3    H225964   5.138   2.592   6.873  1.3712  0.3190 -3.3901
 1469TIP3   OH225965   1.319   0.129   0.259 -0.0772 -1.0847 -0.0408
 1469TIP3    H125966   1.259   0.094   0.193  2.0860 -3.1985 -1.0670
 1469TIP3    H225967   1.405   0.096   0.232  1.2534  0.0240  2.5237
 1470TIP3   OH225968   0.942   4.107   7.990  0.3104 -0.6082  0.0298
 1470TIP3    H125969   0.874   4.097   7.924  1.3964  0.3162 -1.2947
 1470TIP3    H225970   0.981   4.192   7.972  1.1934 -0.6989  1.3455
 1471TIP3   OH225971   0.193   4.073   7.808  0.1431  0.1588  0.1258
 1471TIP3    H125972   0.222   4.110   7.724  1.2464  0.8025  0.7659
 1471TIP3    H225973   0.131   4.138   7.842  1.8879  1.3871  1.1296
 1472TIP3   OH225974   4.418   0.412   1.599  0.2781  1.0981 -0.1982
 1472TIP3    H125975   4.433   0.432   1.691  0.6527 -0.2497  0.0428
 1472TIP3    H225976   4.502   0.381   1.566 -0.4671 -0.9744 -0.2970
 1473TIP3   OH225977   3.574   5.838   0.796  0.0378  0.2585  0.0605
 1473TIP3    H125978   3.600   5.926   0.823  1.0061  0.1488 -0.4587
 1473TIP3    H225979   3.514   5.851   0.722  3.6710  0.5376 -3.1556
 1474TIP3   OH225980   2.685   1.511   8.257  0.4156  0.8278  0.1052
 1474TIP3    H125981   2.742   1.500   8.182  1.6478  2.1450  0.7839
 1474TIP3    H225982   2.606   1.460   8.237  1.3531 -0.0824 -1.3652
 1475TIP3   OH225983   0.973   5.989   1.456  0.6568 -0.5581 -0.1645
 1475TIP3    H125984   1.026   5.953   1.384 -1.1048 -1.0275 -1.2773
 1475TIP3    H225985   0.907   6.042   1.413 -0.1698 -0.4929  1.1479
 1476TIP3   OH225986   1.995   0.166   0.216 -0.5247  0.0017  0.1550
 1476TIP3    H125987   2.081   0.183   0.255  0.3210  1.9395 -2.2903
 1476TIP3    H225988   1.996   0.073   0.196  2.4601  0.4677 -2.7147
 1477TIP3   OH225989   2.228   1.457   1.345  0.2920 -0.0349  0.3863
 1477TIP3    H125990   2.253   1.549   1.349  0.3802 -0.0513  0.2323
 1477TIP3    H225991   2.156   1.449   1.407 -0.2623  0.3137 -0.1913
 1478TIP3   OH225992   0.700   2.664   7.943 -0.1715 -0.1269 -0.2152
 1478TIP3    H125993   0.788   2.641   7.912 -0.1986  0.0855 -0.4527
 1478TIP3    H225994   0.708   2.753   7.975 -0.0575 -0.4792  0.7559
 1479TIP3   OH225995   5.547   6.185   2.253 -0.2680 -0.1729 -0.3406
 1479TIP3    H125996   5.522   6.099   2.286  0.4652 -0.4679 -0.5456
 1479TIP3    H225997   5.612   6.217   2.316 -0.5315  0.2370 -0.2683
 1480TIP3   OH225998   6.434   6.995   7.175  0.0849 -0.0242  0.1444
 1480TIP3    H125999   6.485   7.012   7.255  1.6672  0.5437 -0.9465
 1480TIP3    H226000   6.486   6.931   7.126 -1.3026 -1.0460 -0.0630
 1481TIP3   OH226001   3.630   5.571   8.275  0.3842 -0.3881 -0.5403
 1481TIP3    H126002   3.699   5.525   8.227  1.1965 -1.4809  1.5685
 1481TIP3    H226003   3.571   5.502   8.305  1.5620 -0.1769  2.6049
 1482TIP3   OH226004   5.160   5.776   7.319  0.0533  0.0933  0.0663
 1482TIP3    H126005   5.120   5.708   7.374  1.8487 -0.0744  1.2402
 1482TIP3    H226006   5.185   5.729   7.239  0.8685 -0.5445  0.6819
 1483TIP3   OH226007   6.913   0.012   1.369  0.1144 -0.0257 -0.4903
 1483TIP3    H126008   6.997  -0.033   1.364 -0.8007 -1.6931 -2.2505
 1483TIP3    H226009   6.918   0.078   1.299  0.0491  0.0534 -0.4198
 1484TIP3   OH226010   5.138   0.808   2.085 -0.2113  0.5762 -0.0912
 1484TIP3    H126011   5.170   0.887   2.127  1.4950 -0.1909  0.1391
 1484TIP3    H226012   5.093   0.759   2.154  0.1927  0.5806  0.1742
 1485TIP3   OH226013   6.907   0.469   0.912 -0.5672 -0.0795 -0.4245
 1485TIP3    H126014   6.962   0.543   0.887 -1.9059  0.7704 -0.9433
 1485TIP3    H226015   6.862   0.498   0.991 -1.3437 -0.2011 -0.8117
 1486TIP3   OH226016   3.233   4.918   2.650  0.4500  0.3036 -0.0875
 1486TIP3    H126017   3.230   4.989   2.713  1.3905  1.1099 -0.9146
 1486TIP3    H226018   3.167   4.941   2.585 -0.5762 -0.5675  0.6189
 1487TIP3   OH226019   2.469   5.957   8.170 -0.1272  0.3864 -0.0699
 1487TIP3    H126020   2.459   5.880   8.226 -2.5924  1.1840  0.6845
 1487TIP3    H226021   2.382   5.997   8.167  1.0958  3.2902 -0.2396
 1488TIP3   OH226022   3.768   1.902   0.240 -0.0803 -0.0173 -0.2093
 1488TIP3    H126023   3.783   1.922   0.148 -0.0737  0.6562 -0.0672
 1488TIP3    H226024   3.805   1.815   0.252  3.9060  1.4864  0.1026
 1489TIP3   OH226025   3.139   2.552   0.230  0.4165  0.3673  0.6638
 1489TIP3    H126026   3.219   2.522   0.188  0.0267  1.0222 -0.5849
 1489TIP3    H226027   3.170   2.609   0.301  1.0720 -0.3463  0.9612
 1490TIP3   OH226028   0.431   4.256   0.331  0.2272  0.3990  0.3074
 1490TIP3    H126029   0.448   4.172   0.373  0.1283  0.2270 -0.0003
 1490TIP3    H226030   0.392   4.234   0.247 -2.5592  0.7556  1.3779
 1491TIP3   OH226031   4.454   2.008   8.338  0.2039 -0.2474 -0.1985
 1491TIP3    H126032   4.427   2.043   8.423 -0.8744  0.4477 -0.8091
 1491TIP3    H226033   4.514   2.074   8.303  0.0517 -0.1642 -0.3043
 1492TIP3   OH226034   4.162   5.138   7.792  0.2230  0.3437 -0.1175
 1492TIP3    H126035   4.203   5.083   7.726  0.9497  0.7172  0.0184
 1492TIP3    H226036   4.119   5.208   7.742 -0.4152 -0.1391 -0.2683
 1493TIP3   OH226037   4.750   4.721   1.762  0.3409 -0.1212  0.2677
 1493TIP3    H126038   4.763   4.729   1.667  0.6022 -1.7726  0.1431
 1493TIP3    H226039   4.815   4.657   1.790  0.4941  0.5924  1.6404
 1494TIP3   OH226040   5.072   5.093   8.114 -0.4302  0.2142 -0.4951
 1494TIP3    H126041   5.079   4.999   8.095 -0.4529  0.6576 -3.0682
 1494TIP3    H226042   5.144   5.111   8.173 -0.6743 -1.4936  0.3862
 1495TIP3   OH226043   5.548   0.952   0.010 -0.6999  0.4127  0.1212
 1495TIP3    H126044   5.615   0.949   0.078 -1.0967 -2.9981  0.5506
 1495TIP3    H226045   5.478   1.005   0.047 -0.5000 -0.5769  2.0529
 1496TIP3   OH226046   3.790   5.437   1.764  0.2767  0.0825 -0.0125
 1496TIP3    H126047   3.770   5.434   1.670  2.1608  0.1461 -0.4576
 1496TIP3    H226048   3.732   5.505   1.799  0.0295  0.5489 -1.2703
 1497TIP3   OH226049   0.351   5.672   7.950 -0.4470  0.1958  0.3140
 1497TIP3    H126050   0.442   5.676   7.923 -0.5645  1.2443 -0.0100
 1497TIP3    H226051   0.342   5.590   7.997  0.3450 -0.5579 -0.7995
 1498TIP3   OH226052   5.161   6.284   0.559  0.7641  0.1707  0.2827
 1498TIP3    H126053   5.222   6.309   0.628  0.6107  1.0604  0.1140
 1498TIP3    H226054   5.100   6.224   0.601 -0.5970  2.2961  1.5260
 1499TIP3   OH226055   0.715   2.344   7.632 -0.6412 -0.1116  0.2130
 1499TIP3    H126056   0.658   2.284   7.584 -1.3912  0.4166  0.4227
 1499TIP3    H226057   0.667   2.427   7.634  0.1809  0.3781  0.3150
 1500TIP3   OH226058   4.899   5.989   8.324 -0.3898 -0.3244 -0.3173
 1500TIP3    H126059   4.822   6.040   8.347 -0.4970 -0.5033 -0.2774
 1500TIP3    H226060   4.964   6.013   8.390 -0.6088 -0.6311  0.0110
 1501TIP3   OH226061   3.413   2.177   1.535  0.2752  0.6481 -0.1972
 1501TIP3    H126062   3.458   2.174   1.450 -1.3740 -0.0212 -1.0807
 1501TIP3    H226063   3.323   2.150   1.516  0.3847 -1.7645  2.1015
 1502TIP3   OH226064   2.143   4.734   2.202  0.0013  0.2888  0.1702
 1502TIP3    H126065   2.202   4.712   2.275  0.2247  0.4546  0.0394
 1502TIP3    H226066   2.147   4.657   2.144 -0.3518  0.0592  0.4403
 1503TIP3   OH226067   4.601   2.725   0.944 -0.3022  0.5480 -0.3025
 1503TIP3    H126068   4.560   2.726   1.030  0.0833 -1.5843 -0.0310
 1503TIP3    H226069   4.590   2.814   0.910 -1.0085  1.2525  1.6736
 1504TIP3   OH226070   2.992   1.740   1.959 -0.2125 -0.0422  0.1135
 1504TIP3    H126071   2.933   1.683   1.911  0.2403 -1.0640  0.7256
 1504TIP3    H226072   3.034   1.794   1.892  0.7728 -1.7582 -0.7331
 1505TIP3   OH226073   3.443   4.014   6.761 -0.0674 -0.0067 -0.2071
 1505TIP3    H126074   3.453   4.089   6.703  0.1674  0.0979 -0.0317
 1505TIP3    H226075   3.418   3.942   6.703  0.4582  0.0230 -0.4775
 1506TIP3   OH226076   3.673   3.578   8.181  0.1904  0.2581  0.3079
 1506TIP3    H126077   3.718   3.662   8.178 -0.0799  0.5009  2.0879
 1506TIP3    H226078   3.584   3.599   8.210  0.5244 -0.7501  2.2083
 1507TIP3   OH226079   2.693   4.799   8.018 -0.1128 -0.1729  0.5468
 1507TIP3    H126080   2.733   4.866   8.074  2.3958 -0.6360 -0.5353
 1507TIP3    H226081   2.727   4.818   7.931 -0.1457 -2.2325  0.0332
 1508TIP3   OH226082   1.692   1.993   0.099 -0.4629 -0.2086  0.4574
 1508TIP3    H126083   1.668   1.987   0.191  0.1200 -0.9669  0.5590
 1508TIP3    H226084   1.611   1.972   0.052 -0.7123 -0.0027  0.7912
 1509TIP3   OH226085   2.764   4.650   7.408  0.5843  0.3055  0.2912
 1509TIP3    H126086   2.748   4.564   7.368 -0.2275 -0.2315  1.6632
 1509TIP3    H226087   2.812   4.629   7.488 -3.0575  0.5817  2.8094
 1510TIP3   OH226088   4.175   0.596   1.893  0.2106  0.1034  0.2146
 1510TIP3    H126089   4.252   0.553   1.856  0.7945  0.2570  1.2231
 1510TIP3    H226090   4.102   0.542   1.863  0.5541  0.6683 -1.8114
 1511TIP3   OH226091   5.287   6.560   7.383 -0.2691  0.0981  0.1637
 1511TIP3    H126092   5.208   6.598   7.422 -0.9801  0.6089 -1.6989
 1511TIP3    H226093   5.257   6.518   7.303  1.0163 -1.7340  0.5714
 1512TIP3   OH226094   6.669   4.231   1.707  0.0493  0.6834 -0.0541
 1512TIP3    H126095   6.685   4.320   1.739  0.7503  1.0161 -1.2634
 1512TIP3    H226096   6.719   4.225   1.626 -1.9232 -0.0101 -1.2920
 1513TIP3   OH226097   5.065   4.849   7.871 -0.0601 -0.1419  0.0044
 1513TIP3    H126098   5.042   4.800   7.792 -1.7589 -0.1598  0.4628
 1513TIP3    H226099   5.023   4.935   7.860  0.0174 -0.0036  0.6976
 1514TIP3   OH226100   5.325   0.966   7.482 -0.0993 -0.1727 -0.1255
 1514TIP3    H126101   5.353   1.011   7.562  0.4057 -2.2831  0.9411
 1514TIP3    H226102   5.404   0.963   7.428 -0.0609 -0.0072 -0.0792
 1515TIP3   OH226103   2.218   5.997   0.357  0.2067  0.5948 -0.5401
 1515TIP3    H126104   2.129   5.969   0.334  0.6071 -0.2345 -1.1489
 1515TIP3    H226105   2.207   6.084   0.394 -0.8916  0.3856 -0.3389
 1516TIP3   OH226106   4.077   1.088   8.316 -0.1336 -0.6429 -0.0383
 1516TIP3    H126107   4.087   1.183   8.312 -2.2064 -0.2230  2.2737
 1516TIP3    H226108   4.093   1.066   8.407 -1.6167 -2.2242 -0.1122
 1517TIP3   OH226109   1.216   0.827   2.454  0.4568 -0.5794 -0.6464
 1517TIP3    H126110   1.174   0.829   2.367  1.1526 -1.8138 -1.0258
 1517TIP3    H226111   1.305   0.858   2.438  0.6222 -0.9225 -0.3969
 1518TIP3   OH226112   6.058   0.517   0.378 -0.3192  0.7249 -0.1955
 1518TIP3    H126113   5.983   0.534   0.434  0.3251 -0.6934  1.1627
 1518TIP3    H226114   6.066   0.422   0.377  1.9116  0.8691  0.3082
 1519TIP3   OH226115   4.208   2.123   8.358 -0.3235  0.1647 -0.1351
 1519TIP3    H126116   4.283   2.129   8.299 -0.3379 -0.9329 -0.2775
 1519TIP3    H226117   4.241   2.082   8.437 -0.4063  1.2330  0.4713
 1520TIP3   OH226118   2.042   4.613   1.262 -0.2491 -0.3327 -0.4467
 1520TIP3    H126119   2.061   4.696   1.220 -0.9902 -0.8197 -1.7811
 1520TIP3    H226120   1.987   4.636   1.337  1.1958  0.5480  0.3990
 1521TIP3   OH226121   1.855   3.144   7.681 -0.3304 -0.2590 -0.7613
 1521TIP3    H126122   1.882   3.054   7.669 -1.5269 -0.9213  1.0547
 1521TIP3    H226123   1.919   3.196   7.633  1.4220 -1.9676 -0.3514
 1522TIP3   OH226124   5.722   2.481   2.600  0.4625 -0.0420 -0.0593
 1522TIP3    H126125   5.763   2.560   2.636  0.0760  0.3654 -0.4884
 1522TIP3    H226126   5.794   2.422   2.583  0.8490  0.5554 -0.5383
 1523TIP3   OH226127   1.893   5.283   8.255 -0.5927 -0.7019 -0.1156
 1523TIP3    H126128   1.977   5.323   8.232 -0.2216 -1.6994 -0.5440
 1523TIP3    H226129   1.828   5.342   8.217 -0.1891  1.1175  1.8396
 1524TIP3   OH226130   1.516   3.716   7.558 -0.0336  0.4424  0.1850
 1524TIP3    H126131   1.526   3.669   7.475  1.7709  1.5955 -0.3117
 1524TIP3    H226132   1.472   3.654   7.615 -1.2352 -0.4289 -1.5831
 1525TIP3   OH226133   0.455   4.437   8.088 -0.6955 -0.5977  0.4592
 1525TIP3    H126134   0.390   4.368   8.074  0.2600 -1.9122  2.1569
 1525TIP3    H226135   0.431   4.476   8.171 -0.9108  0.7999 -0.2370
 1526TIP3   OH226136   3.063   1.488   6.585  0.3004  0.6321 -0.1144
 1526TIP3    H126137   2.973   1.459   6.566 -0.0207  1.7518 -0.3802
 1526TIP3    H226138   3.069   1.486   6.681  0.7331 -1.5386 -0.1349
 1527TIP3   OH226139   2.613   1.808   0.884 -0.1859 -0.4132 -0.1132
 1527TIP3    H126140   2.564   1.816   0.802  0.8838 -0.3650 -0.7649
 1527TIP3    H226141   2.663   1.727   0.874  2.1871  1.0436 -0.7631
 1528TIP3   OH226142   0.301   1.799   1.816  0.0568  0.4076 -0.0287
 1528TIP3    H126143   0.384   1.843   1.834  1.3529 -1.2876 -1.4734
 1528TIP3    H226144   0.279   1.825   1.727  0.3439 -1.0285 -0.5447
 1529TIP3   OH226145   2.446   4.162   6.717 -0.0400  0.5403  0.0423
 1529TIP3    H126146   2.482   4.224   6.653 -0.5575 -1.3865 -2.2767
 1529TIP3    H226147   2.489   4.079   6.696 -0.4979 -0.2499  2.0340
 1530TIP3   OH226148   2.125   6.044   8.229 -0.7071  0.2258 -0.4445
 1530TIP3    H126149   2.140   6.104   8.155  1.1807 -0.7852 -0.9567
 1530TIP3    H226150   2.037   6.064   8.259 -0.5641  2.4659 -1.3216
 1531TIP3   OH226151   6.242   3.825   1.268 -0.1567 -0.2641  0.1867
 1531TIP3    H126152   6.152   3.791   1.269 -0.0343 -0.6462 -0.7579
 1531TIP3    H226153   6.294   3.752   1.234  0.0322  1.0142 -2.4866
 1532TIP3   OH226154   6.410   1.455   1.934  0.2784  0.0823 -0.2384
 1532TIP3    H126155   6.335   1.438   1.991  0.6401  0.8992  0.5003
 1532TIP3    H226156   6.461   1.374   1.937  0.5493  0.2858  1.0031
 1533TIP3   OH226157   3.532   0.396   1.011  0.1765 -0.1545  0.3356
 1533TIP3    H126158   3.571   0.474   0.972  0.1612  0.5346  1.6282
 1533TIP3    H226159   3.458   0.429   1.061  0.4044 -0.9428  1.2197
 1534TIP3   OH226160   5.011   0.525   0.785  0.8586  0.6366 -0.1919
 1534TIP3    H126161   5.012   0.582   0.708  0.9193  1.7447  0.6065
 1534TIP3    H226162   4.932   0.471   0.774  1.1522  0.4050 -1.2788
 1535TIP3   OH226163   1.264   2.223   1.241 -0.3194 -0.6441  0.3534
 1535TIP3    H126164   1.278   2.204   1.149 -0.1543 -1.2042  0.4943
 1535TIP3    H226165   1.345   2.267   1.269 -0.7165  0.3243  0.0210
 1536TIP3   OH226166   6.688   0.869   1.058  0.1470 -0.3780 -0.2543
 1536TIP3    H126167   6.668   0.951   1.103 -1.3341 -0.5057 -0.6249
 1536TIP3    H226168   6.704   0.807   1.129  0.3972  0.0183  0.0435
 1537TIP3   OH226169   5.326   0.592   0.436  0.4801 -0.3176  0.3168
 1537TIP3    H126170   5.335   0.584   0.341 -0.4373 -0.0234  0.1971
 1537TIP3    H226171   5.324   0.687   0.451  2.7536 -0.3040  0.8574
 1538TIP3   OH226172   6.516   6.427   0.988 -0.0219 -0.2137  0.0598
 1538TIP3    H126173   6.564   6.509   1.002  0.2775 -0.4996  0.7501
 1538TIP3    H226174   6.579   6.358   1.010 -1.5447 -0.6201  4.0689
 1539TIP3   OH226175   1.184   4.855   2.458  0.2133  0.0354  0.2012
 1539TIP3    H126176   1.147   4.940   2.433  2.2693  0.6564 -0.9442
 1539TIP3    H226177   1.241   4.874   2.531  0.0199 -0.5251  0.5056
 1540TIP3   OH226178   4.066   5.022   7.515 -0.2974 -0.5922  0.0420
 1540TIP3    H126179   4.093   5.062   7.432  0.7139 -1.0817  0.1234
 1540TIP3    H226180   4.137   4.962   7.537 -0.4423 -0.3033  1.3833
 1541TIP3   OH226181   2.387   1.516   8.171  0.6707  0.1847 -0.3111
 1541TIP3    H126182   2.408   1.552   8.085  2.7533  2.0350  0.8667
 1541TIP3    H226183   2.378   1.593   8.228 -0.8950 -0.9709  1.1197
 1542TIP3   OH226184   2.497   2.876   0.747 -0.5061 -0.0690  0.0479
 1542TIP3    H126185   2.565   2.808   0.739 -0.2324  0.1546  0.4282
 1542TIP3    H226186   2.538   2.944   0.800 -2.3057 -1.6950  3.9158
 1543TIP3   OH226187   2.897   5.797   0.397  0.6815  0.4173 -0.6339
 1543TIP3    H126188   2.974   5.847   0.368 -0.1742  1.1679 -1.6912
 1543TIP3    H226189   2.887   5.821   0.489  0.2355  2.3493 -1.1332
 1544TIP3   OH226190   4.577   5.708   7.804 -0.9927  0.1395  0.6669
 1544TIP3    H126191   4.600   5.621   7.836 -2.9961 -1.2432 -1.3240
 1544TIP3    H226192   4.611   5.711   7.715 -0.5296  1.6192  0.8626
 1545TIP3   OH226193   3.352   3.837   7.060  0.1201 -0.1581  0.9415
 1545TIP3    H126194   3.358   3.743   7.077 -0.1990 -0.1679  1.0085
 1545TIP3    H226195   3.401   3.850   6.979  0.0875 -0.3962  0.8844
 1546TIP3   OH226196   0.210   5.387   1.492  0.3896 -0.0600  0.2495
 1546TIP3    H126197   0.299   5.393   1.456  0.9265 -1.2451  1.3295
 1546TIP3    H226198   0.217   5.422   1.580 -0.3067  0.1510  0.2301
 1547TIP3   OH226199   3.876   4.369   7.384  0.1335 -0.5632  0.2460
 1547TIP3    H126200   3.885   4.458   7.351  1.4132 -1.0970 -0.9703
 1547TIP3    H226201   3.788   4.366   7.422  0.4585  1.4970  1.2958
 1548TIP3   OH226202   2.401   6.996   0.766  0.2151  0.6090 -0.0103
 1548TIP3    H126203   2.327   6.934   0.767  1.5387 -1.0807  2.1118
 1548TIP3    H226204   2.478   6.941   0.749  1.2709  1.9452  0.3012
 1549TIP3   OH226205   0.355   1.388   0.358  0.6876  0.0645 -0.0455
 1549TIP3    H126206   0.374   1.454   0.291 -0.7656  0.1520 -0.4153
 1549TIP3    H226207   0.433   1.333   0.361  1.0442  0.4709 -1.3274
 1550TIP3   OH226208   4.319   4.886   7.609  0.7784  0.1088  0.0546
 1550TIP3    H126209   4.332   4.815   7.671  0.2897 -1.3945 -1.4719
 1550TIP3    H226210   4.323   4.843   7.523 -0.9220  1.6783 -0.8814
 1551TIP3   OH226211   4.756   1.159   1.060  0.4554 -0.0763  0.0622
 1551TIP3    H126212   4.674   1.115   1.039  0.2329  0.1318  0.4859
 1551TIP3    H226213   4.760   1.233   0.999 -1.6424  2.3176  2.5518
 1552TIP3   OH226214   6.699   5.016   1.031  0.0941  0.1513 -0.7909
 1552TIP3    H126215   6.763   5.032   0.961  0.5139  1.0981 -0.1988
 1552TIP3    H226216   6.736   4.942   1.080  1.3524  1.4146  0.2398
 1553TIP3   OH226217   3.529   2.942   0.644 -0.1880  0.4406  0.5926
 1553TIP3    H126218   3.522   3.022   0.591 -1.4570  1.2183  1.8643
 1553TIP3    H226219   3.520   2.871   0.581  0.8902  1.2900 -0.5611
 1554TIP3   OH226220   3.585   2.113   0.885 -0.0962 -0.4243  0.4491
 1554TIP3    H126221   3.503   2.158   0.862 -0.2721 -0.4312  1.0527
 1554TIP3    H226222   3.566   2.068   0.968  1.0151  0.9320  1.4778
 1555TIP3   OH226223   4.642   1.607   6.441  0.5650 -0.3043 -0.1718
 1555TIP3    H126224   4.724   1.578   6.401 -0.6904 -1.7665 -1.8690
 1555TIP3    H226225   4.613   1.531   6.491 -0.0170  0.0219 -0.0129
 1556TIP3   OH226226   6.138   1.424   0.975  0.3866  0.0575  0.2008
 1556TIP3    H126227   6.230   1.411   0.997  0.5004  0.7185  0.1162
 1556TIP3    H226228   6.108   1.337   0.948  1.3329  0.0956 -1.0943
 1557TIP3   OH226229   1.852   6.954   6.740 -0.1294 -0.3954  0.2116
 1557TIP3    H126230   1.789   6.938   6.670 -1.2857  0.5372  1.0049
 1557TIP3    H226231   1.879   7.045   6.727 -0.4961 -0.1544  1.0753
 1558TIP3   OH226232   6.282   0.810   2.138  0.4352 -0.3098 -0.2112
 1558TIP3    H126233   6.315   0.740   2.082 -1.2476 -0.8318 -0.6171
 1558TIP3    H226234   6.258   0.767   2.220 -0.2423 -0.1582 -0.3197
 1559TIP3   OH226235   6.881   1.823   7.237  0.0040 -0.4267  0.5924
 1559TIP3    H126236   6.788   1.842   7.247 -0.0441  0.4590 -1.2361
 1559TIP3    H226237   6.884   1.742   7.186  0.2090  0.2855 -0.5573
 1560TIP3   OH226238   2.823   4.140   0.258  0.1061  0.2952  0.4938
 1560TIP3    H126239   2.821   4.075   0.328  0.6253 -0.2163  0.0392
 1560TIP3    H226240   2.754   4.202   0.282  0.9196  0.6736  1.9679
 1561TIP3   OH226241   1.217   3.748   1.853 -0.3993 -0.2038  0.1589
 1561TIP3    H126242   1.299   3.741   1.901 -0.6580  1.1051  0.8208
 1561TIP3    H226243   1.210   3.665   1.806  1.5048 -0.1676 -0.2660
 1562TIP3   OH226244   2.821   2.820   7.047  0.1959  0.0483  0.6441
 1562TIP3    H126245   2.789   2.909   7.029 -2.7675 -0.4417  2.7883
 1562TIP3    H226246   2.891   2.807   6.983 -0.0781  3.4431 -0.5779
 1563TIP3   OH226247   1.859   2.875   0.175  0.1056 -0.2700  0.0083
 1563TIP3    H126248   1.936   2.827   0.208 -0.6241 -1.0727  0.5955
 1563TIP3    H226249   1.885   2.967   0.178  1.3259 -0.5700 -0.5552
 1564TIP3   OH226250   6.137   1.580   1.709 -0.5484 -0.0982  0.2276
 1564TIP3    H126251   6.232   1.579   1.700 -0.3930 -0.2375  1.6982
 1564TIP3    H226252   6.106   1.611   1.624  0.6936 -1.9294 -0.9855
 1565TIP3   OH226253   1.004   6.106   0.174  0.1064  0.3119 -0.0787
 1565TIP3    H126254   1.044   6.168   0.113 -0.1777 -0.2654 -0.8594
 1565TIP3    H226255   0.925   6.075   0.130  0.8660 -1.5237 -0.2525
 1566TIP3   OH226256   0.625   0.578   1.829 -0.3916 -0.6538 -0.1030
 1566TIP3    H126257   0.541   0.536   1.844 -1.6517  1.2412 -1.3568
 1566TIP3    H226258   0.616   0.665   1.867  0.8129 -0.2386 -0.6838
 1567TIP3   OH226259   2.978   2.144   8.077  0.6956  0.0469 -0.0409
 1567TIP3    H126260   2.995   2.135   8.171  0.3816  0.1832  0.0307
 1567TIP3    H226261   3.016   2.229   8.054  1.0878 -0.1455 -0.1129
 1568TIP3   OH226262   3.244   5.200   1.692 -0.2629  0.0532  0.2421
 1568TIP3    H126263   3.182   5.251   1.744  0.1472 -0.0431  0.8300
 1568TIP3    H226264   3.196   5.178   1.612  0.3533  3.5826 -1.2672
 1569TIP3   OH226265   3.631   6.124   7.103  0.3022  0.4287 -0.0187
 1569TIP3    H126266   3.711   6.075   7.122  0.8212  2.1563  2.9625
 1569TIP3    H226267   3.579   6.065   7.048  2.2583 -2.0520  0.6011
 1570TIP3   OH226268   3.295   5.764   7.984 -0.1130 -0.1363  0.2360
 1570TIP3    H126269   3.265   5.760   8.075 -1.2500 -1.2085 -0.1539
 1570TIP3    H226270   3.222   5.727   7.933  0.1280  1.2881 -1.2166
 1571TIP3   OH226271   4.130   2.585   1.990 -0.1785 -0.6099 -0.0195
 1571TIP3    H126272   4.215   2.624   1.970 -0.9759  1.6557  0.6607
 1571TIP3    H226273   4.120   2.594   2.085 -2.0016  1.1587 -0.2941
 1572TIP3   OH226274   1.451   1.183   0.064 -0.0258 -0.2839  0.2103
 1572TIP3    H126275   1.474   1.093   0.088 -0.8722 -0.6690 -0.3760
 1572TIP3    H226276   1.366   1.175   0.020 -1.0789  1.0482  1.8962
 1573TIP3   OH226277   1.520   3.659   0.417 -0.3744 -0.3947  0.3363
 1573TIP3    H126278   1.592   3.658   0.354  0.3609 -0.4114  1.1546
 1573TIP3    H226279   1.523   3.747   0.456 -0.3992 -0.6011  0.8147
 1574TIP3   OH226280   4.306   0.068   0.945 -0.1415  0.4224  0.1224
 1574TIP3    H126281   4.329   0.059   1.037 -0.6494  3.1818  0.6064
 1574TIP3    H226282   4.256  -0.011   0.924  0.6713 -0.6305  1.9552
 1575TIP3   OH226283   6.193   0.669   7.544  0.4120 -0.1555  0.7060
 1575TIP3    H126284   6.287   0.658   7.532  0.5287  2.6802 -2.8731
 1575TIP3    H226285   6.181   0.764   7.551 -2.2282 -0.4000  0.4754
 1576TIP3   OH226286   4.120   5.076   2.115 -0.1512 -0.1994  0.7743
 1576TIP3    H126287   4.186   5.060   2.183  0.2223  0.1732  0.4971
 1576TIP3    H226288   4.046   5.021   2.142  0.1059 -0.2925  1.3197
 1577TIP3   OH226289   5.507   0.336   1.980  0.2275  0.5440 -0.4593
 1577TIP3    H126290   5.440   0.402   1.963 -0.1872 -0.4679 -3.3857
 1577TIP3    H226291   5.482   0.262   1.924  3.8079  0.1858 -1.8621
 1578TIP3   OH226292   3.624   4.261   0.130  0.0880 -0.4981  0.5063
 1578TIP3    H126293   3.613   4.169   0.104 -0.4716 -0.0974 -0.7745
 1578TIP3    H226294   3.695   4.293   0.075 -0.2058  0.0243  0.4237
 1579TIP3   OH226295   6.605   1.341   1.330 -0.4279 -0.1626  0.2558
 1579TIP3    H126296   6.585   1.252   1.361 -0.0741 -1.0252 -1.7985
 1579TIP3    H226297   6.637   1.328   1.240 -2.4035  2.2248 -0.8958
 1580TIP3   OH226298   5.432   2.343   2.123  0.1643 -0.1976  0.4661
 1580TIP3    H126299   5.427   2.438   2.135 -0.4439 -0.2799  0.9024
 1580TIP3    H226300   5.526   2.324   2.127  0.4088  0.5521 -1.0519
 1581TIP3   OH226301   1.044   2.896   6.997 -0.0079 -0.4240 -0.1559
 1581TIP3    H126302   1.001   2.934   6.920  0.3849  2.9179  1.1077
 1581TIP3    H226303   1.124   2.857   6.963 -1.4602 -2.1761 -1.8277
 1582TIP3   OH226304   1.372   6.423   6.090  0.0891 -0.1763  0.6069
 1582TIP3    H126305   1.451   6.469   6.060  0.9925 -0.2456  2.6973
 1582TIP3    H226306   1.403   6.368   6.162 -1.9962  0.3937  2.0198
 1583TIP3   OH226307   3.115   2.811   1.064 -0.0249 -0.3830  0.5009
 1583TIP3    H126308   3.086   2.897   1.035 -2.1373 -1.3196 -0.4069
 1583TIP3    H226309   3.066   2.795   1.145  1.3305 -0.2317  1.3729
 1584TIP3   OH226310   2.908   4.649   0.188 -0.8259 -0.1511 -0.2666
 1584TIP3    H126311   3.002   4.666   0.193 -0.7828  0.4790 -2.3239
 1584TIP3    H226312   2.868   4.718   0.241 -0.1418 -0.7577  1.0964
 1585TIP3   OH226313   6.108   5.499   0.276 -0.2412 -0.6153  0.0848
 1585TIP3    H126314   6.184   5.473   0.328 -0.1981  0.4868  0.6110
 1585TIP3    H226315   6.146   5.540   0.197 -0.1053  2.8684  1.7483
 1586TIP3   OH226316   4.594   4.683   8.007 -0.3055  0.4523  0.0801
 1586TIP3    H126317   4.677   4.651   8.043 -0.7998  0.8167  1.6435
 1586TIP3    H226318   4.614   4.768   7.970  0.2819 -0.0573 -0.8063
 1587TIP3   OH226319   0.394   0.677   6.694 -0.4840  0.3826  0.1667
 1587TIP3    H126320   0.325   0.703   6.633  0.9016  0.7682 -1.3216
 1587TIP3    H226321   0.368   0.715   6.778 -2.4301 -0.1184 -0.1582
 1588TIP3   OH226322   4.882   0.578   1.308 -0.4993 -0.2267  0.7460
 1588TIP3    H126323   4.890   0.582   1.403 -0.2903 -1.2318  0.7831
 1588TIP3    H226324   4.906   0.666   1.278 -1.2148  0.2918  1.6509
 1589TIP3   OH226325   3.049   4.221   0.014 -0.5603  0.1508  0.4529
 1589TIP3    H126326   2.985   4.272   0.063 -1.2034  0.0585 -0.2885
 1589TIP3    H226327   3.134   4.257   0.041 -0.7913 -0.8879  2.7749
 1590TIP3   OH226328   6.061   2.474   1.373 -0.3519  0.1396  0.5706
 1590TIP3    H126329   6.063   2.569   1.367  1.9682  0.0902 -0.4477
 1590TIP3    H226330   6.006   2.446   1.300 -0.1391  0.6714  0.2071
 1591TIP3   OH226331   2.857   6.539   6.577 -0.0878  0.1972 -0.1072
 1591TIP3    H126332   2.797   6.608   6.549  1.3273  1.5500  0.0978
 1591TIP3    H226333   2.917   6.527   6.504 -0.4694 -1.0252 -0.2420
 1592TIP3   OH226334   5.782   5.981   6.860  0.0340  0.2278  0.1693
 1592TIP3    H126335   5.764   6.055   6.918  0.5942 -0.9066  1.8860
 1592TIP3    H226336   5.700   5.967   6.813 -0.4874  1.1345  0.7739
 1593TIP3   OH226337   1.079   1.790   0.426  0.1208  0.3290 -0.2321
 1593TIP3    H126338   1.039   1.802   0.512  2.2039  0.0126  0.8532
 1593TIP3    H226339   1.013   1.820   0.364 -0.9221  1.8785  1.5320
 1594TIP3   OH226340   3.000   2.170   6.291  0.2225  0.0646  0.8186
 1594TIP3    H126341   2.929   2.226   6.320  0.7927  0.5152  1.3873
 1594TIP3    H226342   3.053   2.225   6.233  0.3525 -0.1236  0.7572
 1595TIP3   OH226343   5.684   0.035   7.904  0.2757  0.8176 -0.0913
 1595TIP3    H126344   5.601   0.054   7.947  0.9780  0.0729  1.7041
 1595TIP3    H226345   5.750   0.076   7.960  1.4117 -2.1374  0.9130
 1596TIP3   OH226346   1.395   5.640   0.929 -0.6897  0.0324  0.4092
 1596TIP3    H126347   1.423   5.717   0.879  1.6858 -0.1403  1.3516
 1596TIP3    H226348   1.389   5.672   1.019 -2.5738 -0.2383  0.4218
 1597TIP3   OH226349   3.913   0.376   1.116 -0.2097 -0.2017 -0.2149
 1597TIP3    H126350   3.868   0.399   1.196 -2.2841 -0.2470 -1.3104
 1597TIP3    H226351   3.859   0.308   1.075  0.6988 -0.0786 -1.7235
 1598TIP3   OH226352   2.405   6.193   7.640 -0.3661 -0.4228  0.3909
 1598TIP3    H126353   2.340   6.262   7.625  0.4449  0.2282 -0.1798
 1598TIP3    H226354   2.360   6.112   7.616 -0.3414  0.2052 -2.0711
 1599TIP3   OH226355   1.409   4.532   7.089 -0.3973 -0.0567 -0.2529
 1599TIP3    H126356   1.459   4.599   7.136  0.3577 -1.1377  0.5401
 1599TIP3    H226357   1.473   4.462   7.073 -0.7294  0.1060 -2.5798
 1600TIP3   OH226358   4.108   2.862   2.200 -0.3397 -0.5848 -0.0654
 1600TIP3    H126359   4.173   2.875   2.131  1.2135 -1.3646  1.1556
 1600TIP3    H226360   4.137   2.920   2.271 -0.2931 -1.7594  0.9185
 1601TIP3   OH226361   0.222   6.346   8.299  0.4790 -0.1597  0.4181
 1601TIP3    H126362   0.215   6.380   8.388 -0.1529 -0.3774  0.4579
 1601TIP3    H226363   0.150   6.284   8.291 -0.1962  0.6972 -0.5984
 1602TIP3   OH226364   5.358   0.543   0.175  0.5821  0.4320  0.0337
 1602TIP3    H126365   5.400   0.479   0.119 -0.0908  0.3910 -0.4463
 1602TIP3    H226366   5.269   0.509   0.188  0.5366  0.7536  0.6147
 1603TIP3   OH226367   2.655   2.608   7.417 -0.0499 -0.3534  0.1219
 1603TIP3    H126368   2.637   2.555   7.339  0.1928 -2.0732  1.1816
 1603TIP3    H226369   2.572   2.609   7.465 -0.4154  1.3333 -0.4677
 1604TIP3   OH226370   5.366   0.089   7.914  0.1063  0.3309  0.0320
 1604TIP3    H126371   5.386   0.117   7.824  0.0103  0.0006 -0.0939
 1604TIP3    H226372   5.318   0.007   7.903 -0.7450  0.7820  0.3542
 1605TIP3   OH226373   3.883   6.291   1.306 -0.3298  0.2094 -0.3783
 1605TIP3    H126374   3.841   6.303   1.392 -0.7441 -0.5942 -0.4523
 1605TIP3    H226375   3.857   6.202   1.280  1.0940 -0.1593 -0.6138
 1606TIP3   OH226376   6.873   0.071   7.816 -0.1396 -0.1044 -0.1091
 1606TIP3    H126377   6.810   0.068   7.744  0.0917 -0.0849 -0.3110
 1606TIP3    H226378   6.956   0.097   7.776  0.1480 -0.7397  0.0586
 1607TIP3   OH226379   0.448   6.315   8.138  0.5498 -0.4505  0.4402
 1607TIP3    H126380   0.507   6.259   8.188  0.3887 -0.7730  0.2747
 1607TIP3    H226381   0.375   6.332   8.197  1.1158  0.4953  0.8808
 1608TIP3   OH226382   6.947   2.077   0.336 -0.1149 -0.6833  0.1083
 1608TIP3    H126383   6.970   2.155   0.385 -1.7000 -0.1551  0.0573
 1608TIP3    H226384   6.923   2.012   0.403 -0.6008 -0.5180  0.0986
 1609TIP3   OH226385   6.054   6.542   2.232 -0.7339  0.2015 -0.0276
 1609TIP3    H126386   6.003   6.505   2.304 -1.3956  1.3749  0.1419
 1609TIP3    H226387   5.996   6.533   2.156  0.1823 -1.5438 -0.5662
 1610TIP3   OH226388   4.708   3.358   7.778  0.0966  0.1307  0.2489
 1610TIP3    H126389   4.772   3.383   7.846  0.8144 -0.0195 -0.3633
 1610TIP3    H226390   4.759   3.355   7.697 -0.5073 -0.8608 -0.1081
 1611TIP3   OH226391   2.918   2.520   1.119  0.5872 -0.2499 -0.4553
 1611TIP3    H126392   2.855   2.576   1.073  1.0566  2.4942  1.9189
 1611TIP3    H226393   2.999   2.528   1.068  0.3648  0.4214 -0.7103
 1612TIP3   OH226394   0.412   5.233   1.172 -0.4923  0.6304  0.1051
 1612TIP3    H126395   0.410   5.315   1.220  0.3956  1.3159 -0.9613
 1612TIP3    H226396   0.488   5.185   1.208  0.9039  1.6518 -1.3307
 1613TIP3   OH226397   0.902   6.569   7.893 -0.3900  0.0698 -0.3821
 1613TIP3    H126398   0.915   6.485   7.937 -2.4739 -0.3831 -0.5162
 1613TIP3    H226399   0.953   6.631   7.944  0.9285 -1.2041 -0.0825
 1614TIP3   OH226400   3.480   6.356   7.425 -0.2004 -0.2900 -0.1877
 1614TIP3    H126401   3.398   6.405   7.421  1.2179  2.3282  0.2448
 1614TIP3    H226402   3.519   6.380   7.509  1.5294 -0.5131 -0.8792
 1615TIP3   OH226403   0.716   6.540   0.672  0.7139  0.0759 -0.0550
 1615TIP3    H126404   0.715   6.634   0.687  0.7097  0.4590 -2.1294
 1615TIP3    H226405   0.749   6.531   0.583  0.6914 -1.8950  0.1021
 1616TIP3   OH226406   1.282   2.640   7.274 -0.3933  0.2150 -0.3340
 1616TIP3    H126407   1.311   2.608   7.360  3.5385 -1.5793 -2.0719
 1616TIP3    H226408   1.220   2.574   7.244 -1.3561  0.5519  0.8239
 1617TIP3   OH226409   5.017   0.197   0.594 -0.0445 -0.6322 -0.4039
 1617TIP3    H126410   5.108   0.227   0.605 -0.3389  0.3547 -0.5951
 1617TIP3    H226411   5.023   0.125   0.531  0.4585  0.2984 -1.4414
 1618TIP3   OH226412   5.424   1.936   7.302 -0.2533  0.0316 -0.6913
 1618TIP3    H126413   5.447   1.999   7.370 -1.5718  0.2613 -0.4292
 1618TIP3    H226414   5.329   1.944   7.293 -0.5477 -2.3925 -0.1898
 1619TIP3   OH226415   4.435   2.251   6.929  0.2038 -0.2477 -0.3261
 1619TIP3    H126416   4.354   2.281   6.969  0.1048 -1.8453  0.7637
 1619TIP3    H226417   4.502   2.309   6.965 -0.0832 -0.7654  1.1180
 1620TIP3   OH226418   0.882   5.334   8.023 -0.1390  0.1536 -0.0382
 1620TIP3    H126419   0.913   5.306   8.109  0.3399  1.7081  0.3241
 1620TIP3    H226420   0.787   5.340   8.032 -0.1551 -0.3573  0.1656
 1621TIP3   OH226421   5.800   3.443   7.920 -0.2438  0.5163  0.4648
 1621TIP3    H126422   5.845   3.427   8.003  0.7237  0.2674 -0.0989
 1621TIP3    H226423   5.814   3.537   7.904  0.6999  0.2989 -0.0562
 1622TIP3   OH226424   4.619   6.572   6.988 -0.2210 -0.2581 -0.0103
 1622TIP3    H126425   4.572   6.621   6.921 -0.1512 -0.5014 -0.2383
 1622TIP3    H226426   4.656   6.639   7.046  0.3318 -0.0289 -0.6250
 1623TIP3   OH226427   4.477   6.709   6.791 -1.1694  0.1535  0.3081
 1623TIP3    H126428   4.385   6.703   6.816 -0.9240  0.0463  1.2120
 1623TIP3    H226429   4.480   6.779   6.726 -1.7714  0.7285  0.8842
 1624TIP3   OH226430   5.608   6.370   8.076 -0.6132 -0.2534  0.2073
 1624TIP3    H126431   5.690   6.371   8.026  0.5800 -1.0087  2.0551
 1624TIP3    H226432   5.619   6.440   8.141 -2.4583  1.2450 -0.9935
 1625TIP3   OH226433   0.759   2.447   0.409  0.1251 -0.7519 -0.3324
 1625TIP3    H126434   0.705   2.522   0.432  1.3649 -0.2106  1.0236
 1625TIP3    H226435   0.839   2.486   0.372 -0.0529 -1.4915 -1.5243
 1626TIP3   OH226436   3.077   3.812   8.342 -0.3229  0.4808  0.5112
 1626TIP3    H126437   3.114   3.883   8.290 -0.0092 -1.2336 -1.7867
 1626TIP3    H226438   2.984   3.812   8.319 -0.3742  0.3554  0.7182
 1627TIP3   OH226439   6.457   2.042   7.737 -0.4262 -0.2105  0.1758
 1627TIP3    H126440   6.483   2.027   7.646 -0.1681  1.2125 -0.0208
 1627TIP3    H226441   6.427   1.957   7.769  0.0988 -0.8698 -1.0380
 1628TIP3   OH226442   2.833   6.762   0.178  0.1869 -0.0634 -0.1993
 1628TIP3    H126443   2.747   6.728   0.202 -0.1445  0.6713 -0.3104
 1628TIP3    H226444   2.814   6.830   0.113  0.6805  1.4298  1.1631
 1629TIP3   OH226445   0.260   6.109   7.750 -0.1535 -0.2422  0.3231
 1629TIP3    H126446   0.349   6.116   7.783  0.1643 -0.8322 -0.3908
 1629TIP3    H226447   0.247   6.016   7.733 -0.4178 -0.0056 -0.8824
 1630TIP3   OH226448   0.512   3.965   7.671  0.8509  0.1503 -0.4419
 1630TIP3    H126449   0.433   3.970   7.616 -0.9119 -0.7363  1.8162
 1630TIP3    H226450   0.525   4.054   7.703  0.1482  0.1261 -0.0641
 1631TIP3   OH226451   3.863   5.677   7.601  0.0157 -0.0863 -0.0719
 1631TIP3    H126452   3.852   5.728   7.681  0.7807 -0.0736  0.0408
 1631TIP3    H226453   3.815   5.596   7.618 -1.4643  0.6985 -0.3747
 1632TIP3   OH226454   3.715   1.894   1.496 -0.4266  0.3302  0.1492
 1632TIP3    H126455   3.708   1.978   1.451 -0.5435  0.2302 -0.0196
 1632TIP3    H226456   3.805   1.890   1.526 -0.7753  1.1425  1.3814
 1633TIP3   OH226457   5.513   6.564   1.861 -0.0123  0.1806  0.4469
 1633TIP3    H126458   5.558   6.646   1.884  2.1834 -0.3994 -1.4582
 1633TIP3    H226459   5.510   6.564   1.765 -1.2982 -1.3149  0.4456
 1634TIP3   OH226460   2.208   2.855   1.000 -0.0171  0.1683  0.2923
 1634TIP3    H126461   2.117   2.883   1.001  0.1940  0.9168  1.8613
 1634TIP3    H226462   2.258   2.936   1.012  0.7640 -0.4252  1.2710
 1635TIP3   OH226463   3.063   4.675   0.702  0.3249  0.0948 -0.1504
 1635TIP3    H126464   3.128   4.648   0.636  1.0220  2.4285 -0.5448
 1635TIP3    H226465   3.113   4.729   0.764 -0.6913 -0.5352  1.2631
 1636TIP3   OH226466   5.948   2.001   0.594  0.1841 -0.0700 -0.0626
 1636TIP3    H126467   5.912   2.019   0.508 -0.6201 -1.1642  0.0157
 1636TIP3    H226468   5.984   1.912   0.587 -1.1799 -0.7489  1.0944
 1637TIP3   OH226469   2.851   5.079   2.503  0.3391 -0.5474  0.0539
 1637TIP3    H126470   2.900   5.140   2.558 -0.5003  0.5239 -0.3266
 1637TIP3    H226471   2.917   5.024   2.462  1.1310  0.1081  0.4241
 1638TIP3   OH226472   1.711   4.950   0.536  0.5357  0.4039  0.0235
 1638TIP3    H126473   1.727   4.864   0.574  2.2695 -0.1905 -1.9163
 1638TIP3    H226474   1.645   4.935   0.468  0.0302  0.8299  0.4073
 1639TIP3   OH226475   3.841   1.382   1.868  0.2982  0.4818 -0.1272
 1639TIP3    H126476   3.859   1.452   1.804 -0.1385 -1.7369 -2.8768
 1639TIP3    H226477   3.762   1.411   1.913  0.7111  2.2243 -0.4250
 1640TIP3   OH226478   3.985   6.442   6.601 -0.1058  0.2025 -0.4634
 1640TIP3    H126479   4.015   6.411   6.516 -0.7675  1.4355 -1.1789
 1640TIP3    H226480   4.065   6.461   6.650  0.2797  0.0619 -1.0356
 1641TIP3   OH226481   2.177   6.362   7.825 -0.2067 -0.0528  0.2864
 1641TIP3    H126482   2.226   6.441   7.844 -0.4304  0.1965 -0.1614
 1641TIP3    H226483   2.164   6.364   7.730 -3.7141  1.4712  0.6414
 1642TIP3   OH226484   0.842   4.973   0.752  0.4224 -0.2078 -0.3594
 1642TIP3    H126485   0.759   4.978   0.704  0.3738 -1.7541 -0.4879
 1642TIP3    H226486   0.830   4.900   0.812  1.4289  0.0522  0.1713
 1643TIP3   OH226487   6.807   1.641   0.676  0.0199  0.2645  0.1496
 1643TIP3    H126488   6.865   1.575   0.713 -1.0149 -0.6777  0.1059
 1643TIP3    H226489   6.760   1.596   0.606 -1.1657  0.8730  0.5358
 1644TIP3   OH226490   4.662   2.846   1.986 -0.0477 -0.2668  0.0546
 1644TIP3    H126491   4.654   2.833   2.080  1.3538  0.7521  0.3440
 1644TIP3    H226492   4.663   2.942   1.975 -0.6138 -0.3650 -1.0408
 1645TIP3   OH226493   0.417   1.667   2.241  0.1650  0.4456  0.0590
 1645TIP3    H126494   0.455   1.746   2.279  1.3828  0.2445 -0.6821
 1645TIP3    H226495   0.446   1.596   2.298 -2.6391  0.6747  1.9434
 1646TIP3   OH226496   5.294   2.393   6.614  0.2623 -0.4530  0.7928
 1646TIP3    H126497   5.210   2.434   6.635  0.0221  0.8961 -2.2427
 1646TIP3    H226498   5.336   2.379   6.699 -1.2114  2.8165  2.2601
 1647TIP3   OH226499   6.835   3.570   1.152 -0.8711  0.2980 -0.3355
 1647TIP3    H126500   6.782   3.531   1.083  0.3603 -1.3817 -0.4033
 1647TIP3    H226501   6.851   3.498   1.213  1.7156  0.5715 -0.5748
 1648TIP3   OH226502   5.096   1.164   0.341  1.0389  0.3278 -0.0791
 1648TIP3    H126503   5.185   1.192   0.319  1.9467  0.6590  3.4701
 1648TIP3    H226504   5.056   1.239   0.384 -0.1767 -0.5437  0.3945
 1649TIP3   OH226505   5.034   6.844   8.167 -0.1184 -0.3427 -0.0678
 1649TIP3    H126506   5.002   6.766   8.122  2.7930 -2.1288  0.6611
 1649TIP3    H226507   5.017   6.827   8.260  3.3486 -1.7974  0.4584
 1650TIP3   OH226508   3.914   2.096   2.523 -0.2075  0.1527 -0.3631
 1650TIP3    H126509   3.995   2.113   2.569 -0.3588 -1.7506  0.7052
 1650TIP3    H226510   3.846   2.105   2.589 -0.6263 -0.6442 -0.6709
 1651TIP3   OH226511   6.624   6.393   0.681  0.0327 -0.1727 -0.6285
 1651TIP3    H126512   6.544   6.407   0.732 -0.1086 -0.2250 -0.8357
 1651TIP3    H226513   6.669   6.322   0.726 -0.9140 -1.3835 -1.5465
 1652TIP3   OH226514   4.824   0.198   7.646  0.4001 -0.0064 -0.1241
 1652TIP3    H126515   4.858   0.165   7.730  0.1237 -3.0185 -1.0709
 1652TIP3    H226516   4.730   0.178   7.649  0.5510 -1.0863 -1.4861
 1653TIP3   OH226517   2.212   5.591   7.532 -0.4491 -0.6678 -0.3735
 1653TIP3    H126518   2.185   5.661   7.472  0.6044 -0.1047 -0.2193
 1653TIP3    H226519   2.152   5.599   7.607 -0.6795 -0.2820 -0.5972
 1654TIP3   OH226520   6.395   1.421   1.110  0.0943 -1.0768 -0.5805
 1654TIP3    H126521   6.404   1.398   1.203  1.3431  0.9146 -0.1432
 1654TIP3    H226522   6.470   1.381   1.067  0.2885 -0.8432 -0.4638
 1655TIP3   OH226523   4.810   6.700   7.143  0.5273  0.1505  0.0685
 1655TIP3    H126524   4.846   6.619   7.180  0.7966 -0.6975 -1.9213
 1655TIP3    H226525   4.886   6.755   7.126  0.5005  0.1358 -0.1051
 1656TIP3   OH226526   6.506   6.126   0.891  0.4028 -0.6265  0.3217
 1656TIP3    H126527   6.523   6.035   0.914  1.2934 -0.6020 -0.1981
 1656TIP3    H226528   6.533   6.134   0.799 -1.8661 -0.4026 -0.3931
 1657TIP3   OH226529   2.221   5.263   0.616  0.0512  0.2056 -0.2722
 1657TIP3    H126530   2.274   5.321   0.671 -0.6793  2.3379 -1.7129
 1657TIP3    H226531   2.285   5.209   0.570  1.0792  2.7378 -1.9942
 1658TIP3   OH226532   5.258   6.704   6.890 -0.7333 -0.5176 -0.8518
 1658TIP3    H126533   5.345   6.678   6.920 -0.8295 -0.1325 -0.2233
 1658TIP3    H226534   5.243   6.651   6.811 -2.0715 -4.6295  1.7845
 1659TIP3   OH226535   3.664   0.806   1.483 -0.0148  0.0751  0.5117
 1659TIP3    H126536   3.684   0.891   1.523 -2.1520  0.4798  0.8800
 1659TIP3    H226537   3.571   0.813   1.459  0.5334 -1.1054 -2.2151
 1660TIP3   OH226538   6.967   0.059   8.203 -0.1455  0.2780  0.7947
 1660TIP3    H126539   7.041   0.095   8.252 -1.0921  0.7656  1.9213
 1660TIP3    H226540   6.946  -0.024   8.247  0.0730 -0.1224  0.1452
 1661TIP3   OH226541   2.449   4.685   8.059  0.2927 -0.0080  0.3663
 1661TIP3    H126542   2.398   4.747   8.007  0.7345  0.9926  1.0826
 1661TIP3    H226543   2.540   4.707   8.040  0.4638 -0.8306  0.1972
 1662TIP3   OH226544   1.870   2.042   2.312 -0.4970  0.0438 -0.5172
 1662TIP3    H126545   1.883   2.136   2.308 -0.8839  0.0723 -1.2729
 1662TIP3    H226546   1.926   2.013   2.384 -1.3996  1.0268  0.6433
 1663TIP3   OH226547   2.903   1.756   0.586 -0.0320 -0.1047 -0.7093
 1663TIP3    H126548   2.990   1.724   0.563 -0.0627 -1.3568  0.7297
 1663TIP3    H226549   2.919   1.837   0.634  0.2000  0.7130 -2.1201
 1664TIP3   OH226550   1.877   5.773   7.443  0.7053  0.0502  0.4005
 1664TIP3    H126551   1.830   5.824   7.509  0.1223 -0.2751  0.2465
 1664TIP3    H226552   1.809   5.747   7.381  0.3184 -3.5357  2.0768
 1665TIP3   OH226553   5.163   4.511   7.529 -0.1341 -0.1713  0.0955
 1665TIP3    H126554   5.167   4.556   7.614 -2.9680  0.8637 -0.2072
 1665TIP3    H226555   5.146   4.420   7.550  0.0927 -0.0862  0.6558
 1666TIP3   OH226556   3.010   2.287   1.893 -0.0450 -0.1759  0.2200
 1666TIP3    H126557   2.963   2.306   1.812 -1.5460  0.4082  1.1941
 1666TIP3    H226558   2.976   2.350   1.957  1.4266 -0.3269  1.2076
 1667TIP3   OH226559   0.706   3.522   2.128 -0.2695  0.6597  0.0902
 1667TIP3    H126560   0.616   3.536   2.158  0.2117 -0.6659  2.3592
 1667TIP3    H226561   0.737   3.447   2.178  1.0215 -1.1459 -3.1500
 1668TIP3   OH226562   5.082   1.836   7.939  0.2166  0.3479  0.0193
 1668TIP3    H126563   5.077   1.759   7.883 -0.6192  1.1270 -1.0274
 1668TIP3    H226564   5.003   1.886   7.919  1.1326  1.9002  0.0194
 1669TIP3   OH226565   4.679   4.620   0.545 -0.3052  0.0676  0.1584
 1669TIP3    H126566   4.646   4.570   0.470 -0.4186  0.0199  0.2391
 1669TIP3    H226567   4.763   4.578   0.566 -0.2693  0.0868  0.0521
 1670TIP3   OH226568   1.663   2.892   0.897  0.9287  0.1024 -0.2774
 1670TIP3    H126569   1.645   2.859   0.809  2.5179  1.7755 -1.3073
 1670TIP3    H226570   1.581   2.933   0.925  0.6592  0.3162 -1.3402
 1671TIP3   OH226571   5.045   5.922   0.338  0.4634  0.3716 -0.2645
 1671TIP3    H126572   4.991   5.998   0.317  0.9116  0.9371  0.5116
 1671TIP3    H226573   5.093   5.903   0.258  1.1431  1.6053 -0.1765
 1672TIP3   OH226574   6.793   0.333   7.132  0.3929  0.2123  0.6287
 1672TIP3    H126575   6.710   0.371   7.104  1.3874  0.7835 -1.7921
 1672TIP3    H226576   6.784   0.240   7.116  1.0333  0.5507 -2.1293
 1673TIP3   OH226577   6.843   1.626   8.309 -0.7425 -0.0971 -0.4837
 1673TIP3    H126578   6.922   1.676   8.286 -1.3629  0.0465 -2.5155
 1673TIP3    H226579   6.772   1.689   8.305 -1.0404 -0.3142  0.9428
 1674TIP3   OH226580   2.812   1.345   8.083 -0.5037  0.0386  0.4958
 1674TIP3    H126581   2.870   1.330   8.007 -1.7801 -1.1482 -0.2990
 1674TIP3    H226582   2.845   1.285   8.150 -0.0578  0.2651  0.4819
 1675TIP3   OH226583   0.308   2.846   1.254  0.3093 -0.1343  0.4464
 1675TIP3    H126584   0.364   2.853   1.177  1.3970 -1.6996  1.0348
 1675TIP3    H226585   0.251   2.923   1.250  1.8928  1.0462 -0.6722
 1676TIP3   OH226586   1.817   1.257   0.402 -0.1543 -0.0466  0.0369
 1676TIP3    H126587   1.787   1.281   0.314 -1.1167 -0.0924  0.3375
 1676TIP3    H226588   1.763   1.181   0.425  0.1161 -0.0576  0.6504
 1677TIP3   OH226589   6.199   2.616   8.259  0.7707  0.1405 -0.0475
 1677TIP3    H126590   6.238   2.704   8.262  0.5895  0.2011  0.9239
 1677TIP3    H226591   6.274   2.557   8.261  0.8697  0.2661  1.1024
 1678TIP3   OH226592   0.691   5.572   1.132 -0.1186 -0.4985  0.2258
 1678TIP3    H126593   0.701   5.491   1.082  1.1448 -0.5651  0.5363
 1678TIP3    H226594   0.701   5.642   1.068 -1.9554 -0.5635 -0.1703
 1679TIP3   OH226595   3.649   4.883   7.786  0.0551  0.3474  0.5207
 1679TIP3    H126596   3.730   4.860   7.740  1.0520  1.7880  1.4773
 1679TIP3    H226597   3.664   4.972   7.819 -0.4848 -0.6101  3.7496
 1680TIP3   OH226598   4.441   3.733   0.632  0.1556 -0.6266 -0.0602
 1680TIP3    H126599   4.386   3.752   0.557  1.2847 -1.6319 -1.1762
 1680TIP3    H226600   4.437   3.813   0.685 -1.0132 -0.0719 -0.9297
 1681TIP3   OH226601   3.230   0.655   0.474 -0.0054  0.1605  0.0410
 1681TIP3    H126602   3.154   0.714   0.466 -0.2755  0.1755  2.0741
 1681TIP3    H226603   3.192   0.568   0.487  0.3564 -0.0722 -0.4389
 1682TIP3   OH226604   2.855   1.555   0.121  0.0965  0.4982 -0.4985
 1682TIP3    H126605   2.839   1.521   0.032  2.0338 -0.8331 -0.4069
 1682TIP3    H226606   2.934   1.609   0.112  1.3676 -1.0809  0.6799
 1683TIP3   OH226607   2.231   0.226   0.031  0.0674 -0.2460 -0.2233
 1683TIP3    H126608   2.316   0.227   0.075  0.7468 -2.9367 -1.3013
 1683TIP3    H226609   2.171   0.189   0.096 -0.2298  1.2147  0.3733
 1684TIP3   OH226610   4.791   4.553   7.007  0.0408  0.0105 -0.5110
 1684TIP3    H126611   4.823   4.510   6.927 -1.1990 -0.9403 -0.5122
 1684TIP3    H226612   4.766   4.641   6.978  0.8665  0.1406 -0.8794
 1685TIP3   OH226613   1.638   2.453   0.960  0.1143 -0.4763 -0.1747
 1685TIP3    H126614   1.647   2.537   0.915 -0.6280  0.2654  1.0183
 1685TIP3    H226615   1.544   2.436   0.963  0.1325 -0.4936  1.0752
 1686TIP3   OH226616   3.466   5.353   7.019  0.4515  0.0243 -0.2980
 1686TIP3    H126617   3.422   5.277   6.981 -0.0307 -0.5052  1.2287
 1686TIP3    H226618   3.417   5.428   6.987 -1.0445 -0.5072  0.6298
 1687TIP3   OH226619   4.169   2.102   1.142  0.4363 -0.3833 -0.4131
 1687TIP3    H126620   4.096   2.162   1.132  0.5572 -0.4974 -2.6432
 1687TIP3    H226621   4.244   2.158   1.161 -0.0915 -0.2197  1.3388
 1688TIP3   OH226622   2.265   6.164   1.009 -0.0163  0.2427 -0.5920
 1688TIP3    H126623   2.320   6.160   0.931  1.1262 -0.1766  0.1998
 1688TIP3    H226624   2.213   6.084   1.007  0.7646 -0.2831 -0.4093
 1689TIP3   OH226625   5.457   6.920   2.753  0.5715 -0.1082  0.6901
 1689TIP3    H126626   5.513   6.998   2.757  1.1423 -0.5019  0.4156
 1689TIP3    H226627   5.409   6.930   2.671  0.8189 -0.1612  0.5369
 1690TIP3   OH226628   3.454   6.052   1.628 -0.2137  0.6295 -0.1041
 1690TIP3    H126629   3.458   6.131   1.682  0.3061  1.0191 -0.6969
 1690TIP3    H226630   3.520   5.994   1.667 -1.8977 -0.2933  1.5031
 1691TIP3   OH226631   5.020   5.494   0.993  0.2788 -0.0684 -0.2335
 1691TIP3    H126632   5.013   5.528   0.904 -1.4488  1.2988  0.3877
 1691TIP3    H226633   5.087   5.425   0.986  2.0015  1.6385 -2.0697
 1692TIP3   OH226634   2.462   3.720   0.632 -0.0795  0.3114  0.6811
 1692TIP3    H126635   2.447   3.814   0.644 -0.6781  0.2571  0.4133
 1692TIP3    H226636   2.546   3.715   0.585  0.5768  0.6521  1.7853
 1693TIP3   OH226637   3.378   4.183   2.124  0.2750  0.7742  0.2400
 1693TIP3    H126638   3.404   4.228   2.204  0.8428  2.2437 -0.7322
 1693TIP3    H226639   3.406   4.092   2.137  0.1345  0.9283  1.7823
 1694TIP3   OH226640   2.978   0.893   8.235  0.1388  0.0843 -0.3550
 1694TIP3    H126641   2.902   0.840   8.259  0.8544 -0.3601  1.0885
 1694TIP3    H226642   2.942   0.970   8.192 -1.0767 -0.4927 -0.3892
 1695TIP3   OH226643   4.221   1.326   1.928  0.5602  0.1564 -0.0927
 1695TIP3    H126644   4.137   1.286   1.953 -0.2143  0.5574 -1.8771
 1695TIP3    H226645   4.287   1.272   1.970 -0.5553 -1.3120 -0.1432
 1696TIP3   OH226646   0.362   5.944   8.070 -0.1403 -0.0579  0.8307
 1696TIP3    H126647   0.430   5.945   8.003 -1.0982  0.5604 -0.1743
 1696TIP3    H226648   0.320   5.859   8.061  0.7590 -0.6313  1.7667
 1697TIP3   OH226649   4.002   4.248   6.463 -0.1333 -0.3330 -0.7427
 1697TIP3    H126650   4.018   4.336   6.498 -2.4198 -0.3490  0.5837
 1697TIP3    H226651   4.066   4.192   6.507 -1.5554  0.0105  1.9890
 1698TIP3   OH226652   5.917   1.506   0.325 -0.2029  0.7098  0.7130
 1698TIP3    H126653   5.930   1.601   0.332 -0.1204  0.6673  1.1239
 1698TIP3    H226654   5.863   1.483   0.400 -0.1510  0.4161  0.6615
 1699TIP3   OH226655   5.466   3.971   2.079  0.1213  0.5211 -0.3188
 1699TIP3    H126656   5.557   3.943   2.072  0.7294  2.4506 -0.5879
 1699TIP3    H226657   5.453   3.986   2.172  0.2477  0.7764 -0.3422
 1700TIP3   OH226658   6.115   4.830   0.495 -0.4403 -0.1300 -0.1391
 1700TIP3    H126659   6.161   4.759   0.449 -1.8968 -0.3579 -1.3141
 1700TIP3    H226660   6.141   4.820   0.587 -0.9212 -2.4502 -0.2051
 1701TIP3   OH226661   1.032   5.604   2.253 -0.0586 -0.7920  0.1219
 1701TIP3    H126662   1.013   5.513   2.275 -0.6979 -0.5547  0.5718
 1701TIP3    H226663   0.960   5.654   2.292  0.4306 -0.0658  0.1165
 1702TIP3   OH226664   0.892   1.299   1.182 -0.0592 -0.0674  0.7511
 1702TIP3    H126665   0.940   1.381   1.197  2.2968 -0.8187 -1.8006
 1702TIP3    H226666   0.861   1.306   1.091  0.3380 -2.0145  0.4133
 1703TIP3   OH226667   1.842   1.000   0.249  0.0002 -0.7235  0.2938
 1703TIP3    H126668   1.822   1.017   0.157 -0.5763  1.9928  0.8262
 1703TIP3    H226669   1.930   0.962   0.248 -0.0394 -0.8563 -1.3624
 1704TIP3   OH226670   3.547   3.096   1.011 -0.2131 -0.1975 -0.3095
 1704TIP3    H126671   3.578   3.032   0.946 -0.1182  0.0051 -0.4667
 1704TIP3    H226672   3.612   3.166   1.007  0.1586 -0.4924  0.4920
 1705TIP3   OH226673   4.843   4.442   6.757  0.3573  0.0838 -0.1876
 1705TIP3    H126674   4.889   4.429   6.673 -1.6354 -0.8965 -1.1908
 1705TIP3    H226675   4.772   4.503   6.736 -0.7634 -0.9390  0.5392
 1706TIP3   OH226676   5.722   5.608   2.691 -0.0181  0.0668 -0.3967
 1706TIP3    H126677   5.694   5.697   2.711 -0.5343 -0.0112 -0.7296
 1706TIP3    H226678   5.678   5.554   2.756  1.0625  0.1348  0.4171
 1707TIP3   OH226679   0.765   2.588   2.162 -0.0930  0.3038 -0.1997
 1707TIP3    H126680   0.719   2.590   2.246  1.9680 -0.8409  1.0456
 1707TIP3    H226681   0.751   2.676   2.126 -0.0260  1.2673  1.9250
 1708TIP3   OH226682   0.122   1.536   2.361  0.3596  0.1301 -0.3771
 1708TIP3    H126683   0.051   1.579   2.409 -0.3204 -2.2617  0.9608
 1708TIP3    H226684   0.175   1.608   2.327 -2.3794  2.0116 -0.9904
 1709TIP3   OH226685   5.991   1.700   0.811 -0.0675 -0.1381 -0.3379
 1709TIP3    H126686   6.022   1.741   0.730  0.9987 -2.9894 -1.5006
 1709TIP3    H226687   5.922   1.640   0.783 -2.1494  1.2800  1.4004
 1710TIP3   OH226688   3.843   4.777   8.211  0.1533  0.7229 -0.4883
 1710TIP3    H126689   3.843   4.872   8.207  1.2234  0.6960 -1.7524
 1710TIP3    H226690   3.778   4.751   8.145 -0.0007  0.5640 -0.2768
 1711TIP3   OH226691   2.387   4.103   6.966  0.1484 -0.3890 -0.4418
 1711TIP3    H126692   2.465   4.136   7.010  0.6301 -2.2941  0.1974
 1711TIP3    H226693   2.410   4.102   6.874  1.1204 -1.5003 -0.2064
 1712TIP3   OH226694   3.698   0.541   7.038  0.1130 -0.1901  0.5032
 1712TIP3    H126695   3.655   0.466   6.996  0.2372  0.0966 -0.1592
 1712TIP3    H226696   3.642   0.615   7.018  0.0785 -0.0808  1.0161
 1713TIP3   OH226697   5.099   2.930   0.219  0.4356 -0.6141 -0.1576
 1713TIP3    H126698   5.192   2.937   0.198  0.1272  1.7006 -1.1168
 1713TIP3    H226699   5.068   2.854   0.170  1.6179 -0.7849 -0.6612
 1714TIP3   OH226700   4.169   4.174   0.665 -0.1310  0.2830 -0.0539
 1714TIP3    H126701   4.145   4.097   0.613  0.0517  0.3200 -0.1910
 1714TIP3    H226702   4.230   4.140   0.731  2.0997  0.7733 -1.7740
 1715TIP3   OH226703   3.639   3.713   0.272  0.7305 -0.2219  0.4382
 1715TIP3    H126704   3.601   3.690   0.357  0.5063  2.2043  1.0562
 1715TIP3    H226705   3.575   3.684   0.208 -0.2171  0.0674  1.2407
 1716TIP3   OH226706   4.471   2.907   7.552 -0.3102 -0.1850 -0.3659
 1716TIP3    H126707   4.481   2.815   7.527 -2.7044 -0.4481 -0.6738
 1716TIP3    H226708   4.376   2.922   7.547 -0.1241  1.8891  1.1462
 1717TIP3   OH226709   4.438   4.075   8.227 -0.3442 -0.4195 -0.2395
 1717TIP3    H126710   4.423   4.168   8.243  0.0924 -0.3056 -0.4760
 1717TIP3    H226711   4.484   4.044   8.305  0.2929 -0.2364 -0.5333
 1718TIP3   OH226712   6.411   2.057   8.270 -0.0267  0.5153  0.4521
 1718TIP3    H126713   6.351   2.119   8.311  0.1921  0.4044  0.9554
 1718TIP3    H226714   6.473   2.111   8.222  1.2661  0.8272  2.3569
 1719TIP3   OH226715   0.501   2.149   8.072 -0.2564 -0.4266 -0.2711
 1719TIP3    H126716   0.564   2.148   8.000  0.3522 -0.1811  0.2453
 1719TIP3    H226717   0.555   2.165   8.150 -0.8235 -1.3333  0.3156
 1720TIP3   OH226718   3.687   4.017   6.948 -0.3212 -0.1857 -0.4661
 1720TIP3    H126719   3.743   4.055   6.881 -0.5592 -0.0548 -0.5931
 1720TIP3    H226720   3.632   3.954   6.900 -0.6725  0.0978 -0.4438
 1721TIP3   OH226721   4.373   2.877   1.658  0.5951  0.6095 -0.5456
 1721TIP3    H126722   4.440   2.809   1.647  0.5769  0.5501 -0.2723
 1721TIP3    H226723   4.418   2.958   1.635  1.0235  0.6880  0.5344
 1722TIP3   OH226724   5.599   1.766   1.475  0.4763 -0.1975  0.1288
 1722TIP3    H126725   5.694   1.768   1.479  0.4401 -0.8795  2.3655
 1722TIP3    H226726   5.572   1.853   1.505  0.3816 -0.2055  0.0669
 1723TIP3   OH226727   2.414   6.302   6.917  0.1134 -0.8419 -0.1854
 1723TIP3    H126728   2.494   6.313   6.969 -1.9413  1.4402  2.8621
 1723TIP3    H226729   2.420   6.368   6.848  1.3563 -1.5715 -0.8146
 1724TIP3   OH226730   1.917   2.447   0.464  0.4313 -0.2263  0.1479
 1724TIP3    H126731   1.925   2.540   0.443  1.6427 -0.6521 -1.4620
 1724TIP3    H226732   1.979   2.434   0.536  1.3359 -0.0530 -0.5837
 1725TIP3   OH226733   0.103   5.508   1.258 -0.9022  0.4669 -0.3230
 1725TIP3    H126734   0.152   5.467   1.330 -0.6403  0.2253 -0.6320
 1725TIP3    H226735   0.156   5.490   1.180 -1.1189  0.8333 -0.5596
 1726TIP3   OH226736   5.687   4.729   0.230  0.1841 -0.1203 -0.2702
 1726TIP3    H126737   5.703   4.822   0.213 -0.7128  0.4228  1.6683
 1726TIP3    H226738   5.767   4.686   0.199  1.0859  1.4102 -0.2062
 1727TIP3   OH226739   6.472   5.916   1.486 -0.0294  0.8332 -0.0454
 1727TIP3    H126740   6.382   5.904   1.516 -0.4244 -0.5855 -1.6157
 1727TIP3    H226741   6.524   5.857   1.540 -0.3405  0.2680 -0.3513
 1728TIP3   OH226742   6.880   6.048   1.167  0.1175  0.5755  0.3459
 1728TIP3    H126743   6.792   6.018   1.144  1.0241 -0.3935 -2.3502
 1728TIP3    H226744   6.937   5.974   1.144  1.8337  1.9849 -0.2402
 1729TIP3   OH226745   6.867   3.973   1.706 -0.1259  0.6017 -0.3007
 1729TIP3    H126746   6.818   3.971   1.788  1.1502  1.8246  0.5507
 1729TIP3    H226747   6.805   4.005   1.641 -1.4553 -1.3688 -0.0721
 1730TIP3   OH226748   4.068   3.103   1.491  0.1489  0.2456 -0.3950
 1730TIP3    H126749   4.117   3.088   1.571  0.7054  0.6193 -0.6611
 1730TIP3    H226750   4.020   3.184   1.506  2.7143  2.1479 -1.5475
 1731TIP3   OH226751   0.468   4.035   2.628 -0.6785  0.2368  0.1691
 1731TIP3    H126752   0.467   4.099   2.557 -0.8149 -2.5800 -2.5971
 1731TIP3    H226753   0.556   3.999   2.627 -1.7312 -2.6294 -1.4801
 1732TIP3   OH226754   6.016   5.104   7.511  0.6187 -0.3925  0.1128
 1732TIP3    H126755   6.014   5.113   7.607  2.2196 -0.8056  0.2105
 1732TIP3    H226756   6.085   5.040   7.495  0.2634 -0.4365 -1.3272
 1733TIP3   OH226757   2.265   1.729   0.769 -0.1174  0.6419 -0.0790
 1733TIP3    H126758   2.326   1.665   0.732 -1.2589 -0.8104  0.4297
 1733TIP3    H226759   2.259   1.798   0.703  0.9401  0.0868 -0.7789
 1734TIP3   OH226760   3.797   6.291   0.979  0.0374 -0.2220  0.6497
 1734TIP3    H126761   3.802   6.374   1.026 -1.8791 -0.0253  0.6140
 1734TIP3    H226762   3.868   6.295   0.915  1.3646  0.4065  2.1105
 1735TIP3   OH226763   1.507   1.120   1.381 -0.1646 -0.0990 -0.0760
 1735TIP3    H126764   1.594   1.158   1.366  0.1503 -1.2521 -1.3723
 1735TIP3    H226765   1.522   1.025   1.383 -1.1503 -0.2650  1.5548
 1736TIP3   OH226766   4.180   5.655   6.652 -0.0243 -0.0506 -0.6763
 1736TIP3    H126767   4.099   5.657   6.601  0.3448 -2.1885 -1.4591
 1736TIP3    H226768   4.249   5.673   6.588  0.4579 -2.9198 -1.0767
 1737TIP3   OH226769   5.004   1.380   0.100  0.5537 -0.2110 -0.0384
 1737TIP3    H126770   4.995   1.453   0.161  0.4964  0.0400 -0.3399
 1737TIP3    H226771   4.944   1.313   0.134  1.0490 -0.3508  0.5698
 1738TIP3   OH226772   3.350   6.162   0.478 -0.1723 -0.2760 -0.4283
 1738TIP3    H126773   3.405   6.217   0.534  0.2676  0.6113 -1.6961
 1738TIP3    H226774   3.285   6.124   0.538 -1.1696  2.4352  0.3473
 1739TIP3   OH226775   4.658   1.440   0.221  0.9281 -0.1257 -0.4645
 1739TIP3    H126776   4.625   1.429   0.132 -1.3134  0.2361  0.2695
 1739TIP3    H226777   4.694   1.354   0.245 -0.3724 -0.8401 -0.9929
 1740TIP3   OH226778   0.325   0.045   2.051  0.1947  0.1756  0.0606
 1740TIP3    H126779   0.326   0.003   2.137  0.4928 -0.9509 -0.4710
 1740TIP3    H226780   0.241   0.021   2.013  0.4551 -0.1218 -0.3342
 1741TIP3   OH226781   2.064   1.324   0.477  0.2403  0.3500  0.2787
 1741TIP3    H126782   2.092   1.343   0.388 -0.8072  0.0182 -0.1362
 1741TIP3    H226783   1.972   1.300   0.469  0.3617 -0.5750  1.3379
 1742TIP3   OH226784   3.464   5.061   1.516  0.0718 -0.2266 -0.1004
 1742TIP3    H126785   3.402   5.084   1.447 -1.5577  0.5714  1.5399
 1742TIP3    H226786   3.444   4.970   1.537 -0.4770 -0.0047  0.3481
 1743TIP3   OH226787   6.598   0.195   6.521  0.4774  0.4060 -0.7170
 1743TIP3    H126788   6.622   0.210   6.430 -2.4290 -1.2851 -1.9107
 1743TIP3    H226789   6.545   0.116   6.519  1.0610 -0.2471  2.6350
 1744TIP3   OH226790   0.148   5.837   0.830  0.0456 -0.3664  0.4508
 1744TIP3    H126791   0.143   5.892   0.751 -1.0664 -2.0427 -0.7369
 1744TIP3    H226792   0.212   5.881   0.886 -0.7396  2.0787 -0.4239
 1745TIP3   OH226793   5.374   5.467   7.987 -0.1746 -0.2529 -0.0324
 1745TIP3    H126794   5.304   5.531   7.978  0.1672  0.3954  1.5065
 1745TIP3    H226795   5.444   5.500   7.931  0.0001  0.7534  0.7519
 1746TIP3   OH226796   2.610   5.427   0.417  0.5272 -0.7623  0.4359
 1746TIP3    H126797   2.537   5.463   0.367  0.0342 -1.4703  0.6264
 1746TIP3    H226798   2.672   5.398   0.350  1.5236  1.5300  0.2771
 1747TIP3   OH226799   1.252   5.503   0.686 -0.2176 -0.2024 -0.0973
 1747TIP3    H126800   1.168   5.544   0.705 -0.6922 -0.7525 -0.9548
 1747TIP3    H226801   1.304   5.517   0.765 -0.7836  0.9690  0.0898
 1748TIP3   OH226802   6.398   3.211   7.071  0.2629 -0.2215 -0.3298
 1748TIP3    H126803   6.328   3.196   7.135 -1.3632  1.7326 -1.5255
 1748TIP3    H226804   6.362   3.179   6.988  0.9105  0.4930 -0.9041
 1749TIP3   OH226805   1.789   1.645   0.841  0.2069  0.2844 -0.1125
 1749TIP3    H126806   1.767   1.599   0.760 -0.6547 -1.4251  1.0149
 1749TIP3    H226807   1.705   1.653   0.887  0.3676  2.8419 -0.1238
 1750TIP3   OH226808   2.425   5.164   7.436  0.2727  0.4286  0.0785
 1750TIP3    H126809   2.396   5.182   7.346  1.2685  1.3450 -0.0747
 1750TIP3    H226810   2.394   5.075   7.453  1.5743 -0.4699 -1.8463
 1751TIP3   OH226811   6.054   2.892   0.557  0.1860 -0.3520  0.1242
 1751TIP3    H126812   6.094   2.887   0.644 -2.2366 -0.2787  1.3219
 1751TIP3    H226813   6.033   2.984   0.546  0.3029 -0.3928 -0.4690
 1752TIP3   OH226814   1.025   4.210   1.223  0.5633 -0.6701 -0.3075
 1752TIP3    H126815   1.094   4.217   1.289 -0.3187  1.6003  0.4644
 1752TIP3    H226816   1.037   4.122   1.185  3.0759 -0.8143  0.6226
 1753TIP3   OH226817   0.096   6.103   2.051  0.6812 -0.5983  0.2984
 1753TIP3    H126818   0.086   6.114   1.956  1.1325  0.4537  0.3630
 1753TIP3    H226819   0.160   6.169   2.076 -1.4224  1.0259  1.7357
 1754TIP3   OH226820   5.588   5.000   7.913  0.2293  0.2050  0.0903
 1754TIP3    H126821   5.553   5.071   7.966  2.4481  1.2817  0.2280
 1754TIP3    H226822   5.658   5.040   7.862 -0.2036 -1.3379 -1.8579
 1755TIP3   OH226823   1.096   5.302   1.871  0.3501 -0.0525 -0.1974
 1755TIP3    H126824   1.131   5.302   1.960 -0.3715  1.3307  0.1202
 1755TIP3    H226825   1.146   5.370   1.825  0.7482 -0.7856 -0.8668
 1756TIP3   OH226826   0.515   2.500   6.200  0.6332  0.1204  0.9468
 1756TIP3    H126827   0.440   2.509   6.141  1.3049 -0.1637  0.0153
 1756TIP3    H226828   0.482   2.448   6.273  0.3394 -1.5236 -0.2824
 1757TIP3   OH226829   3.241   1.952   0.355  0.2474  0.0992 -0.3761
 1757TIP3    H126830   3.146   1.969   0.358 -0.4475 -3.0959 -0.7636
 1757TIP3    H226831   3.266   1.972   0.265 -0.6320 -1.2908 -0.9666
 1758TIP3   OH226832   3.549   0.975   0.154 -0.0515 -0.2375  0.3442
 1758TIP3    H126833   3.574   0.956   0.063  2.2189  1.3535  0.5589
 1758TIP3    H226834   3.533   1.069   0.154  1.1685 -0.0045  1.8256
 1759TIP3   OH226835   6.885   5.532   0.040  0.0107 -0.0856 -0.4718
 1759TIP3    H126836   6.796   5.509   0.067  0.1817 -0.1492  0.0537
 1759TIP3    H226837   6.877   5.618  -0.000 -0.2053  0.1516  0.0779
 1760TIP3   OH226838   2.491   6.761   7.362  0.5169 -1.0026  0.0743
 1760TIP3    H126839   2.403   6.785   7.389  0.4965 -0.4218 -0.4676
 1760TIP3    H226840   2.540   6.752   7.443 -0.2607 -2.2405  0.4245
 1761TIP3   OH226841   5.619   1.521   7.977 -0.2537  0.0769  0.4478
 1761TIP3    H126842   5.687   1.531   8.044  0.0143  1.8048 -0.0459
 1761TIP3    H226843   5.565   1.599   7.986 -1.0219 -0.3395 -0.4611
 1762TIP3   OH226844   0.048   5.176   7.147 -0.2690  0.6587 -0.4080
 1762TIP3    H126845   0.046   5.244   7.079  0.5180  1.2907  0.1715
 1762TIP3    H226846   0.121   5.202   7.204  0.2344 -0.8394 -0.3294
 1763TIP3   OH226847   0.832   4.341   1.632 -0.0635  0.0341 -0.1145
 1763TIP3    H126848   0.802   4.298   1.551 -0.1776 -0.2283  0.0626
 1763TIP3    H226849   0.902   4.284   1.664 -0.8824 -0.5856  0.6520
 1764TIP3   OH226850   5.367   6.318   7.905  0.6046 -0.3037 -0.5102
 1764TIP3    H126851   5.360   6.245   7.844 -0.7254 -0.5586 -0.0931
 1764TIP3    H226852   5.436   6.292   7.966 -0.8059 -1.8957  0.4805
 1765TIP3   OH226853   0.869   3.364   7.605 -0.1275 -0.4856  0.0956
 1765TIP3    H126854   0.950   3.408   7.578 -0.6700  0.1369 -0.5717
 1765TIP3    H226855   0.898   3.290   7.657  0.8513  0.1687  0.5069
 1766TIP3   OH226856   6.643   4.064   8.355  0.5516  0.1920  0.1181
 1766TIP3    H126857   6.650   3.982   8.403 -0.0812  1.0591  1.7906
 1766TIP3    H226858   6.733   4.092   8.340  0.7753 -0.9423 -0.7620
 1767TIP3   OH226859   0.482   6.843   7.744  0.1093 -0.3755  0.2996
 1767TIP3    H126860   0.399   6.843   7.696  1.5453 -0.2220 -2.3712
 1767TIP3    H226861   0.486   6.756   7.785 -0.6030 -1.0689 -1.0225
 1768TIP3   OH226862   3.960   1.204   2.428  0.0187 -0.3643  0.1760
 1768TIP3    H126863   3.899   1.196   2.501  0.2800 -0.6143  0.3687
 1768TIP3    H226864   4.017   1.128   2.436  2.0728  1.2412  1.5778
 1769TIP3   OH226865   0.151   1.682   7.988 -0.3921 -0.2464  0.2103
 1769TIP3    H126866   0.096   1.698   8.065  0.4453 -1.3428  1.0714
 1769TIP3    H226867   0.154   1.587   7.980  1.0704 -0.2002 -0.0368
 1770TIP3   OH226868   1.689   5.769   7.232  0.0738 -0.1591 -0.2663
 1770TIP3    H126869   1.761   5.831   7.221 -0.7812  1.2700  1.7863
 1770TIP3    H226870   1.611   5.816   7.202 -0.8289  0.4136  2.7387
 1771TIP3   OH226871   2.219   3.877   6.977  0.2963 -0.5346 -0.0437
 1771TIP3    H126872   2.249   3.823   6.904  0.2706 -0.2853 -0.2372
 1771TIP3    H226873   2.284   3.947   6.983  0.6435 -0.8971  0.5632
 1772TIP3   OH226874   4.553   5.445   1.423  0.1523  0.1432  0.1640
 1772TIP3    H126875   4.597   5.457   1.339 -0.2617  1.4091  0.1008
 1772TIP3    H226876   4.618   5.471   1.488  0.2136 -0.0837  0.1942
 1773TIP3   OH226877   1.052   0.825   0.157  0.2658  0.5310 -0.2590
 1773TIP3    H126878   1.095   0.833   0.242  1.5683  0.7881 -0.9056
 1773TIP3    H226879   0.984   0.759   0.170  1.2822 -0.3692  0.6827
 1774TIP3   OH226880   0.844   5.733   7.281  0.0011 -0.0097  0.1285
 1774TIP3    H126881   0.764   5.734   7.333 -0.8434 -0.2456 -1.1382
 1774TIP3    H226882   0.878   5.644   7.290 -0.3253 -0.1457 -0.0023
 1775TIP3   OH226883   0.231   5.750   8.303  0.1039 -0.3605 -0.4382
 1775TIP3    H126884   0.180   5.759   8.222  1.3098  1.4335 -1.0465
 1775TIP3    H226885   0.229   5.837   8.342  2.5544 -0.2629 -0.4296
 1776TIP3   OH226886   2.832   3.018   7.779  0.1797  0.0967  0.2886
 1776TIP3    H126887   2.853   3.033   7.871 -0.8533 -4.6059  1.5648
 1776TIP3    H226888   2.899   2.957   7.749 -0.2342  0.5707 -1.7503
 1777TIP3   OH226889   4.482   4.016   7.600  0.2158  0.2426  0.0301
 1777TIP3    H126890   4.455   4.108   7.609 -1.2672 -0.2188  0.4782
 1777TIP3    H226891   4.432   3.969   7.666  1.6008 -0.7975  0.3949
 1778TIP3   OH226892   3.514   3.313   6.849  0.1605 -0.2337  0.3107
 1778TIP3    H126893   3.441   3.330   6.790 -1.0436  1.9914  2.2763
 1778TIP3    H226894   3.590   3.353   6.806 -0.1509 -0.7597 -0.7848
 1779TIP3   OH226895   5.454   3.473   1.905  0.0449  0.0937  0.0414
 1779TIP3    H126896   5.421   3.383   1.902  0.2102  0.0376 -2.3105
 1779TIP3    H226897   5.520   3.473   1.974  1.3796 -2.1108 -1.1208
 1780TIP3   OH226898   3.879   3.505   7.895 -0.5532  0.4523  0.2467
 1780TIP3    H126899   3.804   3.533   7.947 -0.4857  0.9214  0.0954
 1780TIP3    H226900   3.885   3.410   7.910 -0.1031  0.6800  1.6646
 1781TIP3   OH226901   5.350   4.192   0.956  0.1392  0.3274  0.5921
 1781TIP3    H126902   5.385   4.103   0.967 -1.0082 -0.0006  1.8069
 1781TIP3    H226903   5.428   4.246   0.942  0.8206 -0.9240 -0.6777
 1782TIP3   OH226904   4.210   2.523   6.922 -0.4368 -0.2433  0.0884
 1782TIP3    H126905   4.195   2.553   6.832  0.4830 -1.0428 -0.3537
 1782TIP3    H226906   4.305   2.523   6.931 -0.5259  1.2934  1.6027
 1783TIP3   OH226907   6.376   5.988   7.561 -0.1105  0.2396  0.3972
 1783TIP3    H126908   6.320   6.064   7.577 -0.6288 -0.0077 -0.2113
 1783TIP3    H226909   6.433   5.983   7.638 -0.7570  0.6359  0.9047
 1784TIP3   OH226910   4.103   2.690   1.573  0.4668 -0.7973 -0.0908
 1784TIP3    H126911   4.110   2.709   1.667  0.5494 -0.5492 -0.1473
 1784TIP3    H226912   4.029   2.743   1.543  1.2147  0.0729 -0.4149
 1785TIP3   OH226913   2.320   3.649   7.667 -0.1179 -0.5239 -0.3165
 1785TIP3    H126914   2.259   3.589   7.710 -0.6834  0.2995  0.0718
 1785TIP3    H226915   2.377   3.593   7.615 -1.0421 -1.3372 -0.4717
 1786TIP3   OH226916   5.457   4.859   1.207  0.5186  0.1170  0.0024
 1786TIP3    H126917   5.484   4.767   1.213  3.4492  0.9074  0.9989
 1786TIP3    H226918   5.384   4.866   1.268 -0.1610 -1.6500 -0.5472
 1787TIP3   OH226919   2.314   6.417   2.243 -0.4306  0.5792  0.0143
 1787TIP3    H126920   2.304   6.512   2.247 -0.9145  0.4868  1.7135
 1787TIP3    H226921   2.397   6.404   2.197 -0.8815  1.7727 -1.1922
 1788TIP3   OH226922   2.582   2.559   8.170  0.0991 -0.0150  0.8027
 1788TIP3    H126923   2.549   2.621   8.105  1.6820  1.7664  1.5944
 1788TIP3    H226924   2.629   2.493   8.118  2.4317  2.0535  0.0946
 1789TIP3   OH226925   0.278   3.529   1.298 -0.4580  0.1451 -0.3876
 1789TIP3    H126926   0.324   3.448   1.319 -0.7203  0.2430  0.6158
 1789TIP3    H226927   0.308   3.592   1.363 -1.9396  0.2337  0.2513
 1790TIP3   OH226928   4.094   3.239   1.752  0.2830  0.1388  0.1844
 1790TIP3    H126929   4.044   3.298   1.696  1.6683 -0.7260 -2.0556
 1790TIP3    H226930   4.028   3.179   1.789 -0.6650  0.7924 -0.4260
 1791TIP3   OH226931   0.833   3.659   0.528  0.2268  0.4384  0.1114
 1791TIP3    H126932   0.824   3.675   0.434  0.1627  0.2144  0.0781
 1791TIP3    H226933   0.845   3.564   0.535  1.2048  0.5653  0.2596
 1792TIP3   OH226934   3.528   4.711   1.994  0.5874  0.2010 -0.2846
 1792TIP3    H126935   3.446   4.698   1.947  0.4789  0.3697 -0.1441
 1792TIP3    H226936   3.502   4.733   2.083  0.7894  0.0510 -0.1867
 1793TIP3   OH226937   3.662   0.613   7.738 -0.5001 -0.3549 -0.7273
 1793TIP3    H126938   3.654   0.693   7.788 -1.0513 -0.7303 -0.1939
 1793TIP3    H226939   3.755   0.607   7.715  0.1550 -1.0869  1.8118
 1794TIP3   OH226940   6.127   1.769   6.704  0.0632  0.3775 -0.1189
 1794TIP3    H126941   6.045   1.800   6.743  0.2116  1.9817 -0.9565
 1794TIP3    H226942   6.116   1.674   6.697 -0.4910  0.1707  2.5144
 1795TIP3   OH226943   4.052   3.178   7.114  0.0158 -0.2625  0.2053
 1795TIP3    H126944   3.967   3.159   7.074 -1.1116  0.3619  2.1363
 1795TIP3    H226945   4.080   3.259   7.072 -0.2959 -0.5225 -0.5170
 1796TIP3   OH226946   6.311   1.439   7.772  0.0466  0.3672 -0.5749
 1796TIP3    H126947   6.328   1.476   7.859  0.1905  0.8436 -0.8066
 1796TIP3    H226948   6.227   1.395   7.781  0.0175  0.4892 -0.2194
 1797TIP3   OH226949   3.607   0.728   1.043 -1.0383  0.8383 -0.2746
 1797TIP3    H126950   3.651   0.685   0.970 -0.6353 -0.4341  0.6709
 1797TIP3    H226951   3.562   0.802   1.004 -2.3394 -0.8221 -2.1323
 1798TIP3   OH226952   3.594   0.857   7.606 -0.1895 -0.0660  0.5170
 1798TIP3    H126953   3.569   0.829   7.694 -1.4774  1.4587  0.6713
 1798TIP3    H226954   3.660   0.793   7.579 -1.1042 -1.6582  1.8446
 1799TIP3   OH226955   3.273   4.132   7.497  0.5854  0.0503  0.1362
 1799TIP3    H126956   3.227   4.109   7.417  2.7884 -2.0072 -0.6522
 1799TIP3    H226957   3.212   4.188   7.545 -1.8056 -0.7708 -1.7740
 1800TIP3   OH226958   6.629   3.749   1.645  0.5104  0.1449  0.0230
 1800TIP3    H126959   6.642   3.664   1.687 -0.1483  0.5170  0.9897
 1800TIP3    H226960   6.648   3.732   1.552  0.1226 -1.1151  0.1575
 1801TIP3   OH226961   0.806   1.994   0.506 -0.1371 -0.0559 -0.3913
 1801TIP3    H126962   0.717   1.982   0.539  0.6223 -0.0127  1.8670
 1801TIP3    H226963   0.806   1.950   0.421 -1.4783 -3.0038  0.9672
 1802TIP3   OH226964   4.202   1.152   7.131  0.2806  0.2781  0.2097
 1802TIP3    H126965   4.196   1.058   7.116  0.0889  0.3586 -0.2162
 1802TIP3    H226966   4.172   1.163   7.222 -0.8620  0.0584 -0.1239
 1803TIP3   OH226967   6.927   1.275   1.053  0.6317  0.4455 -0.3974
 1803TIP3    H126968   6.896   1.325   1.128 -0.4123 -1.1695  0.3025
 1803TIP3    H226969   7.006   1.321   1.025  0.3924  1.7659  0.9344
 1804TIP3   OH226970   0.029   2.298   0.012  0.0057 -0.5842 -0.8619
 1804TIP3    H126971   0.036   2.362   0.083 -2.1677 -0.4784 -0.6786
 1804TIP3    H226972   0.115   2.300  -0.030  1.0538  0.0352  1.1625
 1805TIP3   OH226973   5.826   2.088   7.682  0.3335 -0.3080  0.3430
 1805TIP3    H126974   5.877   2.047   7.751  0.7185 -0.6617 -0.1406
 1805TIP3    H226975   5.744   2.039   7.681  0.6091 -0.7679  0.0786
 1806TIP3   OH226976   1.570   4.498   8.024 -0.6668  0.1819  0.4588
 1806TIP3    H126977   1.492   4.487   7.969 -0.8006  1.2685  0.4059
 1806TIP3    H226978   1.552   4.578   8.074 -0.0638 -0.1805  1.2748
 1807TIP3   OH226979   6.268   3.846   0.470  0.2053 -0.3648  0.1262
 1807TIP3    H126980   6.336   3.856   0.536 -0.7262  2.0232  0.8700
 1807TIP3    H226981   6.191   3.818   0.520 -0.5094  1.4751  0.1621
 1808TIP3   OH226982   1.091   5.804   0.779  0.2057 -0.3498  0.2810
 1808TIP3    H126983   1.036   5.882   0.774  2.4623  1.2326 -1.4005
 1808TIP3    H226984   1.109   5.794   0.873 -0.8049  0.5980  0.6025
 1809TIP3   OH226985   6.396   1.236   2.733  0.4345  0.1926  0.4350
 1809TIP3    H126986   6.362   1.184   2.806  0.5730  0.3318  0.6017
 1809TIP3    H226987   6.387   1.180   2.657  0.7541 -0.1461  0.6454
 1810TIP3   OH226988   3.036   1.523   1.225 -0.4961 -0.5379 -0.1453
 1810TIP3    H126989   3.033   1.598   1.284  0.0091 -0.7413  0.1492
 1810TIP3    H226990   2.947   1.488   1.226 -0.6746 -0.0901 -0.0962
 1811TIP3   OH226991   2.939   3.678   0.605 -0.3690 -0.2279 -0.8640
 1811TIP3    H126992   2.880   3.749   0.629  0.4071  0.7777 -1.8425
 1811TIP3    H226993   2.930   3.615   0.676  0.3944  1.7567  1.1248
 1812TIP3   OH226994   6.096   4.249   1.540 -0.0583  0.3779  0.6751
 1812TIP3    H126995   6.027   4.221   1.600 -0.6872  1.1762  0.3541
 1812TIP3    H226996   6.068   4.336   1.511  0.5642  0.2786 -0.2627
 1813TIP3   OH226997   5.938   3.938   0.394  0.3075  0.1089 -0.4623
 1813TIP3    H126998   5.851   3.975   0.402  0.6407  1.4812 -2.4872
 1813TIP3    H226999   5.967   3.962   0.306  2.8310 -0.0723  0.2359
 1814TIP3   OH227000   3.503   6.855   7.797 -0.0955 -0.5030 -0.0279
 1814TIP3    H127001   3.587   6.813   7.776 -0.3910 -1.7144  1.0820
 1814TIP3    H227002   3.437   6.794   7.763 -0.5287 -0.5758  0.9104
 1815TIP3   OH227003   5.579   0.159   0.629  0.0838 -0.2407 -0.0167
 1815TIP3    H127004   5.525   0.190   0.556  0.3876  0.8639  0.2106
 1815TIP3    H227005   5.528   0.180   0.707 -0.4320 -1.7968  0.1021
 1816TIP3   OH227006   2.973   1.447   2.608  0.2557 -0.1621  0.5310
 1816TIP3    H127007   3.041   1.406   2.661 -1.1425 -1.1413  1.6387
 1816TIP3    H227008   2.896   1.449   2.664 -0.7496  0.5564 -0.8085
 1817TIP3   OH227009   6.050   4.216   7.608  0.5333 -0.7375  0.5305
 1817TIP3    H127010   5.958   4.192   7.618  0.0614 -0.8063 -2.8413
 1817TIP3    H227011   6.050   4.312   7.605  0.6037 -0.7297  0.7924
 1818TIP3   OH227012   1.106   3.490   7.773 -0.5271  0.3688 -0.9619
 1818TIP3    H127013   1.173   3.544   7.814  1.7469 -1.2206 -2.3004
 1818TIP3    H227014   1.093   3.417   7.834  1.4116 -0.9696 -2.0262
 1819TIP3   OH227015   2.917   6.248   1.595  0.0424 -0.1708 -0.2488
 1819TIP3    H127016   2.931   6.175   1.655  1.9548  0.3676  0.0067
 1819TIP3    H227017   2.897   6.206   1.511  2.8145 -1.0895 -0.5291
 1820TIP3   OH227018   1.593   5.295   1.366  0.2770 -0.0356 -0.5736
 1820TIP3    H127019   1.535   5.244   1.422  1.1030 -0.2268  0.1444
 1820TIP3    H227020   1.654   5.231   1.329  2.5880  0.5282  1.8760
 1821TIP3   OH227021   5.259   4.597   1.607  0.1769 -0.6960  0.1125
 1821TIP3    H127022   5.288   4.510   1.578 -1.4993 -0.9156 -1.0035
 1821TIP3    H227023   5.338   4.651   1.602  0.4167 -1.1879 -3.1399
 1822TIP3   OH227024   0.953   4.702   8.228 -0.4274  0.1172  0.3305
 1822TIP3    H127025   0.976   4.778   8.281 -1.6283  0.6786  0.0871
 1822TIP3    H227026   1.011   4.708   8.152 -2.1728  2.2835 -0.9618
 1823TIP3   OH227027   3.146   6.004   2.215 -0.3403  0.3714  0.5302
 1823TIP3    H127028   3.068   5.953   2.233 -0.2838  0.4842  1.0906
 1823TIP3    H227029   3.114   6.092   2.196 -0.5107 -0.0449 -1.2919
 1824TIP3   OH227030   6.053   2.577   2.431 -0.0377 -0.3483  0.4754
 1824TIP3    H127031   5.986   2.643   2.413  0.4605  0.2221  0.6788
 1824TIP3    H227032   6.004   2.498   2.453 -0.6441  0.0785  0.6760
 1825TIP3   OH227033   2.599   2.841   0.156  0.0830 -0.0659 -0.2923
 1825TIP3    H127034   2.582   2.749   0.135  1.2872 -0.1589 -0.9412
 1825TIP3    H227035   2.679   2.862   0.108 -0.2715  1.3765 -0.2816
 1826TIP3   OH227036   2.101   2.753   7.906  0.2520 -0.2675  0.3198
 1826TIP3    H127037   2.146   2.704   7.974 -1.3919  0.3020  1.8905
 1826TIP3    H227038   2.038   2.808   7.953  0.1237  1.3180 -1.5532
 1827TIP3   OH227039   3.353   6.158   6.997  0.1037 -0.4118  0.0628
 1827TIP3    H127040   3.347   6.159   6.902  0.9368  0.1366 -0.0045
 1827TIP3    H227041   3.269   6.125   7.027 -1.2725  2.0421 -0.7849
 1828TIP3   OH227042   1.391   6.484   7.744  0.0184  0.1249 -0.2218
 1828TIP3    H127043   1.487   6.488   7.740  0.0137  1.7447  0.5585
 1828TIP3    H227044   1.364   6.571   7.773 -1.6084 -0.7778  1.1428
 1829TIP3   OH227045   0.504   6.959   7.994  0.3944 -0.4366  0.4234
 1829TIP3    H127046   0.537   6.914   7.916  0.6287 -0.1660  0.3686
 1829TIP3    H227047   0.442   7.024   7.960  1.1339  0.2679  0.3942
 1830TIP3   OH227048   5.990   2.039   7.180  0.0797 -0.0117  0.0715
 1830TIP3    H127049   6.007   2.033   7.274 -0.3700 -2.0259  0.0648
 1830TIP3    H227050   5.947   1.956   7.158  0.1500  0.4316 -1.9105
 1831TIP3   OH227051   1.380   4.582   0.676 -0.2363 -0.3641  0.1462
 1831TIP3    H127052   1.475   4.571   0.678 -0.2640 -0.5464  0.6159
 1831TIP3    H227053   1.367   4.674   0.654  0.0173 -0.8634 -2.4278
 1832TIP3   OH227054   2.458   3.381   2.779 -0.1306  0.0788  0.3313
 1832TIP3    H127055   2.549   3.366   2.756 -0.3756  0.4599 -0.9568
 1832TIP3    H227056   2.458   3.465   2.826 -0.0384  1.1136 -1.4271
 1833TIP3   OH227057   2.287   0.738   1.082 -0.4205 -0.1014  0.3636
 1833TIP3    H127058   2.225   0.675   1.119 -0.8344 -0.3913 -0.7734
 1833TIP3    H227059   2.369   0.690   1.074 -0.1557  0.1537  1.4775
 1834TIP3   OH227060   5.789   5.699   7.484 -0.3759 -0.1168 -0.0756
 1834TIP3    H127061   5.749   5.709   7.571  0.6362 -0.0519  0.3928
 1834TIP3    H227062   5.725   5.647   7.435 -0.6298 -0.7978  0.9436
 1835TIP3   OH227063   4.485   1.428   0.828  0.0652  0.0474  0.0979
 1835TIP3    H127064   4.470   1.334   0.820 -0.1206 -0.0123  1.0261
 1835TIP3    H227065   4.412   1.460   0.882 -0.1541  0.8128 -0.6311
 1836TIP3   OH227066   3.786   3.143   7.006  0.9007  0.8643  0.0255
 1836TIP3    H127067   3.796   3.159   6.912  2.7907  1.5273  0.3056
 1836TIP3    H227068   3.692   3.152   7.021  0.3238 -0.8221 -2.0543
 1837TIP3   OH227069   5.267   2.368   2.542  0.2797 -0.7844 -0.0220
 1837TIP3    H127070   5.180   2.403   2.562  0.7620  1.1798 -1.1337
 1837TIP3    H227071   5.253   2.306   2.470 -0.5147 -2.6769  1.6438
 1838TIP3   OH227072   6.782   4.298   2.486 -0.2842  0.1442 -0.1870
 1838TIP3    H127073   6.849   4.344   2.537 -0.0875 -1.0565  0.7021
 1838TIP3    H227074   6.709   4.286   2.547  0.9001 -3.5551  0.8195
 1839TIP3   OH227075   1.074   1.503   0.736 -0.2230  0.1897 -0.2760
 1839TIP3    H127076   1.111   1.476   0.652  0.0190 -0.5336  0.0555
 1839TIP3    H227077   1.074   1.423   0.789  0.6658  0.8784  0.7931
 1840TIP3   OH227078   0.536   1.475   0.901  0.2384 -0.9218  0.0283
 1840TIP3    H127079   0.477   1.520   0.962  0.9837 -0.4482  0.4125
 1840TIP3    H227080   0.491   1.481   0.816  0.3889  0.7300  0.0341
 1841TIP3   OH227081   1.315   6.038   0.499 -0.5312 -0.5269  0.1274
 1841TIP3    H127082   1.292   5.967   0.439 -0.8556 -0.1620 -0.1802
 1841TIP3    H227083   1.241   6.097   0.496  0.1381  0.3020 -0.3218
 1842TIP3   OH227084   5.892   4.661   1.251 -0.0549 -0.0157  0.1248
 1842TIP3    H127085   5.893   4.574   1.210 -0.8942  0.1249 -0.1962
 1842TIP3    H227086   5.825   4.709   1.204  0.0233  0.6365  0.6751
 1843TIP3   OH227087   3.071   4.913   2.429  0.4376  0.0150  0.5947
 1843TIP3    H127088   3.065   4.979   2.361  0.3323 -0.3975  0.1987
 1843TIP3    H227089   3.122   4.842   2.390 -0.4714 -0.6559  0.5867
 1844TIP3   OH227090   3.512   1.094   7.870 -0.2548  0.8440 -0.1159
 1844TIP3    H127091   3.574   1.157   7.834 -0.3236 -0.2830 -2.3767
 1844TIP3    H227092   3.464   1.143   7.937  1.6620  2.3125  0.2801
 1845TIP3   OH227093   3.442   4.348   8.249 -0.2191 -0.3449  0.3525
 1845TIP3    H127094   3.532   4.356   8.282  0.1202  0.7255 -0.7628
 1845TIP3    H227095   3.452   4.312   8.161 -0.8219  0.3467 -0.0142
 1846TIP3   OH227096   0.359   3.253   7.405  0.2562  0.0137 -0.1214
 1846TIP3    H127097   0.382   3.184   7.467 -1.8921  0.5986  1.4454
 1846TIP3    H227098   0.265   3.242   7.390 -0.0291  2.1678 -0.3241
 1847TIP3   OH227099   1.679   6.518   1.917 -0.0520 -1.4119  0.8522
 1847TIP3    H127100   1.602   6.494   1.968 -2.6218 -2.0644 -2.8998
 1847TIP3    H227101   1.702   6.439   1.869  1.9672 -0.7756  0.6979
 1848TIP3   OH227102   3.881   1.850   1.748 -0.0088 -0.0902 -0.3399
 1848TIP3    H127103   3.968   1.880   1.772 -0.4278  0.5944  0.3830
 1848TIP3    H227104   3.835   1.929   1.720 -0.4742 -0.4028 -0.4774
 1849TIP3   OH227105   0.704   4.337   8.151  0.1968  0.0046  0.2459
 1849TIP3    H127106   0.717   4.348   8.245 -1.2335 -2.7333  0.8750
 1849TIP3    H227107   0.621   4.381   8.134 -0.6604 -1.3209  0.7819
 1850TIP3   OH227108   0.711   3.315   7.827  0.1460 -0.5104  0.4844
 1850TIP3    H127109   0.711   3.379   7.898 -2.6857  0.2433 -0.0608
 1850TIP3    H227110   0.734   3.366   7.749 -0.5821 -0.4707  0.2887
 1851TIP3   OH227111   1.003   3.360   2.019 -1.5063 -0.6617 -0.1242
 1851TIP3    H127112   0.958   3.415   2.083 -1.3535 -0.1693 -0.4379
 1851TIP3    H227113   1.093   3.392   2.018 -0.5203 -2.9708  2.0432
 1852TIP3   OH227114   1.715   4.887   8.006 -0.1809  0.2402  0.4648
 1852TIP3    H127115   1.681   4.865   7.919  0.4727 -1.4966  0.6037
 1852TIP3    H227116   1.808   4.900   7.993 -0.1929  0.6677  0.7979
 1853TIP3   OH227117   4.752   6.270   7.164  0.0788  0.2846 -0.0637
 1853TIP3    H127118   4.692   6.241   7.095 -0.7738 -0.4236  0.9362
 1853TIP3    H227119   4.704   6.253   7.245  1.2784  0.5744  0.7251
 1854TIP3   OH227120   3.893   4.474   2.513  0.3963  0.1861  0.5651
 1854TIP3    H127121   3.898   4.384   2.547 -0.3808 -0.6982 -1.4978
 1854TIP3    H227122   3.887   4.463   2.418  1.5230  2.4918  0.1660
 1855TIP3   OH227123   3.827   1.601   1.675 -0.1186 -0.1520  0.0035
 1855TIP3    H127124   3.876   1.673   1.716 -0.0952 -0.0655 -0.1734
 1855TIP3    H227125   3.768   1.645   1.613 -0.4220 -0.2559  0.2159
 1856TIP3   OH227126   5.119   1.536   6.879  0.1310 -0.0833  0.2473
 1856TIP3    H127127   5.152   1.466   6.823 -0.1101 -1.0458  1.2891
 1856TIP3    H227128   5.155   1.616   6.840  1.2915 -0.8637 -0.3371
 1857TIP3   OH227129   6.331   6.045   7.274  0.0497 -0.0333  0.0260
 1857TIP3    H127130   6.405   6.072   7.219  1.5298 -1.4391  1.2166
 1857TIP3    H227131   6.369   6.035   7.361 -1.3498 -1.7174  0.4829
 1858TIP3   OH227132   5.722   5.263   7.945 -0.2878  0.4501 -0.3025
 1858TIP3    H127133   5.719   5.340   8.002  0.4339  0.4958 -0.3239
 1858TIP3    H227134   5.748   5.297   7.860 -0.0022  0.1854 -0.3214
 1859TIP3   OH227135   5.200   1.965   2.584  0.3230  0.0821  0.1937
 1859TIP3    H127136   5.271   2.027   2.598  0.8188 -0.4575  0.0944
 1859TIP3    H227137   5.126   2.019   2.556  0.5820  0.6877  0.6656
 1860TIP3   OH227138   6.497   4.541   7.933 -0.0076 -0.6005 -0.0606
 1860TIP3    H127139   6.432   4.598   7.972  1.4322  0.8657  0.2964
 1860TIP3    H227140   6.446   4.472   7.890 -1.7417  0.1115  0.7674
 1861TIP3   OH227141   0.037   0.121   1.789 -0.2103  0.4419  0.3314
 1861TIP3    H127142  -0.039   0.158   1.833 -0.7084  1.3490 -1.2074
 1861TIP3    H227143   0.064   0.188   1.727  0.1457 -0.9418 -1.0826
 1862TIP3   OH227144   4.195   3.356   7.831  0.0953 -0.0713  0.1881
 1862TIP3    H127145   4.114   3.322   7.868 -0.5263  0.1907 -0.9014
 1862TIP3    H227146   4.170   3.437   7.787  0.7009 -0.6092 -1.1943
 1863TIP3   OH227147   4.534   0.142   7.779  0.2454  0.0453  0.1225
 1863TIP3    H127148   4.498   0.053   7.772  1.2392 -0.3427 -0.2144
 1863TIP3    H227149   4.464   0.199   7.749 -0.0644 -0.6968 -0.5883
 1864TIP3   OH227150   3.643   0.104   7.576 -0.0703  0.0939 -0.1200
 1864TIP3    H127151   3.640   0.198   7.556  1.0188  0.5220  1.5548
 1864TIP3    H227152   3.552   0.076   7.574 -0.7404  1.8391  2.1053
 1865TIP3   OH227153   1.063   1.025   7.627  0.2302  0.0088  0.4552
 1865TIP3    H127154   1.034   1.114   7.645 -0.2759 -0.3214  1.3355
 1865TIP3    H227155   1.005   0.994   7.558 -1.0691 -0.3775  1.6648
 1866TIP3   OH227156   2.622   4.554   0.569  0.1532 -0.3089  0.7147
 1866TIP3    H127157   2.603   4.632   0.517  0.4427 -0.5869  0.1806
 1866TIP3    H227158   2.614   4.482   0.507  0.8586 -0.6109  0.9679
 1867TIP3   OH227159   6.999   5.445   2.125  0.1352 -0.4465 -0.0403
 1867TIP3    H127160   6.980   5.475   2.214  0.8369  0.8826 -0.3144
 1867TIP3    H227161   7.080   5.394   2.134  0.9299  0.7606 -0.0732
 1868TIP3   OH227162   4.481   3.298   1.458  0.0642  0.3398  0.1134
 1868TIP3    H127163   4.511   3.375   1.410  0.6138  0.8918  1.2721
 1868TIP3    H227164   4.560   3.245   1.470  0.1429  0.6508  1.1437
 1869TIP3   OH227165   3.668   1.592   7.028 -0.1775  0.4626  0.1641
 1869TIP3    H127166   3.752   1.617   6.989 -0.7620 -0.2837 -1.6830
 1869TIP3    H227167   3.689   1.515   7.081  0.1425 -0.3947 -1.1701
 1870TIP3   OH227168   4.979   2.606   1.767  0.0549  0.2335 -0.5882
 1870TIP3    H127169   4.999   2.538   1.831  1.1065 -0.6757 -1.8068
 1870TIP3    H227170   5.046   2.673   1.781 -1.4692  1.4623  1.1527
 1871TIP3   OH227171   3.093   3.348   8.331  0.5627  0.2131 -0.0225
 1871TIP3    H127172   3.125   3.435   8.355  0.5038 -0.0277  0.9544
 1871TIP3    H227173   3.007   3.342   8.372  0.3706 -0.1429 -0.4664
 1872TIP3   OH227174   0.692   5.529   6.911  0.6558  0.0958 -0.0088
 1872TIP3    H127175   0.685   5.594   6.842  1.2856  0.5197  0.3228
 1872TIP3    H227176   0.679   5.445   6.867  0.0409  0.4248 -0.4687
 1873TIP3   OH227177   0.601   4.091   1.861  0.1478  0.2252 -0.5871
 1873TIP3    H127178   0.646   4.092   1.777  0.2528  0.3089 -0.5304
 1873TIP3    H227179   0.608   4.001   1.892  0.3435  0.2551 -0.5422
 1874TIP3   OH227180   3.498   0.305   7.036 -0.5832  0.2499  0.3650
 1874TIP3    H127181   3.549   0.268   7.108 -0.2144 -1.2536 -0.6043
 1874TIP3    H227182   3.407   0.288   7.060 -0.4212 -2.6002 -0.5919
 1875TIP3   OH227183   3.235   0.932   1.566 -0.3484 -0.2177 -0.2541
 1875TIP3    H127184   3.315   0.951   1.615  0.4643 -1.1048 -1.1967
 1875TIP3    H227185   3.179   1.008   1.582 -0.1040 -0.4451  1.9738
 1876TIP3   OH227186   2.584   5.909   6.669  0.2831 -0.5923 -0.0874
 1876TIP3    H127187   2.531   5.897   6.590  1.0546 -1.0731 -0.5426
 1876TIP3    H227188   2.651   5.972   6.644  0.5692 -0.7946  0.1580
 1877TIP3   OH227189   1.140   2.212   1.741 -0.7255 -0.1567 -0.0302
 1877TIP3    H127190   1.135   2.195   1.647  0.4443  0.6951 -0.2624
 1877TIP3    H227191   1.191   2.138   1.776  0.3714  0.4190 -0.3525
 1878TIP3   OH227192   3.870   0.075   0.152  0.4685  0.1407 -0.1322
 1878TIP3    H127193   3.836   0.144   0.208 -0.3688  0.2827 -0.7908
 1878TIP3    H227194   3.805   0.005   0.157  0.5413  0.0274 -0.6648
 1879TIP3   OH227195   0.591   4.124   0.622  0.3590  0.0095  0.3205
 1879TIP3    H127196   0.608   4.147   0.713  2.4241  1.8637 -0.4478
 1879TIP3    H227197   0.671   4.080   0.594 -0.5907 -1.3102 -0.3980
 1880TIP3   OH227198   2.787   6.210   0.249  0.0350 -0.0857  0.4145
 1880TIP3    H127199   2.704   6.165   0.235  0.5102 -1.1486  0.9221
 1880TIP3    H227200   2.850   6.140   0.266  1.3255  0.5855 -1.2765
 1881TIP3   OH227201   0.115   2.272   1.011 -0.2561 -0.6987 -0.2957
 1881TIP3    H127202   0.178   2.205   1.038 -1.0148 -1.3691 -0.1459
 1881TIP3    H227203   0.111   2.333   1.084  2.3501  0.9803 -1.4279
 1882TIP3   OH227204   3.948   1.106   1.179 -0.0295 -0.3927 -0.0700
 1882TIP3    H127205   4.013   1.039   1.158 -0.3058 -0.5789 -0.3266
 1882TIP3    H227206   3.942   1.103   1.275 -1.0215 -1.6689 -0.1530
 1883TIP3   OH227207   3.120   4.444   0.276 -0.2988  0.3364  0.1588
 1883TIP3    H127208   3.175   4.438   0.197 -0.5342 -0.6164  0.0557
 1883TIP3    H227209   3.158   4.381   0.337 -2.1106 -1.4504 -0.4497
 1884TIP3   OH227210   4.471   5.640   2.047 -0.8449  0.1070 -0.2136
 1884TIP3    H127211   4.408   5.590   2.101 -1.1307  1.1189  0.4179
 1884TIP3    H227212   4.492   5.717   2.101 -0.8777  0.9767 -1.4181
 1885TIP3   OH227213   5.995   3.361   0.351 -0.1999 -0.4325  0.7569
 1885TIP3    H127214   6.028   3.449   0.333  0.3334 -0.6881  0.4816
 1885TIP3    H227215   5.999   3.354   0.447 -1.4344  0.2974  0.8812
 1886TIP3   OH227216   2.994   2.216   7.718 -0.5742  0.2647 -0.1528
 1886TIP3    H127217   3.026   2.260   7.797  0.6339 -0.2057 -0.3595
 1886TIP3    H227218   2.900   2.235   7.717 -0.2399  2.1792  0.1795
 1887TIP3   OH227219   6.783   4.129   0.894 -0.1763  0.1624 -0.0995
 1887TIP3    H127220   6.696   4.112   0.931  0.0064  0.1133  0.3052
 1887TIP3    H227221   6.843   4.120   0.968  0.1374  0.5433 -0.3051
 1888TIP3   OH227222   5.035   3.831   1.670 -0.3002 -0.3251  0.6267
 1888TIP3    H127223   5.001   3.749   1.705  0.2457 -0.3508  1.1282
 1888TIP3    H227224   5.005   3.898   1.732 -1.3509 -0.0333 -0.1630
 1889TIP3   OH227225   0.789   0.854   7.151 -0.0910  0.2553  0.3627
 1889TIP3    H127226   0.815   0.946   7.154  1.7808 -0.2424  3.2121
 1889TIP3    H227227   0.863   0.810   7.110  0.0803 -0.2343  1.1784
 1890TIP3   OH227228   3.563   7.000   8.163 -0.1810 -0.0741 -0.0395
 1890TIP3    H127229   3.650   6.971   8.135  0.5922  1.2297  0.8982
 1890TIP3    H227230   3.552   7.086   8.122 -0.7925  0.0201  0.3161
 1891TIP3   OH227231   6.236   4.330   6.871 -0.7280  0.7912  0.1634
 1891TIP3    H127232   6.322   4.358   6.838 -0.3299 -2.3210 -1.8491
 1891TIP3    H227233   6.239   4.350   6.965  3.3897 -1.5108  0.7892
 1892TIP3   OH227234   6.298   6.426   2.347  0.5197 -0.0106 -0.1350
 1892TIP3    H127235   6.229   6.485   2.317 -0.7181 -0.7134  1.2472
 1892TIP3    H227236   6.359   6.483   2.394  0.6180  0.5229 -0.8767
 1893TIP3   OH227237   6.960   2.284   7.400  0.7420 -0.8773 -0.4737
 1893TIP3    H127238   6.983   2.235   7.321  3.4108 -2.1533  0.9672
 1893TIP3    H227239   7.012   2.364   7.395  0.5437 -0.7303 -0.2397
 1894TIP3   OH227240   0.425   3.182   0.177 -0.1483 -0.1326 -0.6158
 1894TIP3    H127241   0.356   3.210   0.117 -2.2456 -0.9809  1.2663
 1894TIP3    H227242   0.452   3.262   0.222  0.4605  0.2750 -1.6723
 1895TIP3   OH227243   0.891   0.229   1.161 -0.4518 -0.4519  0.5497
 1895TIP3    H127244   0.900   0.139   1.193 -2.1290 -0.4518  1.1003
 1895TIP3    H227245   0.861   0.219   1.071  1.7128 -0.4200 -0.2425
 1896TIP3   OH227246   0.602   1.890   7.486  0.0837  0.8461 -0.0618
 1896TIP3    H127247   0.590   1.937   7.568 -0.9182  0.3758  0.0666
 1896TIP3    H227248   0.696   1.870   7.484  0.0167  0.2955  1.2817
 1897TIP3   OH227249   0.588   4.507   6.969 -0.2623 -0.3842 -0.6598
 1897TIP3    H127250   0.539   4.588   6.954 -0.8271 -0.6537 -0.2995
 1897TIP3    H227251   0.616   4.511   7.060 -0.6594 -0.7801 -0.5132
 1898TIP3   OH227252   6.343   2.570   0.993 -0.0823  0.8691 -0.1052
 1898TIP3    H127253   6.369   2.492   1.041  0.5128  1.9168  1.3204
 1898TIP3    H227254   6.261   2.597   1.034 -0.7765  0.5050 -1.1982
 1899TIP3   OH227255   6.238   3.351   1.146  0.0923 -0.0164  0.1922
 1899TIP3    H127256   6.285   3.403   1.211 -0.0813 -0.3010  0.5440
 1899TIP3    H227257   6.307   3.320   1.087  0.1845  0.7102 -0.1000
 1900TIP3   OH227258   1.312   1.229   1.238 -0.6188 -0.3845  0.0072
 1900TIP3    H127259   1.385   1.207   1.297 -0.2111  0.4515 -0.1785
 1900TIP3    H227260   1.238   1.178   1.272 -0.0253 -1.0179  0.3735
 1901TIP3   OH227261   4.378   4.246   0.395 -0.2392 -0.5541 -0.2246
 1901TIP3    H127262   4.406   4.171   0.447 -0.2922 -0.6654 -0.3546
 1901TIP3    H227263   4.368   4.211   0.306 -1.7465 -0.7514 -0.0011
 1902TIP3   OH227264   4.376   4.544   7.030 -0.0954 -0.1428  0.2489
 1902TIP3    H127265   4.356   4.465   7.081 -0.8421 -0.1389 -0.0178
 1902TIP3    H227266   4.403   4.511   6.944  0.5961 -0.1328  0.4588
 1903TIP3   OH227267   3.427   0.971   6.515 -0.8353  0.5500 -0.3810
 1903TIP3    H127268   3.490   1.042   6.522  0.1291 -0.2389 -0.8187
 1903TIP3    H227269   3.356   0.995   6.574 -0.1524  1.4840  0.0663
 1904TIP3   OH227270   3.609   5.501   1.393 -0.4764 -0.0870  0.3351
 1904TIP3    H127271   3.668   5.523   1.321 -1.7774  1.2328 -0.3678
 1904TIP3    H227272   3.555   5.429   1.359 -3.2464  2.5544 -1.3283
 1905TIP3   OH227273   0.061   1.225   2.312  0.3167 -0.5501 -0.6248
 1905TIP3    H127274   0.069   1.318   2.331  1.2122 -0.3644 -1.7677
 1905TIP3    H227275   0.152   1.194   2.305  0.0279 -1.4658 -0.4353
 1906TIP3   OH227276   2.093   6.233   8.039 -0.0017  0.4559 -0.1173
 1906TIP3    H127277   2.137   6.295   7.981  2.2475 -0.2853  0.6858
 1906TIP3    H227278   2.088   6.280   8.123  1.1948 -0.1991  0.3411
 1907TIP3   OH227279   4.362   3.031   2.593 -0.2102 -0.2402  0.4886
 1907TIP3    H127280   4.420   3.039   2.518 -0.4305 -0.5702  0.2783
 1907TIP3    H227281   4.399   3.088   2.659 -1.2482  1.8431 -0.6347
 1908TIP3   OH227282   4.083   5.251   1.305 -0.4385 -0.0503 -0.1293
 1908TIP3    H127283   4.160   5.296   1.340 -1.0607  1.2567 -0.3669
 1908TIP3    H227284   4.119   5.183   1.248  0.5394  0.3605 -0.0325
 1909TIP3   OH227285   3.867   6.965   7.038  0.3297 -0.3133 -0.2510
 1909TIP3    H127286   3.894   7.046   7.082 -1.3954  0.0146  0.2791
 1909TIP3    H227287   3.810   6.995   6.966 -1.9934 -1.0568  1.1637
 1910TIP3   OH227288   4.290   2.170   2.002 -0.3980 -0.5900 -0.4520
 1910TIP3    H127289   4.294   2.237   2.070 -0.2680  0.0924 -1.1144
 1910TIP3    H227290   4.292   2.087   2.049  3.5114 -0.2433  0.2854
 1911TIP3   OH227291   5.129   1.920   7.307  0.0283  0.0488 -0.3959
 1911TIP3    H127292   5.137   1.833   7.268 -0.1633  1.0101 -2.7223
 1911TIP3    H227293   5.052   1.914   7.364  1.6957 -2.0660  1.8574
 1912TIP3   OH227294   1.530   4.032   7.542  0.2251  0.0448  0.3786
 1912TIP3    H127295   1.445   4.022   7.499 -0.4463  1.4924  1.3010
 1912TIP3    H227296   1.552   3.944   7.573  1.0624 -1.2722 -3.3637
 1913TIP3   OH227297   6.494   3.256   2.104 -0.0135  0.0349 -0.4719
 1913TIP3    H127298   6.471   3.214   2.021 -0.3659 -0.3011 -0.2105
 1913TIP3    H227299   6.579   3.295   2.089  0.6195 -1.3099 -0.5466
 1914TIP3   OH227300   5.052   5.922   1.684 -0.2461 -0.2271 -0.1188
 1914TIP3    H127301   5.015   5.995   1.635 -0.9192 -0.6833 -0.3080
 1914TIP3    H227302   5.097   5.963   1.757 -2.9026  0.3276  1.3628
 1915TIP3   OH227303   3.302   1.576   6.327 -0.0591  0.4042 -0.0690
 1915TIP3    H127304   3.285   1.654   6.379 -0.1303  0.2993  0.0676
 1915TIP3    H227305   3.224   1.522   6.339  0.8513 -0.6319  1.5672
 1916TIP3   OH227306   5.736   0.777   0.685 -0.0297  0.0991 -0.0392
 1916TIP3    H127307   5.828   0.789   0.661  0.2689 -1.3900  0.2674
 1916TIP3    H227308   5.709   0.697   0.640 -1.2963  0.7131 -0.4099
 1917TIP3   OH227309   3.552   3.409   7.247 -0.4434 -0.1355 -0.1008
 1917TIP3    H127310   3.506   3.325   7.252 -0.9953  0.2222  1.1989
 1917TIP3    H227311   3.532   3.452   7.330  2.4995 -0.0842  0.6749
 1918TIP3   OH227312   5.126   3.909   6.626 -0.3824  0.1084  0.0732
 1918TIP3    H127313   5.068   3.851   6.577  0.8923 -1.6565  0.5504
 1918TIP3    H227314   5.214   3.878   6.604  0.3166  1.3756  0.9715
 1919TIP3   OH227315   5.592   1.703   0.579 -0.3386 -0.0828  0.4160
 1919TIP3    H127316   5.556   1.766   0.641  1.8078  2.6279 -0.8511
 1919TIP3    H227317   5.582   1.745   0.494 -1.0551 -2.6263 -0.8572
 1920TIP3   OH227318   3.177   6.786   1.025 -0.6252  0.2979 -0.4554
 1920TIP3    H127319   3.220   6.793   0.940  0.9600  0.3073  0.3134
 1920TIP3    H227320   3.241   6.742   1.081 -2.0812 -0.7748  0.4502
 1921TIP3   OH227321   5.195   5.501   1.514 -0.0311 -0.5554 -0.8814
 1921TIP3    H127322   5.187   5.432   1.447  0.0686 -1.2229 -0.2200
 1921TIP3    H227323   5.126   5.563   1.492 -0.4419 -1.1144 -1.2134
 1922TIP3   OH227324   5.409   3.669   7.943  0.4533  0.6839  0.5499
 1922TIP3    H127325   5.357   3.681   8.022  1.1632  0.5796  1.0444
 1922TIP3    H227326   5.457   3.587   7.959  0.4264  0.5399 -0.0907
 1923TIP3   OH227327   4.781   2.549   2.183  0.1979  0.3622  0.1120
 1923TIP3    H127328   4.802   2.457   2.197  0.4705  0.0584 -2.0334
 1923TIP3    H227329   4.687   2.555   2.202  0.4193 -0.0656  1.4573
 1924TIP3   OH227330   1.266   0.002   2.112 -0.4369 -0.4409  0.2750
 1924TIP3    H127331   1.276  -0.087   2.147  0.4262 -0.2982  0.4222
 1924TIP3    H227332   1.340   0.013   2.053 -0.6970  0.0825  0.0384
 1925TIP3   OH227333   6.657   6.999   1.143 -0.5501 -0.0892 -0.6809
 1925TIP3    H127334   6.564   6.987   1.159 -0.6312 -0.5640 -1.4400
 1925TIP3    H227335   6.698   6.991   1.230 -1.0344 -1.7671 -0.5775
 1926TIP3   OH227336   3.061   3.265   2.056  0.4729  0.0922  0.2620
 1926TIP3    H127337   3.085   3.198   2.120 -0.2651  0.7343  1.2295
 1926TIP3    H227338   3.144   3.288   2.014  0.7391 -1.4361 -0.1226
 1927TIP3   OH227339   1.238   3.009   0.423  0.2347 -0.4494 -0.5637
 1927TIP3    H127340   1.231   2.963   0.507  0.3656  0.5186 -0.0079
 1927TIP3    H227341   1.287   2.948   0.367  1.2710 -0.5899  0.4506
 1928TIP3   OH227342   2.230   4.122   0.061 -0.6997 -0.1677  0.1823
 1928TIP3    H127343   2.161   4.185   0.084  1.8371  3.4521 -1.1094
 1928TIP3    H227344   2.286   4.120   0.139 -1.2868 -1.7755  0.6004
 1929TIP3   OH227345   0.823   5.341   1.775  0.2413  0.1678 -0.3948
 1929TIP3    H127346   0.827   5.419   1.719  1.5210 -1.0831 -2.1373
 1929TIP3    H227347   0.908   5.340   1.820 -0.1151  0.2349  0.2933
 1930TIP3   OH227348   0.597   0.263   1.677  0.4717  0.0621  0.0716
 1930TIP3    H127349   0.566   0.269   1.768  0.5317 -2.2848  0.3083
 1930TIP3    H227350   0.682   0.306   1.678  0.3058  0.3947  1.0372
 1931TIP3   OH227351   3.052   3.980   0.309 -0.0633 -1.0335 -0.2682
 1931TIP3    H127352   3.013   4.010   0.391 -0.5983 -1.6241 -0.2988
 1931TIP3    H227353   2.999   4.021   0.240  0.2882 -0.6625 -0.3215
 1932TIP3   OH227354   5.228   4.603   7.784  0.1698 -0.3805  0.0104
 1932TIP3    H127355   5.250   4.688   7.823 -1.1830  0.3513 -0.7690
 1932TIP3    H227356   5.153   4.572   7.835  0.8541 -1.2954  0.5003
 1933TIP3   OH227357   3.083   2.831   7.594 -0.1091  0.7669 -0.0075
 1933TIP3    H127358   3.022   2.770   7.553  1.5697 -0.3802 -0.9045
 1933TIP3    H227359   3.089   2.904   7.533 -0.5812  0.8904  0.0912
 1934TIP3   OH227360   2.409   1.851   6.970 -0.1060  0.3488 -0.6401
 1934TIP3    H127361   2.455   1.783   6.920 -0.1046  0.6442 -1.0399
 1934TIP3    H227362   2.423   1.826   7.062  0.4834  0.1937 -0.7677
 1935TIP3   OH227363   4.445   5.176   7.372 -0.0668  0.5508 -0.4582
 1935TIP3    H127364   4.479   5.260   7.403  1.9644 -0.0306 -0.9275
 1935TIP3    H227365   4.514   5.142   7.315 -0.8597 -1.3994 -0.3382
 1936TIP3   OH227366   3.008   1.642   6.999 -0.4237 -0.1455  0.0691
 1936TIP3    H127367   3.074   1.603   6.941 -0.8346 -2.4314  1.0223
 1936TIP3    H227368   3.054   1.656   7.082  0.0915  2.8687 -0.6326
 1937TIP3   OH227369   2.455   5.098   1.697  0.1472  0.3288 -0.1354
 1937TIP3    H127370   2.447   5.014   1.744 -0.0128  0.7522  0.6179
 1937TIP3    H227371   2.550   5.111   1.689  0.2054  0.7043  0.9373
 1938TIP3   OH227372   2.925   2.926   1.484  0.4677 -0.0819 -0.0706
 1938TIP3    H127373   2.871   2.928   1.563 -1.2039 -3.5660 -0.9278
 1938TIP3    H227374   2.916   3.014   1.447  0.0952  1.1930  2.7887
 1939TIP3   OH227375   1.525   4.568   7.662  0.1816 -0.2976  0.4220
 1939TIP3    H127376   1.544   4.475   7.671 -0.5135 -0.6684 -1.3954
 1939TIP3    H227377   1.589   4.600   7.598 -1.3679 -0.2427 -1.1950
 1940TIP3   OH227378   6.983   6.853   7.675 -0.2593 -0.0530  0.2363
 1940TIP3    H127379   6.974   6.774   7.729 -0.8294  0.9810  1.7418
 1940TIP3    H227380   6.991   6.924   7.739 -0.9065  1.2384 -1.0678
 1941TIP3   OH227381   3.125   1.987   2.133 -0.1781 -0.4572 -0.7953
 1941TIP3    H127382   3.039   2.016   2.166 -0.3397 -0.7258 -0.9778
 1941TIP3    H227383   3.127   1.893   2.151  0.2253 -0.3859 -0.4731
 1942TIP3   OH227384   5.905   6.115   2.276  0.0650 -0.0570 -0.5785
 1942TIP3    H127385   5.860   6.105   2.193  1.3078  0.4035 -1.3396
 1942TIP3    H227386   5.836   6.112   2.342 -1.0670  0.6112 -1.6937
 1943TIP3   OH227387   2.088   3.784   1.587  0.1069  0.2243  0.2109
 1943TIP3    H127388   2.149   3.804   1.516  2.2242 -1.2369  1.5111
 1943TIP3    H227389   2.039   3.708   1.556  0.5209  0.0355  0.0078
 1944TIP3   OH227390   3.522   6.308   0.679 -0.0425 -0.7102  0.1115
 1944TIP3    H127391   3.596   6.334   0.624 -0.3666  0.0060  0.0050
 1944TIP3    H227392   3.503   6.385   0.732 -0.4762 -1.0140  0.4088
 1945TIP3   OH227393   6.629   1.345   8.180 -0.1708 -0.3282 -0.0591
 1945TIP3    H127394   6.627   1.337   8.085 -0.3701  1.3599 -0.2243
 1945TIP3    H227395   6.699   1.286   8.208 -0.1919 -0.9312 -1.2362
 1946TIP3   OH227396   6.906   3.640   0.445 -0.2572  0.2071  0.1545
 1946TIP3    H127397   6.911   3.646   0.540 -2.4568  0.5857  0.2919
 1946TIP3    H227398   6.885   3.728   0.416 -0.1157 -0.0133 -0.6592
 1947TIP3   OH227399   4.019   6.075   1.972 -0.1889  0.4176  0.3098
 1947TIP3    H127400   3.928   6.104   1.982 -0.3632 -0.5862  2.0842
 1947TIP3    H227401   4.014   5.979   1.972  0.6498  0.2873 -2.4494
 1948TIP3   OH227402   1.152   4.248   7.432 -0.4052 -0.2608 -0.6626
 1948TIP3    H127403   1.117   4.192   7.502 -1.5418  2.0452  0.7502
 1948TIP3    H227404   1.210   4.309   7.477  0.9867 -0.3996 -2.1883
 1949TIP3   OH227405   3.641   2.168   7.091  1.0820  0.6366 -0.2977
 1949TIP3    H127406   3.606   2.118   7.166 -1.4375 -0.1251 -1.8561
 1949TIP3    H227407   3.586   2.246   7.087  1.2691  0.7276 -1.2552
 1950TIP3   OH227408   1.107   4.498   1.497  0.0486 -1.0781  0.0006
 1950TIP3    H127409   1.105   4.549   1.578  0.0754 -0.7552 -0.2046
 1950TIP3    H227410   1.017   4.465   1.488  0.1897 -1.6196  0.4830
 1951TIP3   OH227411   1.752   1.392   0.142  0.5033 -0.0255 -0.1630
 1951TIP3    H127412   1.683   1.448   0.107 -0.0422 -0.0151  0.8776
 1951TIP3    H227413   1.763   1.324   0.076 -0.3160  0.1248 -0.4755
 1952TIP3   OH227414   4.091   5.585   0.033  0.6052  0.9261 -0.7429
 1952TIP3    H127415   4.112   5.491   0.034  0.2197  0.7995  1.5443
 1952TIP3    H227416   4.004   5.589  -0.008  0.9693  0.3963 -1.6036
 1953TIP3   OH227417   4.329   6.920   2.028  0.0440 -0.1983 -0.2913
 1953TIP3    H127418   4.237   6.929   2.007  0.4932  3.2705 -1.3591
 1953TIP3    H227419   4.330   6.865   2.106 -2.8064 -1.2000 -0.8531
 1954TIP3   OH227420   3.296   5.577   8.223  0.6622 -0.3778  0.4455
 1954TIP3    H127421   3.278   5.626   8.303  0.7010 -0.3060  0.4100
 1954TIP3    H227422   3.340   5.497   8.254 -0.4916 -0.9671  0.6068
 1955TIP3   OH227423   2.377   0.919   0.564  0.0788 -0.2623  0.0132
 1955TIP3    H127424   2.427   0.935   0.483 -1.4409  2.9015 -0.4527
 1955TIP3    H227425   2.299   0.873   0.535  0.3443 -0.6847 -0.0404
 1956TIP3   OH227426   1.075   3.100   7.832 -0.1883 -0.3874  0.1829
 1956TIP3    H127427   1.147   3.044   7.861 -1.0534 -2.1078 -0.7946
 1956TIP3    H227428   1.077   3.094   7.737 -1.0175  0.3428  0.1047
 1957TIP3   OH227429   0.851   3.453   2.964  0.1217  0.2247  0.6599
 1957TIP3    H127430   0.759   3.477   2.972  0.2155  0.9987 -0.4151
 1957TIP3    H227431   0.861   3.377   3.020 -0.9218  0.7958  1.6479
 1958TIP3   OH227432   5.535   0.318   2.485  0.6998  0.1590 -0.5951
 1958TIP3    H127433   5.622   0.314   2.526  0.5754  2.2466 -0.0119
 1958TIP3    H227434   5.529   0.238   2.433  2.1618 -1.0201  0.9341
 1959TIP3   OH227435   4.011   6.198   0.791 -0.1067  0.7435  0.1010
 1959TIP3    H127436   3.966   6.114   0.783  0.5184  0.3148  0.8889
 1959TIP3    H227437   4.026   6.226   0.700 -1.5380  0.6963 -0.1720
 1960TIP3   OH227438   2.817   2.241   0.188 -0.3862  0.0244 -0.1429
 1960TIP3    H127439   2.744   2.235   0.127  0.2706  2.4410 -1.2793
 1960TIP3    H227440   2.805   2.326   0.231  2.0564  0.8199 -0.8612
 1961TIP3   OH227441   3.911   6.612   2.868 -0.0239  0.1628 -0.0683
 1961TIP3    H127442   3.961   6.687   2.900  2.0145 -1.7764  1.6020
 1961TIP3    H227443   3.967   6.537   2.885 -3.2055 -2.1347  1.1323
 1962TIP3   OH227444   1.813   3.171   2.031 -0.0518  0.1484 -0.0326
 1962TIP3    H127445   1.849   3.106   1.971 -0.6271 -0.1945 -0.0171
 1962TIP3    H227446   1.828   3.135   2.118 -0.6233 -0.1042 -0.0345
 1963TIP3   OH227447   5.231   3.452   1.227 -0.3471 -0.0264 -0.5493
 1963TIP3    H127448   5.143   3.437   1.192 -1.3855  1.5221  1.1663
 1963TIP3    H227449   5.221   3.529   1.283  2.0054 -0.1406  0.1306
 1964TIP3   OH227450   1.128   2.773   7.581 -0.4034 -0.0543 -0.0989
 1964TIP3    H127451   1.179   2.833   7.635 -0.3677  0.9916 -1.2788
 1964TIP3    H227452   1.073   2.726   7.644 -1.2271  1.9714  0.7749
 1965TIP3   OH227453   2.549   1.488   1.843  0.0362  0.0698 -0.0621
 1965TIP3    H127454   2.486   1.474   1.913  0.3950 -1.1120  0.0331
 1965TIP3    H227455   2.589   1.403   1.828  0.7214  0.5310 -0.9839
 1966TIP3   OH227456   3.173   3.320   0.676  0.2006 -0.0630 -0.0584
 1966TIP3    H127457   3.084   3.337   0.707  0.2163  0.1309 -0.1189
 1966TIP3    H227458   3.170   3.338   0.582  0.8659  2.2623  0.3067
 1967TIP3   OH227459   3.257   4.391   0.530 -0.0281  0.4445  0.3076
 1967TIP3    H127460   3.330   4.330   0.517 -1.1081 -0.3489 -2.9908
 1967TIP3    H227461   3.300   4.475   0.551  1.5524 -0.8684  2.8013
 1968TIP3   OH227462   2.090   3.438   1.900 -0.0430  0.3641 -0.2916
 1968TIP3    H127463   2.058   3.355   1.936 -0.1621  0.7950  0.6456
 1968TIP3    H227464   2.067   3.503   1.967  1.5057  0.9152 -0.2646
 1969TIP3   OH227465   0.578   1.250   0.373  0.0547 -0.3168  0.2346
 1969TIP3    H127466   0.620   1.164   0.370 -2.1838 -1.4506 -0.4618
 1969TIP3    H227467   0.636   1.307   0.323  0.9254 -1.7158 -0.4068
 1970TIP3   OH227468   5.885   4.972   7.818  0.6347  0.1513  0.3605
 1970TIP3    H127469   5.934   5.045   7.857 -1.0225  0.5327  1.8951
 1970TIP3    H227470   5.898   4.899   7.879  0.5882 -0.2174 -0.0624
 1971TIP3   OH227471   3.226   6.221   0.961  0.0736  0.2922 -0.1467
 1971TIP3    H127472   3.220   6.303   0.911 -0.7744 -0.8460 -2.0275
 1971TIP3    H227473   3.314   6.223   0.999  0.2397  1.8610 -0.5407
 1972TIP3   OH227474   6.000   2.231   1.571  0.0768  0.6026 -0.1835
 1972TIP3    H127475   5.930   2.242   1.636  0.0120  1.3881 -0.3841
 1972TIP3    H227476   6.053   2.310   1.579  1.0761 -0.0833  0.1090
 1973TIP3   OH227477   2.286   1.795   0.207  0.4453  0.7912  0.3675
 1973TIP3    H127478   2.232   1.841   0.272  0.6554 -0.6737  1.6198
 1973TIP3    H227479   2.298   1.707   0.243  2.4613  0.6269 -0.5758
 1974TIP3   OH227480   5.018   2.233   1.354  0.1779 -0.1722  0.3340
 1974TIP3    H127481   4.926   2.243   1.379 -0.0131 -0.2699 -0.3144
 1974TIP3    H227482   5.061   2.206   1.434 -0.1564  0.9724  0.9330
 1975TIP3   OH227483   2.417   4.059   1.394  0.1491 -0.3791 -0.0051
 1975TIP3    H127484   2.326   4.069   1.420 -0.1658 -1.3271 -0.6995
 1975TIP3    H227485   2.467   4.106   1.461 -0.7595 -1.0989  1.2096
 1976TIP3   OH227486   3.225   4.011   8.241 -0.3364  0.1959 -0.7179
 1976TIP3    H127487   3.217   4.091   8.189  2.3743  0.9487 -0.1154
 1976TIP3    H227488   3.262   3.947   8.181  0.1591  0.2473 -0.4732
 1977TIP3   OH227489   0.562   5.041   6.436  0.0997  0.2869  0.0686
 1977TIP3    H127490   0.485   5.050   6.492  0.2849 -2.1231  0.8139
 1977TIP3    H227491   0.635   5.067   6.492 -0.0746  2.2523 -0.5373
 1978TIP3   OH227492   1.479   2.698   2.104  0.0077  0.1183  0.2288
 1978TIP3    H127493   1.422   2.653   2.041 -0.1384 -0.1642  0.5580
 1978TIP3    H227494   1.564   2.703   2.060 -0.0267 -0.3092  0.1087
 1979TIP3   OH227495   4.685   1.450   7.118  0.2375 -0.1074  0.2226
 1979TIP3    H127496   4.744   1.524   7.109 -0.0732  0.0274 -0.9381
 1979TIP3    H227497   4.723   1.382   7.061 -1.9169  0.8058 -2.5691
 1980TIP3   OH227498   0.156   1.545   7.163 -0.3081  0.3084  0.1311
 1980TIP3    H127499   0.154   1.600   7.085  1.5044  0.6267  0.2528
 1980TIP3    H227500   0.188   1.602   7.233  2.0242 -0.8946  0.1770
 1981TIP3   OH227501   0.717   1.110   7.709  0.0535 -0.2782 -0.0755
 1981TIP3    H127502   0.765   1.169   7.767  0.0570 -0.4751  0.1267
 1981TIP3    H227503   0.625   1.128   7.728  0.0495 -0.0405 -0.3194
 1982TIP3   OH227504   5.416   4.500   6.690 -0.0788  0.4527 -0.1758
 1982TIP3    H127505   5.327   4.534   6.682 -0.6845 -1.1692 -0.6870
 1982TIP3    H227506   5.411   4.440   6.765  0.6031  0.4122 -0.1614
 1983TIP3   OH227507   3.928   5.576   2.606 -0.1961  0.0902  0.4021
 1983TIP3    H127508   3.944   5.632   2.682  0.4178 -3.3439  3.1090
 1983TIP3    H227509   4.013   5.534   2.589 -0.9282 -1.1338 -0.4366
 1984TIP3   OH227510   3.415   0.399   8.223 -0.2828 -0.4016  0.4455
 1984TIP3    H127511   3.504   0.437   8.225  0.3560 -1.7706 -0.6063
 1984TIP3    H227512   3.419   0.332   8.155 -2.0862 -0.6406  0.5327
 1985TIP3   OH227513   4.883   6.093   1.560 -0.0389 -0.8238 -0.1260
 1985TIP3    H127514   4.932   6.124   1.483 -0.1979  0.4966  0.2800
 1985TIP3    H227515   4.796   6.131   1.549 -0.4153 -1.6025  0.1243
 1986TIP3   OH227516   6.623   6.868   1.542  0.0092  0.4486 -0.1942
 1986TIP3    H127517   6.643   6.962   1.541 -1.0987  0.7000  0.2902
 1986TIP3    H227518   6.548   6.860   1.601 -0.9918 -0.5349 -1.5574
 1987TIP3   OH227519   4.044   1.414   2.921  0.4338 -0.2455  0.1189
 1987TIP3    H127520   4.005   1.335   2.884 -1.6234 -0.4712  2.5595
 1987TIP3    H227521   3.987   1.485   2.892 -0.9998 -0.3852  2.3772
 1988TIP3   OH227522   1.034   2.623   2.377  0.1760  0.6101 -0.4076
 1988TIP3    H127523   0.970   2.576   2.431 -0.3022 -0.2829 -1.6995
 1988TIP3    H227524   0.983   2.692   2.334  0.4348  0.9487 -0.1763
 1989TIP3   OH227525   1.751   2.581   7.721 -0.0287  0.0650 -0.5349
 1989TIP3    H127526   1.702   2.499   7.713  1.3530 -0.6901 -1.9111
 1989TIP3    H227527   1.830   2.555   7.769 -0.5311  1.0729  0.8948
 1990TIP3   OH227528   1.875   6.719   1.085  0.2763 -0.2638 -0.2101
 1990TIP3    H127529   1.878   6.658   1.011 -1.0950 -1.2985  0.5420
 1990TIP3    H227530   1.798   6.774   1.068  0.5474  0.1691 -0.0555
 1991TIP3   OH227531   1.060   4.152   7.669  0.0162 -0.1265  0.1552
 1991TIP3    H127532   0.967   4.147   7.688 -0.1622  0.0106 -0.6332
 1991TIP3    H227533   1.093   4.063   7.683 -0.0773 -0.0058  1.1714
 1992TIP3   OH227534   5.209   3.225   6.556  0.5699 -0.2986 -0.3539
 1992TIP3    H127535   5.298   3.214   6.591 -0.0814 -1.4230  1.0169
 1992TIP3    H227536   5.210   3.177   6.473  0.5685 -2.5201  0.8576
 1993TIP3   OH227537   1.244   3.109   2.160 -0.7796  0.0831 -0.3653
 1993TIP3    H127538   1.260   3.015   2.167 -1.8414 -0.0709  0.1269
 1993TIP3    H227539   1.163   3.116   2.109 -1.6011  0.6549  0.9725
 1994TIP3   OH227540   1.966   1.939   6.802 -0.3054 -0.1863 -0.1718
 1994TIP3    H127541   2.007   1.853   6.810 -0.5266 -0.3222 -0.4930
 1994TIP3    H227542   2.016   1.984   6.734 -1.1154 -0.6109 -1.0720
 1995TIP3   OH227543   4.783   2.947   1.619 -0.1913 -0.1012  0.0422
 1995TIP3    H127544   4.844   2.873   1.612  0.7040  0.1339  3.4873
 1995TIP3    H227545   4.755   2.946   1.711 -2.1733  2.3412 -0.4275
 1996TIP3   OH227546   2.233   6.660   8.180 -0.3095  0.0411  0.5205
 1996TIP3    H127547   2.314   6.678   8.132 -0.5782 -0.1776 -0.0138
 1996TIP3    H227548   2.259   6.668   8.272 -0.0394  1.5583  0.3458
 1997TIP3   OH227549   2.190   0.448   1.917 -0.1439 -0.0337  0.0594
 1997TIP3    H127550   2.218   0.512   1.852 -0.7671  1.1958  0.9658
 1997TIP3    H227551   2.133   0.497   1.977 -0.9745 -1.5246  0.5536
 1998TIP3   OH227552   1.657   1.052   7.066  0.3526  0.3218 -0.3022
 1998TIP3    H127553   1.685   1.031   6.977  0.4980 -1.4123  0.1181
 1998TIP3    H227554   1.712   1.126   7.092  2.2705 -0.9035 -0.6747
 1999TIP3   OH227555   0.116   4.427   2.850  0.1215 -0.2918  0.9833
 1999TIP3    H127556   0.149   4.480   2.923 -0.8248  1.7723 -0.0067
 1999TIP3    H227557   0.181   4.439   2.780  0.1731 -0.9022  0.9169
 2000TIP3   OH227558   4.393   5.381   2.853  0.5441  1.2337 -0.5122
 2000TIP3    H127559   4.440   5.462   2.836  1.8794  0.2299 -1.9562
 2000TIP3    H227560   4.459   5.312   2.841  0.4017 -0.0114  3.9000
 2001TIP3   OH227561   2.392   3.769   1.441 -0.2801 -0.1626 -0.4332
 2001TIP3    H127562   2.416   3.861   1.449 -0.8972  0.3078 -3.0274
 2001TIP3    H227563   2.332   3.766   1.365 -1.4680 -2.4847  0.4818
 2002TIP3   OH227564   4.468   5.868   0.103  0.1931  0.0041 -0.2552
 2002TIP3    H127565   4.399   5.916   0.058 -1.4940 -1.0093  1.1268
 2002TIP3    H227566   4.460   5.778   0.069 -0.1719 -0.4478  0.9970
 2003TIP3   OH227567   5.951   5.915   7.290  0.2120  0.2335  0.3607
 2003TIP3    H127568   5.912   5.900   7.204 -1.5930  0.5405  1.0954
 2003TIP3    H227569   6.008   5.839   7.303 -0.6748 -0.6112 -0.4682
 2004TIP3   OH227570   0.783   2.545   2.638 -0.1279 -0.5486  0.1601
 2004TIP3    H127571   0.805   2.626   2.593  2.9624 -0.9121  0.8150
 2004TIP3    H227572   0.781   2.568   2.731 -0.5204 -0.9655  0.2596
 2005TIP3   OH227573   2.270   2.475   0.048  0.1201 -0.5309  0.5805
 2005TIP3    H127574   2.210   2.470   0.123  0.6079 -0.2471  0.9953
 2005TIP3    H227575   2.285   2.569   0.036  0.9501 -0.6205  0.8545
 2006TIP3   OH227576   1.154   3.826   6.681  0.4666  0.1364 -0.1560
 2006TIP3    H127577   1.208   3.772   6.624 -0.9432  0.1581 -1.5877
 2006TIP3    H227578   1.151   3.912   6.638  0.5611  0.6067  0.7340
 2007TIP3   OH227579   0.266   5.586   1.933  0.2104 -0.0021  0.2697
 2007TIP3    H127580   0.314   5.593   2.015 -0.2823 -1.6689  0.7451
 2007TIP3    H227581   0.193   5.648   1.941 -0.5216 -0.9827  1.6278
 2008TIP3   OH227582   3.952   3.744   6.885  0.0745  0.0164 -0.1607
 2008TIP3    H127583   4.037   3.787   6.874  0.3088 -0.1221  0.9612
 2008TIP3    H227584   3.934   3.705   6.799  2.3740 -2.1379  0.2239
 2009TIP3   OH227585   2.348   0.290   8.149 -0.1422 -0.3307 -0.0093
 2009TIP3    H127586   2.420   0.348   8.173  0.1062 -0.5604 -0.1803
 2009TIP3    H227587   2.298   0.279   8.230  0.4328 -0.7445  0.3047
 2010TIP3   OH227588   5.677   1.261   8.332  0.6143  0.2630  0.1702
 2010TIP3    H127589   5.681   1.252   8.428 -2.0991 -0.7729  0.2701
 2010TIP3    H227590   5.627   1.342   8.318 -1.0442 -0.7828 -0.2623
 2011TIP3   OH227591   4.482   5.775   1.362 -0.1596 -0.7001 -0.1338
 2011TIP3    H127592   4.562   5.762   1.312  0.4221 -1.9530  1.0687
 2011TIP3    H227593   4.418   5.715   1.323 -0.8051  0.8323 -1.5815
 2012TIP3   OH227594   1.577   0.585   1.157  0.6180  0.2054  0.3575
 2012TIP3    H127595   1.596   0.524   1.229  1.2584 -0.8621 -0.6847
 2012TIP3    H227596   1.654   0.642   1.154  1.7947 -1.3340 -1.0263
 2013TIP3   OH227597   6.792   0.322   8.310  0.8506 -0.0239  0.2480
 2013TIP3    H127598   6.851   0.264   8.263 -0.2621 -0.6066 -0.4936
 2013TIP3    H227599   6.782   0.398   8.252 -1.0552 -1.0391 -0.8815
 2014TIP3   OH227600   5.592   1.180   2.304 -0.0854  0.6986  0.3870
 2014TIP3    H127601   5.526   1.112   2.294 -0.3892  1.0015  0.3374
 2014TIP3    H227602   5.638   1.182   2.220  0.3437  0.1215  0.5991
 2015TIP3   OH227603   5.457   0.970   1.908  0.5044 -0.0055  0.2996
 2015TIP3    H127604   5.382   0.961   1.849 -0.3590 -0.3468  1.4188
 2015TIP3    H227605   5.514   1.033   1.864 -1.4073  1.9092  0.3790
 2016TIP3   OH227606   6.491   0.715   0.706  0.2302 -0.0722  0.3490
 2016TIP3    H127607   6.550   0.749   0.774 -0.2282 -0.8747  1.1785
 2016TIP3    H227608   6.470   0.626   0.735 -0.1507 -0.3570 -0.7456
 2017TIP3   OH227609   5.784   6.148   7.746 -0.5585 -0.2063 -0.4650
 2017TIP3    H127610   5.795   6.207   7.821 -1.8243 -0.0827 -0.3518
 2017TIP3    H227611   5.732   6.199   7.684 -1.1937 -1.0032 -0.5991
 2018TIP3   OH227612   6.963   1.732   2.432 -0.1268  0.0389  0.1052
 2018TIP3    H127613   6.974   1.803   2.369 -0.1682 -0.6288 -0.6695
 2018TIP3    H227614   6.873   1.741   2.463 -0.7043 -0.6766 -1.2625
 2019TIP3   OH227615   6.560   0.236   7.752 -0.4058 -0.0357  0.6605
 2019TIP3    H127616   6.556   0.332   7.749 -1.2420 -0.0717  0.5967
 2019TIP3    H227617   6.607   0.212   7.671  0.3231  0.3371  0.9596
 2020TIP3   OH227618   1.248   0.013   1.482 -0.1248  0.1392 -0.8215
 2020TIP3    H127619   1.239  -0.082   1.495  4.2952 -0.3767 -0.0802
 2020TIP3    H227620   1.316   0.040   1.544 -0.0589  3.5238 -2.1437
 2021TIP3   OH227621   4.148   1.243   7.965  0.0371 -0.1001 -0.2300
 2021TIP3    H127622   4.232   1.219   8.005 -0.1065  0.5922  0.4965
 2021TIP3    H227623   4.105   1.299   8.030 -1.7566 -1.8375  0.1980
 2022TIP3   OH227624   2.686   0.158   0.970  0.7403  0.0276  0.0618
 2022TIP3    H127625   2.609   0.212   0.953  0.6934  0.6962  2.0427
 2022TIP3    H227626   2.749   0.184   0.903 -0.3158  0.3860 -0.8228
 2023TIP3   OH227627   6.620   0.696   8.350 -0.3147  0.4949  0.9198
 2023TIP3    H127628   6.597   0.609   8.381 -2.1704  0.7909  0.5240
 2023TIP3    H227629   6.536   0.735   8.326  0.5738  2.0512  0.2113
 2024TIP3   OH227630   1.285   3.010   1.866 -0.4221 -0.3574 -0.4699
 2024TIP3    H127631   1.307   3.096   1.832 -1.7045 -0.6743 -2.1874
 2024TIP3    H227632   1.369   2.974   1.895  0.5798  0.3843 -2.2944
 2025TIP3   OH227633   5.477   5.975   2.396  0.7661  0.5033 -0.5007
 2025TIP3    H127634   5.550   5.914   2.410  0.1701  0.2699  2.1456
 2025TIP3    H227635   5.401   5.919   2.379  0.5982  0.5938 -0.0569
 2026TIP3   OH227636   5.447   6.312   7.199 -0.3680  0.9845 -0.2584
 2026TIP3    H127637   5.518   6.377   7.194 -0.5123  1.1291 -0.4593
 2026TIP3    H227638   5.481   6.244   7.257 -0.5906  1.7047  0.7377
 2027TIP3   OH227639   4.516   5.955   1.895 -0.0316  0.4195 -0.3135
 2027TIP3    H127640   4.495   5.876   1.846  0.6909  0.3674 -0.5539
 2027TIP3    H227641   4.544   5.923   1.981 -0.4883  0.4623 -0.1467
 2028TIP3   OH227642   1.649   1.901   1.422 -0.0193 -0.0528  0.1543
 2028TIP3    H127643   1.564   1.928   1.385 -0.4965 -0.2729  1.0597
 2028TIP3    H227644   1.687   1.845   1.354 -1.1584 -0.9659  0.2257
 2029TIP3   OH227645   1.477   0.392   0.807 -0.6387 -0.4471  0.8783
 2029TIP3    H127646   1.509   0.302   0.817  0.7408 -0.2081 -0.8011
 2029TIP3    H227647   1.546   0.446   0.846  0.6087  0.0290 -1.7920
 2030TIP3   OH227648   5.657   6.975   1.624  0.1679  0.1254 -0.5951
 2030TIP3    H127649   5.596   6.921   1.674 -0.7673 -0.7571 -2.5433
 2030TIP3    H227650   5.670   7.053   1.676 -0.1028 -1.0655  1.3478
 2031TIP3   OH227651   2.840   5.447   7.910 -0.1761 -0.4378  0.5176
 2031TIP3    H127652   2.771   5.476   7.970 -0.1159  2.8840 -0.8259
 2031TIP3    H227653   2.794   5.429   7.828  0.3124 -0.1682  0.1815
 2032TIP3   OH227654   1.307   6.768   1.525  0.5398  0.1940 -0.1448
 2032TIP3    H127655   1.369   6.725   1.584  1.8303  1.2511 -0.6646
 2032TIP3    H227656   1.345   6.756   1.437 -1.1190 -0.9801 -0.7484
 2033TIP3   OH227657   5.456   5.149   1.323  0.6043 -0.5148  0.4961
 2033TIP3    H127658   5.464   5.058   1.292  0.1588 -0.1157 -0.8673
 2033TIP3    H227659   5.520   5.197   1.271 -0.1747  0.1865  0.1728
 2034TIP3   OH227660   1.370   5.209   0.803  0.4939 -0.3829 -0.7242
 2034TIP3    H127661   1.338   5.220   0.714  0.8203  2.8836 -0.5663
 2034TIP3    H227662   1.305   5.253   0.858  1.5863 -0.0194  0.3465
 2035TIP3   OH227663   1.877   1.022   8.066  0.1071  0.0700  0.1649
 2035TIP3    H127664   1.814   1.026   7.994  1.7127  1.2651 -1.2369
 2035TIP3    H227665   1.962   1.016   8.024  1.0874  0.3571  1.9844
 2036TIP3   OH227666   5.556   3.622   7.238  0.2482 -0.4150  0.4838
 2036TIP3    H127667   5.501   3.573   7.298 -0.5460 -0.6264 -0.3983
 2036TIP3    H227668   5.548   3.576   7.154  1.0934  0.0485  0.1288
 2037TIP3   OH227669   2.197   3.136   1.225 -0.1568  0.2727  0.3463
 2037TIP3    H127670   2.236   3.129   1.312  1.4093  2.8541 -0.0367
 2037TIP3    H227671   2.271   3.123   1.165 -1.1111 -0.9277 -0.5996
 2038TIP3   OH227672   2.029   6.609   0.173  0.0112  0.5090  0.1885
 2038TIP3    H127673   2.111   6.608   0.123 -0.4224 -0.4328 -0.5281
 2038TIP3    H227674   2.022   6.521   0.210  0.4645  1.2565  2.1965
 2039TIP3   OH227675   6.022   3.824   2.162  0.5716  0.1557  0.0711
 2039TIP3    H127676   5.996   3.871   2.241  0.5993  0.4102 -0.0706
 2039TIP3    H227677   6.110   3.858   2.142  0.7161 -0.1728  0.1379
 2040TIP3   OH227678   6.277   1.671   0.794 -0.3766  0.0511  0.1186
 2040TIP3    H127679   6.192   1.635   0.820 -0.1712 -0.1316  0.5546
 2040TIP3    H227680   6.271   1.765   0.815 -1.1284  0.4275 -1.5748
 2041TIP3   OH227681   4.036   3.814   0.213 -0.1529 -0.5804  0.3643
 2041TIP3    H127682   3.984   3.741   0.246  0.6692 -0.8757  1.0414
 2041TIP3    H227683   3.984   3.851   0.142 -0.5838 -1.8208  0.0182
 2042TIP3   OH227684   0.615   6.942   0.064  0.3454 -0.1127  0.0235
 2042TIP3    H127685   0.556   6.949  -0.012 -0.9375  0.0007  0.9999
 2042TIP3    H227686   0.609   6.851   0.091  0.1479  0.0302  0.4775
 2043TIP3   OH227687   0.030   6.819   7.248 -0.4427  0.1160  0.4532
 2043TIP3    H127688  -0.035   6.876   7.208  0.0773 -0.7377 -1.7839
 2043TIP3    H227689  -0.007   6.731   7.240  0.7607 -0.3369 -0.4605
 2044TIP3   OH227690   0.562   2.939   0.720  0.8095 -0.5277 -0.6544
 2044TIP3    H127691   0.556   3.026   0.761  1.6002 -0.7251 -0.0741
 2044TIP3    H227692   0.657   2.923   0.714  0.7199 -0.4721 -2.6808
 2045TIP3   OH227693   1.016   3.072   7.564  0.5270  0.0695 -0.1676
 2045TIP3    H127694   1.072   3.100   7.491  2.2513 -1.1748  0.6140
 2045TIP3    H227695   0.937   3.038   7.522 -0.3801  3.1470 -1.2615
 2046TIP3   OH227696   5.690   4.286   7.934 -0.8635  0.0682 -0.3971
 2046TIP3    H127697   5.764   4.227   7.945 -1.8594 -1.1787 -0.1163
 2046TIP3    H227698   5.697   4.317   7.844  1.8252  2.6264  0.5482
 2047TIP3   OH227699   6.240   6.515   1.113  0.1109 -0.1996 -0.4945
 2047TIP3    H127700   6.260   6.545   1.024 -0.6105 -2.0072 -1.3307
 2047TIP3    H227701   6.278   6.427   1.117  0.1047 -0.1566  0.9846
 2048TIP3   OH227702   6.131   2.115   0.907 -0.6168 -0.0061  0.9424
 2048TIP3    H127703   6.110   2.205   0.932 -0.2197  0.1078  0.8766
 2048TIP3    H227704   6.046   2.074   0.891 -0.7617  0.6452 -0.0171
 2049TIP3   OH227705   3.566   4.665   1.392  0.0317  0.0583 -0.3422
 2049TIP3    H127706   3.640   4.712   1.354 -1.2657  0.6237 -2.3253
 2049TIP3    H227707   3.589   4.573   1.384  0.5980  0.2332 -0.7749
 2050TIP3   OH227708   2.341   3.087   7.299  0.4390 -0.0627 -0.4454
 2050TIP3    H127709   2.385   3.143   7.234  2.2314 -0.0478  0.7013
 2050TIP3    H227710   2.399   3.011   7.308 -0.5528 -0.7772  0.0463
 2051TIP3   OH227711   1.441   2.488   1.379 -0.9299  0.5575 -0.3606
 2051TIP3    H127712   1.511   2.424   1.368 -1.6504 -0.3615  0.2607
 2051TIP3    H227713   1.486   2.572   1.387  0.0663  0.0453 -0.4332
 2052TIP3   OH227714   5.165   4.376   6.824 -0.1394 -0.3213 -0.2175
 2052TIP3    H127715   5.144   4.468   6.809 -0.2392 -0.0840  1.2017
 2052TIP3    H227716   5.251   4.377   6.865 -0.4163 -0.7942  0.4047
 2053TIP3   OH227717   2.147   2.200   0.058  0.2983 -0.8033 -0.0250
 2053TIP3    H127718   2.201   2.279   0.055  1.4234 -1.4336  1.6919
 2053TIP3    H227719   2.060   2.231   0.084  0.5417 -0.0669 -0.0689
 2054TIP3   OH227720   1.812   3.881   7.632  0.3160  0.3258 -0.2196
 2054TIP3    H127721   1.823   3.838   7.547  0.1324 -0.8743  0.3501
 2054TIP3    H227722   1.737   3.837   7.672  1.8234 -0.7673  1.5471
 2055TIP3   OH227723   0.075   3.333   1.123  0.0219  0.1231  0.1187
 2055TIP3    H127724   0.127   3.391   1.067 -1.1720  0.1810 -0.9828
 2055TIP3    H227725  -0.006   3.319   1.074  1.0388 -4.2336 -0.7235
 2056TIP3   OH227726   5.183   6.445   1.776 -0.4182 -0.0534  0.6319
 2056TIP3    H127727   5.131   6.372   1.742 -0.6896 -0.2813  1.4921
 2056TIP3    H227728   5.203   6.499   1.700 -0.9906 -0.5465  0.1254
 2057TIP3   OH227729   0.741   1.378   1.690  0.5889  0.0347  0.0702
 2057TIP3    H127730   0.806   1.449   1.685 -0.4978  1.0274 -0.4130
 2057TIP3    H227731   0.711   1.367   1.600 -0.8611  0.5284  0.4609
 2058TIP3   OH227732   5.083   7.003   1.531  0.2769  0.0773 -0.4477
 2058TIP3    H127733   4.995   7.024   1.499 -0.3664 -0.6952  0.7141
 2058TIP3    H227734   5.126   6.958   1.458  0.7267  2.8558 -2.0103
 2059TIP3   OH227735   4.777   1.687   8.002  0.0376 -0.1435 -0.1982
 2059TIP3    H127736   4.837   1.642   7.942 -0.3431 -0.2601 -0.4909
 2059TIP3    H227737   4.706   1.625   8.017  0.2851 -0.2420  0.6369
 2060TIP3   OH227738   1.941   4.450   7.555  0.0960 -0.0038  0.5707
 2060TIP3    H127739   1.913   4.517   7.616  0.7127 -0.5802  1.5074
 2060TIP3    H227740   1.881   4.377   7.571 -0.1755  0.0890 -0.0005
 2061TIP3   OH227741   1.514   1.861   2.199 -0.2469  0.8616 -0.1423
 2061TIP3    H127742   1.605   1.838   2.215 -0.8747 -1.4385  0.4103
 2061TIP3    H227743   1.494   1.822   2.114 -0.9490  0.6217  0.1259
 2062TIP3   OH227744   6.133   6.766   2.898 -1.0862 -0.0885 -0.1595
 2062TIP3    H127745   6.074   6.691   2.907 -1.1070 -0.1522 -0.8114
 2062TIP3    H227746   6.096   6.833   2.956 -0.4759 -0.9412  1.2728
 2063TIP3   OH227747   5.514   3.107   2.261 -0.2459 -0.6324  0.0684
 2063TIP3    H127748   5.607   3.112   2.283  0.2683 -2.4170 -1.3724
 2063TIP3    H227749   5.494   3.013   2.265 -2.5313 -0.1515  2.2333
 2064TIP3   OH227750   2.570   6.792   7.625  0.2481  0.0623 -0.6939
 2064TIP3    H127751   2.546   6.803   7.717 -0.5790 -0.5730 -0.8233
 2064TIP3    H227752   2.655   6.837   7.616  1.4125 -1.7098  0.8775
 2065TIP3   OH227753   0.545   1.942   6.922  0.0305  0.3473 -0.3517
 2065TIP3    H127754   0.471   1.895   6.960 -0.8315  0.7684 -1.4273
 2065TIP3    H227755   0.523   1.948   6.828  1.5433  0.2699 -0.7321
 2066TIP3   OH227756   1.238   2.190   7.028  0.0366  0.6064 -0.2828
 2066TIP3    H127757   1.241   2.235   6.943  0.1027 -0.6314 -0.9695
 2066TIP3    H227758   1.326   2.199   7.063  0.6475 -0.6929 -1.3721
 2067TIP3   OH227759   1.900   6.975   7.747  0.3847  0.1933  0.2144
 2067TIP3    H127760   1.888   7.027   7.827 -1.2355  0.0073  0.1201
 2067TIP3    H227761   1.824   6.997   7.693  1.7497  0.7801 -1.5556
 2068TIP3   OH227762   2.137   4.635   0.794  0.4357  0.1576  0.1690
 2068TIP3    H127763   2.180   4.581   0.860  0.0663 -0.8654 -0.4040
 2068TIP3    H227764   2.193   4.629   0.717  0.0122 -0.0034 -0.1275
 2069TIP3   OH227765   6.032   3.758   7.105  1.5354 -0.1953  0.0253
 2069TIP3    H127766   6.062   3.819   7.172 -0.5612  1.0465 -0.0892
 2069TIP3    H227767   6.010   3.678   7.152  1.1716  0.2720  0.6527
 2070TIP3   OH227768   2.700   2.244   7.660 -0.0534 -0.3033 -0.3014
 2070TIP3    H127769   2.662   2.166   7.700  0.2001  0.1481  0.8526
 2070TIP3    H227770   2.647   2.317   7.693  0.7873  0.1750  0.0460
 2071TIP3   OH227771   4.436   1.570   7.437  0.3480  0.4084  0.0087
 2071TIP3    H127772   4.520   1.524   7.430  0.3771  0.4781 -0.0918
 2071TIP3    H227773   4.370   1.500   7.438  0.4519  0.3104  0.8707
 2072TIP3   OH227774   4.273   5.594   1.259  0.5760 -0.3165 -0.1707
 2072TIP3    H127775   4.202   5.586   1.195 -2.1606  1.5813  2.3384
 2072TIP3    H227776   4.272   5.511   1.306 -1.4062  0.3399  1.0639
 2073TIP3   OH227777   5.282   2.737   0.684 -0.9433 -0.1883  0.0726
 2073TIP3    H127778   5.367   2.773   0.707 -0.7144  0.5422 -1.7856
 2073TIP3    H227779   5.224   2.813   0.680 -1.0631 -0.3317 -1.2618
 2074TIP3   OH227780   3.016   0.706   1.249 -0.2459  0.2456 -0.4636
 2074TIP3    H127781   3.022   0.795   1.283 -3.0882  0.4537 -0.2771
 2074TIP3    H227782   3.024   0.717   1.154 -1.9687  0.9511 -0.5720
 2075TIP3   OH227783   2.261   6.344   1.265  0.1417  0.1361  0.6794
 2075TIP3    H127784   2.281   6.430   1.227 -0.2687 -0.2113 -0.3745
 2075TIP3    H227785   2.225   6.294   1.192 -0.0878 -0.7770  1.4016
 2076TIP3   OH227786   3.503   1.859   7.609  0.1478 -0.2560  0.4256
 2076TIP3    H127787   3.497   1.874   7.514  2.2128 -1.1206  0.0815
 2076TIP3    H227788   3.546   1.773   7.616  1.1205  0.3239  2.1220
 2077TIP3   OH227789   2.210   3.372   8.175 -0.2365 -0.5509 -0.5197
 2077TIP3    H127790   2.252   3.291   8.204 -0.2482 -0.8515 -1.3373
 2077TIP3    H227791   2.143   3.389   8.241  1.4323  0.1980  1.1053
 2078TIP3   OH227792   5.755   1.048   7.558  0.1481 -0.8450  0.3133
 2078TIP3    H127793   5.746   1.116   7.624 -2.7019  3.5509 -3.8580
 2078TIP3    H227794   5.840   1.065   7.517  0.6673 -1.7147  1.0021
 2079TIP3   OH227795   3.072   5.387   7.332  0.9271  0.3412 -0.4359
 2079TIP3    H127796   3.000   5.416   7.387  0.1910 -1.2028 -0.5270
 2079TIP3    H227797   3.095   5.464   7.280  0.0418  1.1471  0.3241
 2080TIP3   OH227798   1.674   2.313   0.524 -0.0705  0.1655 -0.4328
 2080TIP3    H127799   1.650   2.391   0.576  0.6795  0.9361 -1.2304
 2080TIP3    H227800   1.768   2.320   0.512 -0.1126 -0.4644 -1.1728
 2081TIP3   OH227801   5.015   4.675   0.033 -0.1673  0.4454  0.2221
 2081TIP3    H127802   5.058   4.662  -0.051  1.6492 -0.0774  1.1667
 2081TIP3    H227803   5.081   4.651   0.098 -1.5969  0.5422  1.8072
 2082TIP3   OH227804   4.164   2.633   6.665  0.0701  0.1506 -0.2306
 2082TIP3    H127805   4.183   2.664   6.576 -1.0571 -2.1577 -1.3906
 2082TIP3    H227806   4.079   2.589   6.656  0.5048 -1.1811  1.7141
 2083TIP3   OH227807   1.148   5.004   7.824  0.0941  0.1994  0.1366
 2083TIP3    H127808   1.114   4.926   7.866  0.6100  0.2780  0.7140
 2083TIP3    H227809   1.242   4.986   7.812  0.8929  1.8543  3.0068
 2084TIP3   OH227810   1.751   1.485   2.715  1.0286  0.3470 -0.0104
 2084TIP3    H127811   1.827   1.430   2.695  0.9489  0.4787 -0.6927
 2084TIP3    H227812   1.780   1.541   2.788  1.6431  0.5215 -0.3864
 2085TIP3   OH227813   1.182   1.230   6.923  0.2044 -0.7578 -0.6460
 2085TIP3    H127814   1.258   1.172   6.926 -0.6874 -2.2019 -3.1004
 2085TIP3    H227815   1.219   1.317   6.909  1.4291 -1.2085 -0.3750
 2086TIP3   OH227816   5.281   6.178   7.035  0.4289 -0.2906  0.2338
 2086TIP3    H127817   5.275   6.082   7.037  1.1929 -0.3448  0.0982
 2086TIP3    H227818   5.363   6.198   7.079 -0.3502  0.3872  1.4323
 2087TIP3   OH227819   2.699   1.543   2.228 -0.0124 -0.0429  0.2966
 2087TIP3    H127820   2.751   1.613   2.189 -0.0768 -0.6756 -0.9723
 2087TIP3    H227821   2.696   1.565   2.321  0.7131  1.1538  0.0636
 2088TIP3   OH227822   4.176   6.675   0.998  0.3086 -0.1179 -0.3631
 2088TIP3    H127823   4.152   6.585   1.018  1.4469 -0.3869 -0.1244
 2088TIP3    H227824   4.272   6.674   0.991  0.3832  1.1436  0.0788
 2089TIP3   OH227825   3.180   3.342   6.515  0.4644 -0.1613 -0.3594
 2089TIP3    H127826   3.250   3.400   6.545 -0.1484  1.1558 -1.3649
 2089TIP3    H227827   3.223   3.282   6.453  0.7994  0.3074 -0.5849
 2090TIP3   OH227828   0.960   2.883   2.230 -0.6232  0.4711 -0.2404
 2090TIP3    H127829   1.051   2.856   2.223 -0.4907  0.9009 -0.1909
 2090TIP3    H227830   0.950   2.951   2.163 -1.3889 -0.8301 -1.5210
 2091TIP3   OH227831   0.360   2.965   0.329  0.4838  0.7880  0.2364
 2091TIP3    H127832   0.294   3.002   0.388 -1.7018  0.0728 -1.6364
 2091TIP3    H227833   0.393   3.041   0.280 -1.5614  0.8201 -1.2409
 2092TIP3   OH227834   2.613   6.325   1.252  0.3199 -0.3053  0.5176
 2092TIP3    H127835   2.655   6.402   1.291 -0.3755  0.5456 -0.3952
 2092TIP3    H227836   2.636   6.329   1.160 -0.3823 -0.7448  0.3174
 2093TIP3   OH227837   4.144   3.383   1.153  0.2426 -0.4757 -0.2209
 2093TIP3    H127838   4.192   3.465   1.161 -1.4056  0.5813 -0.6018
 2093TIP3    H227839   4.203   3.317   1.188  1.1729  1.0227  1.1938
 2094TIP3   OH227840   4.231   1.738   7.661  0.4077 -0.0763 -0.4208
 2094TIP3    H127841   4.209   1.807   7.722 -1.4794  0.1334 -1.2567
 2094TIP3    H227842   4.301   1.775   7.606  1.4391  0.0663  0.9332
 2095TIP3   OH227843   3.174   1.618   2.107  0.2442 -0.1903  0.2247
 2095TIP3    H127844   3.118   1.674   2.053  0.6888  0.0499  0.0075
 2095TIP3    H227845   3.124   1.603   2.187 -0.5769 -0.8411 -0.3949
 2096TIP3   OH227846   2.235   4.986   7.663 -0.3335  0.2397  0.4988
 2096TIP3    H127847   2.236   5.075   7.696 -0.1352  1.4665 -2.4958
 2096TIP3    H227848   2.159   4.983   7.603  0.2788 -1.2419 -0.2750
 2097TIP3   OH227849   6.291   0.966   1.585 -0.1500 -0.1154  0.4280
 2097TIP3    H127850   6.209   0.997   1.623 -0.5914  1.1136 -1.4021
 2097TIP3    H227851   6.356   1.031   1.612  0.4156 -1.3765  2.3394
 2098TIP3   OH227852   6.805   1.203   0.783 -0.3858  0.3006 -0.4216
 2098TIP3    H127853   6.861   1.280   0.792  0.2253 -0.2399  0.6704
 2098TIP3    H227854   6.720   1.237   0.756  0.1426  1.2540 -0.9165
 2099TIP3   OH227855   0.655   5.230   1.564  0.2457  0.3591 -0.5867
 2099TIP3    H127856   0.638   5.232   1.658 -0.4072  0.5363 -0.7022
 2099TIP3    H227857   0.720   5.161   1.552 -0.0181  0.0119 -0.0571
 2100TIP3   OH227858   0.041   6.578   6.890 -0.1492  0.0372 -0.2921
 2100TIP3    H127859   0.093   6.655   6.911 -0.1901  0.7507 -2.6296
 2100TIP3    H227860   0.092   6.530   6.826 -0.5366 -1.4624  0.4605
 2101TIP3   OH227861   6.121   3.052   1.483 -0.5868  0.4827 -0.0319
 2101TIP3    H127862   6.164   3.137   1.470  0.4984 -0.0148  0.2194
 2101TIP3    H227863   6.168   3.012   1.557 -0.3503 -0.8017 -0.8464
 2102TIP3   OH227864   2.144   0.959   0.935  0.1114  0.2217 -0.0871
 2102TIP3    H127865   2.117   0.877   0.893 -1.1160  1.0184 -0.9284
 2102TIP3    H227866   2.185   0.931   1.016 -1.3275 -1.2042  0.2153
 2103TIP3   OH227867   6.600   4.558   1.448 -0.0130 -0.5429 -0.4413
 2103TIP3    H127868   6.598   4.564   1.544  0.8626  0.0628 -0.4490
 2103TIP3    H227869   6.563   4.472   1.428 -0.9273 -0.3558  0.4002
 2104TIP3   OH227870   5.578   2.858   1.663 -0.3376 -0.2341 -0.5033
 2104TIP3    H127871   5.568   2.950   1.639  0.5149 -0.1039 -0.4114
 2104TIP3    H227872   5.504   2.814   1.622  0.3851  0.1671 -2.3963
 2105TIP3   OH227873   2.294   5.219   2.330  0.9490  0.4739 -0.2322
 2105TIP3    H127874   2.227   5.246   2.393 -1.2068 -0.9748 -1.7502
 2105TIP3    H227875   2.324   5.134   2.362  1.8737  0.9769  0.2716
 2106TIP3   OH227876   0.625   2.145   3.077  0.2768  0.2124  0.5194
 2106TIP3    H127877   0.616   2.238   3.056 -1.2979 -0.3547 -1.7625
 2106TIP3    H227878   0.563   2.131   3.148 -0.4792  0.7054 -0.0139
 2107TIP3   OH227879   1.577   3.887   7.794 -0.0367 -0.0787 -0.0049
 2107TIP3    H127880   1.606   3.802   7.826 -0.5433  0.1012  0.9412
 2107TIP3    H227881   1.629   3.951   7.844 -1.6659  0.2342  1.3704
 2108TIP3   OH227882   3.482   6.699   8.016 -0.2563 -0.4193  0.7204
 2108TIP3    H127883   3.498   6.754   8.093 -3.3084 -0.7341  1.6954
 2108TIP3    H227884   3.468   6.762   7.945 -0.7131 -0.0193  1.1586
 2109TIP3   OH227885   1.565   6.214   7.660 -0.1663 -0.0816  0.3328
 2109TIP3    H127886   1.651   6.206   7.618 -0.5209 -0.4901 -0.3185
 2109TIP3    H227887   1.520   6.133   7.639 -0.3342 -0.3415  1.5799
 2110TIP3   OH227888   3.565   2.058   0.375  0.2129 -0.3487  0.9872
 2110TIP3    H127889   3.627   1.990   0.348 -1.0589 -1.1360 -0.0882
 2110TIP3    H227890   3.511   2.015   0.443 -0.0198 -0.1249  0.9454
 2111TIP3   OH227891   5.293   6.543   2.200 -0.5151 -0.2740  0.2789
 2111TIP3    H127892   5.256   6.547   2.288  0.6187  1.1288  0.7453
 2111TIP3    H227893   5.384   6.572   2.211 -0.6297  0.9420 -1.4756
 2112TIP3   OH227894   5.111   4.056   7.949 -0.0438 -0.2055  0.0429
 2112TIP3    H127895   5.132   3.972   7.907 -0.0709 -1.2670  2.0202
 2112TIP3    H227896   5.165   4.120   7.903  0.9433 -1.5236 -0.6956
 2113TIP3   OH227897   5.172   5.166   7.846  0.2253  0.0477  0.3851
 2113TIP3    H127898   5.130   5.160   7.932  0.0764  1.9973  0.5128
 2113TIP3    H227899   5.149   5.254   7.815 -0.1944 -0.7996 -1.9212
 2114TIP3   OH227900   0.703   0.474   1.332 -0.4601  0.1017 -0.4434
 2114TIP3    H127901   0.703   0.528   1.253 -0.0537 -0.3164 -0.7358
 2114TIP3    H227902   0.796   0.460   1.352 -0.5558 -0.6109 -0.4667
 2115TIP3   OH227903   2.420   2.996   6.380 -0.0923 -0.2625  0.2400
 2115TIP3    H127904   2.487   3.064   6.379  1.4618 -1.7279  0.6919
 2115TIP3    H227905   2.349   3.032   6.433  0.4043  1.2288 -0.0678
 2116TIP3   OH227906   6.706   1.335   7.311 -0.2992 -0.1891  0.3965
 2116TIP3    H127907   6.659   1.402   7.361  0.6596 -0.4905  1.7374
 2116TIP3    H227908   6.637   1.290   7.262 -1.2545  0.2168  1.3216
 2117TIP3   OH227909   5.530   0.339   7.027  0.3781 -0.1200 -0.2182
 2117TIP3    H127910   5.575   0.354   6.943  0.6381  0.0873 -0.0456
 2117TIP3    H227911   5.443   0.375   7.014  0.9443  1.4514  0.1405
 2118TIP3   OH227912   0.681   2.215   0.310 -0.3486  0.4095  0.5862
 2118TIP3    H127913   0.702   2.307   0.327 -2.2239  1.3357 -1.6725
 2118TIP3    H227914   0.610   2.217   0.246 -0.3420 -2.6425  0.3198
 2119TIP3   OH227915   3.809   3.233   0.208  0.1895 -0.3080  0.1352
 2119TIP3    H127916   3.809   3.279   0.292  0.1667  0.1210 -0.0977
 2119TIP3    H227917   3.886   3.267   0.163 -0.9205  1.0032 -0.8455
 2120TIP3   OH227918   2.795   2.649   1.757  0.3935  0.1741 -0.5509
 2120TIP3    H127919   2.711   2.692   1.746  1.3652  2.0080 -1.1279
 2120TIP3    H227920   2.837   2.696   1.828  1.1937 -0.3096 -0.6923
 2121TIP3   OH227921   3.599   4.393   0.386 -0.0466  0.5765  0.7121
 2121TIP3    H127922   3.583   4.334   0.312  1.7191 -0.3248  0.9800
 2121TIP3    H227923   3.630   4.335   0.456  2.9669  1.8456  0.5962
 2122TIP3   OH227924   0.877   2.083   7.315  0.3615 -0.2157 -0.6934
 2122TIP3    H127925   0.810   2.028   7.275 -1.2987 -0.0557  1.6806
 2122TIP3    H227926   0.855   2.085   7.408  3.8974 -0.4251  0.2995
 2123TIP3   OH227927   4.525   4.360   1.015 -0.5047  0.0644 -0.1719
 2123TIP3    H127928   4.481   4.388   0.935 -2.0247  1.1449  1.0010
 2123TIP3    H227929   4.602   4.312   0.983 -0.8040  0.8444 -2.2702
 2124TIP3   OH227930   4.257   6.579   7.579  0.6227  0.1576  0.1518
 2124TIP3    H127931   4.165   6.603   7.573  0.8183  0.6841 -0.9352
 2124TIP3    H227932   4.273   6.570   7.673 -0.8151 -1.1057  0.3229
 2125TIP3   OH227933   5.022   1.126   1.028  0.0053 -0.0564 -0.0828
 2125TIP3    H127934   4.929   1.145   1.016 -0.2324 -1.4860 -0.6641
 2125TIP3    H227935   5.048   1.083   0.946  0.7442 -1.2828  0.7747
 2126TIP3   OH227936   3.891   6.500   1.529  0.0245  0.3767 -0.0320
 2126TIP3    H127937   3.930   6.549   1.457 -1.5198  2.3233  0.3820
 2126TIP3    H227938   3.926   6.541   1.608 -0.7932  0.4079  0.3244
 2127TIP3   OH227939   1.825   4.872   0.229  0.4483  0.1186  0.0716
 2127TIP3    H127940   1.836   4.960   0.266 -0.7989  2.7695 -4.9114
 2127TIP3    H227941   1.733   4.851   0.244  0.3611  0.4240 -0.0076
 2128TIP3   OH227942   5.768   4.776   7.241  0.4690  0.4077  0.0624
 2128TIP3    H127943   5.688   4.792   7.292  1.2892 -0.1746  1.5906
 2128TIP3    H227944   5.813   4.707   7.289  1.5389  0.2087 -1.1918
 2129TIP3   OH227945   4.211   3.865   8.313  0.8474 -0.0968 -0.2459
 2129TIP3    H127946   4.178   3.902   8.395  1.1380  0.7983 -0.5192
 2129TIP3    H227947   4.286   3.812   8.338  0.1587 -0.8804  0.2055
 2130TIP3   OH227948   4.467   2.901   0.721 -0.7483 -0.9944 -0.3119
 2130TIP3    H127949   4.395   2.841   0.704 -1.8946  0.7825 -2.1280
 2130TIP3    H227950   4.541   2.865   0.671 -1.2744 -1.1792 -0.9699
 2131TIP3   OH227951   1.087   3.887   7.759 -0.1000  0.3423 -0.2142
 2131TIP3    H127952   1.004   3.851   7.728 -1.3583 -0.2747  3.4474
 2131TIP3    H227953   1.153   3.823   7.731 -1.3468 -1.0149 -0.1525
 2132TIP3   OH227954   1.312   5.717   6.904  0.3086  0.3110 -0.2424
 2132TIP3    H127955   1.314   5.773   6.981  0.9789  1.6461 -1.1848
 2132TIP3    H227956   1.387   5.745   6.851 -1.0309  0.5637 -2.1205
 2133TIP3   OH227957   4.793   5.735   7.227 -0.4869  0.3736  0.4731
 2133TIP3    H127958   4.729   5.793   7.186  0.5770  0.7933 -0.6672
 2133TIP3    H227959   4.871   5.790   7.239  0.4522 -0.7190 -0.3770
 2134TIP3   OH227960   6.555   2.001   0.801 -0.2024 -0.0046  0.1857
 2134TIP3    H127961   6.596   1.919   0.830  1.2801  0.8674  0.6935
 2134TIP3    H227962   6.593   2.018   0.715  1.2411  1.2388  1.0123
 2135TIP3   OH227963   3.875   2.646   1.859 -0.6355 -0.4789  0.6411
 2135TIP3    H127964   3.951   2.634   1.917 -2.1203 -1.5067  2.4967
 2135TIP3    H227965   3.871   2.741   1.844  0.8196 -0.3769  0.7505
 2136TIP3   OH227966   1.764   3.641   6.979 -0.0571 -0.5305  0.2280
 2136TIP3    H127967   1.773   3.695   6.900  0.7770 -1.0562 -0.0494
 2136TIP3    H227968   1.694   3.579   6.958 -1.5516  0.8616  0.8167
 2137TIP3   OH227969   1.408   4.974   1.940  0.0453 -0.2326 -0.0666
 2137TIP3    H127970   1.487   5.024   1.962 -1.1897  1.9925 -0.3654
 2137TIP3    H227971   1.355   4.977   2.020 -0.3301 -0.4948 -0.3046
 2138TIP3   OH227972   6.499   1.266   7.165  0.6093 -0.0105 -0.7925
 2138TIP3    H127973   6.483   1.219   7.083 -1.5949 -1.1714  0.2054
 2138TIP3    H227974   6.416   1.309   7.185  0.9360 -0.1482  1.0635
 2139TIP3   OH227975   2.962   0.074   1.733  0.3081 -0.3728  0.2036
 2139TIP3    H127976   2.870   0.068   1.711  0.7983  0.0871 -2.2401
 2139TIP3    H227977   2.973   0.017   1.810 -1.7571 -1.3567 -0.1833
 2140TIP3   OH227978   1.513   3.918   8.107  0.0138 -0.1143 -0.1724
 2140TIP3    H127979   1.423   3.944   8.127 -0.4911 -0.1167 -2.2342
 2140TIP3    H227980   1.538   3.973   8.033  0.8533 -1.7646 -1.1664
 2141TIP3   OH227981   3.353   3.846   1.890  0.1061 -0.4824  0.2129
 2141TIP3    H127982   3.429   3.872   1.942  1.2837 -0.9319 -1.2051
 2141TIP3    H227983   3.315   3.773   1.939  0.1110  0.2414  1.3281
 2142TIP3   OH227984   5.930   1.418   0.727  0.2600 -0.2913 -0.5202
 2142TIP3    H127985   6.024   1.430   0.713  0.2761  0.1598 -0.0480
 2142TIP3    H227986   5.922   1.327   0.755  0.6797 -0.0757  0.3733
 2143TIP3   OH227987   4.414   6.949   1.514  0.6013 -0.0520  0.1159
 2143TIP3    H127988   4.354   7.017   1.544 -1.6623 -1.0080 -1.8867
 2143TIP3    H227989   4.388   6.871   1.563  1.2592 -0.1345  0.3383
 2144TIP3   OH227990   0.818   1.134   7.208  0.1418 -0.3494 -0.2569
 2144TIP3    H127991   0.740   1.165   7.253  0.3162 -0.7803  0.3628
 2144TIP3    H227992   0.827   1.191   7.133 -0.1132  0.4455  0.3056
 2145TIP3   OH227993   1.248   3.224   1.336  0.3541  0.3497  0.0060
 2145TIP3    H127994   1.207   3.310   1.349  1.6030  1.0824 -0.7227
 2145TIP3    H227995   1.332   3.243   1.294  1.9685 -0.9835  2.3538
 2146TIP3   OH227996   3.782   2.194   0.003 -0.0923  0.3349 -0.0776
 2146TIP3    H127997   3.768   2.100   0.009  0.5497  0.3345  1.7180
 2146TIP3    H227998   3.812   2.221   0.089 -0.8982  2.3126 -0.3410
 2147TIP3   OH227999   5.173   4.013   1.477 -0.0590 -0.4213 -0.2340
 2147TIP3    H128000   5.262   3.994   1.448  0.0550 -0.1755 -0.0471
 2147TIP3    H228001   5.176   4.005   1.572  0.8634  3.7769  0.3110
 2148TIP3   OH228002   3.381   2.631   6.826 -0.6842  0.6594 -0.2611
 2148TIP3    H128003   3.435   2.631   6.747 -0.1563 -0.1195  0.0841
 2148TIP3    H228004   3.296   2.598   6.797 -0.2714 -0.3425 -0.3787
 2149TIP3   OH228005   3.852   5.160   0.369  0.5377  0.3064  0.5500
 2149TIP3    H128006   3.787   5.213   0.322  0.8872  0.7427  0.5498
 2149TIP3    H228007   3.824   5.069   0.354 -0.3761  0.4968  0.9895
 2150TIP3   OH228008   1.299   4.836   7.033  0.6555 -0.6012 -0.0961
 2150TIP3    H128009   1.321   4.768   6.970  1.6451 -1.3283  1.0058
 2150TIP3    H228010   1.354   4.818   7.109  0.2706  0.8890  0.5776
 2151TIP3   OH228011   4.973   5.667   1.529 -0.5381 -0.3902  0.6870
 2151TIP3    H128012   5.016   5.749   1.503 -0.1676 -1.1983 -1.4950
 2151TIP3    H228013   4.880   5.688   1.532 -0.3764  0.3182  1.1014
 2152TIP3   OH228014   4.011   2.422   0.846 -0.2762  0.0817  0.0414
 2152TIP3    H128015   3.990   2.500   0.794 -1.1390  0.6691  1.2059
 2152TIP3    H228016   3.931   2.370   0.844  0.5047 -1.1522 -1.2803
 2153TIP3   OH228017   6.581   3.306   0.747  0.4382 -0.5904  0.2736
 2153TIP3    H128018   6.545   3.262   0.670  1.7744 -1.2660  0.0178
 2153TIP3    H228019   6.545   3.395   0.742 -0.6621 -1.0382 -0.3125
 2154TIP3   OH228020   5.678   4.793   8.103 -0.4506 -0.2763 -0.8222
 2154TIP3    H128021   5.639   4.865   8.053 -0.7657 -2.1969 -3.5655
 2154TIP3    H228022   5.739   4.752   8.042  2.7595 -0.0114  1.9561
 2155TIP3   OH228023   3.914   5.571   6.526  0.2781  0.2790  0.4547
 2155TIP3    H128024   3.855   5.577   6.451  1.2148  0.6978 -0.2699
 2155TIP3    H228025   3.893   5.487   6.566  1.5581 -1.2226 -1.8428
 2156TIP3   OH228026   4.965   1.302   0.758  0.5609 -0.1313  0.2656
 2156TIP3    H128027   5.056   1.331   0.763  1.2336 -2.3035  2.6024
 2156TIP3    H228028   4.920   1.353   0.825  0.3276  0.0593 -0.0363
 2157TIP3   OH228029   3.559   1.601   8.357 -0.0729  0.0273 -0.2021
 2157TIP3    H128030   3.647   1.623   8.328 -0.0814 -1.4347 -1.4580
 2157TIP3    H228031   3.571   1.564   8.444  0.4588  0.5637 -0.0422
 2158TIP3   OH228032   0.161   1.421   8.002 -0.5435  0.7544  0.3254
 2158TIP3    H128033   0.204   1.337   7.990 -1.3408  0.2509  0.9493
 2158TIP3    H228034   0.082   1.402   8.052 -1.1360  1.7643 -0.1760
 2159TIP3   OH228035   4.801   3.366   1.563  0.1619  0.0277 -0.2151
 2159TIP3    H128036   4.826   3.297   1.503  2.1305  1.6728 -1.4077
 2159TIP3    H228037   4.746   3.425   1.511  0.5666  0.6401  0.0333
 2160TIP3   OH228038   2.748   4.100   1.623  0.1522  0.2181 -0.2429
 2160TIP3    H128039   2.777   4.101   1.532 -2.0037  1.3477 -0.9967
 2160TIP3    H228040   2.819   4.142   1.672 -0.3815  3.5767 -2.0677
 2161TIP3   OH228041   0.767   4.887   1.073  0.2007  0.1532  0.6244
 2161TIP3    H128042   0.729   4.825   1.136  0.1254 -0.2642  0.1820
 2161TIP3    H228043   0.778   4.968   1.122 -0.4174  0.0103  1.0100
 2162TIP3   OH228044   5.351   3.924   8.132  0.0322  0.1001 -0.1888
 2162TIP3    H128045   5.297   3.846   8.120 -0.8577  0.5033  1.0264
 2162TIP3    H228046   5.356   3.936   8.227  0.5177  1.2845 -0.3437
 2163TIP3   OH228047   4.532   0.011   0.485  0.0283  0.2540 -0.4980
 2163TIP3    H128048   4.466  -0.000   0.417 -0.4112  0.9543 -0.1940
 2163TIP3    H228049   4.576  -0.074   0.489 -0.2246  0.0659 -1.3515
 2164TIP3   OH228050   3.703   5.137   7.832  0.1546  0.4066  0.5679
 2164TIP3    H128051   3.789   5.172   7.814  0.5329 -0.4663  0.6065
 2164TIP3    H228052   3.643   5.193   7.783  0.6005  1.8338  1.5768
 2165TIP3   OH228053   2.015   1.730   0.494 -0.0863  0.0358 -0.1462
 2165TIP3    H128054   2.025   1.813   0.446 -0.1656  1.1204  1.6276
 2165TIP3    H228055   1.922   1.710   0.486 -0.4429  1.1258  0.9452
 2166TIP3   OH228056   2.401   2.175   7.939  0.0080 -0.0223 -0.2596
 2166TIP3    H128057   2.454   2.172   8.020 -0.0119 -2.4849 -0.2801
 2166TIP3    H228058   2.313   2.199   7.969  0.8698  3.6376 -0.1670
 2167TIP3   OH228059   1.758   4.222   6.151  0.0238  0.6300 -0.0150
 2167TIP3    H128060   1.851   4.243   6.140 -0.0524  0.6586 -0.6276
 2167TIP3    H228061   1.720   4.303   6.186  0.5351  0.0634  2.0002
 2168TIP3   OH228062   1.993   3.504   8.334  0.0475  0.1035 -0.4409
 2168TIP3    H128063   1.930   3.474   8.400  0.3828 -0.1631 -0.2378
 2168TIP3    H228064   1.941   3.514   8.254 -0.2186 -0.2823 -0.3186
 2169TIP3   OH228065   1.210   6.924   6.465 -0.2503  0.0588  0.5634
 2169TIP3    H128066   1.165   6.945   6.546 -2.2565 -1.9884  0.1017
 2169TIP3    H228067   1.185   6.833   6.447 -1.3835  0.9296 -3.2153
 2170TIP3   OH228068   4.651   0.753   1.607 -0.0948 -0.3760  0.1778
 2170TIP3    H128069   4.741   0.733   1.583 -0.5338 -0.5781 -1.4803
 2170TIP3    H228070   4.635   0.704   1.687  1.0294 -0.9602  0.0563
 2171TIP3   OH228071   1.522   1.115   7.592 -0.1150 -0.7035  0.1820
 2171TIP3    H128072   1.570   1.194   7.615  1.4703 -1.4255 -0.4556
 2171TIP3    H228073   1.576   1.073   7.525 -1.4264 -1.8167 -0.2306
 2172TIP3   OH228074   6.583   1.233   7.926 -0.5417  0.5781  0.1091
 2172TIP3    H128075   6.646   1.249   7.856  0.4192  0.8144  0.9933
 2172TIP3    H228076   6.589   1.139   7.943  2.5321  1.0399  2.7644
 2173TIP3   OH228077   1.394   4.944   1.151  0.0635  0.6593  0.8027
 2173TIP3    H128078   1.397   4.878   1.082 -0.7043 -0.2791  1.6510
 2173TIP3    H228079   1.454   5.013   1.120 -0.1895  0.2271 -0.7427
 2174TIP3   OH228080   2.130   6.637   0.462 -0.0366 -1.0951 -0.6014
 2174TIP3    H128081   2.077   6.693   0.405  0.9892  0.7568  0.1681
 2174TIP3    H228082   2.193   6.697   0.502  1.5895 -2.9380 -0.2503
 2175TIP3   OH228083   3.442   4.798   1.583  0.6829  0.1073 -0.0148
 2175TIP3    H128084   3.352   4.766   1.576  0.9481 -0.8682  0.8704
 2175TIP3    H228085   3.489   4.751   1.513  0.4910  0.7338 -0.5797
 2176TIP3   OH228086   5.219   2.430   0.500  0.6872 -0.4461  0.1026
 2176TIP3    H128087   5.271   2.448   0.579 -2.5992 -0.1922  2.4096
 2176TIP3    H228088   5.189   2.517   0.472  0.2586 -0.7062 -0.2476
 2177TIP3   OH228089   3.522   2.285   7.663 -0.4971  0.2778 -0.4200
 2177TIP3    H128090   3.489   2.373   7.649 -0.4028  0.8474  2.2859
 2177TIP3    H228091   3.444   2.230   7.670 -0.7408  0.7994  1.3132
 2178TIP3   OH228092   0.241   6.293   0.638  0.4807  0.5524 -0.1168
 2178TIP3    H128093   0.207   6.382   0.644  2.5475  1.4431 -0.7988
 2178TIP3    H228094   0.336   6.304   0.634  0.8997 -1.7827  1.5242
 2179TIP3   OH228095   2.382   5.031   0.549 -0.0560  0.2382 -0.0296
 2179TIP3    H128096   2.395   4.943   0.584  2.3538  0.5209 -0.0391
 2179TIP3    H228097   2.383   5.020   0.454  0.8391  0.3166 -0.0384
 2180TIP3   OH228098   4.363   3.137   0.857  0.3902 -0.1086  0.1792
 2180TIP3    H128099   4.401   3.056   0.822 -0.0650 -1.8615  3.2970
 2180TIP3    H228100   4.438   3.195   0.870  1.2092 -1.2533  0.7594
 2181TIP3   OH228101   3.774   4.112   1.529 -0.0219  0.4014 -0.2769
 2181TIP3    H128102   3.732   4.090   1.611 -0.3124  0.8833 -0.2878
 2181TIP3    H228103   3.832   4.185   1.551  2.1400 -1.3257  0.0929
 2182TIP3   OH228104   1.407   3.101   1.604  0.2100  0.0660 -0.0045
 2182TIP3    H128105   1.473   3.132   1.541  2.9377 -0.0664  2.5373
 2182TIP3    H228106   1.363   3.181   1.634  2.4610  0.8399  1.5190
 2183TIP3   OH228107   6.467   4.490   0.728 -0.4963  0.3775 -0.0695
 2183TIP3    H128108   6.511   4.513   0.810  0.2950  0.6667 -0.5639
 2183TIP3    H228109   6.521   4.531   0.660 -1.3029  0.3847 -0.7167
 2184TIP3   OH228110   4.883   1.734   2.373 -0.3586 -0.3251  0.0092
 2184TIP3    H128111   4.900   1.711   2.465  0.1894 -0.2017 -0.0552
 2184TIP3    H228112   4.788   1.730   2.365 -0.3935 -0.6757  0.4946
 2185TIP3   OH228113   3.755   4.617   0.971 -0.4332  0.1236  0.0016
 2185TIP3    H128114   3.766   4.570   0.888 -0.5977 -0.5482  0.3510
 2185TIP3    H228115   3.814   4.692   0.965  1.7380 -1.4537  0.3951
 2186TIP3   OH228116   1.105   4.156   0.154 -0.0508  0.7120  1.1598
 2186TIP3    H128117   1.112   4.251   0.164 -1.4450  1.1317 -1.0875
 2186TIP3    H228118   1.130   4.139   0.063 -0.0362 -1.0527  1.4484
 2187TIP3   OH228119   3.008   0.327   1.652 -0.1742  0.3418 -0.1463
 2187TIP3    H128120   2.987   0.326   1.559  0.6169  0.2314 -0.3320
 2187TIP3    H228121   2.979   0.241   1.684 -0.1148  0.2368 -0.3724
 2188TIP3   OH228122   5.306   3.288   2.817 -0.8913  0.1905  0.6189
 2188TIP3    H128123   5.361   3.211   2.807 -1.2925 -0.0533  0.2223
 2188TIP3    H228124   5.348   3.339   2.885  0.4461  0.5589 -0.4411
 2189TIP3   OH228125   1.194   5.466   7.432  0.6806 -0.1362  0.2252
 2189TIP3    H128126   1.266   5.473   7.369  1.0931 -0.7065  0.6183
 2189TIP3    H228127   1.231   5.416   7.505 -1.0732 -3.5303 -0.9932
 2190TIP3   OH228128   0.825   3.781   2.147  0.3236  0.2074 -0.4027
 2190TIP3    H128129   0.787   3.694   2.151  0.7672 -0.0813 -1.8346
 2190TIP3    H228130   0.918   3.768   2.168 -0.0467  0.7302  1.8562
 2191TIP3   OH228131   0.682   5.325   7.736 -0.3641  0.4120  0.0238
 2191TIP3    H128132   0.687   5.389   7.665  0.1436 -0.5653 -0.8406
 2191TIP3    H228133   0.772   5.300   7.752 -0.5311  0.1538  0.5798
 2192TIP3   OH228134   3.731   1.340   7.141  0.3751  0.2140  0.4682
 2192TIP3    H128135   3.799   1.339   7.208  1.5641 -1.3410 -0.6832
 2192TIP3    H228136   3.691   1.253   7.146 -0.3832  0.5285  0.0217
 2193TIP3   OH228137   1.615   6.986   7.652  0.0098 -0.5207 -0.3036
 2193TIP3    H128138   1.606   7.075   7.618 -0.3274 -0.5900 -0.4011
 2193TIP3    H228139   1.550   6.979   7.721 -0.1904 -0.7948 -0.5150
 2194TIP3   OH228140   6.972   1.409   0.737  0.2656 -0.7742  0.1991
 2194TIP3    H128141   7.033   1.412   0.811  0.7967 -2.9383 -0.1030
 2194TIP3    H228142   7.022   1.446   0.664  1.0482 -2.0137  0.0867
 2195TIP3   OH228143   1.560   4.923   0.060  0.0151  0.3871 -0.2759
 2195TIP3    H128144   1.630   4.975   0.021  0.7896  0.1788  0.7799
 2195TIP3    H228145   1.552   4.846   0.003  0.0447  0.8238 -0.8766
 2196TIP3   OH228146   0.010   3.615   0.113 -0.4392  0.3063 -0.1057
 2196TIP3    H128147  -0.049   3.673   0.066  0.2012  0.2593 -0.9817
 2196TIP3    H228148   0.025   3.658   0.198 -3.1490 -0.5480  0.9064
 2197TIP3   OH228149   2.023   3.489   2.303  0.0607  0.3725  0.2029
 2197TIP3    H128150   2.086   3.508   2.373  1.0318  1.2171 -0.8588
 2197TIP3    H228151   1.969   3.418   2.338  1.0378  0.2226  1.4849
 2198TIP3   OH228152   1.775   6.510   0.582 -0.1864 -0.3656 -0.3956
 2198TIP3    H128153   1.836   6.511   0.509  0.6965  1.4610  0.2952
 2198TIP3    H228154   1.831   6.515   0.660 -1.1707  0.6881  0.2724
 2199TIP3   OH228155   3.181   0.243   0.157  0.7415  0.4697 -0.2558
 2199TIP3    H128156   3.257   0.289   0.194 -0.2499  1.0935  1.1303
 2199TIP3    H228157   3.150   0.187   0.229 -0.7206  1.0193 -0.4188
 2200TIP3   OH228158   4.250   6.065   0.951  0.2150 -0.5186  0.4623
 2200TIP3    H128159   4.259   6.060   0.856  0.4793 -2.3336  0.5466
 2200TIP3    H228160   4.155   6.061   0.966  0.1505  0.2002  0.2679
 2201TIP3   OH228161   6.922   1.373   7.015  0.5719  0.6939 -0.1783
 2201TIP3    H128162   6.952   1.341   7.100 -1.3358 -0.1424  0.2243
 2201TIP3    H228163   6.991   1.345   6.954 -0.1376 -2.8245  0.3987
 2202TIP3   OH228164   4.542   6.562   1.819  0.7104  0.6141 -0.0913
 2202TIP3    H128165   4.482   6.507   1.869  1.0895 -0.4851 -0.7825
 2202TIP3    H228166   4.602   6.499   1.777  0.3838  1.4507 -1.9381
 2203TIP3   OH228167   1.576   4.650   6.558  0.0371 -0.5578 -0.3765
 2203TIP3    H128168   1.485   4.624   6.547 -0.1595  0.4591 -1.4424
 2203TIP3    H228169   1.618   4.626   6.475  0.8155 -1.3129  0.2292
 2204TIP3   OH228170   2.142   1.959   8.241  0.2085 -0.0003  0.3433
 2204TIP3    H128171   2.074   1.898   8.269  0.3149 -1.3043 -1.9330
 2204TIP3    H228172   2.135   2.033   8.300 -3.6722  0.2659 -0.2126
 2205TIP3   OH228173   6.865   4.893   0.227  0.3020  0.3979 -0.3904
 2205TIP3    H128174   6.934   4.952   0.257  0.6229 -0.4158  0.4967
 2205TIP3    H228175   6.892   4.806   0.258 -0.9323  0.0125 -0.3577
 2206TIP3   OH228176   0.155   0.676   6.523 -0.1638 -0.1686  0.0992
 2206TIP3    H128177   0.063   0.658   6.506 -0.4826  0.5075  1.0138
 2206TIP3    H228178   0.201   0.596   6.498 -0.9704 -0.4143 -0.6069
 2207TIP3   OH228179   4.113   6.804   7.969 -0.0710 -0.0739  0.4183
 2207TIP3    H128180   4.132   6.895   7.993  3.5055 -0.7337  0.6214
 2207TIP3    H228181   4.103   6.806   7.874  1.2324  0.3831  0.2762
 2208TIP3   OH228182   6.287   6.366   8.301 -0.1429 -0.2974  0.8480
 2208TIP3    H128183   6.305   6.366   8.395  1.4416 -0.6213  0.5761
 2208TIP3    H228184   6.343   6.435   8.265 -0.9721  0.0439  0.1706
 2209TIP3   OH228185   3.417   6.922   7.508  0.4787 -0.5364  0.4002
 2209TIP3    H128186   3.360   6.987   7.467  0.5558  0.0565  1.2109
 2209TIP3    H228187   3.366   6.890   7.583  0.1853 -1.8782 -0.3398
 2210TIP3   OH228188   6.231   1.163   0.907  0.0222  0.3235 -0.0270
 2210TIP3    H128189   6.273   1.077   0.907  0.3931  0.4264 -2.8865
 2210TIP3    H228190   6.192   1.170   0.994  2.5856 -1.4160  1.3866
 2211TIP3   OH228191   3.877   4.197   0.757 -0.1984  0.3038 -0.1070
 2211TIP3    H128192   3.864   4.122   0.815 -1.6367  0.7548  0.2086
 2211TIP3    H228193   3.971   4.215   0.762  0.1984 -1.5560 -0.3277
 2212TIP3   OH228194   4.194   3.966   1.874 -0.4020 -0.3491  0.0751
 2212TIP3    H128195   4.289   3.978   1.879 -0.5051  0.3036  0.7267
 2212TIP3    H228196   4.170   3.997   1.786 -0.0114 -0.5325 -0.0970
 2213TIP3   OH228197   5.617   1.900   2.074 -0.3883  0.1410 -0.2218
 2213TIP3    H128198   5.643   1.937   1.989 -0.0359 -0.0890 -0.2174
 2213TIP3    H228199   5.638   1.969   2.137  0.0759  0.0138 -0.2363
 2214TIP3   OH228200   6.469   4.387   7.232  0.6816  0.6947 -0.1135
 2214TIP3    H128201   6.517   4.387   7.149  1.0506  0.4819  0.0955
 2214TIP3    H228202   6.524   4.334   7.291  0.5937  1.1254  0.3608
 2215TIP3   OH228203   1.600   5.771   0.478  0.2011  0.2072  0.5090
 2215TIP3    H128204   1.669   5.725   0.430  0.3998  1.3686 -0.3646
 2215TIP3    H228205   1.519   5.726   0.453  0.3328  0.6226 -0.7225
 2216TIP3   OH228206   3.941   2.936   0.371  0.0644 -0.2672 -0.1068
 2216TIP3    H128207   4.007   2.882   0.415 -0.9792 -0.9585  0.6305
 2216TIP3    H228208   3.944   3.019   0.418 -0.1426 -0.5642  0.4362
 2217TIP3   OH228209   3.035   1.399   2.026 -0.5584  0.6068  0.0759
 2217TIP3    H128210   3.066   1.339   2.093  1.0122 -0.1856 -1.2972
 2217TIP3    H228211   3.074   1.483   2.049 -0.7809  0.5595  0.6438
 2218TIP3   OH228212   5.451   2.553   2.651 -0.5874 -0.2653  0.0957
 2218TIP3    H128213   5.540   2.521   2.639 -0.8279 -1.5319  1.3722
 2218TIP3    H228214   5.396   2.478   2.627 -1.3266  0.5736 -0.8925
 2219TIP3   OH228215   0.406   4.175   0.057  0.1943  0.2171 -0.2155
 2219TIP3    H128216   0.498   4.148   0.050  0.0306 -0.6842  0.8480
 2219TIP3    H228217   0.392   4.231  -0.019  1.0781 -1.1827 -1.4523
 2220TIP3   OH228218   1.621   0.797   0.327  0.0005  0.4262  0.2091
 2220TIP3    H128219   1.559   0.853   0.280  0.5568 -0.0589 -1.1841
 2220TIP3    H228220   1.702   0.849   0.328  0.2073  0.1105 -0.0762
 2221TIP3   OH228221   6.891   5.488   2.373  0.8461 -0.1587  0.2351
 2221TIP3    H128222   6.931   5.571   2.399  0.4269  0.1505 -0.0853
 2221TIP3    H228223   6.846   5.457   2.452  2.2749 -0.8642  0.8112
 2222TIP3   OH228224   2.321   5.354   8.207  0.1911  0.2626  0.1598
 2222TIP3    H128225   2.266   5.400   8.271  0.3078 -0.6658  0.9395
 2222TIP3    H228226   2.311   5.405   8.127 -1.3770  0.4365  0.4311
 2223TIP3   OH228227   6.318   2.880   8.296  0.0034 -0.3538  0.9200
 2223TIP3    H128228   6.379   2.887   8.369  3.1491 -0.6719 -1.4147
 2223TIP3    H228229   6.332   2.961   8.246  0.1727 -1.3678 -0.7789
 2224TIP3   OH228230   3.923   2.555   6.974  0.6372  0.0820 -0.0344
 2224TIP3    H128231   3.872   2.489   6.928  1.5247  0.2980 -1.4041
 2224TIP3    H228232   4.014   2.525   6.966  0.9802  1.0788 -0.0322
 2225TIP3   OH228233   5.464   3.948   1.449  0.1290 -0.3097  1.0402
 2225TIP3    H128234   5.468   3.860   1.411 -0.3896 -0.0587  0.3842
 2225TIP3    H228235   5.555   3.971   1.466  0.4398 -0.2382 -0.5313
 2226TIP3   OH228236   4.085   6.595   8.152  0.2695 -0.5252  0.1026
 2226TIP3    H128237   4.157   6.531   8.146  0.5795 -0.3757  1.7736
 2226TIP3    H228238   4.109   6.663   8.089  0.5401 -1.4788 -0.8464
 2227TIP3   OH228239   0.231   0.385   7.814  0.1756 -0.0001 -0.4589
 2227TIP3    H128240   0.235   0.437   7.734  0.4621 -0.0645 -0.4887
 2227TIP3    H228241   0.167   0.430   7.869  0.9118  0.7702 -0.2071
 2228TIP3   OH228242   3.860   5.333   1.104 -0.0324 -0.1899 -0.0171
 2228TIP3    H128243   3.922   5.306   1.172 -2.2648  0.1077  2.3273
 2228TIP3    H228244   3.868   5.428   1.101 -1.5155  0.0356  1.6059
 2229TIP3   OH228245   4.817   3.736   1.477  0.0487 -0.3404 -0.0671
 2229TIP3    H128246   4.843   3.789   1.401 -2.0875  0.4157 -0.3464
 2229TIP3    H228247   4.873   3.766   1.548 -0.6799  1.9464 -0.3671
 2230TIP3   OH228248   4.554   0.725   7.714  0.0512  0.1090  0.0436
 2230TIP3    H128249   4.621   0.696   7.777  0.0767 -0.8527 -0.4135
 2230TIP3    H228250   4.528   0.645   7.669  0.5942  0.8982 -1.7338
 2231TIP3   OH228251   6.681   1.952   7.907  0.0011 -0.3127 -0.9704
 2231TIP3    H128252   6.623   2.008   7.854  1.5547  2.2726 -0.1373
 2231TIP3    H228253   6.741   1.913   7.844 -0.0238  0.3820 -1.4397
 2232TIP3   OH228254   1.367   6.171   2.464  0.2203 -0.3611  0.4898
 2232TIP3    H128255   1.462   6.175   2.450  0.1098 -1.4809 -0.7863
 2232TIP3    H228256   1.347   6.078   2.461 -1.2180 -0.0526 -1.6105
 2233TIP3   OH228257   2.703   5.259   0.186 -0.1699 -0.4062 -0.0759
 2233TIP3    H128258   2.794   5.252   0.217  0.0405 -1.3876 -0.8750
 2233TIP3    H228259   2.694   5.188   0.123 -1.5177 -0.3397  0.0259
 2234TIP3   OH228260   2.175   2.642   2.138 -0.1729  0.5131  0.7878
 2234TIP3    H128261   2.144   2.694   2.064 -0.0389  0.9211  1.0140
 2234TIP3    H228262   2.133   2.682   2.215 -1.6089 -0.9049  0.7972
 2235TIP3   OH228263   0.130   1.494   0.519  0.3190 -0.1967 -0.6344
 2235TIP3    H128264   0.116   1.571   0.464  1.9697 -0.0990 -0.9561
 2235TIP3    H228265   0.190   1.439   0.469 -0.6849 -1.6422 -0.3346
 2236TIP3   OH228266   1.165   4.217   1.488 -0.7675 -0.2965 -0.0803
 2236TIP3    H128267   1.113   4.212   1.568 -1.2347 -1.0495 -0.4283
 2236TIP3    H228268   1.182   4.310   1.477  0.0380 -0.2384  1.3686
 2237TIP3   OH228269   0.653   0.878   1.251  0.8083 -0.1369  0.0256
 2237TIP3    H128270   0.733   0.930   1.255  0.8048 -0.1687  0.5688
 2237TIP3    H228271   0.682   0.790   1.227  0.6847  0.3902 -2.3060
 2238TIP3   OH228272   6.433   0.106   0.984 -0.0027  0.3589  0.1857
 2238TIP3    H128273   6.458   0.199   0.980 -0.1494  0.5908  2.9016
 2238TIP3    H228274   6.517   0.060   0.982  0.0696  0.4849 -1.2555
 2239TIP3   OH228275   5.604   5.255   7.628  0.3647  0.0585  0.1467
 2239TIP3    H128276   5.635   5.324   7.686  0.0210  0.0238  0.3764
 2239TIP3    H228277   5.638   5.279   7.542 -1.5101  1.7067 -0.2058
 2240TIP3   OH228278   5.870   1.018   7.989  0.6560  0.5056  0.8082
 2240TIP3    H128279   5.901   0.959   8.058 -0.3153 -0.0182  0.8147
 2240TIP3    H228280   5.791   1.059   8.026  0.0115  0.0740 -0.0540
 2241TIP3   OH228281   2.706   5.123   1.326  0.2656 -0.4396  0.5506
 2241TIP3    H128282   2.767   5.156   1.392 -0.2327  1.4577  0.1177
 2241TIP3    H228283   2.762   5.092   1.256  0.8413  2.4462 -0.3992
 2242TIP3   OH228284   2.431   6.752   0.939  0.5227 -0.1877  0.3598
 2242TIP3    H128285   2.496   6.810   0.978  1.2676  0.1050 -1.2508
 2242TIP3    H228286   2.480   6.702   0.874 -0.6367 -0.8230 -0.0456
 2243TIP3   OH228287   6.691   3.826   2.194 -0.4565 -0.0945 -0.0958
 2243TIP3    H128288   6.602   3.845   2.224 -0.4974 -0.8143  0.2682
 2243TIP3    H228289   6.709   3.738   2.227  0.5138  0.1669  0.1054
 2244TIP3   OH228290   6.362   4.523   7.425 -0.0357 -0.1223 -0.1716
 2244TIP3    H128291   6.382   4.482   7.340  0.9676 -0.6522  0.3091
 2244TIP3    H228292   6.435   4.582   7.441 -0.7979  0.8520 -0.2024
 2245TIP3   OH228293   0.287   0.915   0.611 -0.3632 -0.1421 -0.5036
 2245TIP3    H128294   0.303   0.896   0.703  1.5047 -0.4467 -0.8535
 2245TIP3    H228295   0.227   0.990   0.612 -0.2871 -0.0757  0.9519
 2246TIP3   OH228296   6.802   1.837   7.654 -0.6826 -0.0714 -0.5207
 2246TIP3    H128297   6.737   1.769   7.634 -1.7033  0.9529 -0.8203
 2246TIP3    H228298   6.811   1.886   7.573  1.5313 -1.0068 -0.8955
 2247TIP3   OH228299   2.620   4.227   2.095  0.5054 -0.7826  0.6281
 2247TIP3    H128300   2.646   4.258   2.182  0.3796 -0.9288  0.7183
 2247TIP3    H228301   2.623   4.305   2.040 -1.6641 -0.1663  1.2601
 2248TIP3   OH228302   5.656   6.592   7.223 -0.6488  0.1781 -0.1190
 2248TIP3    H128303   5.725   6.545   7.268  0.0228  0.8826 -0.3824
 2248TIP3    H228304   5.695   6.618   7.139 -0.8027  1.6298  0.2209
 2249TIP3   OH228305   6.338   5.444   1.813 -0.1654  0.2861  0.3202
 2249TIP3    H128306   6.297   5.531   1.809 -0.8710 -0.0411  0.2947
 2249TIP3    H228307   6.369   5.437   1.903 -1.0162  0.1675  0.6153
 2250TIP3   OH228308   3.811   1.989   0.785  0.0740  0.2616  0.4393
 2250TIP3    H128309   3.744   2.047   0.820  1.2591  0.7185  2.0586
 2250TIP3    H228310   3.881   2.048   0.756  1.7161 -0.2574  2.9664
 2251TIP3   OH228311   3.184   5.976   1.911  0.4000  0.1825 -0.0906
 2251TIP3    H128312   3.145   6.053   1.871 -0.0750 -0.2997 -0.5643
 2251TIP3    H228313   3.146   5.974   1.999 -1.6220 -0.9296 -0.9071
 2252TIP3   OH228314   2.185   4.923   1.541  0.4312 -0.7910 -0.1442
 2252TIP3    H128315   2.221   4.836   1.529  2.7696  0.0306  0.3314
 2252TIP3    H228316   2.190   4.964   1.455  0.4801 -0.7365 -0.1158
 2253TIP3   OH228317   1.361   3.814   1.100  0.4113  0.0493  0.3607
 2253TIP3    H128318   1.285   3.775   1.143 -0.1084  0.0704 -0.5136
 2253TIP3    H228319   1.330   3.899   1.068  1.1105  0.5294  0.9375
 2254TIP3   OH228320   0.999   6.543   0.313 -0.0628 -0.7285 -0.6122
 2254TIP3    H128321   1.038   6.607   0.253  0.8634 -2.1118 -1.5294
 2254TIP3    H228322   1.064   6.473   0.320 -0.9042 -1.4259  0.6450
 2255TIP3   OH228323   1.619   4.717   8.206 -0.5661 -0.2143  0.4702
 2255TIP3    H128324   1.650   4.761   8.127 -0.9740  0.3792  0.6388
 2255TIP3    H228325   1.696   4.670   8.238 -0.7022 -1.4902 -0.9476
 2256TIP3   OH228326   1.189   6.830   0.244 -0.2502 -0.4365  0.0185
 2256TIP3    H128327   1.130   6.853   0.172 -0.1717  0.0953  0.1215
 2256TIP3    H228328   1.153   6.876   0.320  1.2092  1.2522 -0.2479
 2257TIP3   OH228329   0.328   1.812   1.352  0.0131 -0.1081 -0.1473
 2257TIP3    H128330   0.293   1.880   1.409 -0.7055  1.2130 -2.0645
 2257TIP3    H228331   0.252   1.759   1.329  0.2085 -0.3423 -0.2565
 2258TIP3   OH228332   3.834   6.926   8.094  0.4422 -0.7028  0.1399
 2258TIP3    H128333   3.828   6.830   8.089 -2.6456 -0.6655  0.7584
 2258TIP3    H228334   3.852   6.953   8.004 -2.3487 -1.8199 -0.8850
 2259TIP3   OH228335   6.974   3.323   7.561 -0.0981  0.4314 -0.1234
 2259TIP3    H128336   6.940   3.367   7.484 -2.6085 -1.6321 -0.2977
 2259TIP3    H228337   6.981   3.393   7.627 -1.4241  1.5467 -1.1112
 2260TIP3   OH228338   2.277   4.989   2.175 -0.1408 -0.0182 -0.7154
 2260TIP3    H128339   2.227   5.049   2.231 -0.5290  0.0069 -1.0871
 2260TIP3    H228340   2.244   4.902   2.198  0.8581 -0.1594  0.2713
 2261TIP3   OH228341   5.012   0.627   8.260  0.2201  0.0225  0.4749
 2261TIP3    H128342   5.058   0.631   8.176 -0.6813  0.8185 -0.0021
 2261TIP3    H228343   4.920   0.638   8.237  0.0843  1.8569  1.6691
 2262TIP3   OH228344   5.730   1.930   1.827 -0.1870 -0.7096 -0.0910
 2262TIP3    H128345   5.788   1.857   1.807  0.9609  0.6935 -2.3656
 2262TIP3    H228346   5.658   1.922   1.764 -0.9664 -0.8239  0.7955
 2263TIP3   OH228347   5.695   4.093   2.903 -0.1815  0.9935  0.0754
 2263TIP3    H128348   5.758   4.034   2.944 -0.5219 -0.4765 -1.4487
 2263TIP3    H228349   5.685   4.164   2.967  1.1399  0.0306  1.4309
 2264TIP3   OH228350   2.764   2.353   6.316  0.4559 -0.3468  0.4126
 2264TIP3    H128351   2.705   2.426   6.301 -0.0553  0.0206  3.6049
 2264TIP3    H228352   2.710   2.275   6.302 -0.0066 -0.0653  0.6180
 2265TIP3   OH228353   4.363   0.398   2.510 -0.3497 -0.1193 -0.2023
 2265TIP3    H128354   4.371   0.480   2.558 -0.2533  0.1349 -0.6496
 2265TIP3    H228355   4.436   0.399   2.448  0.5529 -1.2177  0.7874
 2266TIP3   OH228356   0.500   0.914   7.747  0.3120  0.1524  0.1585
 2266TIP3    H128357   0.418   0.874   7.720 -0.7582  1.6484  1.0189
 2266TIP3    H228358   0.489   1.007   7.728  1.6241  0.4552  0.7364
 2267TIP3   OH228359   5.165   5.114   1.556 -0.2379  0.0166 -0.0667
 2267TIP3    H128360   5.096   5.083   1.614  0.4826 -0.1188  0.7393
 2267TIP3    H228361   5.232   5.148   1.615  0.0195  0.9279 -0.8622
 2268TIP3   OH228362   0.999   2.694   0.334 -0.2799  0.0177  0.0628
 2268TIP3    H128363   0.966   2.762   0.394 -0.8603 -0.3334  0.1540
 2268TIP3    H228364   1.079   2.663   0.376 -0.1346  0.4871  0.1385
 2269TIP3   OH228365   3.161   4.002   2.043 -0.4806 -0.0812 -0.4763
 2269TIP3    H128366   3.193   3.960   1.963 -0.1979 -0.2397 -0.2792
 2269TIP3    H228367   3.223   4.073   2.060 -1.5138  1.0831 -1.3751
 2270TIP3   OH228368   3.454   0.774   2.034 -0.1638 -0.5578  0.0210
 2270TIP3    H128369   3.363   0.801   2.028  0.1026  0.2560 -0.5461
 2270TIP3    H228370   3.455   0.705   2.101 -1.4493 -1.7801 -1.1853
 2271TIP3   OH228371   0.083   0.185   0.242  0.2999  0.2561  0.1848
 2271TIP3    H128372   0.101   0.106   0.294  0.1651 -1.5877 -2.4043
 2271TIP3    H228373  -0.012   0.184   0.231  0.3278  0.6489 -0.0897
 2272TIP3   OH228374   2.966   5.477   2.344 -0.9777  0.1127 -0.9531
 2272TIP3    H128375   2.877   5.442   2.354 -1.2347  0.5976 -1.4620
 2272TIP3    H228376   3.020   5.401   2.326 -1.1955 -0.2566 -0.1129
 2273TIP3   OH228377   6.073   5.964   8.298  0.0500  0.0017 -0.0414
 2273TIP3    H128378   6.136   6.011   8.243  0.8999 -0.6683  0.3264
 2273TIP3    H228379   6.076   6.009   8.382 -1.2387  1.0172 -0.5094
 2274TIP3   OH228380   3.793   5.749   2.044  0.3869  0.1777  0.6721
 2274TIP3    H128381   3.728   5.819   2.055  1.0731  0.6208  2.1900
 2274TIP3    H228382   3.847   5.755   2.122  2.8925  0.4654 -0.9909
 2275TIP3   OH228383   6.641   1.260   6.259  0.2725 -0.5354 -0.2450
 2275TIP3    H128384   6.669   1.244   6.169  1.5781 -3.4028  0.5352
 2275TIP3    H228385   6.700   1.329   6.291 -0.7644  1.1212 -1.7730
 2276TIP3   OH228386   4.120   1.910   1.858  0.1653  0.1302 -0.8504
 2276TIP3    H128387   4.215   1.901   1.861  0.1644  0.2319 -0.3960
 2276TIP3    H228388   4.098   1.958   1.938 -0.1974  0.7373 -1.3039
 2277TIP3   OH228389   2.226   2.856   1.448  0.7215  0.0883 -0.0262
 2277TIP3    H128390   2.138   2.824   1.431  0.9601 -0.3266 -0.5293
 2277TIP3    H228391   2.283   2.781   1.430  1.1258  0.1405  0.9997
 2278TIP3   OH228392   6.284   4.296   0.872  0.0357 -0.0906 -0.3279
 2278TIP3    H128393   6.319   4.348   0.799 -1.2578  1.5062  0.1310
 2278TIP3    H228394   6.224   4.235   0.832  1.5606 -1.2962 -0.8783
 2279TIP3   OH228395   4.481   1.812   6.386  0.4654 -0.4069  0.1115
 2279TIP3    H128396   4.546   1.879   6.365  0.8895 -1.1312 -0.9514
 2279TIP3    H228397   4.533   1.732   6.401 -0.0944 -0.7164  0.4397
 2280TIP3   OH228398   6.501   5.535   1.054  0.0738 -0.1210  0.5583
 2280TIP3    H128399   6.454   5.567   1.130  0.2943  1.1500  0.1750
 2280TIP3    H228400   6.521   5.443   1.075 -0.6924 -0.0585  1.6119
 2281TIP3   OH228401   1.274   0.244   7.789 -0.8366 -0.8006 -0.0397
 2281TIP3    H128402   1.202   0.304   7.771 -1.8650 -1.9391  0.1042
 2281TIP3    H228403   1.232   0.167   7.827  0.4852 -1.4361  0.2074
 2282TIP3   OH228404   0.121   4.809   0.132 -0.3181 -0.1617  0.2291
 2282TIP3    H128405   0.042   4.757   0.142  0.9930 -2.5089 -0.6369
 2282TIP3    H228406   0.191   4.744   0.118  1.6981  1.7958  0.5679
 2283TIP3   OH228407   3.032   5.240   2.651  0.6853  0.2367  0.1560
 2283TIP3    H128408   3.043   5.194   2.734 -0.0239  0.0352  0.1434
 2283TIP3    H228409   3.121   5.263   2.624  0.9131  0.4588  1.0573
 2284TIP3   OH228410   1.033   2.511   1.302  0.3133 -0.3407 -0.6467
 2284TIP3    H128411   1.001   2.547   1.385 -0.4663  0.7512 -1.3882
 2284TIP3    H228412   1.004   2.420   1.303  0.3278 -0.3485  0.2782
 2285TIP3   OH228413   3.040   4.350   0.948  0.0873 -0.0207 -0.0268
 2285TIP3    H128414   3.068   4.259   0.947 -1.4455 -0.5175 -0.2543
 2285TIP3    H228415   3.068   4.382   1.034  0.3782 -0.7875  0.1767
 2286TIP3   OH228416   1.077   3.128   1.136 -0.1626  0.1830  0.8096
 2286TIP3    H128417   1.153   3.160   1.184  0.7180 -1.6524  0.7020
 2286TIP3    H228418   1.017   3.098   1.204  1.1502 -2.5641  0.8860
 2287TIP3   OH228419   3.708   5.114   1.773 -0.1549 -0.0550 -0.1967
 2287TIP3    H128420   3.769   5.177   1.811 -3.0787  1.6155  2.1942
 2287TIP3    H228421   3.714   5.037   1.830 -0.3076  0.1537  0.1081
 2288TIP3   OH228422   0.950   2.033   1.585 -0.8419 -0.1336  0.0273
 2288TIP3    H128423   0.945   1.966   1.654 -0.8162 -1.4876 -1.2327
 2288TIP3    H228424   1.040   2.028   1.553 -1.6030 -1.8092 -2.1953
 2289TIP3   OH228425   1.924   0.684   0.219 -0.4129 -0.4366  0.6241
 2289TIP3    H128426   1.852   0.724   0.169  0.6796  0.0276 -0.6455
 2289TIP3    H228427   1.932   0.596   0.183 -0.5523 -0.5982  0.9882
 2290TIP3   OH228428   0.531   1.855   0.566 -0.0638 -0.0241 -0.6796
 2290TIP3    H128429   0.506   1.850   0.474  0.0297 -0.8088 -0.6671
 2290TIP3    H228430   0.484   1.932   0.599  0.7008  0.8782 -1.6161
 2291TIP3   OH228431   1.518   0.213   6.758  0.1098  0.2329  0.2432
 2291TIP3    H128432   1.509   0.204   6.663 -1.1749  1.6366  0.2033
 2291TIP3    H228433   1.439   0.259   6.786 -0.8465 -2.4519  2.3893
 2292TIP3   OH228434   1.035   3.191   0.443 -0.2437  0.0911 -0.4272
 2292TIP3    H128435   1.101   3.123   0.430 -0.7526 -0.2727 -1.1536
 2292TIP3    H228436   0.952   3.149   0.418 -0.9415  0.1533  1.5583
 2293TIP3   OH228437   5.456   5.774   0.719 -0.3362 -0.1914 -0.1280
 2293TIP3    H128438   5.410   5.701   0.759 -3.7183  2.4521  1.3061
 2293TIP3    H228439   5.447   5.846   0.782  1.1611  2.0061 -2.2231
 2294TIP3   OH228440   0.992   5.222   0.665 -0.1320 -0.0383 -0.6276
 2294TIP3    H128441   0.963   5.305   0.702 -0.3947 -0.0613 -0.7765
 2294TIP3    H228442   0.917   5.164   0.676  1.1830 -1.3385  2.7126
 2295TIP3   OH228443   5.058   2.313   0.241 -0.0833  0.0009  0.1600
 2295TIP3    H128444   5.027   2.285   0.328 -0.0285  0.5945  0.3720
 2295TIP3    H228445   5.043   2.237   0.185  1.5720 -1.0689  1.0742
 2296TIP3   OH228446   1.655   5.275   6.822 -0.5062 -0.2033  0.1351
 2296TIP3    H128447   1.578   5.322   6.792  0.3036  0.4388 -1.0253
 2296TIP3    H228448   1.704   5.255   6.742  0.2326 -1.1247  0.7919
 2297TIP3   OH228449   1.539   4.940   6.246  0.4372  0.1518  0.9750
 2297TIP3    H128450   1.567   4.991   6.322 -0.4765 -0.1992  1.5693
 2297TIP3    H228451   1.463   4.987   6.212  0.8130  0.2826  0.2940
 2298TIP3   OH228452   4.445   1.061   7.341 -0.1943 -0.0937  0.7531
 2298TIP3    H128453   4.409   1.034   7.257  2.1710 -1.1127 -0.0323
 2298TIP3    H228454   4.402   1.004   7.405 -0.1738 -1.0985 -0.0972
 2299TIP3   OH228455   1.308   6.547   2.532 -0.4916 -0.2560  0.6801
 2299TIP3    H128456   1.274   6.484   2.595 -1.3377  0.7611  1.2929
 2299TIP3    H228457   1.351   6.614   2.586  2.8601 -1.6157 -0.0654
 2300TIP3   OH228458   3.367   6.119   8.062 -0.4774  0.6083  0.4688
 2300TIP3    H128459   3.273   6.101   8.064 -0.2482 -0.7245  0.3325
 2300TIP3    H228460   3.395   6.090   7.975 -0.1012  1.9001  0.1469
 2301TIP3   OH228461   4.936   1.339   0.488  0.0015 -0.0302 -0.3224
 2301TIP3    H128462   4.893   1.424   0.474  0.3242  0.0079 -1.1507
 2301TIP3    H228463   4.940   1.329   0.583  0.7173  1.2878 -0.1868
 2302TIP3   OH228464   4.564   5.562   7.183 -0.5750 -0.2385  0.0033
 2302TIP3    H128465   4.637   5.592   7.238 -0.5367 -0.4887  0.0875
 2302TIP3    H228466   4.527   5.643   7.148 -0.1288 -0.1231 -0.2075
 2303TIP3   OH228467   5.321   0.590   0.809 -0.8058 -0.4900 -0.3457
 2303TIP3    H128468   5.314   0.683   0.833  1.5439 -0.0242 -1.2225
 2303TIP3    H228469   5.288   0.544   0.886 -0.1670  1.0571  0.9236
 2304TIP3   OH228470   4.995   2.091   0.705 -0.2454  0.1987 -0.8236
 2304TIP3    H128471   5.055   2.075   0.778 -0.3960 -0.2941 -0.8078
 2304TIP3    H228472   4.930   2.021   0.712 -0.3439  0.2384 -1.3434
 2305TIP3   OH228473   5.805   6.620   7.929  0.4089  0.0030 -0.0250
 2305TIP3    H128474   5.758   6.692   7.889  1.9384  1.6094  0.9094
 2305TIP3    H228475   5.800   6.549   7.865 -1.3684  0.8252 -0.8517
 2306TIP3   OH228476   3.391   5.871   0.585  0.5717  0.1830  0.0567
 2306TIP3    H128477   3.347   5.800   0.538  1.6775 -2.0998  2.2478
 2306TIP3    H228478   3.320   5.924   0.620 -0.5360 -2.1552  1.6511
 2307TIP3   OH228479   0.863   6.551   2.109 -0.0914 -0.1490 -0.1290
 2307TIP3    H128480   0.818   6.467   2.095  1.7618 -1.2194 -0.0147
 2307TIP3    H228481   0.925   6.558   2.037  1.0561  0.1937  0.8430
 2308TIP3   OH228482   0.180   3.971   2.041 -0.5084  0.6620 -0.0006
 2308TIP3    H128483   0.265   3.932   2.023 -0.4596  1.3798 -1.4762
 2308TIP3    H228484   0.121   3.932   1.977 -0.8688  1.5371 -0.2210
 2309TIP3   OH228485   3.287   2.120   2.302 -0.5346 -0.1409  0.4341
 2309TIP3    H128486   3.223   2.168   2.354 -1.1595 -0.3639 -0.1260
 2309TIP3    H228487   3.236   2.061   2.247  0.0877  0.1756 -0.5332
 2310TIP3   OH228488   3.154   3.737   1.492 -0.1286  0.2579 -0.1582
 2310TIP3    H128489   3.106   3.792   1.430 -1.2161 -0.2745  0.1969
 2310TIP3    H228490   3.163   3.791   1.570 -0.4397  0.2446 -0.1126
 2311TIP3   OH228491   6.852   5.483   1.366  0.3869  0.1628 -0.8615
 2311TIP3    H128492   6.928   5.452   1.315  0.5364 -0.1528 -0.4477
 2311TIP3    H228493   6.868   5.576   1.377  0.7254  0.0955 -0.7619
 2312TIP3   OH228494   6.742   5.829   1.935  0.7632 -0.2869 -0.1196
 2312TIP3    H128495   6.691   5.850   2.013  0.8644  0.4448 -0.2398
 2312TIP3    H228496   6.785   5.912   1.912  2.0200 -0.8839 -0.0053
 2313TIP3   OH228497   4.397   2.166   1.560  0.3604 -0.1532 -0.4532
 2313TIP3    H128498   4.306   2.164   1.590  0.3341 -0.7126 -0.5587
 2313TIP3    H228499   4.438   2.090   1.602  0.8081  0.1571 -0.3217
 2314TIP3   OH228500   5.985   5.542   1.712  0.6772  0.2155  0.1840
 2314TIP3    H128501   5.894   5.554   1.686 -0.1869 -0.3552  2.6203
 2314TIP3    H228502   5.988   5.453   1.746  1.5184  0.9631  2.2524
 2315TIP3   OH228503   6.858   5.906   0.872  0.1103  0.6856 -0.0778
 2315TIP3    H128504   6.826   5.831   0.822 -0.1388 -0.1345  1.2793
 2315TIP3    H228505   6.953   5.903   0.860 -0.0462  1.6676 -2.0699
 2316TIP3   OH228506   4.101   4.527   1.793  0.6493 -0.0326  0.7753
 2316TIP3    H128507   4.018   4.569   1.769  0.4214 -0.3819  0.9463
 2316TIP3    H228508   4.135   4.579   1.865  0.6032  0.1411  0.6718
 2317TIP3   OH228509   6.618   4.192   0.323  0.4818 -0.7487  0.3446
 2317TIP3    H128510   6.614   4.261   0.256 -2.1646 -2.8741 -1.9377
 2317TIP3    H228511   6.670   4.123   0.283 -0.8041 -1.9076  0.6227
 2318TIP3   OH228512   5.499   3.984   1.801 -0.8205 -0.1878 -0.4875
 2318TIP3    H128513   5.444   3.914   1.765 -1.8009 -0.4397  1.3753
 2318TIP3    H228514   5.479   3.984   1.895  0.4869  1.4311 -0.1697
 2319TIP3   OH228515   6.491   5.572   7.561 -0.1970  0.4877  0.2027
 2319TIP3    H128516   6.564   5.542   7.616  0.3645  2.5504  0.6535
 2319TIP3    H228517   6.455   5.491   7.524  2.4780 -0.6035 -0.2727
 2320TIP3   OH228518   6.464   6.923   8.169  0.1601 -0.9011 -0.3415
 2320TIP3    H128519   6.534   6.925   8.104  0.4666  1.8768 -0.0653
 2320TIP3    H228520   6.502   6.964   8.247 -1.8822  1.4567 -0.4382
 2321TIP3   OH228521   3.047   6.619   0.115  0.2024 -0.0487 -0.0975
 2321TIP3    H128522   2.979   6.673   0.154  0.4438 -0.9283  1.6264
 2321TIP3    H228523   3.013   6.596   0.028 -1.3864  0.0794  0.4739
 2322TIP3   OH228524   0.743   3.223   2.642 -0.0108 -0.3064 -0.4059
 2322TIP3    H128525   0.758   3.168   2.565 -0.8963 -1.4670  0.2021
 2322TIP3    H228526   0.828   3.229   2.685  0.7433  1.2624 -2.0116
 2323TIP3   OH228527   3.018   0.680   1.549 -0.4198 -0.2723  0.2065
 2323TIP3    H128528   3.006   0.616   1.480 -0.3515  0.2654 -0.3123
 2323TIP3    H228529   3.094   0.732   1.521  0.3266 -0.7760  1.2422
 2324TIP3   OH228530   0.226   2.027   2.831  0.2278  0.0865  0.2904
 2324TIP3    H128531   0.161   2.096   2.843  0.9773  0.6017  1.5696
 2324TIP3    H228532   0.190   1.972   2.762 -1.1658  0.8253  0.3995
 2325TIP3   OH228533   6.965   5.233   0.351 -0.3701  0.3889 -0.1178
 2325TIP3    H128534   6.873   5.208   0.361 -0.1525  0.1430  1.6483
 2325TIP3    H228535   6.963   5.328   0.342 -0.8558  0.2829 -1.2474
 2326TIP3   OH228536   4.572   5.689   8.212  0.5721 -0.0637  0.4269
 2326TIP3    H128537   4.507   5.649   8.269  0.2796  0.7234  0.6615
 2326TIP3    H228538   4.578   5.630   8.136 -1.1512  0.3555 -0.0777
 2327TIP3   OH228539   1.513   1.104   1.052  0.3745  0.2042 -0.4166
 2327TIP3    H128540   1.512   1.031   1.114  0.6458  1.0993  0.6826
 2327TIP3    H228541   1.487   1.180   1.104  1.1809  1.0918 -1.2553
 2328TIP3   OH228542   0.618   1.368   0.610 -0.0378 -0.4243 -0.0039
 2328TIP3    H128543   0.539   1.415   0.636 -0.0337 -0.8690  0.8399
 2328TIP3    H228544   0.596   1.328   0.526  0.1837  1.6326 -1.1075
 2329TIP3   OH228545   2.631   3.314   7.427 -0.1270  0.7885 -0.1091
 2329TIP3    H128546   2.631   3.238   7.485 -0.0904  0.5130 -0.4640
 2329TIP3    H228547   2.720   3.349   7.434  0.0799  0.3602 -0.4999
 2330TIP3   OH228548   0.997   5.472   7.205 -0.2719 -0.4383 -0.1881
 2330TIP3    H128549   1.053   5.445   7.278  1.3095  0.6647 -0.9262
 2330TIP3    H228550   0.929   5.405   7.202 -1.0608  0.0524  2.9518
 2331TIP3   OH228551   2.829   0.295   0.778 -0.4340  0.1229 -0.9391
 2331TIP3    H128552   2.841   0.389   0.770 -0.1560  0.1959  0.1396
 2331TIP3    H228553   2.816   0.264   0.688  1.1752  0.9642 -1.5101
 2332TIP3   OH228554   3.447   1.632   2.106  0.0776 -0.1933  0.1411
 2332TIP3    H128555   3.479   1.704   2.052 -0.2627 -1.3419 -1.6673
 2332TIP3    H228556   3.352   1.641   2.104 -0.1796 -2.3366 -2.6329
 2333TIP3   OH228557   0.289   3.411   8.147 -0.3769  0.0618 -0.6825
 2333TIP3    H128558   0.337   3.400   8.065 -0.4900  0.5108 -0.8167
 2333TIP3    H228559   0.209   3.457   8.121 -0.5168  0.0049 -0.3516
 2334TIP3   OH228560   6.137   6.928   0.666 -0.0547  0.3171 -0.1474
 2334TIP3    H128561   6.129   6.893   0.578  0.9019 -1.8791  0.5630
 2334TIP3    H228562   6.230   6.922   0.686 -0.4014 -0.4225  1.4379
 2335TIP3   OH228563   6.498   4.224   7.829 -0.2676  0.0504 -0.1893
 2335TIP3    H128564   6.408   4.254   7.819 -0.3566 -0.3866 -0.7554
 2335TIP3    H228565   6.503   4.192   7.920 -0.5867  0.3655 -0.0591
 2336TIP3   OH228566   6.052   3.628   7.420  0.2114 -0.1681 -0.3363
 2336TIP3    H128567   6.046   3.691   7.491 -1.6732  0.0023 -0.6133
 2336TIP3    H228568   6.132   3.579   7.439 -0.6370 -0.6639  2.3569
 2337TIP3   OH228569   4.064   0.096   7.338  1.1768 -0.1616 -0.2176
 2337TIP3    H128570   4.058   0.096   7.434 -1.2775 -0.6680 -0.2995
 2337TIP3    H228571   4.066   0.003   7.314 -1.2529 -0.1538 -0.7001
 2338TIP3   OH228572   5.562   4.742   6.660  0.2354  0.7667  0.8386
 2338TIP3    H128573   5.517   4.659   6.643 -0.6986  1.4942 -0.3499
 2338TIP3    H228574   5.513   4.780   6.733  0.7467  0.2321  1.4742
 2339TIP3   OH228575   0.347   0.219   8.251 -0.7749  0.3335 -0.0947
 2339TIP3    H128576   0.331   0.217   8.157 -0.5382  0.5125 -0.1396
 2339TIP3    H228577   0.440   0.239   8.259  0.4008 -4.1899  0.1204
 2340TIP3   OH228578   2.757   6.180   7.233  0.0550  0.4422 -0.0772
 2340TIP3    H128579   2.674   6.133   7.220  0.5595 -0.3143 -0.6426
 2340TIP3    H228580   2.788   6.152   7.319  0.7381 -0.8962 -0.7329
 2341TIP3   OH228581   2.089   1.041   2.332  0.3320 -0.2677  0.1313
 2341TIP3    H128582   2.117   1.050   2.241  1.1861 -0.1498  0.4005
 2341TIP3    H228583   2.151   1.094   2.382 -1.0713  0.9967  0.6340
 2342TIP3   OH228584   4.127   3.213   7.453 -0.6966 -0.2390  0.8666
 2342TIP3    H128585   4.083   3.272   7.393 -0.6114 -0.6262  0.4217
 2342TIP3    H228586   4.078   3.221   7.535 -1.4806 -0.5233  0.4365
 2343TIP3   OH228587   6.464   5.206   7.581 -0.8171 -0.4379  0.2732
 2343TIP3    H128588   6.483   5.179   7.671 -1.9117 -1.1830  0.2866
 2343TIP3    H228589   6.376   5.244   7.585 -0.3423  0.7851 -0.2426
 2344TIP3   OH228590   0.311   5.413   8.075 -0.4099 -0.0478  0.3936
 2344TIP3    H128591   0.224   5.418   8.035 -0.6834  0.5287  1.0348
 2344TIP3    H228592   0.331   5.319   8.077 -0.3518 -0.0888 -1.1314
 2345TIP3   OH228593   6.456   1.214   7.653  0.0483  0.3492 -0.1533
 2345TIP3    H128594   6.417   1.282   7.706  0.6914  0.7647 -0.2001
 2345TIP3    H228595   6.546   1.207   7.685 -0.0335 -0.5484 -0.0780
 2346TIP3   OH228596   4.886   3.053   7.726  0.0377  0.2870  0.2367
 2346TIP3    H128597   4.825   3.033   7.656  1.1805 -1.9664 -0.2231
 2346TIP3    H228598   4.831   3.082   7.799 -1.4772 -0.7883 -0.4334
 2347TIP3   OH228599   1.993   5.603   7.153 -0.3393  0.4978 -0.1178
 2347TIP3    H128600   2.023   5.693   7.150 -1.4911  0.8813 -1.1299
 2347TIP3    H228601   2.067   5.551   7.122  0.3062  1.0845  0.4188
 2348TIP3   OH228602   1.979   3.226   7.224 -0.4394 -0.3793 -0.1310
 2348TIP3    H128603   1.999   3.156   7.287 -0.3415 -0.1179  0.1341
 2348TIP3    H228604   1.915   3.187   7.165 -3.3900  0.4230  2.2609
 2349TIP3   OH228605   1.957   3.554   1.153 -0.5484 -0.3659 -0.3715
 2349TIP3    H128606   1.898   3.595   1.216 -0.2340 -0.3819 -0.0644
 2349TIP3    H228607   1.932   3.592   1.069 -1.1527 -0.5511 -0.2773
 2350TIP3   OH228608   5.307   0.367   6.553 -0.1837  0.2380  0.1364
 2350TIP3    H128609   5.213   0.381   6.549 -0.3043  0.0396  1.8487
 2350TIP3    H228610   5.345   0.452   6.529 -0.7590  0.1485 -1.1786
 2351TIP3   OH228611   6.614   5.484   1.672  0.3187 -0.2621  0.4898
 2351TIP3    H128612   6.597   5.578   1.664  1.0422 -0.2467 -1.1717
 2351TIP3    H228613   6.671   5.477   1.749  1.2213  0.8153 -0.0497
 2352TIP3   OH228614   1.634   1.990   8.158 -0.0686 -0.3417  0.4510
 2352TIP3    H128615   1.659   2.050   8.228 -0.0151 -1.2566  1.2370
 2352TIP3    H228616   1.619   2.047   8.082 -0.9841  0.7593  1.4171
 2353TIP3   OH228617   1.597   0.782   7.147 -0.1975 -0.0660 -0.1584
 2353TIP3    H128618   1.604   0.877   7.154  1.6217 -0.2932  2.1858
 2353TIP3    H228619   1.676   0.756   7.100 -0.9800 -0.4174 -1.3194
 2354TIP3   OH228620   4.757   5.908   6.919 -0.0449 -0.1026 -0.7315
 2354TIP3    H128621   4.735   5.951   6.836 -2.7037  1.8049  0.7967
 2354TIP3    H228622   4.848   5.933   6.935 -0.0907  1.1404 -2.1532
 2355TIP3   OH228623   1.765   3.365   7.801 -0.4910  0.3071  0.4356
 2355TIP3    H128624   1.795   3.287   7.753  0.2363  0.7747  0.0972
 2355TIP3    H228625   1.743   3.333   7.888  0.4678 -0.1810  0.5181
 2356TIP3   OH228626   1.801   2.452   6.946  0.3154  0.0096 -0.5608
 2356TIP3    H128627   1.885   2.410   6.932  0.3537 -0.4027  0.7494
 2356TIP3    H228628   1.816   2.514   7.017 -0.3207  0.4598 -0.8047
 2357TIP3   OH228629   6.826   4.120   0.632 -0.5398  0.1047 -0.3027
 2357TIP3    H128630   6.812   4.103   0.725 -0.8307 -2.3578 -0.7319
 2357TIP3    H228631   6.920   4.134   0.623 -0.4564 -0.0501  0.3101
 2358TIP3   OH228632   4.753   6.707   0.151  0.6633 -0.0593 -0.0257
 2358TIP3    H128633   4.778   6.795   0.179  0.3181 -0.1249  0.4922
 2358TIP3    H228634   4.817   6.649   0.194  0.5752 -0.1015  0.0492
 2359TIP3   OH228635   5.207   0.386   7.581  0.2888 -0.3853  0.7406
 2359TIP3    H128636   5.117   0.379   7.550 -0.3189  2.1654  1.6627
 2359TIP3    H228637   5.257   0.415   7.504  0.5200 -2.3749  0.0712
 2360TIP3   OH228638   3.246   6.071   0.055  0.5515  0.5288 -0.0879
 2360TIP3    H128639   3.328   6.059   0.006 -0.0920  0.1046 -1.0916
 2360TIP3    H228640   3.202   6.144   0.011  1.4466  2.4172  1.9429
 2361TIP3   OH228641   3.678   1.112   7.277  0.1886  0.1555 -0.4404
 2361TIP3    H128642   3.678   1.153   7.363  0.2311 -0.7182 -0.0079
 2361TIP3    H228643   3.593   1.066   7.273  0.1095  0.3415 -0.9343
 2362TIP3   OH228644   5.308   1.633   8.199  0.4407  0.2387  0.3033
 2362TIP3    H128645   5.309   1.542   8.228  0.0158 -0.0297 -0.4664
 2362TIP3    H228646   5.225   1.668   8.231  0.8202  0.5045  1.0116
 2363TIP3   OH228647   3.341   5.811   2.245  0.2480  0.4850  0.0870
 2363TIP3    H128648   3.392   5.850   2.174 -1.6862  2.4823 -0.3103
 2363TIP3    H228649   3.256   5.855   2.241 -2.3292 -3.9078 -0.4830
 2364TIP3   OH228650   4.570   1.816   1.665  0.1172  0.1479  0.4495
 2364TIP3    H128651   4.647   1.858   1.626 -1.1635  1.6904 -0.5020
 2364TIP3    H228652   4.531   1.884   1.720 -0.5745 -0.6141  0.9148
 2365TIP3   OH228653   3.139   3.902   0.776  0.5850  0.0880  0.0166
 2365TIP3    H128654   3.190   3.821   0.777  1.0151  0.3422 -0.6688
 2365TIP3    H228655   3.072   3.889   0.843  1.1830 -0.4831  0.5148
 2366TIP3   OH228656   4.543   2.679   1.528  0.0434 -0.2604 -0.2768
 2366TIP3    H128657   4.497   2.597   1.507 -0.0480  0.2538 -2.2742
 2366TIP3    H228658   4.585   2.661   1.613 -2.5641 -1.2735  0.9410
 2367TIP3   OH228659   0.015   3.752   1.276 -0.3646 -0.5150 -0.7313
 2367TIP3    H128660  -0.015   3.721   1.191 -2.2953 -0.5220 -0.0939
 2367TIP3    H228661   0.066   3.831   1.256  0.4318 -1.3128 -1.9725
 2368TIP3   OH228662   4.715   6.000   1.146  0.1183 -0.0812 -0.1576
 2368TIP3    H128663   4.771   5.993   1.069  1.7390 -5.0605  1.0905
 2368TIP3    H228664   4.630   5.966   1.118 -0.4307  1.5052 -0.5141
 2369TIP3   OH228665   0.025   2.434   1.968 -0.4802 -0.3815 -0.2471
 2369TIP3    H128666   0.078   2.363   1.932 -0.1010  0.1422 -0.7532
 2369TIP3    H228667  -0.042   2.450   1.901 -0.5136 -0.2137 -0.1744
 2370TIP3   OH228668   4.621   4.451   1.652  0.1302  0.3400  0.5908
 2370TIP3    H128669   4.712   4.481   1.650 -0.0753  0.9113 -0.7569
 2370TIP3    H228670   4.603   4.436   1.745  1.5577  0.3353  0.8815
 2371TIP3   OH228671   5.908   5.553   8.160 -0.4798 -0.1467 -0.5193
 2371TIP3    H128672   5.986   5.605   8.142 -0.5582  0.1271 -0.0811
 2371TIP3    H228673   5.936   5.490   8.227 -1.0383  1.0285  0.8849
 2372TIP3   OH228674   6.828   6.997   0.254  0.0035 -0.1367 -1.0439
 2372TIP3    H128675   6.824   7.092   0.243 -2.9773 -0.4242 -3.7273
 2372TIP3    H228676   6.765   6.978   0.324  1.0932 -0.1712 -0.0280
 2373TIP3   OH228677   4.671   5.047   1.261  0.5520  0.1465 -0.0298
 2373TIP3    H128678   4.604   4.996   1.216  0.2518  0.0465  0.5200
 2373TIP3    H228679   4.685   5.123   1.205  0.2363 -0.0124 -0.3288
 2374TIP3   OH228680   6.818   5.370   7.042 -0.1624  0.9265  0.2606
 2374TIP3    H128681   6.808   5.349   6.949  0.6336 -0.4045  0.4543
 2374TIP3    H228682   6.750   5.320   7.086  1.2995 -0.8222  0.6525
 2375TIP3   OH228683   3.222   4.457   6.627  0.3535 -0.3441  0.1948
 2375TIP3    H128684   3.163   4.386   6.602 -0.3236  0.1496  0.3638
 2375TIP3    H228685   3.253   4.493   6.544 -0.9787  0.5406  0.0642
 2376TIP3   OH228686   6.400   2.932   2.513  0.0505 -0.0267 -0.0969
 2376TIP3    H128687   6.344   2.872   2.562 -1.5017  0.4067 -1.2762
 2376TIP3    H228688   6.392   3.015   2.559 -0.4252  0.0762 -0.3595
 2377TIP3   OH228689   2.794   5.909   6.960 -0.3173 -0.0642  0.1555
 2377TIP3    H128690   2.701   5.932   6.954 -0.2723 -0.0200 -0.4789
 2377TIP3    H228691   2.838   5.975   6.907 -0.0476 -0.7961 -0.5520
 2378TIP3   OH228692   2.148   3.711   7.441 -0.5939  0.5148 -0.1651
 2378TIP3    H128693   2.118   3.652   7.373 -1.3547  1.2429 -0.4865
 2378TIP3    H228694   2.238   3.684   7.460  0.4957  1.6913 -3.0594
 2379TIP3   OH228695   4.255   4.972   1.769  0.3877 -0.1223 -0.0550
 2379TIP3    H128696   4.179   4.968   1.827  0.5886  1.0605  0.3063
 2379TIP3    H228697   4.330   4.958   1.826  0.5197  0.0002 -0.1955
 2380TIP3   OH228698   2.077   2.517   2.822 -0.3452 -0.5613  0.1135
 2380TIP3    H128699   2.055   2.607   2.798 -0.3926 -0.8240 -0.8672
 2380TIP3    H228700   2.164   2.524   2.861 -0.4270 -0.0620  0.2183
 2381TIP3   OH228701   1.588   3.222   7.215 -0.2405 -0.4832 -0.2811
 2381TIP3    H128702   1.588   3.168   7.136 -0.6832  1.4225 -1.6587
 2381TIP3    H228703   1.617   3.163   7.284  1.6801 -1.8366 -2.1149
 2382TIP3   OH228704   5.097   6.206   7.645 -0.1645 -0.0977  0.1165
 2382TIP3    H128705   5.053   6.271   7.590 -0.1955  0.8413  1.2000
 2382TIP3    H228706   5.099   6.127   7.592 -2.9508 -0.1356 -0.0821
 2383TIP3   OH228707   0.575   2.755   1.331 -0.2757  0.0331 -0.1876
 2383TIP3    H128708   0.628   2.788   1.258 -0.8370  1.0610 -0.1543
 2383TIP3    H228709   0.486   2.753   1.296 -0.2774 -1.4714 -0.1764
 2384TIP3   OH228710   6.818   0.302   7.985  0.1031  0.0422  0.0935
 2384TIP3    H128711   6.730   0.273   8.011  0.5311 -1.0141  0.4437
 2384TIP3    H228712   6.850   0.231   7.928  0.5675  0.6209 -0.3773
 2385TIP3   OH228713   6.095   3.942   7.275  0.4782 -0.5276 -0.1072
 2385TIP3    H128714   6.141   4.022   7.249 -0.5939 -0.3806 -1.6672
 2385TIP3    H228715   6.029   3.972   7.338  0.5861 -0.2951 -0.1024
 2386TIP3   OH228716   1.243   5.338   0.236 -0.5974 -0.2522  0.0802
 2386TIP3    H128717   1.321   5.292   0.207  1.0247  2.1225  0.3424
 2386TIP3    H228718   1.205   5.376   0.156 -1.3623 -1.1612 -0.0089
 2387TIP3   OH228719   1.933   6.378   1.126  0.4369  0.5226  0.4900
 2387TIP3    H128720   2.015   6.423   1.146 -0.0359  3.1350 -2.5722
 2387TIP3    H228721   1.906   6.414   1.041 -2.8518 -1.7441  0.3831
 2388TIP3   OH228722   2.741   1.664   2.459  0.0750  0.3432 -0.1855
 2388TIP3    H128723   2.802   1.731   2.491 -0.4598  0.7719 -0.0528
 2388TIP3    H228724   2.664   1.673   2.514 -0.2098 -0.0383 -0.5121
 2389TIP3   OH228725   4.697   3.717   8.315  0.4752  0.3899 -0.3773
 2389TIP3    H128726   4.649   3.724   8.232 -1.1928  0.2551  0.5343
 2389TIP3    H228727   4.787   3.738   8.292  0.1616 -0.2114 -2.3334
 2390TIP3   OH228728   2.572   2.042   7.767 -0.2878  0.2230 -0.6267
 2390TIP3    H128729   2.539   2.042   7.857  2.2612  0.7806  0.3926
 2390TIP3    H228730   2.512   1.984   7.720 -1.0601 -0.9876  1.6852
 2391TIP3   OH228731   0.969   2.109   8.049  0.1471  0.0036  0.0852
 2391TIP3    H128732   0.904   2.066   8.105  0.5542 -0.2093  0.4019
 2391TIP3    H228733   1.053   2.080   8.084  0.4231  0.7232  0.0386
 2392TIP3   OH228734   6.116   6.221   0.811  0.1149  0.1024 -0.0159
 2392TIP3    H128735   6.157   6.199   0.727 -1.0012  0.2453 -0.6076
 2392TIP3    H228736   6.190   6.241   0.869  1.0793 -2.4124 -0.2255
 2393TIP3   OH228737   1.580   3.133   1.382  0.1205 -0.3669 -0.5940
 2393TIP3    H128738   1.522   3.068   1.344  0.8248 -0.5514 -1.3704
 2393TIP3    H228739   1.663   3.123   1.336  0.4686  0.5852 -0.2239
 2394TIP3   OH228740   3.827   0.740   1.257 -0.4755 -0.0159 -0.2994
 2394TIP3    H128741   3.766   0.773   1.323  0.1229  1.3761 -0.4029
 2394TIP3    H228742   3.771   0.698   1.191 -1.0621 -1.7418  1.2151
 2395TIP3   OH228743   3.014   2.632   0.533 -0.0770 -0.0974 -0.0856
 2395TIP3    H128744   3.049   2.571   0.598 -0.5476 -1.7621 -1.3259
 2395TIP3    H228745   3.020   2.717   0.575 -0.5355 -1.1232  2.2206
 2396TIP3   OH228746   6.699   3.863   7.587 -0.0512  0.0622  0.2110
 2396TIP3    H128747   6.648   3.782   7.586  0.7422 -0.4696  1.3958
 2396TIP3    H228748   6.716   3.881   7.679 -0.4560  1.7541 -0.0078
 2397TIP3   OH228749   0.177   5.115   0.463 -0.8699 -0.1883  0.1340
 2397TIP3    H128750   0.221   5.200   0.462  1.0756 -1.1420  0.2913
 2397TIP3    H228751   0.087   5.134   0.437 -0.0945  1.7119 -1.3627
 2398TIP3   OH228752   1.881   2.056   0.370  0.5307 -0.0644 -0.3672
 2398TIP3    H128753   1.902   2.056   0.463  0.9032 -1.7663 -0.4144
 2398TIP3    H228754   1.786   2.069   0.366  0.7548  1.9207  0.1309
 2399TIP3   OH228755   2.924   0.407   7.891 -0.0495  0.2374  0.5281
 2399TIP3    H128756   2.899   0.476   7.951 -1.5230  0.3270 -0.1482
 2399TIP3    H228757   2.997   0.363   7.934  0.5264  1.8210  1.2339
 2400TIP3   OH228758   0.691   2.936   7.139 -0.0380 -0.0499  0.3896
 2400TIP3    H128759   0.643   2.862   7.174  0.7460 -0.9403 -0.3616
 2400TIP3    H228760   0.627   3.007   7.135 -1.3553 -1.2561 -0.7853
 2401TIP3   OH228761   3.025   1.661   1.531  0.6113 -0.2104  0.1363
 2401TIP3    H128762   3.113   1.664   1.494  2.1727  1.0880  3.5812
 2401TIP3    H228763   3.033   1.704   1.616 -3.0661 -1.3678  1.2424
 2402TIP3   OH228764   2.150   1.991   7.776  0.0682 -0.0366  0.0792
 2402TIP3    H128765   2.222   1.951   7.728  0.8574 -1.5509  2.3381
 2402TIP3    H228766   2.073   1.979   7.720  1.3623  0.8893 -2.0139
 2403TIP3   OH228767   1.450   1.094   2.832  0.2010 -0.1224  0.7725
 2403TIP3    H128768   1.400   1.102   2.751  0.5328 -0.5446  0.5211
 2403TIP3    H228769   1.466   1.185   2.860 -0.5326  0.0122  0.7547
 2404TIP3   OH228770   1.304   2.118   6.421  0.5548  0.5207  0.3820
 2404TIP3    H128771   1.374   2.064   6.384  0.1724  0.0953  0.2598
 2404TIP3    H228772   1.224   2.085   6.379  0.3375  1.3357  0.1461
 2405TIP3   OH228773   5.892   1.064   8.312 -0.4524  0.2862  0.3036
 2405TIP3    H128774   5.891   1.133   8.246  2.1064 -1.0446 -1.2832
 2405TIP3    H228775   5.818   1.084   8.368 -1.6038  2.5885 -1.8339
 2406TIP3   OH228776   0.011   4.386   6.951 -0.1048 -0.2655  0.0696
 2406TIP3    H128777  -0.008   4.351   6.864  0.6556  0.1018 -0.2625
 2406TIP3    H228778   0.107   4.379   6.958 -0.1614 -0.2553  0.8570
 2407TIP3   OH228779   6.124   6.625   0.255  0.6431  0.2811  0.7526
 2407TIP3    H128780   6.116   6.645   0.162  0.0688 -2.2449  0.1590
 2407TIP3    H228781   6.036   6.638   0.291  0.8572  1.2251  0.9419
 2408TIP3   OH228782   2.682   1.077   8.281  0.3739  0.7293  0.1801
 2408TIP3    H128783   2.764   1.127   8.290 -0.3062  1.9288 -0.0498
 2408TIP3    H228784   2.617   1.130   8.327 -0.5531  0.4963 -0.8376
 2409TIP3   OH228785   0.045   1.672   1.614 -0.6261  0.3845 -0.5868
 2409TIP3    H128786  -0.044   1.693   1.644  0.2809  1.6194  1.4681
 2409TIP3    H228787   0.091   1.756   1.617  1.0073 -0.4918 -0.1474
 2410TIP3   OH228788   4.112   4.670   7.892  0.0155  0.8938  0.3058
 2410TIP3    H128789   4.111   4.625   7.808  2.1478 -0.4446  0.9238
 2410TIP3    H228790   4.037   4.634   7.939  1.0871 -1.4148  0.4077
 2411TIP3   OH228791   3.317   3.310   1.924  0.6918 -0.1658 -0.2967
 2411TIP3    H128792   3.351   3.385   1.874  1.3726 -1.1599 -1.3866
 2411TIP3    H228793   3.328   3.336   2.016  2.7646  0.3120 -0.6154
 2412TIP3   OH228794   4.704   4.898   7.312  0.3848  0.1251 -0.5924
 2412TIP3    H128795   4.671   4.945   7.235 -1.1777 -0.3165 -0.2312
 2412TIP3    H228796   4.692   4.806   7.290  1.0339 -0.0349 -0.2782
 2413TIP3   OH228797   6.026   4.771   6.911 -0.1263 -0.0074 -0.0065
 2413TIP3    H128798   6.061   4.729   6.832  0.3439 -1.1071  0.7575
 2413TIP3    H228799   5.965   4.707   6.947 -1.8685  1.2838 -0.5071
 2414TIP3   OH228800   5.842   4.312   0.656 -0.5000 -0.3148  0.2169
 2414TIP3    H128801   5.781   4.294   0.585  0.8849  0.0596 -1.1380
 2414TIP3    H228802   5.827   4.404   0.677 -1.8082 -0.7516  1.3604
 2415TIP3   OH228803   5.767   0.535   7.406  0.3326 -0.1848 -0.0459
 2415TIP3    H128804   5.838   0.547   7.343  0.0767 -0.4658 -0.3902
 2415TIP3    H228805   5.689   0.521   7.352 -0.2962  1.7535  0.3063
 2416TIP3   OH228806   2.736   0.876   2.526 -0.3143 -0.0636  0.4192
 2416TIP3    H128807   2.815   0.839   2.566 -0.5959  0.6100  1.6191
 2416TIP3    H228808   2.664   0.830   2.567 -0.5752 -0.5775 -0.5785
 2417TIP3   OH228809   5.366   1.643   1.245 -0.5516 -0.1274  0.3505
 2417TIP3    H128810   5.285   1.684   1.215  0.1197  0.0153 -1.4254
 2417TIP3    H228811   5.420   1.716   1.276 -0.9210 -0.1692  1.0994
 2418TIP3   OH228812   1.014   4.367   1.952  0.3906  0.3245 -0.1383
 2418TIP3    H128813   1.082   4.381   2.017  0.1232 -0.4411  0.3143
 2418TIP3    H228814   0.936   4.408   1.989  0.5095  0.8936 -0.4993
 2419TIP3   OH228815   6.353   4.193   1.710 -0.0876  0.4276  0.7458
 2419TIP3    H128816   6.271   4.158   1.675  0.1786  0.3271  0.2169
 2419TIP3    H228817   6.420   4.131   1.680  0.0521 -0.1601  2.1611
 2420TIP3   OH228818   0.578   2.646   0.490  0.2929 -0.2252  0.2306
 2420TIP3    H128819   0.613   2.710   0.429 -1.0479  0.0053 -0.3385
 2420TIP3    H228820   0.495   2.684   0.520 -1.6845 -2.5520 -1.8042
 2421TIP3   OH228821   0.155   6.857   1.078 -0.2229  0.6014  0.1140
 2421TIP3    H128822   0.118   6.808   1.004  1.6907  0.1308 -0.5799
 2421TIP3    H228823   0.193   6.936   1.039 -0.1934  0.9107  0.7508
 2422TIP3   OH228824   6.906   0.688   7.746 -0.0992 -0.8308  0.0504
 2422TIP3    H128825   6.968   0.647   7.686 -0.2729  0.2959 -0.9386
 2422TIP3    H228826   6.958   0.711   7.823  0.2395 -1.8277  0.1227
 2423TIP3   OH228827   4.514   0.859   0.407 -0.3909 -0.2972  0.4619
 2423TIP3    H128828   4.603   0.842   0.438  0.1663 -2.8891 -2.1552
 2423TIP3    H228829   4.459   0.846   0.485  1.2869 -1.8189  1.4825
 2424TIP3   OH228830   1.783   1.974   2.040  0.3386  0.6865 -0.1687
 2424TIP3    H128831   1.858   1.958   1.982 -0.2588 -0.6062 -0.6095
 2424TIP3    H228832   1.821   1.978   2.127  0.6483 -3.2585  0.0537
 2425TIP3   OH228833   0.612   1.913   1.913  0.5312 -0.7492 -0.4613
 2425TIP3    H128834   0.669   1.836   1.914 -0.5629 -1.5889 -0.2429
 2425TIP3    H228835   0.614   1.944   1.823  0.9413 -1.0724 -0.5666
 2426TIP3   OH228836   4.178   0.015   6.625  0.6312 -0.1667  0.3878
 2426TIP3    H128837   4.151   0.002   6.534  1.3500  0.5879  0.0573
 2426TIP3    H228838   4.268  -0.017   6.628  0.8205  0.3825  0.6826
 2427TIP3   OH228839   6.681   3.884   6.350  0.2517  0.4054 -0.8641
 2427TIP3    H128840   6.707   3.954   6.290  0.2958 -0.3154 -1.6871
 2427TIP3    H228841   6.764   3.852   6.386  0.1707  1.6149  0.5036
 2428TIP3   OH228842   2.433   3.226   8.332 -0.2479 -0.0455  0.8462
 2428TIP3    H128843   2.459   3.195   8.419  1.4078 -1.6317 -0.1438
 2428TIP3    H228844   2.467   3.316   8.327  1.1478 -0.5279  1.2429
 2429TIP3   OH228845   5.678   6.921   2.461  0.0432  0.1914 -0.0573
 2429TIP3    H128846   5.720   6.934   2.546  3.2722  1.4886 -1.6635
 2429TIP3    H228847   5.699   6.830   2.438  0.5473  0.3241 -0.1289
 2430TIP3   OH228848   3.028   1.917   7.537 -0.0760  0.3280  0.2062
 2430TIP3    H128849   3.056   1.825   7.535 -1.2887 -0.0730  0.6156
 2430TIP3    H228850   2.963   1.920   7.607  0.7663  1.7652  0.9841
 2431TIP3   OH228851   2.232   4.152   1.769 -0.1264  0.0172 -0.3411
 2431TIP3    H128852   2.224   4.245   1.791 -0.7289 -0.0369 -0.3071
 2431TIP3    H228853   2.153   4.133   1.718 -0.7662 -0.8361  0.9349
 2432TIP3   OH228854   5.447   0.581   2.531  0.1708  0.0084 -0.0259
 2432TIP3    H128855   5.467   0.488   2.516 -1.2496 -0.5285  1.1082
 2432TIP3    H228856   5.398   0.608   2.453 -2.1716 -1.1326  0.9583
 2433TIP3   OH228857   6.333   4.376   0.281  1.1100  0.3370  0.1307
 2433TIP3    H128858   6.306   4.290   0.315  0.7491 -0.1885 -1.3898
 2433TIP3    H228859   6.330   4.434   0.357 -3.1033  0.0465  0.4268
 2434TIP3   OH228860   1.111   2.401   7.169  0.3332 -0.0176  0.2169
 2434TIP3    H128861   1.150   2.314   7.185 -1.2304 -0.9936 -0.9577
 2434TIP3    H228862   1.026   2.382   7.129 -0.9029  2.0403  1.6482
 2435TIP3   OH228863   6.855   2.890   0.912 -0.0018 -0.1511 -0.0985
 2435TIP3    H128864   6.815   2.931   0.835 -0.8783  2.3485  1.5463
 2435TIP3    H228865   6.798   2.816   0.933 -1.8433  1.2689  0.1636
 2436TIP3   OH228866   4.734   4.122   2.014 -0.0172  0.2476  0.6304
 2436TIP3    H128867   4.649   4.115   1.970  1.3486  0.4028 -2.2572
 2436TIP3    H228868   4.718   4.181   2.088 -2.5373 -0.3200  0.6373
 2437TIP3   OH228869   1.772   1.906   7.574 -0.5165  0.7136 -0.0736
 2437TIP3    H128870   1.785   1.888   7.667  1.2483  1.0944 -0.2141
 2437TIP3    H228871   1.818   1.834   7.530 -1.7911  0.2357 -0.6817
 2438TIP3   OH228872   1.987   1.416   1.437  0.1324  0.1595  0.0308
 2438TIP3    H128873   1.910   1.473   1.432  0.3597  0.4836  0.2338
 2438TIP3    H228874   1.966   1.343   1.379 -2.1516 -1.9019  3.0903
 2439TIP3   OH228875   0.547   6.453   1.472 -0.4926  0.1196  0.3806
 2439TIP3    H128876   0.536   6.414   1.558 -0.9827  0.3050  0.4048
 2439TIP3    H228877   0.463   6.494   1.453 -1.4857 -2.5013 -1.4902
 2440TIP3   OH228878   0.166   2.300   0.746  0.2089  0.6474  0.3538
 2440TIP3    H128879   0.168   2.207   0.724  0.4969  1.0636 -1.5459
 2440TIP3    H228880   0.129   2.303   0.835  0.5014 -1.2783  0.5828
 2441TIP3   OH228881   4.545   1.997   2.093 -0.6799 -0.0281 -0.6682
 2441TIP3    H128882   4.583   1.911   2.072  0.3583  0.1466  0.3959
 2441TIP3    H228883   4.455   1.976   2.121  0.1741 -1.0646  1.5841
 2442TIP3   OH228884   6.341   3.179   7.788 -0.5704  0.3091  0.0321
 2442TIP3    H128885   6.298   3.097   7.763 -1.3827  0.6190  0.3753
 2442TIP3    H228886   6.340   3.232   7.708 -1.8707  0.7489  0.3164
 2443TIP3   OH228887   4.815   3.442   6.908  0.2842  0.5223 -0.4664
 2443TIP3    H128888   4.797   3.387   6.831  2.2953  0.6859 -1.1077
 2443TIP3    H228889   4.898   3.409   6.941 -0.0353  1.1593  1.0276
 2444TIP3   OH228890   0.389   3.173   1.403  0.0566 -0.2262  0.3371
 2444TIP3    H128891   0.409   3.115   1.477 -0.1756 -1.7458 -0.7427
 2444TIP3    H228892   0.370   3.113   1.331 -0.0651  1.2217 -0.8670
 2445TIP3   OH228893   3.717   4.174   0.538 -0.6928  0.0531  0.4380
 2445TIP3    H128894   3.687   4.089   0.569  1.1339 -1.0137 -0.5758
 2445TIP3    H228895   3.771   4.208   0.609 -1.9998  0.7334  1.1394
 2446TIP3   OH228896   2.836   1.723   1.362  0.7666  0.0386 -0.1475
 2446TIP3    H128897   2.883   1.694   1.440  1.7481 -0.0465 -0.7589
 2446TIP3    H228898   2.754   1.673   1.364  0.6791  0.2131  0.9470
 2447TIP3   OH228899   0.995   5.983   1.077  0.1292  0.5418  0.0247
 2447TIP3    H128900   1.050   5.925   1.129 -0.3011 -1.1297 -1.3155
 2447TIP3    H228901   1.056   6.038   1.027  0.5326  1.0643  1.0589
 2448TIP3   OH228902   5.659   6.462   1.073  0.0312 -0.0453  0.5072
 2448TIP3    H128903   5.708   6.457   1.155  1.5254  1.7923 -0.2069
 2448TIP3    H228904   5.662   6.554   1.048 -2.1553 -0.2020 -0.6033
 2449TIP3   OH228905   0.766   2.965   7.434  0.2599 -0.2791  0.1676
 2449TIP3    H128906   0.776   2.874   7.460  0.3245 -0.3054  0.0526
 2449TIP3    H228907   0.673   2.983   7.442  0.4837  0.1978  2.0124
 2450TIP3   OH228908   1.747   4.326   0.859  0.0830  0.4242  0.3054
 2450TIP3    H128909   1.745   4.358   0.769 -1.7239  0.9204  0.4870
 2450TIP3    H228910   1.828   4.360   0.895  0.3259  1.0824 -0.8323
 2451TIP3   OH228911   3.787   3.136   1.264 -0.3098  0.1862 -0.0750
 2451TIP3    H128912   3.853   3.068   1.279 -0.7530 -0.0406  0.8790
 2451TIP3    H228913   3.837   3.218   1.267  0.0108 -0.0143  0.1317
 2452TIP3   OH228914   3.168   2.807   1.559 -0.4976 -0.7373 -0.7089
 2452TIP3    H128915   3.194   2.779   1.472 -0.5965 -2.5547 -0.1859
 2452TIP3    H228916   3.080   2.845   1.547  0.5472  1.5708 -1.7840
 2453TIP3   OH228917   6.765   6.297   0.049  0.4645  0.0223  0.4418
 2453TIP3    H128918   6.756   6.362   0.120  0.2100 -1.3774  1.7420
 2453TIP3    H228919   6.675   6.280   0.021  0.5798  0.7440 -0.4177
 2454TIP3   OH228920   4.970   4.701   7.650  0.3044 -0.2907  1.0038
 2454TIP3    H128921   5.001   4.633   7.591  2.6429  0.2446  1.5151
 2454TIP3    H228922   4.912   4.655   7.711 -0.0481 -1.3406 -0.0990
 2455TIP3   OH228923   3.456   1.542   2.525  0.2060 -0.3903  0.6000
 2455TIP3    H128924   3.551   1.533   2.535  0.6958  1.8998 -1.2077
 2455TIP3    H228925   3.431   1.467   2.472  1.1386 -0.6285  0.4713
 2456TIP3   OH228926   2.005   1.887   1.389  0.7698 -0.1652  0.1071
 2456TIP3    H128927   2.016   1.823   1.459  1.2458  0.1866  0.3666
 2456TIP3    H228928   1.957   1.841   1.321  0.7592 -0.6726  0.4534
 2457TIP3   OH228929   4.948   2.152   1.107 -0.2733 -0.5383  0.1438
 2457TIP3    H128930   5.010   2.215   1.071  0.3194 -0.7854  0.7140
 2457TIP3    H228931   4.975   2.141   1.198 -0.8918 -0.9729  0.2822
 2458TIP3   OH228932   5.804   3.017   8.291  0.1051  0.1585 -0.0240
 2458TIP3    H128933   5.782   3.064   8.372  1.7395  2.5364 -0.8513
 2458TIP3    H228934   5.898   2.999   8.299 -0.3164 -2.4337 -0.0876
 2459TIP3   OH228935   6.806   6.971   1.835  0.1085  0.4578 -0.8090
 2459TIP3    H128936   6.840   7.015   1.913  1.0647 -0.4115 -0.7138
 2459TIP3    H228937   6.792   7.041   1.771  0.4280  1.0337 -0.2550
 2460TIP3   OH228938   1.475   1.948   1.202 -0.4563 -0.1186 -0.1600
 2460TIP3    H128939   1.478   2.033   1.157  1.4422 -0.2005 -0.2355
 2460TIP3    H228940   1.383   1.921   1.194 -0.4049  0.1862 -3.4124
 2461TIP3   OH228941   3.282   1.700   0.297 -0.1285 -0.1775  0.6512
 2461TIP3    H128942   3.373   1.672   0.288 -0.0533  0.2243  0.1499
 2461TIP3    H228943   3.287   1.795   0.307 -0.4854 -0.1711  0.7725
 2462TIP3   OH228944   3.030   2.718   0.818  0.0896  0.4854 -0.0462
 2462TIP3    H128945   3.068   2.783   0.758  0.6533  0.9223  0.7626
 2462TIP3    H228946   3.084   2.724   0.896 -1.7354  1.2345  1.2196
 2463TIP3   OH228947   1.162   5.002   1.009 -0.0057 -0.0094  0.0658
 2463TIP3    H128948   1.255   5.018   1.025  0.2208 -2.0173  1.0582
 2463TIP3    H228949   1.120   5.087   1.021  1.6397  0.8601 -0.0521
 2464TIP3   OH228950   0.554   3.211   1.911 -0.4022  0.1060 -0.1089
 2464TIP3    H128951   0.592   3.208   1.999 -1.1292  1.0097  0.2456
 2464TIP3    H228952   0.631   3.216   1.853  0.0673  0.1621  0.5023
 2465TIP3   OH228953   5.049   6.439   0.786  0.2041 -0.1162 -0.0766
 2465TIP3    H128954   5.014   6.403   0.867 -1.5193  0.1715 -0.6290
 2465TIP3    H228955   5.028   6.373   0.720 -0.7077  0.7356 -0.6777
 2466TIP3   OH228956   4.857   3.448   7.992 -0.2846 -0.6497 -0.1515
 2466TIP3    H128957   4.905   3.397   8.057  0.1892 -1.5358 -1.1661
 2466TIP3    H228958   4.766   3.444   8.020 -0.1264 -1.2739  0.2933
 2467TIP3   OH228959   2.749   4.405   1.449  0.2836  0.1584  0.0176
 2467TIP3    H128960   2.688   4.428   1.379  1.1386  0.8407 -0.5267
 2467TIP3    H228961   2.782   4.319   1.426  2.0426  1.1649 -1.5399
 2468TIP3   OH228962   3.409   6.416   0.003 -0.5903  0.0980  0.8177
 2468TIP3    H128963   3.388   6.503   0.038  0.8215  0.4740  0.7819
 2468TIP3    H228964   3.408   6.359   0.079  0.3887  0.5191  1.1551
 2469TIP3   OH228965   1.162   0.774   1.181 -0.0694 -0.1965  0.3542
 2469TIP3    H128966   1.198   0.692   1.147  0.2065 -0.4503  1.2422
 2469TIP3    H228967   1.200   0.842   1.126  1.2341 -0.5151  0.8312
 2470TIP3   OH228968   2.680   3.712   0.882  0.0916 -0.2179 -0.3094
 2470TIP3    H128969   2.684   3.628   0.836  0.9832 -1.2674  1.5188
 2470TIP3    H228970   2.610   3.700   0.947  0.5795  0.2456  0.3143
 2471TIP3   OH228971   6.240   2.880   7.052  0.2183 -0.1197  0.0815
 2471TIP3    H128972   6.268   2.832   6.974  1.1341 -3.0214  2.0447
 2471TIP3    H228973   6.321   2.910   7.093 -0.0900 -0.6367  1.0920
 2472TIP3   OH228974   3.002   1.991   7.222  0.1281 -0.2704 -0.0164
 2472TIP3    H128975   3.086   1.943   7.224 -1.4597 -3.3155  0.5445
 2472TIP3    H228976   2.959   1.966   7.303 -0.6327  2.8021  0.6459
 2473TIP3   OH228977   0.401   2.882   7.968  0.0709 -0.3115 -0.1877
 2473TIP3    H128978   0.322   2.933   7.952 -0.1036 -0.0315  1.4322
 2473TIP3    H228979   0.459   2.940   8.017  1.9056 -0.0239 -2.5255
 2474TIP3   OH228980   5.800   1.012   7.016 -0.4657 -0.6416  0.0742
 2474TIP3    H128981   5.794   0.919   7.037 -0.5984 -0.7614 -0.4928
 2474TIP3    H228982   5.781   1.017   6.922  1.3227 -0.2459 -0.3077
 2475TIP3   OH228983   4.653   0.279   0.458 -0.9925 -0.1876 -0.2111
 2475TIP3    H128984   4.746   0.300   0.459 -0.7755 -0.9544  2.3008
 2475TIP3    H228985   4.648   0.189   0.491 -2.5943 -0.4640 -1.0773
 2476TIP3   OH228986   6.423   3.975   7.696  0.6600 -0.3544  0.7846
 2476TIP3    H128987   6.473   3.974   7.614  2.2916  1.6253  1.6549
 2476TIP3    H228988   6.472   4.035   7.752 -1.1944 -0.5664  2.7287
 2477TIP3   OH228989   6.042   2.306   7.112  0.9231  0.5089 -0.2064
 2477TIP3    H128990   6.125   2.338   7.147  2.2454 -0.3737 -2.3345
 2477TIP3    H228991   6.028   2.222   7.156  1.6708  0.2134 -0.5175
 2478TIP3   OH228992   0.699   3.841   1.901 -0.2033  0.3471 -0.0250
 2478TIP3    H128993   0.740   3.834   1.987 -0.7315  0.0349  0.2024
 2478TIP3    H228994   0.773   3.840   1.839  0.0895 -1.8711  0.2684
 2479TIP3   OH228995   5.051   2.506   1.325 -0.3814  0.6361 -0.2710
 2479TIP3    H128996   4.997   2.519   1.247  0.0622  2.1393 -0.3653
 2479TIP3    H228997   5.042   2.413   1.345 -3.1746  0.8510 -0.1415
 2480TIP3   OH228998   5.025   6.961   1.083  0.6358 -0.1326 -0.2550
 2480TIP3    H128999   4.974   6.885   1.111  1.2399 -0.1518  0.8265
 2480TIP3    H229000   4.969   7.004   1.017 -0.3986 -0.6313  0.2693
 2481TIP3   OH229001   2.913   2.776   1.976 -0.0541  0.5846 -0.3411
 2481TIP3    H129002   2.996   2.816   1.948 -0.5848  1.0479 -1.3429
 2481TIP3    H229003   2.861   2.849   2.010 -0.2530  0.3911 -0.2245
 2482TIP3   OH229004   3.903   5.380   2.328 -0.8265  0.5344  0.7461
 2482TIP3    H129005   3.823   5.327   2.336 -1.4593  1.4857  0.9104
 2482TIP3    H229006   3.893   5.448   2.394 -0.0505  0.8939  0.5039
 2483TIP3   OH229007   6.534   4.758   0.829  0.0341  0.0138  0.4108
 2483TIP3    H129008   6.610   4.700   0.838 -0.4644 -0.4845  1.6226
 2483TIP3    H229009   6.517   4.760   0.735  0.2557 -1.5876  0.3110
 2484TIP3   OH229010   5.671   3.697   6.853  0.0698  0.0311  0.1017
 2484TIP3    H129011   5.727   3.718   6.779  1.2028  0.4557  1.0360
 2484TIP3    H229012   5.691   3.764   6.918  1.4039 -2.0041  1.9599
 2485TIP3   OH229013   1.663   3.213   0.280 -0.3929  0.2160 -0.0923
 2485TIP3    H129014   1.588   3.269   0.296  1.2927  1.6148  4.4874
 2485TIP3    H229015   1.633   3.125   0.303 -0.6493  0.8007  1.9725
 2486TIP3   OH229016   0.262   4.324   1.884 -0.1111  0.4394 -0.3694
 2486TIP3    H129017   0.209   4.278   1.949  0.5159 -0.3714 -0.4177
 2486TIP3    H229018   0.317   4.383   1.936 -0.8704  1.1236 -0.3048
 2487TIP3   OH229019   6.855   3.361   6.690 -0.0013 -0.5565  0.0109
 2487TIP3    H129020   6.809   3.295   6.636  0.6669 -0.2426 -0.9769
 2487TIP3    H229021   6.932   3.315   6.722 -0.5155 -0.8107  0.9123
 2488TIP3   OH229022   3.460   4.370   0.845  0.2396 -0.4389 -0.7881
 2488TIP3    H129023   3.446   4.370   0.940 -2.4382 -0.5095 -1.1158
 2488TIP3    H229024   3.436   4.281   0.817  2.4423 -0.8932 -1.4076
 2489TIP3   OH229025   1.094   0.516   0.016  0.3741 -0.7712 -0.3679
 2489TIP3    H129026   1.160   0.490   0.080  2.0503 -0.5838 -1.9188
 2489TIP3    H229027   1.019   0.544   0.068  1.6871 -0.5183  1.4919
 2490TIP3   OH229028   4.114   2.795   7.143 -0.3779  0.1934  0.1982
 2490TIP3    H129029   4.040   2.856   7.151  1.2863  2.3486 -0.0035
 2490TIP3    H229030   4.157   2.820   7.061  1.8616  0.5167  1.3929
 2491TIP3   OH229031   4.763   1.335   2.020  0.3067 -0.5433  0.0020
 2491TIP3    H129032   4.788   1.393   2.091  1.8071 -0.5587 -0.4608
 2491TIP3    H229033   4.714   1.265   2.061 -1.4515  0.9643  0.5849
 2492TIP3   OH229034   1.440   1.412   2.508 -0.0176 -0.2578 -0.1672
 2492TIP3    H129035   1.485   1.460   2.577  1.9817 -1.0172 -0.8595
 2492TIP3    H229036   1.397   1.339   2.554 -0.2894  0.3009  0.4818
 2493TIP3   OH229037   4.269   5.876   1.569 -0.3209  0.2773  0.1412
 2493TIP3    H129038   4.326   5.833   1.505  0.3276  0.8626  0.3134
 2493TIP3    H229039   4.181   5.850   1.543  0.0034 -0.4489 -0.2786
 2494TIP3   OH229040   5.412   4.409   8.353  0.3058  0.6026  0.2042
 2494TIP3    H129041   5.482   4.427   8.290  1.7268 -0.6744  1.3632
 2494TIP3    H229042   5.453   4.354   8.420 -2.1715 -1.4655  0.1596
 2495TIP3   OH229043   6.242   2.143   1.271  0.2472  0.8413  0.5130
 2495TIP3    H129044   6.220   2.165   1.361 -0.2528  1.5245  0.2388
 2495TIP3    H229045   6.233   2.047   1.267  0.0184  0.8303  1.1224
 2496TIP3   OH229046   2.735   2.388   8.022  0.0153 -0.1386 -0.1835
 2496TIP3    H129047   2.811   2.397   8.079 -0.3265 -0.3779  0.3168
 2496TIP3    H229048   2.696   2.304   8.045  0.5902 -0.8515 -1.6652
 2497TIP3   OH229049   3.873   4.575   1.616 -0.4741  0.3615 -0.7164
 2497TIP3    H129050   3.854   4.649   1.558 -0.0557 -0.1652 -1.5484
 2497TIP3    H229051   3.923   4.514   1.561  1.3825  0.5648  0.6465
 2498TIP3   OH229052   6.802   4.200   7.809  0.0633 -0.4950  0.1059
 2498TIP3    H129053   6.834   4.240   7.729 -0.4547 -2.5724 -1.2197
 2498TIP3    H229054   6.709   4.186   7.794 -0.6043  1.2760  2.0830
 2499TIP3   OH229055   4.057   2.133   0.729 -0.5106 -0.5775  0.0580
 2499TIP3    H129056   4.131   2.074   0.746 -0.5906 -0.3310  1.4079
 2499TIP3    H229057   4.068   2.204   0.793 -1.7905 -0.4196  0.1257
 2500TIP3   OH229058   5.633   5.066   1.859  0.8199 -0.0253 -0.0695
 2500TIP3    H129059   5.712   5.111   1.890  0.6681  1.2237 -1.3778
 2500TIP3    H229060   5.610   5.007   1.930  1.6524  1.2185  1.3029
 2501TIP3   OH229061   4.227   1.035   0.203  0.8438 -0.7660 -0.2341
 2501TIP3    H129062   4.313   1.073   0.218 -0.1680  1.2957  0.7613
 2501TIP3    H229063   4.222   0.962   0.265  1.7060 -0.6454 -0.0076
 2502TIP3   OH229064   1.594   2.962   6.345 -0.1779 -0.9969 -0.6054
 2502TIP3    H129065   1.540   3.033   6.379  1.4103 -0.3948  0.7988
 2502TIP3    H229066   1.583   2.891   6.408  0.3744 -0.9981 -0.5057
 2503TIP3   OH229067   2.872   1.892   2.553  0.5421  0.5483 -0.4673
 2503TIP3    H129068   2.819   1.970   2.569 -1.6165 -1.2190  1.7951
 2503TIP3    H229069   2.937   1.893   2.623  0.3741  0.2550 -0.3025
 2504TIP3   OH229070   3.594   6.328   7.691 -0.3276 -1.2155  0.1476
 2504TIP3    H129071   3.605   6.419   7.719  2.8032 -2.0420  2.0839
 2504TIP3    H229072   3.590   6.278   7.772  1.8578 -3.1099 -0.7991
 2505TIP3   OH229073   0.824   1.663   7.963  0.2708  0.3419  0.3383
 2505TIP3    H129074   0.785   1.577   7.982  0.9424 -0.7240 -2.4858
 2505TIP3    H229075   0.754   1.712   7.920 -0.0452  1.1709  1.7510
 2506TIP3   OH229076   4.134   5.850   0.168  0.2248 -1.0296 -0.0464
 2506TIP3    H129077   4.195   5.875   0.100 -0.3785 -0.1091 -0.2676
 2506TIP3    H229078   4.056   5.820   0.121 -0.7415  0.9498  0.1743
 2507TIP3   OH229079   1.770   1.755   7.894  0.2105 -0.1406 -0.5318
 2507TIP3    H129080   1.712   1.703   7.838  0.8303 -0.8255 -0.5388
 2507TIP3    H229081   1.762   1.716   7.981 -0.8194  0.9789 -0.0856
 2508TIP3   OH229082   4.038   6.413   2.725 -0.4878 -0.6110  0.5761
 2508TIP3    H129083   4.014   6.410   2.633 -0.9830 -0.3196  0.6891
 2508TIP3    H229084   4.078   6.328   2.743  2.3355  0.3448 -0.6136
 2509TIP3   OH229085   2.253   1.928   1.901  0.3133  0.1426 -0.0087
 2509TIP3    H129086   2.180   1.989   1.888 -0.4229 -0.6294  0.4048
 2509TIP3    H229087   2.211   1.845   1.922  1.3261 -0.1681  0.8730
 2510TIP3   OH229088   4.066   0.252   7.640  0.4240 -0.5470  0.4105
 2510TIP3    H129089   4.035   0.306   7.568  1.1651 -0.0983  0.4206
 2510TIP3    H229090   4.030   0.292   7.718  0.0316 -0.7432  0.3343
 2511TIP3   OH229091   5.027   5.590   1.236 -0.2304 -0.2712  0.2602
 2511TIP3    H129092   4.979   5.524   1.286 -1.5236 -1.5944 -2.5365
 2511TIP3    H229093   5.021   5.561   1.145  2.8801  1.4609 -0.6355
 2512TIP3   OH229094   2.645   4.378   7.415 -0.0563 -0.7524 -0.7033
 2512TIP3    H129095   2.552   4.362   7.433 -0.1991 -0.3663 -1.0869
 2512TIP3    H229096   2.684   4.389   7.502 -0.6365  0.5336 -0.5888
 2513TIP3   OH229097   4.214   6.202   2.076 -0.6316 -0.2843  0.2038
 2513TIP3    H129098   4.227   6.127   2.134  0.3227 -0.3193 -0.0329
 2513TIP3    H229099   4.151   6.172   2.011 -1.1108 -0.5012  0.7570
 2514TIP3   OH229100   6.976   6.395   7.735  0.2179 -1.1136 -0.2497
 2514TIP3    H129101   6.988   6.377   7.641  1.6831  0.0115 -0.2982
 2514TIP3    H229102   7.017   6.480   7.749 -0.7262 -0.8763  1.2689
 2515TIP3   OH229103   3.638   0.194   7.263  0.5837  0.4419 -0.3961
 2515TIP3    H129104   3.633   0.208   7.358 -0.1091 -0.9707 -0.1931
 2515TIP3    H229105   3.642   0.098   7.254  1.7972  0.5838 -1.7545
 2516TIP3   OH229106   3.812   0.681   1.725 -0.2829 -0.2959 -0.5717
 2516TIP3    H129107   3.793   0.712   1.636  0.4291  0.2072 -0.5548
 2516TIP3    H229108   3.901   0.646   1.720 -0.2183 -0.2115 -0.0415
 2517TIP3   OH229109   4.570   3.735   1.207  0.3067  0.2567 -0.2573
 2517TIP3    H129110   4.604   3.731   1.118 -0.8180 -0.9444 -0.6657
 2517TIP3    H229111   4.548   3.827   1.221  2.0149  0.7656 -0.5963
 2518TIP3   OH229112   0.054   6.947   0.394  0.8436 -0.0158 -0.1522
 2518TIP3    H129113   0.092   6.861   0.375  0.0179 -0.3811 -0.1534
 2518TIP3    H229114  -0.024   6.952   0.340  1.1209  0.9312 -0.5024
 2519TIP3   OH229115   5.045   2.397   1.937 -0.6483 -0.1001  0.1426
 2519TIP3    H129116   5.130   2.380   1.896 -0.4667 -0.2356  0.5699
 2519TIP3    H229117   5.018   2.313   1.973 -0.3023  0.2352  1.2247
 2520TIP3   OH229118   0.025   3.165   5.979 -0.6452 -0.0567 -0.3229
 2520TIP3    H129119  -0.028   3.214   5.916  1.1903  1.7650 -0.5747
 2520TIP3    H229120   0.115   3.177   5.949  0.0295 -1.9544  0.7966
 2521TIP3   OH229121   6.580   2.508   1.959 -0.0809  0.1739  0.0465
 2521TIP3    H129122   6.655   2.556   1.995  0.3901  0.4324 -1.2263
 2521TIP3    H229123   6.504   2.548   2.002  0.3382  1.6503 -0.4950
 2522TIP3   OH229124   4.035   4.797   7.182 -0.0267 -0.7045  0.0828
 2522TIP3    H129125   4.081   4.769   7.103 -1.5833 -1.0091 -0.7457
 2522TIP3    H229126   4.005   4.886   7.161 -0.8923 -0.9827  0.1109
 2523TIP3   OH229127   3.976   0.805   1.952 -0.3403 -0.3325 -0.8871
 2523TIP3    H129128   3.920   0.881   1.935  1.0503  0.9564 -0.0261
 2523TIP3    H229129   4.051   0.816   1.894  0.2681 -0.5878 -0.1758
 2524TIP3   OH229130   5.742   5.843   1.982 -0.1411 -0.2529 -0.8127
 2524TIP3    H129131   5.779   5.930   1.997  1.3004 -1.0473  0.5306
 2524TIP3    H229132   5.719   5.843   1.889 -1.6379  2.0637 -0.5247
 2525TIP3   OH229133   1.284   4.753   0.285  0.0515 -0.0348  0.2616
 2525TIP3    H129134   1.251   4.771   0.197 -1.2785 -0.2636  0.6773
 2525TIP3    H229135   1.265   4.833   0.334  1.0457  0.1970  0.2800
 2526TIP3   OH229136   2.735   0.795   0.918  0.3885 -0.1924 -0.5933
 2526TIP3    H129137   2.802   0.828   0.858 -0.4217  1.9281 -0.4013
 2526TIP3    H229138   2.654   0.799   0.868 -0.0229 -0.0960  0.0721
 2527TIP3   OH229139   1.490   3.540   1.126 -0.0321 -0.4109 -0.0695
 2527TIP3    H129140   1.560   3.572   1.183 -1.2983  0.0741  1.2774
 2527TIP3    H229141   1.441   3.618   1.102  0.0660 -0.7001 -1.2916
 2528TIP3   OH229142   3.210   3.465   7.462 -0.3688 -0.2906 -0.2390
 2528TIP3    H129143   3.243   3.405   7.529  0.8070 -1.3926 -1.7263
 2528TIP3    H229144   3.276   3.534   7.456  0.2417 -0.9391 -1.1970
 2529TIP3   OH229145   1.678   4.833   7.742 -0.0551  0.0043 -0.3183
 2529TIP3    H129146   1.721   4.895   7.683 -2.5587 -0.4741 -2.8692
 2529TIP3    H229147   1.714   4.748   7.718  2.2320  0.1799  2.1069
 2530TIP3   OH229148   0.148   5.397   0.011 -0.2271 -0.1764  0.4755
 2530TIP3    H129149   0.130   5.483   0.049 -1.0315  0.0145 -0.3071
 2530TIP3    H229150   0.147   5.412  -0.083 -1.0130 -1.1520  0.3081
 2531TIP3   OH229151   6.437   0.592   7.223 -0.3515 -0.3727 -0.3399
 2531TIP3    H129152   6.500   0.565   7.290  1.1595 -0.4983 -1.7445
 2531TIP3    H229153   6.482   0.575   7.140 -0.7016  3.0153 -1.3855
 2532TIP3   OH229154   0.991   2.477   2.062  0.2755  0.1520  0.2953
 2532TIP3    H129155   0.920   2.499   2.123  0.5014  0.8080  0.3292
 2532TIP3    H229156   0.950   2.419   1.998  0.0332 -0.5434  1.0631
 2533TIP3   OH229157   3.193   4.779   8.261  0.2140  0.3648  0.5192
 2533TIP3    H129158   3.171   4.779   8.354 -0.9638 -1.4074  0.2868
 2533TIP3    H229159   3.208   4.687   8.240  2.1138  0.9010 -0.7018
 2534TIP3   OH229160   4.137   5.276   2.804  0.6364 -0.1861  0.5332
 2534TIP3    H129161   4.083   5.288   2.882 -1.1981  1.1215 -0.8515
 2534TIP3    H229162   4.225   5.299   2.832  0.0024  0.4115  2.1733
 2535TIP3   OH229163   2.029   3.499   7.320  0.0861  0.2853  0.5802
 2535TIP3    H129164   2.015   3.486   7.414 -2.1737 -0.8818  0.1419
 2535TIP3    H229165   2.025   3.411   7.283  1.3482  0.6890 -0.6135
 2536TIP3   OH229166   2.952   3.543   0.896 -0.2048  0.1753 -0.1202
 2536TIP3    H129167   2.936   3.468   0.953 -0.8617  1.1047  0.9582
 2536TIP3    H229168   2.927   3.619   0.948  0.3336  1.1488 -1.2264
 2537TIP3   OH229169   5.888   6.501   1.897 -0.4410  0.7493 -0.0592
 2537TIP3    H129170   5.820   6.521   1.833 -1.4508  1.0980  1.0750
 2537TIP3    H229171   5.956   6.565   1.880 -0.8442  1.0532 -0.5711
 2538TIP3   OH229172   2.083   6.461   2.496 -0.3112 -0.1509  0.2959
 2538TIP3    H129173   2.104   6.505   2.579  0.7858  0.4427 -0.2813
 2538TIP3    H229174   2.045   6.530   2.442 -0.0935 -0.2981 -0.0466
 2539TIP3   OH229175   4.968   4.231   1.470 -0.1466 -0.3185 -0.0550
 2539TIP3    H129176   5.053   4.193   1.452  0.2602  0.4746  0.1482
 2539TIP3    H229177   4.953   4.214   1.563 -0.8888 -1.7495 -0.4025
 2540TIP3   OH229178   0.614   5.351   8.069 -0.0114 -0.3806 -0.1263
 2540TIP3    H129179   0.585   5.324   7.982  2.4596 -0.7190 -0.9330
 2540TIP3    H229180   0.596   5.445   8.072 -0.6655 -0.4742 -0.7586
 2541TIP3   OH229181   2.942   2.074   8.350  0.4516  0.0936 -0.3320
 2541TIP3    H129182   2.872   2.013   8.324  0.5236  0.5236 -1.6200
 2541TIP3    H229183   2.912   2.111   8.433 -0.4664 -0.3517 -0.4515
 2542TIP3   OH229184   0.613   4.771   6.607  0.1579 -0.6233  0.4315
 2542TIP3    H129185   0.537   4.799   6.659 -0.3148 -2.0350  0.5545
 2542TIP3    H229186   0.664   4.851   6.593 -1.8364  0.5587 -0.4908
 2543TIP3   OH229187   0.598   1.199   6.835 -0.0199 -0.0472 -0.5944
 2543TIP3    H129188   0.551   1.137   6.893  1.5580 -1.8653 -1.1584
 2543TIP3    H229189   0.528   1.250   6.794 -1.3740 -1.0896  0.2939
 2544TIP3   OH229190   2.064   2.678   0.402 -0.6776 -0.1165 -0.1045
 2544TIP3    H129191   2.108   2.678   0.317 -0.1367  0.8918  0.1618
 2544TIP3    H229192   2.135   2.688   0.466 -1.1821  0.4626  0.3813
 2545TIP3   OH229193   1.651   1.571   1.196 -0.1825 -0.2907 -0.4826
 2545TIP3    H129194   1.563   1.571   1.233 -0.0989 -0.5515 -0.2807
 2545TIP3    H229195   1.649   1.640   1.129 -0.5477 -0.3217 -0.5043
 2546TIP3   OH229196   2.603   3.879   7.085 -0.4459  0.2158  0.1023
 2546TIP3    H129197   2.579   3.965   7.051  0.2735 -0.2951 -1.8237
 2546TIP3    H229198   2.622   3.827   7.007  0.3173 -1.3347  1.2724
 2547TIP3   OH229199   6.347   6.398   0.210 -0.0500 -0.5589 -0.4933
 2547TIP3    H129200   6.264   6.431   0.244 -0.8785 -1.3105 -1.7087
 2547TIP3    H229201   6.383   6.346   0.282 -1.9185 -2.3909 -0.8118
 2548TIP3   OH229202   6.845   3.052   7.711 -0.4065  0.2557  0.0937
 2548TIP3    H129203   6.858   3.062   7.617  0.9581  0.7193  0.3195
 2548TIP3    H229204   6.751   3.036   7.720 -1.1522  3.2337 -1.1359
 2549TIP3   OH229205   4.363   3.214   7.590 -0.3200  0.9692 -0.0153
 2549TIP3    H129206   4.436   3.216   7.528  0.9045  0.0450  1.3370
 2549TIP3    H229207   4.289   3.180   7.539  0.5731  0.4865 -1.0210
 2550TIP3   OH229208   4.149   1.741   0.020 -0.3363 -0.5399  0.3145
 2550TIP3    H129209   4.144   1.743  -0.075 -0.2671 -0.6008  0.3092
 2550TIP3    H229210   4.242   1.757   0.039 -0.3979 -0.2575  0.3793
 2551TIP3   OH229211   3.986   6.333   8.009 -0.1506 -0.1452 -0.5533
 2551TIP3    H129212   4.046   6.368   8.075 -0.6685 -0.5098  0.1270
 2551TIP3    H229213   4.025   6.357   7.925  1.2085 -0.8381 -0.1379
 2552TIP3   OH229214   4.869   1.288   1.605 -0.1566  0.4608  0.3793
 2552TIP3    H129215   4.890   1.234   1.529 -1.0348  1.3670 -0.5444
 2552TIP3    H229216   4.774   1.301   1.600 -0.3691 -0.1665  2.1300
 2553TIP3   OH229217   0.818   0.731   8.065 -0.5482 -0.3635 -0.2502
 2553TIP3    H129218   0.905   0.734   8.027 -1.1152  1.0783 -1.5507
 2553TIP3    H229219   0.766   0.792   8.012 -2.1489 -0.5707  0.9782
 2554TIP3   OH229220   5.300   2.669   0.161 -0.0736  0.3552 -0.4453
 2554TIP3    H129221   5.281   2.660   0.254  0.3093  0.5759 -0.3426
 2554TIP3    H229222   5.371   2.734   0.157  1.3251 -1.1027 -0.7286
 2555TIP3   OH229223   2.152   2.211   0.525  0.2234 -0.4356 -0.1124
 2555TIP3    H129224   2.068   2.225   0.568 -0.6460 -3.9133 -0.4147
 2555TIP3    H229225   2.215   2.205   0.598  0.4161  2.4529  0.1030
 2556TIP3   OH229226   5.387   6.401   1.013  0.1953  0.7163 -0.8743
 2556TIP3    H129227   5.460   6.411   1.074  0.2470 -0.2264 -0.7688
 2556TIP3    H229228   5.425   6.356   0.937 -0.3014  0.0313 -0.7301
 2557TIP3   OH229229   2.830   1.898   7.747 -0.3065  0.0340 -0.1695
 2557TIP3    H129230   2.749   1.948   7.744  0.4638  1.3804  0.4509
 2557TIP3    H229231   2.840   1.874   7.839  1.4731  2.5319  0.4112
 2558TIP3   OH229232   0.507   6.012   1.776  0.1554  0.2075 -0.0988
 2558TIP3    H129233   0.466   6.047   1.697 -0.1278 -0.1374 -0.1063
 2558TIP3    H229234   0.546   5.928   1.749 -1.6574 -0.9051  0.5595
 2559TIP3   OH229235   2.665   1.227   1.815 -0.1754  0.2209 -0.0304
 2559TIP3    H129236   2.624   1.215   1.729  2.8251 -0.5248 -1.4786
 2559TIP3    H229237   2.666   1.139   1.853 -1.1142  0.4779  0.6180
 2560TIP3   OH229238   6.740   3.046   7.416 -0.4181  0.3692  0.8025
 2560TIP3    H129239   6.749   3.062   7.322  0.5202 -0.3690  0.7574
 2560TIP3    H229240   6.646   3.032   7.430 -0.6748  1.3639  0.1258
 2561TIP3   OH229241   5.650   4.285   2.067 -0.0289  0.5935 -0.2638
 2561TIP3    H129242   5.668   4.204   2.115  0.5249  0.8281 -0.0656
 2561TIP3    H229243   5.558   4.303   2.085  0.3646  1.1380  1.4592
 2562TIP3   OH229244   6.057   4.202   1.111 -0.7682  0.2320  0.0774
 2562TIP3    H129245   6.041   4.127   1.169 -1.1203  1.4514  1.6071
 2562TIP3    H229246   6.150   4.223   1.123  0.3205 -2.0187 -2.9780
 2563TIP3   OH229247   1.880   6.126   0.326  0.1203 -0.0768 -0.5975
 2563TIP3    H129248   1.902   6.036   0.300  0.4921 -0.6437  1.4645
 2563TIP3    H229249   1.862   6.119   0.420 -1.4840  1.7317 -0.7102
 2564TIP3   OH229250   1.891   2.055   0.655 -0.2348 -0.1426  0.2174
 2564TIP3    H129251   1.863   1.964   0.670 -0.0903 -0.2472 -0.1427
 2564TIP3    H229252   1.835   2.107   0.713 -1.1261 -0.3598 -0.4130
 2565TIP3   OH229253   6.360   2.175   1.557  0.2631  0.3895  0.4166
 2565TIP3    H129254   6.448   2.187   1.593 -0.2760  1.4296  1.4691
 2565TIP3    H229255   6.342   2.082   1.568  0.8633  0.3451  1.1128
 2566TIP3   OH229256   4.093   2.718   1.008 -0.9428 -0.5585 -0.0147
 2566TIP3    H129257   4.023   2.729   1.072  0.5395  3.0799  1.2365
 2566TIP3    H229258   4.172   2.704   1.061 -0.0273  0.1867 -1.1415
 2567TIP3   OH229259   2.210   2.372   2.438  0.1262  0.2379 -0.7714
 2567TIP3    H129260   2.264   2.306   2.481 -0.8831  0.0091  0.2035
 2567TIP3    H229261   2.145   2.396   2.505 -0.6568  0.8644 -1.7352
 2568TIP3   OH229262   1.122   0.082   0.058 -0.2274 -0.1554 -0.0465
 2568TIP3    H129263   1.058   0.012   0.049  0.1256 -0.4543 -0.2249
 2568TIP3    H229264   1.069   0.160   0.077 -0.5695 -0.6119  0.9557
 2569TIP3   OH229265   0.812   1.417   0.287  0.6100  0.3805  0.3032
 2569TIP3    H129266   0.901   1.447   0.270  0.3448  1.3401  0.5538
 2569TIP3    H229267   0.758   1.497   0.284 -0.6956 -0.4655 -2.6255
 2570TIP3   OH229268   5.767   1.227   7.776  0.4480  0.2755 -0.2393
 2570TIP3    H129269   5.809   1.310   7.751  0.0536  0.7407  0.5811
 2570TIP3    H229270   5.687   1.254   7.822  0.8404 -0.5337  0.9646
 2571TIP3   OH229271   6.806   4.341   0.488 -0.3762  0.1638  0.6553
 2571TIP3    H129272   6.755   4.314   0.411  0.0505  0.9548  0.0818
 2571TIP3    H229273   6.805   4.264   0.545 -2.1693  0.1332  0.6432
 2572TIP3   OH229274   4.477   6.381   7.119 -0.0141  0.5538 -0.2570
 2572TIP3    H129275   4.423   6.418   7.189  1.1461  0.2188  0.8523
 2572TIP3    H229276   4.534   6.453   7.092 -1.0703  0.9473 -1.5233
 2573TIP3   OH229277   0.679   1.708   6.305 -0.0196 -0.3272  0.0425
 2573TIP3    H129278   0.740   1.776   6.336 -0.3127 -0.0808  0.0813
 2573TIP3    H229279   0.692   1.706   6.211 -0.6387  0.4088 -0.0718
 2574TIP3   OH229280   6.986   0.813   1.715  0.3352  0.2063  0.2151
 2574TIP3    H129281   7.031   0.850   1.791  1.6773 -0.1599 -0.3865
 2574TIP3    H229282   7.042   0.835   1.641 -0.8184  0.3202 -0.6506
 2575TIP3   OH229283   0.787   4.561   7.955  0.6988 -0.0278 -0.3505
 2575TIP3    H129284   0.766   4.484   8.008  1.0918  0.1267  0.0412
 2575TIP3    H229285   0.855   4.607   8.006 -0.9171  1.6411  0.4515
 2576TIP3   OH229286   1.951   0.925   0.513 -0.0311 -0.0133 -0.0520
 2576TIP3    H129287   1.935   1.009   0.556  0.1204 -0.2502  0.4785
 2576TIP3    H229288   1.922   0.938   0.423  0.7060  0.8457 -0.1817
 2577TIP3   OH229289   2.803   2.859   0.412  0.2210 -0.5306  0.1007
 2577TIP3    H129290   2.744   2.784   0.406 -1.1574  0.3801  1.2996
 2577TIP3    H229291   2.861   2.838   0.485 -0.8000 -0.0827  1.0909
 2578TIP3   OH229292   0.495   3.208   2.544 -0.2286 -0.0585  0.2579
 2578TIP3    H129293   0.419   3.198   2.600  0.7557 -1.0647  1.4728
 2578TIP3    H229294   0.567   3.231   2.604  0.7332 -0.6119 -0.6437
 2579TIP3   OH229295   1.723   1.521   0.581 -0.3644 -0.3163  0.2426
 2579TIP3    H129296   1.740   1.581   0.509 -2.3025 -0.5994 -0.5197
 2579TIP3    H229297   1.750   1.435   0.549 -0.3208 -0.2943  0.2212
 2580TIP3   OH229298   3.928   2.088   0.386 -0.0758  0.3586 -0.6957
 2580TIP3    H129299   4.012   2.048   0.408 -0.1402  1.2231  1.3329
 2580TIP3    H229300   3.873   2.015   0.358  1.0606 -0.3386 -1.1597
 2581TIP3   OH229301   1.926   0.283   0.793 -0.2615 -0.6403  0.0611
 2581TIP3    H129302   1.858   0.223   0.761  0.6208 -0.4426 -2.4165
 2581TIP3    H229303   1.901   0.302   0.883 -1.3597 -3.6040  0.5005
 2582TIP3   OH229304   5.440   3.587   2.695  0.2709 -0.1280  0.0559
 2582TIP3    H129305   5.369   3.598   2.759  0.5965 -1.3620  0.6613
 2582TIP3    H229306   5.423   3.502   2.655  0.9838 -0.0835 -0.3428
 2583TIP3   OH229307   0.484   2.726   6.966  0.4948 -0.2727 -0.2449
 2583TIP3    H129308   0.515   2.641   6.934 -2.1084 -1.2043 -0.4632
 2583TIP3    H229309   0.500   2.723   7.060  1.3652 -0.5456 -0.3866
 2584TIP3   OH229310   6.321   1.841   1.197 -0.1134  0.2696  0.5022
 2584TIP3    H129311   6.245   1.787   1.172 -0.8125  0.8400  1.3459
 2584TIP3    H229312   6.371   1.850   1.116 -1.4315  0.6437 -0.3013
 2585TIP3   OH229313   2.642   5.871   0.333 -0.0724 -0.4063 -0.2590
 2585TIP3    H129314   2.737   5.870   0.348  0.1466 -1.8213 -1.4751
 2585TIP3    H229315   2.628   5.950   0.281  0.6621 -0.8627 -1.1893
 2586TIP3   OH229316   6.712   3.870   7.861  0.1549 -0.1345 -0.3293
 2586TIP3    H129317   6.648   3.805   7.888  0.3865 -0.3112 -0.1968
 2586TIP3    H229318   6.796   3.836   7.894  0.3376  0.0112 -0.6317
 2587TIP3   OH229319   0.832   3.062   1.503  0.5212 -0.3812  0.5315
 2587TIP3    H129320   0.787   2.980   1.522  0.4747 -1.1093 -2.2405
 2587TIP3    H229321   0.921   3.034   1.479  0.1836  0.1707 -1.5713
 2588TIP3   OH229322   4.692   4.832   0.719 -0.3789 -0.6706 -0.9245
 2588TIP3    H129323   4.786   4.851   0.722 -0.2272 -1.4979  1.0381
 2588TIP3    H229324   4.685   4.756   0.661  0.2538 -1.0026 -0.5759
 2589TIP3   OH229325   6.246   2.034   7.049 -0.3390  0.0871  0.3285
 2589TIP3    H129326   6.296   1.957   7.021  1.0597  0.5558  1.3921
 2589TIP3    H229327   6.158   2.001   7.066  0.1421 -1.2047  0.4232
 2590TIP3   OH229328   2.583   2.566   0.117 -0.8537 -0.2715  0.0279
 2590TIP3    H129329   2.532   2.528   0.188 -1.1859 -0.4616 -0.3153
 2590TIP3    H229330   2.564   2.512   0.041  3.0323 -3.0737  0.7254
 2591TIP3   OH229331   3.789   6.680   7.096 -0.4157  0.1626 -0.3083
 2591TIP3    H129332   3.834   6.764   7.086  0.3120 -0.2159 -0.2688
 2591TIP3    H229333   3.857   6.620   7.126 -0.8043 -0.5734 -0.8831
 2592TIP3   OH229334   6.648   0.096   7.036  0.1229 -0.0996  0.0886
 2592TIP3    H129335   6.558   0.096   7.066  0.0316  0.6987 -0.1446
 2592TIP3    H229336   6.642   0.117   6.943  0.4526 -1.6899 -0.3198
 2593TIP3   OH229337   6.540   2.692   6.372  0.3650 -0.2803 -0.4237
 2593TIP3    H129338   6.464   2.669   6.425  1.8343 -0.0986  1.9082
 2593TIP3    H229339   6.526   2.783   6.347  1.5619  1.2133  3.5344
 2594TIP3   OH229340   2.760   0.631   2.766 -0.3879  0.3423 -0.1812
 2594TIP3    H129341   2.685   0.652   2.710 -1.1553 -2.0155 -0.1324
 2594TIP3    H229342   2.836   0.657   2.714 -1.1717  1.5451 -0.7809
 2595TIP3   OH229343   5.946   4.538   2.058  0.0375  0.3062  0.0907
 2595TIP3    H129344   5.952   4.448   2.089 -0.2718  0.0473 -0.5728
 2595TIP3    H229345   6.022   4.582   2.097  0.2175 -0.2545  0.3803
 2596TIP3   OH229346   3.936   3.196   7.661 -0.1872 -0.0659  0.3973
 2596TIP3    H129347   3.883   3.275   7.651 -1.9585 -0.7905  2.8725
 2596TIP3    H229348   3.873   3.124   7.654  0.9983 -1.1534  0.4751
 2597TIP3   OH229349   1.096   5.265   1.154 -0.3984  0.5098 -0.1129
 2597TIP3    H129350   1.047   5.209   1.215 -0.0224  0.5758  0.2563
 2597TIP3    H229351   1.096   5.351   1.196  0.9664  0.2678  0.4441
 2598TIP3   OH229352   2.637   1.475   0.893 -0.3413 -0.5479 -0.1142
 2598TIP3    H129353   2.562   1.461   0.836  0.0218  1.2700 -1.1051
 2598TIP3    H229354   2.601   1.473   0.982 -0.9696 -3.0855 -0.3521
 2599TIP3   OH229355   0.124   1.442   7.486 -0.1915 -0.2727 -0.1225
 2599TIP3    H129356   0.182   1.511   7.455  0.3240 -1.1170 -1.1053
 2599TIP3    H229357   0.182   1.371   7.512 -0.7265 -0.4857  0.5058
 2600TIP3   OH229358   1.157   6.279   2.344 -0.1017  0.1802  0.5630
 2600TIP3    H129359   1.136   6.185   2.341 -0.0952  0.1943 -0.0359
 2600TIP3    H229360   1.237   6.283   2.396 -0.7522 -0.0247  1.6002
 2601TIP3   OH229361   0.187   6.627   0.768  0.0993 -0.8804 -0.5377
 2601TIP3    H129362   0.106   6.674   0.784  0.8521  0.0339  0.6820
 2601TIP3    H229363   0.196   6.568   0.843  1.6067  0.5551  0.4823
 2602TIP3   OH229364   3.841   2.142   1.684 -0.3893  0.0939  0.2137
 2602TIP3    H129365   3.880   2.138   1.597 -0.3987 -1.9963  0.2527
 2602TIP3    H229366   3.856   2.232   1.713  3.7099 -0.3313 -0.0901
 2603TIP3   OH229367   1.870   6.584   7.333 -0.1623 -0.5896  0.4396
 2603TIP3    H129368   1.818   6.592   7.253  0.9342  1.1862 -0.1358
 2603TIP3    H229369   1.961   6.595   7.305  0.5385 -2.7776  1.5476
 2604TIP3   OH229370   6.407   5.901   1.838 -0.1648  0.4279 -0.1836
 2604TIP3    H129371   6.368   5.813   1.832  0.3192  0.2268 -0.3688
 2604TIP3    H229372   6.383   5.931   1.926  0.1425 -0.1175  0.0936
 2605TIP3   OH229373   6.803   1.766   1.669 -0.1320 -0.1555  0.4875
 2605TIP3    H129374   6.738   1.774   1.739 -0.3602 -1.4740  0.4529
 2605TIP3    H229375   6.751   1.762   1.589 -0.0060 -0.8573  0.4335
 2606TIP3   OH229376   1.117   5.797   7.301 -0.0289 -0.2921  0.0272
 2606TIP3    H129377   1.103   5.887   7.330  1.6140  0.0768 -0.2684
 2606TIP3    H229378   1.039   5.777   7.248 -0.0213  1.2500 -0.6070
 2607TIP3   OH229379   5.324   3.009   1.834 -0.3091 -0.3047  0.0469
 2607TIP3    H129380   5.346   3.054   1.916  0.2592 -0.2775 -0.1187
 2607TIP3    H229381   5.335   3.075   1.767 -1.5636 -0.0998  0.0227
 2608TIP3   OH229382   3.562   0.647   0.790 -0.0837 -0.2914 -0.2436
 2608TIP3    H129383   3.577   0.710   0.720 -0.9150  0.5451  0.3117
 2608TIP3    H229384   3.467   0.632   0.788  0.2286 -2.4954 -1.1797
 2609TIP3   OH229385   3.171   1.586   7.209  0.1519 -0.6842  0.3168
 2609TIP3    H129386   3.227   1.664   7.213 -1.9442  0.8689  2.7816
 2609TIP3    H229387   3.232   1.513   7.209  2.1975  0.8919 -1.3182
 2610TIP3   OH229388   6.182   0.450   0.885 -0.5530  1.0384 -0.1461
 2610TIP3    H129389   6.151   0.376   0.937 -2.1595  1.6953 -0.1210
 2610TIP3    H229390   6.105   0.503   0.870  0.5913  2.8241 -0.0151
 2611TIP3   OH229391   6.833   4.052   7.065 -0.0285 -0.1061 -0.1692
 2611TIP3    H129392   6.812   3.996   7.140  0.3746  0.1529  0.1389
 2611TIP3    H229393   6.748   4.089   7.039 -0.4789 -1.6978 -1.0686
 2612TIP3   OH229394   2.556   2.771   6.491  0.0841  0.4904  0.0192
 2612TIP3    H129395   2.499   2.824   6.435 -0.4784  2.2970  2.1421
 2612TIP3    H229396   2.497   2.734   6.556  0.8296 -0.8917 -0.0659
 2613TIP3   OH229397   6.776   4.999   2.306  0.0629 -0.0971 -0.1139
 2613TIP3    H129398   6.781   5.030   2.216 -1.1642  0.4885  0.0042
 2613TIP3    H229399   6.866   4.974   2.328  0.9063  2.2674 -0.6151
 2614TIP3   OH229400   2.114   6.666   6.617  0.0218  0.0490 -0.0414
 2614TIP3    H129401   2.111   6.624   6.531  0.3769 -0.6334  0.2645
 2614TIP3    H229402   2.164   6.746   6.603 -0.2878  0.1518 -0.5548
 2615TIP3   OH229403   1.539   4.303   7.689 -0.1450  0.1929 -0.4388
 2615TIP3    H129404   1.545   4.229   7.629  0.1157  0.3592 -0.6159
 2615TIP3    H229405   1.487   4.269   7.762 -0.0142 -0.1702 -0.5099
 2616TIP3   OH229406   1.660   4.260   1.342 -0.0734 -0.0647 -0.0694
 2616TIP3    H129407   1.688   4.200   1.410  1.6760  1.3998  0.5738
 2616TIP3    H229408   1.586   4.307   1.381  1.4182  1.3401  1.2385
 2617TIP3   OH229409   1.432   3.928   1.805  0.3639 -0.7591  0.4615
 2617TIP3    H129410   1.344   3.891   1.799  0.6434 -1.6394  1.5858
 2617TIP3    H229411   1.459   3.912   1.895  1.4453  0.0578  0.3050
 2618TIP3   OH229412   0.800   4.183   1.402  0.6506 -0.3934  0.4268
 2618TIP3    H129413   0.870   4.205   1.342  1.3849 -1.0491  1.0232
 2618TIP3    H229414   0.779   4.091   1.383 -2.0857  0.5468 -1.7467
 2619TIP3   OH229415   2.795   3.969   0.462 -0.1389  0.7419 -0.0557
 2619TIP3    H129416   2.830   3.979   0.551  1.5388 -3.8369  0.0852
 2619TIP3    H229417   2.708   3.930   0.475  0.3601 -0.5114 -0.3642
 2620TIP3   OH229418   3.271   2.342   1.195  0.4908  1.1245  0.0921
 2620TIP3    H129419   3.362   2.342   1.163 -0.1875  0.1583 -2.0571
 2620TIP3    H229420   3.259   2.254   1.231  0.1905  0.9852 -0.3430
 2621TIP3   OH229421   3.605   5.865   7.648 -0.4999 -0.5159  0.6447
 2621TIP3    H129422   3.553   5.786   7.630 -2.1959  0.4394  1.0687
 2621TIP3    H229423   3.612   5.909   7.564 -1.1570 -0.2335  0.7244
 2622TIP3   OH229424   4.202   4.286   7.489  0.0377 -0.1287 -0.0638
 2622TIP3    H129425   4.274   4.309   7.548  0.3634 -2.2526  0.4602
 2622TIP3    H229426   4.238   4.299   7.401  0.6908 -0.1429  0.1967
 2623TIP3   OH229427   6.557   2.792   1.244  0.3569 -0.4848 -0.1975
 2623TIP3    H129428   6.526   2.744   1.321  0.5433  0.6593  0.6197
 2623TIP3    H229429   6.603   2.868   1.281  1.0949 -0.3151 -1.4351
 2624TIP3   OH229430   0.889   0.316   7.523 -0.1092  0.2602  0.4834
 2624TIP3    H129431   0.797   0.322   7.549  0.1928  0.7811  1.4592
 2624TIP3    H229432   0.920   0.234   7.562 -0.2777 -0.1686 -0.2613
 2625TIP3   OH229433   4.338   0.533   1.226  0.3565  0.1483 -0.2861
 2625TIP3    H129434   4.251   0.567   1.204  0.0714 -0.4073 -0.0329
 2625TIP3    H229435   4.339   0.445   1.189  0.9541  0.2875 -0.6089
 2626TIP3   OH229436   4.866   4.221   1.744  0.3520 -0.9019  0.4554
 2626TIP3    H129437   4.773   4.216   1.767  0.3582  1.3857  1.1848
 2626TIP3    H229438   4.913   4.201   1.825  0.4599  0.0388  0.6309
 2627TIP3   OH229439   3.471   1.779   7.029  0.1526  0.3763  0.1661
 2627TIP3    H129440   3.470   1.820   7.116  0.0384 -1.2729  0.9900
 2627TIP3    H229441   3.541   1.713   7.035 -2.1001 -2.1885  0.2574
 2628TIP3   OH229442   4.555   2.521   7.660 -0.4847  0.0447  0.8190
 2628TIP3    H129443   4.516   2.597   7.704 -1.1090 -0.3498  0.9576
 2628TIP3    H229444   4.637   2.506   7.706 -1.6599 -1.0828  2.6632
 2629TIP3   OH229445   0.438   4.002   7.401  0.5656 -0.0487 -0.4229
 2629TIP3    H129446   0.451   4.071   7.336  0.6202  0.3755  0.0427
 2629TIP3    H229447   0.520   3.953   7.400  0.8284  0.3918 -0.1522
 2630TIP3   OH229448   0.572   3.832   0.652 -0.1069 -0.1294  0.1571
 2630TIP3    H129449   0.606   3.901   0.595 -0.1639 -1.6787 -1.8489
 2630TIP3    H229450   0.622   3.841   0.733  1.7012  0.6597 -0.9767
 2631TIP3   OH229451   0.569   0.611   1.570  0.0871 -0.3783 -0.1668
 2631TIP3    H129452   0.598   0.614   1.662 -1.2319 -1.0586  0.2989
 2631TIP3    H229453   0.635   0.556   1.527  2.4603  2.3877 -0.3666
 2632TIP3   OH229454   2.667   5.260   6.434 -0.3740  0.3182  0.5040
 2632TIP3    H129455   2.721   5.194   6.478  0.0769 -0.2302 -0.8150
 2632TIP3    H229456   2.676   5.338   6.488  0.0101 -0.3816  1.4718
 2633TIP3   OH229457   1.297   6.824   0.656  0.4187  0.6119  0.4003
 2633TIP3    H129458   1.263   6.907   0.690 -1.5410  0.1023 -0.1729
 2633TIP3    H229459   1.329   6.845   0.569  0.7101  0.9316  0.5833
 2634TIP3   OH229460   6.814   5.370   0.785 -0.2461 -0.1373  0.2090
 2634TIP3    H129461   6.730   5.345   0.746 -0.3911  0.5647  0.0596
 2634TIP3    H229462   6.790   5.430   0.856  0.0121 -1.4362  1.4313
 2635TIP3   OH229463   2.709   1.512   0.585  0.3133 -0.8632  0.3424
 2635TIP3    H129464   2.751   1.466   0.657  3.6708  0.8767 -0.3180
 2635TIP3    H229465   2.738   1.603   0.593 -0.7836 -0.1955 -2.0729
 2636TIP3   OH229466   3.089   2.966   1.903  0.4391  0.5245  0.3614
 2636TIP3    H129467   3.063   3.048   1.861  0.2943  1.4412  2.1375
 2636TIP3    H229468   3.185   2.964   1.894  0.2781 -0.6162 -2.2011
 2637TIP3   OH229469   2.871   6.488   2.452 -0.5910  0.4756  0.1344
 2637TIP3    H129470   2.801   6.440   2.406 -0.3845  1.7058 -1.5793
 2637TIP3    H229471   2.826   6.535   2.522 -1.8347  2.3822 -1.8065
 2638TIP3   OH229472   2.683   2.518   2.054  0.4639 -0.1053 -0.3149
 2638TIP3    H129473   2.694   2.437   2.104 -0.7278  0.3530  0.7553
 2638TIP3    H229474   2.692   2.491   1.962  0.7022 -1.3283  0.0461
 2639TIP3   OH229475   5.410   6.482   1.339 -0.3811 -0.3513  0.3621
 2639TIP3    H129476   5.501   6.484   1.369  0.7004 -1.6146 -2.4260
 2639TIP3    H229477   5.381   6.393   1.358 -0.0833 -0.7816 -1.0253
 2640TIP3   OH229478   3.821   4.045   1.025 -0.0470 -0.0624  0.2504
 2640TIP3    H129479   3.860   4.102   1.091  1.0483 -0.4455 -0.0369
 2640TIP3    H229480   3.727   4.052   1.039  0.0741  1.5686  0.4257
 2641TIP3   OH229481   4.187   3.046   1.063  0.4388 -0.3026  0.2338
 2641TIP3    H129482   4.244   3.090   1.000  0.5334 -0.2230  0.3753
 2641TIP3    H229483   4.225   3.066   1.148 -0.4308  0.6768  0.4103
 2642TIP3   OH229484   2.462   6.056   1.255 -0.1431  0.1690  0.3330
 2642TIP3    H129485   2.554   6.052   1.282 -0.4922 -1.2198  1.4546
 2642TIP3    H229486   2.442   6.149   1.251  0.5949  0.5103  2.7556
 2643TIP3   OH229487   6.415   1.756   2.326 -0.0615 -0.1121  0.7750
 2643TIP3    H129488   6.401   1.662   2.329 -2.7134  0.1907  0.1740
 2643TIP3    H229489   6.458   1.771   2.242  2.5850 -0.9097  1.8525
 2644TIP3   OH229490   5.117   5.578   0.701  0.1453  0.5350 -0.2762
 2644TIP3    H129491   5.172   5.500   0.712 -3.6168 -2.5012 -0.8030
 2644TIP3    H229492   5.132   5.605   0.611 -0.6101 -1.5585 -1.0986
 2645TIP3   OH229493   6.975   1.878   2.203  0.0125  0.3752 -0.0334
 2645TIP3    H129494   7.038   1.950   2.195 -1.7730  2.1515  1.0701
 2645TIP3    H229495   6.894   1.911   2.164 -1.2540 -0.5083  1.6987
 2646TIP3   OH229496   3.439   5.881   2.010  0.0139  0.1894 -0.2295
 2646TIP3    H129497   3.511   5.942   1.995 -0.5890  1.1538  0.6140
 2646TIP3    H229498   3.360   5.933   1.992 -0.4907 -0.6841 -0.5979
 2647TIP3   OH229499   5.112   0.935   0.828  0.5514  0.7086  0.4575
 2647TIP3    H129500   5.137   1.002   0.765  0.2321  0.4463  0.0487
 2647TIP3    H229501   5.195   0.910   0.871  0.5928  1.7481  1.0116
 2648TIP3   OH229502   3.681   4.050   1.785  0.3018  0.4354  0.8763
 2648TIP3    H129503   3.759   3.995   1.792  1.1904  1.5671  0.1330
 2648TIP3    H229504   3.672   4.088   1.873 -0.4362 -0.9956  1.4567
 2649TIP3   OH229505   5.612   5.485   1.400 -0.4454  0.6210  0.2690
 2649TIP3    H129506   5.592   5.576   1.423  1.5331  1.0986  0.2087
 2649TIP3    H229507   5.670   5.492   1.324  0.7603 -0.6479  1.0472
 2650TIP3   OH229508   2.592   5.658   1.246  0.2683 -0.2961  0.2751
 2650TIP3    H129509   2.526   5.691   1.308 -0.4902 -0.0202 -0.6608
 2650TIP3    H229510   2.601   5.565   1.269 -1.0840 -0.5472 -0.1260
 2651TIP3   OH229511   6.600   4.868   0.304  0.3757  0.0787  0.4064
 2651TIP3    H129512   6.691   4.881   0.279 -0.0088  3.5000  0.3588
 2651TIP3    H229513   6.558   4.833   0.225  1.2362  0.5103 -0.2445
 2652TIP3   OH229514   2.809   2.175   2.562  0.6567 -0.0381 -0.3320
 2652TIP3    H129515   2.883   2.221   2.603  0.0548  0.0937  0.6536
 2652TIP3    H229516   2.741   2.242   2.554 -0.4426 -0.8040  1.6517
 2653TIP3   OH229517   3.391   2.941   2.906 -0.1385  0.1594  0.0677
 2653TIP3    H129518   3.336   2.927   2.983  1.4764  0.8729  1.4250
 2653TIP3    H229519   3.419   3.033   2.913  2.4245 -0.5628  0.3026
 2654TIP3   OH229520   6.805   5.723   1.224  0.5452  0.1025 -0.0883
 2654TIP3    H129521   6.882   5.758   1.180 -0.5714 -0.1880 -2.4297
 2654TIP3    H229522   6.807   5.629   1.207  1.1670 -0.3953  2.3566
 2655TIP3   OH229523   3.203   3.442   7.028  0.3570 -0.4155 -0.3460
 2655TIP3    H129524   3.288   3.465   6.991  1.7524 -1.2772  2.1193
 2655TIP3    H229525   3.222   3.370   7.088 -2.1202 -0.6080  0.3026
 2656TIP3   OH229526   5.156   6.814   0.285 -0.3880 -0.1046  0.0039
 2656TIP3    H129527   5.099   6.828   0.209 -2.0646 -4.6615  0.1091
 2656TIP3    H229528   5.222   6.752   0.256 -0.3884 -1.0953  1.9054
 2657TIP3   OH229529   3.275   0.614   6.473  0.2554 -0.5539 -0.0921
 2657TIP3    H129530   3.341   0.667   6.428 -0.3432  0.0792 -0.2238
 2657TIP3    H229531   3.205   0.675   6.494 -0.7013 -1.3989 -0.7559
 2658TIP3   OH229532   0.453   4.620   1.479 -0.3986 -0.3289 -0.4329
 2658TIP3    H129533   0.362   4.624   1.509 -0.2822 -0.7908 -0.0243
 2658TIP3    H229534   0.494   4.697   1.519 -1.1582  1.2286 -2.4911
 2659TIP3   OH229535   1.398   0.774   0.525  0.1741  0.5199  0.3977
 2659TIP3    H129536   1.484   0.775   0.484 -0.2829 -0.0239 -0.6152
 2659TIP3    H229537   1.382   0.682   0.546  0.3184  0.7650  1.6456
 2660TIP3   OH229538   3.281   6.391   1.711  0.1828 -0.4023  0.1969
 2660TIP3    H129539   3.219   6.414   1.642  0.4179 -2.5035 -0.8103
 2660TIP3    H229540   3.228   6.346   1.777  0.3543 -0.6467  0.1699
 2661TIP3   OH229541   4.990   4.279   1.990 -0.7534  0.5105 -0.1155
 2661TIP3    H129542   4.968   4.254   2.080 -1.5587 -0.3435 -0.5386
 2661TIP3    H229543   5.084   4.259   1.982 -0.1416  2.5251  1.1473
 2662TIP3   OH229544   4.647   1.549   1.771 -0.3153  0.3114 -0.0480
 2662TIP3    H129545   4.635   1.613   1.701 -0.0052  1.3461  0.8240
 2662TIP3    H229546   4.731   1.508   1.752  0.4916  1.6488  0.5178
 2663TIP3   OH229547   6.838   2.008   8.138  0.2327  0.9727 -0.2060
 2663TIP3    H129548   6.774   1.985   8.070  1.4779 -0.7939 -0.8659
 2663TIP3    H229549   6.784   2.026   8.215 -1.1232 -1.8862 -0.3134
 2664TIP3   OH229550   6.974   4.591   6.253  0.1684  0.1443  0.3732
 2664TIP3    H129551   6.951   4.662   6.313  0.3103 -0.3086  0.9746
 2664TIP3    H229552   6.905   4.526   6.265  0.4249 -0.1345  0.3548
 2665TIP3   OH229553   4.440   4.911   1.949  0.0270 -0.6425  0.3530
 2665TIP3    H129554   4.480   4.988   1.989 -3.7408  1.8632 -0.1504
 2665TIP3    H229555   4.403   4.861   2.022 -0.9737  0.2626  0.4876
 2666TIP3   OH229556   0.457   0.864   2.579  0.1660 -0.0599  0.1888
 2666TIP3    H129557   0.512   0.931   2.538  0.8562 -0.4825  0.4033
 2666TIP3    H229558   0.389   0.913   2.625  0.7144  0.5014  0.4194
 2667TIP3   OH229559   0.895   5.632   1.726 -0.3456 -0.2255 -0.3402
 2667TIP3    H129560   0.950   5.633   1.648  0.2946 -2.3908 -0.0134
 2667TIP3    H229561   0.957   5.643   1.798 -0.7136  0.1604 -0.0840
 2668TIP3   OH229562   3.282   5.905   0.913 -0.7085 -0.0154  0.6230
 2668TIP3    H129563   3.259   5.812   0.921 -1.5509  0.1228 -0.0391
 2668TIP3    H229564   3.328   5.926   0.994 -1.4981 -0.7342  1.2639
 2669TIP3   OH229565   1.137   1.964   7.720 -0.1004  0.2529 -0.2825
 2669TIP3    H129566   1.101   1.948   7.633 -3.1370 -0.1318  0.9507
 2669TIP3    H229567   1.069   2.013   7.766  0.9812 -0.4425  2.2187
 2670TIP3   OH229568   2.771   6.952   7.629  0.5670 -0.6166 -0.5866
 2670TIP3    H129569   2.725   7.036   7.624  0.7747 -0.5280 -1.1552
 2670TIP3    H229570   2.863   6.975   7.612  0.8886 -0.7388  0.8808
 2671TIP3   OH229571   3.101   1.429   7.893 -0.0301 -0.3056 -0.5792
 2671TIP3    H129572   3.138   1.368   7.956  2.2445 -1.5959 -2.9526
 2671TIP3    H229573   3.135   1.515   7.920 -1.4747 -0.3025  1.5102
 2672TIP3   OH229574   0.463   1.798   8.148 -0.1712  0.3197 -0.0774
 2672TIP3    H129575   0.429   1.883   8.122 -1.8047  0.2154  1.5688
 2672TIP3    H229576   0.477   1.752   8.065  0.1941  1.9330 -0.9717
 2673TIP3   OH229577   5.275   0.332   8.047 -0.5575  0.6681 -0.1415
 2673TIP3    H129578   5.304   0.249   8.011 -0.7530  0.0970  0.9804
 2673TIP3    H229579   5.328   0.398   8.002 -0.3707 -0.0570 -0.9993
 2674TIP3   OH229580   1.750   1.425   7.953  0.2705  0.3501 -0.6719
 2674TIP3    H129581   1.701   1.389   8.026  0.5601 -1.0851 -1.1539
 2674TIP3    H229582   1.826   1.466   7.993  0.6999 -0.8875 -0.1785
 2675TIP3   OH229583   6.377   2.245   7.926  0.4098 -0.3397 -0.0494
 2675TIP3    H129584   6.398   2.179   7.860 -1.0289 -0.6479 -0.2377
 2675TIP3    H229585   6.449   2.242   7.988  2.4828  0.8269 -2.2139
 2676TIP3   OH229586   1.138   4.923   0.747  0.2231 -0.1657  0.5000
 2676TIP3    H129587   1.047   4.921   0.719  1.0675  1.7634 -2.9668
 2676TIP3    H229588   1.146   5.003   0.798  0.4182  1.2211 -1.5636
 2677TIP3   OH229589   6.897   1.451   1.501  0.0079  0.1165  0.2087
 2677TIP3    H129590   6.928   1.381   1.559 -1.1778 -0.7832 -0.2092
 2677TIP3    H229591   6.942   1.530   1.533  1.1632 -0.7751  0.8584
 2678TIP3   OH229592   2.346   3.479   7.429  0.8840 -0.1712  0.1223
 2678TIP3    H129593   2.414   3.480   7.362  1.4105 -2.3602  0.5318
 2678TIP3    H229594   2.356   3.394   7.473 -1.0546  0.1233  1.3040
 2679TIP3   OH229595   2.501   4.734   1.619 -0.4108  0.7964 -0.0915
 2679TIP3    H129596   2.496   4.811   1.561  1.7313  0.6244 -0.5931
 2679TIP3    H229597   2.518   4.770   1.706 -2.4381  0.9940  0.2700
 2680TIP3   OH229598   3.919   0.602   0.708 -0.0663  0.2760  0.4665
 2680TIP3    H129599   3.966   0.580   0.788 -1.3413 -0.6920  0.9896
 2680TIP3    H229600   3.914   0.520   0.659  2.0853  1.1594 -1.4328
 2681TIP3   OH229601   3.117   6.013   7.350 -0.0804 -0.6602 -0.0258
 2681TIP3    H129602   3.139   6.053   7.265  0.0968 -2.0798 -0.6781
 2681TIP3    H229603   3.032   5.970   7.335 -0.1307 -0.7762  0.5681
 2682TIP3   OH229604   3.942   4.358   1.445 -0.2251  0.1539  0.6628
 2682TIP3    H129605   4.037   4.359   1.454 -0.1574  0.0180  0.0048
 2682TIP3    H229606   3.926   4.394   1.358 -0.6592 -1.8289 -0.1230
 2683TIP3   OH229607   5.362   0.586   2.030 -1.0578  0.1607 -0.0757
 2683TIP3    H129608   5.327   0.574   1.942  0.4997 -1.6196 -0.5104
 2683TIP3    H229609   5.417   0.664   2.024 -1.4423  0.4051 -0.5087
 2684TIP3   OH229610   6.687   3.633   1.395 -0.3712  0.2274  0.0367
 2684TIP3    H129611   6.748   3.559   1.388 -1.1899 -0.3286 -2.1167
 2684TIP3    H229612   6.685   3.670   1.306 -3.7980 -0.3239 -0.2410
 2685TIP3   OH229613   4.820   5.552   2.819  0.2790  0.1743 -0.4190
 2685TIP3    H129614   4.729   5.581   2.821  0.1989 -0.0436 -0.6829
 2685TIP3    H229615   4.864   5.615   2.762  0.4225  0.6281  0.1956
 2686TIP3   OH229616   0.896   4.591   0.779  0.6273 -0.1840 -0.5215
 2686TIP3    H129617   0.921   4.655   0.845  0.8060  0.5653 -1.2977
 2686TIP3    H229618   0.943   4.618   0.700  1.4029 -1.7964 -0.6421
 2687TIP3   OH229619   2.815   0.718   6.648  0.0424  0.0297 -0.3395
 2687TIP3    H129620   2.766   0.646   6.687  0.2073  0.9838  1.8019
 2687TIP3    H229621   2.778   0.728   6.560 -0.3406 -2.2702 -0.4811
 2688TIP3   OH229622   1.618   1.804   2.881  0.3299 -0.5538  0.2456
 2688TIP3    H129623   1.705   1.767   2.862  0.5095  0.6962 -1.6456
 2688TIP3    H229624   1.634   1.897   2.894 -0.8002 -0.1428 -1.0801
 2689TIP3   OH229625   3.044   5.147   7.222 -0.2629 -0.5584  0.4446
 2689TIP3    H129626   3.124   5.120   7.268  0.4370  0.3462 -0.2083
 2689TIP3    H229627   3.031   5.238   7.249 -0.9024 -0.6062  0.3025
 2690TIP3   OH229628   4.757   6.904   2.473  0.5416 -0.6246  0.2394
 2690TIP3    H129629   4.753   6.959   2.551  0.6418  2.0059 -1.4727
 2690TIP3    H229630   4.679   6.927   2.423  1.0612 -1.3612 -0.9749
 2691TIP3   OH229631   4.042   0.559   0.010 -0.1212  0.2713 -0.0781
 2691TIP3    H129632   4.127   0.597   0.032 -0.7726  0.8117  1.6832
 2691TIP3    H229633   4.053   0.465   0.026 -0.1124  0.4579  1.1059
 2692TIP3   OH229634   0.051   3.165   0.740  0.1937 -0.6485  0.3133
 2692TIP3    H129635   0.118   3.229   0.763 -0.0959  0.2729 -1.2388
 2692TIP3    H229636  -0.028   3.197   0.782  0.0434  0.0511 -0.4842
 2693TIP3   OH229637   4.759   3.883   7.721  0.3047  0.0248  0.2574
 2693TIP3    H129638   4.809   3.899   7.641  0.5535  0.1235  0.4298
 2693TIP3    H229639   4.667   3.893   7.695  0.4133  0.8746  0.1617
 2694TIP3   OH229640   4.236   2.478   1.540  0.1450 -0.0497  0.0061
 2694TIP3    H129641   4.193   2.563   1.546  0.8337  0.2700  0.5593
 2694TIP3    H229642   4.255   2.454   1.631 -0.0885 -0.8199 -0.1384
 2695TIP3   OH229643   6.542   1.627   2.107 -0.6971  0.1821 -0.4016
 2695TIP3    H129644   6.552   1.556   2.171  0.1275  1.9472  1.5121
 2695TIP3    H229645   6.480   1.592   2.043 -1.5423 -1.6888  1.3300
 2696TIP3   OH229646   0.812   2.459   0.085  0.0544 -0.0974  0.0096
 2696TIP3    H129647   0.829   2.541   0.131 -1.6474 -0.3577  1.1804
 2696TIP3    H229648   0.749   2.482   0.017  0.3435 -0.2550 -0.3136
 2697TIP3   OH229649   3.492   3.171   7.566  0.7583  0.0163 -0.6474
 2697TIP3    H129650   3.572   3.126   7.594  0.2201  0.3553  1.6265
 2697TIP3    H229651   3.438   3.102   7.527  1.8971 -0.3216 -1.6687
 2698TIP3   OH229652   1.247   3.494   2.024 -0.7686  0.1325  0.3296
 2698TIP3    H129653   1.308   3.420   2.022 -0.3496  0.4862 -0.6297
 2698TIP3    H229654   1.304   3.571   2.024 -1.2151  0.4683 -0.8318
 2699TIP3   OH229655   1.200   0.597   0.812  0.1901 -0.7261 -0.0401
 2699TIP3    H129656   1.225   0.527   0.751 -1.0690 -0.6883 -0.6285
 2699TIP3    H229657   1.154   0.552   0.883 -0.4962 -0.5133 -0.3470
 2700TIP3   OH229658   5.599   0.723   2.003 -0.4053 -0.1324 -0.1474
 2700TIP3    H129659   5.600   0.818   2.010  0.7239  0.0072 -1.6083
 2700TIP3    H229660   5.663   0.704   1.934  0.5664 -2.0533  1.1999
 2701TIP3   OH229661   5.234   2.281   7.409 -0.1851  0.8551 -0.3426
 2701TIP3    H129662   5.236   2.203   7.465  0.0285  0.8904 -0.3005
 2701TIP3    H229663   5.321   2.284   7.369  0.5850  2.2729  1.3189
 2702TIP3   OH229664   0.741   0.204   8.141 -0.2567 -0.3178 -0.0173
 2702TIP3    H129665   0.698   0.174   8.061 -1.8592  0.6472  0.4240
 2702TIP3    H229666   0.792   0.281   8.114 -0.4341 -0.2614 -0.1956
 2703TIP3   OH229667   3.839   4.735   2.597 -0.3595  0.1890  0.1872
 2703TIP3    H129668   3.917   4.788   2.585  0.2312 -0.3700  1.4102
 2703TIP3    H229669   3.861   4.649   2.560 -0.7472  0.3034 -0.3325
 2704TIP3   OH229670   0.320   0.861   7.315  0.1990 -0.1275 -0.6705
 2704TIP3    H129671   0.412   0.888   7.318  0.2355 -0.2962 -0.1075
 2704TIP3    H229672   0.277   0.929   7.264 -0.0095  1.9864  2.0886
 2705TIP3   OH229673   6.319   2.097   2.333 -0.4569  0.3939  0.1802
 2705TIP3    H129674   6.291   2.037   2.402 -1.7880 -0.4005 -0.9936
 2705TIP3    H229675   6.295   2.184   2.366 -1.6841 -0.0230  0.4583
 2706TIP3   OH229676   5.229   2.228   7.775 -0.3782 -0.0701  0.0320
 2706TIP3    H129677   5.141   2.205   7.803  0.2160  0.0017  2.0912
 2706TIP3    H229678   5.285   2.205   7.849  1.1360  1.3788 -0.5958
 2707TIP3   OH229679   1.702   4.395   7.299  0.0413 -0.2385  0.2647
 2707TIP3    H129680   1.624   4.383   7.245  0.8046  0.5907 -1.0888
 2707TIP3    H229681   1.710   4.313   7.349 -0.9613 -0.8391 -0.5228
 2708TIP3   OH229682   6.816   5.083   7.283  0.4692  0.6286  0.1132
 2708TIP3    H129683   6.753   5.149   7.311 -0.0478 -0.1112  0.7438
 2708TIP3    H229684   6.881   5.132   7.232 -0.2424  1.5108  0.0261
 2709TIP3   OH229685   1.645   2.611   0.344 -0.3455 -0.4578 -0.0393
 2709TIP3    H129686   1.641   2.600   0.439  0.0354 -0.4896 -0.0230
 2709TIP3    H229687   1.607   2.697   0.327  1.8498  0.6849  0.3961
 2710TIP3   OH229688   1.729   4.052   0.791 -0.4168  0.4600 -0.3957
 2710TIP3    H129689   1.719   4.025   0.882 -0.7049  0.6432 -0.3718
 2710TIP3    H229690   1.715   4.147   0.793  0.0863  0.5401 -0.5533
 2711TIP3   OH229691   3.753   0.337   1.558  0.0460 -0.2431  0.3665
 2711TIP3    H129692   3.756   0.244   1.533 -1.4456  0.0068 -0.9130
 2711TIP3    H229693   3.691   0.341   1.630  0.3433 -0.2763  0.6251
 2712TIP3   OH229694   1.502   0.433   1.388  0.8203  0.2006 -0.5416
 2712TIP3    H129695   1.550   0.360   1.349  1.6041 -0.1298  0.9884
 2712TIP3    H229696   1.554   0.458   1.464 -1.5405 -0.3226  1.3532
 2713TIP3   OH229697   2.684   4.994   0.833 -0.0119 -0.4499 -1.0644
 2713TIP3    H129698   2.652   5.084   0.836 -0.4401 -0.5928  2.7928
 2713TIP3    H229699   2.729   4.981   0.916  3.0763 -2.8230 -2.8905
 2714TIP3   OH229700   6.338   5.973   2.103  0.8462 -0.3883  0.2899
 2714TIP3    H129701   6.305   5.916   2.173  0.1050  0.2187  0.4380
 2714TIP3    H229702   6.303   6.059   2.123  2.5935  0.3214  0.5128
 2715TIP3   OH229703   0.045   3.293   7.141  0.0642  0.9560 -0.7334
 2715TIP3    H129704  -0.000   3.363   7.188 -0.3699  0.4148 -0.3297
 2715TIP3    H229705   0.089   3.242   7.210 -0.0667  0.5157 -0.9713
 2716TIP3   OH229706   2.806   0.575   6.933  0.8750  0.3745  0.7130
 2716TIP3    H129707   2.900   0.555   6.925  1.1294  2.1677 -1.7977
 2716TIP3    H229708   2.762   0.494   6.906  1.7115  0.0093  0.4115
 2717TIP3   OH229709   4.255   5.089   0.734 -0.3657 -0.1736  0.0905
 2717TIP3    H129710   4.325   5.030   0.707 -0.7004 -0.8899  0.7284
 2717TIP3    H229711   4.237   5.143   0.657 -1.0942 -1.9592 -1.0564
 2718TIP3   OH229712   4.747   6.055   0.515 -0.2818 -0.2180 -0.5474
 2718TIP3    H129713   4.703   5.994   0.455 -0.0585 -0.4696 -0.4576
 2718TIP3    H229714   4.832   6.072   0.474 -0.9826  1.3802 -1.4498
 2719TIP3   OH229715   0.233   0.068   0.953 -0.4818  0.4442  0.3441
 2719TIP3    H129716   0.288   0.137   0.989  0.1878  0.2151 -0.2131
 2719TIP3    H229717   0.154   0.114   0.922  0.2416  1.0721 -0.6373
 2720TIP3   OH229718   3.336   2.516   7.761  0.2436  0.0790  0.0864
 2720TIP3    H129719   3.280   2.584   7.798  0.5615  0.4646 -0.1265
 2720TIP3    H229720   3.374   2.472   7.837 -0.5035 -0.3215  0.2337
 2721TIP3   OH229721   1.664   6.414   1.270  0.0147  0.5333  0.0005
 2721TIP3    H129722   1.568   6.417   1.266 -0.0589 -0.3136  0.8263
 2721TIP3    H229723   1.691   6.395   1.180 -0.5584  1.4063 -0.3627
 2722TIP3   OH229724   4.496   5.080   7.646 -0.5021 -0.7125  0.5634
 2722TIP3    H129725   4.502   5.112   7.555  1.9910  2.2113  1.5772
 2722TIP3    H229726   4.437   5.005   7.641 -2.5100  0.8398 -3.0654
 2723TIP3   OH229727   0.303   6.239   6.978  0.4539 -0.0115  0.2516
 2723TIP3    H129728   0.238   6.281   7.035  0.2047  0.1477 -0.1462
 2723TIP3    H229729   0.375   6.217   7.036 -0.0251 -0.3337  0.7302
 2724TIP3   OH229730   6.513   3.651   6.821 -0.3998  0.2131  0.2193
 2724TIP3    H129731   6.503   3.557   6.836 -0.4221  0.5450  2.7145
 2724TIP3    H229732   6.435   3.690   6.860 -0.2942  1.2980 -0.6199
 2725TIP3   OH229733   5.390   1.060   7.725  0.3117  0.6315 -0.6336
 2725TIP3    H129734   5.404   0.989   7.788 -1.5920  0.4778 -0.3408
 2725TIP3    H229735   5.440   1.134   7.761  1.3900 -0.2102 -0.3535
 2726TIP3   OH229736   3.620   3.789   2.069 -0.2170 -0.2350 -0.5190
 2726TIP3    H129737   3.709   3.808   2.038 -0.2677 -1.0563 -1.2048
 2726TIP3    H229738   3.632   3.718   2.133 -0.3801 -0.3652 -0.6323
 2727TIP3   OH229739   3.774   3.373   0.468 -0.5269 -1.0840 -0.6098
 2727TIP3    H129740   3.787   3.295   0.523 -3.0067 -0.7915  0.5320
 2727TIP3    H229741   3.831   3.439   0.507  1.5622 -2.2196 -1.5478
 2728TIP3   OH229742   1.734   5.077   1.276 -0.0920  0.1177 -0.2315
 2728TIP3    H129743   1.687   5.020   1.337  0.2417 -0.7322 -0.7519
 2728TIP3    H229744   1.824   5.043   1.276 -0.7208 -2.0460 -3.6033
 2729TIP3   OH229745   1.251   6.946   8.098 -0.1813  0.2601 -0.8532
 2729TIP3    H129746   1.258   7.025   8.151  1.1659  1.2902 -2.4729
 2729TIP3    H229747   1.176   6.962   8.040 -0.2674  0.1003 -0.7863
 2730TIP3   OH229748   0.391   0.422   2.449 -0.5326  0.2207  0.0512
 2730TIP3    H129749   0.442   0.345   2.422  1.1200  1.2620  0.1104
 2730TIP3    H229750   0.328   0.387   2.512  0.2105 -1.0834  0.1140
 2731TIP3   OH229751   1.476   3.405   0.309  0.0007  0.1938 -0.0319
 2731TIP3    H129752   1.426   3.417   0.228 -0.2649 -0.7376 -0.0152
 2731TIP3    H229753   1.467   3.489   0.355 -3.4440 -0.5878  1.0228
 2732TIP3   OH229754   1.313   4.383   1.838 -0.0783 -0.1010  0.7525
 2732TIP3    H129755   1.279   4.368   1.926 -0.4227  0.0280  0.6448
 2732TIP3    H229756   1.250   4.445   1.799  0.3973  0.3099  0.6259
 2733TIP3   OH229757   6.218   1.855   6.209 -0.2370  0.8360 -0.0723
 2733TIP3    H129758   6.293   1.836   6.265 -1.6772 -1.1064  1.3310
 2733TIP3    H229759   6.247   1.829   6.121  0.7407  0.2148  0.4180
 2734TIP3   OH229760   3.378   1.362   0.837 -0.3013 -0.1152  0.4641
 2734TIP3    H129761   3.322   1.350   0.914  0.5255 -1.5042  0.8821
 2734TIP3    H229762   3.377   1.277   0.793 -1.2574  0.8172 -1.4443
 2735TIP3   OH229763   6.846   2.832   1.622  0.2038 -0.1223  0.0493
 2735TIP3    H129764   6.915   2.831   1.688 -0.8621 -1.6712  1.2143
 2735TIP3    H229765   6.874   2.766   1.557  0.3242  0.0053 -0.0281
 2736TIP3   OH229766   2.389   1.291   0.434 -0.1168  0.1461 -0.1861
 2736TIP3    H129767   2.367   1.212   0.384  1.2846 -0.4328  0.0582
 2736TIP3    H229768   2.382   1.265   0.525 -1.2851  0.8046 -0.0660
 2737TIP3   OH229769   4.529   0.310   7.359  0.4312  0.1202  0.3502
 2737TIP3    H129770   4.436   0.325   7.340  0.5489 -0.9557 -1.3428
 2737TIP3    H229771   4.530   0.226   7.405  0.6010 -0.2541 -0.3204
 2738TIP3   OH229772   6.603   1.263   1.007  0.4596  0.1174  0.3851
 2738TIP3    H129773   6.568   1.231   0.925  0.8708 -0.2625  0.3560
 2738TIP3    H229774   6.696   1.278   0.990  0.2961  1.2818  0.4095
 2739TIP3   OH229775   4.122   0.041   1.296  0.4755 -0.0386  0.4646
 2739TIP3    H129776   4.218   0.044   1.296  0.4740  0.0798 -0.0633
 2739TIP3    H229777   4.100  -0.045   1.262  0.3962 -0.1112  0.7013
 2740TIP3   OH229778   2.533   0.223   0.148 -0.0366 -0.8366 -0.3441
 2740TIP3    H129779   2.627   0.239   0.136  0.2211 -2.8136 -1.3496
 2740TIP3    H229780   2.529   0.135   0.185 -1.4192  0.3625  2.7274
 2741TIP3   OH229781   4.434   5.285   7.941  0.4294 -0.2171  0.0847
 2741TIP3    H129782   4.344   5.254   7.932  0.7114 -1.5715  1.5481
 2741TIP3    H229783   4.482   5.245   7.868  0.1715 -0.7705  0.2229
 2742TIP3   OH229784   4.461   3.978   2.439  0.0357 -0.1911 -0.6378
 2742TIP3    H129785   4.476   3.977   2.533  0.6060 -2.2626 -0.7108
 2742TIP3    H229786   4.368   4.000   2.429 -1.0484 -3.5679  0.6411
 2743TIP3   OH229787   0.670   6.894   1.006  0.1200  0.0206  0.4027
 2743TIP3    H129788   0.584   6.931   0.986  0.0824  0.3328  1.1410
 2743TIP3    H229789   0.732   6.959   0.974  0.0668  0.2216  0.7027
 2744TIP3   OH229790   0.891   1.853   6.416 -0.7049  0.1436 -0.3937
 2744TIP3    H129791   0.846   1.900   6.486  0.5186  1.5015 -0.4699
 2744TIP3    H229792   0.956   1.915   6.384  0.1146 -1.1788 -1.3759
 2745TIP3   OH229793   1.554   2.198   1.994 -0.2195 -0.2665 -0.4100
 2745TIP3    H129794   1.592   2.267   2.048 -2.2886  0.4535  0.2363
 2745TIP3    H229795   1.600   2.118   2.021  0.2166  0.4062  0.9387
 2746TIP3   OH229796   0.151   6.036   0.660 -0.4841 -0.2838 -0.3375
 2746TIP3    H129797   0.149   6.045   0.565 -2.8769  1.2124 -0.2304
 2746TIP3    H229798   0.176   6.123   0.692 -2.1944 -0.0154  0.3929
 2747TIP3   OH229799   2.408   5.093   8.227 -0.5687 -0.4098 -0.1865
 2747TIP3    H129800   2.374   5.181   8.241 -0.5810 -0.4220 -0.1389
 2747TIP3    H229801   2.458   5.099   8.145 -2.2646 -0.8353 -1.3127
 2748TIP3   OH229802   1.248   4.393   8.216 -0.1418  0.0808 -0.2180
 2748TIP3    H129803   1.310   4.341   8.267 -1.3185 -0.2287  0.9552
 2748TIP3    H229804   1.288   4.480   8.211  0.2240 -0.0159  0.8095
 2749TIP3   OH229805   6.373   3.491   2.183 -0.5603 -0.1151 -0.1958
 2749TIP3    H129806   6.366   3.505   2.089  0.4076  2.1322  0.0201
 2749TIP3    H229807   6.399   3.399   2.191  0.2820 -0.1007 -2.1737
 2750TIP3   OH229808   5.353   2.652   1.914 -0.2180 -0.1810  0.1704
 2750TIP3    H129809   5.396   2.654   1.999  2.8249  2.3009 -1.1892
 2750TIP3    H229810   5.310   2.737   1.907 -0.9183 -0.5843 -0.5561
 2751TIP3   OH229811   0.047   4.224   1.750  0.8707  0.7497  0.7521
 2751TIP3    H129812  -0.024   4.160   1.739  0.0889  1.6171  0.5981
 2751TIP3    H229813   0.032   4.263   1.836  0.4789  1.7289  0.2575
 2752TIP3   OH229814   3.753   2.639   7.180  0.1493 -0.4457  0.5176
 2752TIP3    H129815   3.762   2.570   7.245 -0.5647 -1.7992 -0.7524
 2752TIP3    H229816   3.823   2.623   7.117  0.8991  0.9098  0.9674
 2753TIP3   OH229817   5.209   3.615   1.991 -0.6765  0.0309  0.0837
 2753TIP3    H129818   5.166   3.543   1.946 -0.2831 -0.1268 -0.0426
 2753TIP3    H229819   5.263   3.573   2.058  1.3519  0.0162 -1.4516
 2754TIP3   OH229820   2.000   0.050   8.072  0.1098  0.8444  0.0351
 2754TIP3    H129821   1.938  -0.017   8.103  0.5504  0.4782  0.1338
 2754TIP3    H229822   1.945   0.126   8.054 -0.3288  0.6390  0.4594
 2755TIP3   OH229823   1.192   0.789   2.720  0.6165  0.3771 -0.4885
 2755TIP3    H129824   1.201   0.788   2.625 -0.8007  0.3735 -0.6420
 2755TIP3    H229825   1.186   0.881   2.743 -0.1391  0.3424 -0.5288
 2756TIP3   OH229826   4.568   4.103   0.507 -0.1984 -0.5638  0.1320
 2756TIP3    H129827   4.579   4.038   0.438  1.0313 -1.3673  1.0307
 2756TIP3    H229828   4.648   4.155   0.504 -0.8598  0.4704 -0.1100
 2757TIP3   OH229829   4.209   2.803   1.360  0.0596 -0.0619 -0.0620
 2757TIP3    H129830   4.168   2.754   1.432 -1.4616  1.6218  0.2988
 2757TIP3    H229831   4.278   2.854   1.403 -0.8571  0.9528  0.2308
 2758TIP3   OH229832   5.207   1.518   2.839  0.4034  0.1284 -0.0724
 2758TIP3    H129833   5.241   1.530   2.751 -1.3952  1.3659 -0.6630
 2758TIP3    H229834   5.214   1.424   2.856  1.6058  0.0037 -1.1612
 2759TIP3   OH229835   3.184   0.470   8.350 -0.0216 -0.4926 -0.6924
 2759TIP3    H129836   3.250   0.463   8.282  0.7703  1.9668 -0.2882
 2759TIP3    H229837   3.209   0.405   8.415  1.1061 -0.6438 -1.2484
 2760TIP3   OH229838   6.817   5.080   1.739 -0.5417 -0.3127  0.2963
 2760TIP3    H129839   6.876   5.149   1.709  0.5120 -0.2198  2.3876
 2760TIP3    H229840   6.851   5.000   1.699 -0.3545  0.0486 -0.2746
 2761TIP3   OH229841   4.125   2.291   1.358 -0.1450 -0.3169 -0.3308
 2761TIP3    H129842   4.068   2.355   1.314  1.3991  1.0627 -0.3923
 2761TIP3    H229843   4.184   2.344   1.412  1.2661 -1.6904 -0.4667
 2762TIP3   OH229844   5.178   5.069   2.399  0.3106 -0.6143 -0.4048
 2762TIP3    H129845   5.273   5.061   2.387  0.6742  0.2226  1.4887
 2762TIP3    H229846   5.165   5.163   2.416 -0.1756 -1.2415  3.7715
 2763TIP3   OH229847   1.704   1.481   2.370 -0.0319  0.4476 -0.3410
 2763TIP3    H129848   1.649   1.476   2.448 -0.4258 -1.3404 -0.6989
 2763TIP3    H229849   1.792   1.501   2.403 -0.4483  1.0395  0.4254
 2764TIP3   OH229850   3.642   6.400   7.225  0.6801 -0.1469  0.4806
 2764TIP3    H129851   3.617   6.370   7.312  0.2744  0.8850  0.7268
 2764TIP3    H229852   3.660   6.319   7.177 -0.3329 -0.7866  1.1350
 2765TIP3   OH229853   4.434   1.468   7.801 -0.4623  0.1643 -0.7593
 2765TIP3    H129854   4.372   1.409   7.758  0.4991 -1.2236 -0.2762
 2765TIP3    H229855   4.515   1.459   7.751 -0.6083  2.0286 -1.4273
 2766TIP3   OH229856   5.589   1.768   0.309  0.1300  0.3817 -0.2360
 2766TIP3    H129857   5.630   1.694   0.264 -0.8157 -0.4994  0.3242
 2766TIP3    H229858   5.578   1.834   0.241  2.2495  0.5751 -0.4619
 2767TIP3   OH229859   6.170   5.483   0.634 -0.0099  0.1409 -0.0704
 2767TIP3    H129860   6.102   5.421   0.607  0.7991 -0.8639  0.1465
 2767TIP3    H229861   6.214   5.440   0.707 -0.6475  1.8052  1.3671
 2768TIP3   OH229862   3.900   5.289   7.740  0.4463  0.6013  0.3553
 2768TIP3    H129863   3.841   5.362   7.757  0.5386  1.0521 -1.1161
 2768TIP3    H229864   3.986   5.320   7.770  0.1054  0.2272  1.7997
 2769TIP3   OH229865   6.339   3.721   0.214  0.3580  0.4738 -0.3689
 2769TIP3    H129866   6.369   3.662   0.282 -0.3730 -0.0723 -0.5009
 2769TIP3    H229867   6.285   3.785   0.260 -0.2961 -0.0100 -0.4479
 2770TIP3   OH229868   3.650   6.727   2.305  0.0331 -0.5080  0.2677
 2770TIP3    H129869   3.733   6.685   2.328  0.4415  0.4087  0.4934
 2770TIP3    H229870   3.643   6.801   2.365  1.2945  2.2110 -2.6760
 2771TIP3   OH229871   4.030   2.699   7.861 -0.5759 -0.5822  0.4778
 2771TIP3    H129872   4.105   2.641   7.870 -0.2548 -0.9551 -3.1741
 2771TIP3    H229873   4.054   2.758   7.790 -2.6037  1.2858  1.2287
 2772TIP3   OH229874   4.213   3.109   0.319  0.5880  0.2326  0.5115
 2772TIP3    H129875   4.228   3.026   0.274 -2.4979  0.0834 -0.5347
 2772TIP3    H229876   4.232   3.091   0.411 -2.2717 -2.4754  0.7384
 2773TIP3   OH229877   2.889   3.929   7.813 -0.4762  0.5566  0.2339
 2773TIP3    H129878   2.973   3.883   7.823  0.5095  2.5377  1.7541
 2773TIP3    H229879   2.836   3.870   7.759  2.1534 -0.4086 -1.5043
 2774TIP3   OH229880   4.897   0.983   1.629  0.0023 -0.4068 -0.3814
 2774TIP3    H129881   4.892   1.053   1.694 -1.4431  0.3851 -1.2894
 2774TIP3    H229882   4.952   0.916   1.670 -0.1791  0.4185  1.2965
 2775TIP3   OH229883   6.308   4.385   6.423  0.0678 -0.2057 -1.2081
 2775TIP3    H129884   6.324   4.423   6.509 -1.4048  0.3983 -1.1869
 2775TIP3    H229885   6.321   4.457   6.361  0.2584 -0.4236 -1.4272
 2776TIP3   OH229886   1.415   1.864   7.620 -0.0032  0.2163 -0.0664
 2776TIP3    H129887   1.333   1.881   7.665 -0.2644 -0.1829 -0.3834
 2776TIP3    H229888   1.445   1.950   7.590  1.0988  0.7951  2.3863
 2777TIP3   OH229889   3.258   4.185   6.268 -0.2194  0.1061  0.4141
 2777TIP3    H129890   3.263   4.219   6.179 -3.3749 -1.5955 -0.5658
 2777TIP3    H229891   3.254   4.090   6.258  3.1977 -0.4604  2.7293
 2778TIP3   OH229892   2.732   5.664   0.148 -0.3754  0.0278  0.2784
 2778TIP3    H129893   2.645   5.624   0.140  0.1839 -1.4622  1.2944
 2778TIP3    H229894   2.729   5.709   0.232 -0.4029  0.6199 -0.0372
 2779TIP3   OH229895   6.837   3.382   1.353  0.7853 -0.7407 -0.6335
 2779TIP3    H129896   6.922   3.358   1.389  0.1911 -0.9356  0.7059
 2779TIP3    H229897   6.773   3.341   1.412 -0.2374 -0.2616 -1.3722
 2780TIP3   OH229898   0.514   2.756   7.234 -0.1205  0.7433 -0.4559
 2780TIP3    H129899   0.449   2.800   7.289 -2.4868  0.4124 -2.8014
 2780TIP3    H229900   0.543   2.681   7.286 -0.3262  1.8179  1.3015
 2781TIP3   OH229901   6.339   0.919   7.811  0.2181 -0.0182  0.0502
 2781TIP3    H129902   6.311   0.990   7.869  0.5813 -1.0184  1.5090
 2781TIP3    H229903   6.369   0.850   7.870 -0.5931 -1.6040 -1.2948
 2782TIP3   OH229904   5.825   6.695   1.673  0.0480  0.1612  0.5207
 2782TIP3    H129905   5.859   6.720   1.588 -1.1499 -0.6597 -0.2358
 2782TIP3    H229906   5.866   6.756   1.735 -0.0940  1.6609 -0.8000
 2783TIP3   OH229907   6.308   5.443   8.107  0.0831 -0.9136  0.3189
 2783TIP3    H129908   6.263   5.525   8.123 -0.4907 -1.0212 -0.7005
 2783TIP3    H229909   6.336   5.448   8.016  1.0466 -1.3728  0.5774
 2784TIP3   OH229910   4.711   3.333   1.158 -0.3620  0.4578 -0.2911
 2784TIP3    H129911   4.714   3.410   1.214 -0.8744 -0.2272  0.7135
 2784TIP3    H229912   4.787   3.281   1.185  0.6314  1.0977 -1.7337
 2785TIP3   OH229913   0.181   1.773   7.302  0.0409 -0.4580 -0.1961
 2785TIP3    H129914   0.193   1.865   7.323  1.3581 -0.1992 -1.8528
 2785TIP3    H229915   0.100   1.769   7.252  0.5250 -0.0304 -1.0218
 2786TIP3   OH229916   0.051   2.448   0.509 -0.4950 -0.1713  0.0138
 2786TIP3    H129917   0.029   2.516   0.573 -1.3595  0.6284 -1.0932
 2786TIP3    H229918   0.127   2.404   0.546  0.2653  1.5797  0.6336
 2787TIP3   OH229919   1.202   2.072   1.447 -0.2417 -0.6634 -0.5979
 2787TIP3    H129920   1.294   2.059   1.470  0.2934  3.3731  0.3019
 2787TIP3    H229921   1.205   2.117   1.363 -1.2389  0.7731  0.0952
 2788TIP3   OH229922   2.768   4.439   1.725  0.4073  0.4003  0.1453
 2788TIP3    H129923   2.812   4.524   1.720  2.9248 -0.8760 -1.5537
 2788TIP3    H229924   2.754   4.414   1.633  0.3755 -1.2987  0.5734
 2789TIP3   OH229925   4.709   3.621   7.158  0.5651 -0.0282 -0.3699
 2789TIP3    H129926   4.723   3.667   7.240 -1.9575  2.0024 -0.9474
 2789TIP3    H229927   4.739   3.682   7.090 -1.5139  0.2842 -1.0902
 2790TIP3   OH229928   1.470   0.888   2.434  0.3905  0.4966  0.6879
 2790TIP3    H129929   1.533   0.819   2.414 -1.1778 -0.5094 -1.1643
 2790TIP3    H229930   1.485   0.955   2.367  2.0372  2.1511  2.5930
 2791TIP3   OH229931   2.369   6.237   2.499 -0.4115 -0.1198  0.4427
 2791TIP3    H129932   2.381   6.277   2.585 -0.6241  0.6282  0.1283
 2791TIP3    H229933   2.455   6.200   2.478 -0.4149 -0.5017  1.0675
 2792TIP3   OH229934   5.872   0.315   0.097 -0.2948 -0.3363  0.3208
 2792TIP3    H129935   5.945   0.369   0.068 -0.3940 -0.2589  0.2117
 2792TIP3    H229936   5.839   0.360   0.175 -0.9463  0.2650 -0.2885
 2793TIP3   OH229937   4.995   6.382   1.587 -0.0056 -0.4072 -0.8474
 2793TIP3    H129938   5.015   6.469   1.551  1.7308 -0.2583  0.3928
 2793TIP3    H229939   5.065   6.326   1.556 -0.1237 -0.9593 -0.1401
 2794TIP3   OH229940   1.545   1.744   0.980 -0.4948 -0.3098 -0.1415
 2794TIP3    H129941   1.494   1.819   1.012  0.1207 -0.6731  1.8042
 2794TIP3    H229942   1.479   1.677   0.961 -0.8714 -0.1667  0.6379
 2795TIP3   OH229943   5.117   1.709   2.227  0.3977  0.4851 -0.1812
 2795TIP3    H129944   5.049   1.705   2.295  1.1051  1.0014  0.5763
 2795TIP3    H229945   5.069   1.697   2.145 -0.2616 -2.3446  0.4791
 2796TIP3   OH229946   1.405   2.566   2.398 -0.2582  0.3692  0.1126
 2796TIP3    H129947   1.323   2.536   2.436  0.0288  0.4660  0.8232
 2796TIP3    H229948   1.463   2.580   2.473 -0.0224  1.6076 -0.2697
 2797TIP3   OH229949   0.068   2.022   8.010 -0.2539 -0.7110  0.1839
 2797TIP3    H129950   0.108   2.103   8.041 -0.0475 -0.3081 -1.0890
 2797TIP3    H229951   0.004   1.999   8.078  0.8190 -0.3691  1.3370
 2798TIP3   OH229952   4.472   5.373   0.321 -0.2388 -0.1748 -0.1389
 2798TIP3    H129953   4.399   5.365   0.259  0.3825 -3.2796 -0.6296
 2798TIP3    H229954   4.433   5.357   0.407 -0.2506 -1.6206 -0.3811
 2799TIP3   OH229955   1.438   6.889   7.864  0.0879  0.2273 -0.2780
 2799TIP3    H129956   1.395   6.941   7.931  1.6682  1.5566 -0.2242
 2799TIP3    H229957   1.488   6.824   7.913 -1.2377 -0.8479 -0.3149
 2800TIP3   OH229958   4.102   1.542   0.395  0.5408 -0.0251  0.2239
 2800TIP3    H129959   4.129   1.530   0.486  0.5112  0.6162  0.3209
 2800TIP3    H229960   4.147   1.472   0.347  0.5369 -0.3777  0.7320
 2801TIP3   OH229961   6.836   6.152   2.144 -0.1121  0.3110  0.1053
 2801TIP3    H129962   6.919   6.158   2.097 -0.0358  1.1581  0.3319
 2801TIP3    H229963   6.811   6.060   2.137 -0.5766  0.5624 -2.4018
 2802TIP3   OH229964   0.776   2.706   7.504  0.2726  0.3387 -0.0978
 2802TIP3    H129965   0.856   2.680   7.549 -1.3359  0.8559  3.3876
 2802TIP3    H229966   0.721   2.628   7.505  0.4767  0.1267 -2.0250
 2803TIP3   OH229967   1.023   5.167   0.353  0.7400 -0.0625 -0.3010
 2803TIP3    H129968   1.083   5.224   0.306 -0.2892  1.3810  0.0666
 2803TIP3    H229969   1.032   5.193   0.445  1.6027 -1.7960  0.1573
 2804TIP3   OH229970   4.936   0.160   1.315 -0.3386  0.8675  0.7344
 2804TIP3    H129971   4.940   0.220   1.389 -1.3645  1.4234  0.3672
 2804TIP3    H229972   4.961   0.213   1.239 -2.2166  1.1489  0.2607
 2805TIP3   OH229973   3.762   0.059   6.814 -1.1418  0.2609 -0.6482
 2805TIP3    H129974   3.731   0.145   6.844 -1.3160  0.4881 -1.4521
 2805TIP3    H229975   3.806   0.078   6.730 -2.2937 -0.6058 -1.4729
 2806TIP3   OH229976   6.155   0.147   2.449 -0.0194  0.0454  0.2356
 2806TIP3    H129977   6.063   0.173   2.456  0.2284  0.9087  0.4022
 2806TIP3    H229978   6.174   0.148   2.356 -0.4954 -1.3152  0.1021
 2807TIP3   OH229979   6.242   2.672   7.214 -0.6254  0.3520 -0.2342
 2807TIP3    H129980   6.231   2.727   7.137  1.1649  1.1980  0.0653
 2807TIP3    H229981   6.307   2.607   7.189 -0.8459 -0.0525  0.2199
 2808TIP3   OH229982   0.617   1.086   8.283 -0.0633 -0.2272  0.3624
 2808TIP3    H129983   0.558   1.151   8.321 -0.7612  0.3195 -1.5159
 2808TIP3    H229984   0.572   1.057   8.203  0.5816 -2.4694  0.7504
 2809TIP3   OH229985   4.520   2.438   1.183 -0.4926 -0.4243 -0.3380
 2809TIP3    H129986   4.531   2.371   1.115 -0.4490  0.1538 -0.9082
 2809TIP3    H229987   4.520   2.389   1.265  0.6531 -1.0182 -0.6710
 2810TIP3   OH229988   0.157   6.187   1.173 -0.5119 -0.4988  0.3486
 2810TIP3    H129989   0.062   6.189   1.176 -0.5228 -0.3806 -0.0432
 2810TIP3    H229990   0.178   6.105   1.129 -0.4709  0.2152 -0.9992
 2811TIP3   OH229991   2.997   6.011   0.955 -0.0642  0.1728 -0.2387
 2811TIP3    H129992   3.074   6.064   0.936  0.9771 -1.5253 -0.9583
 2811TIP3    H229993   3.031   5.931   0.994 -1.7409  0.8811  3.0596
 2812TIP3   OH229994   6.290   0.322   8.344 -0.4184 -0.0215  0.0143
 2812TIP3    H129995   6.214   0.364   8.384  0.6807 -0.1166  2.3739
 2812TIP3    H229996   6.291   0.234   8.381  1.6455  0.4601  1.3226
 2813TIP3   OH229997   5.013   4.878   2.027  0.2637  0.0504 -0.1008
 2813TIP3    H129998   5.090   4.933   2.033  0.9481 -0.8015 -0.6915
 2813TIP3    H229999   5.047   4.788   2.033 -0.8739 -0.3213  1.5153
 2814TIP3   OH230000   1.888   3.165   0.101 -0.2418  0.1058 -0.1177
 2814TIP3    H130001   1.826   3.206   0.162 -0.8812 -3.0213  1.5094
 2814TIP3    H230002   1.971   3.207   0.121 -0.7636  0.3307  1.7713
 2815TIP3   OH230003   6.427   1.502   2.690 -0.3767  0.8142 -0.2948
 2815TIP3    H130004   6.412   1.408   2.696 -1.6552  0.9055 -1.4871
 2815TIP3    H230005   6.491   1.521   2.759  0.3469 -1.0039 -0.4224
 2816TIP3   OH230006   6.500   0.720   7.984 -0.2646  0.3668 -0.5274
 2816TIP3    H130007   6.445   0.676   8.049 -1.0444  1.6211 -0.2830
 2816TIP3    H230008   6.562   0.654   7.954 -0.0807 -0.3178  1.2829
 2817TIP3   OH230009   0.595   3.284   2.842  0.1100  0.8236  0.2065
 2817TIP3    H130010   0.660   3.247   2.782  1.3964 -1.3178  2.6995
 2817TIP3    H230011   0.586   3.375   2.814  1.2722  0.1786 -2.6127
 2818TIP3   OH230012   2.635   0.903   1.382  0.5791 -0.0932  0.2846
 2818TIP3    H130013   2.623   0.818   1.341 -1.7586  0.6027 -0.6480
 2818TIP3    H230014   2.653   0.963   1.310  0.5075  0.4849  0.7341
 2819TIP3   OH230015   4.298   2.424   1.788 -0.7474  0.0027 -0.0097
 2819TIP3    H130016   4.364   2.468   1.841 -0.5959  0.6011 -0.6974
 2819TIP3    H230017   4.295   2.335   1.824  0.3678 -0.0144  0.0766
 2820TIP3   OH230018   4.664   4.210   6.751 -0.0455 -0.2087 -0.3398
 2820TIP3    H130019   4.677   4.122   6.716  0.3984  0.1259 -1.0350
 2820TIP3    H230020   4.750   4.252   6.744 -0.1484  0.1459  0.3787
 2821TIP3   OH230021   2.392   2.498   6.984  0.8927 -0.0299  0.1859
 2821TIP3    H130022   2.438   2.514   6.901  0.9168 -2.8751 -0.4479
 2821TIP3    H230023   2.300   2.514   6.964  1.0240  0.3868 -0.0849
 2822TIP3   OH230024   1.520   0.219   7.111  0.2451 -0.2757  0.5792
 2822TIP3    H130025   1.463   0.146   7.086  1.3909 -1.3709  1.1312
 2822TIP3    H230026   1.533   0.267   7.029 -0.1289 -0.9516  0.1086
 2823TIP3   OH230027   3.655   4.214   1.991 -0.7053 -0.1367  0.2875
 2823TIP3    H130028   3.718   4.184   2.057  0.1935  0.1125 -0.4335
 2823TIP3    H230029   3.616   4.293   2.030 -0.2943 -0.0766  0.5887
 2824TIP3   OH230030   5.634   3.921   2.681  0.3301  0.0364  0.0244
 2824TIP3    H130031   5.708   3.963   2.636  2.3875 -2.0444  1.2603
 2824TIP3    H230032   5.635   3.959   2.769  1.0137 -1.1520  0.5514
 2825TIP3   OH230033   2.676   5.810   0.819 -0.4823 -0.8625 -0.4747
 2825TIP3    H130034   2.626   5.849   0.891 -1.6995  0.3153 -1.8968
 2825TIP3    H230035   2.610   5.775   0.760  0.4898 -1.8232 -1.0331
 2826TIP3   OH230036   4.124   4.019   1.616  0.1679 -0.1236 -0.1756
 2826TIP3    H130037   4.179   4.053   1.545 -0.3476  0.3642 -0.3437
 2826TIP3    H230038   4.089   4.097   1.659 -1.1469 -0.4306 -0.6596
 2827TIP3   OH230039   1.941   5.656   8.264 -0.0210 -0.3866 -0.0874
 2827TIP3    H130040   1.917   5.748   8.260  2.0599  0.2080 -0.3895
 2827TIP3    H230041   1.915   5.620   8.180 -0.2074  0.1133 -0.2465
 2828TIP3   OH230042   2.995   5.772   1.660  0.4881 -0.1013 -0.4506
 2828TIP3    H130043   3.015   5.829   1.586 -0.3670  0.2072 -0.4524
 2828TIP3    H230044   2.982   5.831   1.734  0.2905 -0.3414 -0.2908
 2829TIP3   OH230045   0.428   0.933   1.966  0.0722 -0.2808  0.3748
 2829TIP3    H130046   0.424   1.028   1.959 -2.3783 -0.4014 -0.8420
 2829TIP3    H230047   0.344   0.908   2.004  1.2526 -1.9203  2.1196
 2830TIP3   OH230048   0.131   3.047   1.180 -0.4933 -0.0056  0.2709
 2830TIP3    H130049   0.165   3.003   1.102  0.8553  1.6855 -0.1490
 2830TIP3    H230050   0.125   3.139   1.155 -0.2189  0.5431  2.0816
 2831TIP3   OH230051   1.117   6.648   6.514  0.4796  0.0761  0.1701
 2831TIP3    H130052   1.029   6.614   6.530 -0.1486  0.9543 -1.2567
 2831TIP3    H230053   1.151   6.593   6.443  0.2622  1.0491 -0.7040
 2832TIP3   OH230054   3.975   4.560   8.125  0.7094  0.0727 -0.3001
 2832TIP3    H130055   3.929   4.632   8.169  0.3384 -1.5373  2.1994
 2832TIP3    H230056   4.020   4.514   8.196  0.2706 -2.6197 -1.6134
 2833TIP3   OH230057   0.550   1.863   2.462 -0.4099  0.1456 -0.1852
 2833TIP3    H130058   0.546   1.803   2.536  1.3777  1.0873  0.7425
 2833TIP3    H230059   0.461   1.896   2.453 -0.6638  0.0286  1.5790
 2834TIP3   OH230060   5.419   5.173   8.044  0.0106 -0.1090 -0.6386
 2834TIP3    H130061   5.455   5.256   8.012 -0.0826 -0.0344 -0.5496
 2834TIP3    H230062   5.325   5.182   8.033  0.0137 -0.2773 -0.8037
 2835TIP3   OH230063   3.003   0.566   2.322  0.3423 -0.4012  0.8222
 2835TIP3    H130064   2.956   0.551   2.240  0.2068 -2.2426  1.1759
 2835TIP3    H230065   3.082   0.613   2.296  1.0444 -2.2352 -0.6604
 2836TIP3   OH230066   4.189   0.247   0.328 -0.3460  0.2810 -0.4203
 2836TIP3    H130067   4.233   0.236   0.413 -1.0291  1.4251  0.1126
 2836TIP3    H230068   4.251   0.296   0.275 -0.7899  1.6248  0.2308
 2837TIP3   OH230069   0.856   4.098   0.281  0.1914  0.7371 -0.0112
 2837TIP3    H130070   0.921   4.130   0.219  4.0211 -1.9383  2.2329
 2837TIP3    H230071   0.896   4.111   0.367 -1.4339 -2.6079  1.4251
 2838TIP3   OH230072   1.921   1.737   7.440 -0.2852  0.0762 -0.8632
 2838TIP3    H130073   1.962   1.651   7.438  2.6296  1.2925  0.5624
 2838TIP3    H230074   1.975   1.791   7.382 -0.7652  1.3997 -0.1362
 2839TIP3   OH230075   4.484   0.140   2.220 -0.2744 -0.1875 -0.0045
 2839TIP3    H130076   4.435   0.197   2.279 -1.3408 -0.7803 -0.2888
 2839TIP3    H230077   4.463   0.052   2.249  0.8275 -0.4508  0.0095
 2840TIP3   OH230078   2.374   4.194   1.130 -0.3723  0.1964  1.0683
 2840TIP3    H130079   2.435   4.138   1.177  0.5653  0.6320  0.4071
 2840TIP3    H230080   2.343   4.257   1.195 -0.1674 -0.0720  1.4234
 2841TIP3   OH230081   5.581   3.963   7.989  0.3502  0.1392  0.0535
 2841TIP3    H130082   5.632   3.961   8.070  0.9212  0.6377 -0.2884
 2841TIP3    H230083   5.490   3.960   8.018  0.5600 -0.5304  0.6799
 2842TIP3   OH230084   2.213   1.182   0.650 -0.1656 -0.1468  0.7256
 2842TIP3    H130085   2.144   1.233   0.606 -0.6588 -0.7431  0.7900
 2842TIP3    H230086   2.179   1.093   0.650  0.2326 -0.2992  1.5204
 2843TIP3   OH230087   0.781   5.380   2.407 -0.1097 -0.5754  0.9164
 2843TIP3    H130088   0.778   5.346   2.496 -0.2387 -2.4373  0.2632
 2843TIP3    H230089   0.869   5.361   2.376 -0.6591 -1.8697  0.0094
 2844TIP3   OH230090   1.714   6.700   6.322  0.3951  0.1414  0.2977
 2844TIP3    H130091   1.798   6.655   6.317  0.5244  0.5140 -1.6274
 2844TIP3    H230092   1.649   6.630   6.330  0.7800 -0.2425  0.0568
 2845TIP3   OH230093   0.955   2.003   0.853  0.0599 -0.2635 -0.7678
 2845TIP3    H130094   0.928   2.000   0.945 -1.0862  0.0841 -1.0780
 2845TIP3    H230095   0.932   1.917   0.818  0.0510 -0.2268 -0.8514
 2846TIP3   OH230096   1.474   5.534   7.923  0.6200  0.4692  0.9131
 2846TIP3    H130097   1.462   5.479   8.000  0.8907 -1.4864 -0.3717
 2846TIP3    H230098   1.567   5.553   7.921  0.6811  0.1601  0.8306
 2847TIP3   OH230099   2.284   0.383   1.620 -0.3233  0.7372 -0.2420
 2847TIP3    H130100   2.210   0.430   1.659 -0.8432 -1.6551  1.9198
 2847TIP3    H230101   2.361   0.420   1.663 -0.3589  1.9581 -1.1530
 2848TIP3   OH230102   0.819   3.336   2.288  0.5948  0.3928 -0.1088
 2848TIP3    H130103   0.913   3.350   2.304  0.2319  0.4681  2.3733
 2848TIP3    H230104   0.791   3.280   2.360 -1.9331  3.1556  1.2490
 2849TIP3   OH230105   4.522   1.298   2.524  0.1495 -0.6029 -0.0588
 2849TIP3    H130106   4.521   1.373   2.464  0.6266 -0.9436 -0.4961
 2849TIP3    H230107   4.464   1.325   2.596 -1.0734 -0.5031 -1.0398
 2850TIP3   OH230108   4.222   3.081   0.606  0.2255  0.0350  0.4570
 2850TIP3    H130109   4.292   3.140   0.579 -0.4111  2.0536  2.9187
 2850TIP3    H230110   4.240   3.062   0.698 -0.6006 -2.2381  0.2190
 2851TIP3   OH230111   4.224   2.934   6.939  0.3552  0.4837  0.2008
 2851TIP3    H130112   4.292   2.896   6.883 -0.6569 -0.5993 -0.3724
 2851TIP3    H230113   4.178   2.995   6.882  0.0137  0.1999  0.1647
 2852TIP3   OH230114   5.932   1.680   8.099  0.1518 -0.1497  0.2877
 2852TIP3    H130115   6.011   1.734   8.092 -0.3372  0.8056  1.6741
 2852TIP3    H230116   5.886   1.694   8.017  1.4785 -0.8270 -0.5994
 2853TIP3   OH230117   0.640   0.848   1.831  0.7900  0.0209  0.2111
 2853TIP3    H130118   0.714   0.908   1.837  0.3804  0.6661 -0.8569
 2853TIP3    H230119   0.566   0.898   1.865  0.4004  0.2342 -0.9000
 2854TIP3   OH230120   5.211   1.215   1.427 -0.4238  0.7070 -0.6985
 2854TIP3    H130121   5.167   1.297   1.447  1.8928  1.6313  1.0055
 2854TIP3    H230122   5.299   1.240   1.400  0.3838 -1.2010  0.0030
 2855TIP3   OH230123   6.186   5.056   0.880 -0.1527 -0.5528  0.2449
 2855TIP3    H130124   6.259   5.048   0.941 -0.2647  0.9005  0.6110
 2855TIP3    H230125   6.224   5.037   0.795  0.8578  0.9031  0.3333
 2856TIP3   OH230126   0.333   4.534   7.811  0.2897 -0.8394  0.0843
 2856TIP3    H130127   0.283   4.508   7.889  0.4904  0.1672  0.5551
 2856TIP3    H230128   0.330   4.630   7.811  1.2114 -0.7991 -0.5508
 2857TIP3   OH230129   4.142   4.693   1.998  0.3484  0.2692  0.1215
 2857TIP3    H130130   4.229   4.710   2.034  1.2026 -2.0136 -0.7040
 2857TIP3    H230131   4.119   4.774   1.953  2.4853  0.6102 -0.4696
 2858TIP3   OH230132   0.312   5.352   0.419  0.0435  0.5120  0.2793
 2858TIP3    H130133   0.275   5.431   0.457  1.7937  0.7268  1.6892
 2858TIP3    H230134   0.348   5.380   0.335 -1.1660  0.7204 -0.1854
 2859TIP3   OH230135   4.481   1.117   0.013 -0.2947 -0.4957  0.5687
 2859TIP3    H130136   4.550   1.051   0.022  0.5337  0.3160  0.2911
 2859TIP3    H230137   4.528   1.201   0.012 -1.3576  0.1353  1.3778
 2860TIP3   OH230138   6.799   5.108   2.034 -0.0715  0.3164 -0.1601
 2860TIP3    H130139   6.774   5.073   1.949  0.3478 -0.1991 -0.0775
 2860TIP3    H230140   6.893   5.126   2.026 -0.3040  1.5999 -0.2537
 2861TIP3   OH230141   2.215   6.954   0.530  0.9196  0.4234  0.4810
 2861TIP3    H130142   2.120   6.960   0.531  0.8000  0.0315 -2.0172
 2861TIP3    H230143   2.236   6.893   0.601 -0.7882 -0.4290  0.3018
 2862TIP3   OH230144   5.219   5.276   1.329  0.5511 -0.7780 -0.4320
 2862TIP3    H130145   5.302   5.229   1.316  0.8216 -0.5581  0.4493
 2862TIP3    H230146   5.196   5.259   1.421  2.1055  3.0613  0.8468
 2863TIP3   OH230147   5.608   2.499   1.865 -0.3764 -0.1163 -0.0303
 2863TIP3    H130148   5.528   2.550   1.858 -0.4166 -0.1532  0.1518
 2863TIP3    H230149   5.578   2.408   1.870 -0.3427 -0.1011  0.4557
 2864TIP3   OH230150   3.769   1.183   0.747 -0.2194 -0.8690  0.7975
 2864TIP3    H130151   3.738   1.206   0.835  1.2504 -0.0507  1.1331
 2864TIP3    H230152   3.844   1.240   0.732 -1.5720  0.4084 -1.7910
 2865TIP3   OH230153   2.432   3.478   0.286 -0.1711 -0.3374 -0.6059
 2865TIP3    H130154   2.505   3.438   0.333 -0.1069  1.3530  0.8508
 2865TIP3    H230155   2.354   3.449   0.335 -0.0929  1.5597  0.7285
 2866TIP3   OH230156   4.021   4.739   0.166 -0.3215  0.1865  0.8100
 2866TIP3    H130157   4.015   4.782   0.251  0.5968  2.8466 -0.3459
 2866TIP3    H230158   4.044   4.810   0.105 -2.4525 -1.2872 -1.9421
 2867TIP3   OH230159   2.021   5.385   1.436  0.5978  0.6207 -0.1322
 2867TIP3    H130160   2.021   5.348   1.348  0.5932  2.8767 -1.1516
 2867TIP3    H230161   2.018   5.309   1.494  2.2151 -1.0027 -2.0183
 2868TIP3   OH230162   4.394   3.103   6.714  0.1201  0.3380  0.4887
 2868TIP3    H130163   4.300   3.111   6.730 -0.2709  0.8656 -1.7886
 2868TIP3    H230164   4.413   3.010   6.728 -0.3399  0.5330  2.7030
 2869TIP3   OH230165   4.123   4.898   6.753  0.1643 -0.3929 -0.6007
 2869TIP3    H130166   4.143   4.830   6.818 -1.0604 -0.6603 -0.4946
 2869TIP3    H230167   4.203   4.951   6.750 -0.1708  0.4586  2.1115
 2870TIP3   OH230168   6.101   4.184   2.073  0.2668 -0.4171  0.0928
 2870TIP3    H130169   6.122   4.092   2.087  1.9792  0.2694  2.7967
 2870TIP3    H230170   6.181   4.221   2.034 -0.4397 -0.0295 -1.0598
 2871TIP3   OH230171   6.918   3.729   7.957  0.9942  0.6499  0.0477
 2871TIP3    H130172   6.989   3.786   7.985  1.5665 -0.2705  0.5122
 2871TIP3    H230173   6.880   3.696   8.038  2.4471 -1.7670 -0.1462
 2872TIP3   OH230174   0.757   3.158   0.392 -0.1029  0.5735 -0.0017
 2872TIP3    H130175   0.790   3.246   0.373  0.6010  0.4030  0.4010
 2872TIP3    H230176   0.661   3.167   0.391 -0.0823  0.9251 -1.9014
 2873TIP3   OH230177   5.415   5.014   0.989  0.1969 -0.3702  0.6344
 2873TIP3    H130178   5.455   5.097   1.013  3.6554 -1.9845  1.0728
 2873TIP3    H230179   5.429   4.957   1.064 -1.8173 -1.5109  0.2383
 2874TIP3   OH230180   1.771   2.729   2.029  0.2384 -0.0674 -0.1503
 2874TIP3    H130181   1.788   2.771   2.114 -0.3727  0.6459 -0.3685
 2874TIP3    H230182   1.849   2.750   1.977  0.3318  0.0390  0.0286
 2875TIP3   OH230183   5.128   4.362   0.722 -0.4758 -0.1042 -0.2055
 2875TIP3    H130184   5.164   4.446   0.750 -0.8014 -0.0646  0.1032
 2875TIP3    H230185   5.205   4.305   0.712 -0.4128 -0.4356  1.8295
 2876TIP3   OH230186   2.843   3.026   2.302 -0.2611  0.2203  0.5747
 2876TIP3    H130187   2.929   3.025   2.261 -0.9280 -0.9564 -0.8897
 2876TIP3    H230188   2.845   3.103   2.359  2.8079 -1.4232  3.0102
 2877TIP3   OH230189   0.247   1.937   1.573  0.2119 -0.3101  0.0871
 2877TIP3    H130190   0.269   2.030   1.581  1.7295 -0.5655 -0.7780
 2877TIP3    H230191   0.173   1.936   1.511 -0.7123  0.3887  1.1339
 2878TIP3   OH230192   5.251   0.455   1.066 -0.6257  0.0065  0.1773
 2878TIP3    H130193   5.230   0.373   1.021  2.0835 -0.4287 -0.5111
 2878TIP3    H230194   5.230   0.439   1.157 -0.0837 -1.5337  0.0722
 2879TIP3   OH230195   3.981   5.761   2.286  0.1724  0.1085  0.2204
 2879TIP3    H130196   4.061   5.752   2.337  0.1755  2.0721  0.6576
 2879TIP3    H230197   3.933   5.832   2.329 -1.2669 -0.2621 -0.7101
 2880TIP3   OH230198   6.384   2.330   1.088  0.2176  0.0845  0.4697
 2880TIP3    H130199   6.461   2.275   1.069 -1.4400 -2.3446  0.3405
 2880TIP3    H230200   6.360   2.306   1.177 -2.0577 -1.4505 -0.4737
 2881TIP3   OH230201   1.960   4.793   2.656  0.3148  0.0020 -0.3738
 2881TIP3    H130202   2.029   4.850   2.621 -1.4630  2.1577 -0.6087
 2881TIP3    H230203   1.930   4.743   2.580 -0.5732  1.4753 -1.0330
 2882TIP3   OH230204   3.654   2.161   1.337 -0.0447 -0.0664  0.3248
 2882TIP3    H130205   3.665   2.126   1.248  1.6157 -0.7034  0.7466
 2882TIP3    H230206   3.707   2.241   1.337  1.5473 -1.0599  1.2449
 2883TIP3   OH230207   2.405   4.630   2.121 -0.0195  0.4389 -0.5392
 2883TIP3    H130208   2.364   4.590   2.044  2.7598 -1.5064 -1.1620
 2883TIP3    H230209   2.489   4.663   2.089 -0.0133  2.1884  1.1223
 2884TIP3   OH230210   3.821   1.530   7.839 -0.0654  0.2693 -0.1011
 2884TIP3    H130211   3.907   1.536   7.797  0.3943  1.0640  0.9114
 2884TIP3    H230212   3.818   1.606   7.898 -1.1950 -0.1170  0.3614
 2885TIP3   OH230213   1.316   3.631   8.209  0.3676 -0.2880 -0.1843
 2885TIP3    H130214   1.240   3.688   8.226  0.9567  0.2229  0.8607
 2885TIP3    H230215   1.286   3.571   8.141 -0.0345  1.7387 -1.8967
 2886TIP3   OH230216   4.689   5.093   1.525 -0.3278 -0.2374  0.5886
 2886TIP3    H130217   4.622   5.157   1.549  0.9523  1.2076  0.4139
 2886TIP3    H230218   4.696   5.100   1.430  0.8979  0.4848  0.7205
 2887TIP3   OH230219   5.588   0.883   1.099 -0.2550 -0.3918  0.4187
 2887TIP3    H130220   5.498   0.854   1.117 -1.0580  2.4056  1.4638
 2887TIP3    H230221   5.643   0.812   1.132 -2.0139 -2.4957 -0.8545
 2888TIP3   OH230222   3.826   3.909   7.379  0.1011  0.0662  0.0874
 2888TIP3    H130223   3.897   3.971   7.366 -0.3897  0.5216 -0.4822
 2888TIP3    H230224   3.825   3.892   7.474  1.9010 -1.0889 -0.0441
 2889TIP3   OH230225   1.403   2.678   6.363  0.4653  0.1940  0.1287
 2889TIP3    H130226   1.432   2.713   6.448  1.4820 -0.2153 -0.0282
 2889TIP3    H230227   1.363   2.753   6.319  2.2284  1.1014 -0.0354
 2890TIP3   OH230228   4.898   1.620   2.620  0.6441 -0.2394  0.3881
 2890TIP3    H130229   4.980   1.657   2.653  0.5663  0.0137  0.2989
 2890TIP3    H230230   4.853   1.586   2.698  1.4590 -1.6318  0.2791
 2891TIP3   OH230231   4.952   0.371   7.463 -0.0811 -0.8730  0.3652
 2891TIP3    H130232   4.905   0.325   7.534  0.0837 -1.3111  0.1902
 2891TIP3    H230233   4.893   0.365   7.388  0.0232 -0.9669  0.2902
 2892TIP3   OH230234   3.745   2.467   7.920 -0.7541 -0.2223  0.0697
 2892TIP3    H130235   3.777   2.377   7.924 -0.9334 -0.2525  1.9625
 2892TIP3    H230236   3.801   2.516   7.981 -1.4866  0.6522  0.0683
 2893TIP3   OH230237   6.608   2.781   0.278 -0.1852 -0.5442  0.1890
 2893TIP3    H130238   6.611   2.776   0.182  1.1568 -0.8441  0.2231
 2893TIP3    H230239   6.623   2.691   0.306  1.1684 -0.1833  0.6818
 2894TIP3   OH230240   2.412   3.566   1.936  0.2586 -0.0552  0.5750
 2894TIP3    H130241   2.392   3.650   1.894  2.1626  0.2790  0.2435
 2894TIP3    H230242   2.332   3.515   1.927 -0.2416  0.9486 -1.1691
 2895TIP3   OH230243   1.335   4.443   7.488 -0.0181 -0.2026 -0.2249
 2895TIP3    H130244   1.398   4.490   7.542 -0.8107 -0.2729  0.7861
 2895TIP3    H230245   1.349   4.477   7.400  1.3828 -0.1723 -0.0142
 2896TIP3   OH230246   1.641   3.803   2.582 -0.0079  0.2794  0.5500
 2896TIP3    H130247   1.715   3.862   2.565 -0.7514  0.6995 -1.5486
 2896TIP3    H230248   1.564   3.858   2.567 -0.7154 -0.8864 -0.2590
 2897TIP3   OH230249   5.568   6.109   0.167  0.1265 -0.2803 -0.2223
 2897TIP3    H130250   5.642   6.140   0.114 -0.2683  1.7748  0.3188
 2897TIP3    H230251   5.504   6.078   0.103  0.5348  0.1194 -0.8393
 2898TIP3   OH230252   3.135   4.472   7.308  0.1620 -0.4956  0.6298
 2898TIP3    H130253   3.096   4.457   7.222 -0.1202  1.0060  0.4620
 2898TIP3    H230254   3.228   4.457   7.295  0.0945 -0.4718  0.1028
 2899TIP3   OH230255   0.627   3.507   7.012 -0.3950  0.6561  0.4270
 2899TIP3    H130256   0.576   3.482   6.935  0.1533 -0.5860  0.4339
 2899TIP3    H230257   0.567   3.499   7.086 -0.3037 -0.5666  0.4058
 2900TIP3   OH230258   6.457   5.630   2.619 -0.0937 -0.3261  0.2585
 2900TIP3    H130259   6.490   5.627   2.529  1.6919  0.7170  0.8117
 2900TIP3    H230260   6.374   5.677   2.613 -1.2500 -2.4142 -1.1273
 2901TIP3   OH230261   4.166   1.863   0.389 -0.5269  0.3562  0.0912
 2901TIP3    H130262   4.121   1.780   0.403 -1.3854  0.6517 -0.7999
 2901TIP3    H230263   4.208   1.883   0.472 -0.5885 -0.8047  0.4091
 2902TIP3   OH230264   4.180   2.596   2.270 -0.1335  0.0237  0.0138
 2902TIP3    H130265   4.149   2.563   2.354  2.2840 -0.2625  0.8569
 2902TIP3    H230266   4.199   2.688   2.285  0.6862 -0.1213 -0.0910
 2903TIP3   OH230267   4.287   3.089   7.164  0.8631 -0.0223  0.1065
 2903TIP3    H130268   4.308   3.027   7.094  0.9315 -0.0587  0.1588
 2903TIP3    H230269   4.194   3.108   7.153  1.1302  0.8971 -0.7493
 2904TIP3   OH230270   3.767   3.327   6.412  0.0691 -0.0497 -0.1141
 2904TIP3    H130271   3.824   3.260   6.449 -0.1598 -0.2691 -0.1570
 2904TIP3    H230272   3.679   3.301   6.438  0.1733  1.8618  2.5025
 2905TIP3   OH230273   5.111   4.733   8.146  0.0400 -0.0750 -0.5391
 2905TIP3    H130274   5.205   4.718   8.137  0.5962  2.6346 -0.0541
 2905TIP3    H230275   5.085   4.775   8.064 -0.1121  1.7404  0.3881
 2906TIP3   OH230276   2.253   6.018   7.498 -0.5920 -0.1755 -0.0712
 2906TIP3    H130277   2.229   5.939   7.451  2.8653 -1.8155  0.5840
 2906TIP3    H230278   2.247   6.088   7.433 -1.9902 -1.2326 -1.1460
 2907TIP3   OH230279   2.595   5.804   1.547  0.3403  0.0102 -0.7942
 2907TIP3    H130280   2.517   5.773   1.500 -0.0137  1.2395 -1.0442
 2907TIP3    H230281   2.647   5.725   1.560 -0.9483 -0.8510 -0.6102
 2908TIP3   OH230282   3.896   0.363   0.602  0.4348  1.3142 -0.3692
 2908TIP3    H130283   3.954   0.307   0.653  1.2967  1.3247 -1.3014
 2908TIP3    H230284   3.919   0.345   0.511 -1.0319  1.3260 -0.7695
 2909TIP3   OH230285   1.375   5.820   7.167 -0.7983  0.2927 -0.0830
 2909TIP3    H130286   1.432   5.897   7.172  1.8095 -1.4722 -0.8731
 2909TIP3    H230287   1.320   5.827   7.245  0.7028  1.9396  0.9311
 2910TIP3   OH230288   4.616   2.189   7.921 -0.4051 -0.4698  0.0300
 2910TIP3    H130289   4.553   2.148   7.862  1.4041 -1.3544 -1.4235
 2910TIP3    H230290   4.660   2.116   7.964 -1.4883  0.1658  2.3377
 2911TIP3   OH230291   6.986   4.280   7.552 -0.4838 -0.2469 -0.4088
 2911TIP3    H130292   7.064   4.225   7.556 -0.7741 -0.6420  3.2184
 2911TIP3    H230293   7.008   4.358   7.603 -1.1183  1.7320 -2.9293
 2912TIP3   OH230294   1.156   1.129   2.375 -0.1244 -0.3181  0.2956
 2912TIP3    H130295   1.089   1.063   2.363 -1.1468  0.8234 -0.5296
 2912TIP3    H230296   1.229   1.100   2.319 -0.7201 -0.5304 -0.3790
 2913TIP3   OH230297   1.217   2.409   2.522 -0.0598  0.5179  0.1679
 2913TIP3    H130298   1.159   2.414   2.446 -0.7428  1.8949  0.7365
 2913TIP3    H230299   1.182   2.336   2.574  0.4365 -0.4540 -0.8225
 2914TIP3   OH230300   2.701   4.757   2.289  0.0563 -0.4369  0.7051
 2914TIP3    H130301   2.713   4.844   2.326  1.3256 -0.7641  1.1205
 2914TIP3    H230302   2.666   4.705   2.361  0.4564 -0.5574  0.8132
 2915TIP3   OH230303   0.046   6.106   8.099 -0.0547  0.3083  0.2763
 2915TIP3    H130304   0.129   6.061   8.085 -0.1697  0.4122 -0.8562
 2915TIP3    H230305  -0.013   6.067   8.034  0.0617  2.6230 -1.3145
 2916TIP3   OH230306   5.405   1.550   7.701  0.2183  0.3054  0.3764
 2916TIP3    H130307   5.473   1.495   7.662 -0.0103 -0.3019  0.8322
 2916TIP3    H230308   5.448   1.594   7.774  0.7438  1.7121 -0.7213
 2917TIP3   OH230309   2.898   0.517   2.067  0.5283  0.6062  0.5717
 2917TIP3    H130310   2.838   0.465   2.013 -0.1559  1.0027  0.9381
 2917TIP3    H230311   2.967   0.544   2.006 -0.0847  0.8162 -0.0560
 2918TIP3   OH230312   6.219   5.179   0.038  0.6389 -0.3106  0.1309
 2918TIP3    H130313   6.197   5.115   0.105  0.4475 -0.7182 -0.3181
 2918TIP3    H230314   6.216   5.130  -0.044 -0.1758  0.4229 -0.2891
 2919TIP3   OH230315   6.724   3.798   6.855 -0.2257 -0.0829  0.1275
 2919TIP3    H130316   6.716   3.889   6.828  0.4491 -0.0017  0.1817
 2919TIP3    H230317   6.638   3.760   6.837 -1.2685  1.0978  2.1746
 2920TIP3   OH230318   5.558   6.738   0.332  0.2229 -0.1895  0.1740
 2920TIP3    H130319   5.488   6.692   0.286 -0.6431 -1.1321  2.2836
 2920TIP3    H230320   5.545   6.830   0.311 -1.2270 -0.4244 -0.0550
 2921TIP3   OH230321   0.084   4.624   1.918 -0.3219  1.3499  0.5777
 2921TIP3    H130322   0.165   4.614   1.868 -1.0067  0.0596 -0.3455
 2921TIP3    H230323   0.112   4.630   2.009  0.7858 -1.3176  0.5165
 2922TIP3   OH230324   1.213   2.373   6.831  0.9044 -0.2787 -0.6553
 2922TIP3    H130325   1.230   2.376   6.736 -1.9372  1.5856 -1.2604
 2922TIP3    H230326   1.230   2.463   6.861 -0.9230 -0.1004 -0.0315
 2923TIP3   OH230327   6.329   0.389   0.642 -0.8517 -0.0354 -0.0792
 2923TIP3    H130328   6.304   0.427   0.726  0.6077 -0.1917  0.4621
 2923TIP3    H230329   6.257   0.331   0.618 -1.4719  0.3388  0.8507
 2924TIP3   OH230330   0.016   0.296   7.388  0.2934  0.1926  0.9028
 2924TIP3    H130331   0.029   0.204   7.413  1.5233  0.1702  0.2453
 2924TIP3    H230332   0.011   0.294   7.292  1.0509  0.8860  0.8370
 2925TIP3   OH230333   5.368   2.450   8.149 -0.5238 -0.0344  0.1632
 2925TIP3    H130334   5.373   2.391   8.074 -1.2275 -0.7689  0.6777
 2925TIP3    H230335   5.287   2.426   8.194  0.3789 -0.2997  1.7158
 2926TIP3   OH230336   0.154   2.698   0.909 -0.8324  0.5317  0.1659
 2926TIP3    H130337   0.066   2.680   0.942 -0.5744 -0.0658  0.5503
 2926TIP3    H230338   0.211   2.642   0.962 -0.1309  1.5190  0.4893
 2927TIP3   OH230339   3.609   1.468   1.982 -0.2619 -0.0646 -0.2544
 2927TIP3    H130340   3.555   1.506   2.052  0.9955 -0.5638  1.0243
 2927TIP3    H230341   3.551   1.405   1.940 -0.5263 -1.0758  1.5212
 2928TIP3   OH230342   1.309   4.943   1.696 -0.4840 -0.2500 -0.2904
 2928TIP3    H130343   1.369   4.966   1.767 -0.9921 -2.6443  0.9949
 2928TIP3    H230344   1.338   4.857   1.667 -2.9281 -1.2282 -0.0108
 2929TIP3   OH230345   5.642   2.550   1.451  0.0642 -0.1475  0.2412
 2929TIP3    H130346   5.715   2.558   1.513  1.3020  1.6602 -1.3284
 2929TIP3    H230347   5.642   2.633   1.404  0.3501 -2.0340 -3.4064
 2930TIP3   OH230348   4.470   5.588   6.729  0.1988  0.1439  0.1040
 2930TIP3    H130349   4.491   5.629   6.646 -0.0011 -2.1354 -1.1447
 2930TIP3    H230350   4.548   5.538   6.752 -0.4022 -0.7313  0.3048
 2931TIP3   OH230351   0.289   5.157   8.218 -0.3589  1.4624  0.2926
 2931TIP3    H130352   0.328   5.071   8.201 -1.8525  0.5925  0.9784
 2931TIP3    H230353   0.277   5.159   8.313 -1.3479  1.9538  0.1736
 2932TIP3   OH230354   2.034   4.670   8.210 -0.3681 -0.1496  0.5552
 2932TIP3    H130355   2.020   4.756   8.248 -0.4422  0.1719 -0.1848
 2932TIP3    H230356   2.076   4.688   8.126  1.2620 -0.9065  1.1578
 2933TIP3   OH230357   4.941   2.728   1.506  0.0373  0.4179  0.9765
 2933TIP3    H130358   4.921   2.686   1.589 -4.3371  0.0513 -0.0010
 2933TIP3    H230359   4.952   2.656   1.445 -2.3265  0.5399  0.2963
 2934TIP3   OH230360   6.034   3.103   7.740  0.5286  0.3281  0.4692
 2934TIP3    H130361   5.994   3.180   7.702  2.4343  1.8605  1.3897
 2934TIP3    H230362   5.998   3.097   7.828  0.6605  0.3921  0.5276
 2935TIP3   OH230363   2.908   0.387   6.728  0.1183 -0.4593  0.0531
 2935TIP3    H130364   2.976   0.445   6.762 -0.2434  0.6341 -1.0362
 2935TIP3    H230365   2.839   0.446   6.700 -0.4598 -1.4589 -0.6455
 2936TIP3   OH230366   4.480   4.853   6.696  0.2726 -0.1811  0.3272
 2936TIP3    H130367   4.430   4.932   6.714  0.7890 -0.0620  1.2730
 2936TIP3    H230368   4.530   4.873   6.617 -0.2160  0.1316  0.0889
 2937TIP3   OH230369   3.607   6.585   1.816  0.2817  0.2504 -0.0967
 2937TIP3    H130370   3.540   6.652   1.831  2.4381  2.1919  1.7080
 2937TIP3    H230371   3.689   6.629   1.838  1.9708 -2.5812 -0.3234
 2938TIP3   OH230372   3.284   1.468   8.323  0.1525  0.0538  0.3184
 2938TIP3    H130373   3.254   1.408   8.392 -1.0870  1.3233  0.9220
 2938TIP3    H230374   3.374   1.489   8.347 -0.7435  1.7597  2.5511
 2939TIP3   OH230375   5.437   5.476   7.537 -0.5945 -0.1715  0.1058
 2939TIP3    H130376   5.430   5.490   7.443 -1.6577 -0.1543  0.1776
 2939TIP3    H230377   5.456   5.383   7.546 -2.5403 -0.6294 -0.0827
 2940TIP3   OH230378   5.810   4.013   7.832 -1.0701  0.2177  0.0585
 2940TIP3    H130379   5.807   4.063   7.751  1.2217  2.0446  0.9755
 2940TIP3    H230380   5.721   4.019   7.868 -1.3932  1.8397 -0.9217
 2941TIP3   OH230381   5.568   1.441   0.780 -0.0811 -0.3112 -0.0144
 2941TIP3    H130382   5.655   1.471   0.806  0.2471  0.4477 -1.8190
 2941TIP3    H230383   5.511   1.516   0.799 -0.1914 -0.4851  0.3474
 2942TIP3   OH230384   5.097   3.227   2.187  0.2129 -0.6459 -0.1102
 2942TIP3    H130385   5.021   3.170   2.195  0.8172 -1.3016  1.3544
 2942TIP3    H230386   5.092   3.285   2.263  2.2416 -2.0672  1.2025
 2943TIP3   OH230387   2.166   2.746   7.251  0.1785  0.1117 -0.6122
 2943TIP3    H130388   2.187   2.758   7.159 -1.2578 -1.3606 -1.1834
 2943TIP3    H230389   2.246   2.770   7.298  1.2713 -0.1103 -2.2925
 2944TIP3   OH230390   0.029   4.045   0.301  0.2404 -0.8899  0.1858
 2944TIP3    H130391   0.084   3.986   0.250  1.4536 -1.2666  1.8694
 2944TIP3    H230392  -0.038   3.988   0.339  0.4609 -0.9238  0.5250
 2945TIP3   OH230393   3.633   3.595   0.820  0.2457  0.5435  0.1844
 2945TIP3    H130394   3.643   3.502   0.799 -3.4311 -0.1342  0.7067
 2945TIP3    H230395   3.658   3.601   0.912 -1.5816 -0.4973  0.8119
 2946TIP3   OH230396   2.550   5.115   7.981  0.0057 -0.3269 -0.0659
 2946TIP3    H130397   2.589   5.050   7.923  2.0523  1.4907 -0.9029
 2946TIP3    H230398   2.532   5.190   7.924 -0.0331  0.7027  1.2378
 2947TIP3   OH230399   3.035   5.092   2.224 -0.1513 -0.1988 -0.4638
 2947TIP3    H130400   2.948   5.098   2.185 -0.5981 -0.1731  0.5127
 2947TIP3    H230401   3.077   5.175   2.201 -1.1833  0.7396  0.8840
 2948TIP3   OH230402   5.489   3.064   7.496  0.1099 -0.4064  0.5052
 2948TIP3    H130403   5.581   3.089   7.508  0.6529 -0.5707 -2.5348
 2948TIP3    H230404   5.492   2.993   7.432 -2.2433  0.7293 -0.9777
 2949TIP3   OH230405   6.690   5.619   0.326 -0.0914  0.3149  0.6916
 2949TIP3    H130406   6.664   5.691   0.269 -0.0139 -0.1335  0.0759
 2949TIP3    H230407   6.654   5.541   0.284  0.6344 -0.1060  0.8351
 2950TIP3   OH230408   4.592   6.208   2.175 -0.1224  0.4828 -0.5021
 2950TIP3    H130409   4.657   6.138   2.168 -1.1331 -0.4870 -0.5023
 2950TIP3    H230410   4.510   6.162   2.195 -0.9575  1.6046 -1.2527
 2951TIP3   OH230411   4.812   4.582   7.832  0.3484 -0.5527 -0.0555
 2951TIP3    H130412   4.866   4.538   7.898  1.2317  0.2531 -0.2170
 2951TIP3    H230413   4.740   4.522   7.815  0.6799 -1.2255  0.8823
 2952TIP3   OH230414   1.064   3.065   8.224 -0.2351 -0.0606  0.5853
 2952TIP3    H130415   1.065   3.048   8.318  1.4931 -0.6258  0.5144
 2952TIP3    H230416   1.052   2.978   8.184 -0.1230  0.0546  0.2961
 2953TIP3   OH230417   6.585   1.823   1.532 -0.8481  0.1301  0.2086
 2953TIP3    H130418   6.583   1.896   1.470 -0.9572 -0.2893 -0.2947
 2953TIP3    H230419   6.510   1.839   1.589 -0.9369  0.3522  0.0334
 2954TIP3   OH230420   1.420   5.243   6.356 -0.6705  0.2207  0.1449
 2954TIP3    H130421   1.497   5.193   6.384  1.0356  2.0128 -1.0697
 2954TIP3    H230422   1.378   5.187   6.290  1.1744  0.2902 -1.1680
 2955TIP3   OH230423   3.336   5.751   1.724  0.2166  0.1287  0.3427
 2955TIP3    H130424   3.301   5.809   1.791  1.6472  2.1691 -0.6033
 2955TIP3    H230425   3.304   5.787   1.641  0.1649 -1.1491 -0.2270
 2956TIP3   OH230426   5.861   2.334   1.796  0.1548 -0.1418 -0.0506
 2956TIP3    H130427   5.881   2.297   1.881 -0.5334  1.1056  0.6795
 2956TIP3    H230428   5.798   2.404   1.814  0.8734  0.9124 -1.4287
 2957TIP3   OH230429   3.894   3.784   8.203  0.0537 -0.0171 -0.1376
 2957TIP3    H130430   3.922   3.866   8.245 -2.9727  1.4534 -0.6907
 2957TIP3    H230431   3.927   3.715   8.261  0.7266  1.6837  1.6314
 2958TIP3   OH230432   3.512   3.441   7.610  0.1548 -0.1213 -0.2196
 2958TIP3    H130433   3.505   3.346   7.603  1.2201 -0.2427  0.2161
 2958TIP3    H230434   3.605   3.459   7.602 -0.0110  0.8612 -0.0268
 2959TIP3   OH230435   5.294   4.937   8.253 -0.2918  0.3140 -0.3862
 2959TIP3    H130436   5.388   4.951   8.262 -0.5135  2.4255 -0.9145
 2959TIP3    H230437   5.285   4.842   8.243  1.7944  0.0933 -0.6546
 2960TIP3   OH230438   1.200   4.193   7.123 -0.0429  0.1975  0.6174
 2960TIP3    H130439   1.254   4.272   7.118 -0.5241  0.5918  1.3176
 2960TIP3    H230440   1.117   4.224   7.162 -1.1551 -0.1874 -1.3247
 2961TIP3   OH230441   4.941   1.184   8.045 -0.0212  0.2549 -0.0851
 2961TIP3    H130442   4.973   1.109   8.096 -1.3519 -0.4943 -0.3236
 2961TIP3    H230443   5.008   1.196   7.977 -0.7098 -2.0006 -1.2816
 2962TIP3   OH230444   1.357   0.371   2.222 -0.4185  0.7133 -0.0643
 2962TIP3    H130445   1.324   0.294   2.269  0.6206  1.3992  1.9094
 2962TIP3    H230446   1.452   0.359   2.220 -0.3374  1.3838 -0.8174
 2963TIP3   OH230447   1.127   6.359   6.781 -0.2209  0.5480 -0.3954
 2963TIP3    H130448   1.171   6.356   6.866 -2.1455  0.8217  0.6853
 2963TIP3    H230449   1.192   6.328   6.718  0.5940 -1.7779  1.4657
 2964TIP3   OH230450   5.856   1.981   6.571 -0.8891 -0.5559  0.4263
 2964TIP3    H130451   5.927   2.043   6.554 -2.0742  0.6195 -0.5232
 2964TIP3    H230452   5.882   1.901   6.525 -1.5138  0.8394 -2.5919
 2965TIP3   OH230453   4.640   4.682   1.118 -0.2559 -0.1645  0.0524
 2965TIP3    H130454   4.615   4.590   1.114  1.8151 -0.7553 -0.7347
 2965TIP3    H230455   4.719   4.683   1.171 -0.5273  1.2509  0.4643
 2966TIP3   OH230456   0.247   2.740   6.418  0.4361  0.2025  0.4967
 2966TIP3    H130457   0.304   2.782   6.353 -0.8615 -0.9929 -1.5248
 2966TIP3    H230458   0.297   2.666   6.450  0.7326  0.2503  0.1463
 2967TIP3   OH230459   6.424   5.829   7.955 -0.1766  0.4623 -0.6514
 2967TIP3    H130460   6.465   5.897   7.901 -0.0894 -0.1061 -1.3098
 2967TIP3    H230461   6.340   5.813   7.912  0.0363 -0.2342 -0.8073
 2968TIP3   OH230462   5.648   3.293   7.170 -0.5562 -0.2595  0.0194
 2968TIP3    H130463   5.621   3.367   7.116 -0.4868  1.2361  1.9532
 2968TIP3    H230464   5.578   3.229   7.160 -0.4842 -0.1003 -1.8898
 2969TIP3   OH230465   1.213   1.689   2.092 -0.2715  0.3315 -0.0217
 2969TIP3    H130466   1.237   1.775   2.125  1.0119  0.5725 -1.4732
 2969TIP3    H230467   1.270   1.628   2.140 -0.6842  0.3569  0.5026
 2970TIP3   OH230468   0.313   1.719   0.005  0.0700 -0.4506 -0.0956
 2970TIP3    H130469   0.370   1.732  -0.070 -0.6407 -1.5279 -0.8452
 2970TIP3    H230470   0.246   1.788  -0.004  1.5876  1.2821  1.1856
 2971TIP3   OH230471   1.598   5.536   7.119  0.1002 -0.3099  0.4982
 2971TIP3    H130472   1.630   5.611   7.169  1.2908 -0.6552  0.2878
 2971TIP3    H230473   1.502   5.545   7.120  0.1693  0.5000  1.5585
 2972TIP3   OH230474   6.948   3.621   6.820  0.5199  0.3981  0.4906
 2972TIP3    H130475   6.895   3.544   6.795  2.7516 -0.0234 -4.0075
 2972TIP3    H230476   6.884   3.692   6.826 -1.1154 -0.9833  0.4536
 2973TIP3   OH230477   5.851   4.134   1.698 -0.3737 -0.1592  0.1086
 2973TIP3    H130478   5.852   4.158   1.790 -0.3187  0.2786 -0.0007
 2973TIP3    H230479   5.795   4.200   1.656  0.5732  0.3729 -0.3515
 2974TIP3   OH230480   6.299   3.721   2.296 -0.0325  0.0483 -0.8736
 2974TIP3    H130481   6.320   3.809   2.265  1.1632 -0.4162 -1.4136
 2974TIP3    H230482   6.364   3.664   2.256 -1.3573 -1.2355 -1.3137
 2975TIP3   OH230483   5.083   0.094   8.270 -0.4314  0.0281 -0.5324
 2975TIP3    H130484   5.155   0.046   8.230 -0.7454 -0.3735 -0.6170
 2975TIP3    H230485   5.024   0.116   8.198 -0.8120 -0.3750 -0.3474
 2976TIP3   OH230486   0.429   5.198   0.679 -0.2814  0.7287 -0.4978
 2976TIP3    H130487   0.411   5.112   0.718 -1.5291  0.6380 -1.2211
 2976TIP3    H230488   0.355   5.253   0.707 -0.4305  1.0605 -1.4962
 2977TIP3   OH230489   0.815   2.502   6.211 -0.1073  0.1367 -0.5914
 2977TIP3    H130490   0.726   2.469   6.224  0.5677 -0.7777  2.4909
 2977TIP3    H230491   0.804   2.597   6.207 -1.4444 -0.0262 -3.3788
 2978TIP3   OH230492   3.878   5.442   0.654  0.3650 -0.2480 -0.1745
 2978TIP3    H130493   3.862   5.524   0.608  1.4121  1.1166  1.7792
 2978TIP3    H230494   3.791   5.412   0.681  0.0801  0.9789  0.3315
 2979TIP3   OH230495   5.517   0.579   7.175 -0.0058  0.2473 -0.3868
 2979TIP3    H130496   5.465   0.560   7.253 -2.3102  1.9350 -1.3819
 2979TIP3    H230497   5.528   0.494   7.133 -1.0585 -0.3299  0.4368
 2980TIP3   OH230498   4.909   5.786   2.691  0.0126  0.5757 -0.7561
 2980TIP3    H130499   4.918   5.855   2.757 -0.7246 -2.3982  2.8230
 2980TIP3    H230500   4.998   5.770   2.660  1.0370 -0.2247  2.2604
 2981TIP3   OH230501   3.915   5.412   7.386 -0.2716  0.3618  0.7304
 2981TIP3    H130502   3.850   5.344   7.400  0.5564 -0.3197  1.4028
 2981TIP3    H230503   3.937   5.406   7.293 -1.3250  0.7674  0.4411
 2982TIP3   OH230504   5.133   3.809   7.802 -0.9070  0.0030  0.0755
 2982TIP3    H130505   5.203   3.744   7.810 -1.8673 -1.1020 -0.2229
 2982TIP3    H230506   5.062   3.776   7.857 -1.1662  1.1659  0.4714
 2983TIP3   OH230507   4.315   1.709   1.665 -0.6255 -0.8306 -0.0085
 2983TIP3    H130508   4.286   1.692   1.755  0.4390  2.3935  1.0657
 2983TIP3    H230509   4.405   1.739   1.674 -0.6616  0.0297 -2.0898
 2984TIP3   OH230510   2.010   2.287   2.645 -0.1051 -0.0628  0.0541
 2984TIP3    H130511   2.041   2.352   2.708 -1.1544  1.2076 -0.6892
 2984TIP3    H230512   1.962   2.223   2.697  0.2007  0.2220  0.6882
 2985TIP3   OH230513   1.007   4.459   7.228 -0.3049 -0.3590 -0.0246
 2985TIP3    H130514   1.050   4.466   7.142 -0.9907 -0.7834 -0.4098
 2985TIP3    H230515   1.075   4.424   7.285 -0.3224 -1.7343 -0.8033
 2986TIP3   OH230516   5.757   2.736   7.247  0.0954  0.3821 -0.2153
 2986TIP3    H130517   5.836   2.747   7.300  0.8323 -0.5130 -1.0804
 2986TIP3    H230518   5.716   2.656   7.280  0.8679 -0.5089 -1.3164
 2987TIP3   OH230519   6.480   5.197   6.863 -0.7468  0.0255 -0.0099
 2987TIP3    H130520   6.573   5.171   6.866 -0.5191  0.9386  2.3239
 2987TIP3    H230521   6.432   5.115   6.873 -0.1722 -0.2913  0.1853
 2988TIP3   OH230522   2.250   1.953   0.619  0.5066  0.4184 -0.4249
 2988TIP3    H130523   2.344   1.956   0.601  0.7463 -0.7170  0.4602
 2988TIP3    H230524   2.208   1.974   0.536  1.5339  1.9327 -0.5990
 2989TIP3   OH230525   0.796   5.297   8.305 -0.3236 -0.5221  0.8136
 2989TIP3    H130526   0.756   5.266   8.386 -1.6290 -1.2609 -0.0741
 2989TIP3    H230527   0.723   5.305   8.244  0.8904 -2.0977 -0.9357
 2990TIP3   OH230528   5.024   2.493   8.042  0.1609  0.5019  0.1298
 2990TIP3    H130529   4.954   2.545   8.002 -0.4433  0.5864  1.2662
 2990TIP3    H230530   5.048   2.540   8.121  1.2066  0.2313 -0.0091
 2991TIP3   OH230531   0.808   1.665   7.255 -0.5432  0.5336 -0.6418
 2991TIP3    H130532   0.780   1.747   7.214 -0.0765  1.2137  0.3331
 2991TIP3    H230533   0.889   1.688   7.301 -2.1649  0.4452  2.5251
 2992TIP3   OH230534   2.318   5.416   0.854  0.1729  0.0670  0.1393
 2992TIP3    H130535   2.369   5.490   0.888  1.3369 -0.0573 -1.2005
 2992TIP3    H230536   2.255   5.456   0.794  0.8173 -0.0072 -0.6023
 2993TIP3   OH230537   3.550   3.701   1.132  0.2244 -0.1364 -0.0551
 2993TIP3    H130538   3.480   3.731   1.074  0.7658 -0.5235 -0.9404
 2993TIP3    H230539   3.537   3.749   1.213 -1.1524 -0.3121 -0.1492
 2994TIP3   OH230540   5.444   4.714   2.722 -0.1554  0.1098 -0.0037
 2994TIP3    H130541   5.357   4.674   2.724  0.6388 -1.7302 -0.2409
 2994TIP3    H230542   5.430   4.798   2.677 -1.7179 -0.3746 -0.5083
 2995TIP3   OH230543   3.404   6.087   7.308  0.0069  0.1030  0.1783
 2995TIP3    H130544   3.368   6.176   7.300  1.0512  0.5921  0.7080
 2995TIP3    H230545   3.469   6.082   7.238 -0.6605 -0.5825 -0.4182
 2996TIP3   OH230546   4.573   5.011   7.108 -0.2894  0.6745  0.1589
 2996TIP3    H130547   4.580   5.101   7.076  0.1548  1.7472  2.9590
 2996TIP3    H230548   4.483   4.984   7.088  0.2521  0.7411 -2.8757
 2997TIP3   OH230549   0.989   5.611   6.973  0.9235  0.1920  0.2832
 2997TIP3    H130550   0.926   5.554   6.929  0.1610  1.4914 -0.3736
 2997TIP3    H230551   0.990   5.580   7.063 -2.6941  1.6994  1.0048
 2998TIP3   OH230552   2.320   3.056   6.642 -0.0862  0.0127 -0.4119
 2998TIP3    H130553   2.236   3.102   6.647 -1.1624 -1.8676 -0.2470
 2998TIP3    H230554   2.298   2.965   6.662  2.0584 -0.4698 -0.0803
 2999TIP3   OH230555   6.866   0.748   2.205  0.3559 -0.0250  0.1177
 2999TIP3    H130556   6.779   0.707   2.201  0.7987 -1.4517  2.6986
 2999TIP3    H230557   6.848   0.840   2.227 -0.5033 -0.2180  0.2530
 3000TIP3   OH230558   3.158   5.325   7.629  0.0820 -0.1611 -0.4480
 3000TIP3    H130559   3.247   5.318   7.596 -0.0010  0.9655 -0.9669
 3000TIP3    H230560   3.103   5.307   7.553 -0.1135  2.7483 -1.1096
 3001TIP3   OH230561   5.589   2.172   1.340 -0.7718  0.1491  0.2477
 3001TIP3    H130562   5.572   2.189   1.432 -0.7726 -1.3306  0.5359
 3001TIP3    H230563   5.684   2.182   1.330 -0.9801  2.4523 -0.0938
 3002TIP3   OH230564   0.064   5.349   0.652  0.7229  0.0726 -0.3382
 3002TIP3    H130565   0.070   5.444   0.638  2.2371  0.0974  0.2200
 3002TIP3    H230566  -0.024   5.335   0.687  0.8943  1.4650  0.7825
 3003TIP3   OH230567   4.267   0.877   8.194  0.2154 -0.1675 -0.6075
 3003TIP3    H130568   4.205   0.917   8.134  0.3898 -1.6193 -1.7871
 3003TIP3    H230569   4.251   0.922   8.278  0.6040  2.5577 -1.8805
 3004TIP3   OH230570   1.834   0.770   1.122  0.4411  0.2426  0.4877
 3004TIP3    H130571   1.916   0.805   1.158 -0.2354  0.4449  1.9446
 3004TIP3    H230572   1.833   0.798   1.031  2.5822 -0.8588  0.0662
 3005TIP3   OH230573   4.070   6.792   7.622 -0.4621 -0.1145  0.0879
 3005TIP3    H130574   4.024   6.858   7.568  0.2954  0.6997  0.4162
 3005TIP3    H230575   4.162   6.803   7.599 -0.2953 -0.8784  0.3727
 3006TIP3   OH230576   4.915   6.173   1.317  0.6409  0.6403 -0.2349
 3006TIP3    H130577   4.852   6.123   1.265  2.1831 -0.2498 -1.3451
 3006TIP3    H230578   4.888   6.265   1.306 -3.2314  0.1716  3.1485
 3007TIP3   OH230579   3.357   3.905   7.653 -0.0548 -1.2516 -0.8555
 3007TIP3    H130580   3.436   3.866   7.615  0.6624 -2.5390  1.7597
 3007TIP3    H230581   3.356   3.994   7.618  2.5577 -1.2029 -1.0045
 3008TIP3   OH230582   1.323   6.340   8.348  0.1632  0.0859 -0.2594
 3008TIP3    H130583   1.364   6.254   8.341 -0.6637 -0.3827  0.3681
 3008TIP3    H230584   1.350   6.386   8.269 -0.7832 -1.3675 -1.4846
 3009TIP3   OH230585   0.502   6.357   0.630  0.5224  0.2504 -0.3979
 3009TIP3    H130586   0.479   6.374   0.721 -0.3611 -0.7644 -0.4223
 3009TIP3    H230587   0.568   6.424   0.610  0.1496  0.9899  0.7308
 3010TIP3   OH230588   0.876   2.001   1.122  0.0395 -0.4396  0.2692
 3010TIP3    H130589   0.940   1.935   1.149  2.4860  2.4978  2.3336
 3010TIP3    H230590   0.797   1.981   1.172  2.1638  0.5960  4.4513
 3011TIP3   OH230591   5.724   3.541   1.348 -0.4381 -0.3797 -0.3780
 3011TIP3    H130592   5.710   3.491   1.428 -1.5420  0.7658  0.1689
 3011TIP3    H230593   5.817   3.533   1.330 -0.2899 -1.1385  0.6875
 3012TIP3   OH230594   2.856   0.680   0.212 -0.3827  0.7336 -0.5134
 3012TIP3    H130595   2.859   0.603   0.155 -1.1447  1.7271 -1.9338
 3012TIP3    H230596   2.768   0.680   0.249  0.5313 -0.7287  1.9404
 3013TIP3   OH230597   0.414   5.116   6.868 -0.0445 -0.6980  0.5758
 3013TIP3    H130598   0.325   5.152   6.870 -0.2965 -1.2370 -0.3145
 3013TIP3    H230599   0.441   5.127   6.777  0.6636 -0.8720  0.7630
 3014TIP3   OH230600   6.689   6.883   7.330  0.0232 -0.2067  0.1517
 3014TIP3    H130601   6.696   6.814   7.264 -0.7904 -0.3213  0.1762
 3014TIP3    H230602   6.779   6.897   7.359  0.1637 -1.5691  0.4638
 3015TIP3   OH230603   0.191   0.062   0.031 -0.4318 -0.5216  0.1363
 3015TIP3    H130604   0.150   0.121   0.094  0.5173  0.8674 -0.4626
 3015TIP3    H230605   0.267   0.112  -0.002  0.1845 -1.9393 -0.7020
 3016TIP3   OH230606   0.394   2.690   6.679 -0.0288  0.1574 -0.0603
 3016TIP3    H130607   0.315   2.742   6.691 -0.0677 -0.1665  1.2690
 3016TIP3    H230608   0.362   2.605   6.648 -0.4015 -0.4984  1.9347
 3017TIP3   OH230609   5.912   5.833   1.428 -0.2332  0.3201 -0.7834
 3017TIP3    H130610   5.940   5.842   1.518 -0.5494 -0.6505 -0.5684
 3017TIP3    H230611   5.816   5.842   1.431 -0.3445 -0.6828 -0.8623
 3018TIP3   OH230612   0.961   3.100   2.060  0.3961 -0.4290  0.2480
 3018TIP3    H130613   0.967   3.193   2.041  0.6219 -0.3920  0.4942
 3018TIP3    H230614   0.914   3.063   1.985  1.5200 -0.3313 -0.5278
 3019TIP3   OH230615   0.926   5.302   1.441 -0.8180 -0.1646  0.4274
 3019TIP3    H130616   0.858   5.323   1.505 -1.3806 -0.3627 -0.0891
 3019TIP3    H230617   1.001   5.276   1.493 -1.1969 -0.1107  1.0091
 3020TIP3   OH230618   1.854   6.678   7.762 -0.1620  1.0701  0.1545
 3020TIP3    H130619   1.883   6.653   7.850  0.1494 -0.1748 -0.2772
 3020TIP3    H230620   1.880   6.770   7.754  1.1930  0.7846  0.8203
 3021TIP3   OH230621   0.225   4.306   1.349 -0.1419 -0.1248 -0.7607
 3021TIP3    H130622   0.272   4.367   1.292  0.9232 -1.3324 -1.2253
 3021TIP3    H230623   0.223   4.350   1.434 -0.5028  1.0780 -1.3618
 3022TIP3   OH230624   3.017   3.495   6.366 -0.4522  0.2515  0.1118
 3022TIP3    H130625   3.069   3.452   6.434 -0.5930 -0.4392 -0.2100
 3022TIP3    H230626   3.066   3.575   6.346 -1.7290  1.8738  2.8778
 3023TIP3   OH230627   2.069   5.841   8.018 -0.2557 -0.3369  0.2556
 3023TIP3    H130628   2.155   5.807   7.992 -0.6561 -0.1711 -1.4200
 3023TIP3    H230629   2.086   5.893   8.096  0.9569 -1.3513  0.6979
 3024TIP3   OH230630   1.094   1.245   0.865  0.0376  0.2599  0.1222
 3024TIP3    H130631   1.166   1.184   0.877 -0.8823 -0.8262  0.2191
 3024TIP3    H230632   1.038   1.204   0.799 -1.4799  0.1471  1.4226
 3025TIP3   OH230633   1.288   5.690   2.285  0.3663 -0.8106  0.7475
 3025TIP3    H130634   1.297   5.754   2.356 -0.6317  0.9682 -0.6690
 3025TIP3    H230635   1.194   5.676   2.277 -0.0235  2.1585 -2.7493
 3026TIP3   OH230636   3.440   5.634   7.669  0.3373  0.2761 -0.1969
 3026TIP3    H130637   3.401   5.578   7.737 -0.8349 -0.8506 -1.7218
 3026TIP3    H230638   3.367   5.687   7.637 -0.0245 -1.5472 -2.7791
 3027TIP3   OH230639   1.632   4.201   2.035 -0.0884 -0.1073 -0.0717
 3027TIP3    H130640   1.619   4.106   2.030  0.7799 -0.2907  0.8028
 3027TIP3    H230641   1.727   4.212   2.037 -0.1832  0.7267  0.5988
 3028TIP3   OH230642   2.399   0.388   7.386 -0.3168  0.2777 -0.1347
 3028TIP3    H130643   2.393   0.306   7.338 -2.4981  0.5499 -0.3966
 3028TIP3    H230644   2.469   0.436   7.342  1.4063 -1.6203  0.3927
 3029TIP3   OH230645   4.018   6.368   2.465 -0.1256  0.0851 -0.4375
 3029TIP3    H130646   4.093   6.311   2.483  1.4749  2.0838 -0.4490
 3029TIP3    H230647   4.002   6.358   2.371 -1.7730 -2.4583  0.0081
 3030TIP3   OH230648   0.428   1.842   0.888  0.1329  0.4768 -0.0546
 3030TIP3    H130649   0.505   1.817   0.838  1.3731  2.3059  0.8491
 3030TIP3    H230650   0.354   1.805   0.839  1.4988 -0.5293 -1.4302
 3031TIP3   OH230651   3.943   1.416   1.478 -0.1240 -0.2662 -0.7489
 3031TIP3    H130652   4.010   1.421   1.546  0.6328  0.5705 -1.5374
 3031TIP3    H230653   3.868   1.464   1.515  1.1053  2.2920 -1.4027
 3032TIP3   OH230654   0.366   4.877   8.160 -0.3906 -0.3226  0.0152
 3032TIP3    H130655   0.272   4.899   8.155 -0.1306  0.9215  0.0942
 3032TIP3    H230656   0.391   4.860   8.070 -0.2603  1.4526 -0.3338
 3033TIP3   OH230657   3.642   4.859   1.136 -0.0401  0.4254 -0.1878
 3033TIP3    H130658   3.659   4.781   1.083 -2.4997 -1.4919  1.6160
 3033TIP3    H230659   3.724   4.873   1.184 -0.6114 -3.6790  2.4800
 3034TIP3   OH230660   5.170   2.933   2.148  0.1952  0.1224  0.6345
 3034TIP3    H130661   5.107   2.890   2.090  0.2757  0.4942  0.2698
 3034TIP3    H230662   5.127   3.014   2.175  0.2952  0.1131  0.8249
 3035TIP3   OH230663   6.609   0.029   2.100  0.2868 -0.3241  0.2169
 3035TIP3    H130664   6.687   0.075   2.068  0.4609 -1.1575 -0.5787
 3035TIP3    H230665   6.556   0.098   2.141  1.6129  0.1857  1.1342
 3036TIP3   OH230666   1.938   1.162   1.144 -0.1437  0.1299  0.2691
 3036TIP3    H130667   1.909   1.240   1.098  1.6961  0.6595 -0.0930
 3036TIP3    H230668   2.019   1.137   1.100 -0.4562 -1.7409  0.6646
 3037TIP3   OH230669   1.206   1.120   0.308 -1.0074 -0.0771 -0.2410
 3037TIP3    H130670   1.228   1.204   0.268  1.4340 -1.3325 -1.8218
 3037TIP3    H230671   1.239   1.126   0.397 -0.7371  0.5711 -0.3789
 3038TIP3   OH230672   0.867   4.805   7.552 -0.4497 -0.0958  0.1154
 3038TIP3    H130673   0.828   4.717   7.553 -0.0482 -0.2958 -0.7987
 3038TIP3    H230674   0.916   4.809   7.634  3.1821 -2.4693 -1.6609
 3039TIP3   OH230675   1.887   2.092   7.043  0.4294  0.0612  0.1323
 3039TIP3    H130676   1.854   2.012   7.084  1.2272 -0.3056  0.0962
 3039TIP3    H230677   1.911   2.066   6.954 -0.2545  0.5898 -0.2148
 3040TIP3   OH230678   1.280   0.801   2.151  0.1497 -0.5720  0.3422
 3040TIP3    H130679   1.297   0.895   2.140  0.1771 -0.6446 -0.2491
 3040TIP3    H230680   1.186   0.795   2.165  0.1118 -0.4792  0.1259
 3041TIP3   OH230681   3.399   4.447   7.428  0.1974 -0.0723 -0.3351
 3041TIP3    H130682   3.483   4.400   7.423  0.9538  1.2721 -0.8907
 3041TIP3    H230683   3.369   4.432   7.518  0.1267 -2.0213 -0.6354
 3042TIP3   OH230684   2.707   0.335   1.784  0.4160  0.4128  0.0572
 3042TIP3    H130685   2.712   0.276   1.859  0.5768 -1.3064 -1.2706
 3042TIP3    H230686   2.735   0.283   1.709  1.9738  2.5845 -0.9815
 3043TIP3   OH230687   0.311   2.636   7.518  0.0993  0.3785  0.3307
 3043TIP3    H130688   0.243   2.569   7.521  0.6031 -0.2196 -0.7834
 3043TIP3    H230689   0.313   2.673   7.606 -0.3911 -0.8730  0.8881
 3044TIP3   OH230690   6.017   6.296   8.224  0.8403 -0.6651 -0.0314
 3044TIP3    H130691   5.993   6.388   8.229 -0.2373 -0.8326 -1.5117
 3044TIP3    H230692   6.090   6.287   8.285  0.0586  0.8527  1.2097
 3045TIP3   OH230693   3.529   1.260   6.811  0.3129  0.5624  0.0488
 3045TIP3    H130694   3.498   1.248   6.721 -1.2830 -2.0125  0.8246
 3045TIP3    H230695   3.449   1.266   6.863  1.2053  1.3185  1.3892
 3046TIP3   OH230696   3.504   1.390   0.462 -0.3097 -0.0525  0.0333
 3046TIP3    H130697   3.429   1.341   0.496  0.6125 -1.2613  0.4037
 3046TIP3    H230698   3.550   1.421   0.540 -0.3170  0.5426 -0.1884
 3047TIP3   OH230699   3.240   2.004   6.434 -0.0087 -0.1540 -0.2431
 3047TIP3    H130700   3.181   1.998   6.359  0.7797 -0.0151 -0.8779
 3047TIP3    H230701   3.219   1.926   6.486 -0.0673 -0.6231 -0.9605
 3048TIP3   OH230702   0.670   3.849   8.018  0.6206  0.1826  0.4676
 3048TIP3    H130703   0.698   3.784   7.954 -3.8008 -1.0902 -0.4867
 3048TIP3    H230704   0.658   3.929   7.968 -0.3113 -0.1138  0.1940
 3049TIP3   OH230705   5.168   1.828   1.196 -0.2055 -0.3030  0.6485
 3049TIP3    H130706   5.096   1.847   1.255  0.2416  1.3547  0.6996
 3049TIP3    H230707   5.134   1.847   1.108  0.0779  0.2115  0.6486
 3050TIP3   OH230708   0.011   1.035   0.332 -0.5392 -0.0835 -0.2477
 3050TIP3    H130709   0.067   0.958   0.345 -1.6999 -1.0258 -0.6853
 3050TIP3    H230710  -0.007   1.067   0.421 -0.4025 -0.5790 -0.0403
 3051TIP3   OH230711   0.020   5.436   1.821  0.0779  0.0160  0.0638
 3051TIP3    H130712   0.014   5.423   1.916  0.8323 -1.3959 -0.0613
 3051TIP3    H230713   0.061   5.521   1.811 -1.9766  1.2068  0.9729
 3052TIP3   OH230714   4.462   2.629   6.966 -0.2355  0.2370 -0.3862
 3052TIP3    H130715   4.534   2.569   6.987  0.2212  0.8862 -0.0710
 3052TIP3    H230716   4.436   2.667   7.050 -1.4230 -0.5019 -0.3968
 3053TIP3   OH230717   4.589   0.148   0.020 -0.3077  0.0150  0.4692
 3053TIP3    H130718   4.546   0.062   0.018 -1.1126  0.4124  0.1096
 3053TIP3    H230719   4.523   0.208  -0.014 -0.2351  0.9905  1.9510
 3054TIP3   OH230720   5.077   2.458   7.285  0.1506 -0.4385  0.0274
 3054TIP3    H130721   5.135   2.406   7.340  1.4341 -0.1128 -0.9419
 3054TIP3    H230722   5.127   2.470   7.204 -0.1553  2.1038  0.1349
 3055TIP3   OH230723   5.092   4.033   7.432 -0.2731 -0.0040  0.4953
 3055TIP3    H130724   5.065   4.120   7.403  0.5686  0.2631  0.5030
 3055TIP3    H230725   5.009   3.987   7.448 -0.8062 -0.1756 -2.3284
 3056TIP3   OH230726   2.524   3.469   8.242 -0.0335 -0.5580 -0.1067
 3056TIP3    H130727   2.617   3.474   8.263 -0.5018  0.7990  1.9928
 3056TIP3    H230728   2.485   3.543   8.289 -2.2044 -1.1667 -0.8261
 3057TIP3   OH230729   1.592   3.382   0.556 -0.4520 -0.0019  0.0210
 3057TIP3    H130730   1.554   3.361   0.471 -0.6579 -0.2980  0.1844
 3057TIP3    H230731   1.556   3.467   0.578  1.3122  1.1227 -1.1949
 3058TIP3   OH230732   1.766   1.468   1.812 -0.5618 -0.1798 -0.0903
 3058TIP3    H130733   1.750   1.438   1.723 -1.0202 -0.0342 -0.0631
 3058TIP3    H230734   1.779   1.388   1.863  1.5692 -0.2246 -0.6020
 3059TIP3   OH230735   2.094   6.904   7.021 -0.5221 -0.0522 -0.0889
 3059TIP3    H130736   2.176   6.949   7.041 -1.3748  1.7656 -0.4897
 3059TIP3    H230737   2.041   6.970   6.976 -0.9119 -2.2109 -3.0661
 3060TIP3   OH230738   4.890   6.878   0.613 -0.1009  0.9215  0.0496
 3060TIP3    H130739   4.923   6.910   0.529 -0.0127  2.7989  0.7587
 3060TIP3    H230740   4.807   6.835   0.592  0.7297 -0.1694 -1.2002
 3061TIP3   OH230741   5.818   3.974   0.031 -0.0739  0.3154  0.2117
 3061TIP3    H130742   5.824   3.947  -0.061  0.4714  0.5275  0.1798
 3061TIP3    H230743   5.728   3.956   0.056 -0.4769  1.0915 -0.6327
 3062TIP3   OH230744   2.353   6.601   7.828 -0.2406  0.2636 -0.2545
 3062TIP3    H130745   2.399   6.544   7.766 -1.1831  0.3670 -1.0697
 3062TIP3    H230746   2.410   6.677   7.837  1.6266 -1.2154  1.7414
 3063TIP3   OH230747   2.285   6.200   0.151 -0.1692  0.6600 -0.3506
 3063TIP3    H130748   2.303   6.189   0.058 -0.5207  0.2642 -0.3709
 3063TIP3    H230749   2.264   6.112   0.183 -0.4739  0.8599  0.0128
 3064TIP3   OH230750   1.813   6.651   8.361  0.2362  0.4839 -0.4014
 3064TIP3    H130751   1.773   6.566   8.339  0.6995  0.4119 -0.9789
 3064TIP3    H230752   1.895   6.628   8.404  0.2095  0.6391 -0.2672
 3065TIP3   OH230753   1.127   6.356   2.055 -0.2706  0.3021  0.1156
 3065TIP3    H130754   1.144   6.335   2.146  1.0490  1.3997  0.1643
 3065TIP3    H230755   1.104   6.273   2.014  0.5780 -0.4502  1.1344
 3066TIP3   OH230756   0.652   3.939   1.298 -0.1743  0.2868 -0.0929
 3066TIP3    H130757   0.712   3.868   1.277 -0.0109  0.8028 -1.4442
 3066TIP3    H230758   0.581   3.897   1.346  0.6132 -0.5442  0.3687
 3067TIP3   OH230759   6.578   5.154   2.584 -0.3184  0.1445 -0.1381
 3067TIP3    H130760   6.556   5.242   2.615 -0.0667  0.6271 -1.2687
 3067TIP3    H230761   6.641   5.121   2.648 -1.2237  0.3518  0.8879
 3068TIP3   OH230762   2.628   2.681   0.659  0.3229 -0.6403  0.0455
 3068TIP3    H130763   2.705   2.653   0.708 -0.2188  0.8260  1.8668
 3068TIP3    H230764   2.638   2.640   0.573  2.5180 -1.4373  0.6059
 3069TIP3   OH230765   1.020   0.820   2.233  0.3183  0.3737 -0.8853
 3069TIP3    H130766   0.979   0.781   2.156  0.8246  1.6855 -1.8491
 3069TIP3    H230767   0.952   0.876   2.270 -0.3725 -1.2197  0.4393
 3070TIP3   OH230768   3.874   2.825   1.493 -0.1288 -0.4490 -0.1002
 3070TIP3    H130769   3.803   2.852   1.551 -1.2988 -1.2339 -1.1089
 3070TIP3    H230770   3.896   2.904   1.444  0.4073  0.0472  0.8982
 3071TIP3   OH230771   3.536   5.741   0.108  0.2230  0.6724  0.1337
 3071TIP3    H130772   3.555   5.684   0.034  0.5907 -1.0665  1.5018
 3071TIP3    H230773   3.455   5.786   0.083 -0.3777 -0.8522 -0.7887
 3072TIP3   OH230774   6.895   4.942   8.317  0.2345 -0.0856 -0.2235
 3072TIP3    H130775   6.968   5.002   8.332 -0.6465  0.9408  0.1145
 3072TIP3    H230776   6.856   4.930   8.404  0.4063 -1.1639 -0.2922
 3073TIP3   OH230777   6.554   5.180   7.874 -0.0617  0.7007 -0.3638
 3073TIP3    H130778   6.629   5.124   7.855  0.4499  0.8219  1.1205
 3073TIP3    H230779   6.531   5.158   7.964 -1.7003  0.8007 -0.7324
 3074TIP3   OH230780   2.050   1.515   7.326  0.1203 -0.7685  0.9578
 3074TIP3    H130781   2.004   1.510   7.242  0.9604 -3.2018  0.5646
 3074TIP3    H230782   2.143   1.514   7.302  0.3944 -3.1990  1.8959
 3075TIP3   OH230783   1.093   0.029   7.900  0.4664  0.0952  0.1691
 3075TIP3    H130784   0.998   0.035   7.906  0.5944  1.9580  1.1617
 3075TIP3    H230785   1.109  -0.044   7.840 -1.5860  0.2913 -0.6964
 3076TIP3   OH230786   1.928   1.603   0.146 -0.2349  0.6027 -0.5164
 3076TIP3    H130787   1.992   1.595   0.217  0.4103  1.0324 -1.0503
 3076TIP3    H230788   1.886   1.517   0.143 -0.5953  0.7088  0.6856
 3077TIP3   OH230789   2.490   6.364   8.323  0.1386 -0.0046 -0.1466
 3077TIP3    H130790   2.429   6.376   8.250 -0.4959  0.9023  0.5046
 3077TIP3    H230791   2.575   6.347   8.282 -0.3386 -0.1512 -1.0804
 3078TIP3   OH230792   0.687   4.123   0.074 -0.0994  0.2164 -0.1316
 3078TIP3    H130793   0.742   4.095   0.147 -0.1749 -1.3038 -0.6272
 3078TIP3    H230794   0.747   4.131  -0.000 -0.2437  0.3627 -0.2340
 3079TIP3   OH230795   0.422   3.837   1.926  0.7892 -0.3234 -0.0590
 3079TIP3    H130796   0.385   3.804   1.844 -0.0863  1.4649 -0.4187
 3079TIP3    H230797   0.515   3.846   1.908  0.9168 -1.7007 -0.2269
 3080TIP3   OH230798   3.674   4.215   7.799 -0.2594 -0.0498  0.4273
 3080TIP3    H130799   3.718   4.234   7.882  0.2389 -0.6782  0.3099
 3080TIP3    H230800   3.739   4.236   7.732 -1.1905  2.0375  0.0828
 3081TIP3   OH230801   0.027   3.290   7.928 -0.2280 -0.4443 -0.0345
 3081TIP3    H130802  -0.035   3.235   7.976  0.5601  0.0672  1.6398
 3081TIP3    H230803  -0.027   3.348   7.875 -1.3031  0.9525  2.4268
 3082TIP3   OH230804   6.258   1.050   8.264  0.4177  0.2672  0.7183
 3082TIP3    H130805   6.170   1.067   8.299  0.4520 -0.2186  1.0468
 3082TIP3    H230806   6.314   1.047   8.341  0.3838 -1.4907  0.7057
 3083TIP3   OH230807   1.534   1.221   6.857  0.7484 -0.0732 -0.2114
 3083TIP3    H130808   1.497   1.266   6.781  0.6755 -0.8570 -0.6492
 3083TIP3    H230809   1.604   1.280   6.887 -0.5891  1.2593  0.4205
 3084TIP3   OH230810   3.280   6.904   0.021  0.0273  0.0102  0.1543
 3084TIP3    H130811   3.283   6.932  -0.071  1.3926  1.9425  0.7210
 3084TIP3    H230812   3.223   6.968   0.063  0.0182 -0.4197  0.7997
 3085TIP3   OH230813   3.025   5.625   7.143 -0.0116 -0.5532  0.5173
 3085TIP3    H130814   3.053   5.586   7.060  1.4695  1.0379  0.1914
 3085TIP3    H230815   2.971   5.699   7.118  0.7864  0.1927  0.9203
 3086TIP3   OH230816   0.361   6.300   1.293 -0.6065  0.0293  0.2342
 3086TIP3    H130817   0.368   6.383   1.247 -1.3466  0.1874  0.3789
 3086TIP3    H230818   0.287   6.255   1.251  0.6930 -1.2066 -0.8111
 3087TIP3   OH230819   0.861   3.078   2.438 -0.5499  0.2932  0.3101
 3087TIP3    H130820   0.890   3.034   2.358 -1.4069 -1.0760  0.7114
 3087TIP3    H230821   0.936   3.069   2.498 -0.2709  0.4573 -0.0087
 3088TIP3   OH230822   6.586   0.685   0.403 -0.4734 -0.6122 -0.0208
 3088TIP3    H130823   6.538   0.674   0.485  0.1599 -1.3207  0.2674
 3088TIP3    H230824   6.623   0.774   0.409  1.1744 -1.3309  1.3602
 3089TIP3   OH230825   4.667   2.213   1.084 -0.4373 -0.0566  0.6187
 3089TIP3    H130826   4.762   2.196   1.084 -0.3171  0.5589  1.7840
 3089TIP3    H230827   4.629   2.134   1.122 -0.5070 -0.7407 -0.7838
 3090TIP3   OH230828   5.245   6.554   8.290  0.2497 -0.0913 -0.0823
 3090TIP3    H130829   5.154   6.542   8.261  0.1639 -1.0973  0.5605
 3090TIP3    H230830   5.287   6.469   8.273  1.0075  0.2847 -0.1299
 3091TIP3   OH230831   3.175   1.308   0.159 -0.4425  0.7338  0.9671
 3091TIP3    H130832   3.147   1.218   0.140  0.8810  0.7545 -1.4069
 3091TIP3    H230833   3.118   1.336   0.230 -1.8660 -1.4788  0.7917
 3092TIP3   OH230834   4.063   0.729   7.812 -0.0063  0.4568 -0.5630
 3092TIP3    H130835   4.117   0.808   7.811 -0.4975  0.7976 -0.5897
 3092TIP3    H230836   4.085   0.686   7.894 -1.1532  1.6296  0.3975
 3093TIP3   OH230837   2.665   3.619   1.355  0.2736  0.1113 -0.1817
 3093TIP3    H130838   2.633   3.709   1.363 -0.1829  0.2454 -2.5241
 3093TIP3    H230839   2.698   3.597   1.441 -3.6090  0.9411  1.7553
 3094TIP3   OH230840   5.002   1.044   0.062 -1.0137  0.2559  0.3581
 3094TIP3    H130841   5.064   0.972   0.053 -3.0573 -1.6496  0.6947
 3094TIP3    H230842   5.056   1.123   0.060  1.3520 -1.2801  0.2946
 3095TIP3   OH230843   2.912   3.258   0.754 -0.4361 -0.4404  1.1059
 3095TIP3    H130844   2.956   3.196   0.812 -0.0490 -0.7219  0.5187
 3095TIP3    H230845   2.856   3.310   0.812 -0.4276 -1.0426  1.6615
 3096TIP3   OH230846   3.485   4.665   0.286 -0.4714  0.2813  0.3671
 3096TIP3    H130847   3.506   4.582   0.329  0.8818  1.2743  1.7484
 3096TIP3    H230848   3.449   4.640   0.201  0.2559 -1.7013  0.5938
 3097TIP3   OH230849   2.823   3.179   2.964 -0.0477  0.1167 -0.3222
 3097TIP3    H130850   2.865   3.221   2.888 -0.5429 -0.8412 -1.1570
 3097TIP3    H230851   2.833   3.242   3.035  1.5574  0.5085 -0.8517
 3098TIP3   OH230852   4.921   4.511   0.570  0.5942 -0.4528 -0.5696
 3098TIP3    H130853   4.984   4.468   0.627  1.0652 -0.6180 -1.2122
 3098TIP3    H230854   4.950   4.492   0.482  0.3449  0.4985 -0.8758
 3099TIP3   OH230855   5.941   0.304   1.657 -0.3820 -0.0336 -0.2051
 3099TIP3    H130856   5.876   0.373   1.649  1.1941  1.3911 -1.2525
 3099TIP3    H230857   6.017   0.346   1.697  0.5204 -1.2349 -0.5754
 3100TIP3   OH230858   2.270   3.561   0.525 -0.0229 -0.0879 -0.6928
 3100TIP3    H130859   2.229   3.605   0.450  2.0716 -1.1585 -2.5797
 3100TIP3    H230860   2.335   3.624   0.556  0.2614 -0.3140 -0.8364
 3101TIP3   OH230861   3.595   0.608   1.849 -0.0417 -0.0375 -0.0677
 3101TIP3    H130862   3.681   0.620   1.809  0.4211 -0.6957  0.6924
 3101TIP3    H230863   3.582   0.687   1.901  0.8884 -0.6513  1.1710
 3102TIP3   OH230864   0.056   1.289   0.193 -0.4713  0.4217  0.1926
 3102TIP3    H130865   0.006   1.212   0.222  0.6979 -0.5533 -0.2509
 3102TIP3    H230866   0.140   1.280   0.237  0.5279  0.1464 -1.6442
 3103TIP3   OH230867   2.507   6.796   8.180 -0.4426 -0.6616 -0.2709
 3103TIP3    H130868   2.493   6.890   8.173  1.6656 -0.4007 -1.8121
 3103TIP3    H230869   2.600   6.784   8.165 -0.4098 -2.9148  1.1852
 3104TIP3   OH230870   2.613   2.780   2.027 -0.1144  0.3055 -0.2803
 3104TIP3    H130871   2.555   2.786   1.951 -0.0690 -0.5580 -0.3903
 3104TIP3    H230872   2.659   2.697   2.015  1.7565  1.3466 -0.6255
 3105TIP3   OH230873   6.499   6.169   8.343 -0.0407  0.0101  0.3398
 3105TIP3    H130874   6.416   6.214   8.324  0.2091  0.5561  0.5018
 3105TIP3    H230875   6.490   6.083   8.302 -1.4121 -0.6366  1.8927
 3106TIP3   OH230876   5.155   3.371   1.826 -0.3706 -0.2852 -0.3647
 3106TIP3    H130877   5.203   3.391   1.746 -0.1964 -0.1135 -0.2166
 3106TIP3    H230878   5.209   3.307   1.872  2.1515  3.2341  2.0869
 3107TIP3   OH230879   5.548   5.632   7.842  0.4568 -0.1213 -0.3624
 3107TIP3    H130880   5.595   5.670   7.915  0.6393  1.4424 -1.2576
 3107TIP3    H230881   5.547   5.700   7.775 -2.2145 -0.4250 -0.7595
 3108TIP3   OH230882   0.337   4.523   8.339  0.3568  0.4206 -0.4036
 3108TIP3    H130883   0.249   4.515   8.301  0.2605 -1.0513  0.0654
 3108TIP3    H230884   0.321   4.537   8.432  0.6217  1.3297 -0.4884
 3109TIP3   OH230885   3.189   1.405   1.597 -0.3698  0.3459  0.4583
 3109TIP3    H130886   3.271   1.356   1.609  0.0058  0.8343 -0.0309
 3109TIP3    H230887   3.199   1.482   1.654 -0.4743  0.4172  0.3795
 3110TIP3   OH230888   5.620   1.002   0.706  0.8802  0.2116 -0.0826
 3110TIP3    H130889   5.689   1.058   0.740  0.8851  1.4583 -1.9697
 3110TIP3    H230890   5.655   0.913   0.712  1.9160  0.6576  0.6245
 3111TIP3   OH230891   5.234   4.068   0.034  0.7117  0.1323  0.3620
 3111TIP3    H130892   5.228   4.032   0.123 -0.3164 -1.4009 -0.2841
 3111TIP3    H230893   5.214   4.161   0.045 -1.5526 -0.4101  1.5167
 3112TIP3   OH230894   5.360   2.686   1.626  0.1402  0.2286  0.6766
 3112TIP3    H130895   5.353   2.668   1.719 -2.4385 -1.9629  0.1789
 3112TIP3    H230896   5.274   2.720   1.601  0.9974  1.4467 -0.8332
 3113TIP3   OH230897   3.238   3.623   2.024  0.0074 -0.0537 -0.3235
 3113TIP3    H130898   3.268   3.555   2.084 -1.4875 -0.7781 -0.3372
 3113TIP3    H230899   3.147   3.599   2.005 -1.0632  2.6640  0.7851
 3114TIP3   OH230900   3.017   3.174   7.183  0.3771  0.6279  0.2711
 3114TIP3    H130901   3.002   3.267   7.169  0.5277  0.7226  0.7212
 3114TIP3    H230902   3.090   3.152   7.125  0.6804  0.9054  0.5433
 3115TIP3   OH230903   3.104   6.427   2.323  0.3792  0.2623  0.6943
 3115TIP3    H130904   3.144   6.466   2.400  0.0762  2.0023  0.0003
 3115TIP3    H230905   3.010   6.443   2.334  0.3664  0.8699 -0.2113
 3116TIP3   OH230906   4.253   3.714   0.388  0.2706 -0.5229 -0.6299
 3116TIP3    H130907   4.189   3.745   0.324 -0.8412  0.5144  0.9149
 3116TIP3    H230908   4.213   3.636   0.426 -0.9673  1.0373  1.5121
 3117TIP3   OH230909   1.909   3.512   7.595  0.6048 -0.2132  0.2716
 3117TIP3    H130910   2.002   3.518   7.614  0.3149 -1.8336  2.6672
 3117TIP3    H230911   1.872   3.462   7.668 -2.2556  0.8827 -0.2610
 3118TIP3   OH230912   0.431   0.242   1.085  0.0960  0.1436 -0.1550
 3118TIP3    H130913   0.426   0.335   1.106  0.5542  0.0623  0.3266
 3118TIP3    H230914   0.482   0.239   1.004 -1.5393  0.4418 -1.2403
 3119TIP3   OH230915   0.600   5.076   1.821  0.4952 -0.6167  0.0100
 3119TIP3    H130916   0.533   5.068   1.754 -0.7360 -0.8220  1.2379
 3119TIP3    H230917   0.683   5.071   1.772 -0.2519  3.0183 -2.0286
 3120TIP3   OH230918   4.067   1.521   7.709  0.3275  0.3824 -0.1994
 3120TIP3    H130919   4.129   1.593   7.694  0.1698  0.4847 -0.3639
 3120TIP3    H230920   4.123   1.445   7.729  0.5486  0.2724 -1.1673
 3121TIP3   OH230921   6.546   0.415   1.977  0.5490 -0.3497  0.0240
 3121TIP3    H130922   6.635   0.391   2.005  1.1519 -0.2386 -1.6806
 3121TIP3    H230923   6.519   0.344   1.919 -1.1849 -1.2302  1.7832
 3122TIP3   OH230924   2.301   4.129   7.724  0.0107  0.0730  0.5934
 3122TIP3    H130925   2.292   4.190   7.651 -0.2959  3.0055  2.9122
 3122TIP3    H230926   2.226   4.069   7.714  0.5621 -0.2984 -1.9886
 3123TIP3   OH230927   1.416   0.482   8.081  0.1841 -0.3648  0.1993
 3123TIP3    H130928   1.373   0.551   8.130  0.3063 -0.4878  0.4791
 3123TIP3    H230929   1.346   0.420   8.060 -0.1674  0.4313 -1.0958
 3124TIP3   OH230930   0.604   5.912   0.520 -0.3751  0.2327  0.2045
 3124TIP3    H130931   0.616   6.007   0.522  0.8226  0.1024  1.3132
 3124TIP3    H230932   0.535   5.896   0.584 -2.1575  0.4845 -1.5541
 3125TIP3   OH230933   0.305   4.487   7.502 -0.3041  0.2625 -0.0671
 3125TIP3    H130934   0.372   4.547   7.471  0.8959  1.5810  4.3257
 3125TIP3    H230935   0.232   4.544   7.529 -0.8758 -0.6262  0.3159
 3126TIP3   OH230936   1.764   1.756   2.273 -0.2728  0.0578  0.8154
 3126TIP3    H130937   1.818   1.822   2.316  1.4555 -1.5196  1.2026
 3126TIP3    H230938   1.741   1.695   2.344  2.1008 -2.2437 -0.2407
 3127TIP3   OH230939   2.611   3.628   7.977 -0.6106  0.8086  0.1193
 3127TIP3    H130940   2.634   3.561   8.041 -0.8315  0.5521 -0.0683
 3127TIP3    H230941   2.680   3.623   7.911 -0.4235  1.0225  0.2971
 3128TIP3   OH230942   6.473   6.107   1.288  0.5831  0.3506 -0.1595
 3128TIP3    H130943   6.534   6.055   1.236 -1.7046 -2.1113 -0.6109
 3128TIP3    H230944   6.457   6.054   1.366 -0.0274  1.5026  0.5193
 3129TIP3   OH230945   6.329   0.372   2.497  0.5270 -0.4996 -0.5071
 3129TIP3    H130946   6.272   0.297   2.515 -1.7624  1.0685 -0.7598
 3129TIP3    H230947   6.280   0.447   2.532  0.9243  1.3480 -3.6080
 3130TIP3   OH230948   5.319   0.484   7.815 -0.2781  0.4265  0.5345
 3130TIP3    H130949   5.413   0.485   7.798 -0.4046 -0.0680 -0.2124
 3130TIP3    H230950   5.279   0.468   7.729 -1.0890  1.6026  0.6563
 3131TIP3   OH230951   2.526   1.689   7.983 -0.1510 -0.0265  0.4652
 3131TIP3    H130952   2.444   1.737   7.993 -0.3062 -0.2161  0.1139
 3131TIP3    H230953   2.594   1.755   7.999 -0.3682  0.1423  0.7068
 3132TIP3   OH230954   2.283   5.267   6.789  0.2043  0.0395  0.0335
 3132TIP3    H130955   2.191   5.276   6.763 -0.0606  0.2830  1.0310
 3132TIP3    H230956   2.312   5.356   6.807  0.0757 -0.1999  1.5571
 3133TIP3   OH230957   5.822   0.976   1.658 -0.0385  0.4314  0.1430
 3133TIP3    H130958   5.749   0.965   1.598 -2.4620 -0.5716  3.0127
 3133TIP3    H230959   5.813   1.064   1.693 -0.1279  0.1769  0.7834
 3134TIP3   OH230960   4.731   0.964   0.048  0.2561  0.6675  0.1403
 3134TIP3    H130961   4.810   1.010   0.022 -0.4134  1.8056  0.0514
 3134TIP3    H230962   4.749   0.933   0.136  0.1543  2.5402  0.8632
 3135TIP3   OH230963   0.369   3.798   1.111 -0.0297 -0.4902  0.3161
 3135TIP3    H130964   0.418   3.870   1.072 -1.4462  1.5890  2.1599
 3135TIP3    H230965   0.416   3.719   1.084  1.2208  1.0323 -2.3281
 3136TIP3   OH230966   6.790   6.466   0.427  0.3382  0.1082  0.0736
 3136TIP3    H130967   6.877   6.453   0.465  0.7100  1.5363 -0.2504
 3136TIP3    H230968   6.733   6.482   0.502  0.5861  0.3450  0.2137
 3137TIP3   OH230969   6.238   0.088   7.793  0.0595  0.3595 -0.1683
 3137TIP3    H130970   6.282   0.172   7.783 -0.5981  0.6971 -0.2562
 3137TIP3    H230971   6.310   0.025   7.801  0.5587  0.9224 -0.0918
 3138TIP3   OH230972   1.825   0.386   0.137  0.2624 -0.1300 -0.0171
 3138TIP3    H130973   1.838   0.408   0.045  0.2433  1.3162  0.2965
 3138TIP3    H230974   1.882   0.311   0.153  2.5833  1.4381 -0.5026
 3139TIP3   OH230975   0.720   5.249   2.640  0.1843  0.0861 -0.1962
 3139TIP3    H130976   0.741   5.244   2.733 -1.6705  0.6516  0.3014
 3139TIP3    H230977   0.637   5.203   2.631  0.2120  0.2434 -1.5330
 3140TIP3   OH230978   1.517   4.462   1.509 -0.4730 -0.4450 -0.6185
 3140TIP3    H130979   1.477   4.395   1.563  0.5255 -0.9391 -0.4596
 3140TIP3    H230980   1.611   4.455   1.527 -0.2401  0.2330 -1.4544
 3141TIP3   OH230981   6.693   2.087   0.203 -0.1718  0.1411 -0.2824
 3141TIP3    H130982   6.773   2.076   0.254 -2.0281 -0.6283  2.7404
 3141TIP3    H230983   6.696   2.018   0.138  1.1931 -0.4999  0.4222
 3142TIP3   OH230984   4.266   0.335   7.976  0.0544  0.2638 -0.6106
 3142TIP3    H130985   4.247   0.357   7.885 -1.0374 -0.7184 -0.6482
 3142TIP3    H230986   4.182   0.344   8.021  0.8965  2.3371  0.6827
 3143TIP3   OH230987   4.725   3.287   0.622 -0.3030 -0.6939  0.2242
 3143TIP3    H130988   4.781   3.319   0.693  0.1706 -0.9257 -0.0342
 3143TIP3    H230989   4.763   3.326   0.543  0.1376 -1.6827 -0.0695
 3144TIP3   OH230990   1.606   1.147   0.788  0.2671 -0.1841 -0.4812
 3144TIP3    H130991   1.646   1.234   0.785 -2.4317  1.1466 -0.3927
 3144TIP3    H230992   1.572   1.139   0.877 -0.0850 -1.0817 -0.6795
 3145TIP3   OH230993   3.422   0.031   0.268  0.0628 -0.1198 -0.5173
 3145TIP3    H130994   3.419   0.116   0.312 -0.7363  0.7387 -2.1191
 3145TIP3    H230995   3.366  -0.025   0.321  0.5487  0.3444  0.5309
 3146TIP3   OH230996   4.847   0.862   6.921 -0.0625  0.1638 -0.5197
 3146TIP3    H130997   4.936   0.861   6.886 -0.2086 -1.6923 -0.9436
 3146TIP3    H230998   4.792   0.884   6.845  0.0441  2.1617 -0.0820
 3147TIP3   OH230999   3.491   6.958   0.724  0.3332 -0.1368  0.3307
 3147TIP3    H131000   3.578   6.970   0.686  0.2226 -0.7112 -0.1158
 3147TIP3    H231001   3.471   7.042   0.765  1.3008 -0.1470  0.8584
 3148TIP3   OH231002   3.792   0.813   0.561 -0.4865 -0.0584  0.4426
 3148TIP3    H131003   3.821   0.732   0.604  0.9406  0.1518 -0.0822
 3148TIP3    H231004   3.763   0.785   0.474 -2.5713 -0.3590  1.1710
 3149TIP3   OH231005   4.046   5.800   1.938 -0.1073 -0.0971  0.6107
 3149TIP3    H131006   3.963   5.795   1.985 -1.0840 -2.3710 -1.1732
 3149TIP3    H231007   4.069   5.709   1.919  0.1888  0.6078 -3.1786
 3150TIP3   OH231008   6.656   2.109   7.271  0.1415 -0.2487  0.0470
 3150TIP3    H131009   6.668   2.181   7.209 -0.9375 -0.9853 -1.0773
 3150TIP3    H231010   6.584   2.137   7.327 -0.2750 -0.4156 -0.3882
 3151TIP3   OH231011   5.566   1.781   8.201 -0.2724  0.3066 -0.6213
 3151TIP3    H131012   5.529   1.861   8.239 -0.7760  1.1412 -2.7506
 3151TIP3    H231013   5.492   1.721   8.194 -0.1424  0.0851 -0.1863
 3152TIP3   OH231014   2.508   5.367   7.839  0.4189  0.0063  0.0043
 3152TIP3    H131015   2.596   5.389   7.868 -0.0501 -0.4323  1.8306
 3152TIP3    H231016   2.452   5.434   7.879 -0.3245 -0.9919  0.6580
 3153TIP3   OH231017   1.140   3.658   0.346 -0.3895 -0.3477 -0.5649
 3153TIP3    H131018   1.100   3.615   0.270  0.1171 -1.1114 -0.4087
 3153TIP3    H231019   1.090   3.739   0.356 -1.4955 -0.9867 -0.7419
 3154TIP3   OH231020   3.358   5.205   1.204 -0.4599  0.2704  0.4738
 3154TIP3    H131021   3.428   5.269   1.187 -0.0138 -0.2610  0.2935
 3154TIP3    H231022   3.277   5.253   1.185 -0.1814  1.0542  1.1881
 3155TIP3   OH231023   6.611   3.051   1.087  0.4123  0.3964 -0.3766
 3155TIP3    H131024   6.650   3.046   1.174  1.2695  0.6267 -0.7371
 3155TIP3    H231025   6.569   2.966   1.074  1.3098 -0.0833 -0.2150
 3156TIP3   OH231026   1.229   2.359   2.139  0.2299  0.4022  0.2530
 3156TIP3    H131027   1.163   2.421   2.109 -0.2687 -0.1156  0.2590
 3156TIP3    H231028   1.180   2.293   2.188  0.7224 -0.1016  0.0813
 3157TIP3   OH231029   0.370   4.779   1.063 -0.1918 -0.6105  0.4658
 3157TIP3    H131030   0.336   4.857   1.108  2.1507  1.9259 -1.7623
 3157TIP3    H231031   0.412   4.728   1.133  0.4671  1.4718  1.6864
 3158TIP3   OH231032   0.717   4.099   7.404 -0.2786 -0.3285 -0.1048
 3158TIP3    H131033   0.782   4.082   7.336 -0.9539 -1.5910 -0.4655
 3158TIP3    H231034   0.633   4.087   7.361 -0.7322 -0.4171  0.7751
 3159TIP3   OH231035   3.384   1.099   0.736 -0.1493 -0.6551  0.9462
 3159TIP3    H131036   3.326   1.024   0.744  0.9661 -1.3935  2.9136
 3159TIP3    H231037   3.460   1.066   0.688  1.1583 -1.4235  3.3448
 3160TIP3   OH231038   4.500   0.530   8.104 -0.0895  0.4596  0.5591
 3160TIP3    H131039   4.490   0.616   8.064 -2.4055 -0.9759 -2.3479
 3160TIP3    H231040   4.568   0.487   8.052 -0.3794 -0.1340  0.6630
 3161TIP3   OH231041   0.223   4.734   2.188  0.0023  0.5204 -0.0775
 3161TIP3    H131042   0.169   4.657   2.208  1.6261 -0.6140  0.2190
 3161TIP3    H231043   0.174   4.808   2.225 -0.7986 -0.5869  1.1898
 3162TIP3   OH231044   1.299   1.932   0.371 -0.0444 -0.0608  0.3568
 3162TIP3    H131045   1.229   1.877   0.405 -2.9552  1.6280 -2.3349
 3162TIP3    H231046   1.294   2.012   0.423 -0.3316  0.1864 -0.0504
 3163TIP3   OH231047   2.615   5.018   0.060  0.0506  0.1140 -0.0438
 3163TIP3    H131048   2.689   4.966   0.027 -0.0619  0.4123 -0.7968
 3163TIP3    H231049   2.550   5.013  -0.010  0.9668  3.2670 -1.2770
 3164TIP3   OH231050   5.437   5.556   0.851 -0.1662  0.2315  0.2315
 3164TIP3    H131051   5.435   5.542   0.946 -2.1372 -1.9206 -0.0283
 3164TIP3    H231052   5.496   5.489   0.818  0.5968  1.0439 -0.1030
 3165TIP3   OH231053   5.053   0.838   1.799 -0.7569  0.0817  0.1756
 3165TIP3    H131054   5.088   0.811   1.883  2.4130 -1.3452 -1.4322
 3165TIP3    H231055   5.020   0.757   1.759 -1.4607  0.5973 -0.3262
 3166TIP3   OH231056   6.521   1.802   0.491  0.1264 -0.0339 -0.0221
 3166TIP3    H131057   6.545   1.774   0.580  1.1907  2.2253  0.4897
 3166TIP3    H231058   6.586   1.760   0.435  0.1261 -0.6072  0.3939
 3167TIP3   OH231059   1.511   0.594   7.833 -0.0914  1.0073  0.2399
 3167TIP3    H131060   1.607   0.588   7.829 -0.1670 -2.4907  0.8037
 3167TIP3    H231061   1.489   0.557   7.919 -1.9410  2.8916  0.6345
 3168TIP3   OH231062   3.363   5.183   0.696 -0.6328 -0.2148  0.0557
 3168TIP3    H131063   3.337   5.249   0.631  1.9426  1.0981  0.2188
 3168TIP3    H231064   3.310   5.203   0.773 -0.7519  0.9377 -0.3003
 3169TIP3   OH231065   1.452   2.335   6.459 -0.5046 -0.5339 -0.5293
 3169TIP3    H131066   1.408   2.258   6.424 -1.1973 -0.1439 -0.5408
 3169TIP3    H231067   1.525   2.300   6.510 -0.3854 -1.1644 -1.1126
 3170TIP3   OH231068   3.790   6.640   8.054  0.3626  0.3718 -0.2111
 3170TIP3    H131069   3.772   6.599   8.138  0.2724  1.7736  0.4839
 3170TIP3    H231070   3.862   6.589   8.017  2.3921  1.4326  2.0427
 3171TIP3   OH231071   2.714   0.783   8.268 -0.1882  0.0785 -0.2865
 3171TIP3    H131072   2.693   0.700   8.311  0.0492 -0.8449 -1.8600
 3171TIP3    H231073   2.630   0.829   8.262 -0.0884  0.6457  1.8931
 3172TIP3   OH231074   0.955   6.162   7.647 -0.0131  0.0337 -0.0692
 3172TIP3    H131075   0.982   6.254   7.645 -0.1613  0.0926  0.3825
 3172TIP3    H231076   0.904   6.150   7.568  1.0349  0.0132 -0.7586
 3173TIP3   OH231077   6.968   1.265   1.677  0.0910 -0.1068 -0.3158
 3173TIP3    H131078   6.925   1.225   1.752  0.2565 -0.1895 -0.2653
 3173TIP3    H231079   7.061   1.256   1.695  0.1709  2.2639  0.7721
 3174TIP3   OH231080   1.985   4.001   7.837 -0.4816 -0.6438  0.1987
 3174TIP3    H131081   1.942   3.917   7.854  0.3507 -1.1728 -0.2538
 3174TIP3    H231082   1.988   4.008   7.742 -0.5199 -0.1115  0.2325
 3175TIP3   OH231083   4.521   4.365   1.944 -0.6497  0.3728  0.5477
 3175TIP3    H131084   4.528   4.460   1.931  0.3017  0.3623  0.9207
 3175TIP3    H231085   4.551   4.351   2.034 -1.9301 -0.1572  0.9085
 3176TIP3   OH231086   3.880   1.173   7.866  0.1347 -0.1023 -0.4536
 3176TIP3    H131087   3.970   1.193   7.893  0.3687 -1.4847 -0.1567
 3176TIP3    H231088   3.889   1.122   7.786 -0.2656 -2.1682  0.7644
 3177TIP3   OH231089   0.766   0.165   0.058  0.2541  0.4738 -0.0198
 3177TIP3    H131090   0.737   0.201  -0.026 -0.2379  1.2055  0.4543
 3177TIP3    H231091   0.743   0.072   0.054  1.0027  0.3069 -1.0263
 3178TIP3   OH231092   3.346   3.424   2.201  0.3849  0.2360 -0.6679
 3178TIP3    H131093   3.419   3.394   2.256  0.3301  1.6501  0.2493
 3178TIP3    H231094   3.268   3.391   2.244  0.4163  0.1093 -0.7097
 3179TIP3   OH231095   6.470   4.304   1.958  0.1686 -0.1335 -0.1905
 3179TIP3    H131096   6.405   4.362   1.997  0.6918 -0.2683  0.9233
 3179TIP3    H231097   6.430   4.272   1.878  0.7473  3.6234 -2.1726
 3180TIP3   OH231098   2.192   1.709   1.614  0.1928 -0.0364  0.3671
 3180TIP3    H131099   2.225   1.620   1.625 -0.6018 -0.2860  0.8500
 3180TIP3    H231100   2.217   1.732   1.524 -0.1693 -1.0050 -0.0056
 3181TIP3   OH231101   6.775   4.603   1.248  0.4155 -0.3936 -0.2717
 3181TIP3    H131102   6.821   4.520   1.237 -0.1212 -0.4520 -2.4957
 3181TIP3    H231103   6.723   4.591   1.327  0.5062 -2.0893 -0.4320
 3182TIP3   OH231104   0.730   6.419   8.271  0.9648  0.2278 -0.3833
 3182TIP3    H131105   0.668   6.347   8.266 -0.4140  1.4301 -1.6270
 3182TIP3    H231106   0.815   6.379   8.256  0.3329 -1.2364 -0.2210
 3183TIP3   OH231107   3.534   1.254   0.186 -0.4300 -0.1961  0.1608
 3183TIP3    H131108   3.520   1.293   0.273  0.7555  0.5259  0.0466
 3183TIP3    H231109   3.628   1.237   0.182 -0.2342  1.0233 -1.4697
 3184TIP3   OH231110   0.589   4.509   7.756 -0.2857 -0.3703  0.8289
 3184TIP3    H131111   0.497   4.535   7.766 -0.0081  1.8236 -1.4407
 3184TIP3    H231112   0.627   4.525   7.843 -1.8341 -0.4145  1.5543
 3185TIP3   OH231113   3.225   6.832   7.671 -0.1335  0.3662  0.4703
 3185TIP3    H131114   3.142   6.878   7.685 -0.2340  0.9157 -1.6127
 3185TIP3    H231115   3.202   6.739   7.673 -0.8119  0.5175 -0.0879
 3186TIP3   OH231116   1.542   5.854   8.162 -0.5553  0.1235  0.1218
 3186TIP3    H131117   1.592   5.794   8.106 -0.7564  2.1447 -2.4255
 3186TIP3    H231118   1.477   5.798   8.205  1.1671 -1.9113  0.2555
 3187TIP3   OH231119   1.845   2.407   6.247  0.3213 -0.0308 -0.1371
 3187TIP3    H131120   1.867   2.489   6.291 -0.9567  0.1653  0.1602
 3187TIP3    H231121   1.759   2.423   6.207 -0.5328 -1.6154  0.9640
 3188TIP3   OH231122   3.999   6.606   1.776  0.8505 -0.0326 -0.4631
 3188TIP3    H131123   3.948   6.595   1.856  2.1055  0.2048  0.4058
 3188TIP3    H231124   4.085   6.567   1.797  1.2060  0.0441 -1.6908
 3189TIP3   OH231125   4.500   1.014   2.505  0.2559  0.4959 -0.0203
 3189TIP3    H131126   4.530   0.947   2.566 -1.8218  2.4913  3.5273
 3189TIP3    H231127   4.522   1.097   2.547  0.8628  2.1704 -3.2424
 3190TIP3   OH231128   1.569   1.654   7.724  0.4955 -0.6298 -0.4858
 3190TIP3    H131129   1.510   1.629   7.795  0.8145 -1.2909 -0.4521
 3190TIP3    H231130   1.532   1.735   7.690  1.3681  0.7933  1.6828
 3191TIP3   OH231131   2.194   1.367   8.299 -0.4184  0.3110 -0.4243
 3191TIP3    H131132   2.266   1.428   8.280  0.1757  0.0922  1.0191
 3191TIP3    H231133   2.229   1.281   8.279 -0.1388  0.1705  0.6443
 3192TIP3   OH231134   6.511   0.433   0.078  0.4200  0.2982 -0.1802
 3192TIP3    H131135   6.451   0.393   0.015  0.1402 -0.5931  0.6344
 3192TIP3    H231136   6.473   0.414   0.163  1.1536  0.9037  0.2962
 3193TIP3   OH231137   5.715   2.797   1.352  0.1330 -0.2651 -0.1744
 3193TIP3    H131138   5.676   2.884   1.346  0.8228  0.0019 -1.0347
 3193TIP3    H231139   5.795   2.810   1.402 -0.1760 -0.5651  0.4098
 3194TIP3   OH231140   0.084   3.697   2.213  0.1274  0.0648 -0.3175
 3194TIP3    H131141   0.041   3.670   2.294  0.7216 -0.2526 -0.1012
 3194TIP3    H231142   0.176   3.710   2.238 -0.0927  2.2170 -0.4202
 3195TIP3   OH231143   0.421   3.478   6.826  0.0739 -0.0333  0.0997
 3195TIP3    H131144   0.340   3.494   6.874  1.0158  0.2695  1.6511
 3195TIP3    H231145   0.407   3.519   6.741 -1.0689  0.7899  0.6601
 3196TIP3   OH231146   4.681   5.725   0.933  0.0373  0.0609  0.3877
 3196TIP3    H131147   4.620   5.742   0.862  1.2367  1.3144 -0.3815
 3196TIP3    H231148   4.767   5.720   0.891  0.7097  0.3121  1.6711
 3197TIP3   OH231149   0.132   3.546   7.941  0.1069 -0.1742 -0.0347
 3197TIP3    H131150   0.112   3.454   7.961 -0.3743  0.3101  1.8886
 3197TIP3    H231151   0.047   3.589   7.943  0.1042  0.0604 -2.6632
 3198TIP3   OH231152   4.911   5.591   8.012  0.1967  0.1649  0.0062
 3198TIP3    H131153   4.910   5.641   8.094 -1.8252  0.9915 -0.4604
 3198TIP3    H231154   4.954   5.509   8.034  1.2783  1.0733  1.4433
 3199TIP3   OH231155   4.818   1.802   7.248  0.9525  0.1495  0.4146
 3199TIP3    H131156   4.800   1.827   7.338  1.0145 -0.7965  0.6987
 3199TIP3    H231157   4.825   1.707   7.250  1.6853  0.1621 -0.4561
 3200TIP3   OH231158   6.787   1.176   1.522  0.9516  0.7034 -0.0629
 3200TIP3    H131159   6.867   1.184   1.574  1.5161 -0.6621 -0.6469
 3200TIP3    H231160   6.787   1.254   1.466  0.4600  2.0578  1.7399
 3201TIP3   OH231161   6.378   1.795   7.005 -0.8738  0.1199 -0.2953
 3201TIP3    H131162   6.430   1.796   6.925 -0.4929  0.6140 -0.0543
 3201TIP3    H231163   6.444   1.796   7.075 -1.1991  0.8851  0.0142
 3202TIP3   OH231164   2.517   4.237   1.592 -0.5589  0.2070  0.8113
 3202TIP3    H131165   2.469   4.196   1.664 -1.0953  0.1151  0.4139
 3202TIP3    H231166   2.608   4.213   1.606 -0.9365 -1.7198  0.2090
 3203TIP3   OH231167   4.379   6.823   7.588 -0.0962  0.4237 -0.1390
 3203TIP3    H131168   4.382   6.843   7.682 -0.2526  0.2215 -0.0930
 3203TIP3    H231169   4.354   6.731   7.583 -2.7127  1.0661 -0.4393
 3204TIP3   OH231170   1.565   2.707   1.818  0.1102 -0.5693 -0.1749
 3204TIP3    H131171   1.639   2.665   1.863  1.1145  0.9018 -0.3933
 3204TIP3    H231172   1.595   2.716   1.727  0.2793  1.3187  0.0242
 3205TIP3   OH231173   5.702   1.115   1.016  0.0879  0.5039  0.0368
 3205TIP3    H131174   5.619   1.163   1.022 -1.0927 -1.1590 -1.5346
 3205TIP3    H231175   5.680   1.027   1.048  1.5657  0.3526  0.6752
 3206TIP3   OH231176   2.053   5.955   7.698 -0.4216 -0.1907 -0.0318
 3206TIP3    H131177   2.108   5.963   7.776 -0.2084  0.4470 -0.2414
 3206TIP3    H231178   2.115   5.943   7.626 -0.5527  0.4423 -0.2581
 3207TIP3   OH231179   3.342   4.652   0.564  0.4027  0.3738  0.1821
 3207TIP3    H131180   3.368   4.730   0.516 -0.3267  1.9477  2.2041
 3207TIP3    H231181   3.407   4.644   0.634  0.4257 -0.8196  0.0501
 3208TIP3   OH231182   2.680   6.586   8.000  0.3958  0.3622  0.3861
 3208TIP3    H131183   2.690   6.631   8.084  1.4445  1.8836 -0.5087
 3208TIP3    H231184   2.745   6.515   8.003 -0.0576 -0.0363  1.1119
 3209TIP3   OH231185   2.583   0.644   0.223 -0.2540  0.0698 -1.0151
 3209TIP3    H131186   2.556   0.556   0.196 -0.2403 -0.8637  1.7635
 3209TIP3    H231187   2.503   0.697   0.217 -0.9918 -0.8745  0.0904
 3210TIP3   OH231188   4.187   4.469   1.529 -0.9183 -0.6905  0.5219
 3210TIP3    H131189   4.179   4.514   1.613 -0.8158 -0.8640  0.6251
 3210TIP3    H231190   4.221   4.535   1.469 -3.0236  0.0958  0.0712
 3211TIP3   OH231191   0.594   0.187   7.875  0.3054  0.1403 -0.3462
 3211TIP3    H131192   0.606   0.176   7.781 -0.9038  4.4474 -1.2397
 3211TIP3    H231193   0.499   0.188   7.887  0.4427 -0.1981  0.9150
 3212TIP3   OH231194   2.203   0.057   1.267  0.1161  0.5831 -0.4374
 3212TIP3    H131195   2.208   0.099   1.352  1.0317 -1.6283  0.6715
 3212TIP3    H231196   2.289   0.071   1.227  0.5233 -0.4201  0.0569
 3213TIP3   OH231197   6.663   3.016   1.354 -0.5078 -0.1724 -0.7470
 3213TIP3    H131198   6.603   3.080   1.393 -0.3162 -0.1263 -0.5295
 3213TIP3    H231199   6.746   3.031   1.397 -0.3636 -0.3111 -0.9733
 3214TIP3   OH231200   6.649   1.873   0.026 -0.2097 -0.6488  0.1252
 3214TIP3    H131201   6.612   1.796   0.070 -0.9539  0.5043  1.6083
 3214TIP3    H231202   6.574   1.930   0.010  0.4511  0.1818 -0.1008
 3215TIP3   OH231203   4.681   4.172   1.470 -0.1208 -0.2211 -0.8464
 3215TIP3    H131204   4.671   4.235   1.542 -1.4138  1.0328 -2.0784
 3215TIP3    H231205   4.776   4.163   1.460  0.0925 -0.1072  0.7227
 3216TIP3   OH231206   5.435   4.145   2.569 -0.6669  0.0316  0.4460
 3216TIP3    H131207   5.366   4.204   2.598  0.0117  0.3607  1.4462
 3216TIP3    H231208   5.511   4.169   2.622  0.2488 -0.2661 -0.6841
 3217TIP3   OH231209   3.062   4.083   1.027  0.2573  0.0282 -0.0463
 3217TIP3    H131210   3.128   4.036   1.078 -0.0792  0.6008  0.9614
 3217TIP3    H231211   2.989   4.022   1.019  0.1621  0.0617  0.5070
 3218TIP3   OH231212   4.483   6.968   6.681  0.1283  0.0764  0.6247
 3218TIP3    H131213   4.574   6.958   6.654  0.0543  0.8219  0.0645
 3218TIP3    H231214   4.487   7.022   6.760  0.0863  1.7146 -0.4369
 3219TIP3   OH231215   1.060   3.604   2.195 -0.0795  0.2677 -0.2464
 3219TIP3    H131216   1.146   3.580   2.160  0.2773  1.1414 -0.0032
 3219TIP3    H231217   1.049   3.550   2.272  1.4963  2.0491  1.3295
 3220TIP3   OH231218   5.627   0.025   2.052 -0.0081 -0.6056  0.0419
 3220TIP3    H131219   5.634   0.068   2.137  3.0595 -3.2087  1.3105
 3220TIP3    H231220   5.644   0.095   1.989 -1.7591  1.2717  1.4803
 3221TIP3   OH231221   2.670   6.623   1.346 -0.7564  0.4524 -0.4295
 3221TIP3    H131222   2.633   6.710   1.365  0.4741  0.9574 -0.2235
 3221TIP3    H231223   2.747   6.618   1.402 -0.3722 -0.4553 -1.0296
 3222TIP3   OH231224   4.285   1.911   1.460 -0.0377 -0.4027  0.2476
 3222TIP3    H131225   4.203   1.924   1.413  0.8390 -0.6633 -1.4184
 3222TIP3    H231226   4.259   1.862   1.539 -1.5723  0.2465  0.1807
 3223TIP3   OH231227   6.375   0.542   2.275 -0.6574 -0.0100 -0.6863
 3223TIP3    H131228   6.324   0.500   2.205 -1.3800 -0.0971 -0.1267
 3223TIP3    H231229   6.352   0.492   2.353 -1.7728  1.5797  0.0599
 3224TIP3   OH231230   3.230   3.806   7.316  0.2485  0.1661  0.1750
 3224TIP3    H131231   3.244   3.839   7.227 -2.5067  0.2045 -0.3201
 3224TIP3    H231232   3.152   3.852   7.347  0.1419 -1.1157  1.9646
 3225TIP3   OH231233   2.073   3.642   2.077 -0.4294 -0.1137 -0.1570
 3225TIP3    H131234   2.137   3.710   2.098 -1.9564  1.0357  1.0162
 3225TIP3    H231235   2.073   3.585   2.155 -1.2586  0.2510  0.1165
 3226TIP3   OH231236   4.013   1.214   7.378  0.1428 -0.2869 -0.4335
 3226TIP3    H131237   3.945   1.147   7.371  0.3168 -0.2930 -2.5262
 3226TIP3    H231238   3.970   1.288   7.420 -1.0751 -0.3977 -1.4547
 3227TIP3   OH231239   4.639   5.510   7.966  0.0578 -0.4944 -0.4028
 3227TIP3    H131240   4.724   5.486   8.001  0.3299 -0.4201 -1.0019
 3227TIP3    H231241   4.587   5.430   7.972 -0.5598 -0.0167  2.0155
 3228TIP3   OH231242   0.648   1.656   0.337 -0.6948 -0.1102  0.1158
 3228TIP3    H131243   0.577   1.609   0.294 -0.5854 -0.0099 -0.1746
 3228TIP3    H231244   0.617   1.668   0.427 -0.6572 -0.8793  0.2411
 3229TIP3   OH231245   4.184   3.826   0.897  0.3339 -0.1015  0.5660
 3229TIP3    H131246   4.247   3.754   0.889 -0.3234 -0.7483  1.0884
 3229TIP3    H231247   4.147   3.835   0.809  1.7659  0.8882  0.0143
 3230TIP3   OH231248   1.371   2.036   2.921  0.0003 -0.5387 -0.4276
 3230TIP3    H131249   1.431   2.086   2.866  0.4472  2.0511  2.1606
 3230TIP3    H231250   1.285   2.049   2.882  0.3785  0.6455 -0.9118
 3231TIP3   OH231251   1.664   4.974   7.125  0.0552 -0.1454  0.0609
 3231TIP3    H131252   1.752   4.945   7.147  0.0843 -2.0718 -2.1577
 3231TIP3    H231253   1.645   5.044   7.187  2.9505  0.0113  0.9025
 3232TIP3   OH231254   2.107   2.514   7.703 -0.0916 -0.0835  0.2023
 3232TIP3    H131255   2.090   2.498   7.796 -0.3198  0.1899  0.2051
 3232TIP3    H231256   2.184   2.460   7.684 -0.3508 -0.5364  0.4251
 3233TIP3   OH231257   1.260   6.317   2.670 -0.0161  0.2130  0.1961
 3233TIP3    H131258   1.188   6.260   2.696  0.3582 -0.1959  0.3364
 3233TIP3    H231259   1.312   6.265   2.609  0.7655  0.1210  0.9285
 3234TIP3   OH231260   6.209   0.058   1.335 -0.2635  0.2187  0.3370
 3234TIP3    H131261   6.180  -0.012   1.277  0.0347 -1.0085  1.6191
 3234TIP3    H231262   6.133   0.116   1.343 -0.7148 -0.2834 -0.2638
 3235TIP3   OH231263   0.316   5.105   2.096 -0.6882  0.0144  0.1470
 3235TIP3    H131264   0.349   5.024   2.056  1.9277  1.0056  0.1218
 3235TIP3    H231265   0.313   5.168   2.024  1.8780  1.1779  0.9287
 3236TIP3   OH231266   5.647   3.108   7.807  0.1315 -0.4158  0.1485
 3236TIP3    H131267   5.693   3.034   7.847  0.1944 -0.6439 -0.3350
 3236TIP3    H231268   5.717   3.163   7.773  0.0927 -0.0117  0.7076
 3237TIP3   OH231269   1.937   5.926   7.138  0.0700 -0.3854 -0.9192
 3237TIP3    H131270   1.930   6.004   7.193 -0.1825 -0.9471 -0.1307
 3237TIP3    H231271   1.939   5.959   7.048  0.2446  0.5377 -0.5807
 3238TIP3   OH231272   4.406   1.194   2.094  0.6006  0.6269  0.3485
 3238TIP3    H131273   4.492   1.188   2.135 -0.2228  1.2915  2.3082
 3238TIP3    H231274   4.345   1.167   2.163 -0.7084 -1.1628 -1.3922
 3239TIP3   OH231275   1.577   2.036   3.128  0.4127  0.0423  0.5319
 3239TIP3    H131276   1.562   2.107   3.191 -0.5429  1.0980 -0.8253
 3239TIP3    H231277   1.506   2.045   3.065  2.0945 -0.1163 -1.4824
 3240TIP3   OH231278   0.939   4.753   6.873  0.2369  0.2569  0.4267
 3240TIP3    H131279   0.945   4.660   6.853  0.9390  0.2177  0.7994
 3240TIP3    H231280   0.932   4.796   6.788  2.5779  0.0503  0.0792
 3241TIP3   OH231281   4.905   5.260   7.247  0.4022 -0.1689 -0.1853
 3241TIP3    H131282   4.981   5.233   7.196  1.4010 -1.4107  1.8070
 3241TIP3    H231283   4.939   5.328   7.306 -0.3862  0.2966 -0.2518
 3242TIP3   OH231284   2.590   1.600   1.472  0.4367  0.2212  0.4607
 3242TIP3    H131285   2.508   1.606   1.521  0.5003  0.2486  0.5648
 3242TIP3    H231286   2.637   1.527   1.513  0.1787 -0.2295 -0.0311
 3243TIP3   OH231287   3.246   1.855   7.175  0.2574 -0.1662  0.6047
 3243TIP3    H131288   3.278   1.855   7.085 -2.8326  0.1468 -0.6147
 3243TIP3    H231289   3.312   1.903   7.225  1.8737 -0.0465 -1.5384
 3244TIP3   OH231290   6.510   6.198   2.314  0.0921  0.1653  0.1479
 3244TIP3    H131291   6.433   6.180   2.367 -0.5387  1.5252 -0.2605
 3244TIP3    H231292   6.533   6.288   2.334  0.8988  0.1429 -0.5881
 3245TIP3   OH231293   6.358   1.574   0.395 -0.1698 -0.1769 -0.3962
 3245TIP3    H131294   6.368   1.657   0.442 -0.3739 -0.0368 -0.5962
 3245TIP3    H231295   6.414   1.584   0.318 -0.7519  0.0649 -0.7980
 3246TIP3   OH231296   3.249   3.056   0.732  0.3455 -0.4520 -0.4848
 3246TIP3    H131297   3.331   3.013   0.710  0.5403  0.0990 -0.8544
 3246TIP3    H231298   3.266   3.149   0.718 -0.2504 -0.3076 -0.2827
 3247TIP3   OH231299   6.420   4.817   0.514 -0.3102 -0.1098 -0.5249
 3247TIP3    H131300   6.372   4.739   0.486  1.0373 -1.4235  0.6113
 3247TIP3    H231301   6.468   4.845   0.436 -0.4460 -0.7022 -0.8236
 3248TIP3   OH231302   1.300   4.993   2.197 -0.4174 -0.4087 -0.8650
 3248TIP3    H131303   1.245   5.015   2.271  0.1493 -1.5826 -0.0563
 3248TIP3    H231304   1.390   4.998   2.231 -0.0933 -0.0497 -1.7309
 3249TIP3   OH231305   6.384   6.815   1.683 -0.4493  0.1442  0.1386
 3249TIP3    H131306   6.405   6.838   1.774 -0.4417 -1.0310  0.4520
 3249TIP3    H231307   6.317   6.879   1.657 -0.7732  0.2271  1.1243
 3250TIP3   OH231308   5.302   3.393   1.548  0.2369  0.4409  0.3094
 3250TIP3    H131309   5.275   3.374   1.458  3.2700 -0.8929 -0.4449
 3250TIP3    H231310   5.342   3.479   1.544 -0.7578  0.9466  0.7182
 3251TIP3   OH231311   5.688   2.397   0.220 -0.0912  0.2018 -0.5615
 3251TIP3    H131312   5.629   2.400   0.296 -1.4326  2.4689 -1.6132
 3251TIP3    H231313   5.633   2.420   0.146  1.3870 -1.1533 -2.1505
 3252TIP3   OH231314   2.557   3.170   6.691 -0.2170  0.0715 -0.2617
 3252TIP3    H131315   2.575   3.233   6.621  1.3823  0.6824  0.6526
 3252TIP3    H231316   2.475   3.127   6.664 -0.0272  0.7886 -2.1297
 3253TIP3   OH231317   4.389   2.409   0.171 -0.3138  0.1667 -0.3108
 3253TIP3    H131318   4.413   2.330   0.220 -1.2946 -0.2503 -0.4763
 3253TIP3    H231319   4.401   2.480   0.234  2.7560  0.2104 -0.8083
 3254TIP3   OH231320   5.601   4.554   2.897  0.5394  0.1034  0.3001
 3254TIP3    H131321   5.526   4.610   2.875  0.6625 -0.3452 -1.4235
 3254TIP3    H231322   5.676   4.614   2.893  0.7032 -0.1748 -1.8038
 3255TIP3   OH231323   1.369   0.883   7.553 -0.3605 -0.1090 -0.0839
 3255TIP3    H131324   1.434   0.949   7.576  1.3681 -1.4839 -0.7879
 3255TIP3    H231325   1.308   0.928   7.496  1.9928  0.4448 -2.3301
 3256TIP3   OH231326   0.078   6.078   1.485 -0.4557 -0.0439 -0.2369
 3256TIP3    H131327   0.044   6.095   1.397 -2.0103 -1.3078  0.0802
 3256TIP3    H231328   0.166   6.044   1.470  0.6767  2.9328 -1.1010
 3257TIP3   OH231329   5.062   1.630   0.219 -0.2421 -0.1819 -0.1794
 3257TIP3    H131330   5.075   1.620   0.313  0.5347 -2.7550 -0.4830
 3257TIP3    H231331   5.137   1.681   0.189 -1.6639  2.7132  0.8227
 3258TIP3   OH231332   0.925   1.540   6.262 -0.3089  0.6874 -0.6203
 3258TIP3    H131333   0.860   1.482   6.222 -1.3595 -0.9116  2.9855
 3258TIP3    H231334   0.876   1.619   6.285 -0.8661 -0.1705  1.3163
 3259TIP3   OH231335   6.455   0.229   2.241 -0.3150  0.3534 -0.8303
 3259TIP3    H131336   6.456   0.268   2.329 -1.4107  1.2095 -1.1687
 3259TIP3    H231337   6.464   0.304   2.182  1.1377 -0.2799 -1.4639
 3260TIP3   OH231338   4.865   2.279   2.201  0.4246  0.2412 -0.4254
 3260TIP3    H131339   4.904   2.198   2.171 -0.4042 -0.5408  0.5392
 3260TIP3    H231340   4.771   2.260   2.207  0.4278  0.6412  1.6743
 3261TIP3   OH231341   5.312   6.168   1.174 -0.1137 -0.0882 -0.8151
 3261TIP3    H131342   5.305   6.233   1.105 -0.4384 -0.3265 -1.0089
 3261TIP3    H231343   5.405   6.169   1.200  0.1777 -0.5453 -1.7871
 3262TIP3   OH231344   2.840   4.856   0.016  0.3608  0.4086  0.5711
 3262TIP3    H131345   2.847   4.852  -0.080  0.8038 -0.5910  0.6338
 3262TIP3    H231346   2.846   4.765   0.044 -2.0090  0.4467  1.4292
 3263TIP3   OH231347   3.760   0.481   1.331  0.3603 -0.3014 -0.1024
 3263TIP3    H131348   3.755   0.576   1.334  0.2290 -0.3280  0.7493
 3263TIP3    H231349   3.798   0.456   1.415 -0.4576 -1.0463  0.0655
 3264TIP3   OH231350   0.978   4.490   7.503 -0.2376 -0.3983 -0.2785
 3264TIP3    H131351   0.955   4.486   7.410  0.6977 -3.6874 -0.5122
 3264TIP3    H231352   0.895   4.510   7.547 -1.1183 -0.7322 -1.7128
 3265TIP3   OH231353   5.386   3.945   1.147 -0.0510 -0.2145  0.5591
 3265TIP3    H131354   5.460   3.998   1.119  1.4352 -1.9086  1.0978
 3265TIP3    H231355   5.425   3.875   1.199 -1.9384 -1.7748 -0.0204
 3266TIP3   OH231356   0.230   2.622   6.916  0.2681 -0.2186  0.0443
 3266TIP3    H131357   0.203   2.686   6.851  0.6541 -1.5823 -1.5330
 3266TIP3    H231358   0.322   2.641   6.932  0.2339 -0.0239  0.0040
 3267TIP3   OH231359   1.302   1.216   7.781  0.0966 -0.1598 -0.0917
 3267TIP3    H131360   1.397   1.227   7.780 -0.0450  1.2842 -1.3774
 3267TIP3    H231361   1.283   1.166   7.701 -0.2183 -0.4286  0.1496
 3268TIP3   OH231362   5.872   2.776   1.106  0.5300  0.3390  0.1724
 3268TIP3    H131363   5.865   2.869   1.083 -2.2769 -0.0791 -1.0196
 3268TIP3    H231364   5.826   2.769   1.190 -1.2997 -0.2882 -0.8477
 3269TIP3   OH231365   2.479   2.807   6.864 -0.2649 -0.5162 -0.8139
 3269TIP3    H131366   2.546   2.867   6.832  1.1424 -1.8562 -0.5063
 3269TIP3    H231367   2.464   2.747   6.792 -1.2989 -0.1225 -0.9455
 3270TIP3   OH231368   0.819   4.580   1.453  0.3953  0.4525  0.2439
 3270TIP3    H131369   0.739   4.536   1.422  1.5920 -1.6674 -0.0620
 3270TIP3    H231370   0.840   4.535   1.535  2.3665 -0.5288 -0.7196
 3271TIP3   OH231371   6.162   2.975   6.649 -0.1928  1.2952 -0.3876
 3271TIP3    H131372   6.205   2.906   6.700 -1.1153 -0.9915 -2.4948
 3271TIP3    H231373   6.094   3.009   6.706  0.2621  0.4419  0.6987
 3272TIP3   OH231374   5.876   1.106   0.807 -0.0690  0.3117 -0.2123
 3272TIP3    H131375   5.816   1.105   0.882  0.1675 -1.5542 -0.0087
 3272TIP3    H231376   5.942   1.041   0.828  0.4106  0.2685 -1.7346
 3273TIP3   OH231377   3.206   0.406   7.426 -0.5441 -0.5182 -0.8909
 3273TIP3    H131378   3.232   0.345   7.495 -0.9616 -0.9238 -1.0872
 3273TIP3    H231379   3.288   0.431   7.383 -0.1019  0.8659  0.6604
 3274TIP3   OH231380   3.874   2.687   0.754  0.2266 -0.1394  0.1781
 3274TIP3    H131381   3.948   2.743   0.777  1.4498 -0.6438 -2.2847
 3274TIP3    H231382   3.847   2.717   0.667 -1.1555 -1.3217  0.1560
 3275TIP3   OH231383   1.412   1.070   1.894 -0.3121 -0.1094  0.0059
 3275TIP3    H131384   1.404   1.165   1.901  1.5695  0.1305 -0.6264
 3275TIP3    H231385   1.325   1.037   1.917 -0.8016  1.7143  0.9525
 3276TIP3   OH231386   1.323   2.595   7.550  0.1196  0.0712 -0.1412
 3276TIP3    H131387   1.235   2.634   7.548 -0.7821 -1.8528  0.0256
 3276TIP3    H231388   1.358   2.619   7.636 -0.5165  0.2614  0.0736
 3277TIP3   OH231389   3.332   5.433   7.253  0.0576  0.6420  0.0325
 3277TIP3    H131390   3.267   5.364   7.249  0.0789  0.5869  0.6820
 3277TIP3    H231391   3.388   5.417   7.177 -0.3912  0.4044 -0.2525
 3278TIP3   OH231392   6.108   3.602   0.524 -0.4438 -0.3408  0.0307
 3278TIP3    H131393   6.098   3.568   0.613  2.0843  1.9657  1.3590
 3278TIP3    H231394   6.196   3.574   0.497 -1.9254 -2.8889 -2.7853
 3279TIP3   OH231395   1.976   6.306   2.242  0.2370 -1.0451 -0.7106
 3279TIP3    H131396   1.932   6.384   2.276 -0.0617 -1.5020 -0.0330
 3279TIP3    H231397   1.906   6.252   2.208  0.3405 -1.4442 -0.3044
 3280TIP3   OH231398   6.356   1.111   7.419 -0.6396 -0.0879  0.3096
 3280TIP3    H131399   6.399   1.128   7.503 -1.7571 -0.7070  1.0317
 3280TIP3    H231400   6.370   1.190   7.368  1.1182 -0.1813  0.6111
 3281TIP3   OH231401   4.765   3.273   2.802 -0.0706  0.2911  0.2427
 3281TIP3    H131402   4.769   3.369   2.807  0.2908  0.3349 -0.6574
 3281TIP3    H231403   4.809   3.252   2.719 -1.0658 -0.5870 -0.0762
 3282TIP3   OH231404   5.957   0.833   8.177 -0.3000 -0.3811 -0.1249
 3282TIP3    H131405   5.952   0.895   8.250  1.1713 -2.9201  2.3160
 3282TIP3    H231406   5.915   0.754   8.209  0.1328 -1.5101 -2.1639
 3283TIP3   OH231407   5.396   3.205   1.232 -0.2022  0.0541  0.3363
 3283TIP3    H131408   5.319   3.148   1.241  0.1322 -0.1191  2.6551
 3283TIP3    H231409   5.361   3.294   1.239 -0.2135 -0.0270  1.4900
 3284TIP3   OH231410   0.343   4.643   1.794 -0.5655 -0.0152 -0.8699
 3284TIP3    H131411   0.284   4.658   1.720 -0.3612  0.2708 -0.9813
 3284TIP3    H231412   0.428   4.628   1.753 -0.6528 -0.9484 -0.7300
 3285TIP3   OH231413   5.716   3.720   1.986  0.4642 -0.0731  0.2070
 3285TIP3    H131414   5.752   3.776   1.917  0.7234  0.1131  0.4871
 3285TIP3    H231415   5.788   3.661   2.009  0.0488 -0.8346 -0.4032
 3286TIP3   OH231416   6.923   0.323   1.417 -0.5566 -0.1357  0.0570
 3286TIP3    H131417   6.905   0.278   1.335 -2.5686 -1.7967  1.3228
 3286TIP3    H231418   6.837   0.345   1.452  0.1927 -0.3144  2.1410
 3287TIP3   OH231419   0.527   5.919   1.254  0.0076  0.2777  0.1310
 3287TIP3    H131420   0.528   5.972   1.334 -0.7950 -1.5041  1.3866
 3287TIP3    H231421   0.593   5.960   1.198 -0.2815  2.3268  1.1789
 3288TIP3   OH231422   2.416   2.019   0.109 -0.0381  0.3187  0.5151
 3288TIP3    H131423   2.323   2.037   0.100 -0.1197  0.0289  0.7642
 3288TIP3    H231424   2.421   1.928   0.139  0.3767 -0.2876 -1.2459
 3289TIP3   OH231425   5.426   2.630   7.296 -0.3627 -0.2552 -0.2073
 3289TIP3    H131426   5.506   2.578   7.299  1.6665  2.6214 -0.4650
 3289TIP3    H231427   5.399   2.638   7.387 -1.0847 -2.1649 -0.2060
 3290TIP3   OH231428   3.520   3.771   0.536  0.3281  0.0682 -0.0733
 3290TIP3    H131429   3.489   3.681   0.526 -0.4654  0.4064 -0.7589
 3290TIP3    H231430   3.448   3.825   0.504  1.0312  0.9304 -0.2411
 3291TIP3   OH231431   3.640   0.907   8.226  0.2688 -0.3300 -0.0631
 3291TIP3    H131432   3.576   0.863   8.170 -3.3823  1.8523  1.9990
 3291TIP3    H231433   3.611   0.998   8.229  2.3253  0.3742  2.6176
 3292TIP3   OH231434   0.300   4.238   7.581 -0.0135  0.2096  0.6024
 3292TIP3    H131435   0.318   4.331   7.567 -0.3522  0.4495  1.7204
 3292TIP3    H231436   0.281   4.204   7.493  1.0450  0.9796  0.0521
 3293TIP3   OH231437   4.838   0.849   0.896  0.3178 -0.3035  0.4955
 3293TIP3    H131438   4.755   0.862   0.850 -0.7312 -1.3456  1.9981
 3293TIP3    H231439   4.900   0.905   0.849 -1.7074  2.2882  0.6777
 3294TIP3   OH231440   0.723   6.187   7.816  0.9409  0.1180  0.0531
 3294TIP3    H131441   0.726   6.167   7.722  0.8115  1.5393 -0.2875
 3294TIP3    H231442   0.815   6.187   7.843  1.5189  4.0163 -1.1522
 3295TIP3   OH231443   1.696   1.775   1.648  0.0207 -0.4287 -0.8143
 3295TIP3    H131444   1.670   1.844   1.587  1.4745  0.7010 -0.2152
 3295TIP3    H231445   1.755   1.719   1.597  0.9119  0.2813 -0.5761
 3296TIP3   OH231446   3.078   5.732   6.782 -0.5868  0.0674 -0.5819
 3296TIP3    H131447   3.165   5.708   6.749 -0.9091 -0.3107 -1.1723
 3296TIP3    H231448   3.073   5.827   6.769 -0.1823  0.1278 -0.3343
 3297TIP3   OH231449   5.569   6.782   1.458 -0.5281  0.7373  0.4563
 3297TIP3    H131450   5.624   6.858   1.476  1.3311  0.3766 -2.8748
 3297TIP3    H231451   5.605   6.713   1.515 -0.5945  1.6407  1.6417
 3298TIP3   OH231452   0.437   2.611   8.055 -0.2786 -0.7371 -0.0481
 3298TIP3    H131453   0.396   2.694   8.032  0.8425  0.1135  0.8822
 3298TIP3    H231454   0.523   2.614   8.013 -0.2142 -1.4095  0.0187
 3299TIP3   OH231455   0.278   0.802   7.623 -0.0418 -0.3253 -0.1143
 3299TIP3    H131456   0.189   0.828   7.647  1.2015  3.3934  1.1314
 3299TIP3    H231457   0.280   0.808   7.527 -1.4664 -2.1025 -0.3201
 3300TIP3   OH231458   1.789   2.517   1.209 -0.4946 -0.3931  0.4484
 3300TIP3    H131459   1.734   2.506   1.131  0.7571 -0.9169 -0.3834
 3300TIP3    H231460   1.799   2.429   1.243  1.4738 -0.6150 -0.5850
 3301TIP3   OH231461   1.470   5.867   0.214  0.1479 -0.2964  0.3462
 3301TIP3    H131462   1.506   5.896   0.298  0.4586  0.8138 -0.1422
 3301TIP3    H231463   1.381   5.839   0.235  0.0852  0.3308  0.9994
 3302TIP3   OH231464   2.809   1.922   1.027 -0.4557  0.0005 -0.3646
 3302TIP3    H131465   2.830   1.970   0.946  0.7589  2.8225  1.4647
 3302TIP3    H231466   2.717   1.896   1.015 -0.7547  1.5806 -2.0936
 3303TIP3   OH231467   1.437   2.406   7.424  0.2632 -0.5900 -0.5118
 3303TIP3    H131468   1.406   2.326   7.468 -0.7465  0.1487  0.1797
 3303TIP3    H231469   1.407   2.477   7.481  0.3875  0.3253 -1.5618
 3304TIP3   OH231470   1.804   0.190   2.118 -0.3168 -0.7457 -0.2644
 3304TIP3    H131471   1.836   0.125   2.182  2.0528 -0.9398 -1.5238
 3304TIP3    H231472   1.743   0.244   2.167  1.1320 -1.1112  2.1056
 3305TIP3   OH231473   2.811   6.343   0.912  0.0316 -0.4503 -0.5180
 3305TIP3    H131474   2.732   6.357   0.860  0.1793 -0.5232 -0.7645
 3305TIP3    H231475   2.805   6.253   0.942 -0.2033 -0.3159 -0.1506
 3306TIP3   OH231476   1.072   3.606   0.994 -0.4148  0.1356 -0.1666
 3306TIP3    H131477   1.119   3.602   1.077  0.8312 -0.6754 -0.8801
 3306TIP3    H231478   1.118   3.673   0.943 -1.1794  0.6380 -0.2145
 3307TIP3   OH231479   5.602   1.347   2.533  0.1438 -0.0500  0.2012
 3307TIP3    H131480   5.549   1.301   2.468 -0.5020  0.9996 -0.0383
 3307TIP3    H231481   5.688   1.357   2.491 -0.9354  2.7995 -1.5938
 3308TIP3   OH231482   4.882   2.578   1.069 -0.1320 -0.3749 -0.7033
 3308TIP3    H131483   4.794   2.613   1.056  0.1025  0.3862 -0.3296
 3308TIP3    H231484   4.939   2.655   1.070  0.4925 -0.8228 -0.5497
 3309TIP3   OH231485   5.372   4.357   2.119 -0.3298 -0.3109 -0.5637
 3309TIP3    H131486   5.365   4.409   2.199  0.6349 -0.4907 -0.3430
 3309TIP3    H231487   5.372   4.421   2.048  0.3179 -0.0423 -0.3247
 3310TIP3   OH231488   0.754   2.176   7.869 -0.1372  0.5338 -0.0375
 3310TIP3    H131489   0.763   2.249   7.807 -0.1256  0.2224 -0.4041
 3310TIP3    H231490   0.843   2.146   7.883 -0.2846 -0.6690 -1.4117
 3311TIP3   OH231491   2.395   2.275   2.217  0.3265 -0.1738  0.4289
 3311TIP3    H131492   2.377   2.318   2.301  0.0344  0.0696  0.2422
 3311TIP3    H231493   2.319   2.297   2.162 -0.4626 -1.9408  0.7244
 3312TIP3   OH231494   2.852   1.111   1.361  0.1232 -0.2304  0.1946
 3312TIP3    H131495   2.796   1.100   1.284 -2.2269 -1.1190  1.9187
 3312TIP3    H231496   2.895   1.196   1.347  0.8699 -0.9424 -2.6633
 3313TIP3   OH231497   2.240   5.249   7.725 -0.1303 -0.1850 -0.4256
 3313TIP3    H131498   2.319   5.280   7.680 -0.6297 -0.2872 -1.3907
 3313TIP3    H231499   2.188   5.329   7.738 -0.3184 -0.2639 -0.6968
 3314TIP3   OH231500   5.563   2.181   8.136 -0.1123  0.3393 -0.1027
 3314TIP3    H131501   5.486   2.142   8.176  0.8251 -0.3875  1.0387
 3314TIP3    H231502   5.636   2.155   8.192  0.8120  2.0803 -0.4298
 3315TIP3   OH231503   5.366   1.128   0.121  0.8574  0.0707 -0.4044
 3315TIP3    H131504   5.375   1.209   0.170  2.3707  0.2684 -0.9415
 3315TIP3    H231505   5.314   1.151   0.044  1.1704  0.4968 -0.4865
 3316TIP3   OH231506   2.163   2.427   0.303 -0.3802  0.3165 -0.6667
 3316TIP3    H131507   2.156   2.353   0.363  1.3906 -0.6455 -1.5501
 3316TIP3    H231508   2.076   2.467   0.303 -1.5005 -1.9589 -0.3883
 3317TIP3   OH231509   1.971   6.706   1.556  0.2146 -0.2697 -0.0292
 3317TIP3    H131510   1.999   6.686   1.646  2.3422  0.0597 -0.5615
 3317TIP3    H231511   2.048   6.688   1.503 -0.6607  0.6191 -1.6578
 3318TIP3   OH231512   6.039   1.837   6.438 -0.8499 -0.1914 -0.1878
 3318TIP3    H131513   6.113   1.879   6.480 -2.0013  0.5103  1.2472
 3318TIP3    H231514   6.067   1.822   6.348  0.7731  0.6492  0.1467
 3319TIP3   OH231515   0.092   1.700   6.940  0.3283  0.1784 -0.1569
 3319TIP3    H131516   0.082   1.752   6.861  0.1670 -0.3649 -0.4937
 3319TIP3    H231517   0.003   1.676   6.965  0.3398  0.7605  0.4714
 3320TIP3   OH231518   2.955   6.339   7.120 -1.0278  0.7040 -0.3107
 3320TIP3    H131519   2.954   6.435   7.121  0.8924  0.7763  1.2857
 3320TIP3    H231520   2.880   6.314   7.172 -1.4592  1.3291 -0.6104
 3321TIP3   OH231521   3.255   6.853   0.391  0.4386 -0.4547 -0.0844
 3321TIP3    H131522   3.236   6.773   0.341  0.6441  1.4108 -3.4756
 3321TIP3    H231523   3.170   6.882   0.422 -0.3708  0.2156 -2.6493
 3322TIP3   OH231524   6.021   5.535   7.421  0.8482  0.0538 -0.8513
 3322TIP3    H131525   5.956   5.596   7.456  1.2277 -0.2511  0.4269
 3322TIP3    H231526   6.080   5.590   7.369 -0.8152  0.2306 -2.6595
 3323TIP3   OH231527   6.529   5.162   2.295 -0.4722  0.2819  0.4246
 3323TIP3    H131528   6.594   5.231   2.305 -1.6175  1.3935  0.3504
 3323TIP3    H231529   6.446   5.203   2.320 -0.8313 -1.8213  3.2794
 3324TIP3   OH231530   4.315   6.693   7.092  0.0090  0.6140  0.0499
 3324TIP3    H131531   4.237   6.655   7.051 -0.3661  0.4006  0.9512
 3324TIP3    H231532   4.322   6.781   7.053 -1.3624  1.0835  0.8143
 3325TIP3   OH231533   5.849   6.045   2.585 -0.4123 -0.6317  0.4816
 3325TIP3    H131534   5.775   6.100   2.559 -0.5370  0.1345  2.2977
 3325TIP3    H231535   5.907   6.104   2.633  1.3079 -1.2684 -0.7001
 3326TIP3   OH231536   3.327   2.214   0.800  0.2769  0.1330  0.7248
 3326TIP3    H131537   3.241   2.213   0.842 -0.5945  0.2288 -0.9582
 3326TIP3    H231538   3.310   2.248   0.712  1.7576 -1.4027 -0.2211
 3327TIP3   OH231539   2.171   3.778   0.724 -0.2291  0.7533  0.1301
 3327TIP3    H131540   2.192   3.708   0.662 -1.5931  0.1033  0.3459
 3327TIP3    H231541   2.142   3.851   0.669 -1.6313  0.1110 -0.0438
 3328TIP3   OH231542   3.278   0.850   6.900  0.2415  0.4831  0.3534
 3328TIP3    H131543   3.254   0.881   6.987  0.4146  0.0323  0.5664
 3328TIP3    H231544   3.359   0.801   6.914  0.2314  0.3501 -0.0494
 3329TIP3   OH231545   3.342   3.566   8.148  0.3331 -0.2320 -0.5319
 3329TIP3    H131546   3.276   3.533   8.210  1.7621 -1.4411  0.4382
 3329TIP3    H231547   3.347   3.498   8.081  0.0904  0.1913 -0.9769
 3330TIP3   OH231548   6.599   6.706   1.000 -0.1473 -0.4471  0.0622
 3330TIP3    H131549   6.599   6.742   1.088 -0.7520 -0.9746  0.2873
 3330TIP3    H231550   6.605   6.782   0.942 -0.5428 -0.0498  0.5419
 3331TIP3   OH231551   4.943   5.313   8.031  0.0748  0.5466  0.2295
 3331TIP3    H131552   4.989   5.231   8.048 -0.6793  0.1417  0.3408
 3331TIP3    H231553   4.853   5.297   8.058 -0.4453  0.9058 -1.1944
 3332TIP3   OH231554   1.484   4.247   8.180 -0.1876  0.3970  0.1659
 3332TIP3    H131555   1.502   4.330   8.136 -1.0875  0.4832 -0.0444
 3332TIP3    H231556   1.568   4.222   8.219  0.1309  1.3163  0.0838
 3333TIP3   OH231557   3.447   4.127   0.522  0.3560  0.5510  0.4274
 3333TIP3    H131558   3.447   4.061   0.453  2.3097 -0.8938  1.7234
 3333TIP3    H231559   3.537   4.159   0.526  0.3079  0.5535  2.3384
 3334TIP3   OH231560   1.892   6.937   1.780 -0.1492 -0.3035  0.0019
 3334TIP3    H131561   1.978   6.954   1.742 -0.6049 -0.2999 -1.0573
 3334TIP3    H231562   1.831   6.942   1.706 -0.7607 -2.9524  0.2213
 3335TIP3   OH231563   4.211   2.560   0.470  0.8037  0.0040 -0.0950
 3335TIP3    H131564   4.190   2.654   0.473  0.3726 -0.0534  3.3414
 3335TIP3    H231565   4.130   2.518   0.442  0.2745  0.5597  0.5556
 3336TIP3   OH231566   4.446   3.451   2.140  0.1661 -0.1723  0.4600
 3336TIP3    H131567   4.457   3.542   2.114  0.1319 -0.4041 -0.3848
 3336TIP3    H231568   4.378   3.417   2.082  0.1703 -0.7376  0.7727
 3337TIP3   OH231569   5.030   0.754   0.632 -0.4217  0.6747  0.4295
 3337TIP3    H131570   5.055   0.817   0.701  0.8278  1.1588 -0.4303
 3337TIP3    H231571   5.112   0.714   0.605 -1.1350 -0.9919  0.5872
 3338TIP3   OH231572   0.149   0.941   6.631  0.4989  0.1589 -0.5944
 3338TIP3    H131573   0.214   0.973   6.568  1.3605 -0.5891 -0.1056
 3338TIP3    H231574   0.155   0.846   6.625  0.4813  0.0754  0.5026
 3339TIP3   OH231575   3.604   0.838   7.873  0.7443 -0.2942  0.0183
 3339TIP3    H131576   3.618   0.933   7.870  0.4970 -0.2333  0.5719
 3339TIP3    H231577   3.516   0.828   7.909  1.0698 -0.7460  0.7163
 3340TIP3   OH231578   1.694   6.633   1.458 -0.5078 -0.5586 -0.1257
 3340TIP3    H131579   1.721   6.579   1.383  0.0541  0.3115 -0.5642
 3340TIP3    H231580   1.776   6.665   1.495 -0.8173 -0.3794  0.4064
 3341TIP3   OH231581   3.906   3.614   0.330 -0.1344 -0.3663 -0.3738
 3341TIP3    H131582   3.926   3.521   0.320 -0.6772 -0.7477  1.7025
 3341TIP3    H231583   3.824   3.625   0.282 -0.5403 -1.1810  0.0960
 3342TIP3   OH231584   5.842   4.067   7.358  0.0748 -0.5694  0.3518
 3342TIP3    H131585   5.752   4.064   7.326 -0.2288  0.4317  1.0528
 3342TIP3    H231586   5.890   4.111   7.288 -0.0312 -0.8611  0.0930
 3343TIP3   OH231587   4.369   5.491   8.116  0.2482  0.6433  0.1479
 3343TIP3    H131588   4.397   5.446   8.037 -0.5787  1.6307 -0.7497
 3343TIP3    H231589   4.274   5.498   8.107 -0.2501 -1.6864  2.5812
 3344TIP3   OH231590   0.379   4.955   1.695 -0.5184 -0.3190  0.0507
 3344TIP3    H131591   0.383   4.919   1.783  0.1988  0.4032  0.3210
 3344TIP3    H231592   0.304   5.015   1.697 -0.1720  0.1064  0.3268
 3345TIP3   OH231593   4.195   5.338   0.122  0.2039 -0.0762 -0.2925
 3345TIP3    H131594   4.177   5.270   0.187  0.6794  0.7073  0.6868
 3345TIP3    H231595   4.267   5.302   0.069  0.4520 -0.3306  0.2112
 3346TIP3   OH231596   6.639   4.311   7.039 -0.1450  0.6060 -0.3459
 3346TIP3    H131597   6.717   4.356   7.072  0.0691 -0.1428  0.2138
 3346TIP3    H231598   6.622   4.352   6.954  1.7678 -0.2067 -1.1880
 3347TIP3   OH231599   3.800   1.073   2.154  0.3571  0.2024 -0.2037
 3347TIP3    H131600   3.859   1.137   2.114  0.6552 -1.3309 -2.4628
 3347TIP3    H231601   3.851   1.035   2.226  0.3286  2.1303  0.8850
 3348TIP3   OH231602   2.687   2.367   0.940  0.3777 -0.4446 -0.0762
 3348TIP3    H131603   2.705   2.302   1.008  0.1247  0.0422  0.4708
 3348TIP3    H231604   2.694   2.451   0.985 -1.3460 -0.1644 -0.2694
 3349TIP3   OH231605   4.657   6.969   2.082  0.5707 -0.1634  0.4975
 3349TIP3    H131606   4.672   7.004   2.170  1.1623 -1.5953  0.9903
 3349TIP3    H231607   4.706   6.886   2.081  1.3414  0.2679 -1.4777
 3350TIP3   OH231608   4.973   6.250   6.942  0.0134 -0.5411 -0.3831
 3350TIP3    H131609   5.067   6.267   6.949 -0.5004  2.1196  1.5180
 3350TIP3    H231610   4.963   6.158   6.967  1.8889 -0.2038  1.9315
 3351TIP3   OH231611   1.616   1.533   2.078 -0.0182  0.8480 -0.6723
 3351TIP3    H131612   1.608   1.592   2.003  0.4737  0.7751 -0.7800
 3351TIP3    H231613   1.677   1.577   2.137 -0.4443  0.9313 -0.2853
 3352TIP3   OH231614   6.861   3.431   0.668 -0.4759  0.2928  0.3729
 3352TIP3    H131615   6.838   3.515   0.708 -2.6180  0.8711 -1.8044
 3352TIP3    H231616   6.794   3.370   0.697 -1.3977  0.4464 -1.2914
 3353TIP3   OH231617   6.018   6.417   1.232 -0.1581 -0.2069  0.4470
 3353TIP3    H131618   6.086   6.459   1.179 -0.5134 -2.5433 -2.0482
 3353TIP3    H231619   6.065   6.389   1.311  1.3103  0.1047 -0.2655
 3354TIP3   OH231620   1.755   0.356   7.698 -0.3766  0.0820 -0.0825
 3354TIP3    H131621   1.776   0.337   7.789  2.2295 -0.4116 -0.7084
 3354TIP3    H231622   1.758   0.452   7.693  0.1002  0.0868  0.2213
 3355TIP3   OH231623   5.615   1.889   0.847 -0.2448 -0.2001  0.2353
 3355TIP3    H131624   5.623   1.933   0.932 -1.7149 -0.0076  0.3018
 3355TIP3    H231625   5.629   1.959   0.783 -1.1036  0.0798  0.3394
 3356TIP3   OH231626   1.107   1.103   1.439  0.2439  0.2845 -0.9022
 3356TIP3    H131627   1.041   1.047   1.400  1.4254 -0.6660 -1.6016
 3356TIP3    H231628   1.143   1.052   1.512 -0.4847  1.2099  0.1529
 3357TIP3   OH231629   0.870   2.198   0.110  0.6420 -0.1795  0.0103
 3357TIP3    H131630   0.852   2.291   0.096 -0.8164 -0.4527 -0.0746
 3357TIP3    H231631   0.854   2.184   0.204  1.7247 -0.1727  0.2044
 3358TIP3   OH231632   3.848   1.419   2.295 -0.5191  0.4468 -0.0858
 3358TIP3    H131633   3.757   1.389   2.294 -0.7400  1.0793  0.3652
 3358TIP3    H231634   3.897   1.347   2.335 -0.4843 -0.7658 -2.1791
 3359TIP3   OH231635   3.640   3.799   7.624 -0.4276  0.1663 -0.1487
 3359TIP3    H131636   3.596   3.771   7.544 -0.2008  0.1716 -0.2790
 3359TIP3    H231637   3.730   3.769   7.612 -0.4368  0.0118  0.1835
 3360TIP3   OH231638   1.170   5.875   1.263  0.7130  0.4927  0.8248
 3360TIP3    H131639   1.218   5.926   1.327  0.0308  0.6801  1.2002
 3360TIP3    H231640   1.219   5.885   1.181  1.9155 -0.2270  1.4454
 3361TIP3   OH231641   1.134   2.985   1.442  0.0002  0.1188  0.5772
 3361TIP3    H131642   1.116   3.001   1.534  0.4855  1.7551  0.4133
 3361TIP3    H231643   1.178   3.064   1.411  2.1040 -1.3286 -0.4645
 3362TIP3   OH231644   3.013   6.014   0.236 -0.0132  0.3703  0.0989
 3362TIP3    H131645   3.106   6.007   0.217 -0.3467  0.8285 -1.9608
 3362TIP3    H231646   2.970   5.996   0.153 -1.7223  1.2927  0.7264
 3363TIP3   OH231647   5.641   5.753   2.221  0.1732  0.1464 -0.2348
 3363TIP3    H131648   5.689   5.781   2.299  0.0146 -0.1092 -0.0436
 3363TIP3    H231649   5.709   5.731   2.158  0.3220 -0.7381  0.2221
 3364TIP3   OH231650   5.477   5.750   7.562 -0.1959  0.6666  0.1628
 3364TIP3    H131651   5.461   5.656   7.554  1.3024  0.3102  1.0238
 3364TIP3    H231652   5.391   5.788   7.579 -0.4165 -0.9788  3.5013
 3365TIP3   OH231653   6.853   6.916   7.081  0.0157 -0.4491  0.4856
 3365TIP3    H131654   6.791   6.989   7.080  0.9478  0.3688 -1.1424
 3365TIP3    H231655   6.797   6.838   7.085 -1.2822  0.1927 -2.5352
 3366TIP3   OH231656   4.264   0.188   1.936  0.0297  0.0695  0.2787
 3366TIP3    H131657   4.198   0.130   1.896 -1.3530  0.2788  2.1554
 3366TIP3    H231658   4.215   0.243   1.996  1.8069  0.9331  1.0156
 3367TIP3   OH231659   4.370   6.146   1.566  0.1187 -0.0836  0.1572
 3367TIP3    H131660   4.338   6.154   1.476 -1.4971 -1.1875  0.5867
 3367TIP3    H231661   4.353   6.054   1.589  2.4330 -0.3964  0.9097
 3368TIP3   OH231662   3.069   0.133   8.291 -0.8474  0.3535 -0.0987
 3368TIP3    H131663   2.979   0.159   8.309 -0.6750  1.8027 -1.1034
 3368TIP3    H231664   3.118   0.165   8.367 -1.2225 -0.9625  0.7356
 3369TIP3   OH231665   4.602   2.693   1.257  0.3960  0.3896 -0.4362
 3369TIP3    H131666   4.623   2.678   1.349 -0.6994 -0.1483 -0.2492
 3369TIP3    H231667   4.560   2.611   1.229  2.0422 -0.0230 -1.8448
 3370TIP3   OH231668   5.083   4.704   1.426  0.3961 -0.0745 -0.1384
 3370TIP3    H131669   5.136   4.674   1.499  1.1804 -0.4360 -0.8497
 3370TIP3    H231670   5.127   4.784   1.396  1.4652 -1.1961 -1.7025
 3371TIP3   OH231671   3.190   1.198   7.170 -0.2206 -0.3522 -0.3090
 3371TIP3    H131672   3.175   1.104   7.161  0.3096 -0.6280  1.4127
 3371TIP3    H231673   3.109   1.238   7.138 -1.0655 -1.4492  0.3983
 3372TIP3   OH231674   1.495   6.742   1.249 -0.1146 -0.1298 -0.2475
 3372TIP3    H131675   1.567   6.697   1.294  1.1847 -1.7057 -3.5707
 3372TIP3    H231676   1.458   6.676   1.191 -1.2436  1.8866 -1.9583
 3373TIP3   OH231677   5.544   1.156   8.100 -0.1097  0.2676  0.2375
 3373TIP3    H131678   5.591   1.200   8.171  2.2940  1.2891 -1.8091
 3373TIP3    H231679   5.564   1.063   8.111  1.8175  0.5978 -0.0929
 3374TIP3   OH231680   1.351   6.687   1.940 -0.2181  0.4064  0.1810
 3374TIP3    H131681   1.334   6.735   2.022 -0.3181 -0.6999  0.8292
 3374TIP3    H231682   1.419   6.737   1.897  0.2625  0.6983  1.2382
 3375TIP3   OH231683   3.494   5.371   1.664  0.4109  0.1666 -0.5016
 3375TIP3    H131684   3.524   5.462   1.668 -0.1653  0.3519 -0.3934
 3375TIP3    H231685   3.399   5.377   1.660  0.3024 -0.4479  0.6476
 3376TIP3   OH231686   2.310   0.911   1.337 -0.0108  0.0073 -0.2487
 3376TIP3    H131687   2.336   0.829   1.380  2.5477  0.3973 -0.8803
 3376TIP3    H231688   2.306   0.889   1.244  0.9492  0.6335 -0.4503
 3377TIP3   OH231689   4.571   2.977   1.428 -0.2722  0.1377 -0.3686
 3377TIP3    H131690   4.631   2.956   1.499 -0.0500  0.5946 -0.4188
 3377TIP3    H231691   4.560   2.894   1.381  2.4649  0.5641 -1.9665
 3378TIP3   OH231692   0.170   5.231   2.728 -0.0178  0.3186  0.4770
 3378TIP3    H131693   0.101   5.296   2.724  0.9223  1.3246 -0.0132
 3378TIP3    H231694   0.138   5.158   2.674  0.1178  1.6007 -1.4342
 3379TIP3   OH231695   0.535   6.130   1.418  0.2782  0.4539  0.2391
 3379TIP3    H131696   0.484   6.180   1.354  0.0925 -0.5202 -0.3985
 3379TIP3    H231697   0.618   6.177   1.425 -0.0434  1.0756 -0.0391
 3380TIP3   OH231698   4.836   3.436   0.388  0.5941  0.2046  0.1755
 3380TIP3    H131699   4.861   3.511   0.443 -0.6762  1.2626 -0.6445
 3380TIP3    H231700   4.794   3.475   0.312 -3.9885 -1.3403  1.5638
 3381TIP3   OH231701   0.129   4.398   7.992  0.3820 -0.3394 -0.1496
 3381TIP3    H131702   0.139   4.379   8.085  1.1047  0.2968 -0.0871
 3381TIP3    H231703   0.035   4.410   7.980  0.3937  0.9160  0.7849
 3382TIP3   OH231704   5.554   1.506   8.291  0.2939  0.0477  0.1817
 3382TIP3    H131705   5.481   1.529   8.348 -1.1618 -0.8230 -1.2240
 3382TIP3    H231706   5.632   1.539   8.336 -1.1489  3.3210  0.5539
 3383TIP3   OH231707   6.740   4.439   7.983  0.1230  0.0472 -0.0093
 3383TIP3    H131708   6.744   4.350   7.949 -0.1950 -0.1250  0.3880
 3383TIP3    H231709   6.662   4.477   7.944  1.0128  0.6357 -1.2858
 3384TIP3   OH231710   5.783   5.374   1.821  0.0129 -0.4239  0.3276
 3384TIP3    H131711   5.831   5.388   1.902  0.0087  1.8533  0.0115
 3384TIP3    H231712   5.710   5.435   1.825 -1.0092 -1.5274 -0.6291
 3385TIP3   OH231713   2.451   4.866   1.875  0.1753 -0.3636  0.0021
 3385TIP3    H131714   2.361   4.834   1.871 -0.4870  1.4345 -0.3919
 3385TIP3    H231715   2.477   4.852   1.966 -0.4894 -0.9054  0.1208
 3386TIP3   OH231716   5.686   4.336   7.195  0.5919 -0.3989  0.1237
 3386TIP3    H131717   5.773   4.310   7.224  0.4600 -2.9966 -1.5096
 3386TIP3    H231718   5.679   4.303   7.105 -3.0673 -2.9506  1.1132
 3387TIP3   OH231719   2.265   1.744   1.316  0.3759 -0.2321 -0.3353
 3387TIP3    H131720   2.179   1.750   1.274 -0.2807  0.7845  1.0736
 3387TIP3    H231721   2.326   1.779   1.251  0.0343 -2.6012 -2.0526
 3388TIP3   OH231722   4.652   2.565   0.475 -0.5934 -0.2577 -0.0567
 3388TIP3    H131723   4.633   2.487   0.527 -0.6207  0.5381  1.1665
 3388TIP3    H231724   4.724   2.538   0.417 -2.4812 -2.0286 -1.7255
 3389TIP3   OH231725   0.151   2.101   2.124 -0.9582 -0.0121 -0.0063
 3389TIP3    H131726   0.216   2.167   2.151  0.3923 -1.2762 -0.0716
 3389TIP3    H231727   0.135   2.120   2.032 -0.4301  0.1263 -0.0756
 3390TIP3   OH231728   2.980   1.062   8.019 -0.5214  0.2241  0.1435
 3390TIP3    H131729   2.971   1.080   7.926 -3.4320 -0.3303  0.2472
 3390TIP3    H231730   3.042   1.129   8.050 -2.8444  3.3623 -1.3988
 3391TIP3   OH231731   2.565   0.033   1.909 -0.7764  0.6245  0.6034
 3391TIP3    H131732   2.612   0.057   1.829  0.3633  2.0396  1.6688
 3391TIP3    H231733   2.603  -0.052   1.934 -2.0473 -0.4868 -1.0064
 3392TIP3   OH231734   0.699   4.722   0.039 -0.1768  0.3573  0.5350
 3392TIP3    H131735   0.623   4.766   0.077 -0.1629  0.8060  0.0498
 3392TIP3    H231736   0.710   4.763  -0.047  0.3119 -0.0510  0.4006
 3393TIP3   OH231737   3.677   6.774   1.077  0.4109  0.2578 -0.2750
 3393TIP3    H131738   3.621   6.845   1.045 -2.3966 -1.6436  0.1175
 3393TIP3    H231739   3.664   6.774   1.172  0.5761 -0.6258 -0.2445
 3394TIP3   OH231740   6.594   0.117   0.003  0.3475 -0.0916 -0.4859
 3394TIP3    H131741   6.634   0.191  -0.042 -0.2179 -0.4125 -1.5379
 3394TIP3    H231742   6.565   0.153   0.087  0.2574  0.8410 -0.9026
 3395TIP3   OH231743   1.972   4.929   7.945  0.6572 -0.1084  0.0954
 3395TIP3    H131744   2.057   4.890   7.924  0.5357 -1.1775  1.4514
 3395TIP3    H231745   1.990   5.023   7.952  1.8360 -0.3587  0.7753
 3396TIP3   OH231746   0.084   1.965   0.117 -0.5244 -0.1441  0.2581
 3396TIP3    H131747   0.141   2.040   0.134  0.3387 -0.7735  0.2379
 3396TIP3    H231748   0.035   1.952   0.198  0.5671 -0.5995  0.8594
 3397TIP3   OH231749   0.598   6.387   6.562  0.3000 -0.8880  0.7848
 3397TIP3    H131750   0.534   6.398   6.632 -0.1412 -2.4337  0.6450
 3397TIP3    H231751   0.568   6.311   6.512  1.2530 -0.5454 -0.3834
 3398TIP3   OH231752   3.596   2.179   2.044  0.2735 -0.0230 -0.3986
 3398TIP3    H131753   3.600   2.146   1.954  2.4558 -1.6155  0.1970
 3398TIP3    H231754   3.656   2.254   2.043  0.9305 -0.5343 -0.1173
 3399TIP3   OH231755   3.385   0.095   7.825  0.3656  0.0959 -0.1772
 3399TIP3    H131756   3.301   0.054   7.846 -0.1791  0.7068 -1.1155
 3399TIP3    H231757   3.443   0.021   7.808  0.0503 -0.3367  0.5581
 3400TIP3   OH231758   4.540   2.426   7.309  0.3282 -0.5109  0.6362
 3400TIP3    H131759   4.468   2.486   7.291  1.4527  0.4241 -0.9597
 3400TIP3    H231760   4.502   2.360   7.367 -1.2583  1.0685  1.4764
 3401TIP3   OH231761   1.331   1.580   0.896  0.1771 -0.3855  0.4697
 3401TIP3    H131762   1.379   1.516   0.844  0.8350  0.8347 -0.4715
 3401TIP3    H231763   1.239   1.566   0.873  0.3182 -0.9145  0.2015
 3402TIP3   OH231764   1.722   5.047   8.240 -0.2737  0.3065 -0.7733
 3402TIP3    H131765   1.755   5.128   8.200  2.6073 -1.0182 -1.2806
 3402TIP3    H231766   1.707   4.988   8.166 -0.4412 -0.2873 -0.2733
 3403TIP3   OH231767   6.890   0.520   1.209 -0.0707 -0.0056  0.2582
 3403TIP3    H131768   6.919   0.486   1.294 -0.0130  1.6737  0.9481
 3403TIP3    H231769   6.824   0.585   1.231 -0.0411  0.4719 -0.9945
 3404TIP3   OH231770   2.631   1.707   0.156  0.4527 -0.1871 -0.1119
 3404TIP3    H131771   2.702   1.644   0.140  0.6492  0.1940 -0.7608
 3404TIP3    H231772   2.675   1.783   0.196  0.4844  0.2162 -0.8941
 3405TIP3   OH231773   6.798   1.080   7.468  0.0523  0.4626 -0.0399
 3405TIP3    H131774   6.731   1.023   7.431  1.6102 -1.1614 -0.4508
 3405TIP3    H231775   6.799   1.156   7.410  0.2100 -0.5922 -1.4690
 3406TIP3   OH231776   1.955   2.708   1.684  0.1834  0.2314 -0.5374
 3406TIP3    H131777   1.992   2.637   1.631  0.1051  0.7920 -1.3600
 3406TIP3    H231778   1.862   2.711   1.660 -0.3981 -0.9610  1.2857
 3407TIP3   OH231779   2.205   4.752   1.922  0.1557  0.0242  0.2106
 3407TIP3    H131780   2.134   4.706   1.878  0.6667  0.8113 -1.5460
 3407TIP3    H231781   2.162   4.811   1.983 -0.5670 -1.4236  1.1342
 3408TIP3   OH231782   0.134   2.519   1.671  0.2935  0.2005 -0.0197
 3408TIP3    H131783   0.186   2.568   1.606 -0.2012  1.2960  0.3774
 3408TIP3    H231784   0.188   2.518   1.749  1.5582 -2.4466 -0.8181
 3409TIP3   OH231785   6.917   6.392   1.871  0.3571 -0.6211 -0.0307
 3409TIP3    H131786   6.955   6.377   1.784  1.1168 -1.3066  0.4058
 3409TIP3    H231787   6.983   6.444   1.917 -1.0360  1.7950 -0.5965
 3410TIP3   OH231788   6.053   0.330   7.195  0.1322 -0.7631 -0.0963
 3410TIP3    H131789   6.070   0.364   7.283  1.3075 -1.5874  0.0166
 3410TIP3    H231790   5.958   0.338   7.184  0.0313 -0.2112  1.0528
 3411TIP3   OH231791   3.532   6.275   1.772 -0.0269 -0.4049 -0.4604
 3411TIP3    H131792   3.604   6.338   1.783  0.0635 -0.7043  0.8603
 3411TIP3    H231793   3.454   6.329   1.767  0.2872 -0.0572 -2.2132
 3412TIP3   OH231794   1.833   5.754   0.643 -0.4309  0.3529  1.0117
 3412TIP3    H131795   1.800   5.668   0.669 -0.2856  0.1492  0.5311
 3412TIP3    H231796   1.764   5.790   0.587 -0.0320  0.1039  0.3514
 3413TIP3   OH231797   6.525   5.457   7.857  0.5887 -0.6225  0.4224
 3413TIP3    H131798   6.531   5.362   7.846  1.8715 -0.4958 -0.0670
 3413TIP3    H231799   6.603   5.481   7.906  1.8784  0.5341 -2.0563
 3414TIP3   OH231800   6.838   6.015   7.612  0.6511  0.1464  0.3940
 3414TIP3    H131801   6.820   6.066   7.691 -1.3494  0.6124 -0.3087
 3414TIP3    H231802   6.755   5.972   7.592  0.7696  0.8822 -2.0450
 3415TIP3   OH231803   1.923   6.880   7.335 -0.2651  0.2200  0.2694
 3415TIP3    H131804   1.986   6.860   7.266 -1.3776 -0.2938 -0.6286
 3415TIP3    H231805   1.886   6.795   7.359 -0.5309  0.5014  0.8739
 3416TIP3   OH231806   0.953   2.564   7.724  0.1810 -0.1079 -0.3589
 3416TIP3    H131807   0.902   2.483   7.724  0.7095 -0.4631 -1.2816
 3416TIP3    H231808   1.022   2.549   7.790 -0.1169 -0.1441 -0.0549
 3417TIP3   OH231809   6.174   3.965   7.597  0.1138 -0.3485  0.1992
 3417TIP3    H131810   6.258   3.975   7.642  0.9782 -0.9281 -1.2075
 3417TIP3    H231811   6.139   4.053   7.592  0.9370 -0.0031  0.2968
 3418TIP3   OH231812   4.664   0.365   7.961  0.3056 -0.1389  0.4706
 3418TIP3    H131813   4.625   0.295   7.909  2.0451 -1.7777  1.2770
 3418TIP3    H231814   4.699   0.427   7.896  0.3583 -0.9369 -0.2788
 3419TIP3   OH231815   1.660   6.450   8.201 -0.4143  0.5088  0.1039
 3419TIP3    H131816   1.688   6.499   8.124 -0.9118  2.4975  1.1212
 3419TIP3    H231817   1.565   6.443   8.191 -0.1913 -2.2078 -1.0645
 3420TIP3   OH231818   4.673   3.531   1.374  0.0282  0.2553 -0.3068
 3420TIP3    H131819   4.748   3.583   1.404 -1.4909  1.3488  1.7920
 3420TIP3    H231820   4.619   3.593   1.325  0.7046 -0.6838 -2.3977
 3421TIP3   OH231821   0.388   6.048   7.455 -0.0145 -0.2931 -0.3655
 3421TIP3    H131822   0.462   6.105   7.479 -1.1283  1.4759 -0.9244
 3421TIP3    H231823   0.383   5.984   7.526 -0.2782  1.8926  1.7283
 3422TIP3   OH231824   3.685   5.934   1.787  0.0501  0.6691  0.0850
 3422TIP3    H131825   3.774   5.954   1.758 -0.5965 -0.2914 -2.9821
 3422TIP3    H231826   3.690   5.933   1.883  2.8775  2.4644  0.0739
 3423TIP3   OH231827   0.515   0.638   1.152  0.0570  0.1839  0.5301
 3423TIP3    H131828   0.518   0.638   1.057 -1.6206 -0.9755  0.4402
 3423TIP3    H231829   0.443   0.579   1.174  1.1595 -0.4977  2.5471
 3424TIP3   OH231830   1.757   0.000   0.772  0.1210 -0.2860  0.0211
 3424TIP3    H131831   1.774  -0.025   0.682  1.6208 -0.2331  0.2736
 3424TIP3    H231832   1.708   0.082   0.765 -1.0185 -0.9936 -0.7354
 3425TIP3   OH231833   1.712   3.924   0.045 -0.0026 -0.1665  0.3098
 3425TIP3    H131834   1.640   3.873   0.009  0.0532  1.1078 -1.7513
 3425TIP3    H231835   1.683   4.015   0.039  1.5300  0.3338  0.0053
 3426TIP3   OH231836   4.340   3.931   7.845 -0.1069 -0.1772  0.0777
 3426TIP3    H131837   4.305   3.868   7.908  0.9593  1.3871  2.3867
 3426TIP3    H231838   4.426   3.954   7.881  0.5020  0.8932 -1.9373
 3427TIP3   OH231839   1.815   4.594   1.793  0.1857  0.0755  0.1503
 3427TIP3    H131840   1.737   4.541   1.810 -0.6485  0.4565 -2.1206
 3427TIP3    H231841   1.887   4.546   1.834 -1.3852  0.5196  3.7194
 3428TIP3   OH231842   6.657   4.032   6.629 -0.2754 -0.6498 -0.3854
 3428TIP3    H131843   6.700   3.965   6.576  1.7995 -0.8407  1.3617
 3428TIP3    H231844   6.698   4.114   6.601  0.7934 -0.7473  0.8061
 3429TIP3   OH231845   4.335   6.932   6.969 -0.4856  0.2136  0.6865
 3429TIP3    H131846   4.413   6.987   6.964 -0.2698 -0.1591 -0.1383
 3429TIP3    H231847   4.266   6.983   6.927 -0.2111 -0.2611 -0.3621
 3430TIP3   OH231848   3.506   3.288   0.752 -0.2475 -0.5111 -0.0596
 3430TIP3    H131849   3.598   3.285   0.780 -0.2112  1.7382  0.3037
 3430TIP3    H231850   3.457   3.270   0.832 -0.0998  0.4216  0.2609
 3431TIP3   OH231851   6.436   0.531   0.937  0.2991 -0.1234  0.3096
 3431TIP3    H131852   6.418   0.542   1.030  0.5783  2.0883  0.1446
 3431TIP3    H231853   6.358   0.487   0.903  0.8748 -2.5094  1.7981
 3432TIP3   OH231854   0.658   5.486   7.218  0.3982  0.4339  0.1581
 3432TIP3    H131855   0.689   5.524   7.135 -0.0892 -0.6284 -0.5390
 3432TIP3    H231856   0.696   5.398   7.220 -0.9107 -0.1558  0.2543
 3433TIP3   OH231857   0.692   5.711   1.901  0.2028  0.1107 -0.5380
 3433TIP3    H131858   0.705   5.801   1.931  0.9782  0.2724 -1.3197
 3433TIP3    H231859   0.763   5.696   1.838 -0.5525 -0.6785 -1.2312
 3434TIP3   OH231860   6.117   3.182   7.038  0.1454 -0.2911  0.6061
 3434TIP3    H131861   6.130   3.218   7.125 -0.2998  1.6044 -0.0529
 3434TIP3    H231862   6.099   3.258   6.983 -1.5102 -1.5792 -0.7766
 3435TIP3   OH231863   5.355   0.898   0.271 -0.2713  0.0258  0.0611
 3435TIP3    H131864   5.331   0.956   0.199 -1.0794 -0.2673  0.0869
 3435TIP3    H231865   5.434   0.853   0.240  0.2610  0.9904 -0.0334
 3436TIP3   OH231866   5.415   5.435   1.121  0.3488  0.3772 -0.4095
 3436TIP3    H131867   5.457   5.349   1.111 -0.5834 -0.0325 -0.9397
 3436TIP3    H231868   5.334   5.416   1.169  0.3477  1.0308 -0.1489
 3437TIP3   OH231869   5.443   4.517   7.457  0.1715 -0.3756 -0.3380
 3437TIP3    H131870   5.354   4.551   7.448  0.8138  1.2063 -1.0849
 3437TIP3    H231871   5.437   4.427   7.426 -1.2518 -0.4469  0.0531
 3438TIP3   OH231872   2.222   1.549   0.525  0.3429  0.7224  0.1075
 3438TIP3    H131873   2.154   1.613   0.505 -0.8484 -0.7855 -0.9012
 3438TIP3    H231874   2.177   1.464   0.521  2.2393 -0.3211 -0.4766
 3439TIP3   OH231875   6.702   2.461   7.433 -0.1511 -0.3417  0.0173
 3439TIP3    H131876   6.719   2.551   7.460  0.4851 -0.8931  1.6225
 3439TIP3    H231877   6.788   2.419   7.434 -0.5810 -1.2451  0.4752
 3440TIP3   OH231878   0.686   1.650   0.723 -0.1737 -0.1002 -0.1440
 3440TIP3    H131879   0.672   1.556   0.710  4.1988 -0.5964 -3.6547
 3440TIP3    H231880   0.626   1.692   0.661  0.0738 -0.8173 -0.8867
 3441TIP3   OH231881   4.650   1.642   0.428  0.2630 -0.0749 -0.3092
 3441TIP3    H131882   4.706   1.707   0.386  0.0256  0.2843 -0.0701
 3441TIP3    H231883   4.661   1.563   0.375 -1.3264  0.8057 -2.0701
 3442TIP3   OH231884   3.733   0.926   1.863  0.1770  0.6043 -0.2012
 3442TIP3    H131885   3.760   0.853   1.808  1.0211  1.6995 -1.2997
 3442TIP3    H231886   3.787   0.999   1.834 -0.2445  1.5382  1.2505
 3443TIP3   OH231887   2.254   2.810   7.678 -0.0950  0.0505  0.1916
 3443TIP3    H131888   2.201   2.788   7.754  0.5227  1.5852  1.1050
 3443TIP3    H231889   2.210   2.885   7.638  0.0885 -0.1693 -0.4407
 3444TIP3   OH231890   3.182   1.845   0.701 -0.0933 -0.4754 -0.3409
 3444TIP3    H131891   3.213   1.803   0.781  3.5884  1.0946 -0.7408
 3444TIP3    H231892   3.210   1.785   0.631 -1.7052 -0.9621 -0.6215
 3445TIP3   OH231893   0.594   0.220   0.870  0.3225 -0.1419 -0.0021
 3445TIP3    H131894   0.683   0.188   0.858 -0.5399 -2.3086 -1.0168
 3445TIP3    H231895   0.571   0.260   0.786 -0.6655 -2.3132 -0.8271
 3446TIP3   OH231896   6.827   2.257   8.024 -0.0987 -0.4159  0.3898
 3446TIP3    H131897   6.890   2.266   7.952  1.4965 -0.7651  1.7005
 3446TIP3    H231898   6.831   2.165   8.048 -1.0505 -0.4161  0.5653
 3447TIP3   OH231899   0.381   4.851   1.978 -0.2325  0.7817 -0.1742
 3447TIP3    H131900   0.372   4.782   1.912  0.9247 -0.8294  1.2527
 3447TIP3    H231901   0.331   4.818   2.053  2.3298  0.2477  1.4149
 3448TIP3   OH231902   5.263   6.441   2.448 -0.4330  0.8576  0.2229
 3448TIP3    H131903   5.327   6.371   2.437  0.3411  1.3934  1.1173
 3448TIP3    H231904   5.313   6.514   2.487 -2.0108  0.4236  3.4657
 3449TIP3   OH231905   5.746   3.862   1.667 -0.0233 -0.0533  0.2349
 3449TIP3    H131906   5.777   3.950   1.687  0.9785 -0.8193  2.2837
 3449TIP3    H231907   5.660   3.856   1.709  0.3156 -0.3395  0.9003
 3450TIP3   OH231908   2.831   2.864   0.962 -0.0595  0.1023  0.5215
 3450TIP3    H131909   2.888   2.829   0.894 -1.5635  0.4436 -0.9937
 3450TIP3    H231910   2.890   2.903   1.026  1.4185 -0.5554 -0.3947
 3451TIP3   OH231911   2.263   0.143   0.309 -0.1127  0.1893 -0.6583
 3451TIP3    H131912   2.278   0.060   0.264 -1.2314  0.2677 -1.2058
 3451TIP3    H231913   2.330   0.146   0.378  1.7192  0.1225 -2.3622
 3452TIP3   OH231914   6.001   0.190   1.405 -0.2596  0.2051  0.4247
 3452TIP3    H131915   5.972   0.221   1.491 -0.5389 -0.8795  0.7456
 3452TIP3    H231916   5.924   0.146   1.369 -0.5706  1.8411 -1.0003
 3453TIP3   OH231917   0.692   5.611   2.203  0.2043  0.0867 -0.0848
 3453TIP3    H131918   0.678   5.658   2.121 -2.0329  2.5404  1.5271
 3453TIP3    H231919   0.757   5.663   2.250  2.8638 -2.2818 -0.8664
 3454TIP3   OH231920   0.283   6.896   7.333 -0.4157 -0.5258 -0.0855
 3454TIP3    H131921   0.198   6.854   7.335 -1.3361  1.2433  0.0048
 3454TIP3    H231922   0.276   6.962   7.263  0.3011  0.7248  0.9692
 3455TIP3   OH231923   1.025   0.973   6.860 -0.4695 -0.0517  0.0924
 3455TIP3    H131924   0.946   0.993   6.809  1.1330  0.1145 -2.5045
 3455TIP3    H231925   1.059   1.059   6.885 -0.2655 -0.0522 -0.1811
 3456TIP3   OH231926   6.604   6.568   7.726  0.1655  0.0758 -0.1992
 3456TIP3    H131927   6.556   6.605   7.799 -0.5999  0.1135 -0.7128
 3456TIP3    H231928   6.587   6.627   7.653  2.1186  0.8615 -0.0697
 3457TIP3   OH231929   3.790   6.359   1.821 -0.3369 -0.6500  0.1796
 3457TIP3    H131930   3.820   6.300   1.889  3.0209  0.8218  0.1510
 3457TIP3    H231931   3.782   6.444   1.865  2.2364  0.4012 -1.1916
 3458TIP3   OH231932   0.727   4.887   8.169  0.3506 -0.5656 -0.2609
 3458TIP3    H131933   0.756   4.916   8.083 -1.0516 -0.6829 -0.7954
 3458TIP3    H231934   0.647   4.838   8.153 -0.3336  0.0061  1.1656
 3459TIP3   OH231935   6.394   0.182   1.590  0.4716  0.1894  0.2063
 3459TIP3    H131936   6.313   0.133   1.575 -0.8614  1.9212  1.3233
 3459TIP3    H231937   6.452   0.155   1.519 -0.0639 -3.1060  0.8439
 3460TIP3   OH231938   5.658   6.536   0.650  0.0805 -0.0095  0.3381
 3460TIP3    H131939   5.615   6.614   0.686 -0.2259 -0.1942  0.3717
 3460TIP3    H231940   5.730   6.519   0.711 -0.4690 -0.3571  0.9079
 3461TIP3   OH231941   4.791   1.270   6.924 -0.1931  0.3025  1.0431
 3461TIP3    H131942   4.707   1.226   6.914 -1.4757  2.1431  2.6691
 3461TIP3    H231943   4.839   1.250   6.844 -1.7828 -1.6062  0.4829
 3462TIP3   OH231944   5.130   6.064   0.100 -0.2965 -0.5445 -0.2006
 3462TIP3    H131945   5.160   6.059   0.191 -0.2205 -0.2003 -0.2059
 3462TIP3    H231946   5.209   6.084   0.049 -0.1258 -1.8231 -0.4829
 3463TIP3   OH231947   0.460   4.761   6.904 -0.3011 -0.0783 -0.1164
 3463TIP3    H131948   0.384   4.729   6.953  0.0592  1.4930  1.5775
 3463TIP3    H231949   0.423   4.817   6.836 -0.6950  0.5204  0.5774
 3464TIP3   OH231950   3.656   1.731   0.888  0.6881 -0.5818  0.0963
 3464TIP3    H131951   3.752   1.733   0.884  0.7271 -0.3895  1.0345
 3464TIP3    H231952   3.629   1.778   0.809  1.3675 -0.4667 -0.0811
 3465TIP3   OH231953   4.888   3.347   7.539  0.1383 -0.8764 -0.0156
 3465TIP3    H131954   4.972   3.370   7.499 -0.2115  0.2993 -0.0851
 3465TIP3    H231955   4.872   3.257   7.510  1.0344 -0.8692 -0.5672
 3466TIP3   OH231956   5.763   4.548   0.773  0.1259 -0.4823  0.2297
 3466TIP3    H131957   5.783   4.604   0.698  0.2280 -0.8698 -0.0380
 3466TIP3    H231958   5.676   4.577   0.802 -0.6454 -1.3637 -1.0423
 3467TIP3   OH231959   4.145   5.423   7.530 -0.3443 -0.5969  0.0803
 3467TIP3    H131960   4.203   5.462   7.464 -0.9769  2.2811  1.0501
 3467TIP3    H231961   4.069   5.394   7.480 -1.2023  2.3261 -0.5358
 3468TIP3   OH231962   0.381   4.223   6.480 -0.3653  0.2046 -0.0759
 3468TIP3    H131963   0.453   4.240   6.541 -0.0584 -0.5201 -0.2199
 3468TIP3    H231964   0.302   4.242   6.529 -0.1061  0.0381  0.4108
 3469TIP3   OH231965   2.783   5.156   2.184  0.1490 -0.2372 -0.0580
 3469TIP3    H131966   2.699   5.118   2.159 -0.1522  0.3954 -0.0347
 3469TIP3    H231967   2.761   5.219   2.253  0.6323 -0.0192 -0.1006
 3470TIP3   OH231968   0.512   3.254   2.282 -0.0517 -0.2020  0.3533
 3470TIP3    H131969   0.493   3.229   2.373 -1.9306 -0.7961 -0.1566
 3470TIP3    H231970   0.507   3.350   2.283  1.1234 -0.1308  1.0951
 3471TIP3   OH231971   5.173   0.201   7.170 -0.3136  0.5944  0.2717
 3471TIP3    H131972   5.098   0.251   7.201  0.0397  1.2911  0.0258
 3471TIP3    H231973   5.182   0.130   7.234 -2.1738 -0.5041 -0.6037
 3472TIP3   OH231974   3.338   4.116   0.808 -0.6495 -0.4242  0.1896
 3472TIP3    H131975   3.363   4.099   0.718 -0.6464 -1.3378  0.3592
 3472TIP3    H231976   3.286   4.040   0.834 -2.9939  1.0500  0.0956
 3473TIP3   OH231977   0.979   4.727   7.803 -0.1604  0.1970 -0.0628
 3473TIP3    H131978   1.071   4.738   7.781 -0.3816  0.4298 -0.8830
 3473TIP3    H231979   0.977   4.647   7.856  0.6349  0.7413  0.8189
 3474TIP3   OH231980   4.619   0.400   0.210 -0.0165 -0.1370  0.2324
 3474TIP3    H131981   4.567   0.323   0.188 -1.3499  0.7080  0.3641
 3474TIP3    H231982   4.676   0.371   0.282 -1.3187 -0.6832  1.0699
 3475TIP3   OH231983   6.959   0.003   7.443  0.0250  0.1621  0.1960
 3475TIP3    H131984   7.010  -0.030   7.369  1.6934  2.9979 -0.0884
 3475TIP3    H231985   6.978  -0.056   7.515  2.7999  0.3730 -0.2629
 3476TIP3   OH231986   0.302   2.449   8.227  0.1654  0.1471 -0.3019
 3476TIP3    H131987   0.221   2.498   8.215 -0.1506 -0.8715 -2.7800
 3476TIP3    H231988   0.368   2.499   8.178  0.5144 -0.3424 -0.3323
 3477TIP3   OH231989   0.252   3.749   6.764 -0.1508 -0.6825  0.3859
 3477TIP3    H131990   0.220   3.732   6.675 -0.6734 -2.5052  0.8882
 3477TIP3    H231991   0.333   3.798   6.751 -0.4003 -0.6184 -1.0863
 3478TIP3   OH231992   5.025   2.015   1.663 -0.3319 -0.1339 -0.0359
 3478TIP3    H131993   5.107   2.046   1.626 -0.4121  0.0017 -0.1004
 3478TIP3    H231994   5.017   2.060   1.747  0.1241 -0.8606  0.4103
 3479TIP3   OH231995   4.604   1.787   8.343 -0.6594  0.1437 -0.2553
 3479TIP3    H131996   4.691   1.823   8.357 -0.4695  0.5805 -2.2322
 3479TIP3    H231997   4.544   1.858   8.368 -0.5051 -0.2764  1.4321
 3480TIP3   OH231998   4.472   2.576   0.753  0.1194  0.1180  0.3155
 3480TIP3    H131999   4.542   2.616   0.803  0.6432  0.8127 -0.9321
 3480TIP3    H232000   4.514   2.506   0.704 -0.1032  0.3575 -0.2284
 3481TIP3   OH232001   2.152   5.554   1.133 -0.3365 -0.2791 -0.0221
 3481TIP3    H132002   2.074   5.604   1.158 -0.7889  0.3354 -2.4124
 3481TIP3    H232003   2.219   5.620   1.120 -0.3485 -0.4745 -1.1458
 3482TIP3   OH232004   1.249   3.975   6.156 -0.2140  0.3105  0.6817
 3482TIP3    H132005   1.179   4.032   6.188 -0.3161  0.3568  0.3796
 3482TIP3    H232006   1.205   3.892   6.138 -0.4691  0.7388 -0.8019
 3483TIP3   OH232007   5.776   5.645   0.538 -0.5048  0.5282  0.0414
 3483TIP3    H132008   5.736   5.719   0.583  0.5136 -0.0174  1.9500
 3483TIP3    H232009   5.865   5.640   0.573 -0.0666 -0.7171 -1.1346
 3484TIP3   OH232010   2.081   4.477   1.823 -0.3259 -0.9362 -0.4133
 3484TIP3    H132011   2.150   4.441   1.878 -1.2052  1.3368  2.4597
 3484TIP3    H232012   2.113   4.466   1.733  2.9757 -1.4464  0.6962
 3485TIP3   OH232013   6.092   6.980   8.025 -1.0676  0.2313 -0.3784
 3485TIP3    H132014   6.071   6.899   7.978  2.1463 -1.8988  1.4139
 3485TIP3    H232015   6.164   7.019   7.975  0.1970 -0.3401  0.9060
 3486TIP3   OH232016   2.542   6.586   0.735 -0.5017 -0.1112 -0.6902
 3486TIP3    H132017   2.637   6.601   0.741 -0.2965 -0.3173 -2.6664
 3486TIP3    H232018   2.535   6.496   0.705 -1.2191  0.4990 -2.4979
 3487TIP3   OH232019   5.619   0.819   0.422 -0.2774  0.0930 -0.2744
 3487TIP3    H132020   5.537   0.839   0.467 -1.0420 -1.6964 -0.8103
 3487TIP3    H232021   5.687   0.834   0.488 -1.2027 -0.3695  0.8155
 3488TIP3   OH232022   6.367   3.546   1.892  0.2045  0.2493 -0.2338
 3488TIP3    H132023   6.454   3.526   1.858  0.1720 -0.2854 -0.0132
 3488TIP3    H232024   6.337   3.621   1.840  0.2837 -0.3413 -1.1523
 3489TIP3   OH232025   6.823   4.463   2.210  0.2167 -0.6296 -0.1642
 3489TIP3    H132026   6.874   4.427   2.282 -0.6065 -0.2021  0.6527
 3489TIP3    H232027   6.752   4.400   2.197 -1.1543  0.5744  1.1846
 3490TIP3   OH232028   3.803   1.721   1.169 -0.0354 -0.3795  0.4203
 3490TIP3    H132029   3.751   1.704   1.247  0.3067  0.3201  0.8100
 3490TIP3    H232030   3.756   1.677   1.098 -1.1800  0.2771  0.7527
 3491TIP3   OH232031   4.484   4.830   1.649  0.1088 -0.0313  0.1488
 3491TIP3    H132032   4.486   4.865   1.738  0.4467 -2.1109  1.0170
 3491TIP3    H232033   4.575   4.815   1.627  0.1127  1.4155 -1.0089
 3492TIP3   OH232034   1.215   2.405   1.518  0.1771  0.8877 -0.4436
 3492TIP3    H132035   1.154   2.477   1.501 -0.7675  0.0577 -0.6253
 3492TIP3    H232036   1.295   2.431   1.473 -0.5445  1.2497 -1.5711
 3493TIP3   OH232037   0.061   3.336   0.190  0.0566  0.0179  0.0935
 3493TIP3    H132038   0.118   3.285   0.133  0.3915 -0.2063  0.6231
 3493TIP3    H232039   0.044   3.417   0.140 -1.1005 -0.8973 -1.0754
 3494TIP3   OH232040   2.500   3.428   0.751 -0.6950  0.7540 -0.0665
 3494TIP3    H132041   2.510   3.362   0.683  1.2942  0.2351  0.6721
 3494TIP3    H232042   2.478   3.509   0.704  1.2377  0.5548 -1.4144
 3495TIP3   OH232043   2.406   2.150   1.834 -0.9375  0.5473  0.3501
 3495TIP3    H132044   2.357   2.075   1.867  0.1703 -0.2361  0.2682
 3495TIP3    H232045   2.340   2.220   1.826 -1.9227 -0.3055  0.7356
 3496TIP3   OH232046   0.146   3.805   2.548  0.3574 -0.0921  0.2613
 3496TIP3    H132047   0.216   3.771   2.491  0.1131 -0.0712 -0.0590
 3496TIP3    H232048   0.066   3.769   2.509  0.1478  0.3430  0.2920
 3497TIP3   OH232049   5.974   2.496   6.646 -0.7378  0.1536  0.4008
 3497TIP3    H132050   5.989   2.433   6.717 -0.2696 -0.8335 -0.5425
 3497TIP3    H232051   5.960   2.441   6.568  0.3877  1.2169 -0.5914
 3498TIP3   OH232052   1.432   3.307   2.109  0.4505 -0.3059  0.0918
 3498TIP3    H132053   1.372   3.244   2.147  0.9851 -0.0533  1.3898
 3498TIP3    H232054   1.485   3.338   2.182 -0.1765  2.0780 -0.3701
 3499TIP3   OH232055   3.792   1.755   1.999  0.2972 -0.2110 -0.0996
 3499TIP3    H132056   3.802   1.803   1.917  0.1317 -0.0026  0.0009
 3499TIP3    H232057   3.786   1.663   1.973 -4.1809  0.0406 -0.7470
 3500TIP3   OH232058   6.595   0.309   0.636 -0.4408 -0.0203  0.1251
 3500TIP3    H132059   6.501   0.326   0.648 -0.5312 -0.6840  0.4398
 3500TIP3    H232060   6.617   0.351   0.554 -1.2581 -0.7213 -0.4685
 3501TIP3   OH232061   5.227   4.275   0.220  0.3560 -0.1803  0.2067
 3501TIP3    H132062   5.313   4.237   0.201  0.1576  0.2757 -1.7732
 3501TIP3    H232063   5.235   4.366   0.194 -0.2784  0.2715  1.5072
 3502TIP3   OH232064   5.498   5.492   8.250  0.3498 -0.4878 -0.1650
 3502TIP3    H132065   5.541   5.415   8.287 -2.0184 -1.7417  0.2149
 3502TIP3    H232066   5.460   5.461   8.167 -0.0282  0.4612 -0.3587
 3503TIP3   OH232067   6.536   1.207   1.920 -0.4898  0.8150  0.0180
 3503TIP3    H132068   6.612   1.203   1.979 -0.2381 -0.5152 -0.3582
 3503TIP3    H232069   6.475   1.143   1.956  0.0435 -0.7014 -1.6177
 3504TIP3   OH232070   6.180   5.679   1.829 -0.2017  0.0675 -0.3218
 3504TIP3    H132071   6.123   5.708   1.901  1.5449 -2.1972  2.1900
 3504TIP3    H232072   6.122   5.631   1.770 -1.4998  0.9407  0.2050
 3505TIP3   OH232073   0.959   4.825   1.505  0.1069  0.2927 -0.1597
 3505TIP3    H132074   0.922   4.737   1.497  2.2468 -0.7607  0.6536
 3505TIP3    H232075   1.030   4.828   1.440  1.1093  0.7975  0.9101
 3506TIP3   OH232076   3.101   0.766   6.644  0.5490  0.7289  0.6884
 3506TIP3    H132077   3.109   0.861   6.647 -0.1912  0.9414 -1.9849
 3506TIP3    H232078   3.008   0.750   6.626  1.1133 -0.3288 -1.6679
 3507TIP3   OH232079   3.356   6.805   2.577 -0.1477 -0.7729  0.0935
 3507TIP3    H132080   3.298   6.868   2.619 -1.2750 -1.6069 -0.1683
 3507TIP3    H232081   3.443   6.846   2.581 -0.9106  0.9842 -0.4574
 3508TIP3   OH232082   0.803   3.058   7.821  0.5594  0.2082  0.3148
 3508TIP3    H132083   0.758   3.143   7.817  1.2851  0.5652 -0.6387
 3508TIP3    H232084   0.896   3.080   7.826  0.7413 -0.5300  0.3149
 3509TIP3   OH232085   2.580   5.494   6.812 -0.1203  0.3522 -0.3580
 3509TIP3    H132086   2.606   5.576   6.854  0.2731 -0.9545  2.1409
 3509TIP3    H232087   2.486   5.503   6.798 -0.1489  1.0801  0.2333
 3510TIP3   OH232088   4.159   0.398   7.151 -0.5908  0.0402  0.3730
 3510TIP3    H132089   4.157   0.452   7.073 -1.3192  1.2609  1.1956
 3510TIP3    H232090   4.130   0.312   7.122  0.9643 -0.0645 -1.0449
 3511TIP3   OH232091   0.240   3.001   7.131 -0.1131 -0.5489  0.3748
 3511TIP3    H132092   0.146   3.013   7.119 -0.3551 -1.3553  1.2732
 3511TIP3    H232093   0.247   2.944   7.208  1.1343  0.2544  0.8946
 3512TIP3   OH232094   0.920   1.857   6.953 -0.0554 -0.0957  0.2235
 3512TIP3    H132095   0.920   1.934   6.896  1.2118  0.3940  0.8354
 3512TIP3    H232096   0.981   1.796   6.912  0.1168 -0.1404  0.5409
 3513TIP3   OH232097   5.598   6.531   1.590  0.0544  0.0179  0.8597
 3513TIP3    H132098   5.680   6.560   1.629 -0.2205 -2.1040  3.3170
 3513TIP3    H232099   5.625   6.469   1.522  0.4742  2.0949 -1.0097
 3514TIP3   OH232100   0.149   5.465   7.491  0.4320 -0.0680  0.5323
 3514TIP3    H132101   0.170   5.557   7.507 -0.5903  0.2455  0.1537
 3514TIP3    H232102   0.071   5.468   7.435  2.2335 -1.0984 -2.2592
 3515TIP3   OH232103   4.969   6.436   1.250 -0.1798  0.0728  0.2398
 3515TIP3    H132104   5.003   6.495   1.318  0.8431 -0.0654 -0.1313
 3515TIP3    H232105   4.896   6.484   1.211  0.7870  1.2381 -0.2334
 3516TIP3   OH232106   2.867   3.620   6.879 -0.3116 -0.0624 -0.2267
 3516TIP3    H132107   2.872   3.524   6.872  0.5192 -0.0418 -0.0304
 3516TIP3    H232108   2.775   3.640   6.861 -0.3571 -0.8398 -0.9599
 3517TIP3   OH232109   6.332   3.499   0.437 -0.1376  0.4027  0.4767
 3517TIP3    H132110   6.407   3.489   0.495  0.8224 -0.1409 -0.8190
 3517TIP3    H232111   6.320   3.413   0.397 -0.4897  0.8648 -0.4575
 3518TIP3   OH232112   6.618   5.817   7.627  0.0602  0.0405  0.1510
 3518TIP3    H132113   6.691   5.772   7.669 -0.7244  1.0865  2.8858
 3518TIP3    H232114   6.570   5.748   7.581  2.1733 -0.8131 -0.8644
 3519TIP3   OH232115   1.535   1.945   0.667  0.2335  0.1607  0.0350
 3519TIP3    H132116   1.457   1.894   0.689  0.1938  0.2330  0.0631
 3519TIP3    H232117   1.521   1.971   0.576  0.7553 -0.7853 -0.3280
 3520TIP3   OH232118   6.490   4.115   6.825 -0.1340  0.2193  0.5582
 3520TIP3    H132119   6.508   4.209   6.828 -2.5152  0.8510 -1.5940
 3520TIP3    H232120   6.531   4.086   6.743  0.4044 -0.6248  1.1055
 3521TIP3   OH232121   2.499   5.561   2.269  0.3304 -0.1979  0.0135
 3521TIP3    H132122   2.437   5.523   2.331 -0.9895  1.3404 -0.2778
 3521TIP3    H232123   2.444   5.611   2.208  1.7613  0.0972 -1.1009
 3522TIP3   OH232124   3.226   4.595   7.752 -0.1975 -0.3383 -0.2807
 3522TIP3    H132125   3.165   4.569   7.683  0.1301 -0.3689 -0.5592
 3522TIP3    H232126   3.271   4.671   7.717 -1.0307  0.5189  0.4686
 3523TIP3   OH232127   4.152   2.822   0.526  0.1482 -0.2757 -0.1426
 3523TIP3    H132128   4.157   2.770   0.606 -2.9691 -0.7869 -0.1478
 3523TIP3    H232129   4.195   2.904   0.548  1.5906 -1.3292  1.1846
 3524TIP3   OH232130   0.148   0.827   1.494  0.1267 -0.7516  0.2660
 3524TIP3    H132131   0.118   0.779   1.417 -1.1469 -0.6216  0.6467
 3524TIP3    H232132   0.214   0.887   1.461 -0.7659 -0.3255 -0.8329
 3525TIP3   OH232133   4.571   4.009   8.003 -0.3942 -0.4947  0.1305
 3525TIP3    H132134   4.538   4.057   8.079  0.4420  1.9782 -0.9684
 3525TIP3    H232135   4.658   4.046   7.987 -0.6359 -0.7478 -2.1598
 3526TIP3   OH232136   2.502   4.698   1.248  0.0929 -0.2298  0.0941
 3526TIP3    H132137   2.520   4.753   1.324  2.0790 -1.1005  0.3100
 3526TIP3    H232138   2.471   4.758   1.181 -1.1787  0.6305  1.4064
 3527TIP3   OH232139   2.720   4.357   7.908 -0.3554  0.1428 -0.0413
 3527TIP3    H132140   2.667   4.436   7.895  0.8648  1.6183  2.9460
 3527TIP3    H232141   2.666   4.301   7.964 -0.6054 -0.5074 -0.9096
 3528TIP3   OH232142   4.782   4.051   1.132 -0.3899  0.3832  0.0599
 3528TIP3    H132143   4.861   4.025   1.180 -0.2954 -1.0213 -0.7901
 3528TIP3    H232144   4.713   3.993   1.167 -0.7491  0.6825 -0.1431
 3529TIP3   OH232145   4.865   4.008   6.725  0.2292  0.0597  0.1876
 3529TIP3    H132146   4.907   4.070   6.785 -1.8696  2.1661 -0.3472
 3529TIP3    H232147   4.937   3.964   6.681  1.8458  2.2614  0.4792
 3530TIP3   OH232148   0.537   2.609   7.755  0.0529 -0.7561  0.3083
 3530TIP3    H132149   0.533   2.694   7.712 -2.1928 -0.7215  0.4285
 3530TIP3    H232150   0.583   2.626   7.837 -2.3960  0.9979  1.4788
 3531TIP3   OH232151   2.182   5.443   7.039 -0.2354 -0.6999  0.1399
 3531TIP3    H132152   2.223   5.474   6.958 -1.0175  0.2175  0.0829
 3531TIP3    H232153   2.256   5.417   7.094  0.4799  1.2213  0.1696
 3532TIP3   OH232154   5.370   6.029   8.323  0.0947 -0.4354  0.3940
 3532TIP3    H132155   5.323   6.064   8.247  0.4674 -0.7527  0.0086
 3532TIP3    H232156   5.382   5.936   8.303  2.0900 -0.1101 -0.1945
 3533TIP3   OH232157   4.534   3.177   7.284  0.4301 -0.0721 -0.2329
 3533TIP3    H132158   4.473   3.142   7.220 -2.1282  0.7166  1.6186
 3533TIP3    H232159   4.602   3.110   7.292 -1.6202 -2.2730 -0.4289
 3534TIP3   OH232160   2.975   1.686   0.934  0.1636 -0.3295  0.2464
 3534TIP3    H132161   3.053   1.734   0.962  0.6498  0.0076 -1.5479
 3534TIP3    H232162   2.903   1.746   0.954  0.5551  0.2003  0.1110
 3535TIP3   OH232163   6.228   3.061   2.302 -0.3316 -0.4912  0.2783
 3535TIP3    H132164   6.154   3.119   2.321 -0.2776 -0.3600  0.0975
 3535TIP3    H232165   6.256   3.028   2.388 -2.2485 -2.6183  0.1682
 3536TIP3   OH232166   1.193   1.331   8.320  0.2650  0.0060  0.1301
 3536TIP3    H132167   1.263   1.385   8.284  0.4525 -0.2007  0.1844
 3536TIP3    H232168   1.148   1.296   8.244 -1.2472  1.9792  0.0213
 3537TIP3   OH232169   2.943   3.672   7.145  0.5493  0.1280 -0.6893
 3537TIP3    H132170   2.961   3.587   7.184  1.4750  0.8066  0.4369
 3537TIP3    H232171   2.929   3.654   7.053  0.8411 -1.2281 -0.4854
 3538TIP3   OH232172   6.756   2.080   0.570  0.8232 -0.6872  0.6488
 3538TIP3    H132173   6.781   2.119   0.654  3.8167 -1.5852  0.2970
 3538TIP3    H232174   6.771   2.149   0.506 -1.5423  0.0261  0.7579
 3539TIP3   OH232175   0.297   0.911   0.893  0.2781  0.6682 -0.0746
 3539TIP3    H132176   0.235   0.983   0.882  0.1120  0.7270  1.1328
 3539TIP3    H232177   0.376   0.952   0.927 -0.1871  0.1744  1.7043
 3540TIP3   OH232178   3.511   3.464   0.492  0.1929  0.1991 -0.3330
 3540TIP3    H132179   3.600   3.441   0.463 -0.4954 -1.3687 -1.3288
 3540TIP3    H232180   3.481   3.387   0.540 -0.8773  0.4603 -0.5670
 3541TIP3   OH232181   0.956   3.692   1.798 -0.0306 -0.4534 -0.1027
 3541TIP3    H132182   1.036   3.721   1.841  0.6849 -0.7468 -1.2036
 3541TIP3    H232183   0.968   3.597   1.786 -0.1022 -0.3418 -1.1578
 3542TIP3   OH232184   2.903   6.420   7.987 -0.6014  0.2697  0.2592
 3542TIP3    H132185   2.886   6.329   7.961  0.0627 -0.3171  1.7714
 3542TIP3    H232186   2.975   6.448   7.930 -0.8159 -0.1293 -0.2237
 3543TIP3   OH232187   3.520   3.407   1.123  0.0825  0.0158 -0.0233
 3543TIP3    H132188   3.548   3.497   1.105 -0.3678  0.0331 -0.6401
 3543TIP3    H232189   3.456   3.415   1.193  0.9918  0.0510  0.8294
 3544TIP3   OH232190   2.519   4.215   0.547 -0.4849  0.5310 -0.6441
 3544TIP3    H132191   2.440   4.268   0.547 -0.2981  0.8467  0.4193
 3544TIP3    H232192   2.535   4.197   0.640 -0.7453 -1.7081 -0.9828
 3545TIP3   OH232193   4.318   5.475   7.268 -0.5790  0.4453 -1.0474
 3545TIP3    H132194   4.291   5.564   7.247 -1.1923  0.5988  0.2996
 3545TIP3    H232195   4.410   5.471   7.240 -0.3421  1.7178 -0.5435
 3546TIP3   OH232196   2.672   2.645   1.015 -0.5250 -0.5457  0.1687
 3546TIP3    H132197   2.581   2.657   1.041  0.1437  0.6725  2.2266
 3546TIP3    H232198   2.711   2.732   1.021  0.9963 -1.1979  0.2913
 3547TIP3   OH232199   4.904   6.160   0.304  0.8093  0.1364  0.5428
 3547TIP3    H132200   4.823   6.157   0.252 -0.9716  0.4180  3.0774
 3547TIP3    H232201   4.941   6.246   0.285  0.1725  0.2634 -0.2052
 3548TIP3   OH232202   5.894   0.142   8.074 -0.5147  0.2973 -0.4656
 3548TIP3    H132203   5.910   0.236   8.062 -0.3280  0.4974  1.1624
 3548TIP3    H232204   5.980   0.102   8.064  0.2155  0.7894  2.8944
 3549TIP3   OH232205   5.193   1.454   2.236  0.1888  0.2852 -0.3332
 3549TIP3    H132206   5.148   1.537   2.249 -0.5053 -0.1021 -0.1654
 3549TIP3    H232207   5.189   1.410   2.321  1.1729  0.3693 -0.2305
 3550TIP3   OH232208   1.243   4.649   7.320  0.2881 -0.2756  0.0370
 3550TIP3    H132209   1.174   4.715   7.323 -1.1134 -1.6293 -0.9257
 3550TIP3    H232210   1.302   4.679   7.251  0.0347  0.2967  0.0627
 3551TIP3   OH232211   1.039   2.062   6.295 -0.5984  0.5174 -0.1428
 3551TIP3    H132212   0.975   2.036   6.229 -0.8193  0.9232 -0.0898
 3551TIP3    H232213   1.020   2.155   6.311 -0.0479  0.6185 -0.0738
 3552TIP3   OH232214   2.957   5.509   6.905  0.6394 -0.1697 -0.1864
 3552TIP3    H132215   2.975   5.591   6.860 -1.1436 -0.8585 -2.2871
 3552TIP3    H232216   2.863   5.510   6.922  0.7377 -1.3947  0.5921
 3553TIP3   OH232217   2.653   2.472   7.774  0.7057  0.1617 -0.2412
 3553TIP3    H132218   2.692   2.450   7.859 -0.9048  2.2592  1.1354
 3553TIP3    H232219   2.721   2.522   7.728  0.6780  1.3648  0.9714
 3554TIP3   OH232220   2.774   5.560   0.630 -0.0817 -0.1054 -0.1258
 3554TIP3    H132221   2.715   5.557   0.556 -1.3665  0.8415  0.8117
 3554TIP3    H232222   2.786   5.653   0.647  1.1995 -0.2886  0.0997
 3555TIP3   OH232223   0.864   0.704   1.145 -0.1388  0.0412  0.3456
 3555TIP3    H132224   0.901   0.763   1.211 -0.2796  0.2589  0.2309
 3555TIP3    H232225   0.940   0.678   1.092  0.1071 -0.7502  1.0596
 3556TIP3   OH232226   3.128   6.571   7.628 -0.5037  0.2780  0.2352
 3556TIP3    H132227   3.168   6.533   7.550  1.8805 -0.0239  1.5146
 3556TIP3    H232228   3.110   6.495   7.684  0.1427  0.6557  0.9736
 3557TIP3   OH232229   0.113   0.493   7.575  0.3418 -0.3708 -0.4158
 3557TIP3    H132230   0.076   0.411   7.543  0.5447  0.3848 -2.8310
 3557TIP3    H232231   0.097   0.555   7.504  0.9242  1.4809  0.9955
 3558TIP3   OH232232   4.572   6.718   7.282  0.0053 -0.0075 -0.5247
 3558TIP3    H132233   4.488   6.723   7.237 -0.5637 -1.5488  0.2845
 3558TIP3    H232234   4.635   6.699   7.213 -0.8339 -2.2479 -0.7595
 3559TIP3   OH232235   0.437   3.034   1.080 -0.1687 -0.0137 -0.2706
 3559TIP3    H132236   0.371   3.008   1.016  1.0410 -3.4093 -0.3069
 3559TIP3    H232237   0.510   3.067   1.028 -1.0029  1.9640 -0.3001
 3560TIP3   OH232238   0.395   1.265   6.591  0.2052  0.0580 -0.1837
 3560TIP3    H132239   0.319   1.316   6.564 -1.6021 -1.2218  2.0960
 3560TIP3    H232240   0.392   1.187   6.536 -1.4220 -0.9225  1.1630
 3561TIP3   OH232241   2.572   0.323   2.100 -0.1905  0.3744 -0.3672
 3561TIP3    H132242   2.628   0.303   2.174  1.1130  1.0780 -1.1228
 3561TIP3    H232243   2.618   0.286   2.024 -1.1331  0.2888 -0.9210
 3562TIP3   OH232244   4.792   3.820   6.985 -0.3363 -0.0210 -0.3558
 3562TIP3    H132245   4.733   3.892   7.005  0.9342  0.8624  0.3399
 3562TIP3    H232246   4.841   3.849   6.909  0.7124  0.2078  0.3794
 3563TIP3   OH232247   4.086   3.362   0.288 -0.0968  0.0487 -0.4850
 3563TIP3    H132248   4.094   3.405   0.374 -0.5846 -0.4655 -0.1782
 3563TIP3    H232249   4.125   3.276   0.301  2.2456  0.8729 -1.4931
 3564TIP3   OH232250   4.935   6.734   1.146  0.2604  0.0390  0.4088
 3564TIP3    H132251   4.986   6.724   1.226 -0.1957 -1.2930  0.5597
 3564TIP3    H232252   4.985   6.686   1.080  1.0211  1.7489 -0.3174
 3565TIP3   OH232253   5.485   4.213   0.164 -0.2425 -0.3271  0.2814
 3565TIP3    H132254   5.497   4.133   0.115 -0.2234  0.2134 -0.6141
 3565TIP3    H232255   5.550   4.210   0.234  1.1905 -0.1151 -1.0111
 3566TIP3   OH232256   4.284   5.809   8.052  0.2094 -0.0258 -0.1435
 3566TIP3    H132257   4.345   5.868   8.006 -1.5984  2.2927  0.2297
 3566TIP3    H232258   4.229   5.773   7.983  1.4458 -1.5391 -0.3960
 3567TIP3   OH232259   4.591   2.971   8.112  0.4305 -0.2252  0.3662
 3567TIP3    H132260   4.685   2.955   8.117  0.6864  0.6296 -1.2443
 3567TIP3    H232261   4.581   3.043   8.049 -1.5033 -2.5465 -2.2251
 3568TIP3   OH232262   2.629   2.148   8.105 -0.0311 -0.0552 -0.2715
 3568TIP3    H132263   2.586   2.071   8.141 -0.7770  0.6616  0.3897
 3568TIP3    H232264   2.712   2.115   8.071 -0.5757 -1.2414 -0.4871
 3569TIP3   OH232265   6.876   3.668   2.016 -0.4481 -0.4704 -0.3536
 3569TIP3    H132266   6.931   3.673   2.094  2.0958 -1.6201 -1.9345
 3569TIP3    H232267   6.869   3.758   1.986  1.4577 -0.3699 -0.6169
 3570TIP3   OH232268   3.922   2.345   7.211 -0.0075  0.1076  0.1252
 3570TIP3    H132269   3.948   2.255   7.231 -0.6272  0.2407  1.7196
 3570TIP3    H232270   3.866   2.338   7.134 -1.9959 -1.2265  1.5994
 3571TIP3   OH232271   4.645   6.877   7.993  0.0115 -0.0883 -0.4736
 3571TIP3    H132272   4.640   6.968   8.025 -0.0465  0.3299 -1.6111
 3571TIP3    H232273   4.637   6.824   8.072 -0.3571  0.8913  0.1786
 3572TIP3   OH232274   4.933   3.084   1.129 -0.7447 -0.1018 -0.0955
 3572TIP3    H132275   4.926   2.990   1.146 -1.0216 -0.2035 -0.7756
 3572TIP3    H232276   4.984   3.091   1.049 -1.6477  0.2870 -0.6528
 3573TIP3   OH232277   6.374   2.484   6.666 -0.3734  0.8008 -0.4894
 3573TIP3    H132278   6.317   2.446   6.733  0.7324 -3.7523 -1.7153
 3573TIP3    H232279   6.451   2.515   6.714 -0.6212 -0.1420  0.5653
 3574TIP3   OH232280   1.256   4.584   1.278  0.5632 -0.0114  0.4412
 3574TIP3    H132281   1.192   4.577   1.349  0.0009  0.5325  0.0117
 3574TIP3    H232282   1.204   4.572   1.198  0.9330  0.7685  0.0712
 3575TIP3   OH232283   4.902   6.630   7.637 -0.0801  0.2452  0.8121
 3575TIP3    H132284   4.887   6.723   7.653  1.6934  0.7023  0.0464
 3575TIP3    H232285   4.946   6.626   7.553  2.7612 -0.9608  2.2040
 3576TIP3   OH232286   0.286   5.028   2.950  0.0535 -0.3125  0.6057
 3576TIP3    H132287   0.207   5.059   2.907  0.1816  1.6508  1.6417
 3576TIP3    H232288   0.259   4.949   2.997 -0.7430 -0.8839 -0.7692
 3577TIP3   OH232289   3.835   3.597   6.351 -0.3949  0.6993  0.4171
 3577TIP3    H132290   3.914   3.572   6.399  0.0498 -0.6457 -0.9284
 3577TIP3    H232291   3.790   3.513   6.334 -0.7618  1.1687 -1.0853
 3578TIP3   OH232292   4.682   3.510   0.179  0.4751  0.0298  0.3737
 3578TIP3    H132293   4.602   3.544   0.217 -0.6441 -1.1580 -0.8076
 3578TIP3    H232294   4.699   3.567   0.103  2.3336  1.9811  2.1141
 3579TIP3   OH232295   1.001   5.608   1.043  0.0834  0.0330  0.5723
 3579TIP3    H132296   1.029   5.563   1.123  1.7006 -0.6254 -0.2931
 3579TIP3    H232297   1.028   5.548   0.973 -2.5516 -0.0727 -0.4476
 3580TIP3   OH232298   2.003   5.360   0.445 -0.5150  0.1557  0.0036
 3580TIP3    H132299   1.921   5.352   0.494 -0.4468  0.3471  0.1522
 3580TIP3    H232300   2.071   5.359   0.512 -0.3852 -0.1764 -0.1325
 3581TIP3   OH232301   6.430   1.623   1.714  0.1592 -0.5798  0.1725
 3581TIP3    H132302   6.510   1.597   1.668 -0.1153  0.5079 -0.9562
 3581TIP3    H232303   6.432   1.572   1.795  2.2828 -0.1623  0.4350
 3582TIP3   OH232304   3.372   4.685   1.168 -0.1881  0.3424  0.2847
 3582TIP3    H132305   3.394   4.755   1.106 -1.3708 -0.1568 -0.7299
 3582TIP3    H232306   3.440   4.691   1.235 -0.3958  2.6251  0.3647
 3583TIP3   OH232307   4.201   4.219   1.421 -0.3516 -0.6686  0.2953
 3583TIP3    H132308   4.201   4.292   1.484  0.3100  0.3736 -0.8741
 3583TIP3    H232309   4.251   4.252   1.347  1.1520 -2.8197  0.2809
 3584TIP3   OH232310   5.550   3.634   0.212  0.1324 -0.1596 -0.2689
 3584TIP3    H132311   5.630   3.582   0.215  1.3388  1.5679 -1.0559
 3584TIP3    H232312   5.488   3.585   0.267  2.0793 -0.9210  1.4010
 3585TIP3   OH232313   6.191   6.286   7.304 -0.3353  0.5843  0.7533
 3585TIP3    H132314   6.222   6.278   7.394  0.4350 -0.3321  0.4280
 3585TIP3    H232315   6.230   6.211   7.259 -1.7255  0.3221 -0.0611
 3586TIP3   OH232316   0.784   1.018   6.760  0.2321  0.4309  0.3558
 3586TIP3    H132317   0.736   1.101   6.762  1.5633  1.2145  1.7952
 3586TIP3    H232318   0.720   0.954   6.731 -0.5062  2.1555 -2.1007
 3587TIP3   OH232319   0.238   3.330   0.813 -0.1547  0.1189  0.0784
 3587TIP3    H132320   0.222   3.364   0.725  0.3077 -0.2398 -0.1501
 3587TIP3    H232321   0.260   3.408   0.865 -0.9587  0.3998  0.0119
 3588TIP3   OH232322   4.320   4.805   0.009  0.4939 -0.1025 -0.2544
 3588TIP3    H132323   4.325   4.851   0.093  1.1960  0.6294 -0.6780
 3588TIP3    H232324   4.270   4.864  -0.047 -3.0458 -2.0840  0.5464
 3589TIP3   OH232325   4.443   3.204   1.772  0.6982 -0.6476 -0.1994
 3589TIP3    H132326   4.417   3.285   1.816  0.6732 -0.0027 -1.3411
 3589TIP3    H232327   4.416   3.217   1.681 -0.8214 -2.6097 -0.1038
 3590TIP3   OH232328   5.687   0.203   6.524  0.4872 -0.0323 -0.4255
 3590TIP3    H132329   5.757   0.138   6.524  0.5875  0.0609 -1.4455
 3590TIP3    H232330   5.722   0.277   6.475 -0.5759 -0.2838 -1.6252
 3591TIP3   OH232331   5.124   2.695   0.430  0.0120 -0.0737  0.0863
 3591TIP3    H132332   5.053   2.719   0.490 -1.1554  3.5058 -2.4431
 3591TIP3    H232333   5.202   2.736   0.468 -0.4084  0.8293  0.0045
 3592TIP3   OH232334   6.743   0.103   1.589 -0.7652 -0.6918 -0.3079
 3592TIP3    H132335   6.701   0.168   1.534 -1.2745 -1.1247 -0.4389
 3592TIP3    H232336   6.829   0.091   1.551 -1.1229 -1.0079 -1.0312
 3593TIP3   OH232337   1.595   0.227   7.511 -0.3070  0.4743  0.0388
 3593TIP3    H132338   1.657   0.287   7.552  0.0451  1.1540 -1.4435
 3593TIP3    H232339   1.649   0.171   7.455 -0.5151 -1.8246  1.9752
 3594TIP3   OH232340   3.330   3.190   8.301  0.1445 -0.6099 -0.9368
 3594TIP3    H132341   3.355   3.219   8.213 -0.0697 -1.7869 -1.4021
 3594TIP3    H232342   3.254   3.244   8.323  1.3623  1.0662 -0.6421
 3595TIP3   OH232343   5.289   3.987   0.287  0.4537  0.5771  0.2498
 3595TIP3    H132344   5.206   3.959   0.326  1.1227 -1.5371  0.3413
 3595TIP3    H232345   5.328   4.044   0.354  0.8232 -1.6338  2.0676
 3596TIP3   OH232346   1.028   6.663   2.284 -0.1042 -0.4350 -0.1920
 3596TIP3    H132347   0.986   6.606   2.219  0.7602 -2.1324  0.6780
 3596TIP3    H232348   0.958   6.722   2.312 -0.7863 -0.4220 -1.8021
 3597TIP3   OH232349   1.731   3.616   1.306  0.3775 -0.3914 -0.1564
 3597TIP3    H132350   1.745   3.683   1.373  0.9159  0.7594 -1.3759
 3597TIP3    H232351   1.707   3.538   1.355  0.6642  0.4384  1.3687
 3598TIP3   OH232352   6.754   6.620   1.687  0.1710 -0.3502 -0.1051
 3598TIP3    H132353   6.732   6.681   1.617 -1.9414 -1.3845 -0.4079
 3598TIP3    H232354   6.840   6.585   1.662 -0.2671 -0.2617 -1.8883
 3599TIP3   OH232355   1.293   1.701   2.475  0.2793 -0.2336  0.5347
 3599TIP3    H132356   1.370   1.710   2.532  1.1973 -1.6551 -0.4166
 3599TIP3    H232357   1.263   1.611   2.490  1.6896 -1.3440 -2.5077
 3600TIP3   OH232358   0.264   6.939   1.593  0.3241  0.2037  0.4606
 3600TIP3    H132359   0.299   7.025   1.619  0.1922 -0.0433  1.5216
 3600TIP3    H232360   0.263   6.941   1.498  1.2855  0.9967  0.4487
 3601TIP3   OH232361   6.927   4.659   7.195  0.5365  0.1978  0.3610
 3601TIP3    H132362   6.985   4.731   7.170  0.4395  0.1195 -0.1063
 3601TIP3    H232363   6.874   4.694   7.266  0.0247  0.8198 -0.3077
 3602TIP3   OH232364   6.080   0.349   7.747  0.0952 -0.7553 -0.2253
 3602TIP3    H132365   6.017   0.414   7.716  1.4651  0.6293 -0.2671
 3602TIP3    H232366   6.149   0.401   7.790  1.6407 -2.0912 -0.9606
 3603TIP3   OH232367   4.469   4.336   7.956  0.3110 -0.2684  0.6808
 3603TIP3    H132368   4.385   4.361   7.995  0.6391 -1.2055  2.0580
 3603TIP3    H232369   4.523   4.415   7.962  0.5291 -0.5265  2.6759
 3604TIP3   OH232370   3.202   1.014   6.680  0.1419 -0.3375  0.1352
 3604TIP3    H132371   3.215   1.106   6.703  3.0620 -0.2500 -1.3459
 3604TIP3    H232372   3.238   0.965   6.754 -2.3243 -0.3944  1.3809
 3605TIP3   OH232373   6.279   4.315   1.309  0.2689 -0.1283 -0.8751
 3605TIP3    H132374   6.370   4.293   1.331  0.0728 -1.5328 -1.3831
 3605TIP3    H232375   6.227   4.268   1.375 -0.1052  0.3845 -0.8026
 3606TIP3   OH232376   4.660   5.900   1.568 -0.1762 -0.0093  0.7258
 3606TIP3    H132377   4.581   5.864   1.526  0.3912 -2.5003  1.6454
 3606TIP3    H232378   4.726   5.899   1.499 -0.5563  0.7503  0.3369
 3607TIP3   OH232379   1.242   2.629   1.175 -0.5864  0.0526  0.1033
 3607TIP3    H132380   1.155   2.597   1.200 -0.3527  0.0755  0.9877
 3607TIP3    H232381   1.297   2.609   1.251  0.4549 -1.0241 -0.8827
 3608TIP3   OH232382   3.480   5.588   0.935 -0.1397  0.0991 -0.2135
 3608TIP3    H132383   3.539   5.636   0.878  1.5794 -1.0620  0.4833
 3608TIP3    H232384   3.393   5.616   0.910  0.5163 -0.3847 -3.4283
 3609TIP3   OH232385   0.829   5.117   1.251  0.1047  0.1418 -0.4249
 3609TIP3    H132386   0.771   5.059   1.300  0.5919 -0.8016 -0.9462
 3609TIP3    H232387   0.844   5.191   1.310 -0.4275 -0.3107  0.2927
 3610TIP3   OH232388   3.414   2.665   6.482 -0.4496  0.1880  0.1164
 3610TIP3    H132389   3.404   2.756   6.453 -0.6173  0.3520  0.6614
 3610TIP3    H232390   3.329   2.625   6.465 -0.8760  0.5529  1.2607
 3611TIP3   OH232391   2.030   0.719   7.900  0.1182  0.1816  0.2226
 3611TIP3    H132392   2.049   0.812   7.910  1.1298 -0.0378  0.4153
 3611TIP3    H232393   2.100   0.686   7.844 -0.8008 -0.2702 -0.6995
 3612TIP3   OH232394   2.754   2.357   7.406 -0.0709  0.1058  0.1719
 3612TIP3    H132395   2.728   2.315   7.489 -3.7128  0.2337 -0.7142
 3612TIP3    H232396   2.729   2.448   7.416 -0.4550  0.1498 -1.0007
 3613TIP3   OH232397   3.677   0.208   2.020 -0.4919  0.2500 -0.2165
 3613TIP3    H132398   3.628   0.252   2.089 -1.3002 -1.1558  0.1421
 3613TIP3    H232399   3.730   0.142   2.066  0.8303  0.9278 -0.7196
 3614TIP3   OH232400   1.363   5.763   7.848  0.3620  0.6121  0.2132
 3614TIP3    H132401   1.426   5.691   7.846  0.7978  0.9576 -2.0591
 3614TIP3    H232402   1.315   5.751   7.929  2.9019 -0.0581  1.7472
 3615TIP3   OH232403   2.025   0.766   0.757 -0.2689 -0.2167  0.1232
 3615TIP3    H132404   2.047   0.761   0.664 -1.2954  0.9628 -0.2115
 3615TIP3    H232405   1.940   0.810   0.759 -0.8972 -1.4095  1.5537
 3616TIP3   OH232406   0.172   6.476   0.992 -0.3527 -0.5806 -0.5192
 3616TIP3    H132407   0.222   6.499   1.071 -0.0319  0.0385 -0.8888
 3616TIP3    H232408   0.080   6.482   1.019 -0.2860  1.2250 -0.6028
 3617TIP3   OH232409   5.592   4.822   2.004  1.0350 -0.2535 -0.2246
 3617TIP3    H132410   5.624   4.732   2.010  2.2622  0.2177  0.8029
 3617TIP3    H232411   5.511   4.821   2.054  2.4645 -0.2299  2.2915
 3618TIP3   OH232412   1.626   3.707   0.796  0.1058 -0.2055  0.2168
 3618TIP3    H132413   1.584   3.624   0.816 -0.2391  0.2752  1.5939
 3618TIP3    H232414   1.678   3.690   0.717 -1.5499 -1.1743 -0.7025
 3619TIP3   OH232415   4.231   6.817   0.577 -0.0252 -0.3253  0.3016
 3619TIP3    H132416   4.214   6.877   0.504  0.4411  0.3964  0.7699
 3619TIP3    H232417   4.303   6.762   0.547  0.2142  0.0189  0.2369
 3620TIP3   OH232418   5.154   2.946   8.260  0.6683  0.2560  0.4284
 3620TIP3    H132419   5.200   2.910   8.184  2.2153  2.8269  0.0102
 3620TIP3    H232420   5.213   2.928   8.334 -0.6272 -1.8447  1.0235
 3621TIP3   OH232421   1.103   5.922   6.667 -0.2389 -0.2051 -0.1662
 3621TIP3    H132422   1.017   5.904   6.631  0.0824 -0.3371 -0.8712
 3621TIP3    H232423   1.153   5.960   6.595  0.2266  0.0969  0.2992
 3622TIP3   OH232424   3.543   5.812   7.302  0.2318  0.2828 -0.0050
 3622TIP3    H132425   3.573   5.733   7.258  0.1257  0.6179 -0.6972
 3622TIP3    H232426   3.623   5.855   7.332  0.3112  0.1252  0.0116
 3623TIP3   OH232427   2.369   4.074   0.875 -0.3658 -0.7211  0.0352
 3623TIP3    H132428   2.362   4.114   0.962 -1.7447  0.0546 -0.4076
 3623TIP3    H232429   2.463   4.073   0.858 -0.1571  0.5566  0.8926
 3624TIP3   OH232430   5.916   5.066   1.961 -0.4627  0.0198  0.3202
 3624TIP3    H132431   5.909   5.036   2.052  0.2348  0.9494  0.7030
 3624TIP3    H232432   5.929   4.986   1.910  0.8493 -0.3925  1.2387
 3625TIP3   OH232433   6.364   6.517   0.540 -0.0174  0.2628  0.2242
 3625TIP3    H132434   6.320   6.595   0.506  0.1518  0.4121  0.3472
 3625TIP3    H232435   6.308   6.487   0.611 -0.8808 -0.5980 -0.7737
 3626TIP3   OH232436   6.418   4.920   8.235  0.1445 -0.1504  0.1773
 3626TIP3    H132437   6.491   4.972   8.201 -0.5009 -0.4528 -1.8119
 3626TIP3    H232438   6.341   4.977   8.225 -0.5651 -1.3703 -1.9799
 3627TIP3   OH232439   6.670   0.583   2.193  0.6669  0.2816  0.2737
 3627TIP3    H132440   6.693   0.492   2.173  0.3044  0.2488 -0.0002
 3627TIP3    H232441   6.586   0.577   2.239 -1.1979  0.6737 -2.8230
 3628TIP3   OH232442   3.639   4.836   7.096  0.0464  0.8460 -0.5117
 3628TIP3    H132443   3.604   4.845   7.007  0.4831 -1.6189 -1.0094
 3628TIP3    H232444   3.564   4.804   7.147  0.5838 -0.9421 -0.7781
 3629TIP3   OH232445   5.773   0.206   2.600 -0.0504  0.5293 -0.6961
 3629TIP3    H132446   5.802   0.141   2.663  0.0143  2.0132  0.8627
 3629TIP3    H232447   5.832   0.195   2.525 -1.1398 -2.3148 -1.2380
 3630TIP3   OH232448   1.157   6.805   2.475  0.2717  0.7066 -0.2181
 3630TIP3    H132449   1.136   6.868   2.406 -2.2406  0.4984  0.2750
 3630TIP3    H232450   1.141   6.720   2.434  0.5498  0.5076  0.0857
 3631TIP3   OH232451   6.015   5.269   7.780  0.2350  0.2135  0.4642
 3631TIP3    H132452   5.992   5.239   7.868 -1.6385  0.0125 -0.0572
 3631TIP3    H232453   6.022   5.364   7.788  1.5091  0.0908  1.1055
 3632TIP3   OH232454   6.342   0.401   0.360  0.6390 -0.3259  0.4961
 3632TIP3    H132455   6.329   0.426   0.451 -0.5730  3.4897 -0.5423
 3632TIP3    H232456   6.267   0.345   0.340 -1.3284  1.9723  0.9450
 3633TIP3   OH232457   6.607   0.900   7.397 -0.3015  1.0003 -1.0035
 3633TIP3    H132458   6.598   0.859   7.483 -0.6173 -3.2317 -2.7861
 3633TIP3    H232459   6.518   0.899   7.361 -0.1030  2.2794 -1.5955
 3634TIP3   OH232460   0.297   6.575   7.072  0.3254 -0.2880  0.2593
 3634TIP3    H132461   0.231   6.637   7.040  0.8061 -0.1227 -0.4403
 3634TIP3    H232462   0.377   6.627   7.080  0.9599 -0.9884 -1.1895
 3635TIP3   OH232463   3.100   1.168   1.519  0.4461 -0.3356 -0.2751
 3635TIP3    H132464   3.120   1.240   1.578  1.5530 -1.2446  0.4983
 3635TIP3    H232465   3.008   1.180   1.498  0.5706  1.2337 -0.0828
 3636TIP3   OH232466   5.100   1.646   7.271  0.4157 -0.7003 -0.4599
 3636TIP3    H132467   5.125   1.616   7.358 -0.2357 -3.0116 -1.0128
 3636TIP3    H232468   5.010   1.617   7.260  0.8437 -1.4612 -2.3066
 3637TIP3   OH232469   5.865   4.511   7.764  0.4410  0.7086  0.2462
 3637TIP3    H132470   5.794   4.552   7.715 -0.3558 -1.2355 -0.2812
 3637TIP3    H232471   5.945   4.539   7.718 -0.0815  1.4749 -0.2184
 3638TIP3   OH232472   4.854   1.939   0.960  0.2837  0.3983  0.5663
 3638TIP3    H132473   4.883   2.017   1.007  1.5895  0.4986 -0.3511
 3638TIP3    H232474   4.933   1.885   0.952 -0.4992 -0.8117  0.7812
 3639TIP3   OH232475   3.096   1.126   0.365 -0.0384  0.2474 -0.1318
 3639TIP3    H132476   3.035   1.054   0.381 -1.7786  1.9582  1.4972
 3639TIP3    H232477   3.181   1.092   0.392 -1.0208 -0.8358  1.8118
 3640TIP3   OH232478   3.607   5.286   7.260 -0.5578 -0.2890 -0.0506
 3640TIP3    H132479   3.589   5.198   7.294  0.2755  0.0317  1.3301
 3640TIP3    H232480   3.562   5.289   7.176 -2.3989 -1.2948  0.8280
 3641TIP3   OH232481   2.657   4.982   7.770 -0.1360  0.5102 -0.4324
 3641TIP3    H132482   2.686   5.045   7.705  0.7200 -1.2318 -1.8394
 3641TIP3    H232483   2.602   4.920   7.722 -0.1651 -0.3541  0.6564
 3642TIP3   OH232484   4.442   0.420   0.906  0.0530  0.5071  0.2965
 3642TIP3    H132485   4.517   0.388   0.956  0.3889  0.5542 -0.1677
 3642TIP3    H232486   4.366   0.378   0.946  0.3731  0.1103  0.4863
 3643TIP3   OH232487   4.846   2.886   8.184  0.2167 -0.7710 -0.1547
 3643TIP3    H132488   4.913   2.946   8.217  0.1174 -1.5034  1.4589
 3643TIP3    H232489   4.889   2.838   8.113  0.4813  0.7492 -1.0701
 3644TIP3   OH232490   2.355   6.132   2.020  0.7705 -0.4458 -0.2760
 3644TIP3    H132491   2.403   6.195   1.966 -0.1511  0.6908  0.1915
 3644TIP3    H232492   2.334   6.060   1.960  0.0539  0.6313 -1.3488
 3645TIP3   OH232493   5.895   3.420   6.975 -0.4278 -0.1568 -0.4310
 3645TIP3    H132494   5.854   3.348   6.928  0.0684 -0.8984  0.2406
 3645TIP3    H232495   5.895   3.392   7.067  1.6869 -0.2784 -0.4040
 3646TIP3   OH232496   1.032   3.627   8.246 -0.6335  0.3201  0.0592
 3646TIP3    H132497   1.034   3.532   8.235 -0.4121  0.4812 -1.6448
 3646TIP3    H232498   0.999   3.659   8.162  2.5122  1.9020 -0.7174
 3647TIP3   OH232499   0.160   6.468   2.321  0.3400  0.3018 -0.2864
 3647TIP3    H132500   0.224   6.525   2.365  0.1348 -1.2564  2.2695
 3647TIP3    H232501   0.169   6.383   2.366 -0.8199 -1.0999 -2.5088
 3648TIP3   OH232502   5.824   2.287   8.270 -0.1851 -0.3903  0.1782
 3648TIP3    H132503   5.827   2.232   8.348  0.0335 -0.7336 -0.0700
 3648TIP3    H232504   5.756   2.352   8.289 -0.4976 -0.7900  0.4455
 3649TIP3   OH232505   3.047   1.536   2.361  0.1168 -0.1760 -1.0448
 3649TIP3    H132506   3.101   1.461   2.337  0.1252 -0.1212 -1.1987
 3649TIP3    H232507   2.999   1.508   2.439  1.5686  0.3179  0.0683
 3650TIP3   OH232508   6.655   2.878   8.090  0.2558  0.2856  0.1299
 3650TIP3    H132509   6.579   2.850   8.038  0.0550 -1.5813  1.3117
 3650TIP3    H232510   6.721   2.811   8.073  0.4859  0.1170  1.5685
 3651TIP3   OH232511   6.120   6.411   1.488  0.1121  0.7163 -0.0939
 3651TIP3    H132512   6.128   6.475   1.559 -0.5260  1.9570 -1.1159
 3651TIP3    H232513   6.206   6.367   1.486  0.7352  1.8736  0.2988
 3652TIP3   OH232514   4.934   0.816   1.187 -0.0568 -0.2825 -0.0136
 3652TIP3    H132515   5.003   0.780   1.130  0.4438 -0.2288  0.5474
 3652TIP3    H232516   4.920   0.905   1.153 -0.3506 -0.5357 -0.5680
 3653TIP3   OH232517   3.491   1.759   1.739  0.2067 -0.3966  0.2586
 3653TIP3    H132518   3.489   1.816   1.816  0.5628 -0.7455  0.5338
 3653TIP3    H232519   3.485   1.818   1.664 -2.5152 -0.1523  0.5654
 3654TIP3   OH232520   5.980   4.206   8.042 -0.1192 -0.2114 -0.0964
 3654TIP3    H132521   6.073   4.200   8.065  1.0734  1.7112 -3.5783
 3654TIP3    H232522   5.957   4.118   8.013  1.1765 -0.3377 -0.8306
 3655TIP3   OH232523   0.333   2.049   0.653  0.8632  0.0275 -0.4761
 3655TIP3    H132524   0.266   2.030   0.588  1.7361 -0.8977 -1.1288
 3655TIP3    H232525   0.287   2.043   0.737 -0.2231  1.0143 -0.9578
 3656TIP3   OH232526   5.357   1.368   8.089 -0.0118  0.0982  0.4770
 3656TIP3    H132527   5.388   1.278   8.088 -1.8031 -0.5673  0.0858
 3656TIP3    H232528   5.435   1.421   8.105  0.8524 -1.6242  2.5347
 3657TIP3   OH232529   0.663   2.451   8.204  0.0510 -0.1131 -0.6802
 3657TIP3    H132530   0.604   2.513   8.160  0.8919  1.4931  0.3502
 3657TIP3    H232531   0.733   2.437   8.140 -0.8870 -1.2300 -1.5060
 3658TIP3   OH232532   5.819   6.819   2.193  0.1700  0.1508  0.5495
 3658TIP3    H132533   5.807   6.748   2.257  0.0250 -0.7999 -0.5003
 3658TIP3    H232534   5.788   6.897   2.238 -2.3950 -0.8989  0.7635
 3659TIP3   OH232535   3.834   1.045   7.596 -0.0216  0.0799  0.1990
 3659TIP3    H132536   3.807   0.955   7.580  1.4130  0.0437 -2.3783
 3659TIP3    H232537   3.752   1.095   7.596 -0.6294 -0.8701 -1.1402
 3660TIP3   OH232538   1.094   4.154   2.377  0.1695  0.2103 -0.0999
 3660TIP3    H132539   1.177   4.169   2.421 -0.1520  1.1588  0.1941
 3660TIP3    H232540   1.042   4.232   2.395 -0.3834  0.1179 -1.2037
 3661TIP3   OH232541   0.828   3.188   6.760 -0.0488  0.0181  0.0899
 3661TIP3    H132542   0.885   3.111   6.750  0.7107  0.5024  0.5164
 3661TIP3    H232543   0.785   3.197   6.675  0.1397 -0.6596 -0.0871
 3662TIP3   OH232544   0.927   6.289   0.814  0.3132  0.2699  0.0114
 3662TIP3    H132545   0.937   6.338   0.733 -1.7516  0.5648 -0.1334
 3662TIP3    H232546   0.849   6.328   0.856  1.0443 -0.1799  1.9091
 3663TIP3   OH232547   5.090   1.213   7.815  0.4963 -0.6020  0.2891
 3663TIP3    H132548   5.120   1.302   7.829  1.2524 -0.9519  0.9676
 3663TIP3    H232549   5.160   1.172   7.764  0.3600 -0.9390  0.3716
 3664TIP3   OH232550   3.079   3.972   2.748  0.1360  0.0342 -0.1793
 3664TIP3    H132551   3.121   3.889   2.772 -0.2115  0.0348  0.4480
 3664TIP3    H232552   2.986   3.953   2.750  0.0020  0.7426  1.1486
 3665TIP3   OH232553   3.809   0.566   7.284  0.2460  0.1125 -0.2508
 3665TIP3    H132554   3.783   0.512   7.210 -0.0802 -0.7864  0.4914
 3665TIP3    H232555   3.729   0.613   7.308  0.5605  1.0614 -0.9763
 3666TIP3   OH232556   6.608   6.397   1.824  0.9535 -0.4864  0.2045
 3666TIP3    H132557   6.587   6.332   1.890  0.7440 -0.4219  0.2000
 3666TIP3    H232558   6.632   6.346   1.747 -1.4574 -0.5963 -0.5521
 3667TIP3   OH232559   1.467   1.426   0.706  0.3945 -0.6552  0.8019
 3667TIP3    H132560   1.456   1.387   0.620  1.9468 -1.3729  0.9086
 3667TIP3    H232561   1.561   1.425   0.722  0.5646  3.0693  0.8643
 3668TIP3   OH232562   4.201   2.180   7.629  0.1234  0.3503  0.3145
 3668TIP3    H132563   4.125   2.166   7.574  0.0748 -0.2818  0.5380
 3668TIP3    H232564   4.167   2.178   7.718  0.2895  0.8075  0.3915
 3669TIP3   OH232565   0.142   0.717   1.233  0.2747  0.6144 -0.2880
 3669TIP3    H132566   0.109   0.631   1.207  0.0317  1.1847 -2.0701
 3669TIP3    H232567   0.232   0.719   1.200  1.2122  0.1174  2.0620
 3670TIP3   OH232568   2.588   5.911   7.463  0.3258  0.2505  0.1604
 3670TIP3    H132569   2.553   5.969   7.395 -0.0472 -0.0426  0.1018
 3670TIP3    H232570   2.647   5.967   7.513  0.4959  0.5078 -0.3161
 3671TIP3   OH232571   3.815   1.012   7.039 -0.2420  0.2014 -0.2509
 3671TIP3    H132572   3.894   0.967   7.067 -0.7993 -0.7957 -0.2128
 3671TIP3    H232573   3.769   1.034   7.120  0.9299  2.6069 -0.1737
 3672TIP3   OH232574   1.190   4.375   7.746  0.3124  0.4405 -0.2413
 3672TIP3    H132575   1.217   4.413   7.662 -1.7881  2.7103  0.0071
 3672TIP3    H232576   1.146   4.293   7.722 -0.4732  1.1717 -1.4132
 3673TIP3   OH232577   6.394   1.791   7.803 -0.5853  0.2394  0.8365
 3673TIP3    H132578   6.324   1.730   7.825  0.7258 -0.6110  2.8927
 3673TIP3    H232579   6.458   1.738   7.756 -1.2125  1.0007 -0.9829
 3674TIP3   OH232580   5.334   4.933   2.596  0.0356 -0.3437  0.4531
 3674TIP3    H132581   5.251   4.978   2.617 -1.5048 -1.3558 -2.7735
 3674TIP3    H232582   5.379   4.994   2.538 -1.0733 -1.9064 -2.2060
 3675TIP3   OH232583   6.462   6.284   0.411 -0.1368 -0.0786  0.6460
 3675TIP3    H132584   6.489   6.221   0.478  1.8731  0.1606  0.1419
 3675TIP3    H232585   6.486   6.369   0.448  1.5338  0.0226 -0.5377
 3676TIP3   OH232586   3.962   0.068   0.457 -0.2752 -0.0095 -0.0270
 3676TIP3    H132587   4.026   0.130   0.422  0.4052 -0.5368  0.2598
 3676TIP3    H232588   3.966  -0.008   0.399 -0.8797  0.0785 -0.1949
 3677TIP3   OH232589   4.127   6.833   7.276  0.0775 -0.1772  0.4058
 3677TIP3    H132590   4.105   6.763   7.214  0.0046  0.5756 -0.4320
 3677TIP3    H232591   4.222   6.826   7.288  0.1109 -0.2474  0.1091
 3678TIP3   OH232592   0.514   5.979   7.842 -0.0729 -0.1792  0.0910
 3678TIP3    H132593   0.554   5.946   7.761  1.7415 -0.0846  0.8963
 3678TIP3    H232594   0.572   6.050   7.870 -1.4456  0.7248  0.7587
 3679TIP3   OH232595   4.575   3.516   0.557  0.2446  0.4154 -0.3382
 3679TIP3    H132596   4.635   3.472   0.617  1.3129  2.1379 -0.0649
 3679TIP3    H232597   4.545   3.593   0.605 -2.9447 -0.7869 -0.1332
 3680TIP3   OH232598   5.132   3.338   0.174  0.1606  0.2954 -0.1347
 3680TIP3    H132599   5.090   3.340   0.260 -0.8980  3.2005 -0.5892
 3680TIP3    H232600   5.077   3.279   0.122  0.2159 -0.6682  0.8690
 3681TIP3   OH232601   6.573   4.692   7.455 -0.1659 -0.1705  0.1615
 3681TIP3    H132602   6.667   4.687   7.469 -0.1875  0.9796  0.9013
 3681TIP3    H232603   6.551   4.784   7.474 -1.4201 -0.4080 -0.0481
 3682TIP3   OH232604   4.188   5.153   8.194  0.1986 -0.4202 -0.0864
 3682TIP3    H132605   4.274   5.161   8.236 -0.6213 -0.7414  1.7148
 3682TIP3    H232606   4.177   5.236   8.147  2.0868 -0.9423 -1.6072
 3683TIP3   OH232607   2.091   5.814   1.504 -0.2300 -0.6875  0.3632
 3683TIP3    H132608   2.019   5.860   1.547 -0.6245 -1.1891  0.2456
 3683TIP3    H232609   2.100   5.856   1.419  1.1149  0.8879  1.2241
 3684TIP3   OH232610   2.070   4.150   1.000  0.1714 -0.1247 -0.2422
 3684TIP3    H132611   2.012   4.219   0.969  0.8706 -0.3978 -2.2589
 3684TIP3    H232612   2.148   4.157   0.946  0.6477 -1.8997  0.1450
 3685TIP3   OH232613   0.819   4.613   6.215 -0.4409 -0.0861  0.3104
 3685TIP3    H132614   0.788   4.702   6.225  1.5654  0.8262 -0.8856
 3685TIP3    H232615   0.847   4.587   6.303  0.3975  1.0675  0.4009
 3686TIP3   OH232616   5.458   3.136   8.143 -0.2021  0.3289  0.1461
 3686TIP3    H132617   5.457   3.128   8.047  0.1687 -1.7906  0.2649
 3686TIP3    H232618   5.422   3.223   8.160  0.8767  1.2651 -1.9447
 3687TIP3   OH232619   2.929   6.503   1.746  0.1985 -0.2947  0.6454
 3687TIP3    H132620   3.004   6.531   1.799  0.0356  1.3508  0.0479
 3687TIP3    H232621   2.965   6.436   1.688  1.4465  1.0839 -0.2346
 3688TIP3   OH232622   2.661   5.899   7.956  0.4543 -0.7073  0.0978
 3688TIP3    H132623   2.597   5.928   8.020  2.1481 -1.4437  2.2582
 3688TIP3    H232624   2.720   5.973   7.945  0.1528 -0.5744 -0.6447
 3689TIP3   OH232625   1.663   4.455   6.248 -0.7461 -0.0922 -0.3755
 3689TIP3    H132626   1.570   4.444   6.225 -0.9426  2.0463 -0.8113
 3689TIP3    H232627   1.676   4.550   6.249  1.5683 -0.3575 -0.8028
 3690TIP3   OH232628   5.176   1.097   1.809  0.4247  0.7546  0.4592
 3690TIP3    H132629   5.211   1.136   1.889  1.4369 -1.6103  1.2628
 3690TIP3    H232630   5.100   1.046   1.837  0.6111  0.1407 -0.1028
 3691TIP3   OH232631   0.023   6.532   0.542 -0.6216 -0.2019  0.2433
 3691TIP3    H132632   0.053   6.584   0.617  2.8370 -0.7251 -0.6363
 3691TIP3    H232633   0.060   6.577   0.466 -2.5044 -0.7457 -1.0792
 3692TIP3   OH232634   3.125   2.423   0.692 -0.1548  0.9478 -0.2511
 3692TIP3    H132635   3.214   2.452   0.675  1.2226 -2.3522  0.4993
 3692TIP3    H232636   3.114   2.435   0.787 -0.0700  0.3022 -0.1579
 3693TIP3   OH232637   6.062   2.169   6.510 -0.1510 -0.3940  0.1597
 3693TIP3    H132638   6.132   2.223   6.474 -0.8492  0.8892  0.6527
 3693TIP3    H232639   6.102   2.125   6.585  0.4100 -0.4969 -0.1986
 3694TIP3   OH232640   6.454   3.548   0.697  0.3070 -0.5638  0.1011
 3694TIP3    H132641   6.496   3.625   0.735 -0.3576 -0.7284  1.2454
 3694TIP3    H232642   6.383   3.527   0.758 -1.4863 -0.2689 -1.7782
 3695TIP3   OH232643   3.178   3.877   7.852  0.1264  0.2834  0.5396
 3695TIP3    H132644   3.230   3.857   7.930 -0.9077 -0.0716  1.1577
 3695TIP3    H232645   3.241   3.876   7.780  1.2890  1.6014  1.4805
 3696TIP3   OH232646   2.751   6.946   8.336  0.5442  0.4738 -0.2866
 3696TIP3    H132647   2.671   6.941   8.389 -0.1722  0.8342 -1.2829
 3696TIP3    H232648   2.776   7.039   8.340 -0.5955  0.9097 -2.0436
 3697TIP3   OH232649   5.118   2.858   7.770  0.3838 -0.4697 -0.2012
 3697TIP3    H132650   5.187   2.925   7.765 -0.9535  1.0132  0.3364
 3697TIP3    H232651   5.051   2.888   7.709 -0.8695 -0.5158  1.0840
 3698TIP3   OH232652   0.475   0.978   8.052 -0.2001  0.5086  0.1712
 3698TIP3    H132653   0.558   0.968   8.005 -0.2872  0.6437 -0.0068
 3698TIP3    H232654   0.432   0.893   8.041  0.9281 -0.4221  2.2054
 3699TIP3   OH232655   3.927   0.551   6.571 -0.3101 -0.2696  0.3003
 3699TIP3    H132656   3.872   0.596   6.635  0.0948 -2.2308  2.1451
 3699TIP3    H232657   4.016   0.582   6.589 -0.0881 -1.3878  1.2948
 3700TIP3   OH232658   4.641   5.061   0.502  0.0994  0.7135  0.2475
 3700TIP3    H132659   4.571   5.014   0.547 -0.2018  1.0809  0.1682
 3700TIP3    H232660   4.671   5.127   0.565 -0.2266  1.1363 -0.0356
 3701TIP3   OH232661   2.680   4.837   7.211  0.2016  0.2064  0.3595
 3701TIP3    H132662   2.698   4.763   7.268 -0.2025 -0.0362  0.1753
 3701TIP3    H232663   2.662   4.798   7.126  0.2511  0.5324  0.1987
 3702TIP3   OH232664   5.881   1.251   1.440  0.4918 -0.3303 -0.3505
 3702TIP3    H132665   5.790   1.222   1.439  0.4919 -0.3514  0.1575
 3702TIP3    H232666   5.911   1.236   1.350  0.2720 -1.2154 -0.2890
 3703TIP3   OH232667   3.821   3.890   7.974 -0.2979 -0.0857 -0.3166
 3703TIP3    H132668   3.862   3.839   8.045  3.1558  2.3412 -0.3048
 3703TIP3    H232669   3.887   3.891   7.905 -2.7141 -0.5239 -2.7948
 3704TIP3   OH232670   6.790   3.384   7.019  0.0811  0.1022  0.4393
 3704TIP3    H132671   6.795   3.472   6.981 -0.1258  0.1798  0.5896
 3704TIP3    H232672   6.866   3.339   6.984  2.0872  1.3306  2.8878
 3705TIP3   OH232673   6.425   2.249   1.937  0.7815 -0.5218 -0.0808
 3705TIP3    H132674   6.472   2.256   1.854  0.0174  0.9087 -0.4089
 3705TIP3    H232675   6.447   2.329   1.984 -1.3129  0.2144 -0.2598
 3706TIP3   OH232676   3.382   2.703   7.421 -0.1033  0.0151 -0.3230
 3706TIP3    H132677   3.439   2.654   7.481 -0.1381  0.6391  0.2398
 3706TIP3    H232678   3.314   2.641   7.397 -0.6925  0.0341  1.1405
 3707TIP3   OH232679   2.562   2.765   7.135 -0.2894 -0.0710  0.4342
 3707TIP3    H132680   2.536   2.745   7.045 -0.1554 -1.8562  0.7531
 3707TIP3    H232681   2.656   2.780   7.130 -0.1694 -0.8164  0.3621
 3708TIP3   OH232682   0.569   1.787   1.206 -0.5055  0.0058 -0.3397
 3708TIP3    H132683   0.570   1.854   1.138 -0.5789 -0.0944 -0.4406
 3708TIP3    H232684   0.493   1.809   1.260 -1.4523 -0.8777 -1.2697
 3709TIP3   OH232685   3.224   0.912   0.631 -0.2977  0.0019  0.1827
 3709TIP3    H132686   3.296   0.924   0.568 -1.0441  1.7644 -0.4046
 3709TIP3    H232687   3.173   0.840   0.596  0.1776 -0.0775 -0.3665
 3710TIP3   OH232688   0.279   1.121   1.496  0.4306 -0.1048 -0.3826
 3710TIP3    H132689   0.307   1.211   1.478 -0.8002  0.2333 -0.6870
 3710TIP3    H232690   0.253   1.123   1.588  0.3716 -0.1384 -0.3986
 3711TIP3   OH232691   6.837   3.219   0.906 -0.1806  0.0417  0.2864
 3711TIP3    H132692   6.751   3.258   0.894  0.4956  1.3400 -0.6331
 3711TIP3    H232693   6.822   3.141   0.960 -1.6383  1.3906  1.9234
 3712TIP3   OH232694   1.057   1.646   8.133 -0.4157  0.2818  0.4288
 3712TIP3    H132695   0.975   1.667   8.088 -0.4420  2.5788  1.3987
 3712TIP3    H232696   1.125   1.666   8.069 -0.5506 -0.1020  0.1597
 3713TIP3   OH232697   6.678   5.792   0.668  0.0885  0.4524  0.0362
 3713TIP3    H132698   6.600   5.738   0.656 -2.1381  3.6096 -1.1238
 3713TIP3    H232699   6.714   5.802   0.579  0.6427  0.6433  0.2757
 3714TIP3   OH232700   5.255   2.664   2.401  0.1484 -0.1207  0.4162
 3714TIP3    H132701   5.198   2.629   2.332  1.4784 -0.8867 -0.3332
 3714TIP3    H232702   5.256   2.596   2.468 -0.2803  0.1534  0.7059
 3715TIP3   OH232703   4.803   0.727   7.884  0.2185  0.4278 -0.4111
 3715TIP3    H132704   4.855   0.785   7.940 -0.9183 -0.5618  1.7872
 3715TIP3    H232705   4.864   0.699   7.815  1.1875  3.0555 -0.7261
 3716TIP3   OH232706   5.619   0.227   1.445 -0.4758 -0.2565  0.3261
 3716TIP3    H132707   5.663   0.144   1.464 -1.5996 -0.9065  0.1614
 3716TIP3    H232708   5.526   0.205   1.442 -0.6738  0.6889 -1.4254
 3717TIP3   OH232709   1.502   4.168   1.589 -0.0053 -0.0605 -0.3669
 3717TIP3    H132710   1.577   4.110   1.598  0.6762  0.8509  0.0393
 3717TIP3    H232711   1.432   4.125   1.637  0.3668 -0.7407 -0.4255
 3718TIP3   OH232712   6.185   2.878   1.253  0.2921 -0.5862 -0.0401
 3718TIP3    H132713   6.235   2.955   1.279  0.4747 -0.6813 -0.1021
 3718TIP3    H232714   6.106   2.881   1.306  0.3008 -0.3598 -0.0387
 3719TIP3   OH232715   2.220   4.798   7.210  0.1503 -0.2143  0.5458
 3719TIP3    H132716   2.294   4.771   7.156 -0.5143 -0.8763 -0.0595
 3719TIP3    H232717   2.215   4.893   7.199  0.4899 -0.2541  0.0419
 3720TIP3   OH232718   2.224   6.857   7.369 -0.4633 -0.0080 -0.3498
 3720TIP3    H132719   2.165   6.811   7.309  0.4640  0.0201 -1.3167
 3720TIP3    H232720   2.177   6.861   7.452 -2.1575  0.7298 -1.3028
 3721TIP3   OH232721   6.917   1.122   6.543  0.5922 -0.2151 -0.3744
 3721TIP3    H132722   6.843   1.074   6.581 -1.0376  2.6980  0.3698
 3721TIP3    H232723   6.991   1.062   6.553 -1.2949 -2.6118  0.3425
 3722TIP3   OH232724   6.082   6.044   1.100 -0.0349 -0.5892 -0.1917
 3722TIP3    H132725   6.110   6.014   1.186 -0.9672  1.1483  0.7664
 3722TIP3    H232726   6.151   6.105   1.072  0.7998 -1.9325 -1.1909
 3723TIP3   OH232727   6.728   3.443   0.397 -0.1995  0.9244 -0.5608
 3723TIP3    H132728   6.789   3.515   0.411 -0.4562  1.3034 -1.3791
 3723TIP3    H232729   6.718   3.404   0.484  1.7807  0.3701 -0.5481
 3724TIP3   OH232730   0.776   4.904   7.895 -0.2208  0.1826 -0.0951
 3724TIP3    H132731   0.833   4.839   7.854  0.8629 -0.1421  1.7989
 3724TIP3    H232732   0.816   4.989   7.874  0.5801 -0.0046  0.6267
 3725TIP3   OH232733   4.128   4.018   0.401 -0.2911  0.1591  0.2115
 3725TIP3    H132734   4.067   4.091   0.396 -0.7123 -0.2037 -0.1696
 3725TIP3    H232735   4.086   3.949   0.349  1.4537  0.6280 -1.9651
 3726TIP3   OH232736   2.699   3.822   1.712 -0.1953  0.1570  0.5518
 3726TIP3    H132737   2.706   3.917   1.700  2.1287 -0.1181 -0.7908
 3726TIP3    H232738   2.708   3.785   1.624  0.4651 -1.3492  1.2120
 3727TIP3   OH232739   5.839   4.893   2.153  0.0142 -0.6825 -0.2933
 3727TIP3    H132740   5.754   4.870   2.114  0.1038 -3.3922  0.9086
 3727TIP3    H232741   5.818   4.917   2.243  0.5294 -1.8178  0.1448
 3728TIP3   OH232742   1.208   4.401   0.829  0.0849  0.6199  0.5356
 3728TIP3    H132743   1.274   4.336   0.851 -0.5285 -0.6815 -1.2199
 3728TIP3    H232744   1.255   4.466   0.776 -0.1203 -0.7185 -1.3885
 3729TIP3   OH232745   1.311   1.368   0.236  0.3977 -0.2430  0.0907
 3729TIP3    H132746   1.372   1.357   0.162 -0.3625 -0.1684 -0.5572
 3729TIP3    H232747   1.238   1.417   0.199  0.7035  1.1777  1.2780
 3730TIP3   OH232748   5.550   2.166   0.975  0.1274 -0.0100  0.0729
 3730TIP3    H132749   5.542   2.092   1.035  0.8487  0.0499  0.2541
 3730TIP3    H232750   5.511   2.135   0.894  0.9665 -0.8167 -0.0393
 3731TIP3   OH232751   1.563   1.544   0.025  0.4895 -0.1373 -0.2880
 3731TIP3    H132752   1.502   1.617   0.036  0.5690  0.2516 -2.1666
 3731TIP3    H232753   1.522   1.488  -0.041  1.5219 -0.5864 -0.5610
 3732TIP3   OH232754   1.647   6.962   8.263  0.0631 -0.5021  0.3568
 3732TIP3    H132755   1.716   6.908   8.225  2.1748  1.8747  0.5717
 3732TIP3    H232756   1.639   7.036   8.203 -2.0775 -0.5219  0.5427
 3733TIP3   OH232757   2.860   5.895   7.363 -0.3681  1.0567 -0.3212
 3733TIP3    H132758   2.775   5.913   7.402  0.4185  1.1423  1.4633
 3733TIP3    H232759   2.856   5.803   7.337 -0.6001  0.6777  0.9633
 3734TIP3   OH232760   4.946   1.399   1.843 -0.6334 -0.0328  0.1744
 3734TIP3    H132761   4.883   1.374   1.911 -1.3326 -0.6267 -0.6703
 3734TIP3    H232762   4.926   1.342   1.769 -1.9326  2.5727 -1.6598
 3735TIP3   OH232763   4.494   6.367   0.214  0.3430  0.0919 -0.2871
 3735TIP3    H132764   4.404   6.333   0.216 -0.2201  1.4644 -1.2766
 3735TIP3    H232765   4.500   6.423   0.292  0.1691  0.3929 -0.4873
 3736TIP3   OH232766   3.637   0.779   0.305 -0.0168  0.0745 -0.2217
 3736TIP3    H132767   3.614   0.861   0.261 -1.3055 -0.5108 -0.7120
 3736TIP3    H232768   3.732   0.775   0.301  0.6909  3.8211  3.9901
 3737TIP3   OH232769   6.080   1.018   0.233  0.1491  0.0669  0.1118
 3737TIP3    H132770   6.074   1.110   0.208 -3.6987  0.4055  1.6275
 3737TIP3    H232771   6.127   1.019   0.317  0.2523  0.6431  0.0505
 3738TIP3   OH232772   1.800   1.331   0.792  0.2735  0.0298  0.0902
 3738TIP3    H132773   1.879   1.382   0.810  0.4723  0.6115 -2.0989
 3738TIP3    H232774   1.832   1.242   0.778  0.1424 -0.3773  2.1234
 3739TIP3   OH232775   5.619   0.888   8.129 -0.1217  0.8041 -0.0763
 3739TIP3    H132776   5.582   0.879   8.216  0.4314  1.5952  0.2513
 3739TIP3    H232777   5.666   0.806   8.114 -1.2133  0.1691 -0.1320
 3740TIP3   OH232778   5.491   6.788   7.670  0.0151  0.1055  0.6703
 3740TIP3    H132779   5.445   6.855   7.721 -0.5606  1.4116 -1.4626
 3740TIP3    H232780   5.456   6.706   7.703 -0.7217  0.8990  1.9897
 3741TIP3   OH232781   6.940   4.858   0.556  0.6619  0.1129 -0.2615
 3741TIP3    H132782   7.002   4.902   0.613 -0.2841 -0.3864  1.2133
 3741TIP3    H232783   6.914   4.779   0.605 -1.9345  0.8544 -0.2930
 3742TIP3   OH232784   0.907   2.298   1.877  0.1186 -0.6806  0.9868
 3742TIP3    H132785   0.985   2.250   1.849  0.4776  0.1130  0.5856
 3742TIP3    H232786   0.880   2.346   1.799  0.1579  0.2877  1.5633
 3743TIP3   OH232787   3.196   0.742   8.308  0.6901  0.2367 -0.8638
 3743TIP3    H132788   3.169   0.653   8.330 -0.4645  0.9248  0.7004
 3743TIP3    H232789   3.117   0.784   8.274  0.5748  1.3305  0.6674
 3744TIP3   OH232790   0.412   3.465   7.641  0.1454 -0.0355  0.0533
 3744TIP3    H132791   0.411   3.387   7.586 -1.4665  0.0569 -0.0837
 3744TIP3    H232792   0.497   3.506   7.623  0.6369 -1.2675 -0.5426
 3745TIP3   OH232793   6.938   2.698   1.417  0.3926 -0.2464 -0.7149
 3745TIP3    H132794   7.008   2.635   1.398  0.5377  0.0014 -1.0199
 3745TIP3    H232795   6.938   2.757   1.341 -0.7588 -0.7821 -1.1564
 3746TIP3   OH232796   0.208   2.009   1.085 -0.2628  0.1341 -0.1694
 3746TIP3    H132797   0.299   1.991   1.108  0.2947  1.0367 -1.5417
 3746TIP3    H232798   0.162   1.927   1.104  1.1995 -0.9984 -1.2562
 3747TIP3   OH232799   2.631   3.051   0.892  0.0350 -0.1883  0.1876
 3747TIP3    H132800   2.625   3.122   0.955  0.6762 -0.3742  0.4702
 3747TIP3    H232801   2.700   2.994   0.926  0.4285 -0.2693 -0.7104
 3748TIP3   OH232802   5.334   6.103   7.730 -0.0628 -0.0120 -0.0744
 3748TIP3    H132803   5.401   6.100   7.661 -0.7012 -0.5721 -0.6778
 3748TIP3    H232804   5.264   6.156   7.693  0.8039  2.2511  1.2753
 3749TIP3   OH232805   3.062   4.804   2.057  0.2917  0.1815  0.2030
 3749TIP3    H132806   3.090   4.754   2.133 -1.5495  0.3001  1.0250
 3749TIP3    H232807   3.072   4.896   2.084  3.7822  0.4079 -1.3422
 3750TIP3   OH232808   3.421   4.969   1.875 -0.4471  0.4058  0.0191
 3750TIP3    H132809   3.346   4.932   1.922 -0.8142 -0.5141 -1.2275
 3750TIP3    H232810   3.489   4.902   1.884 -0.0680  0.8424  0.3960
 3751TIP3   OH232811   4.475   4.662   7.264 -0.5738 -0.5858  0.5035
 3751TIP3    H132812   4.430   4.736   7.304  0.1677 -0.6649  1.5352
 3751TIP3    H232813   4.429   4.647   7.181 -0.4388  1.2962  0.0611
 3752TIP3   OH232814   2.244   4.419   0.949 -0.5444 -0.3304  0.6574
 3752TIP3    H132815   2.318   4.423   0.889  0.5504 -2.1518  1.7876
 3752TIP3    H232816   2.271   4.356   1.017 -3.9254 -2.8590 -0.0609
 3753TIP3   OH232817   2.163   1.350   0.217  0.0586 -0.2710  0.2050
 3753TIP3    H132818   2.174   1.339   0.123  1.2784 -2.6228  0.5621
 3753TIP3    H232819   2.245   1.390   0.246 -0.1683  0.1063  0.3314
 3754TIP3   OH232820   6.693   0.931   1.620 -0.7190 -0.2385  0.2088
 3754TIP3    H132821   6.707   1.005   1.561  0.1615 -0.0747  0.6087
 3754TIP3    H232822   6.750   0.949   1.695 -1.8508 -0.4301  1.1264
 3755TIP3   OH232823   3.278   0.057   1.078  0.2354 -0.6997 -0.5712
 3755TIP3    H132824   3.243   0.120   1.015 -0.2205  0.0146  0.3552
 3755TIP3    H232825   3.226  -0.022   1.064 -1.6182  0.2249  0.5334
 3756TIP3   OH232826   0.506   3.590   1.042  0.3365  0.3012  0.0362
 3756TIP3    H132827   0.561   3.593   1.121  2.2249  0.2586 -1.2115
 3756TIP3    H232828   0.564   3.618   0.971 -1.3423  0.4512 -1.3421
 3757TIP3   OH232829   1.941   3.916   0.583 -0.0431  0.9858 -0.6249
 3757TIP3    H132830   1.884   3.941   0.656  0.3280  0.0352  0.0038
 3757TIP3    H232831   1.885   3.861   0.527  0.4767 -0.7688  0.4929
 3758TIP3   OH232832   2.468   2.959   1.589 -0.1922  0.1857 -0.0207
 3758TIP3    H132833   2.380   2.934   1.562 -0.0206 -1.8748  1.0464
 3758TIP3    H232834   2.515   2.976   1.508 -1.2546  0.0798 -0.6704
 3759TIP3   OH232835   4.674   3.221   6.780  0.1942 -0.5355  0.3653
 3759TIP3    H132836   4.677   3.196   6.873  0.0058 -0.2985  0.4355
 3759TIP3    H232837   4.739   3.164   6.738  0.8865 -0.0753  0.7805
 3760TIP3   OH232838   1.663   3.154   1.740  0.1460  0.2538 -0.3700
 3760TIP3    H132839   1.733   3.128   1.680  0.2631  0.8551 -0.4968
 3760TIP3    H232840   1.585   3.109   1.707 -0.1795  1.9055 -2.0099
 3761TIP3   OH232841   6.765   0.444   7.479 -0.1802 -0.1413 -0.0984
 3761TIP3    H132842   6.853   0.416   7.453 -0.3513  0.0077 -0.8590
 3761TIP3    H232843   6.753   0.529   7.435 -1.0280 -0.5656 -0.7174
 3762TIP3   OH232844   6.072   2.985   0.003 -0.1955  0.2087 -0.4950
 3762TIP3    H132845   6.162   2.954   0.003 -0.2423 -0.0486  1.4213
 3762TIP3    H232846   6.079   3.080   0.017 -0.2128  0.4536 -1.9123
 3763TIP3   OH232847   5.701   1.642   0.926 -0.3497  0.0668  0.0971
 3763TIP3    H132848   5.703   1.667   1.018  0.7288  0.4101 -0.0078
 3763TIP3    H232849   5.673   1.720   0.880  0.4456  0.3106  0.0148
 3764TIP3   OH232850   3.261   0.669   1.397  0.8389 -0.2393  0.1584
 3764TIP3    H132851   3.306   0.741   1.352  2.0599  0.2781  2.0699
 3764TIP3    H232852   3.293   0.674   1.487  0.2126 -2.6022  0.5695
 3765TIP3   OH232853   4.759   2.210   1.371 -0.3234 -0.0038 -0.1286
 3765TIP3    H132854   4.714   2.272   1.428 -1.5114 -2.0057  1.2356
 3765TIP3    H232855   4.698   2.193   1.299  0.0675  0.5329 -0.5877
 3766TIP3   OH232856   3.339   2.089   6.680  0.8849  0.1757 -0.2120
 3766TIP3    H132857   3.349   2.184   6.675 -0.9166  0.4137  0.2351
 3766TIP3    H232858   3.314   2.063   6.591 -0.3659  0.3696  0.0671
 3767TIP3   OH232859   6.453   6.876   2.448  0.4218 -0.2778 -1.1064
 3767TIP3    H132860   6.527   6.933   2.470  0.3422 -0.5299 -0.1126
 3767TIP3    H232861   6.493   6.789   2.440  0.0699 -0.6915  0.9278
 3768TIP3   OH232862   6.742   2.240   8.362 -0.6838 -0.0175  0.0537
 3768TIP3    H132863   6.714   2.211   8.448 -2.0165  0.0946 -0.3299
 3768TIP3    H232864   6.837   2.250   8.370 -0.9242  1.3919  1.9478
 3769TIP3   OH232865   6.688   5.817   8.011 -0.0203 -0.4025  0.3078
 3769TIP3    H132866   6.595   5.808   7.993  0.3688  1.1168 -3.2014
 3769TIP3    H232867   6.696   5.901   8.056 -0.2730  0.0960 -0.5563
 3770TIP3   OH232868   6.474   2.945   6.264 -0.3495  0.7901 -0.1534
 3770TIP3    H132869   6.546   2.995   6.303  1.3615 -0.3441 -1.6604
 3770TIP3    H232870   6.476   2.971   6.171  0.3242 -1.6736 -0.8972
 3771TIP3   OH232871   1.340   5.849   6.207  0.1390 -0.2249  0.0509
 3771TIP3    H132872   1.277   5.920   6.193 -0.9565 -1.3572 -0.9442
 3771TIP3    H232873   1.411   5.868   6.145 -1.0323 -0.9824 -1.5594
 3772TIP3   OH232874   4.662   3.979   0.110  0.4483  0.3143 -0.2273
 3772TIP3    H132875   4.641   4.000   0.201  2.3625  0.9216  0.1221
 3772TIP3    H232876   4.654   3.884   0.105 -0.5205  0.3593  0.3317
 3773TIP3   OH232877   4.829   4.073   7.942  0.3907  0.6004  0.5388
 3773TIP3    H132878   4.806   4.008   7.876 -0.8251  1.3289  0.2137
 3773TIP3    H232879   4.924   4.067   7.949  0.4816  0.0658 -0.8172
 3774TIP3   OH232880   0.464   2.769   6.284 -0.8965  0.2584  0.6138
 3774TIP3    H132881   0.517   2.837   6.325 -0.7081  0.5475 -0.0981
 3774TIP3    H232882   0.526   2.718   6.233 -1.3805  0.9936 -0.7503
 3775TIP3   OH232883   5.442   2.642   0.440  0.0398  0.4803  0.3606
 3775TIP3    H132884   5.436   2.708   0.509  1.0412  0.8441  0.1222
 3775TIP3    H232885   5.483   2.688   0.366 -0.4511 -0.0635 -0.2642
 3776TIP3   OH232886   1.661   0.725   2.350  0.2311 -0.0232 -0.1473
 3776TIP3    H132887   1.743   0.679   2.334 -0.0410 -0.1879 -1.1498
 3776TIP3    H232888   1.598   0.682   2.293 -0.2888  0.8415 -0.2401
 3777TIP3   OH232889   3.882   4.097   6.770  0.1839  0.7204  0.4967
 3777TIP3    H132890   3.942   4.023   6.773  0.7055  1.1560  1.2849
 3777TIP3    H232891   3.938   4.174   6.778 -0.1041  1.3687 -2.3012
 3778TIP3   OH232892   5.831   4.673   2.853  0.0783 -0.2628 -0.5981
 3778TIP3    H132893   5.910   4.681   2.800  0.9209  0.3030  0.6806
 3778TIP3    H232894   5.836   4.746   2.915 -0.8525 -0.8853  0.2538
 3779TIP3   OH232895   0.887   5.410   0.816  0.7486  0.1845 -0.4996
 3779TIP3    H132896   0.803   5.451   0.796  0.3595  0.4082  1.3946
 3779TIP3    H232897   0.866   5.348   0.886  1.6110 -2.1223 -2.1607
 3780TIP3   OH232898   4.430   1.836   7.450 -0.4077 -0.1853 -0.3146
 3780TIP3    H132899   4.446   1.742   7.440  1.0990  0.0830 -0.6261
 3780TIP3    H232900   4.408   1.866   7.362 -2.0679 -0.4276 -0.0110
 3781TIP3   OH232901   1.747   1.271   1.298  0.1089  0.2584  0.5808
 3781TIP3    H132902   1.755   1.359   1.262 -0.0823 -0.3868 -1.1393
 3781TIP3    H232903   1.814   1.220   1.252 -3.3438 -1.7717 -2.8619
 3782TIP3   OH232904   3.618   6.418   6.919  0.0898  0.1898 -0.4930
 3782TIP3    H132905   3.627   6.415   7.014 -1.0460 -0.3544 -0.3888
 3782TIP3    H232906   3.626   6.326   6.891  2.8800  0.5555 -1.2088
 3783TIP3   OH232907   3.773   2.389   2.516  0.1253 -0.1113  0.0080
 3783TIP3    H132908   3.720   2.466   2.495 -1.3828 -1.5979 -2.0956
 3783TIP3    H232909   3.726   2.347   2.589  0.4571  0.4835  0.5675
 3784TIP3   OH232910   2.346   5.250   1.489  0.1636 -0.4703 -0.3224
 3784TIP3    H132911   2.375   5.327   1.538 -0.0602  0.7417 -2.0012
 3784TIP3    H232912   2.364   5.177   1.548  1.5895  0.7220  0.8320
 3785TIP3   OH232913   1.659   5.889   1.010  0.0113  0.1090  1.0912
 3785TIP3    H132914   1.609   5.961   0.971  0.3048  0.2738  1.0216
 3785TIP3    H232915   1.708   5.850   0.938 -0.4731 -0.4347  1.0493
 3786TIP3   OH232916   1.833   3.307   2.347  0.0958  0.1905 -0.3486
 3786TIP3    H132917   1.818   3.312   2.441  2.1071  1.2726 -0.0264
 3786TIP3    H232918   1.745   3.313   2.308 -0.8611 -1.3559  1.4357
 3787TIP3   OH232919   5.254   2.093   1.576  0.6934 -0.0063 -0.2025
 3787TIP3    H132920   5.305   2.046   1.510 -0.8331  0.0825 -1.5025
 3787TIP3    H232921   5.306   2.172   1.594  1.9628 -0.8596  0.0180
 3788TIP3   OH232922   0.864   1.312   7.006 -0.1622  0.4906 -0.2193
 3788TIP3    H132923   0.929   1.380   6.983 -0.5086  1.3668  1.2346
 3788TIP3    H232924   0.836   1.277   6.922  0.1337  2.0672 -1.0273
 3789TIP3   OH232925   1.404   6.356   1.176 -0.1977  0.3678  0.3224
 3789TIP3    H132926   1.397   6.355   1.081  1.4007  2.3184  0.1030
 3789TIP3    H232927   1.345   6.426   1.204  0.6777  1.0240  0.5707
 3790TIP3   OH232928   4.551   1.650   1.146 -0.0947 -0.4193  1.0436
 3790TIP3    H132929   4.516   1.606   1.224 -2.5231  0.7274  0.7149
 3790TIP3    H232930   4.473   1.675   1.096  1.3708 -0.8679 -1.6440
 3791TIP3   OH232931   4.611   6.238   0.687  0.1763  0.0558 -0.4675
 3791TIP3    H132932   4.646   6.163   0.638 -1.7590 -0.0203 -1.8598
 3791TIP3    H232933   4.518   6.217   0.700 -0.2417  1.8711 -0.2293
 3792TIP3   OH232934   3.000   5.636   7.530 -0.8130  0.3422 -0.1284
 3792TIP3    H132935   3.006   5.718   7.578 -2.2123  0.7967 -0.6906
 3792TIP3    H232936   3.001   5.568   7.598  0.6166  0.7750  0.3233
 3793TIP3   OH232937   5.022   5.388   7.762  0.6407 -0.0357  0.2806
 3793TIP3    H132938   4.971   5.460   7.724 -0.2301 -0.4277  0.6816
 3793TIP3    H232939   4.987   5.378   7.851  0.4448 -1.2471  0.0781
 3794TIP3   OH232940   6.895   1.520   0.199  0.4376 -1.0116  0.2787
 3794TIP3    H132941   6.879   1.541   0.107 -1.1151 -1.2394  0.4704
 3794TIP3    H232942   6.957   1.448   0.197  0.5354 -0.9111 -0.5870
 3795TIP3   OH232943   0.233   3.240   8.351 -0.1462  0.5066 -0.0362
 3795TIP3    H132944   0.247   3.320   8.301 -0.0507  1.4209  1.3974
 3795TIP3    H232945   0.201   3.177   8.287  1.6612  1.0795 -1.6043
 3796TIP3   OH232946   0.066   6.401   7.991  0.2319 -0.0305 -0.0813
 3796TIP3    H132947   0.069   6.392   7.896 -1.7437  0.0176 -0.1791
 3796TIP3    H232948   0.081   6.312   8.024 -1.5724 -0.5277 -0.5327
 3797TIP3   OH232949   0.819   1.326   0.931 -0.5721  0.2772 -0.0708
 3797TIP3    H132950   0.893   1.336   0.871  0.1990  0.7948  0.9404
 3797TIP3    H232951   0.743   1.353   0.879 -0.0407 -0.1137 -1.0802
 3798TIP3   OH232952   4.992   0.009   0.388 -0.0540 -0.6703 -0.9404
 3798TIP3    H132953   4.929   0.016   0.316  0.6333  0.2346 -1.4815
 3798TIP3    H232954   5.069  -0.030   0.348 -0.1184 -1.3897 -0.3757
 3799TIP3   OH232955   6.244   2.779   0.410  0.8265  0.3450  0.0916
 3799TIP3    H132956   6.175   2.836   0.443  2.3523  2.2382  0.2137
 3799TIP3    H232957   6.262   2.718   0.482 -0.2262  0.2619  0.2953
 3800TIP3   OH232958   0.136   3.960   0.832 -0.2716  0.0638 -0.0535
 3800TIP3    H132959   0.203   4.013   0.876 -0.2396 -1.0244  1.2675
 3800TIP3    H232960   0.107   4.014   0.758  0.7308  1.3270  0.4462
 3801TIP3   OH232961   2.921   5.822   1.972 -0.0362 -0.8031  0.1430
 3801TIP3    H132962   3.000   5.772   1.991  0.6873 -0.1307 -0.9930
 3801TIP3    H232963   2.852   5.775   2.019  1.3928  0.1939  3.5926
 3802TIP3   OH232964   4.502   1.973   6.937  0.2421  0.6823 -0.0626
 3802TIP3    H132965   4.478   2.064   6.922 -0.8267  0.4913  0.3380
 3802TIP3    H232966   4.482   1.929   6.854  0.7728  0.8165 -0.2607
 3803TIP3   OH232967   3.982   0.368   8.060 -0.0765 -0.2656  0.6141
 3803TIP3    H132968   3.942   0.454   8.044  1.3945  0.3180 -0.1014
 3803TIP3    H232969   3.926   0.328   8.126 -0.5611  1.4134  1.2818
 3804TIP3   OH232970   3.341   2.294   2.600  0.2173  0.5273 -0.3834
 3804TIP3    H132971   3.267   2.262   2.549 -0.2606  0.0416  0.6019
 3804TIP3    H232972   3.401   2.220   2.606 -1.1677 -0.5197  2.4257
 3805TIP3   OH232973   4.059   2.426   1.094 -0.1968  0.1520 -0.0079
 3805TIP3    H132974   4.061   2.455   1.003  1.1473 -1.0315 -0.3929
 3805TIP3    H232975   4.072   2.506   1.145 -0.4716  0.7579 -0.8622
 3806TIP3   OH232976   1.978   4.427   0.951 -0.0530  0.5719  0.4365
 3806TIP3    H132977   1.945   4.411   1.040  1.2096 -0.2570  0.7840
 3806TIP3    H232978   2.072   4.439   0.962  0.2611 -0.4683 -0.8846
 3807TIP3   OH232979   3.589   5.648   1.694 -0.2932 -0.0443  0.3877
 3807TIP3    H132980   3.642   5.719   1.729 -1.6393  0.9740  0.4245
 3807TIP3    H232981   3.498   5.676   1.707 -0.8511 -0.9858 -1.1747
 3808TIP3   OH232982   0.029   3.324   6.176 -0.0530  0.0426 -0.5105
 3808TIP3    H132983  -0.046   3.379   6.152  0.1345  1.0046  0.9664
 3808TIP3    H232984   0.039   3.263   6.103 -0.7217  1.5066 -1.8809
 3809TIP3   OH232985   6.166   0.459   2.101 -0.0157 -0.3504  0.0032
 3809TIP3    H132986   6.111   0.469   2.179  0.0698 -1.6888  0.2497
 3809TIP3    H232987   6.110   0.490   2.029 -0.0666  0.9686  0.5791
 3810TIP3   OH232988   0.129   2.294   2.395  0.2872  0.0758  0.1470
 3810TIP3    H132989   0.085   2.242   2.462  2.3609  1.3723  2.6842
 3810TIP3    H232990   0.215   2.253   2.386  0.6304  0.9178 -0.5106
 3811TIP3   OH232991   2.900   1.441   0.835 -0.6559  0.3128 -0.1557
 3811TIP3    H132992   2.943   1.525   0.854 -0.1213 -0.1039  0.5264
 3811TIP3    H232993   2.811   1.452   0.868 -0.4379  0.4428  0.4004
 3812TIP3   OH232994   4.791   1.583   6.727 -0.6427 -0.0868 -0.0060
 3812TIP3    H132995   4.749   1.661   6.762 -0.5120  1.0430 -2.1700
 3812TIP3    H232996   4.863   1.565   6.788 -0.1957  1.9714  0.1302
 3813TIP3   OH232997   6.096   4.011   0.114 -0.1120 -0.1618 -0.5452
 3813TIP3    H132998   6.145   3.933   0.088  0.1284 -0.4407  0.6709
 3813TIP3    H232999   6.016   4.007   0.061  0.3917 -0.6289 -1.2964
 3814TIP3   OH233000   0.161   6.355   7.184  0.0520  0.0760 -0.5407
 3814TIP3    H133001   0.191   6.439   7.150 -2.4710  0.5451 -1.7994
 3814TIP3    H233002   0.072   6.372   7.215 -0.4789 -2.1170 -0.7390
 3815TIP3   OH233003   2.013   4.665   6.605  0.6277 -0.4093 -0.1173
 3815TIP3    H133004   2.088   4.609   6.627  1.2026  0.8320  1.2952
 3815TIP3    H233005   2.050   4.754   6.602 -0.9748  0.4009  1.8665
 3816TIP3   OH233006   4.795   0.130   0.187  0.0625 -0.2212  0.5217
 3816TIP3    H133007   4.720   0.146   0.130  0.7727  0.6274 -0.2018
 3816TIP3    H233008   4.855   0.202   0.169  0.0595  0.4146  2.7917
 3817TIP3   OH233009   6.720   4.923   6.841 -0.2562  0.0440 -0.6542
 3817TIP3    H133010   6.744   4.885   6.926 -0.5750 -0.1015 -0.6262
 3817TIP3    H233011   6.755   5.011   6.844 -3.3514  1.3851  1.1481
 3818TIP3   OH233012   4.915   5.415   0.382  0.1527 -0.3237  0.0253
 3818TIP3    H133013   4.981   5.429   0.449 -0.2023 -1.1714  0.5821
 3818TIP3    H233014   4.959   5.434   0.299  0.1426  2.3695  0.5482
 3819TIP3   OH233015   1.009   0.468   0.964 -0.2063  0.1980 -0.0315
 3819TIP3    H133016   0.920   0.484   0.933 -0.0349 -0.9926 -1.2502
 3819TIP3    H233017   1.015   0.372   0.969  1.7620  0.0856 -2.4326
 3820TIP3   OH233018   3.712   2.113   7.496  0.3819 -0.1967 -0.4300
 3820TIP3    H133019   3.674   2.041   7.445  0.1915 -1.3560  1.2463
 3820TIP3    H233020   3.637   2.160   7.532  0.4676 -1.0511  0.9530
 3821TIP3   OH233021   4.859   4.823   2.666  0.4464 -0.8043  0.8100
 3821TIP3    H133022   4.783   4.875   2.694  1.0503  0.7251 -0.2707
 3821TIP3    H233023   4.932   4.859   2.716  1.0549  0.1171 -0.6983
 3822TIP3   OH233024   6.908   2.255   7.076  0.3045 -0.5850 -0.4241
 3822TIP3    H133025   6.940   2.179   7.126  2.3611 -0.8806 -2.0629
 3822TIP3    H233026   6.889   2.220   6.989  1.6054  0.8041 -1.3008
 3823TIP3   OH233027   1.134   4.460   7.014  0.6871  0.3143  0.3261
 3823TIP3    H133028   1.149   4.470   6.919  1.9971 -2.8975  0.0697
 3823TIP3    H233029   1.218   4.486   7.053  0.5248  0.5331  0.5294
 3824TIP3   OH233030   3.543   2.432   7.410  0.2389 -0.2256 -0.3801
 3824TIP3    H133031   3.636   2.451   7.421  0.0341 -0.0113  1.2162
 3824TIP3    H233032   3.515   2.489   7.339  1.3803 -0.5182 -1.0957
 3825TIP3   OH233033   1.167   4.028   2.164 -0.1530  0.3646 -0.5706
 3825TIP3    H133034   1.138   4.075   2.242 -0.3469  0.4644 -0.7001
 3825TIP3    H233035   1.248   3.985   2.190  0.0478  0.8059 -0.4631
 3826TIP3   OH233036   2.885   2.442   8.242  0.5696  0.1428  0.8467
 3826TIP3    H133037   2.940   2.498   8.296 -0.2309  0.0877  1.7557
 3826TIP3    H233038   2.816   2.412   8.301  0.3588 -0.9196  0.1046
 3827TIP3   OH233039   2.425   3.846   7.844 -0.3656  0.2428 -0.0914
 3827TIP3    H133040   2.402   3.924   7.794  2.2314  0.2741 -1.4103
 3827TIP3    H233041   2.371   3.776   7.806  0.3135  0.6087 -1.7988
 3828TIP3   OH233042   2.060   4.438   2.250  0.3706  0.1167 -0.1020
 3828TIP3    H133043   1.967   4.459   2.240  0.3385  0.2302  0.4121
 3828TIP3    H233044   2.083   4.393   2.169 -0.2606 -0.3602 -0.0280
 3829TIP3   OH233045   1.903   5.521   0.150 -0.1007 -0.2371  0.5479
 3829TIP3    H133046   1.900   5.570   0.068  0.1672  0.7713  1.1250
 3829TIP3    H233047   1.854   5.440   0.132  3.1277 -1.9147 -1.7986
 3830TIP3   OH233048   2.195   4.592   2.666  0.3322  0.1128  0.3933
 3830TIP3    H133049   2.276   4.612   2.618  0.2214 -2.1441 -0.8359
 3830TIP3    H233050   2.137   4.666   2.646  1.6166  1.1267  0.2473
 3831TIP3   OH233051   2.758   2.021   6.932 -0.0084 -0.4193 -0.7087
 3831TIP3    H133052   2.668   2.030   6.899  0.1618  1.4262 -0.7748
 3831TIP3    H233053   2.751   2.041   7.025  0.6659  2.5155 -1.1865
 3832TIP3   OH233054   4.297   1.904   2.138  0.8215  0.2567 -0.1849
 3832TIP3    H133055   4.285   1.818   2.097 -1.0641 -1.0939  2.8320
 3832TIP3    H233056   4.307   1.885   2.231  0.8258  3.3371  0.5562
 3833TIP3   OH233057   2.317   6.537   1.978  0.0314 -0.2011  0.1749
 3833TIP3    H133058   2.383   6.471   1.999  0.5443 -0.6755 -2.4978
 3833TIP3    H233059   2.322   6.601   2.049  2.9426 -0.5479  0.3818
 3834TIP3   OH233060   2.983   2.485   2.069  0.0876  0.3132 -0.2674
 3834TIP3    H133061   2.951   2.479   2.159  0.0578  1.4176 -0.1899
 3834TIP3    H233062   2.985   2.579   2.051  1.9598  0.2185 -0.7419
 3835TIP3   OH233063   6.445   5.305   8.317 -0.3341  0.3129 -0.4034
 3835TIP3    H133064   6.399   5.335   8.238  0.0647  0.9292 -0.4093
 3835TIP3    H233065   6.379   5.258   8.367 -0.6543  0.1161 -0.9945
 3836TIP3   OH233066   5.998   3.646   6.837  0.1977 -0.3279 -0.1922
 3836TIP3    H133067   5.959   3.569   6.878  2.0455  0.0803  2.5791
 3836TIP3    H233068   6.002   3.711   6.906  2.7134  0.7330 -1.1916
 3837TIP3   OH233069   2.654   3.099   1.192 -0.4757  0.3585  0.1336
 3837TIP3    H133070   2.570   3.125   1.230 -1.5124  1.3047 -2.5643
 3837TIP3    H233071   2.719   3.121   1.259 -2.1580  1.9721  1.3300
 3838TIP3   OH233072   3.171   2.514   0.988  0.2450 -0.2252  0.4495
 3838TIP3    H133073   3.213   2.445   1.039  2.2999 -0.1068 -0.9673
 3838TIP3    H233074   3.244   2.569   0.958 -1.0873  0.9276 -0.8099
 3839TIP3   OH233075   6.512   5.215   2.013  0.3831 -0.1636  0.1521
 3839TIP3    H133076   6.530   5.189   2.103 -0.2192 -0.2842  0.2482
 3839TIP3    H233077   6.585   5.271   1.988  1.4608 -1.5617  0.1049
 3840TIP3   OH233078   6.540   3.158   6.650 -0.2439 -0.0928  0.5702
 3840TIP3    H133079   6.615   3.192   6.602 -1.4888  2.2677  0.1512
 3840TIP3    H233080   6.494   3.104   6.586 -0.7186  1.2631 -0.2715
 3841TIP3   OH233081   0.233   4.296   6.699  0.8347  0.1204  0.4758
 3841TIP3    H133082   0.271   4.304   6.787  1.5517  1.4665  0.0660
 3841TIP3    H233083   0.144   4.263   6.715  0.2637  2.1756  1.8873
 3842TIP3   OH233084   4.566   0.161   0.778  0.6177  0.2760 -0.3290
 3842TIP3    H133085   4.564   0.097   0.707  1.1364 -0.4136  0.2649
 3842TIP3    H233086   4.479   0.154   0.818  0.8756 -0.5188  0.1198
 3843TIP3   OH233087   6.494   5.869   8.318 -0.0430  0.5422  0.2471
 3843TIP3    H133088   6.573   5.826   8.349 -0.7115 -1.3740 -0.5966
 3843TIP3    H233089   6.438   5.874   8.395  0.0440 -0.1032  0.3560
 3844TIP3   OH233090   2.282   6.905   0.129 -0.0060  0.2944  0.1781
 3844TIP3    H133091   2.192   6.883   0.152 -0.2612  1.6235  0.5175
 3844TIP3    H233092   2.277   6.941   0.041  0.2332  0.1867  0.1169
 3845TIP3   OH233093   4.413   2.238   0.388 -0.2180 -0.0357  0.3712
 3845TIP3    H133094   4.507   2.249   0.401 -0.2295  1.8255 -0.8860
 3845TIP3    H233095   4.376   2.243   0.477  0.7520  0.3366  0.7688
 3846TIP3   OH233096   4.951   1.671   0.707 -0.6713  0.1905 -0.4973
 3846TIP3    H133097   4.992   1.736   0.765 -1.8433  0.0690  0.5057
 3846TIP3    H233098   4.965   1.588   0.752 -0.7070 -0.0372 -0.9073
 3847TIP3   OH233099   0.562   2.539   2.349  0.1566  0.2403  0.1113
 3847TIP3    H133100   0.569   2.466   2.410  1.0718  0.1452 -0.0960
 3847TIP3    H233101   0.482   2.520   2.299  1.1372 -1.4251 -0.9469
 3848TIP3   OH233102   2.531   2.830   7.620 -0.3953 -0.4709 -1.0721
 3848TIP3    H133103   2.440   2.820   7.648 -0.0297 -0.9573 -0.0316
 3848TIP3    H233104   2.581   2.775   7.680  0.7958  1.2744 -0.4066
 3849TIP3   OH233105   3.068   2.390   7.977  0.2070 -0.0484  0.0880
 3849TIP3    H133106   3.029   2.477   7.964  0.4850  0.5523  2.7173
 3849TIP3    H233107   3.126   2.401   8.052 -2.6534 -3.3050  3.1678
 3850TIP3   OH233108   4.793   6.906   7.634 -0.0724 -1.1252 -0.5862
 3850TIP3    H133109   4.780   6.939   7.545  0.9264  0.7788 -0.0696
 3850TIP3    H233110   4.705   6.898   7.670 -0.3882  1.9703 -0.4423
 3851TIP3   OH233111   6.157   5.203   2.369 -0.1787  0.1856  0.4017
 3851TIP3    H133112   6.200   5.122   2.341  1.0601  1.0326 -0.2546
 3851TIP3    H233113   6.074   5.174   2.407  1.1168 -1.5715  2.1402
 3852TIP3   OH233114   4.066   2.843   8.279 -0.0386 -0.0326 -0.2438
 3852TIP3    H133115   4.105   2.820   8.363 -2.7231  1.4252  1.5196
 3852TIP3    H233116   4.127   2.908   8.242  0.1557  0.9026  1.6010
 3853TIP3   OH233117   3.320   4.786   7.994  0.7136  0.0378 -1.1358
 3853TIP3    H133118   3.275   4.722   8.049 -0.7643  2.5007  0.7637
 3853TIP3    H233119   3.280   4.775   7.908 -1.9337  0.5046 -0.0731
 3854TIP3   OH233120   6.299   0.932   7.227  0.3274  0.1757  0.0239
 3854TIP3    H133121   6.311   0.984   7.306  0.2890 -0.7104  0.6236
 3854TIP3    H233122   6.253   0.990   7.167 -0.2406  0.6437  0.8890
 3855TIP3   OH233123   2.555   1.817   6.607 -0.1844  0.0449  0.1874
 3855TIP3    H133124   2.484   1.866   6.565 -0.1092  0.1644  0.1989
 3855TIP3    H233125   2.596   1.880   6.666  1.9176  0.9585 -2.0778
 3856TIP3   OH233126   2.898   4.048   0.688  0.3913 -0.3133  0.4558
 3856TIP3    H133127   2.946   4.109   0.632 -0.8691 -1.1671 -1.6715
 3856TIP3    H233128   2.966   4.009   0.744  1.7045  0.6103 -0.4321
 3857TIP3   OH233129   1.849   2.628   0.014  0.1043 -0.5800  0.4253
 3857TIP3    H133130   1.768   2.619   0.065  0.1787  0.1192  0.6700
 3857TIP3    H233131   1.915   2.656   0.077  0.8418 -2.2919  0.4685
 3858TIP3   OH233132   2.923   6.486   1.126  0.4010  0.1293  0.1225
 3858TIP3    H133133   2.865   6.459   1.056 -1.3030  1.4799  0.9226
 3858TIP3    H233134   2.929   6.582   1.117  0.5907  0.2716  1.4690
 3859TIP3   OH233135   5.827   5.103   1.134  0.1786 -0.0245 -0.1206
 3859TIP3    H133136   5.858   5.143   1.053 -1.6898 -0.1708 -0.9712
 3859TIP3    H233137   5.905   5.093   1.188  1.1651  2.0467 -1.0408
 3860TIP3   OH233138   0.550   2.033   1.073 -0.1708 -0.4834  0.2185
 3860TIP3    H133139   0.553   1.995   0.985  2.3468  0.5663 -0.2111
 3860TIP3    H233140   0.556   2.127   1.060 -0.3415 -0.2659  1.5095
 3861TIP3   OH233141   5.232   2.978   1.519  0.8951 -0.5196  0.3563
 3861TIP3    H133142   5.293   3.025   1.576  0.3414 -1.4678  1.7894
 3861TIP3    H233143   5.168   2.939   1.579 -0.5856 -0.3352 -1.0312
 3862TIP3   OH233144   0.874   0.713   1.983  0.0216 -0.3331 -0.3640
 3862TIP3    H133145   0.870   0.809   1.979 -1.1019 -0.3698 -0.4499
 3862TIP3    H233146   0.837   0.684   1.900 -1.4619 -0.8416  0.4344
 3863TIP3   OH233147   3.626   6.137   7.492  0.1113 -0.0378 -0.4606
 3863TIP3    H133148   3.603   6.184   7.572 -2.0001  0.9797 -1.5776
 3863TIP3    H233149   3.559   6.163   7.429  0.5343 -2.3540 -1.9967
 3864TIP3   OH233150   1.836   0.081   7.017  0.1062 -0.2055 -0.2858
 3864TIP3    H133151   1.806   0.127   7.095  3.0144  0.6346  0.4447
 3864TIP3    H233152   1.776   0.006   7.008 -1.1539  0.4734  1.8903
 3865TIP3   OH233153   4.103   6.760   6.887 -0.4064  0.5271 -0.4019
 3865TIP3    H133154   4.069   6.838   6.931 -1.2146  0.1159 -0.2845
 3865TIP3    H233155   4.071   6.687   6.939  3.0524  0.1458  1.4470
 3866TIP3   OH233156   6.825   4.221   1.467  0.2636  0.3186  0.2746
 3866TIP3    H133157   6.859   4.266   1.389 -2.3660 -1.2962 -2.0015
 3866TIP3    H233158   6.869   4.136   1.466  1.0226  0.6763  1.2642
 3867TIP3   OH233159   1.541   3.312   2.373  0.3734  0.1561  0.1184
 3867TIP3    H133160   1.570   3.389   2.422 -0.3581 -0.3941  1.4768
 3867TIP3    H233161   1.466   3.279   2.422  0.3343 -1.1134 -0.7394
 3868TIP3   OH233162   2.757   1.147   0.881  0.7150  0.5218 -0.2560
 3868TIP3    H133163   2.823   1.194   0.831  0.0271  0.7436 -0.9741
 3868TIP3    H233164   2.695   1.115   0.816 -0.1810  0.7928  0.4436
 3869TIP3   OH233165   1.686   0.482   8.104 -0.4021  0.5571 -0.9729
 3869TIP3    H133166   1.595   0.454   8.098 -0.7318  1.4548 -0.3944
 3869TIP3    H233167   1.681   0.573   8.133  0.7035  0.1987  0.4378
 3870TIP3   OH233168   6.285   3.288   1.841 -0.3069  0.1101 -0.7414
 3870TIP3    H133169   6.312   3.378   1.861 -0.9908 -0.0477  1.1061
 3870TIP3    H233170   6.223   3.297   1.769  0.4302  0.9996 -1.2909
 3871TIP3   OH233171   6.019   1.646   1.468  0.8820 -0.4872  0.1316
 3871TIP3    H133172   6.026   1.741   1.481  0.3444 -0.2773 -0.9469
 3871TIP3    H233173   6.014   1.636   1.373  2.7446 -1.7361  0.0977
 3872TIP3   OH233174   6.423   2.818   7.946  0.3712  0.1283  0.2350
 3872TIP3    H133175   6.403   2.733   7.986 -0.4223  0.7017  1.1089
 3872TIP3    H233176   6.349   2.836   7.888  0.9081 -0.1121 -0.5428
 3873TIP3   OH233177   5.482   4.154   7.246 -0.3469 -0.0248  0.3374
 3873TIP3    H133178   5.459   4.122   7.158  1.3876  0.4540 -0.3425
 3873TIP3    H233179   5.533   4.233   7.229 -1.9835  1.4616  1.8803
 3874TIP3   OH233180   1.561   6.087   8.025 -0.3568 -0.3480 -1.0198
 3874TIP3    H133181   1.543   5.996   8.047  1.0750 -0.6702 -1.0955
 3874TIP3    H233182   1.616   6.083   7.946  1.5564  0.4606  0.1975
 3875TIP3   OH233183   0.589   5.983   7.145  0.6413  0.0729 -0.0888
 3875TIP3    H133184   0.684   5.975   7.136  0.6775  1.2499 -0.7888
 3875TIP3    H233185   0.573   6.077   7.154 -0.1967 -0.2391  3.2110
 3876TIP3   OH233186   4.063   4.318   0.254 -0.7026 -0.2383 -0.4832
 3876TIP3    H133187   3.992   4.258   0.274 -1.0706  0.2813 -0.2082
 3876TIP3    H233188   4.020   4.400   0.229 -0.2125 -0.1350 -1.0226
 3877TIP3   OH233189   6.449   4.933   6.868  0.0642 -0.6893  0.4968
 3877TIP3    H133190   6.415   4.846   6.845  1.7574 -1.5728  1.1441
 3877TIP3    H233191   6.544   4.924   6.861  0.2629  1.3075 -0.0026
 3878TIP3   OH233192   3.507   0.706   6.943 -0.3293 -0.2669 -0.0236
 3878TIP3    H133193   3.568   0.776   6.921  0.5619 -1.4570 -1.5768
 3878TIP3    H233194   3.477   0.672   6.859 -3.8552  0.7598  0.6371
 3879TIP3   OH233195   4.923   3.022   1.877  0.1556  0.2694 -0.0709
 3879TIP3    H133196   4.886   3.008   1.964 -3.2368 -0.4839 -1.4497
 3879TIP3    H233197   4.903   3.114   1.856 -0.4632  0.0189 -0.6186
 3880TIP3   OH233198   1.031   3.330   7.979  0.1887  0.0542 -0.3628
 3880TIP3    H133199   1.053   3.341   8.071 -3.4033  1.0119  0.5323
 3880TIP3    H233200   1.059   3.240   7.958  0.8427 -0.2664  1.7073
 3881TIP3   OH233201   4.732   4.817   6.976 -0.3965 -0.3450 -0.4266
 3881TIP3    H133202   4.774   4.840   6.893 -1.7280 -0.4230 -1.1515
 3881TIP3    H233203   4.674   4.891   6.995  0.2227 -0.1303  0.6671
 3882TIP3   OH233204   3.165   1.758   6.519 -0.0086 -0.5374  0.3921
 3882TIP3    H133205   3.152   1.665   6.540  1.2972 -1.1385 -1.2144
 3882TIP3    H233206   3.091   1.780   6.463 -0.0079 -0.7793  0.2929
 3883TIP3   OH233207   3.248   6.157   1.288 -0.3266 -0.4851 -0.2302
 3883TIP3    H133208   3.160   6.147   1.252 -0.2953  0.1451 -0.4923
 3883TIP3    H233209   3.242   6.235   1.344  0.4365  0.4772 -1.4441
 3884TIP3   OH233210   7.007   5.255   1.626  0.2046  0.2739  0.1411
 3884TIP3    H133211   6.999   5.327   1.690  1.5658  0.0714  0.5724
 3884TIP3    H233212   7.079   5.282   1.569  1.2350 -1.0603  0.7587
 3885TIP3   OH233213   3.384   5.158   8.037 -0.0489 -0.3120 -0.5244
 3885TIP3    H133214   3.324   5.229   8.011 -0.4580 -0.3996  0.1737
 3885TIP3    H233215   3.380   5.096   7.964 -0.5403 -0.1464 -0.6441
 3886TIP3   OH233216   4.161   4.899   8.038  0.4106  0.3737  0.1038
 3886TIP3    H133217   4.160   4.804   8.025 -0.9810  0.5568 -1.4810
 3886TIP3    H233218   4.252   4.920   8.055  0.5088 -1.4330  2.2729
 3887TIP3   OH233219   0.643   3.441   6.543  0.3070 -0.1194  0.1711
 3887TIP3    H133220   0.669   3.349   6.545  0.1944 -0.1814 -0.6925
 3887TIP3    H233221   0.725   3.489   6.544  0.3552 -0.2072  1.1830
 3888TIP3   OH233222   4.542   2.607   8.001 -0.0921  0.1998  0.3345
 3888TIP3    H133223   4.575   2.651   7.923  0.7298 -0.8016  0.0979
 3888TIP3    H233224   4.458   2.649   8.018 -1.2465 -0.8632 -2.2501
 3889TIP3   OH233225   6.515   1.272   0.734  0.5238  0.3040 -0.4102
 3889TIP3    H133226   6.525   1.368   0.738  1.9473  0.2668 -1.8237
 3889TIP3    H233227   6.425   1.259   0.705  0.7142  1.3057 -1.5559
 3890TIP3   OH233228   5.917   3.049   1.135 -0.7999  0.1025  0.3638
 3890TIP3    H133229   6.006   3.025   1.111 -0.3268  1.0700  1.0845
 3890TIP3    H233230   5.919   3.144   1.145 -2.3834  0.3908 -1.4650
 3891TIP3   OH233231   6.288   4.186   7.335  0.1054 -0.3133 -0.2605
 3891TIP3    H133232   6.356   4.244   7.299  0.5278  0.4151  1.6089
 3891TIP3    H233233   6.227   4.245   7.379 -2.0569 -0.9154 -2.2687
 3892TIP3   OH233234   2.282   4.355   0.621 -0.0790 -0.3619 -0.1756
 3892TIP3    H133235   2.194   4.330   0.592  0.0965 -0.1673 -0.8972
 3892TIP3    H233236   2.279   4.451   0.626  0.1848 -0.3318 -0.5339
 3893TIP3   OH233237   1.593   2.158   7.895  0.1026  0.0363  0.0038
 3893TIP3    H133238   1.669   2.110   7.864  0.7181  1.2515 -0.4530
 3893TIP3    H233239   1.528   2.147   7.826 -0.7336 -2.2655  1.0716
 3894TIP3   OH233240   6.642   1.721   8.070 -0.1927 -0.0907 -0.2209
 3894TIP3    H133241   6.687   1.648   8.028 -0.5262  0.0715 -0.8824
 3894TIP3    H233242   6.652   1.794   8.008 -1.2208 -0.0104 -0.3074
 3895TIP3   OH233243   6.895   3.490   7.335  0.1125  0.6734  0.1813
 3895TIP3    H133244   6.929   3.565   7.384 -0.2290  1.2175 -0.4017
 3895TIP3    H233245   6.800   3.497   7.342  0.0657 -0.9133  1.9141
 3896TIP3   OH233246   4.160   2.182   2.346  0.1807  0.6627 -0.7347
 3896TIP3    H133247   4.162   2.095   2.307 -0.3185  1.6367 -3.0991
 3896TIP3    H233248   4.069   2.194   2.373  0.5445 -0.0464  0.9537
 3897TIP3   OH233249   6.444   3.951   1.610  0.2817  0.4209  0.1321
 3897TIP3    H133250   6.462   3.954   1.516  1.3263  2.1830  0.3507
 3897TIP3    H233251   6.507   3.887   1.644 -0.0510 -0.1724 -0.3338
 3898TIP3   OH233252   0.978   0.460   1.414  0.3928 -0.2624 -0.6336
 3898TIP3    H133253   1.037   0.386   1.432  1.1139  0.4207 -0.1476
 3898TIP3    H233254   1.009   0.495   1.330 -0.0518 -0.5991 -0.9444
 3899TIP3   OH233255   1.260   6.358   7.052  0.3692 -0.1029  0.7645
 3899TIP3    H133256   1.270   6.263   7.058  2.3783 -0.0874 -1.2556
 3899TIP3    H233257   1.341   6.393   7.088  0.3716  0.7656 -0.0506
 3900TIP3   OH233258   1.410   6.021   1.837 -0.4281 -0.0131  0.4737
 3900TIP3    H133259   1.493   5.985   1.805  0.0599  1.5875 -0.2235
 3900TIP3    H233260   1.407   5.999   1.930  0.3377 -0.8816  0.3002
 3901TIP3   OH233261   6.781   1.099   1.201  0.0991  0.4534 -0.2812
 3901TIP3    H133262   6.839   1.077   1.274  1.3631 -1.0620 -1.6602
 3901TIP3    H233263   6.838   1.138   1.136 -1.1617  2.5950 -0.1897
 3902TIP3   OH233264   6.936   2.869   1.191 -0.5015  0.0211 -0.3841
 3902TIP3    H133265   6.891   2.852   1.108 -0.6957 -0.0631 -0.2615
 3902TIP3    H233266   6.981   2.953   1.177 -1.6989  0.7331 -0.0915
 3903TIP3   OH233267   2.895   3.948   1.956 -0.1693 -0.3591  0.0356
 3903TIP3    H133268   2.839   3.906   2.021  0.2154  0.4871  0.9397
 3903TIP3    H233269   2.968   3.983   2.006  0.6060 -0.4614 -0.9786
 3904TIP3   OH233270   3.372   6.757   1.873 -0.7648 -0.6285 -0.1056
 3904TIP3    H133271   3.299   6.736   1.931 -1.5292 -1.3847 -1.2995
 3904TIP3    H233272   3.337   6.747   1.784  0.7175 -0.7926 -0.7175
 3905TIP3   OH233273   2.329   2.278   8.239  0.1720 -0.4036  0.6246
 3905TIP3    H133274   2.268   2.219   8.283 -1.5543 -0.4987 -1.6830
 3905TIP3    H233275   2.334   2.354   8.297 -0.5134 -1.2569  1.8506
 3906TIP3   OH233276   6.351   6.509   7.217 -0.3611 -0.0554  0.1421
 3906TIP3    H133277   6.323   6.582   7.273 -0.5889  0.5892 -0.7754
 3906TIP3    H233278   6.287   6.440   7.234  0.8456 -0.7294  2.3113
 3907TIP3   OH233279   4.444   2.782   7.205  0.7229 -0.0210 -1.1929
 3907TIP3    H133280   4.381   2.805   7.274  1.5678 -0.0018 -0.4172
 3907TIP3    H233281   4.506   2.854   7.204  1.8722 -0.9851 -0.5857
 3908TIP3   OH233282   4.257   5.759   2.409  0.2120  0.0134 -0.0514
 3908TIP3    H133283   4.255   5.677   2.360 -1.1388 -0.3463  0.5410
 3908TIP3    H233284   4.297   5.735   2.493  2.1422  0.5388 -0.7714
 3909TIP3   OH233285   2.464   0.059   1.141 -0.0773 -0.0814  0.3157
 3909TIP3    H133286   2.549   0.018   1.127  0.8274  2.0514 -1.0240
 3909TIP3    H233287   2.440   0.096   1.056 -1.3255  1.1561  1.1480
 3910TIP3   OH233288   6.175   6.643   8.093  0.0730  0.1800 -0.4881
 3910TIP3    H133289   6.105   6.624   8.155  1.5049  1.1980  1.5200
 3910TIP3    H233290   6.129   6.667   8.012 -1.8605 -0.0041  0.4963
 3911TIP3   OH233291   2.477   2.887   0.440  0.4675  0.0347 -0.0910
 3911TIP3    H133292   2.519   2.843   0.366 -0.0405 -2.7823  1.1753
 3911TIP3    H233293   2.515   2.847   0.517  1.2816  3.1848  1.2986
 3912TIP3   OH233294   2.494   0.734   0.760 -0.3270 -0.7080 -0.1164
 3912TIP3    H133295   2.543   0.749   0.679  1.2176 -0.1884  0.8555
 3912TIP3    H233296   2.426   0.801   0.760  0.9106  0.5871 -0.0708
 3913TIP3   OH233297   1.603   1.780   1.893 -0.1276  0.0807 -0.7353
 3913TIP3    H133298   1.650   1.779   1.810  0.6262  1.1425 -0.3379
 3913TIP3    H233299   1.637   1.856   1.939 -0.4408 -0.5677  0.6097
 3914TIP3   OH233300   1.240   6.596   1.134 -0.6804 -0.5544 -0.0117
 3914TIP3    H133301   1.249   6.669   1.072  1.0255  0.3078  1.1788
 3914TIP3    H233302   1.196   6.635   1.210  0.0508 -0.8137  0.5458
 3915TIP3   OH233303   2.876   0.054   7.944  0.2468 -0.5877  0.8057
 3915TIP3    H133304   2.781   0.060   7.957 -0.2353 -2.1631 -1.3576
 3915TIP3    H233305   2.894   0.111   7.869  0.5085 -2.3674 -0.5399
 3916TIP3   OH233306   0.667   5.300   0.571 -0.4273 -0.2882 -0.3590
 3916TIP3    H133307   0.660   5.285   0.477 -0.2847 -0.8341 -0.2872
 3916TIP3    H233308   0.585   5.265   0.607  0.0181 -1.1445 -0.1602
 3917TIP3   OH233309   1.039   4.200   1.742  0.5025 -0.1723 -0.3869
 3917TIP3    H133310   1.020   4.255   1.818 -0.3351 -1.3291  0.2603
 3917TIP3    H233311   1.035   4.110   1.775  1.8930 -0.6487 -1.4210
 3918TIP3   OH233312   2.765   1.803   8.278  0.2039  0.2864  0.6456
 3918TIP3    H133313   2.712   1.723   8.278  0.1087  0.2047  3.9584
 3918TIP3    H233314   2.823   1.794   8.354  1.7113  2.4320 -0.1492
 3919TIP3   OH233315   5.464   6.781   7.257  0.0712  0.1421  0.5101
 3919TIP3    H133316   5.393   6.736   7.302 -0.8363 -0.5645 -1.5460
 3919TIP3    H233317   5.522   6.711   7.227 -0.4854  0.4033 -1.2719
 3920TIP3   OH233318   5.044   5.110   6.625  0.4537 -0.3180 -0.4870
 3920TIP3    H133319   5.094   5.127   6.704 -2.0874  1.2276  0.9257
 3920TIP3    H233320   5.033   5.196   6.584  2.7785 -1.1952 -3.3506
 3921TIP3   OH233321   2.156   0.420   0.703  0.3042  0.4126  0.1179
 3921TIP3    H133322   2.061   0.406   0.707  0.5996 -1.8491  0.3157
 3921TIP3    H233323   2.184   0.422   0.794  0.5797  0.0951  0.0401
 3922TIP3   OH233324   0.375   2.526   0.703  0.4385 -0.4320  0.4501
 3922TIP3    H133325   0.414   2.501   0.787  0.4774 -2.4661 -0.1160
 3922TIP3    H233326   0.344   2.444   0.665 -0.3061  0.5377 -1.1838
 3923TIP3   OH233327   3.847   3.778   2.640 -0.3631  0.1117  0.0627
 3923TIP3    H133328   3.936   3.813   2.633 -0.7143  0.7362 -4.6373
 3923TIP3    H233329   3.856   3.685   2.621 -0.6905  0.3064 -1.1641
 3924TIP3   OH233330   1.403   4.080   7.870 -0.3614 -0.8221 -0.3582
 3924TIP3    H133331   1.453   4.003   7.842 -0.0264 -0.2132 -1.5129
 3924TIP3    H233332   1.313   4.059   7.848 -0.2720 -0.9013 -0.6647
 3925TIP3   OH233333   4.104   4.556   7.649 -0.3974  0.2294 -0.3580
 3925TIP3    H133334   4.100   4.575   7.556  0.8376  0.2889 -0.4150
 3925TIP3    H233335   4.084   4.463   7.656  1.1639 -0.1687 -0.8730
 3926TIP3   OH233336   2.210   2.761   0.171 -0.2099 -0.3717 -0.4514
 3926TIP3    H133337   2.192   2.853   0.189  0.3250 -0.3854  0.1838
 3926TIP3    H233338   2.272   2.763   0.098 -0.8579 -0.2600 -1.0085
 3927TIP3   OH233339   0.172   6.722   2.607 -0.3082 -0.3986 -0.6847
 3927TIP3    H133340   0.229   6.741   2.532  0.7870 -1.5866 -0.1877
 3927TIP3    H233341   0.230   6.731   2.683 -0.8321 -1.4509 -0.1494
 3928TIP3   OH233342   0.406   5.562   1.106  0.2503  0.3846  0.1609
 3928TIP3    H133343   0.495   5.532   1.125  1.5915  0.7517 -4.3743
 3928TIP3    H233344   0.395   5.547   1.012 -2.5056  5.2198 -0.6328
 3929TIP3   OH233345   2.116   4.539   0.073  0.2634 -0.0018 -0.6619
 3929TIP3    H133346   2.078   4.582  -0.004 -1.9422  0.0790  0.3904
 3929TIP3    H233347   2.059   4.565   0.146  3.0795  1.0526  1.3137
 3930TIP3   OH233348   3.206   3.580   0.019  0.1092  0.4694  0.0048
 3930TIP3    H133349   3.158   3.663   0.019  0.7448  0.8490  0.9761
 3930TIP3    H233350   3.230   3.565   0.110 -0.1894 -0.9110 -0.1255
 3931TIP3   OH233351   5.869   2.956   2.158  0.3091  0.0583 -0.3272
 3931TIP3    H133352   5.806   3.000   2.215 -0.5098 -0.8468 -0.5095
 3931TIP3    H233353   5.820   2.935   2.079  1.3162  0.8825 -1.1941
 3932TIP3   OH233354   4.508   6.783   6.444 -0.0619  0.5837  0.3500
 3932TIP3    H133355   4.420   6.761   6.476  0.0248  0.1642  0.3017
 3932TIP3    H233356   4.524   6.871   6.478 -0.9431  1.1176 -0.5485
 3933TIP3   OH233357   2.249   2.048   7.165 -0.3458  0.2301 -0.4000
 3933TIP3    H133358   2.257   2.101   7.086 -0.3692  1.1719  0.2092
 3933TIP3    H233359   2.306   1.973   7.149  1.1664  1.3528 -0.5633
 3934TIP3   OH233360   1.191   2.630   3.250  0.2249 -0.0868  0.3313
 3934TIP3    H133361   1.198   2.714   3.295 -2.1333  0.5865 -0.4197
 3934TIP3    H233362   1.118   2.585   3.294  0.3756 -1.0315 -0.3459
 3935TIP3   OH233363   0.047   1.964   7.734  0.1987  0.4333  0.5536
 3935TIP3    H133364  -0.028   1.921   7.693  1.6087 -0.4593 -1.2113
 3935TIP3    H233365   0.028   1.960   7.828 -1.9543  0.2671  0.1659
 3936TIP3   OH233366   6.546   3.171   0.192  0.1683  0.2867  0.5402
 3936TIP3    H133367   6.539   3.115   0.115 -3.0338  1.6905 -0.3285
 3936TIP3    H233368   6.555   3.110   0.265 -1.9687 -1.3746 -0.4730
 3937TIP3   OH233369   2.323   1.433   7.310 -0.0550  0.4765 -0.7533
 3937TIP3    H133370   2.381   1.359   7.330 -1.2898 -0.6157 -1.1208
 3937TIP3    H233371   2.378   1.493   7.259  0.9571 -0.1904 -0.4898
 3938TIP3   OH233372   0.831   3.725   1.207 -0.1864 -0.4975  0.0547
 3938TIP3    H133373   0.925   3.740   1.211  0.0287 -1.1610 -1.6708
 3938TIP3    H233374   0.823   3.629   1.203 -0.8377 -0.4065 -1.1754
 3939TIP3   OH233375   6.362   0.772   8.242  0.2269 -0.5869 -1.2088
 3939TIP3    H133376   6.331   0.862   8.252  1.3598 -0.3142  0.1108
 3939TIP3    H233377   6.283   0.721   8.224 -0.5210  0.5632 -1.2459
 3940TIP3   OH233378   4.095   1.584   1.289  0.3887  0.0250 -0.2521
 3940TIP3    H133379   4.059   1.564   1.202  3.2990 -2.5866 -1.0801
 3940TIP3    H233380   4.032   1.546   1.350 -1.6051  1.7030 -1.1415
 3941TIP3   OH233381   1.286   0.689   7.762  0.4917 -0.6899  0.9203
 3941TIP3    H133382   1.374   0.655   7.778  0.8944 -0.8400 -1.2660
 3941TIP3    H233383   1.300   0.765   7.705 -0.8805 -2.2075 -1.5834
 3942TIP3   OH233384   4.349   6.535   0.445 -0.0095 -0.0641  0.4195
 3942TIP3    H133385   4.282   6.563   0.383  0.0312  0.3791  0.5744
 3942TIP3    H233386   4.429   6.578   0.415 -0.0035  0.2048  0.8148
 3943TIP3   OH233387   3.403   4.120   7.014  0.1115  0.8507 -0.2277
 3943TIP3    H133388   3.435   4.091   6.928  0.1013  1.3980 -0.4215
 3943TIP3    H233389   3.359   4.043   7.050  0.9937  0.3115 -0.2754
 3944TIP3   OH233390   3.632   0.545   8.202 -0.5256  0.1708 -0.1621
 3944TIP3    H133391   3.720   0.567   8.171 -1.1676  1.7874 -0.9655
 3944TIP3    H233392   3.578   0.619   8.174 -2.4835 -1.5375 -1.1093
 3945TIP3   OH233393   1.194   2.329   6.567  0.2076 -0.1186  0.5159
 3945TIP3    H133394   1.245   2.266   6.516 -0.3943 -0.8134  0.7394
 3945TIP3    H233395   1.237   2.413   6.552  0.9014 -0.5453  0.0298
 3946TIP3   OH233396   6.469   2.632   1.500 -0.0280 -0.0904  0.3371
 3946TIP3    H133397   6.535   2.624   1.568  0.4855 -0.9452 -0.2523
 3946TIP3    H233398   6.429   2.545   1.494 -0.9607  0.3173  0.4318
 3947TIP3   OH233399   5.329   3.464   0.342 -0.3578 -0.4348 -0.6646
 3947TIP3    H133400   5.390   3.397   0.312 -1.3160 -1.7083  0.1468
 3947TIP3    H233401   5.243   3.429   0.321 -1.0329 -0.8568  2.3972
 3948TIP3   OH233402   0.320   4.069   1.433 -0.0428 -0.2302  0.4765
 3948TIP3    H133403   0.305   4.159   1.407 -1.8597 -0.3945  0.7730
 3948TIP3    H233404   0.303   4.068   1.528 -0.1823 -0.8972  0.4559
 3949TIP3   OH233405   3.269   3.986   1.239  0.5568 -0.3058  0.2599
 3949TIP3    H133406   3.299   3.906   1.197  0.0476  0.5577 -1.8835
 3949TIP3    H233407   3.191   3.960   1.288  0.3696 -1.1157 -0.4485
 3950TIP3   OH233408   1.760   2.350   2.137 -0.3977 -0.2500 -0.4607
 3950TIP3    H133409   1.682   2.388   2.178  0.7296 -0.0192  1.6238
 3950TIP3    H233410   1.832   2.406   2.166  0.6636 -1.0174 -1.5315
 3951TIP3   OH233411   2.080   3.000   7.288 -0.0483  0.2931 -0.2662
 3951TIP3    H133412   2.082   2.908   7.261  0.6022 -0.1162  1.0984
 3951TIP3    H233413   2.171   3.030   7.278  0.0871  0.2927  0.8862
 3952TIP3   OH233414   4.547   6.423   7.892  0.3271  0.4253  0.0661
 3952TIP3    H133415   4.618   6.402   7.831  0.7322  1.0658  0.3055
 3952TIP3    H233416   4.590   6.434   7.976 -0.3484 -1.4746  0.7219
 3953TIP3   OH233417   1.455   2.256   0.110  0.4118  0.1792 -0.0972
 3953TIP3    H133418   1.533   2.289   0.154 -0.3501  1.7487  0.1479
 3953TIP3    H233419   1.401   2.333   0.096  0.2542 -0.3497 -3.0786
 3954TIP3   OH233420   1.089   1.875   2.368 -0.1913  0.0381  0.3349
 3954TIP3    H133421   1.050   1.932   2.435  2.1574  1.7620  0.3519
 3954TIP3    H233422   1.169   1.842   2.408 -0.7072 -2.0902 -0.2734
 3955TIP3   OH233423   2.767   5.716   6.601 -0.0008 -0.0280 -0.2008
 3955TIP3    H133424   2.683   5.726   6.646 -1.3224  1.7238 -2.8095
 3955TIP3    H233425   2.803   5.804   6.597 -0.2722  0.0706 -2.9494
 3956TIP3   OH233426   0.243   5.822   2.491  0.0843 -0.1116 -0.1888
 3956TIP3    H133427   0.218   5.832   2.583 -0.6742 -1.2817 -0.2523
 3956TIP3    H233428   0.295   5.900   2.472 -0.9262  0.8464  0.8335
 3957TIP3   OH233429   3.176   2.795   2.124 -0.0740  0.1019 -0.1387
 3957TIP3    H133430   3.125   2.774   2.046 -0.4434 -2.0312  0.6160
 3957TIP3    H233431   3.246   2.852   2.092 -1.9842  1.8701 -1.4529
 3958TIP3   OH233432   4.390   4.380   7.243  0.4089  0.3440 -0.3362
 3958TIP3    H133433   4.410   4.473   7.251  2.3679 -0.0545  0.1353
 3958TIP3    H233434   4.461   4.337   7.291  0.8054 -1.4617 -2.3821
 3959TIP3   OH233435   2.076   0.465   7.988 -0.2268  0.4114  0.4437
 3959TIP3    H133436   2.067   0.561   7.988 -1.3625  0.4341 -2.8478
 3959TIP3    H233437   2.147   0.447   7.926 -0.5250 -0.8988  0.4503
 3960TIP3   OH233438   5.432   3.638   1.499  0.0108 -0.8446  0.2443
 3960TIP3    H133439   5.438   3.676   1.587  3.3032  0.5725 -0.4173
 3960TIP3    H233440   5.512   3.586   1.491 -0.6013 -1.5492 -1.6875
 3961TIP3   OH233441   5.770   0.141   0.303  0.0673  0.8945  0.0415
 3961TIP3    H133442   5.790   0.155   0.210  0.1209  0.8805  0.0513
 3961TIP3    H233443   5.771   0.230   0.341 -2.8112  1.2776 -0.5413
 3962TIP3   OH233444   3.390   2.470   0.658 -0.1641  0.1593  0.4892
 3962TIP3    H133445   3.409   2.520   0.737 -0.3066 -1.3738  1.5307
 3962TIP3    H233446   3.467   2.414   0.646 -0.5961 -0.3650  0.1397
 3963TIP3   OH233447   4.863   2.721   0.057 -0.4541 -0.3673 -0.3025
 3963TIP3    H133448   4.935   2.688   0.004 -1.3239 -0.1264 -1.6869
 3963TIP3    H233449   4.800   2.755  -0.006 -1.0682  0.9151  0.9286
 3964TIP3   OH233450   1.444   4.762   0.907  0.1728  0.1772  0.4111
 3964TIP3    H133451   1.422   4.700   0.837  1.2850  0.6724 -0.4151
 3964TIP3    H233452   1.484   4.707   0.975 -0.1411 -0.1994  0.2972
 3965TIP3   OH233453   4.813   4.176   7.402  0.8067 -0.6016 -0.4339
 3965TIP3    H133454   4.793   4.225   7.482 -3.2811 -1.4859 -0.6586
 3965TIP3    H233455   4.819   4.243   7.333 -2.2445 -0.0635 -0.3326
 3966TIP3   OH233456   0.436   5.160   2.716  0.7370  0.2508 -0.2663
 3966TIP3    H133457   0.412   5.087   2.773  0.6078 -0.1921 -0.8753
 3966TIP3    H233458   0.353   5.201   2.693  0.9172  2.3269  2.2503
 3967TIP3   OH233459   3.122   3.041   2.255  0.5323 -0.3032  0.1913
 3967TIP3    H133460   3.211   3.058   2.285  0.3608 -1.6116  1.5335
 3967TIP3    H233461   3.123   2.949   2.228  0.5230  0.5915 -3.4562
 3968TIP3   OH233462   3.214   2.080   1.292  0.0314  0.3330  0.0418
 3968TIP3    H133463   3.123   2.058   1.275  0.4098  0.1037 -1.9885
 3968TIP3    H233464   3.256   1.995   1.310  0.2305  0.1569 -1.1787
 3969TIP3   OH233465   5.986   4.069   1.347 -0.3122  0.0282 -0.2639
 3969TIP3    H133466   6.049   4.098   1.413  0.2442 -0.6362 -0.4922
 3969TIP3    H233467   5.959   3.982   1.378 -0.1067 -0.2522 -0.8693
 3970TIP3   OH233468   0.724   4.559   7.519 -0.5181 -0.0357  0.3081
 3970TIP3    H133469   0.656   4.603   7.468 -0.9523  0.7250  1.4982
 3970TIP3    H233470   0.676   4.517   7.591  0.1915 -0.1032  0.7463
 3971TIP3   OH233471   5.246   0.169   1.238 -0.2866 -0.4735  0.1089
 3971TIP3    H133472   5.155   0.144   1.225 -0.9045  1.5412  0.2053
 3971TIP3    H233473   5.242   0.251   1.288  1.5294  0.0534 -0.5206
 3972TIP3   OH233474   5.013   3.295   8.178  0.1095  0.1706  0.1182
 3972TIP3    H133475   4.990   3.236   8.250 -1.0639 -2.8204 -2.4863
 3972TIP3    H233476   5.046   3.238   8.109  0.7790  2.8190 -1.9245
 3973TIP3   OH233477   6.739   1.823   0.931 -0.4081 -0.7846 -0.1715
 3973TIP3    H133478   6.696   1.767   0.996  1.1272 -2.4784 -0.5134
 3973TIP3    H233479   6.784   1.890   0.983 -0.9217 -0.8470  0.3675
 3974TIP3   OH233480   0.511   3.836   6.688 -0.2157  0.1898  0.5424
 3974TIP3    H133481   0.598   3.797   6.689 -0.8975 -1.4722 -0.3157
 3974TIP3    H233482   0.526   3.929   6.703  1.8028  0.1494 -0.8147
 3975TIP3   OH233483   3.972   4.902   1.832 -0.3583  0.3507 -0.0018
 3975TIP3    H133484   3.910   4.842   1.791  0.8362 -0.7454 -0.2834
 3975TIP3    H233485   3.918   4.960   1.886 -1.5296 -1.3706  0.7770
 3976TIP3   OH233486   5.779   5.582   2.064  0.1698  0.3563 -0.1644
 3976TIP3    H133487   5.772   5.665   2.018  1.0702  0.7442  0.3804
 3976TIP3    H233488   5.872   5.561   2.062  0.6077  1.3936  3.1802
 3977TIP3   OH233489   2.241   1.602   7.605  0.2118  0.0173  0.4244
 3977TIP3    H133490   2.326   1.646   7.603 -0.1075  0.6492  0.5918
 3977TIP3    H233491   2.229   1.569   7.516  0.8330 -0.4816  0.5149
 3978TIP3   OH233492   4.951   0.362   1.133 -0.4352  0.0458  0.4520
 3978TIP3    H133493   4.882   0.382   1.069 -0.6142 -0.9829  0.3042
 3978TIP3    H233494   4.946   0.434   1.196 -1.4143  0.1776  0.2469
 3979TIP3   OH233495   3.273   5.539   0.728 -0.5841 -0.1356 -0.2970
 3979TIP3    H133496   3.258   5.489   0.808 -1.7426  0.8080  0.0998
 3979TIP3    H233497   3.205   5.606   0.728 -0.5578 -0.0583 -2.0333
 3980TIP3   OH233498   5.681   5.866   7.707 -0.0927 -0.4675 -0.1228
 3980TIP3    H133499   5.697   5.960   7.699  0.8826 -0.4977  1.0734
 3980TIP3    H233500   5.609   5.848   7.647 -2.3427  1.5885  1.7707
 3981TIP3   OH233501   1.839   2.180   7.623  0.0352 -0.6063 -0.3585
 3981TIP3    H133502   1.808   2.107   7.569  1.2228 -0.6857 -0.9704
 3981TIP3    H233503   1.823   2.151   7.713  1.4949 -2.1614 -0.5361
 3982TIP3   OH233504   5.108   3.031   7.472  0.0475  0.2732  0.1922
 3982TIP3    H133505   5.095   3.046   7.566 -0.4920  0.1461  0.1383
 3982TIP3    H233506   5.026   3.058   7.432 -0.1800 -0.8471 -0.1198
 3983TIP3   OH233507   0.244   6.379   1.558  0.6312  0.5125  0.3703
 3983TIP3    H133508   0.224   6.473   1.564  0.3240  0.4875 -0.2731
 3983TIP3    H233509   0.277   6.367   1.469 -0.9546 -0.2971 -0.1321
 3984TIP3   OH233510   4.274   1.314   7.407 -0.2769  0.4264 -0.4330
 3984TIP3    H133511   4.188   1.280   7.383 -0.2530  0.5265 -0.6631
 3984TIP3    H233512   4.334   1.243   7.384 -0.2975  0.3631 -0.2883
 3985TIP3   OH233513   3.218   0.212   1.283 -0.4847 -0.3667 -0.1944
 3985TIP3    H133514   3.125   0.194   1.274 -0.3906 -1.0512  0.1591
 3985TIP3    H233515   3.259   0.163   1.211 -0.5140  1.0411 -1.2046
 3986TIP3   OH233516   1.077   2.654   1.561  0.2262  0.4306  0.0979
 3986TIP3    H133517   1.155   2.649   1.616 -0.4489  1.8769  1.2547
 3986TIP3    H233518   1.049   2.745   1.567 -2.4423 -0.3679  0.9849
 3987TIP3   OH233519   0.464   4.903   7.631  0.0422 -0.3212  0.2699
 3987TIP3    H133520   0.489   4.826   7.581  2.2917  0.2597  0.3981
 3987TIP3    H233521   0.468   4.975   7.567 -1.4652 -0.1973  0.2836
 3988TIP3   OH233522   4.516   0.145   6.884  0.6446  0.2578  0.2199
 3988TIP3    H133523   4.601   0.183   6.862  0.6201  0.1803 -0.0122
 3988TIP3    H233524   4.457   0.220   6.890  0.8923  0.3871  1.1597
 3989TIP3   OH233525   0.549   0.919   1.568 -0.0319 -0.3267  0.1619
 3989TIP3    H133526   0.613   0.990   1.562 -1.4847  0.9528 -1.2012
 3989TIP3    H233527   0.559   0.884   1.657  1.6381  0.6873  0.4039
 3990TIP3   OH233528   1.150   4.676   7.594  0.5710  0.0810 -0.4096
 3990TIP3    H133529   1.178   4.684   7.503  1.6233  0.3453 -0.0673
 3990TIP3    H233530   1.097   4.596   7.595  0.7450 -0.0572 -1.1968
 3991TIP3   OH233531   4.954   4.222   6.920 -0.4494  0.2191 -0.3395
 3991TIP3    H133532   5.047   4.240   6.907 -0.1074  0.2873  1.7426
 3991TIP3    H233533   4.909   4.286   6.865  0.7072 -0.0879 -1.7032
 3992TIP3   OH233534   4.468   0.503   1.857 -0.8774  0.2670 -0.2964
 3992TIP3    H133535   4.562   0.493   1.849 -0.8220  0.0571  0.4834
 3992TIP3    H233536   4.445   0.454   1.936 -1.7578 -0.3531 -0.9177
 3993TIP3   OH233537   1.370   0.493   0.577  0.0034  0.4885  0.6396
 3993TIP3    H133538   1.354   0.400   0.558  4.3450 -0.4226  0.4017
 3993TIP3    H233539   1.421   0.491   0.658  2.0441  2.4215 -0.5045
 3994TIP3   OH233540   5.120   6.128   0.973  0.4632 -0.6155  0.1583
 3994TIP3    H133541   5.059   6.201   0.966  1.5671  0.1927 -1.7500
 3994TIP3    H233542   5.169   6.146   1.054 -0.7165 -0.4385  0.8576
 3995TIP3   OH233543   3.627   4.325   7.511 -0.0211  0.0760  0.1055
 3995TIP3    H133544   3.602   4.377   7.587  0.9192 -0.2639  0.6594
 3995TIP3    H233545   3.580   4.242   7.523  1.2655 -0.5374  1.1109
 3996TIP3   OH233546   2.240   4.989   0.037  0.0588  0.5673 -0.8169
 3996TIP3    H133547   2.297   4.994  -0.040 -0.2875  0.3328 -1.0942
 3996TIP3    H233548   2.157   4.955   0.003 -0.2494  0.9124 -0.4203
 3997TIP3   OH233549   5.716   3.672   2.735 -0.0181 -0.5258 -0.1031
 3997TIP3    H133550   5.673   3.755   2.715 -0.6701 -0.4411  1.5033
 3997TIP3    H233551   5.649   3.606   2.722 -0.0671 -0.5957  0.4693
 3998TIP3   OH233552   1.472   3.842   1.532  0.5482 -0.1621  0.2427
 3998TIP3    H133553   1.467   3.869   1.624  1.3783 -0.1597  0.2915
 3998TIP3    H233554   1.459   3.747   1.535  1.2536 -0.2571  0.4357
 3999TIP3   OH233555   0.845   3.027   0.699 -0.4894  0.1464  0.0628
 3999TIP3    H133556   0.859   3.041   0.793 -1.7556 -2.7281  0.7891
 3999TIP3    H233557   0.827   3.115   0.665  0.9329  1.4067  2.3004
 4000TIP3   OH233558   2.356   0.913   8.001 -0.4274  0.3595  0.0262
 4000TIP3    H133559   2.408   0.990   7.979  1.6176 -0.3785  1.8209
 4000TIP3    H233560   2.415   0.839   7.984 -1.2659 -0.6037  1.1105
 4001TIP3   OH233561   1.956   5.502   7.459 -0.2417 -0.0007 -0.2651
 4001TIP3    H133562   1.904   5.572   7.497 -2.0957 -1.5326  0.1415
 4001TIP3    H233563   1.988   5.539   7.376  0.8607  2.1065  1.0116
 4002TIP3   OH233564   0.297   2.888   7.398  0.0236  0.5650  0.4968
 4002TIP3    H133565   0.295   2.799   7.433  1.0457  0.4980  0.4295
 4002TIP3    H233566   0.324   2.943   7.471  0.1886  0.7067  0.3324
 4003TIP3   OH233567   2.511   1.225   7.428  0.2010 -0.4260 -0.1714
 4003TIP3    H133568   2.484   1.292   7.491 -0.9291  1.4128 -2.4636
 4003TIP3    H233569   2.607   1.233   7.424  0.0805  1.2861 -0.5684
 4004TIP3   OH233570   6.723   5.331   2.210 -0.2859 -0.3193  0.3270
 4004TIP3    H133571   6.787   5.379   2.262  0.3864 -0.7658 -0.0846
 4004TIP3    H233572   6.773   5.263   2.166 -0.3653  1.3701 -2.6843
 4005TIP3   OH233573   6.649   6.759   1.932  0.1076 -0.5368 -0.0271
 4005TIP3    H133574   6.562   6.767   1.970  0.3947  0.0509  0.5492
 4005TIP3    H233575   6.656   6.834   1.872  0.3993 -0.2669  0.3338
 4006TIP3   OH233576   5.310   4.557   0.804  0.1538 -0.0792  0.1005
 4006TIP3    H133577   5.391   4.526   0.845 -0.6231 -1.3936  0.6746
 4006TIP3    H233578   5.339   4.627   0.745  1.8546 -1.3268 -0.6188
 4007TIP3   OH233579   2.662   0.167   7.582  0.0150  0.0367  0.2129
 4007TIP3    H133580   2.566   0.164   7.582  0.0320 -0.7619  0.3726
 4007TIP3    H233581   2.683   0.260   7.574 -0.7727  0.2228  0.2099
 4008TIP3   OH233582   4.927   5.284   1.366  0.5553  0.3945 -1.0926
 4008TIP3    H133583   4.885   5.302   1.281  0.1225  0.0472 -0.9525
 4008TIP3    H233584   5.000   5.226   1.344  0.6131  0.5306 -1.2654
 4009TIP3   OH233585   1.081   1.267   7.172  0.4112  0.2499  0.2203
 4009TIP3    H133586   1.120   1.239   7.090  0.7909  0.8848  0.1710
 4009TIP3    H233587   1.005   1.210   7.184  2.3714 -2.3529  1.2677
 4010TIP3   OH233588   1.281   3.511   1.372  0.7250 -0.1744 -0.5035
 4010TIP3    H133589   1.199   3.528   1.419  0.9906 -0.7129  0.1657
 4010TIP3    H233590   1.348   3.549   1.428  0.9882 -0.2159 -0.7894
 4011TIP3   OH233591   5.010   1.630   8.286 -0.9202  0.0860  0.3294
 4011TIP3    H133592   4.957   1.572   8.231  0.2818 -0.9523  0.2287
 4011TIP3    H233593   5.002   1.593   8.374  0.7684 -0.9817  0.0842
 4012TIP3   OH233594   2.482   6.405   0.277 -0.3913 -0.0329 -0.0818
 4012TIP3    H133595   2.481   6.382   0.184 -0.3235  0.0580 -0.1059
 4012TIP3    H233596   2.436   6.334   0.321 -1.5303  0.5275 -0.3292
 4013TIP3   OH233597   2.145   1.764   7.002 -0.3778  0.4099  0.3949
 4013TIP3    H133598   2.209   1.820   6.958  0.0502 -0.1119  0.3455
 4013TIP3    H233599   2.182   1.675   6.996 -0.8617  0.1741  0.8075
 4014TIP3   OH233600   5.437   4.370   7.952  0.5670 -0.5945  0.4655
 4014TIP3    H133601   5.510   4.326   7.996  0.7802 -0.3356  0.3753
 4014TIP3    H233602   5.477   4.413   7.876  1.1056  2.7075  2.3795
 4015TIP3   OH233603   5.117   0.753   7.460  0.7077  0.2268 -0.8031
 4015TIP3    H133604   5.186   0.800   7.507 -1.1709  2.6006 -0.2438
 4015TIP3    H233605   5.133   0.773   7.367 -0.8244  3.2741 -0.5101
 4016TIP3   OH233606   4.235   6.980   0.343  0.5948  0.0976 -0.4839
 4016TIP3    H133607   4.213   6.951   0.254  0.1184 -0.7106 -0.1130
 4016TIP3    H233608   4.258   7.073   0.332  0.1473  0.1234 -1.3918
 4017TIP3   OH233609   4.439   4.955   8.088 -0.1316  0.0395  0.1915
 4017TIP3    H133610   4.497   4.931   8.015 -0.3632 -0.5923  0.2113
 4017TIP3    H233611   4.492   5.013   8.143  0.0367  0.5530 -0.4918
 4018TIP3   OH233612   4.739   0.761   0.551 -0.3344  0.3877  0.5212
 4018TIP3    H133613   4.693   0.729   0.629 -0.0327  1.1107  1.0155
 4018TIP3    H233614   4.831   0.758   0.575 -0.1811 -0.1558 -0.1153
 4019TIP3   OH233615   4.429   1.291   1.610 -0.2362  0.1577  0.0698
 4019TIP3    H133616   4.371   1.362   1.639 -0.8109 -0.5033  0.5975
 4019TIP3    H233617   4.498   1.335   1.561 -0.1214  1.1641  1.0924
 4020TIP3   OH233618   5.280   6.867   0.987  0.3248  0.1092  0.0850
 4020TIP3    H133619   5.199   6.911   1.011  1.3446  2.3793 -0.4536
 4020TIP3    H233620   5.349   6.926   1.016  1.8231 -1.7020  0.4051
 4021TIP3   OH233621   3.793   1.391   0.041 -0.0921 -0.0370 -0.1898
 4021TIP3    H133622   3.817   1.417   0.130 -0.4666  1.9505 -0.6068
 4021TIP3    H233623   3.785   1.474  -0.006 -0.1044 -1.0328 -2.0327
 4022TIP3   OH233624   3.965   1.675   2.188 -0.3597 -0.0380  0.1923
 4022TIP3    H133625   3.906   1.695   2.116 -1.4653 -1.0997  0.7634
 4022TIP3    H233626   3.929   1.594   2.227  1.8646 -1.1182  0.1331
 4023TIP3   OH233627   5.077   2.171   8.321  0.4570 -0.1017  0.2663
 4023TIP3    H133628   5.014   2.184   8.250  0.6526  0.5775  0.2093
 4023TIP3    H233629   5.070   2.078   8.342  1.8149 -0.8012 -2.0001
 4024TIP3   OH233630   4.624   2.087   0.552 -0.2339  0.1698 -0.7176
 4024TIP3    H133631   4.554   2.041   0.506 -0.0800 -0.0714 -0.7145
 4024TIP3    H233632   4.659   2.022   0.613 -2.2287  1.2455  1.7389
 4025TIP3   OH233633   1.367   1.038   6.941  0.1138  0.3154  0.3807
 4025TIP3    H133634   1.434   1.088   6.894  1.2857 -1.8791 -0.4201
 4025TIP3    H233635   1.357   0.958   6.890 -1.6855 -0.3008  1.6136
 4026TIP3   OH233636   5.888   4.278   1.930  0.7256  0.2145  0.3567
 4026TIP3    H133637   5.970   4.275   1.980  1.0600  0.7293 -0.1524
 4026TIP3    H233638   5.819   4.281   1.997  1.1863  1.4527  0.7934
 4027TIP3   OH233639   5.579   1.005   7.348  0.2191 -0.1809 -0.1435
 4027TIP3    H133640   5.620   1.038   7.267 -0.2033  1.9488  0.4595
 4027TIP3    H233641   5.648   1.010   7.414  0.0904 -0.3442  0.0060
 4028TIP3   OH233642   4.623   3.234   8.308  0.1510 -0.2704  0.0293
 4028TIP3    H133643   4.531   3.229   8.332 -0.0301  1.1191 -0.2763
 4028TIP3    H233644   4.660   3.149   8.332 -0.6530 -0.0037  2.4045
 4029TIP3   OH233645   6.187   2.856   7.758  0.9488  0.0812 -0.2786
 4029TIP3    H133646   6.123   2.785   7.766  1.7282 -0.4414  1.7347
 4029TIP3    H233647   6.133   2.936   7.756  0.1783 -0.4243 -0.2006
 4030TIP3   OH233648   0.754   6.639   1.428  0.6110  0.6723  0.4500
 4030TIP3    H133649   0.765   6.651   1.333  0.5213  2.0326  0.5874
 4030TIP3    H233650   0.691   6.568   1.436  1.3768 -0.1415 -0.4918
 4031TIP3   OH233651   4.889   2.505   0.321  0.4334  0.2424  0.1752
 4031TIP3    H133652   4.943   2.570   0.366 -0.3176  1.3828 -0.5357
 4031TIP3    H233653   4.951   2.435   0.299  1.2395  0.6557  1.0345
 4032TIP3   OH233654   4.799   6.852   1.605 -0.8588  0.0251 -0.3223
 4032TIP3    H133655   4.789   6.944   1.630 -1.0148  0.1052 -0.6756
 4032TIP3    H233656   4.774   6.803   1.684  1.4345  0.3038  0.6475
 4033TIP3   OH233657   2.040   2.094   1.892  0.0114 -0.5104  0.0484
 4033TIP3    H133658   1.971   2.158   1.908  0.8823  0.2911  0.7848
 4033TIP3    H233659   2.011   2.045   1.815 -2.1414 -1.3544  1.3247
 4034TIP3   OH233660   6.566   3.330   7.455 -0.3154 -0.0687  0.0829
 4034TIP3    H133661   6.578   3.259   7.392 -1.4195  0.1429 -0.3760
 4034TIP3    H233662   6.568   3.410   7.401 -0.8445  0.1385  0.3733
 4035TIP3   OH233663   1.957   0.544   0.940  0.0237 -0.2797  0.5790
 4035TIP3    H133664   1.996   0.580   1.019  0.6999  1.0421 -0.3313
 4035TIP3    H233665   1.977   0.607   0.871  1.6712 -2.5716 -1.2163
 4036TIP3   OH233666   3.727   5.116   2.394 -0.1434  0.1839 -0.0449
 4036TIP3    H133667   3.655   5.125   2.456 -1.8192  1.9337 -2.0724
 4036TIP3    H233668   3.805   5.109   2.448 -1.6271  0.2529  2.2354
 4037TIP3   OH233669   0.477   5.373   1.403 -0.6273 -0.1734 -0.3465
 4037TIP3    H133670   0.518   5.459   1.411 -1.0851  0.0877 -0.7540
 4037TIP3    H233671   0.536   5.314   1.451  1.0196 -0.0702 -2.1137
 4038TIP3   OH233672   3.782   3.569   1.078 -0.9668 -0.0360 -0.4553
 4038TIP3    H133673   3.855   3.631   1.070 -1.3503  0.4891  0.0252
 4038TIP3    H233674   3.707   3.623   1.103 -1.4389 -0.6222 -0.5860
 4039TIP3   OH233675   0.285   2.286   7.575  0.1453  0.1837  0.6605
 4039TIP3    H133676   0.222   2.357   7.580  1.4408  1.5846 -1.2855
 4039TIP3    H233677   0.328   2.286   7.661  0.6554  2.3326  0.4681
 4040TIP3   OH233678   2.050   1.854   7.236 -0.0358  0.1329  0.4623
 4040TIP3    H133679   2.078   1.794   7.167 -0.4899 -0.5554  0.8756
 4040TIP3    H233680   2.086   1.939   7.209  3.2580 -0.8369  1.4004
 4041TIP3   OH233681   0.965   6.731   1.541 -0.0397 -0.2412  0.6011
 4041TIP3    H133682   1.028   6.729   1.469 -0.9999  1.7041 -0.3453
 4041TIP3    H233683   0.890   6.681   1.508 -1.2387  2.1631 -0.6010
 4042TIP3   OH233684   5.557   0.314   6.732  0.0170  0.2774 -0.0022
 4042TIP3    H133685   5.617   0.260   6.680 -0.9522 -3.3635  2.2959
 4042TIP3    H233686   5.476   0.315   6.682  0.7964  2.1591 -1.3736
 4043TIP3   OH233687   6.897   3.813   8.343 -0.1928  0.1549  0.5351
 4043TIP3    H133688   6.910   3.885   8.281 -1.4944 -0.3296 -0.3573
 4043TIP3    H233689   6.803   3.794   8.338 -0.0163 -1.0674  1.3625
 4044TIP3   OH233690   4.956   3.295   6.662  0.2187 -0.2229  0.4066
 4044TIP3    H133691   5.036   3.267   6.617  0.4471  0.5506  0.3284
 4044TIP3    H233692   4.955   3.244   6.743 -0.4172 -1.9661 -0.6195
 4045TIP3   OH233693   6.526   4.853   2.231 -0.4790 -0.3238  0.6938
 4045TIP3    H133694   6.458   4.891   2.176 -1.6949 -1.6915  1.1705
 4045TIP3    H233695   6.558   4.778   2.181  0.3133  0.0048  0.7010
 4046TIP3   OH233696   5.966   7.002   1.063  0.1291 -0.3786  0.3113
 4046TIP3    H133697   6.028   6.935   1.092 -0.6436 -1.0610  0.4376
 4046TIP3    H233698   5.948   6.981   0.972  2.1873  1.4872 -0.6462
 4047TIP3   OH233699   6.374   1.490   2.354  0.4441 -0.2672  0.1444
 4047TIP3    H133700   6.400   1.466   2.443 -0.8118  0.4647  0.7319
 4047TIP3    H233701   6.402   1.416   2.300  2.6655 -0.0291  0.8764
 4048TIP3   OH233702   2.471   2.505   0.833  0.0528 -0.0161  0.4358
 4048TIP3    H133703   2.508   2.563   0.766  0.2923 -1.0998 -0.3948
 4048TIP3    H233704   2.547   2.462   0.872 -0.1622 -0.2583  0.5893
 4049TIP3   OH233705   1.723   5.823   1.864 -0.4020 -0.0795  0.0239
 4049TIP3    H133706   1.720   5.827   1.960  0.3427  1.6601  0.0089
 4049TIP3    H233707   1.647   5.770   1.840  0.0933 -1.6368  1.6087
 4050TIP3   OH233708   0.569   2.055   7.712 -0.0999 -0.1741 -0.1324
 4050TIP3    H133709   0.640   2.095   7.761  0.5697 -2.5365  0.9442
 4050TIP3    H233710   0.498   2.120   7.716  0.6871  0.6374  2.0739
 4051TIP3   OH233711   2.532   5.982   6.922  0.0312 -0.3717 -0.0973
 4051TIP3    H133712   2.518   5.927   6.845 -0.2921 -1.0644  0.4477
 4051TIP3    H233713   2.506   6.070   6.894 -0.8443 -0.7663 -0.5399
 4052TIP3   OH233714   0.513   5.095   7.424  0.1274  0.7214 -0.4042
 4052TIP3    H133715   0.553   5.046   7.353 -0.2346  1.8388 -1.4123
 4052TIP3    H233716   0.576   5.165   7.443 -0.2514  1.0575 -0.3609
 4053TIP3   OH233717   1.985   0.559   8.246  0.4018 -0.3743  0.1811
 4053TIP3    H133718   2.073   0.597   8.248  0.0789  0.3583  1.0094
 4053TIP3    H233719   1.972   0.533   8.155  0.9592  0.7346 -0.2298
 4054TIP3   OH233720   4.222   1.434   0.627 -0.2940 -0.1692  0.2538
 4054TIP3    H133721   4.261   1.351   0.598 -0.4494 -0.2758  0.3483
 4054TIP3    H233722   4.297   1.494   0.635 -0.3272  0.0742 -1.0718
 4055TIP3   OH233723   4.913   4.922   2.414 -0.6475 -0.0872  0.0313
 4055TIP3    H133724   5.003   4.949   2.395 -1.1406  0.9797 -0.9379
 4055TIP3    H233725   4.914   4.898   2.506  1.1826 -2.4592 -0.5173
 4056TIP3   OH233726   5.164   3.569   6.612  0.6210  0.1403 -0.4759
 4056TIP3    H133727   5.183   3.515   6.689 -0.3616  0.0635 -0.2833
 4056TIP3    H233728   5.236   3.632   6.610  0.6267  0.1914  0.5564
 4057TIP3   OH233729   1.440   0.788   2.836  0.6595 -1.0911  0.2288
 4057TIP3    H133730   1.459   0.882   2.832  0.5721 -1.0998 -0.4341
 4057TIP3    H233731   1.345   0.782   2.826  0.8526 -1.3580 -1.9637
 4058TIP3   OH233732   3.094   4.798   1.115  0.5110  0.3023  0.2653
 4058TIP3    H133733   3.060   4.833   1.198 -0.6906 -0.1417 -0.0149
 4058TIP3    H233734   3.056   4.710   1.109  3.6307 -1.2193  1.0582
 4059TIP3   OH233735   2.548   1.569   7.171 -0.8212 -0.6297  0.2634
 4059TIP3    H133736   2.588   1.488   7.139  2.1892  0.6436  0.5121
 4059TIP3    H233737   2.622   1.627   7.189 -2.8423  2.0087  0.6287
 4060TIP3   OH233738   1.977   6.917   1.350 -0.0631 -0.0822 -0.1499
 4060TIP3    H133739   2.058   6.910   1.299 -0.8845 -1.0662 -1.3765
 4060TIP3    H233740   1.968   6.831   1.393  0.3623  0.5671  1.3051
 4061TIP3   OH233741   6.415   2.262   7.011 -0.3600  0.0646 -0.4053
 4061TIP3    H133742   6.348   2.209   7.053 -0.2141  0.5433  0.4552
 4061TIP3    H233743   6.368   2.313   6.945 -1.0580  1.1748  0.8864
 4062TIP3   OH233744   6.420   3.737   8.147 -0.2340 -0.1241 -0.0030
 4062TIP3    H133745   6.442   3.645   8.159  0.3165  0.0519  0.4286
 4062TIP3    H233746   6.417   3.749   8.053 -0.0098 -0.5235 -0.0643
 4063TIP3   OH233747   1.528   3.224   7.635  0.1392 -0.0618  0.9238
 4063TIP3    H133748   1.533   3.130   7.617 -0.6961  0.2110 -0.9301
 4063TIP3    H233749   1.590   3.264   7.574  0.3662  0.6141  1.5797
 4064TIP3   OH233750   2.290   3.806   1.001  0.3898  0.0020 -0.2056
 4064TIP3    H133751   2.259   3.804   0.911  0.9859  1.7080 -0.4912
 4064TIP3    H233752   2.375   3.850   0.996  0.3035  0.3774  1.2123
 4065TIP3   OH233753   6.747   6.469   1.365 -0.1199 -0.0454  0.1013
 4065TIP3    H133754   6.753   6.412   1.289  0.5028 -0.6169  0.5631
 4065TIP3    H233755   6.704   6.416   1.432 -0.4645  0.3754  0.2197
 4066TIP3   OH233756   2.246   4.398   1.291 -0.6688  0.1302  0.4254
 4066TIP3    H133757   2.307   4.444   1.348  0.2581 -0.7787  0.2056
 4066TIP3    H233758   2.169   4.454   1.287 -0.6649  0.3390  2.3746
 4067TIP3   OH233759   4.638   1.403   6.622 -0.2526  0.9056  0.1338
 4067TIP3    H133760   4.683   1.324   6.591  0.2569  2.0103 -2.1881
 4067TIP3    H233761   4.708   1.461   6.651 -0.5157  0.9939  0.5869
 4068TIP3   OH233762   6.828   1.538   7.915 -0.5003 -0.4117 -0.3795
 4068TIP3    H133763   6.884   1.498   7.849  1.7312  3.2217 -0.9578
 4068TIP3    H233764   6.863   1.507   7.999  2.1488  1.2692 -0.7546
 4069TIP3   OH233765   0.989   2.441   0.644  0.6948 -0.2957  0.1355
 4069TIP3    H133766   0.897   2.465   0.654 -0.0604 -2.5705 -0.5550
 4069TIP3    H233767   0.987   2.347   0.627  3.1825 -0.4422  0.2675
 4070TIP3   OH233768   4.349   1.323   2.722  0.0668 -0.5161  0.7433
 4070TIP3    H133769   4.375   1.370   2.802 -0.8444  0.6893  0.3558
 4070TIP3    H233770   4.284   1.260   2.751  0.1599 -0.4795  1.0340
 4071TIP3   OH233771   1.437   2.109   7.452 -0.4778 -0.0043 -0.0474
 4071TIP3    H133772   1.365   2.105   7.388 -0.8233  0.6503  0.2940
 4071TIP3    H233773   1.516   2.118   7.399 -0.6822 -0.3173 -0.4114
 4072TIP3   OH233774   3.934   1.694   6.613  0.2645  0.3496  0.0430
 4072TIP3    H133775   3.944   1.774   6.562 -1.5253  0.8292  0.3660
 4072TIP3    H233776   3.845   1.665   6.595  0.8415 -1.5485  0.0028
 4073TIP3   OH233777   5.964   2.264   7.527  0.1992  0.2525  0.0577
 4073TIP3    H133778   5.886   2.239   7.576  0.0693 -0.3287 -0.4275
 4073TIP3    H233779   6.035   2.260   7.591 -0.2580  1.4337  0.6602
 4074TIP3   OH233780   4.968   6.874   6.567  0.1465 -0.0565  0.1599
 4074TIP3    H133781   4.915   6.826   6.504 -1.1134  0.2148  0.9586
 4074TIP3    H233782   4.973   6.816   6.643 -1.6947  1.1356  1.2705
 4075TIP3   OH233783   1.892   2.230   0.126  0.0396 -0.0640 -0.3417
 4075TIP3    H133784   1.887   2.200   0.217  0.3403  1.7133  0.2967
 4075TIP3    H233785   1.846   2.162   0.076 -2.4926  0.2018  1.4508
 4076TIP3   OH233786   4.332   0.580   8.316  0.5640 -0.3686 -0.0161
 4076TIP3    H133787   4.346   0.568   8.222  0.8712 -0.8824  0.0875
 4076TIP3    H233788   4.408   0.631   8.345  1.5430 -1.9071  0.2857
 4077TIP3   OH233789   2.550   2.426   1.327 -0.5849 -0.5071  0.0066
 4077TIP3    H133790   2.533   2.333   1.308  1.3446 -0.8811 -0.0589
 4077TIP3    H233791   2.645   2.434   1.324 -0.7259  1.5364 -0.1828
 4078TIP3   OH233792   6.030   1.765   0.274  0.2424 -0.5905  0.5570
 4078TIP3    H133793   6.015   1.718   0.192 -1.0726  1.2709 -0.3447
 4078TIP3    H233794   6.109   1.818   0.257 -0.3274  0.1914  0.2631
 4079TIP3   OH233795   1.323   2.022   1.887 -0.6147  0.8279  0.1688
 4079TIP3    H133796   1.269   1.985   1.956 -0.3003 -0.7980 -0.4057
 4079TIP3    H233797   1.386   2.078   1.932  0.4164 -1.1921  1.3655
 4080TIP3   OH233798   6.479   2.488   8.286  0.0052  0.1391  0.5340
 4080TIP3    H133799   6.434   2.468   8.368 -2.1325  1.5171 -0.2247
 4080TIP3    H233800   6.537   2.561   8.309  0.3862 -0.3206  1.0795
 4081TIP3   OH233801   5.421   1.708   7.937 -1.2621 -0.4704  0.0942
 4081TIP3    H133802   5.351   1.710   8.003 -1.3048  2.1544  0.0597
 4081TIP3    H233803   5.417   1.794   7.896  0.6249 -1.0423 -1.3994
 4082TIP3   OH233804   3.802   5.922   7.372  0.9937  0.1395  0.1692
 4082TIP3    H133805   3.811   5.999   7.427 -1.8336  1.5466 -1.0895
 4082TIP3    H233806   3.814   5.954   7.283 -2.2817 -0.2572 -0.5666
 4083TIP3   OH233807   4.698   3.012   6.600 -0.5204  0.3385 -0.4030
 4083TIP3    H133808   4.642   2.938   6.577  0.4772  0.0738 -2.1417
 4083TIP3    H233809   4.775   2.973   6.641 -0.6388  0.5239 -0.0050
 4084TIP3   OH233810   2.023   4.157   0.556  0.0727  0.0116 -0.0603
 4084TIP3    H133811   2.013   4.062   0.567 -1.9163  0.1511 -0.3929
 4084TIP3    H233812   2.010   4.192   0.644 -0.6884  0.0667 -0.1890
 4085TIP3   OH233813   6.243   5.263   2.063  0.1275 -0.1727  0.2411
 4085TIP3    H133814   6.266   5.347   2.102  0.9785 -0.1126 -0.3608
 4085TIP3    H233815   6.322   5.234   2.018 -0.3286 -1.0196 -0.0570
 4086TIP3   OH233816   6.262   1.537   8.306 -0.0348  0.1305 -0.1021
 4086TIP3    H133817   6.297   1.467   8.361 -0.1509 -0.2745 -0.5300
 4086TIP3    H233818   6.333   1.600   8.298 -0.2653  0.5594  1.1203
 4087TIP3   OH233819   2.153   0.136   1.013 -0.6450 -0.2218 -0.7265
 4087TIP3    H133820   2.120   0.058   0.968 -1.5971 -0.0096 -0.4109
 4087TIP3    H233821   2.140   0.117   1.106 -3.7964  1.5173 -0.6907
 4088TIP3   OH233822   0.159   1.449   1.359  0.3361  0.5054  1.0339
 4088TIP3    H133823   0.121   1.518   1.305  0.4277  0.1186  0.4721
 4088TIP3    H233824   0.083   1.407   1.401  0.2172  0.3935  0.7064
 4089TIP3   OH233825   0.494   6.619   7.891  0.0506  0.0622  0.0807
 4089TIP3    H133826   0.489   6.524   7.880  0.5108  0.0671 -0.1860
 4089TIP3    H233827   0.526   6.631   7.981 -1.3899 -0.0068  0.6314
 4090TIP3   OH233828   3.942   1.148   1.451 -0.2680  0.0548 -0.4501
 4090TIP3    H133829   4.030   1.129   1.484 -0.7232 -1.0930  0.1852
 4090TIP3    H233830   3.942   1.242   1.433  1.2226 -0.0109 -0.8996
 4091TIP3   OH233831   5.725   5.706   8.024  0.2159 -0.2580 -0.0822
 4091TIP3    H133832   5.795   5.739   7.967 -0.1804 -0.6146 -0.7865
 4091TIP3    H233833   5.762   5.627   8.063  1.0905  0.8608  1.4446
 4092TIP3   OH233834   1.158   3.077   0.839  0.3637 -0.0842 -0.5569
 4092TIP3    H133835   1.079   3.128   0.857 -1.1411 -2.3700 -0.1587
 4092TIP3    H233836   1.226   3.142   0.822 -0.9398  2.0487  1.7379
 4093TIP3   OH233837   0.920   5.929   0.401 -0.9303 -0.3990  0.6394
 4093TIP3    H133838   0.864   5.877   0.459 -0.3490 -0.2327  1.3827
 4093TIP3    H233839   0.884   5.917   0.314 -3.7879  1.8566  1.3532
 4094TIP3   OH233840   4.942   3.579   1.743 -0.1093  0.2979  0.3316
 4094TIP3    H133841   4.864   3.565   1.798 -0.9736 -0.8945 -1.1350
 4094TIP3    H233842   4.978   3.492   1.730  0.8672  0.7292  0.1034
 4095TIP3   OH233843   5.729   4.995   7.599  0.4281  0.4370  0.5811
 4095TIP3    H133844   5.678   5.070   7.630  1.4665  1.1721  0.5609
 4095TIP3    H233845   5.781   4.969   7.675  0.8461  0.4108  0.2901
 4096TIP3   OH233846   4.638   1.908   7.612 -0.3916 -0.1634  0.2396
 4096TIP3    H133847   4.593   1.965   7.674 -1.5210 -2.3978  1.6020
 4096TIP3    H233848   4.572   1.890   7.545  0.1306  0.5054 -0.4726
 4097TIP3   OH233849   1.907   4.757   1.453  0.5371 -0.1151  0.5799
 4097TIP3    H133850   1.917   4.835   1.398 -0.4769 -0.3371  0.0603
 4097TIP3    H233851   1.940   4.784   1.539  1.9595  0.2951 -0.0696
 4098TIP3   OH233852   6.366   5.638   0.188 -0.5547 -0.0744 -0.4670
 4098TIP3    H133853   6.349   5.587   0.267  1.9134 -1.4406 -0.7022
 4098TIP3    H233854   6.311   5.716   0.197 -2.3218 -1.4224  1.2924
 4099TIP3   OH233855   5.663   2.487   7.376  0.2600 -0.1757 -0.6812
 4099TIP3    H133856   5.702   2.452   7.297  0.3186  0.4030 -0.9143
 4099TIP3    H233857   5.631   2.410   7.424 -1.2404 -0.4377 -2.0287
 4100TIP3   OH233858   4.011   5.046   2.452  1.0091 -0.4910 -0.3887
 4100TIP3    H133859   4.023   5.106   2.525 -0.5325 -0.5090 -0.0846
 4100TIP3    H233860   4.061   4.968   2.476  0.5586 -0.4792  0.6426
 4101TIP3   OH233861   2.521   2.119   0.737 -0.2774  0.4531  0.2704
 4101TIP3    H133862   2.534   2.102   0.831 -2.3387 -0.5408  0.4536
 4101TIP3    H233863   2.541   2.035   0.695  1.3172  1.0859 -0.3003
 4102TIP3   OH233864   4.243   3.008   8.097 -0.3414  0.1716 -0.5033
 4102TIP3    H133865   4.283   2.997   8.010  1.9304 -0.5240  0.5546
 4102TIP3    H233866   4.276   3.092   8.128 -0.0864 -0.1797  0.1928
 4103TIP3   OH233867   2.222   6.102   7.075 -0.1251  0.3594 -0.4128
 4103TIP3    H133868   2.177   6.018   7.087  1.6629 -0.5991 -0.1070
 4103TIP3    H233869   2.256   6.098   6.986  1.0311  0.1902  0.0203
 4104TIP3   OH233870   3.788   0.302   0.291  0.1566 -0.2271  0.3351
 4104TIP3    H133871   3.784   0.375   0.229 -1.4217 -1.9797 -1.7890
 4104TIP3    H233872   3.697   0.273   0.300  0.5325 -0.9423  2.4081
 4105TIP3   OH233873   3.432   2.030   0.613  0.0766  0.8728  0.2709
 4105TIP3    H133874   3.421   2.091   0.685  0.2271  0.4464  0.6606
 4105TIP3    H233875   3.347   1.987   0.604  0.5452 -0.3219  1.3511
 4106TIP3   OH233876   4.077   0.961   2.898  0.1080 -0.1939  0.1267
 4106TIP3    H133877   4.088   0.909   2.819 -2.8406 -0.8363 -0.0064
 4106TIP3    H233878   4.015   1.029   2.873 -0.6055 -0.1938  1.7505
 4107TIP3   OH233879   4.236   3.507   7.573 -0.0948  0.4319 -0.3931
 4107TIP3    H133880   4.323   3.548   7.564  0.9102 -0.5373  3.1634
 4107TIP3    H233881   4.254   3.413   7.571 -1.0587  0.2212  0.3767
 4108TIP3   OH233882   3.024   0.431   1.390 -0.1916 -0.1055 -0.8495
 4108TIP3    H133883   3.047   0.501   1.328 -0.3114  1.8041  1.1201
 4108TIP3    H233884   3.108   0.400   1.422 -0.1544 -0.2877 -1.1212
 4109TIP3   OH233885   3.167   3.142   1.193  0.6247  0.1327 -0.2549
 4109TIP3    H133886   3.244   3.105   1.235 -0.0572 -1.6917 -0.5471
 4109TIP3    H233887   3.103   3.151   1.263  0.1456 -1.0808 -0.5193
 4110TIP3   OH233888   5.223   1.239   2.052  0.2190 -0.4253 -0.5738
 4110TIP3    H133889   5.219   1.318   2.106 -1.4887  0.3437 -1.7547
 4110TIP3    H233890   5.229   1.168   2.116 -0.7822  0.5089  0.6174
 4111TIP3   OH233891   6.534   5.092   1.274 -0.1409  0.7796  0.1339
 4111TIP3    H133892   6.607   5.148   1.299  1.2374 -0.7687 -0.2141
 4111TIP3    H233893   6.568   5.003   1.284 -1.0940  0.0216 -2.4868
 4112TIP3   OH233894   6.854   2.030   7.460  0.2417  0.2519 -0.6528
 4112TIP3    H133895   6.905   2.111   7.466 -2.1289  1.7069  3.5930
 4112TIP3    H233896   6.773   2.055   7.417 -0.6458  0.3214  0.9868
 4113TIP3   OH233897   1.547   2.920   1.197  0.0750  0.0991 -0.3429
 4113TIP3    H133898   1.468   2.923   1.143 -0.4593  0.7890  0.4590
 4113TIP3    H233899   1.613   2.879   1.140 -0.8397 -0.4635 -1.0282
 4114TIP3   OH233900   3.589   4.535   7.965  0.6645  0.5359  0.6882
 4114TIP3    H133901   3.585   4.487   8.048  1.4254 -1.0342 -0.1374
 4114TIP3    H233902   3.627   4.620   7.988  0.3821  0.3295  2.0145
 4115TIP3   OH233903   4.683   2.792   0.249  0.2299  0.2106  0.0393
 4115TIP3    H133904   4.764   2.765   0.206  0.6276 -0.6586  1.2586
 4115TIP3    H233905   4.617   2.729   0.219  0.4923 -0.3536  0.6054
 4116TIP3   OH233906   2.076   2.295   7.173 -0.3231 -0.0266  0.0883
 4116TIP3    H133907   2.007   2.255   7.121 -0.2880  1.2848 -1.0162
 4116TIP3    H233908   2.073   2.247   7.256 -1.1576 -1.3824 -0.6713
 4117TIP3   OH233909   0.036   1.907   1.416  0.3582 -0.0501 -0.8136
 4117TIP3    H133910   0.023   1.853   1.339 -1.1197 -0.6275 -0.1936
 4117TIP3    H233911  -0.039   1.968   1.416 -0.1406 -0.6103  0.5774
 4118TIP3   OH233912   5.211   4.403   8.105 -0.7322  0.1689  0.1135
 4118TIP3    H133913   5.272   4.376   8.037 -1.1813 -0.0841 -0.1953
 4118TIP3    H233914   5.267   4.433   8.177 -0.2177 -1.3501  0.3829
 4119TIP3   OH233915   4.260   0.069   7.974 -0.0741  0.0512  0.3509
 4119TIP3    H133916   4.166   0.080   7.961 -0.0022 -1.4263 -2.0444
 4119TIP3    H233917   4.299   0.150   7.941 -0.4296 -0.1933 -0.7114
 4120TIP3   OH233918   5.581   1.359   7.213 -0.2414  0.5962  0.4939
 4120TIP3    H133919   5.662   1.308   7.217  0.4028  1.5401  0.0135
 4120TIP3    H233920   5.579   1.393   7.123 -1.5107  0.0698  0.3046
 4121TIP3   OH233921   1.218   0.999   7.346  0.5916 -0.0325  0.6055
 4121TIP3    H133922   1.155   0.971   7.280  0.2158 -0.5295  1.1679
 4121TIP3    H233923   1.288   1.041   7.296  1.9113 -3.1949 -0.4962
 4122TIP3   OH233924   3.410   2.485   0.121  0.3242  0.2212 -0.2687
 4122TIP3    H133925   3.449   2.515   0.203 -1.2023 -1.0098  0.9447
 4122TIP3    H233926   3.486   2.464   0.065  1.4718 -1.6149  1.8126
 4123TIP3   OH233927   3.714   5.212   6.975 -0.8152  0.6031 -0.2433
 4123TIP3    H133928   3.626   5.244   6.996 -0.4934  0.4237  1.4890
 4123TIP3    H233929   3.701   5.153   6.900 -2.3085 -0.0997  0.5342
 4124TIP3   OH233930   6.564   0.883   7.658  0.4736 -0.2586 -0.5895
 4124TIP3    H133931   6.488   0.908   7.710  0.7047  0.5999 -0.6594
 4124TIP3    H233932   6.629   0.854   7.722  0.2482 -0.5816 -0.5037
 4125TIP3   OH233933   1.468   6.481   0.321  0.1087  0.1746 -0.1637
 4125TIP3    H133934   1.530   6.412   0.297 -1.1999 -0.2991 -2.5129
 4125TIP3    H233935   1.482   6.549   0.254 -0.5425  0.9371  0.4578
 4126TIP3   OH233936   1.055   4.912   7.373 -0.1816 -0.0503 -0.2578
 4126TIP3    H133937   1.010   4.992   7.346 -0.6964 -0.3275 -0.2280
 4126TIP3    H233938   0.996   4.871   7.437  1.1314  0.7304  1.5507
 4127TIP3   OH233939   6.620   0.421   0.391 -0.0153 -0.1440  0.2812
 4127TIP3    H133940   6.639   0.513   0.371  0.7620 -0.3614 -0.0310
 4127TIP3    H233941   6.526   0.412   0.374  0.0328  0.4314 -0.3503
 4128TIP3   OH233942   3.809   2.490   7.407  0.3061  0.1425 -1.0590
 4128TIP3    H133943   3.868   2.433   7.357  2.1797  1.5596 -0.5933
 4128TIP3    H233944   3.840   2.482   7.497 -1.5850 -0.6434 -0.4354
 4129TIP3   OH233945   2.238   0.527   7.541 -0.1134 -0.1724  0.0657
 4129TIP3    H133946   2.302   0.498   7.475  0.2420 -0.5174  0.5516
 4129TIP3    H233947   2.206   0.446   7.580 -1.5009 -0.0470 -0.7565
 4130TIP3   OH233948   1.030   3.563   1.478  0.1409 -0.0681 -0.4017
 4130TIP3    H133949   0.997   3.516   1.554 -0.0102  0.8682  0.1270
 4130TIP3    H233950   0.966   3.632   1.462  2.5023  2.8545  1.6830
 4131TIP3   OH233951   6.144   3.150   0.806  0.0659  0.3506  0.5323
 4131TIP3    H133952   6.097   3.067   0.796 -0.0738  0.6627 -1.8917
 4131TIP3    H233953   6.235   3.128   0.783 -0.1352  1.0192 -0.9761
 4132TIP3   OH233954   4.145   3.482   0.518  0.1313  0.0342  0.4974
 4132TIP3    H133955   4.063   3.500   0.564 -0.3382 -0.6183 -0.0691
 4132TIP3    H233956   4.199   3.436   0.582 -0.0064  0.3233  0.8216
 4133TIP3   OH233957   3.318   1.832   8.309  0.2251 -0.1987  0.1956
 4133TIP3    H133958   3.387   1.824   8.242 -0.4085 -0.6754 -0.4157
 4133TIP3    H233959   3.319   1.748   8.354 -0.8528 -0.7236 -0.7171
 4134TIP3   OH233960   0.569   3.586   1.418  0.6703  0.3624  0.2619
 4134TIP3    H133961   0.638   3.599   1.484  2.1292  2.8395 -1.5853
 4134TIP3    H233962   0.522   3.669   1.416 -0.4883 -0.2936 -0.5657
 4135TIP3   OH233963   3.077   4.185   0.537 -0.0205 -0.2193  0.3471
 4135TIP3    H133964   3.114   4.269   0.565  1.0489 -1.0834  1.6803
 4135TIP3    H233965   3.147   4.143   0.488 -0.6596 -0.2206 -0.5775
 4136TIP3   OH233966   3.637   3.972   0.670  0.3312  0.1319  0.0253
 4136TIP3    H133967   3.593   3.969   0.755  2.3751 -1.8785  1.1057
 4136TIP3    H233968   3.591   3.907   0.617 -0.8063  1.2370 -0.4007
 4137TIP3   OH233969   3.013   5.895   7.647 -0.3694 -0.3828 -0.0791
 4137TIP3    H133970   2.979   5.940   7.724  0.5595  0.7504 -0.3081
 4137TIP3    H233971   2.970   5.939   7.573  0.7239  0.3254 -0.3164
 4138TIP3   OH233972   4.346   6.251   7.802 -0.2651  0.3109  0.3386
 4138TIP3    H133973   4.293   6.243   7.881  0.2721  0.2732  0.7000
 4138TIP3    H233974   4.420   6.306   7.828  0.2470 -0.2235  0.0423
 4139TIP3   OH233975   1.300   5.081   6.167 -0.6814 -0.3938  0.3322
 4139TIP3    H133976   1.241   5.151   6.136 -1.2504 -1.5713 -1.3637
 4139TIP3    H233977   1.249   5.001   6.159  1.1220 -1.4627 -1.1472
 4140TIP3   OH233978   1.714   5.785   0.091  0.2661  0.2008  0.2569
 4140TIP3    H133979   1.625   5.802   0.125  0.4752 -0.7235  1.3366
 4140TIP3    H233980   1.710   5.695   0.060  1.2945 -0.5046  2.0251
 4141TIP3   OH233981   3.778   2.670   7.748  0.4985  0.2580  0.3942
 4141TIP3    H133982   3.851   2.691   7.807  1.1790 -1.3950  0.1968
 4141TIP3    H233983   3.719   2.617   7.801  0.2579  0.1936  0.0665
 4142TIP3   OH233984   4.561   3.347   0.921  0.0010 -0.6669 -0.2893
 4142TIP3    H133985   4.589   3.320   1.008  2.1329 -2.6591 -1.4669
 4142TIP3    H233986   4.642   3.366   0.875 -1.1707  3.1540 -1.1179
 4143TIP3   OH233987   1.390   6.810   8.315 -0.0841  0.3548 -0.1541
 4143TIP3    H133988   1.340   6.840   8.238 -0.2940 -0.4965 -0.3559
 4143TIP3    H233989   1.470   6.863   8.312  0.2139 -0.1155 -1.3490
 4144TIP3   OH233990   6.999   5.185   0.075  0.1559 -0.3663  0.3166
 4144TIP3    H133991   7.066   5.241   0.036 -0.3400  0.4237  0.5764
 4144TIP3    H233992   7.031   5.167   0.164  1.1109 -1.8723 -0.2933
 4145TIP3   OH233993   0.004   4.826   1.752 -0.2829  0.2175  0.1665
 4145TIP3    H133994  -0.061   4.793   1.689 -0.0191  1.2470 -0.6657
 4145TIP3    H233995   0.005   4.760   1.821 -1.5524 -0.2816 -0.2517
 4146TIP3   OH233996   3.034   3.475   1.244  0.1495 -0.3690 -0.4072
 4146TIP3    H133997   3.109   3.433   1.202  1.2642  0.6321  0.5067
 4146TIP3    H233998   2.981   3.403   1.277  1.1695 -1.0829 -0.3034
 4147TIP3   OH233999   3.754   0.058   7.840 -0.3074 -0.2065  0.1922
 4147TIP3    H134000   3.698  -0.016   7.816 -3.2631  1.2496  1.9417
 4147TIP3    H234001   3.739   0.123   7.771 -1.3922  0.4145  0.9652
 4148TIP3   OH234002   4.388   0.307   8.271 -0.1321  0.0546  0.3127
 4148TIP3    H134003   4.402   0.317   8.177  2.0226  0.6429  0.6391
 4148TIP3    H234004   4.356   0.392   8.300  1.9087  0.8227  0.4879
 4149TIP3   OH234005   3.238   2.716   7.943  0.2173  0.4626  0.2518
 4149TIP3    H134006   3.224   2.678   8.029  0.1909 -0.0237  0.0380
 4149TIP3    H234007   3.154   2.708   7.898  0.5691 -0.5106 -0.2801
 4150TIP3   OH234008   3.673   5.647   2.505  0.3979 -0.0315 -0.0220
 4150TIP3    H134009   3.668   5.739   2.530  1.0505  0.1934 -0.7273
 4150TIP3    H234010   3.758   5.617   2.538  0.3096 -0.3156 -0.0457
 4151TIP3   OH234011   3.659   3.737   7.137  0.3508 -0.3406  0.3891
 4151TIP3    H134012   3.749   3.704   7.128  0.9953  1.2470  0.7011
 4151TIP3    H234013   3.605   3.668   7.099  1.7128 -1.2464 -0.0044
 4152TIP3   OH234014   1.295   6.076   6.835  0.3926 -0.2116  0.1704
 4152TIP3    H134015   1.279   6.021   6.758  0.7912 -3.2394  2.0531
 4152TIP3    H234016   1.234   6.042   6.901  1.8342  0.4834  1.9427
 4153TIP3   OH234017   2.221   2.390   1.841 -0.4563  0.0254 -0.3564
 4153TIP3    H134018   2.205   2.427   1.928  0.1387 -0.5759  0.0184
 4153TIP3    H234019   2.251   2.465   1.789  0.1129  0.2043  0.2177
 4154TIP3   OH234020   2.943   6.764   1.126 -0.4885 -0.3568 -0.3440
 4154TIP3    H134021   3.027   6.782   1.083 -0.4630 -1.2209 -0.6787
 4154TIP3    H234022   2.912   6.850   1.155  0.5746 -0.0429 -0.0854
 4155TIP3   OH234023   0.040   5.167   2.133  0.1552 -0.6974  0.0787
 4155TIP3    H134024   0.045   5.086   2.185  0.3931 -1.4327 -1.0520
 4155TIP3    H234025   0.117   5.165   2.077  0.6764  0.8161  0.7002
 4156TIP3   OH234026   4.871   2.305   7.235 -0.1471 -0.2877 -0.0176
 4156TIP3    H134027   4.817   2.278   7.310 -0.8341 -0.5828 -0.6022
 4156TIP3    H234028   4.942   2.357   7.273 -1.1616  0.5947  0.7375
 4157TIP3   OH234029   2.713   0.846   0.582 -0.0755 -0.6342 -0.0806
 4157TIP3    H134030   2.660   0.879   0.510  0.1798  1.1216  0.4988
 4157TIP3    H234031   2.777   0.915   0.600  0.6754 -1.5597  1.0061
 4158TIP3   OH234032   2.043   1.048   1.768 -0.1843 -0.1280  0.0690
 4158TIP3    H134033   2.084   0.969   1.801  0.3243  0.2182  0.2753
 4158TIP3    H234034   1.969   1.017   1.716 -1.9718 -0.6796  2.7624
 4159TIP3   OH234035   5.092   5.850   0.777 -0.1438 -0.1619  0.2184
 4159TIP3    H134036   5.077   5.756   0.772  1.5686 -0.6923  2.9462
 4159TIP3    H234037   5.164   5.867   0.716  0.5343 -0.8984  0.8087
 4160TIP3   OH234038   0.848   0.404   1.682 -0.0182 -0.3208  0.2510
 4160TIP3    H134039   0.846   0.487   1.633 -2.0410 -0.9769 -0.8937
 4160TIP3    H234040   0.934   0.403   1.724  0.1328  2.2630  0.1502
 4161TIP3   OH234041   3.744   4.435   0.775  0.2014  0.2372 -0.5137
 4161TIP3    H134042   3.777   4.345   0.766  0.1422  0.1958 -0.3343
 4161TIP3    H234043   3.650   4.425   0.789  0.2486  0.3072 -0.1280
 4162TIP3   OH234044   4.298   4.439   0.178  0.1847  0.2390 -0.2153
 4162TIP3    H134045   4.243   4.366   0.206  0.7553 -0.7964 -1.7105
 4162TIP3    H234046   4.295   4.500   0.252  1.4919 -2.2578  2.0822
 4163TIP3   OH234047   2.346   4.559   7.507 -0.1772  0.5712 -0.7152
 4163TIP3    H134048   2.422   4.523   7.553 -1.3916  0.0358  0.9795
 4163TIP3    H234049   2.355   4.653   7.515  0.1909  0.5045 -0.2928
 4164TIP3   OH234050   6.662   3.997   7.323 -0.0797 -0.7711 -0.2937
 4164TIP3    H134051   6.571   3.967   7.329 -0.1477 -0.3183  2.2125
 4164TIP3    H234052   6.689   4.008   7.415  1.1627  3.0527 -0.9514
 4165TIP3   OH234053   0.448   3.436   0.318  0.3779  0.0404 -0.1836
 4165TIP3    H134054   0.437   3.461   0.410 -1.2101 -0.1584 -0.2942
 4165TIP3    H234055   0.394   3.498   0.269  2.7472  1.4462 -1.2337
 4166TIP3   OH234056   5.671   6.441   2.085 -0.6520  0.0054  0.1315
 4166TIP3    H134057   5.741   6.429   2.020 -0.8922  0.4764 -0.2195
 4166TIP3    H234058   5.590   6.434   2.035 -0.8348  0.8689  0.2888
 4167TIP3   OH234059   4.216   6.140   8.061 -0.2058  0.3235  0.0611
 4167TIP3    H134060   4.133   6.099   8.037  1.4865 -2.1365 -2.2530
 4167TIP3    H234061   4.250   6.085   8.132  1.4612 -1.7569 -2.1629
 4168TIP3   OH234062   1.647   5.129   2.022 -0.0478  0.1956 -0.5171
 4168TIP3    H134063   1.658   5.225   2.021 -1.4682  0.3850  0.1404
 4168TIP3    H234064   1.610   5.110   2.108 -0.4673 -0.8684 -0.9143
 4169TIP3   OH234065   2.584   4.800   0.446 -0.4748 -0.0103  0.6998
 4169TIP3    H134066   2.607   4.892   0.433 -0.6752  0.0056  0.4578
 4169TIP3    H234067   2.611   4.756   0.366  0.1363 -0.2650  1.0385
 4170TIP3   OH234068   4.127   3.854   1.283  0.3250 -0.2742 -0.2770
 4170TIP3    H134069   4.089   3.796   1.216  0.7626 -0.3874 -0.4279
 4170TIP3    H234070   4.184   3.913   1.234 -2.5463  2.5128 -0.6277
 4171TIP3   OH234071   5.170   3.702   0.435  0.1331  0.5286 -0.3385
 4171TIP3    H134072   5.212   3.760   0.500 -0.5910 -1.0982  1.6913
 4171TIP3    H234073   5.243   3.655   0.396  0.4789  0.1304  0.7389
 4172TIP3   OH234074   5.217   6.156   1.709 -0.1823  0.0476 -0.1357
 4172TIP3    H134075   5.302   6.179   1.746 -1.0436  0.8087  1.4555
 4172TIP3    H234076   5.228   6.169   1.614  0.7556  2.4803  0.2496
 4173TIP3   OH234077   6.846   3.396   1.828 -0.1244  0.1731 -0.2787
 4173TIP3    H134078   6.913   3.432   1.887 -0.5062  0.5822 -0.0914
 4173TIP3    H234079   6.883   3.313   1.798 -0.4203 -0.6028  1.4430
 4174TIP3   OH234080   4.491   4.068   7.000 -0.1086 -0.2300  0.2184
 4174TIP3    H134081   4.396   4.082   6.993 -0.1846 -1.5586 -2.5903
 4174TIP3    H234082   4.530   4.152   6.978 -0.5365  0.6893  2.5989
 4175TIP3   OH234083   0.642   1.426   2.093 -0.4541 -0.0955 -0.8231
 4175TIP3    H134084   0.591   1.436   2.174  0.9016 -0.5656  0.1306
 4175TIP3    H234085   0.632   1.509   2.048 -0.0547  0.7363  0.5587
 4176TIP3   OH234086   1.538   0.758   1.476 -0.1492 -0.1614  0.5956
 4176TIP3    H134087   1.444   0.758   1.493 -0.6022 -1.8436 -1.4713
 4176TIP3    H234088   1.574   0.696   1.539 -0.7254 -0.9236  0.1899
 4177TIP3   OH234089   2.235   3.287   2.546 -0.0116 -0.0170 -0.0949
 4177TIP3    H134090   2.265   3.295   2.637  1.2801  2.7962 -0.6563
 4177TIP3    H234091   2.212   3.376   2.520 -0.3788 -0.7460 -2.5280
 4178TIP3   OH234092   3.267   1.317   0.564 -0.0490  0.5917 -0.8537
 4178TIP3    H134093   3.184   1.292   0.522 -0.4605  2.1981 -1.0766
 4178TIP3    H234094   3.285   1.246   0.626 -0.0634 -1.2487 -2.8364
 4179TIP3   OH234095   2.764   5.784   8.252  0.2084  0.4862 -0.7557
 4179TIP3    H134096   2.760   5.733   8.333  2.1385  0.1285 -0.8317
 4179TIP3    H234097   2.681   5.764   8.207  0.6054 -2.1286 -0.4992
 4180TIP3   OH234098   1.274   6.504   1.739  0.0988  0.7064  0.0394
 4180TIP3    H134099   1.273   6.549   1.824 -1.9275  1.4397 -0.2946
 4180TIP3    H234100   1.348   6.542   1.693  0.8539  0.7575  1.2530
 4181TIP3   OH234101   0.446   6.731   1.612  0.3559 -0.0947 -0.1095
 4181TIP3    H134102   0.529   6.746   1.566 -0.1289  0.8783 -0.6898
 4181TIP3    H234103   0.412   6.818   1.629  0.0922 -0.4580  1.3461
 4182TIP3   OH234104   3.593   1.976   7.820 -0.9411 -0.2462  0.5928
 4182TIP3    H134105   3.567   1.957   7.729 -0.4508  2.2845 -0.1513
 4182TIP3    H234106   3.514   2.013   7.860 -1.0543 -1.0388  1.1193
 4183TIP3   OH234107   4.569   0.761   2.647  0.1872  0.0497  0.2424
 4183TIP3    H134108   4.499   0.695   2.646 -0.1560  0.4129  0.3793
 4183TIP3    H234109   4.649   0.710   2.660  0.0057 -0.4190 -0.4033
 4184TIP3   OH234110   3.350   2.563   1.500  0.1572  0.7667 -0.6539
 4184TIP3    H134111   3.287   2.554   1.571  0.7348  1.8423  0.0222
 4184TIP3    H234112   3.312   2.513   1.428  0.3451 -1.8175  0.8847
 4185TIP3   OH234113   1.599   6.263   7.204  0.2888 -0.2768  0.6940
 4185TIP3    H134114   1.662   6.274   7.275  0.9895  1.1332 -0.1046
 4185TIP3    H234115   1.532   6.330   7.220 -0.2957 -0.8687  0.7816
 4186TIP3   OH234116   2.462   4.012   2.102  0.7786  0.7057 -0.0337
 4186TIP3    H134117   2.455   4.017   2.006  0.5992  0.2863 -0.0447
 4186TIP3    H234118   2.519   4.085   2.125  2.0933 -0.1051 -0.6043
 4187TIP3   OH234119   7.001   3.705   7.463  0.0238 -0.5740  0.4653
 4187TIP3    H134120   7.074   3.666   7.511 -1.6417 -1.8717  2.0953
 4187TIP3    H234121   6.976   3.782   7.515  1.8802  1.5238 -1.5525
 4188TIP3   OH234122   1.865   0.924   7.503  0.1724  0.1955 -0.4559
 4188TIP3    H134123   1.906   0.845   7.468 -2.1485 -0.3658 -2.1445
 4188TIP3    H234124   1.803   0.952   7.435 -2.1207  1.0454  1.8043
 4189TIP3   OH234125   6.046   3.346   2.093  0.1377  0.3394 -0.4490
 4189TIP3    H134126   6.098   3.303   2.025 -1.8723  1.5512 -2.8840
 4189TIP3    H234127   6.009   3.273   2.144  1.0507 -0.6181 -1.0991
 4190TIP3   OH234128   5.298   2.137   6.490 -0.4147 -0.0283  0.4268
 4190TIP3    H134129   5.348   2.219   6.487 -0.7585  0.2332  1.3458
 4190TIP3    H234130   5.353   2.076   6.539 -0.0231 -0.4505 -0.5328
 4191TIP3   OH234131   3.475   0.986   1.013  0.2725  0.2283 -0.2912
 4191TIP3    H134132   3.386   0.967   1.044  0.7217 -0.2112  0.7874
 4191TIP3    H234133   3.464   1.057   0.950 -0.7503  0.8426  0.5474
 4192TIP3   OH234134   1.657   4.617   7.450  0.3534  0.1089  0.0070
 4192TIP3    H134135   1.679   4.552   7.383  0.7635 -0.7166  0.9120
 4192TIP3    H234136   1.722   4.686   7.439  0.7552 -0.2788 -0.1080
 4193TIP3   OH234137   6.678   2.716   2.617 -0.3219 -0.5524 -0.2915
 4193TIP3    H134138   6.724   2.756   2.544 -0.4670  0.2095  0.0123
 4193TIP3    H234139   6.718   2.630   2.628  3.0285  1.0531  1.7142
 4194TIP3   OH234140   3.891   0.877   0.303  0.2431  0.3851 -0.1011
 4194TIP3    H134141   3.896   0.879   0.208  1.9293  0.0391 -0.0486
 4194TIP3    H234142   3.982   0.877   0.332 -0.2395  0.4437  1.5148
 4195TIP3   OH234143   1.288   2.899   1.089  0.1296  0.4895 -0.0147
 4195TIP3    H134144   1.208   2.949   1.072  0.1971  0.8344  0.6269
 4195TIP3    H234145   1.258   2.809   1.101 -0.2441  0.7139  0.7970
 4196TIP3   OH234146   2.762   2.979   1.696  0.1082 -0.2214  0.0575
 4196TIP3    H134147   2.790   3.061   1.737  1.2198 -0.4170 -0.2895
 4196TIP3    H234148   2.672   2.997   1.669  0.8635  1.5301 -1.5633
 4197TIP3   OH234149   6.976   2.940   7.140 -0.1323 -0.1342 -0.6222
 4197TIP3    H134150   6.979   2.857   7.092 -0.3798 -0.3914 -0.2066
 4197TIP3    H234151   6.932   2.918   7.222  0.2063  0.3173 -0.3150
 4198TIP3   OH234152   6.586   2.921   7.711  0.1102 -0.1070  0.3040
 4198TIP3    H134153   6.556   2.883   7.793  1.1016 -0.5746  0.4648
 4198TIP3    H234154   6.506   2.935   7.660 -0.5036  0.0952  1.3004
 4199TIP3   OH234155   0.623   4.985   0.576  0.0855 -0.1220 -0.5040
 4199TIP3    H134156   0.539   4.943   0.561 -0.2001 -0.0796  0.8073
 4199TIP3    H234157   0.613   5.073   0.540 -1.0265  0.4407  1.0510
 4200TIP3   OH234158   5.197   2.246   2.251 -0.2125 -0.1250  0.0481
 4200TIP3    H134159   5.149   2.192   2.187 -0.6625  0.4476 -0.1087
 4200TIP3    H234160   5.282   2.262   2.210 -0.7019  0.7104 -0.6709
 4201TIP3   OH234161   1.814   4.529   8.324 -0.4295 -0.4243 -0.1275
 4201TIP3    H134162   1.882   4.594   8.310 -0.5252 -0.4598 -0.7678
 4201TIP3    H234163   1.851   4.448   8.288  0.4433 -1.1830  2.2895
 4202TIP3   OH234164   2.694   3.661   1.947  0.2455  0.0812 -0.4659
 4202TIP3    H134165   2.601   3.668   1.969 -0.1709 -2.0256 -1.2662
 4202TIP3    H234166   2.702   3.704   1.862 -0.1136 -0.1408 -0.6158
 4203TIP3   OH234167   1.413   1.425   8.178 -0.0408 -0.0989 -0.4546
 4203TIP3    H134168   1.396   1.485   8.106 -1.6635  1.9835  1.4895
 4203TIP3    H234169   1.395   1.338   8.142 -1.8240  0.9359 -2.3036
 4204TIP3   OH234170   3.346   3.830   8.068 -0.2671  0.1486 -0.0630
 4204TIP3    H134171   3.432   3.869   8.082 -0.9493  1.0669  1.9614
 4204TIP3    H234172   3.352   3.743   8.106  0.4685 -0.8138 -2.2236
 4205TIP3   OH234173   3.048   0.858   0.382 -0.3316  0.3384 -0.0928
 4205TIP3    H134174   3.124   0.880   0.330  0.5370 -0.6181  0.7338
 4205TIP3    H234175   2.987   0.817   0.321 -0.2262  1.1612 -0.7666
 4206TIP3   OH234176   6.354   2.791   6.788 -0.3228  0.2194 -0.3099
 4206TIP3    H134177   6.331   2.739   6.711 -1.0932  2.1819 -1.4761
 4206TIP3    H234178   6.445   2.818   6.772 -0.2195 -0.0199 -0.1347
 4207TIP3   OH234179   1.540   5.156   1.105 -0.3465  0.0092  0.0644
 4207TIP3    H134180   1.626   5.122   1.130 -1.1948 -0.7456  2.1674
 4207TIP3    H234181   1.527   5.232   1.161 -1.8921 -1.1384  1.3493
 4208TIP3   OH234182   5.393   6.329   8.225 -0.1292  0.5089 -0.3163
 4208TIP3    H134183   5.468   6.345   8.167 -0.1911  2.7869  0.1540
 4208TIP3    H234184   5.431   6.314   8.311 -0.1898  1.3537 -0.1383
 4209TIP3   OH234185   1.735   1.924   0.857  0.4781  0.5088  0.1735
 4209TIP3    H134186   1.682   1.935   0.778 -0.4375  2.2306  0.9759
 4209TIP3    H234187   1.728   1.830   0.877  1.3204 -0.1032 -2.1420
 4210TIP3   OH234188   4.444   2.891   8.330  0.0981 -0.3696  0.4915
 4210TIP3    H134189   4.482   2.919   8.247 -1.0776  0.0443  0.0709
 4210TIP3    H234190   4.405   2.971   8.366  1.6499 -0.2618  2.0545
 4211TIP3   OH234191   5.501   3.525   8.200 -0.3053 -0.1167 -0.3912
 4211TIP3    H134192   5.411   3.507   8.227 -0.1433  0.2634  0.4502
 4211TIP3    H234193   5.515   3.470   8.123 -2.0115  1.5271 -2.0043
 4212TIP3   OH234194   5.252   5.826   1.028 -0.3269  0.2167  0.0820
 4212TIP3    H134195   5.180   5.825   0.965 -1.8657  0.0525  1.7562
 4212TIP3    H234196   5.310   5.895   0.997  0.4995 -1.7147 -3.0621
 4213TIP3   OH234197   1.981   6.887   0.241  0.6736  0.4944 -0.0527
 4213TIP3    H134198   1.914   6.895   0.309  0.3086  2.5093 -0.5864
 4213TIP3    H234199   1.967   6.800   0.204  1.0397 -0.7851  2.5644
 4214TIP3   OH234200   4.366   5.794   7.387 -0.0539  0.3093 -0.6499
 4214TIP3    H134201   4.366   5.890   7.393 -1.2440  0.2849  0.1474
 4214TIP3    H234202   4.428   5.766   7.454 -1.2235  0.5016  0.5671
 4215TIP3   OH234203   5.735   5.061   7.316 -0.6702  0.2418  0.0002
 4215TIP3    H134204   5.796   5.004   7.268 -0.6099  0.3336 -0.0325
 4215TIP3    H234205   5.733   5.024   7.404  0.3278  0.9148  0.3282
 4216TIP3   OH234206   3.852   0.150   1.370 -0.2367 -0.4980 -0.2965
 4216TIP3    H134207   3.811   0.136   1.284 -1.1494  0.2246 -0.0017
 4216TIP3    H234208   3.945   0.160   1.351 -0.6223  1.4432 -1.4527
 4217TIP3   OH234209   3.268   5.652   7.401 -0.2333 -0.4308 -0.5917
 4217TIP3    H134210   3.308   5.573   7.365  1.2744 -0.5650  1.2706
 4217TIP3    H234211   3.175   5.629   7.411  0.1854 -1.9992 -0.0451
 4218TIP3   OH234212   2.438   4.309   2.403 -0.4248 -0.5928  0.1876
 4218TIP3    H134213   2.510   4.365   2.372 -0.9853  0.0776  0.0807
 4218TIP3    H234214   2.465   4.220   2.379  0.5171 -0.3858  0.4363
 4219TIP3   OH234215   6.106   2.157   0.300 -0.1985 -0.0441  0.2348
 4219TIP3    H134216   6.083   2.168   0.392  0.4809 -0.2569  0.4331
 4219TIP3    H234217   6.164   2.231   0.281 -0.6482  0.2228 -0.1361
 4220TIP3   OH234218   6.321   6.453   0.804  0.4040 -0.1230  0.0866
 4220TIP3    H134219   6.387   6.434   0.870  0.6700  0.1691 -0.0879
 4220TIP3    H234220   6.302   6.546   0.816 -2.5854 -0.8682  2.4830
 4221TIP3   OH234221   5.858   4.818   1.839  0.3535 -0.1577 -0.3811
 4221TIP3    H134222   5.821   4.832   1.751 -0.7172 -0.1037  0.0651
 4221TIP3    H234223   5.782   4.816   1.897  1.0448 -0.2934  0.5410
 4222TIP3   OH234224   2.597   2.218   0.033 -0.1172  0.9984  0.2682
 4222TIP3    H134225   2.591   2.205  -0.061 -1.7043  2.2871  0.1440
 4222TIP3    H234226   2.525   2.166   0.069  0.3144  0.7223  0.7550
 4223TIP3   OH234227   2.659   2.720   2.301  0.0910 -0.6425 -0.4573
 4223TIP3    H134228   2.725   2.790   2.301 -0.3108 -0.2541  0.2577
 4223TIP3    H234229   2.622   2.722   2.213 -1.0664  1.1460  0.0245
 4224TIP3   OH234230   5.138   2.786   1.311  0.6110  0.2767  0.6069
 4224TIP3    H134231   5.122   2.701   1.353 -0.7722  0.4265  0.4343
 4224TIP3    H234232   5.161   2.845   1.383 -0.9488  0.3378  1.0885
 4225TIP3   OH234233   0.431   6.352   0.889  0.3660  0.2907  0.0411
 4225TIP3    H134234   0.348   6.378   0.928  0.4224 -0.1007  0.4288
 4225TIP3    H234235   0.436   6.257   0.904  0.2465  0.0656 -1.1672
 4226TIP3   OH234236   2.386   5.023   6.690  0.1415 -0.0427 -0.4611
 4226TIP3    H134237   2.369   5.050   6.600  0.9308 -1.6838 -1.1535
 4226TIP3    H234238   2.365   5.099   6.743  0.7633  1.3622 -2.1419
 4227TIP3   OH234239   1.919   0.623   7.204  0.0131  0.5310 -0.7029
 4227TIP3    H134240   1.841   0.612   7.258  0.8857  2.1145  1.0314
 4227TIP3    H234241   1.887   0.661   7.122 -1.0359  1.5247  0.1311
 4228TIP3   OH234242   6.594   0.970   7.997  0.3861  0.3309  0.3028
 4228TIP3    H134243   6.635   0.972   8.083  0.3160  0.0802  0.3449
 4228TIP3    H234244   6.579   0.876   7.980 -1.7412  0.4760  1.0555
 4229TIP3   OH234245   0.093   4.860   8.138  0.3264  0.1121 -0.2680
 4229TIP3    H134246   0.013   4.893   8.180  1.2582  0.8596  0.9825
 4229TIP3    H234247   0.061   4.797   8.074 -1.2012 -0.5706  1.0772
 4230TIP3   OH234248   5.120   5.259   1.055  0.5669  0.0711 -0.1172
 4230TIP3    H134249   5.058   5.186   1.054  0.8391 -0.1601 -1.2060
 4230TIP3    H234250   5.146   5.267   1.146 -1.3861  0.4591  0.4625
 4231TIP3   OH234251   5.545   4.664   1.508 -0.1924  0.0581 -0.5353
 4231TIP3    H134252   5.571   4.603   1.577 -0.1575 -0.4674 -1.0039
 4231TIP3    H234253   5.599   4.741   1.523 -0.4172  0.0706  0.2165
 4232TIP3   OH234254   0.270   1.174   7.954  0.1491  0.8785  0.4595
 4232TIP3    H134255   0.356   1.190   7.992  0.2629 -0.7912  0.9833
 4232TIP3    H234256   0.286   1.114   7.882 -0.5865  0.4771  0.6219
 4233TIP3   OH234257   6.961   6.540   0.040 -0.3132  0.7312  0.0587
 4233TIP3    H134258   6.903   6.485  -0.013 -0.5552 -0.5722  1.6000
 4233TIP3    H234259   6.955   6.627  -0.001 -2.2602  0.3141 -0.6655
 4234TIP3   OH234260   2.701   5.423   6.209  0.3317  0.6993 -0.2333
 4234TIP3    H134261   2.678   5.347   6.262 -1.3022  1.4048  0.1532
 4234TIP3    H234262   2.765   5.471   6.261 -0.9877  1.2039  0.9819
 4235TIP3   OH234263   1.817   5.862   7.912 -0.6380 -1.0899  0.2807
 4235TIP3    H134264   1.910   5.839   7.912  0.1554  1.7234  0.4190
 4235TIP3    H234265   1.784   5.830   7.995  0.9286  0.2126  1.4628
 4236TIP3   OH234266   6.913   4.918   7.498 -0.2625 -0.0684  0.3984
 4236TIP3    H134267   6.913   4.956   7.411 -1.5310  0.1160  0.4624
 4236TIP3    H234268   7.002   4.887   7.511  0.4793  1.7240 -0.1514
 4237TIP3   OH234269   6.959   5.127   1.190 -0.5955  0.1022  0.4665
 4237TIP3    H134270   6.914   5.121   1.106 -1.3448 -3.7930  0.9599
 4237TIP3    H234271   6.892   5.155   1.252 -0.4089  1.4598  0.1029
 4238TIP3   OH234272   1.753   5.400   6.460 -0.1361 -0.1004  0.5287
 4238TIP3    H134273   1.731   5.323   6.511 -2.5804  1.0394  1.3304
 4238TIP3    H234274   1.848   5.393   6.445 -0.1967 -2.9427  0.9871
 4239TIP3   OH234275   5.896   4.560   7.006 -0.5179  0.6381 -0.3537
 4239TIP3    H134276   5.905   4.574   7.100 -0.6748 -0.6298 -0.1302
 4239TIP3    H234277   5.802   4.545   6.993 -0.6498  1.8040 -0.8753
 4240TIP3   OH234278   0.864   4.681   0.245 -0.6495 -0.3960  0.1383
 4240TIP3    H134279   0.867   4.618   0.316 -1.4769  0.5141  1.0088
 4240TIP3    H234280   0.798   4.745   0.272 -1.2664 -0.2355 -1.6210
 4241TIP3   OH234281   4.269   2.678   2.670  0.6938  0.7873  0.1665
 4241TIP3    H134282   4.286   2.635   2.754  1.2635  2.0895  0.7423
 4241TIP3    H234283   4.174   2.691   2.669  0.7743  1.5669  1.0451
 4242TIP3   OH234284   2.049   3.484   7.974 -0.0029  0.1834 -0.0473
 4242TIP3    H134285   1.968   3.449   8.011 -0.1655  0.2533 -0.3389
 4242TIP3    H234286   2.114   3.471   8.043 -0.2557  0.1043  0.1771
 4243TIP3   OH234287   1.015   3.606   7.495  0.0378  0.2653  0.2373
 4243TIP3    H134288   0.961   3.644   7.564  0.7086  0.5375  0.6199
 4243TIP3    H234289   1.105   3.630   7.518  0.3979 -0.7796  0.0024
 4244TIP3   OH234290   5.542   3.443   2.487  0.1896  0.3523  0.1244
 4244TIP3    H134291   5.545   3.535   2.459  0.9612  0.4542  0.5014
 4244TIP3    H234292   5.628   3.408   2.463 -0.0286 -0.2208  0.1653
 4245TIP3   OH234293   4.835   1.038   7.121 -0.3775 -0.1502 -0.3527
 4245TIP3    H134294   4.831   1.113   7.060 -1.0391 -0.1898 -0.3629
 4245TIP3    H234295   4.840   0.962   7.064  1.4663 -0.0716 -0.3421
 4246TIP3   OH234296   4.651   6.229   1.507 -0.1740  0.4348 -0.0824
 4246TIP3    H134297   4.632   6.205   1.416  1.3459  0.4852 -0.4372
 4246TIP3    H234298   4.576   6.197   1.557 -1.5267  1.3203 -1.4815
 4247TIP3   OH234299   1.683   3.100   6.668  0.1400  0.1024 -0.6873
 4247TIP3    H134300   1.629   3.137   6.598 -0.7174  1.5350  0.6902
 4247TIP3    H234301   1.621   3.050   6.722  0.0858  1.8830  0.9929
 4248TIP3   OH234302   6.474   5.787   6.653  0.3560  0.0165  0.0875
 4248TIP3    H134303   6.382   5.803   6.671  0.7737  1.3361  1.3083
 4248TIP3    H234304   6.485   5.693   6.663 -0.8144 -0.1193  0.1595
 4249TIP3   OH234305   0.831   2.560   1.627 -0.4109  0.0067 -0.3367
 4249TIP3    H134306   0.811   2.474   1.590 -2.1888 -0.1344  0.8092
 4249TIP3    H234307   0.913   2.586   1.585  0.9325 -2.8242  0.3087
 4250TIP3   OH234308   6.528   3.819   0.661 -0.4554  0.4420 -0.1363
 4250TIP3    H134309   6.509   3.851   0.749  0.1089 -0.1497  0.2016
 4250TIP3    H234310   6.608   3.768   0.670 -0.1326  0.7649 -1.0811
 4251TIP3   OH234311   3.292   0.884   0.159 -0.1925  0.0985  0.0595
 4251TIP3    H134312   3.273   0.838   0.077 -2.6598 -1.4229  1.3365
 4251TIP3    H234313   3.386   0.874   0.171 -0.1600 -1.9344 -1.3155
 4252TIP3   OH234314   4.564   4.581   7.674 -0.6878 -0.2222 -0.3082
 4252TIP3    H134315   4.596   4.641   7.607  1.5704 -0.4908  0.4181
 4252TIP3    H234316   4.556   4.635   7.753  0.5831 -0.6498  0.1497
 4253TIP3   OH234317   4.052   1.732   7.321  0.0173 -0.3956 -0.0772
 4253TIP3    H134318   4.100   1.698   7.397 -1.5660  1.8581  2.0816
 4253TIP3    H234319   4.118   1.780   7.271  0.5455  0.6926  1.5780
 4254TIP3   OH234320   0.802   5.791   0.978 -0.0840 -0.2263 -0.4902
 4254TIP3    H134321   0.831   5.862   1.035 -0.7051  0.5182 -1.0711
 4254TIP3    H234322   0.862   5.719   0.996 -0.6660 -0.2488  1.5763
 4255TIP3   OH234323   5.274   0.421   6.954 -0.0725  0.6165  0.1568
 4255TIP3    H134324   5.204   0.467   7.001  0.4664  1.5136  0.0987
 4255TIP3    H234325   5.307   0.485   6.891 -0.4900 -0.4262 -1.1746
 4256TIP3   OH234326   4.662   0.934   1.866 -0.1894  0.8460  0.4692
 4256TIP3    H134327   4.755   0.918   1.853 -0.2515  1.0888 -0.2943
 4256TIP3    H234328   4.656   0.971   1.954  0.2867 -0.4417  1.0613
 4257TIP3   OH234329   6.169   1.961   2.524 -0.1444  0.0763  0.1335
 4257TIP3    H134330   6.091   1.919   2.559 -0.1810  0.2949  0.3161
 4257TIP3    H234331   6.238   1.896   2.534 -0.1110  0.2067  0.8014
 4258TIP3   OH234332   1.088   4.076   0.525 -0.5042 -0.0696  0.4845
 4258TIP3    H134333   1.169   4.046   0.566  0.2901  1.2151 -0.0797
 4258TIP3    H234334   1.075   4.018   0.450  0.1125 -0.0334  0.3495
 4259TIP3   OH234335   4.766   0.370   7.255  0.5291 -0.0931  0.1805
 4259TIP3    H134336   4.684   0.331   7.284  1.1808 -0.3523  1.7779
 4259TIP3    H234337   4.784   0.328   7.171 -0.3757 -0.8991  0.3704
 4260TIP3   OH234338   3.773   2.220   7.764  0.3744  0.3569 -0.5686
 4260TIP3    H134339   3.690   2.260   7.738  0.7326  2.9431  1.7706
 4260TIP3    H234340   3.747   2.142   7.814 -0.5955  0.5597 -0.7267
 4261TIP3   OH234341   3.640   5.537   2.115  0.4063 -0.7666 -0.3994
 4261TIP3    H134342   3.647   5.452   2.071 -1.5722 -0.2064 -1.9777
 4261TIP3    H234343   3.693   5.596   2.061  0.4952 -0.6905 -0.2284
 4262TIP3   OH234344   4.912   1.045   7.687 -0.4414 -0.2465 -0.1475
 4262TIP3    H134345   4.856   1.004   7.752 -2.0909  1.3040 -0.5043
 4262TIP3    H234346   4.960   1.112   7.735  1.3087 -1.6711  0.1880
 4263TIP3   OH234347   2.467   0.894   8.285 -0.3524 -0.7692 -0.3136
 4263TIP3    H134348   2.447   0.875   8.193  0.0746  0.4016 -0.6634
 4263TIP3    H234349   2.515   0.977   8.283 -0.4408 -0.6634  0.9811
 4264TIP3   OH234350   0.444   3.529   0.584 -0.1048  0.3717 -0.1490
 4264TIP3    H134351   0.417   3.616   0.615  1.7509  1.9597 -2.6370
 4264TIP3    H234352   0.520   3.508   0.637 -1.4038 -0.5074  1.4717
 4265TIP3   OH234353   4.156   2.927   7.424 -0.0748 -0.2924 -0.4329
 4265TIP3    H134354   4.164   3.022   7.429  1.2206 -0.2709 -2.0506
 4265TIP3    H234355   4.123   2.911   7.336 -1.8520 -1.3026  0.3709
 4266TIP3   OH234356   2.560   1.085   7.893  0.3488  0.4775  0.2752
 4266TIP3    H134357   2.627   1.118   7.833  1.0412 -0.6391  0.4086
 4266TIP3    H234358   2.516   1.163   7.925  2.0033  1.2809  0.6784
 4267TIP3   OH234359   6.026   5.757   0.376 -0.5397 -0.3811 -0.1857
 4267TIP3    H134360   6.035   5.663   0.357  0.9329 -0.1914 -0.5331
 4267TIP3    H234361   5.958   5.787   0.315 -1.4896 -1.3300  0.3752
 4268TIP3   OH234362   1.915   3.665   0.905  0.0353 -0.0399 -0.2095
 4268TIP3    H134363   1.854   3.718   0.957  0.0379 -0.3927  0.1508
 4268TIP3    H234364   1.989   3.724   0.887  0.5569 -0.2522  1.1436
 4269TIP3   OH234365   5.905   5.817   7.833  0.1448 -0.2590 -0.1815
 4269TIP3    H134366   5.821   5.839   7.794  1.0276  2.2662 -0.8660
 4269TIP3    H234367   5.970   5.852   7.773  1.6553 -0.1386  1.4192
 4270TIP3   OH234368   2.546   0.539   7.724 -0.3345 -0.2712  0.2324
 4270TIP3    H134369   2.515   0.609   7.665 -0.3656 -0.7031 -0.2675
 4270TIP3    H234370   2.624   0.504   7.681  0.9052  0.8066  1.4859
 4271TIP3   OH234371   4.336   5.683   0.984  0.0442  0.2642  0.2450
 4271TIP3    H134372   4.325   5.625   0.908  1.0128  0.9296 -0.4380
 4271TIP3    H234373   4.249   5.721   0.998 -0.0927  0.3305 -0.7065
 4272TIP3   OH234374   1.789   0.631   7.777 -0.4082  0.0569  0.0539
 4272TIP3    H134375   1.794   0.686   7.698 -0.3750  1.2114  0.8438
 4272TIP3    H234376   1.860   0.662   7.832  0.0129 -1.2185  0.2754
 4273TIP3   OH234377   6.096   1.759   7.080 -0.5657  0.0644 -0.1781
 4273TIP3    H134378   6.011   1.799   7.064 -0.6220 -0.0677 -0.2090
 4273TIP3    H234379   6.140   1.760   6.995  0.0952  1.5914  0.1413
 4274TIP3   OH234380   2.387   2.493   7.861  0.4975  0.0047 -0.0533
 4274TIP3    H134381   2.349   2.410   7.833 -0.4658  0.1672  0.7175
 4274TIP3    H234382   2.480   2.485   7.842  0.4225 -1.2683  0.0633
 4275TIP3   OH234383   5.959   5.909   1.706  0.4962  0.4673  0.4067
 4275TIP3    H134384   5.966   5.908   1.802 -0.4916  0.7050  0.4912
 4275TIP3    H234385   5.881   5.961   1.689 -1.3306 -2.3810 -0.4134
 4276TIP3   OH234386   5.783   5.694   6.773  0.1466 -0.0004  0.6274
 4276TIP3    H134387   5.746   5.656   6.694  0.5725  0.9610 -0.0657
 4276TIP3    H234388   5.875   5.708   6.752  0.4541 -0.4709  1.5916
 4277TIP3   OH234389   3.071   5.706   0.645  0.5811  0.2727  0.3914
 4277TIP3    H134390   3.040   5.793   0.668 -1.2858 -0.6006  1.4664
 4277TIP3    H234391   3.106   5.715   0.556  0.1962  2.0414  0.3899
 4278TIP3   OH234392   0.704   4.431   0.044 -0.3468 -0.2031  0.3975
 4278TIP3    H134393   0.625   4.483   0.056 -0.6640 -0.1734 -1.5284
 4278TIP3    H234394   0.696   4.361   0.109 -1.2065  0.6470  1.2393
 4279TIP3   OH234395   2.715   5.169   1.707 -0.5382  0.2757 -0.1674
 4279TIP3    H134396   2.771   5.207   1.639  0.8126  0.1229  0.8178
 4279TIP3    H234397   2.701   5.241   1.769  2.4480 -0.7720  1.9734
 4280TIP3   OH234398   5.821   2.764   0.549  0.1717  0.4947  0.3073
 4280TIP3    H134399   5.816   2.744   0.456  0.6153 -0.6286  0.5004
 4280TIP3    H234400   5.902   2.816   0.558 -0.7449  2.0594 -0.1396
 4281TIP3   OH234401   0.183   4.544   1.079 -0.2517 -0.3629 -0.6029
 4281TIP3    H134402   0.127   4.619   1.100  0.2636 -0.2869  0.5807
 4281TIP3    H234403   0.242   4.536   1.154  1.2292 -0.5368 -1.7417
 4282TIP3   OH234404   0.276   5.852   7.614 -1.0863 -0.0957 -0.2287
 4282TIP3    H134405   0.227   5.794   7.556 -1.6260 -0.4248  0.5436
 4282TIP3    H234406   0.331   5.794   7.665 -1.8176  0.0265  0.7285
 4283TIP3   OH234407   6.194   6.858   7.515  0.6583  0.2582 -0.0495
 4283TIP3    H134408   6.258   6.913   7.470  2.1810 -1.7445 -0.4943
 4283TIP3    H234409   6.244   6.817   7.586 -0.9527  1.0055  1.5784
 4284TIP3   OH234410   3.873   6.878   1.402  0.0579  0.2810  0.6881
 4284TIP3    H134411   3.953   6.839   1.366 -0.6638  0.3678 -1.1199
 4284TIP3    H234412   3.885   6.972   1.393 -0.5147  0.2807 -0.3021
 4285TIP3   OH234413   3.622   2.435   8.333 -0.2079 -0.3627 -0.1525
 4285TIP3    H134414   3.644   2.360   8.388  1.1951 -1.0930 -1.6325
 4285TIP3    H234415   3.707   2.465   8.299 -0.7721  1.6615  0.0721
 4286TIP3   OH234416   4.666   6.800   1.061  0.2676  0.1062 -0.2286
 4286TIP3    H134417   4.648   6.875   1.119 -2.7317 -0.5495 -0.1342
 4286TIP3    H234418   4.745   6.760   1.098 -1.2806 -0.0960  3.3292
 4287TIP3   OH234419   6.386   6.916   0.209  0.1223  0.0089 -1.0530
 4287TIP3    H134420   6.447   6.990   0.201 -0.5947  0.5871 -1.1994
 4287TIP3    H234421   6.441   6.839   0.194  1.0968  0.4349  0.1589
 4288TIP3   OH234422   0.994   6.713   8.171  0.1944  0.0155  0.3048
 4288TIP3    H134423   0.984   6.713   8.266  1.1626 -1.4076  0.4431
 4288TIP3    H234424   0.924   6.769   8.139 -0.2801  0.3374  1.8452
 4289TIP3   OH234425   0.022   2.291   1.588 -0.0049  0.0278  0.0683
 4289TIP3    H134426   0.050   2.307   1.498  1.2405 -0.3080  0.3815
 4289TIP3    H234427   0.048   2.369   1.636 -0.9897  0.3628  0.0894
 4290TIP3   OH234428   4.689   1.943   8.072  0.3910 -0.1785  0.3345
 4290TIP3    H134429   4.630   1.917   8.142 -0.1314  0.2256  0.0471
 4290TIP3    H234430   4.714   1.861   8.029 -0.2433 -0.3187  0.2331
 4291TIP3   OH234431   5.485   1.388   1.749 -0.1463 -0.3294  0.3767
 4291TIP3    H134432   5.392   1.404   1.736 -0.5477 -2.0164  0.9584
 4291TIP3    H234433   5.527   1.419   1.669 -1.4301 -1.3079 -0.7004
 4292TIP3   OH234434   1.269   2.125   0.543  0.1786  0.4302 -0.0142
 4292TIP3    H134435   1.181   2.118   0.580  0.4142  1.7941  0.8636
 4292TIP3    H234436   1.316   2.181   0.605  1.6202 -0.1543 -0.5555
 4293TIP3   OH234437   4.929   3.180   7.307  0.0275  0.0779  0.0769
 4293TIP3    H134438   4.877   3.228   7.242 -1.1550  0.1081  1.0150
 4293TIP3    H234439   4.921   3.088   7.282 -1.9421 -0.0967  1.1792
 4294TIP3   OH234440   1.341   3.031   6.610 -0.6968 -1.0366 -0.9716
 4294TIP3    H134441   1.397   2.955   6.625 -1.1236 -1.2612 -0.4984
 4294TIP3    H234442   1.258   2.994   6.580 -0.8952 -0.7520 -0.7692
 4295TIP3   OH234443   2.169   6.946   1.671 -0.3478  0.2365 -0.0958
 4295TIP3    H134444   2.248   6.994   1.647  2.8576 -2.9569  2.9664
 4295TIP3    H234445   2.162   6.877   1.606  0.8690 -0.8620  0.8886
 4296TIP3   OH234446   1.717   3.363   7.456 -0.1840  0.2375 -0.4495
 4296TIP3    H134447   1.740   3.385   7.366 -1.5776 -0.1612 -0.9240
 4296TIP3    H234448   1.774   3.418   7.509 -0.1177  1.3137 -1.5823
 4297TIP3   OH234449   3.756   4.702   0.105  0.3374  0.1568 -0.1767
 4297TIP3    H134450   3.762   4.721   0.012  1.4395 -1.0884 -0.3825
 4297TIP3    H234451   3.847   4.699   0.135 -0.0067  1.3367  1.1298
 4298TIP3   OH234452   3.990   2.141   7.463 -0.1028 -0.1215 -0.0936
 4298TIP3    H134453   3.896   2.149   7.475 -0.1148 -0.9735  0.4508
 4298TIP3    H234454   4.001   2.077   7.392  0.0611  0.7118 -0.8392
 4299TIP3   OH234455   6.851   4.781   1.057 -0.6084 -0.0787 -0.8783
 4299TIP3    H134456   6.946   4.791   1.061 -0.2093 -2.2718 -2.8211
 4299TIP3    H234457   6.830   4.718   1.126 -0.8724  1.2233  0.2888
 4300TIP3   OH234458   3.534   5.625   0.388  0.5194 -0.3744  0.4273
 4300TIP3    H134459   3.544   5.692   0.455  0.9560  0.8160 -0.7897
 4300TIP3    H234460   3.550   5.671   0.305  0.4679 -1.8998 -0.4650
 4301TIP3   OH234461   3.153   2.669   8.218 -0.0126 -0.9684  0.2598
 4301TIP3    H134462   3.189   2.757   8.211  0.3062 -1.1929 -1.2558
 4301TIP3    H234463   3.072   2.680   8.267 -0.5961  0.3558 -0.9423
 4302TIP3   OH234464   1.052   4.467   0.198  0.7194  0.2586 -0.7080
 4302TIP3    H134465   1.132   4.439   0.242  0.0648 -1.4706 -0.5205
 4302TIP3    H234466   0.987   4.472   0.268  0.4951  0.9566 -0.9630
 4303TIP3   OH234467   2.758   0.189   0.530  0.1777  0.2703 -0.3253
 4303TIP3    H134468   2.779   0.101   0.563  3.5263  0.9007 -0.4133
 4303TIP3    H234469   2.674   0.178   0.485  0.1066 -2.7029  0.2825
 4304TIP3   OH234470   6.102   5.756   1.247  0.0232  0.0607  0.1267
 4304TIP3    H134471   6.046   5.805   1.308 -0.5736 -0.5220  0.0521
 4304TIP3    H234472   6.191   5.768   1.282 -0.5070 -2.4364  2.6978
 4305TIP3   OH234473   4.699   0.002   1.305  0.2374  0.4988 -0.0901
 4305TIP3    H134474   4.781   0.049   1.318  1.7200 -1.3304 -2.2043
 4305TIP3    H234475   4.695  -0.060   1.379 -1.1124  2.8557  1.9953
 4306TIP3   OH234476   0.084   0.741   8.234  0.4854 -0.0452 -0.0526
 4306TIP3    H134477   0.172   0.703   8.239  0.7540  0.5720 -0.0365
 4306TIP3    H234478   0.074   0.789   8.316  0.6285  0.9403 -0.6056
 4307TIP3   OH234479   1.811   4.061   0.377 -0.6588 -0.0478  0.2379
 4307TIP3    H134480   1.735   4.118   0.362 -0.7294 -0.8803 -3.2043
 4307TIP3    H234481   1.887   4.118   0.364 -0.7386 -0.4205 -2.4244
 4308TIP3   OH234482   4.501   6.016   7.536 -0.1424 -0.9827  0.5395
 4308TIP3    H134483   4.586   5.992   7.573  0.3382  0.4768  0.4408
 4308TIP3    H234484   4.452   6.053   7.609 -0.3313 -0.9310  0.3887
 4309TIP3   OH234485   1.962   4.428   7.913  0.0707  0.2048 -0.5060
 4309TIP3    H134486   2.021   4.403   7.984  0.0017 -1.1039 -0.8812
 4309TIP3    H234487   1.890   4.365   7.920 -1.2889  1.7394 -0.0771
 4310TIP3   OH234488   3.482   3.256   1.379 -0.2469  0.5970 -0.3077
 4310TIP3    H134489   3.553   3.316   1.404  0.7884 -0.8428  0.2968
 4310TIP3    H234490   3.410   3.279   1.437  0.8136 -0.0604  1.3308
 4311TIP3   OH234491   4.207   6.215   7.534 -0.4538 -0.5839  0.0376
 4311TIP3    H134492   4.242   6.246   7.617  2.5762 -1.0819 -0.9440
 4311TIP3    H234493   4.145   6.146   7.558  0.5348 -0.8815  1.9017
 4312TIP3   OH234494   2.938   6.589   1.436 -0.1521  0.6910  0.2761
 4312TIP3    H134495   3.008   6.525   1.449 -0.8889  0.0993  1.5592
 4312TIP3    H234496   2.948   6.618   1.345  1.1651 -0.0797  0.1545
 4313TIP3   OH234497   4.873   3.868   7.470 -0.4409  0.0355 -0.3040
 4313TIP3    H134498   4.895   3.776   7.486  0.5751  0.5131  1.2378
 4313TIP3    H234499   4.789   3.864   7.424 -0.6935 -1.6511  0.2040
 4314TIP3   OH234500   0.968   2.582   6.955  0.0350 -0.5268  0.7157
 4314TIP3    H134501   0.924   2.663   6.930 -1.5683 -1.1465  1.4138
 4314TIP3    H234502   0.970   2.531   6.874  1.1500  0.2174  0.2463
 4315TIP3   OH234503   1.257   5.380   8.087 -0.1771 -0.2730  0.0680
 4315TIP3    H134504   1.282   5.294   8.051 -1.3072 -1.0687  1.0945
 4315TIP3    H234505   1.188   5.360   8.149 -0.3821  1.4021  0.4134
 4316TIP3   OH234506   2.862   3.475   7.753  0.2152  0.3531 -0.1170
 4316TIP3    H134507   2.926   3.440   7.814 -0.4694  0.7682  0.8611
 4316TIP3    H234508   2.905   3.551   7.713  0.4098  0.5032  0.3737
 4317TIP3   OH234509   4.949   3.763   8.183 -0.6225  0.0725  0.5065
 4317TIP3    H134510   4.937   3.768   8.088 -0.1026 -1.2689  0.3396
 4317TIP3    H234511   4.979   3.850   8.209  1.1384 -0.0670 -0.8748
 4318TIP3   OH234512   0.545   1.924   2.169 -0.0294  0.0330  0.0596
 4318TIP3    H134513   0.540   1.927   2.074  0.1397  2.6079  0.0653
 4318TIP3    H234514   0.459   1.952   2.199  0.3363  0.5440  0.6479
 4319TIP3   OH234515   1.031   0.944   7.902 -0.7736 -0.3853  0.0603
 4319TIP3    H134516   1.051   0.851   7.913 -0.2840 -0.3063 -0.1306
 4319TIP3    H234517   1.040   0.960   7.808 -0.1835 -0.0038  0.1689
 4320TIP3   OH234518   5.369   0.141   1.531 -0.8075  0.2995 -0.0743
 4320TIP3    H134519   5.320   0.163   1.451 -1.7497  0.9716  0.6659
 4320TIP3    H234520   5.373   0.045   1.530  0.1800  0.3203 -1.4845
 4321TIP3   OH234521   5.221   2.172   0.919  0.1066 -0.1860  0.0024
 4321TIP3    H134522   5.254   2.168   1.009 -2.0531 -1.2564  0.8079
 4321TIP3    H234523   5.187   2.084   0.901 -3.1748  1.0093 -0.3255
 4322TIP3   OH234524   1.712   2.539   1.620  0.2295 -0.0339  0.8495
 4322TIP3    H134525   1.746   2.459   1.579 -1.3030 -0.8393  1.0554
 4322TIP3    H234526   1.662   2.508   1.695  2.7495  1.3959  3.2825
 4323TIP3   OH234527   6.439   0.821   1.336 -0.2384  0.3025 -0.6135
 4323TIP3    H134528   6.405   0.840   1.424 -0.5349 -0.2443 -0.6093
 4323TIP3    H234529   6.432   0.904   1.289 -0.4458  0.4973 -0.2412
 4324TIP3   OH234530   4.564   3.048   2.417  0.0828  0.0533 -0.5495
 4324TIP3    H134531   4.519   3.059   2.333  1.4849 -0.9337 -1.4870
 4324TIP3    H234532   4.642   3.104   2.409  0.3105 -0.1769  0.0146
 4325TIP3   OH234533   4.372   1.182   8.112  0.0342 -0.4632  0.4629
 4325TIP3    H134534   4.339   1.139   8.190  0.0024 -0.1255  0.6364
 4325TIP3    H234535   4.467   1.179   8.121  0.0334 -0.5385  0.4497
 4326TIP3   OH234536   6.649   1.116   0.159 -0.1060 -0.1487 -0.0676
 4326TIP3    H134537   6.667   1.167   0.238  2.2445 -1.7568  0.5381
 4326TIP3    H234538   6.719   1.140   0.098  0.9133 -2.3907  0.1459
 4327TIP3   OH234539   1.483   5.474   7.635  0.4153 -0.2977  0.8631
 4327TIP3    H134540   1.508   5.386   7.607  0.4487 -0.0537  0.0975
 4327TIP3    H234541   1.441   5.461   7.720 -1.7713 -1.3758 -0.2803
 4328TIP3   OH234542   0.211   4.205   7.324  0.5073 -0.4646  0.6148
 4328TIP3    H134543   0.267   4.140   7.282  0.6780 -1.2028  1.9270
 4328TIP3    H234544   0.130   4.203   7.273  1.1261 -0.4372 -0.4087
 4329TIP3   OH234545   6.209   6.268   0.533 -0.2565 -0.3388  0.0927
 4329TIP3    H134546   6.297   6.295   0.509 -0.6109  0.8737  0.0872
 4329TIP3    H234547   6.152   6.311   0.469 -1.0460  1.1434  1.7373
 4330TIP3   OH234548   0.777   4.215   2.116 -0.0636  0.2262 -0.4307
 4330TIP3    H134549   0.731   4.222   2.033 -2.0565 -2.8928  0.2382
 4330TIP3    H234550   0.848   4.154   2.100  0.8927  1.2654 -0.2873
 4331TIP3   OH234551   0.736   2.785   2.493 -0.3397 -0.3290 -0.0915
 4331TIP3    H134552   0.782   2.869   2.500  0.0691 -0.5716  0.2033
 4331TIP3    H234553   0.671   2.799   2.424 -1.0749  0.5904  0.7596
 4332TIP3   OH234554   4.680   4.783   0.327 -0.3474 -0.1856 -0.0840
 4332TIP3    H134555   4.666   4.746   0.414  3.0195 -0.1225  0.6271
 4332TIP3    H234556   4.666   4.709   0.267 -0.3986 -0.8597  0.7419
 4333TIP3   OH234557   1.357   0.403   6.861  0.4422  0.1337  0.3532
 4333TIP3    H134558   1.271   0.415   6.902  0.4782 -1.5520  1.0007
 4333TIP3    H234559   1.395   0.491   6.860 -1.3903  0.9733 -0.2170
 4334TIP3   OH234560   5.931   4.317   2.239  0.1867  0.0608  0.1386
 4334TIP3    H134561   5.986   4.332   2.316  0.1017  0.7054  0.0839
 4334TIP3    H234562   5.985   4.264   2.180  2.0568  3.2456 -1.2917
 4335TIP3   OH234563   0.434   6.864   8.231  0.6690 -0.4496  0.6946
 4335TIP3    H134564   0.446   6.900   8.144 -0.6429 -1.1989  0.1726
 4335TIP3    H234565   0.470   6.775   8.225  0.3313 -0.5971  0.8356
 4336TIP3   OH234566   4.723   4.777   7.572  0.7666 -0.1347 -0.2923
 4336TIP3    H134567   4.812   4.748   7.591  1.0870  0.4933 -0.7922
 4336TIP3    H234568   4.730   4.824   7.489  0.0028  0.0868 -0.2408
 4337TIP3   OH234569   1.954   0.297   0.496 -0.0202  0.6523  0.4535
 4337TIP3    H134570   1.955   0.203   0.477  0.7127  0.7909 -0.2516
 4337TIP3    H234571   1.951   0.301   0.591 -0.0815 -0.0893  0.4958
 4338TIP3   OH234572   3.940   3.138   0.535 -0.2547 -0.7504  0.1510
 4338TIP3    H134573   3.894   3.098   0.609 -0.0795 -1.2832 -0.0207
 4338TIP3    H234574   4.029   3.151   0.566 -0.5454  0.3951  0.5247
 4339TIP3   OH234575   6.795   6.768   8.124 -0.1979 -0.2217  0.2505
 4339TIP3    H134576   6.759   6.745   8.210  1.7266 -2.5553  0.5182
 4339TIP3    H234577   6.887   6.742   8.128  1.0162  3.1958 -1.2344
 4340TIP3   OH234578   4.357   6.272   0.547 -0.3774 -0.3986  0.3140
 4340TIP3    H134579   4.336   6.249   0.456 -1.5480  0.2988  0.3933
 4340TIP3    H234580   4.362   6.367   0.547 -1.6974 -0.3031  1.2424
 4341TIP3   OH234581   3.343   3.000   1.376  0.3957  0.0167 -0.5449
 4341TIP3    H134582   3.323   2.983   1.468 -3.0424  1.8547 -0.7874
 4341TIP3    H234583   3.339   2.915   1.333  0.1167 -0.6063  0.6910
 4342TIP3   OH234584   0.333   5.970   6.704  0.1880 -0.4216  0.2876
 4342TIP3    H134585   0.308   5.966   6.612 -1.8187 -1.7144  0.8089
 4342TIP3    H234586   0.424   5.940   6.705 -0.1367 -1.5906 -1.1629
 4343TIP3   OH234587   4.923   1.063   1.917 -0.1136 -0.6419 -0.0725
 4343TIP3    H134588   4.879   1.010   1.983  2.2289 -2.6064  0.0686
 4343TIP3    H234589   4.898   1.153   1.938 -0.4789 -1.2911  2.7272
 4344TIP3   OH234590   2.722   5.618   7.357  0.9249  0.0013 -0.2376
 4344TIP3    H134591   2.810   5.624   7.393  0.0606  2.9877  1.8085
 4344TIP3    H234592   2.664   5.635   7.431 -1.3929 -1.4740 -1.5897
 4345TIP3   OH234593   2.438   3.110   1.814  0.7954  0.2527  0.4470
 4345TIP3    H134594   2.435   3.199   1.776 -0.0603 -0.0027 -0.1146
 4345TIP3    H234595   2.449   3.053   1.738 -1.8680 -0.3431  0.4282
 4346TIP3   OH234596   1.098   3.292   7.395  0.3384  0.0160 -0.1930
 4346TIP3    H134597   1.064   3.375   7.363  2.0207  1.1072  0.6729
 4346TIP3    H234598   1.193   3.302   7.388  0.6259 -1.1812  1.4849
 4347TIP3   OH234599   5.237   5.764   7.749  0.3449 -0.1245 -0.0708
 4347TIP3    H134600   5.298   5.735   7.817 -0.3179 -0.2647  0.4646
 4347TIP3    H234601   5.180   5.826   7.793  1.2133  1.4080 -0.9940
 4348TIP3   OH234602   0.617   3.736   7.789  0.7733  0.3172 -0.4196
 4348TIP3    H134603   0.583   3.811   7.741  1.1648  0.7234 -0.0716
 4348TIP3    H234604   0.540   3.697   7.831  0.4172 -0.0673 -1.3886
 4349TIP3   OH234605   2.885   2.614   1.510  0.3404 -0.2242  0.0968
 4349TIP3    H134606   2.838   2.684   1.464 -2.0329 -1.7415  0.0411
 4349TIP3    H234607   2.906   2.651   1.596 -3.2971 -0.1697  1.1283
 4350TIP3   OH234608   4.296   0.162   1.534  0.5586  0.1565  0.1168
 4350TIP3    H134609   4.237   0.168   1.610 -1.9470  4.5040 -1.7579
 4350TIP3    H234610   4.342   0.246   1.533  1.0482 -0.0441 -2.6945
 4351TIP3   OH234611   2.993   5.450   2.072 -0.2217 -0.2530  0.0336
 4351TIP3    H134612   2.963   5.538   2.096 -0.1933  0.0277 -0.9392
 4351TIP3    H234613   3.058   5.428   2.140  0.2664  0.7532 -0.0896
 4352TIP3   OH234614   0.692   6.683   7.192 -0.1886  0.2867 -0.0028
 4352TIP3    H134615   0.634   6.758   7.183  0.3096  0.5749 -1.0050
 4352TIP3    H234616   0.649   6.626   7.256 -2.0175  0.0980 -1.3207
 4353TIP3   OH234617   3.706   5.981   8.191  0.6474  0.1882  0.1016
 4353TIP3    H134618   3.676   6.060   8.145 -3.5845 -1.9284 -1.2819
 4353TIP3    H234619   3.729   5.920   8.120 -0.3719 -1.2058  0.9188
 4354TIP3   OH234620   0.815   3.963   0.577  0.0655  0.2111  0.4427
 4354TIP3    H134621   0.801   3.873   0.548 -1.3074  0.0963  1.3919
 4354TIP3    H234622   0.885   3.957   0.642  1.3697  0.1300 -0.9185
 4355TIP3   OH234623   0.991   2.311   6.311 -0.1747 -0.0509  0.4715
 4355TIP3    H134624   1.081   2.343   6.303 -0.5555  0.7446 -1.2582
 4355TIP3    H234625   0.938   2.382   6.274 -1.2812 -1.5915 -1.0622
 4356TIP3   OH234626   1.918   6.213   0.767 -0.9001 -0.2267 -0.0747
 4356TIP3    H134627   1.926   6.307   0.784 -1.7551 -0.4372  1.7261
 4356TIP3    H234628   1.849   6.206   0.701  1.2943  0.5255 -2.6743
 4357TIP3   OH234629   0.549   4.332   6.251  0.2742 -0.8636  0.7114
 4357TIP3    H134630   0.556   4.402   6.315 -0.1603 -0.2293  0.0865
 4357TIP3    H234631   0.503   4.262   6.297  2.5626 -1.6206  2.0204
 4358TIP3   OH234632   6.668   0.962   2.051  0.2638  0.0626  0.7013
 4358TIP3    H134633   6.615   0.911   2.112 -0.7163  0.6912  0.3950
 4358TIP3    H234634   6.661   1.052   2.083 -0.4384  0.4361 -0.4410
 4359TIP3   OH234635   5.158   3.923   2.346 -0.0946 -0.4569 -0.0471
 4359TIP3    H134636   5.085   3.971   2.385 -1.8782 -2.1052 -1.1560
 4359TIP3    H234637   5.162   3.953   2.256 -1.0898 -2.1196 -0.6902
 4360TIP3   OH234638   0.851   5.903   7.060 -0.2383 -0.2517  1.0521
 4360TIP3    H134639   0.934   5.895   7.011 -1.5895 -0.3496 -1.4125
 4360TIP3    H234640   0.855   5.833   7.125  0.9117 -1.3912 -0.1686
 4361TIP3   OH234641   2.094   0.662   1.402 -0.1831  0.0303 -0.5967
 4361TIP3    H134642   2.071   0.648   1.494  0.5872  0.2849 -0.3547
 4361TIP3    H234643   2.190   0.659   1.401 -0.1957 -1.8318 -1.6840
 4362TIP3   OH234644   5.303   3.155   0.954 -0.3011  0.4616  0.6769
 4362TIP3    H134645   5.367   3.093   0.921 -1.3628  0.1492 -0.9282
 4362TIP3    H234646   5.341   3.188   1.035  1.0723 -0.9878  0.6762
 4363TIP3   OH234647   0.744   6.504   0.395  0.2339  0.0113  0.1268
 4363TIP3    H134648   0.736   6.413   0.366  0.0731  0.1750 -0.3584
 4363TIP3    H234649   0.836   6.526   0.381  0.3982 -0.2518  0.7808
 4364TIP3   OH234650   0.844   6.477   6.524 -0.5935  0.7359 -0.3102
 4364TIP3    H134651   0.884   6.445   6.443  1.6019 -2.3463  1.7543
 4364TIP3    H234652   0.751   6.459   6.513 -0.3413  0.2702 -2.0810
 4365TIP3   OH234653   2.544   0.932   0.355  0.3043  0.2599  0.1469
 4365TIP3    H134654   2.618   0.927   0.294 -0.4083  1.8638 -0.8969
 4365TIP3    H234655   2.469   0.899   0.304 -0.0839  0.5611  0.5199
 4366TIP3   OH234656   2.384   0.935   2.491  0.4140 -0.0189  0.4422
 4366TIP3    H134657   2.392   1.030   2.500 -0.1786 -0.1062  2.2868
 4366TIP3    H234658   2.304   0.912   2.538 -0.6713 -1.2180 -1.8307
 4367TIP3   OH234659   1.962   0.010   2.258  0.3703 -0.2746 -0.2271
 4367TIP3    H134660   2.055   0.005   2.279  0.7832 -1.4231 -2.1098
 4367TIP3    H234661   1.924  -0.067   2.300  0.0121  0.7780  1.4826
 4368TIP3   OH234662   2.192   0.283   7.651 -0.0038  0.0673  0.4395
 4368TIP3    H134663   2.243   0.220   7.599 -0.1966 -0.0361  0.3754
 4368TIP3    H234664   2.207   0.258   7.742  0.2417  0.1767  0.4307
 4369TIP3   OH234665   1.331   3.813   0.171  0.0305  0.0171  0.7968
 4369TIP3    H134666   1.294   3.750   0.232  0.9821 -0.5547  0.8035
 4369TIP3    H234667   1.264   3.823   0.104 -0.7365  0.1250  1.5681
 4370TIP3   OH234668   0.040   4.518   7.691  0.3665  0.0988 -0.1741
 4370TIP3    H134669  -0.016   4.586   7.730  0.5962  0.1474  0.0781
 4370TIP3    H234670   0.117   4.516   7.748  0.2880 -0.4906 -0.0907
 4371TIP3   OH234671   6.291   1.364   1.404 -0.2941 -0.2411 -0.7019
 4371TIP3    H134672   6.339   1.442   1.378 -0.6436 -0.0452 -0.7670
 4371TIP3    H234673   6.324   1.343   1.492  1.8202 -1.6482 -1.7417
 4372TIP3   OH234674   5.923   2.397   1.154 -0.5492 -0.1232 -0.5142
 4372TIP3    H134675   5.998   2.368   1.103 -1.1830 -1.4271 -0.7412
 4372TIP3    H234676   5.853   2.409   1.090 -1.2003 -1.2514 -0.0415
 4373TIP3   OH234677   6.302   1.558   8.000 -0.4944 -0.4248  0.2068
 4373TIP3    H134678   6.343   1.639   8.030 -0.3719 -0.6919  0.7869
 4373TIP3    H234679   6.271   1.516   8.081 -0.8037 -0.8193 -0.1137
 4374TIP3   OH234680   0.126   6.061   1.777 -0.1623 -0.8421  0.2372
 4374TIP3    H134681   0.194   6.123   1.749  0.0622 -0.4734  1.5385
 4374TIP3    H234682   0.148   5.979   1.732  1.1928 -0.7486  0.7014
 4375TIP3   OH234683   5.761   0.125   6.903 -0.2468  0.8261 -0.5466
 4375TIP3    H134684   5.814   0.063   6.953  0.4476  1.3961 -0.5502
 4375TIP3    H234685   5.680   0.078   6.883  0.5591 -0.3470 -1.1983
 4376TIP3   OH234686   0.796   4.145   7.726  1.6773  0.1058 -0.8116
 4376TIP3    H134687   0.738   4.139   7.803  2.6246 -1.6478 -0.1738
 4376TIP3    H234688   0.737   4.143   7.651  0.8271  0.0901 -0.1549
 4377TIP3   OH234689   1.588   6.011   7.117 -0.4836  0.3427  0.5901
 4377TIP3    H134690   1.587   6.022   7.022 -0.2441  0.5686  0.6128
 4377TIP3    H234691   1.591   6.100   7.152 -1.0597  0.2753  0.8190
 4378TIP3   OH234692   1.073   0.047   0.430 -0.2322  0.3473  0.0832
 4378TIP3    H134693   1.013   0.088   0.368 -0.7058 -2.6337 -1.6805
 4378TIP3    H234694   1.157   0.090   0.413 -1.1122  2.1549  0.0739
 4379TIP3   OH234695   3.528   5.027   7.330 -0.1839 -0.0760  0.0272
 4379TIP3    H134696   3.609   4.981   7.353  0.1828  0.6847  0.2896
 4379TIP3    H234697   3.472   4.959   7.292  0.4401 -0.6848  0.1704
 4380TIP3   OH234698   6.494   1.679   0.159  0.2206  0.1065  0.3508
 4380TIP3    H134699   6.502   1.618   0.086  1.4353  1.4368 -0.6886
 4380TIP3    H234700   6.409   1.721   0.146  0.2705  0.0749 -0.0831
 4381TIP3   OH234701   1.929   3.889   1.246 -0.4574  0.2819 -0.1515
 4381TIP3    H134702   1.865   3.871   1.177  0.4992 -0.0967 -0.9521
 4381TIP3    H234703   1.877   3.889   1.326 -1.0761 -3.0738 -0.3909
 4382TIP3   OH234704   6.564   1.557   7.384  0.3240 -0.5931 -0.6402
 4382TIP3    H134705   6.483   1.550   7.434  0.6674 -0.5451 -0.0594
 4382TIP3    H234706   6.537   1.589   7.298 -0.2711 -0.5933 -0.4577
 4383TIP3   OH234707   2.638   6.583   1.062  0.2833  0.5105  0.1621
 4383TIP3    H134708   2.697   6.584   1.137  0.7686  1.7196 -0.2002
 4383TIP3    H234709   2.648   6.670   1.023 -1.8271  0.8052  0.1589
 4384TIP3   OH234710   2.600   4.812   7.571  0.4838  0.1875  0.3688
 4384TIP3    H134711   2.645   4.772   7.497 -2.0414 -2.4042  0.0516
 4384TIP3    H234712   2.512   4.833   7.538 -0.8345 -1.3612  2.5903
 4385TIP3   OH234713   1.822   5.213   0.969 -0.3466 -0.3033  0.2096
 4385TIP3    H134714   1.851   5.124   0.953  0.5101  0.2881 -1.8992
 4385TIP3    H234715   1.883   5.248   1.034  0.0656 -0.8728  0.1291
 4386TIP3   OH234716   3.838   4.727   1.351 -0.7255  0.4488 -0.5565
 4386TIP3    H134717   3.901   4.674   1.303 -1.6565 -0.9691 -0.2895
 4386TIP3    H234718   3.874   4.815   1.350  1.7836 -0.4611  0.4351
 4387TIP3   OH234719   5.672   5.891   8.254 -0.3432 -0.0325 -0.2137
 4387TIP3    H134720   5.579   5.890   8.277 -0.1035 -2.2283  0.8527
 4387TIP3    H234721   5.684   5.816   8.196  0.8582 -0.0225 -0.0035
 4388TIP3   OH234722   4.469   4.426   6.805  0.2680  0.1965  0.0166
 4388TIP3    H134723   4.524   4.350   6.784  0.6669  0.3712  0.4205
 4388TIP3    H234724   4.462   4.473   6.722  2.4087  1.2476  0.3613
 4389TIP3   OH234725   1.765   1.585   1.446 -0.1199 -0.2360 -0.1535
 4389TIP3    H134726   1.693   1.523   1.463 -0.5329  0.1925 -0.3087
 4389TIP3    H234727   1.760   1.601   1.352 -0.6493  0.7936  0.0375
 4390TIP3   OH234728   2.910   3.779   2.315  0.3907  0.1269 -0.1824
 4390TIP3    H134729   2.928   3.718   2.244  1.7029  1.3832 -1.0010
 4390TIP3    H234730   2.826   3.818   2.293  0.4230 -0.0497 -0.6376
 4391TIP3   OH234731   0.786   3.146   1.207  0.6773  0.4928  0.1075
 4391TIP3    H134732   0.747   3.069   1.165  2.0021 -1.0248  1.4754
 4391TIP3    H234733   0.717   3.180   1.264 -0.1793  0.8160 -1.0906
 4392TIP3   OH234734   6.000   6.745   0.967 -0.3526  0.5532 -0.3139
 4392TIP3    H134735   5.907   6.765   0.964 -0.9317 -1.7776  0.1837
 4392TIP3    H234736   6.013   6.680   0.898  1.2667  2.0173 -1.4681
 4393TIP3   OH234737   5.656   6.779   1.937  0.2162 -0.4602 -0.3995
 4393TIP3    H134738   5.687   6.703   1.987  2.1995 -1.2900 -2.6582
 4393TIP3    H234739   5.680   6.854   1.992  1.5919 -1.3404  0.2898
 4394TIP3   OH234740   4.130   3.530   1.962  0.2939  0.4482  0.3217
 4394TIP3    H134741   4.139   3.455   2.021 -2.6601  0.8068  1.4440
 4394TIP3    H234742   4.165   3.604   2.012 -0.0057  0.3637  0.6619
 4395TIP3   OH234743   3.353   2.969   7.312 -0.5751  0.0864 -0.4139
 4395TIP3    H134744   3.324   2.878   7.309 -1.3097  0.2332  1.0425
 4395TIP3    H234745   3.447   2.965   7.296 -0.7937 -0.7937 -1.5769
 4396TIP3   OH234746   6.131   4.484   7.574 -0.1748  0.3727  0.0896
 4396TIP3    H134747   6.112   4.570   7.612  0.1701  0.2062  0.6403
 4396TIP3    H234748   6.221   4.491   7.542  0.8362 -0.5938  2.5094
 4397TIP3   OH234749   1.371   0.417   1.821 -0.1673 -0.3288  0.3034
 4397TIP3    H134750   1.449   0.361   1.826  0.4845  0.5753  0.5642
 4397TIP3    H234751   1.404   0.506   1.838 -1.2228  0.1002  0.1974
 4398TIP3   OH234752   4.242   1.322   6.742  1.1509 -0.4504 -0.5226
 4398TIP3    H134753   4.303   1.262   6.700  1.0124  0.3914 -1.9862
 4398TIP3    H234754   4.216   1.382   6.673  0.3953  0.5905  0.6222
 4399TIP3   OH234755   0.018   5.006   1.456 -0.1760  0.0587 -0.3658
 4399TIP3    H134756  -0.058   4.948   1.452 -0.0827 -0.1629  0.8354
 4399TIP3    H234757  -0.017   5.092   1.477  0.0590 -0.6020  3.4879
 4400TIP3   OH234758   3.503   3.696   7.372 -0.1513 -0.3189  0.0279
 4400TIP3    H134759   3.415   3.728   7.355  0.1668  0.5739 -0.0105
 4400TIP3    H234760   3.553   3.722   7.295  0.0481 -1.2324 -0.1611
 4401TIP3   OH234761   5.831   3.806   0.811 -0.1107 -0.3555  0.4649
 4401TIP3    H134762   5.838   3.860   0.890 -0.3260  1.5170 -0.7306
 4401TIP3    H234763   5.737   3.804   0.791  0.1301  1.1092 -0.9709
 4402TIP3   OH234764   1.553   5.714   7.524  0.3132  0.4605  0.3105
 4402TIP3    H134765   1.511   5.630   7.541 -1.9194  1.2613 -0.8004
 4402TIP3    H234766   1.620   5.694   7.458 -0.2796 -0.4469 -0.0436
 4403TIP3   OH234767   2.123   2.267   2.080 -0.1999 -0.0909  0.9012
 4403TIP3    H134768   2.033   2.267   2.112 -0.2687 -1.0107  0.7448
 4403TIP3    H234769   2.116   2.234   1.990  0.2370  0.3126  0.7166
 4404TIP3   OH234770   3.482   5.098   8.281  0.5949 -0.3219 -0.2473
 4404TIP3    H134771   3.441   5.088   8.195 -1.9594  0.3161  0.8170
 4404TIP3    H234772   3.463   5.015   8.326 -0.0452  0.1970  0.4515
 4405TIP3   OH234773   5.786   1.500   1.283 -0.2066 -0.1531  0.1371
 4405TIP3    H134774   5.823   1.413   1.299  0.6333  0.1972  0.1638
 4405TIP3    H234775   5.781   1.507   1.188  0.3519  0.0187  0.1172
 4406TIP3   OH234776   5.906   0.606   7.641 -0.2566 -0.0995  0.1785
 4406TIP3    H134777   5.972   0.669   7.611  1.1741 -1.2805  0.7228
 4406TIP3    H234778   5.874   0.566   7.561  0.0887  0.1004 -0.0659
 4407TIP3   OH234779   2.991   2.297   7.092  0.0360 -0.3005  0.2151
 4407TIP3    H134780   2.915   2.352   7.107 -0.6723 -0.7136 -1.6783
 4407TIP3    H234781   2.957   2.208   7.092  0.1878 -0.4211 -2.1897
 4408TIP3   OH234782   0.865   2.983   0.176 -0.5054  0.1904 -0.2339
 4408TIP3    H134783   0.791   2.939   0.218  0.4300  0.0937  1.3806
 4408TIP3    H234784   0.927   2.914   0.156 -0.9234  0.2266 -1.8944
 4409TIP3   OH234785   6.961   6.741   1.913  0.3729  0.4331 -0.4104
 4409TIP3    H134786   6.885   6.795   1.896 -0.1255  0.8772  2.5547
 4409TIP3    H234787   7.032   6.781   1.863 -0.7371  1.7379 -0.9716
 4410TIP3   OH234788   1.522   3.239   8.282  0.2264 -0.4296  0.5828
 4410TIP3    H134789   1.498   3.317   8.331 -0.6140 -0.6159  0.4734
 4410TIP3    H234790   1.444   3.184   8.284  0.9000 -1.4036  0.9130
 4411TIP3   OH234791   5.577   2.744   0.215 -0.3200  0.4779 -0.4329
 4411TIP3    H134792   5.660   2.790   0.218  0.8528 -1.4166 -1.7787
 4411TIP3    H234793   5.601   2.651   0.211 -2.5231 -0.1677 -0.0441
 4412TIP3   OH234794   4.518   3.974   0.755 -0.1737 -0.6073 -0.1792
 4412TIP3    H134795   4.567   4.031   0.814  0.8472 -1.0663 -0.5604
 4412TIP3    H234796   4.513   4.023   0.673 -1.2780 -0.1230  0.1590
 4413TIP3   OH234797   3.176   4.160   7.922 -0.3720  0.4019  0.0044
 4413TIP3    H134798   3.171   4.070   7.890 -0.1829  1.1480 -2.3031
 4413TIP3    H234799   3.106   4.166   7.987 -2.0696 -0.7677 -1.6048
 4414TIP3   OH234800   0.282   3.836   0.600  0.3972 -0.0382  0.1749
 4414TIP3    H134801   0.213   3.874   0.655  1.2512  2.4329 -0.3039
 4414TIP3    H234802   0.360   3.837   0.655  0.3151 -1.9217  0.3920
 4415TIP3   OH234803   3.075   3.513   1.817 -0.3689  0.0025 -0.0387
 4415TIP3    H134804   3.085   3.609   1.816  0.8211 -0.0934  0.2062
 4415TIP3    H234805   3.084   3.487   1.725  0.4172  0.0506  0.0140
 4416TIP3   OH234806   3.858   6.950   7.499 -0.4064  0.1218  0.6497
 4416TIP3    H134807   3.813   6.935   7.416 -0.9065 -0.3569  1.0030
 4416TIP3    H234808   3.802   7.012   7.545  0.3345  1.1031  0.2678
 4417TIP3   OH234809   1.476   2.819   8.063  0.0686  0.0318  0.0507
 4417TIP3    H134810   1.484   2.749   8.127 -1.1964 -0.5838 -0.4202
 4417TIP3    H234811   1.559   2.819   8.015  1.0481  0.5355  1.6791
 4418TIP3   OH234812   6.129   4.170   6.384  0.3294  0.7128 -0.2410
 4418TIP3    H134813   6.202   4.228   6.405  0.0997  1.2957 -1.0180
 4418TIP3    H234814   6.161   4.116   6.312 -0.1425  1.2835 -0.8986
 4419TIP3   OH234815   6.059   5.480   1.292 -0.2237  0.4850 -0.7031
 4419TIP3    H134816   6.087   5.510   1.379 -0.7243 -1.2107  0.0810
 4419TIP3    H234817   6.080   5.553   1.234  0.1812  1.6401  0.8270
 4420TIP3   OH234818   3.360   6.626   1.202  0.1445  0.2386  0.4701
 4420TIP3    H134819   3.411   6.579   1.136  0.2714 -0.7198  1.2196
 4420TIP3    H234820   3.424   6.677   1.251  0.6154 -1.6837  2.0195
 4421TIP3   OH234821   5.552   0.520   0.645 -0.2048  0.4826 -0.0689
 4421TIP3    H134822   5.488   0.480   0.585 -0.1633  0.7601 -0.2966
 4421TIP3    H234823   5.504   0.528   0.727  0.5195 -2.3718  0.7608
 4422TIP3   OH234824   0.093   3.861   1.775 -0.7713  0.4096  0.1264
 4422TIP3    H134825   0.097   3.828   1.686  0.6152  0.6980  0.0561
 4422TIP3    H234826   0.006   3.901   1.783 -1.1903 -0.2846 -0.8395
 4423TIP3   OH234827   2.035   4.679   0.289 -0.3423  0.2329 -0.1382
 4423TIP3    H134828   1.965   4.738   0.316 -2.0020 -0.1288 -3.1622
 4423TIP3    H234829   2.115   4.728   0.301 -1.3194  1.5620  1.2218
 4424TIP3   OH234830   3.538   0.262   1.316 -0.1336 -0.9098  0.1854
 4424TIP3    H134831   3.605   0.322   1.348 -1.0501 -0.7653  1.9625
 4424TIP3    H234832   3.577   0.222   1.238  2.3135 -1.3880  1.5476
 4425TIP3   OH234833   1.250   5.432   2.077 -0.2095 -0.3066  0.1062
 4425TIP3    H134834   1.344   5.432   2.056  0.4058  2.0803  2.3365
 4425TIP3    H234835   1.247   5.414   2.171 -1.6752  2.7193  0.7643
 4426TIP3   OH234836   0.410   0.859   0.385  0.3055 -0.3020 -0.0389
 4426TIP3    H134837   0.376   0.890   0.469 -0.6646 -1.0598 -0.1456
 4426TIP3    H234838   0.502   0.887   0.386  0.1201  0.3526  0.9475
 4427TIP3   OH234839   2.219   3.316   0.394  0.4786 -0.0051  0.5799
 4427TIP3    H134840   2.218   3.366   0.476 -2.4083  0.1163  0.5887
 4427TIP3    H234841   2.243   3.228   0.420 -1.9797 -0.3642  1.9394
 4428TIP3   OH234842   2.266   0.597   7.812 -0.3908  0.2348 -0.1185
 4428TIP3    H134843   2.346   0.547   7.830 -0.0519  0.8790  0.2310
 4428TIP3    H234844   2.262   0.602   7.716  0.9644  1.6571 -0.1603
 4429TIP3   OH234845   6.165   0.193   0.992 -0.4821 -0.2356 -0.0141
 4429TIP3    H134846   6.256   0.164   1.002 -0.5733 -0.1230  1.4373
 4429TIP3    H234847   6.113   0.115   1.009 -0.6717 -0.1814 -0.3404
 4430TIP3   OH234848   0.467   6.828   7.100 -0.0489 -0.1554  0.0361
 4430TIP3    H134849   0.379   6.866   7.105  0.4510  1.1780 -0.7767
 4430TIP3    H234850   0.497   6.850   7.012 -0.1692 -3.5392 -1.0062
 4431TIP3   OH234851   6.020   1.722   0.535  0.3685 -0.5923  0.2293
 4431TIP3    H134852   6.039   1.771   0.455  1.9525  0.7041  1.3337
 4431TIP3    H234853   6.053   1.634   0.517 -1.0052 -0.8755 -1.1774
 4432TIP3   OH234854   1.164   0.026   0.774  0.2975 -0.2321 -0.4730
 4432TIP3    H134855   1.208   0.024   0.859 -0.1884 -0.6226 -0.2228
 4432TIP3    H234856   1.077   0.063   0.793 -0.1770 -1.2363 -0.6089
 4433TIP3   OH234857   6.136   5.031   2.138 -0.1455 -0.0199  0.3033
 4433TIP3    H134858   6.067   5.027   2.070 -1.6620  2.7317  1.5174
 4433TIP3    H234859   6.165   5.122   2.137  2.1677 -0.6778  1.1953
 4434TIP3   OH234860   5.191   4.637   1.076  0.4508  0.1584 -0.0222
 4434TIP3    H134861   5.212   4.583   1.000 -1.9919 -0.0919 -0.6049
 4434TIP3    H234862   5.249   4.605   1.145  1.3098 -0.9941 -1.2325
 4435TIP3   OH234863   5.916   1.894   1.295 -0.4306  0.0225 -0.3953
 4435TIP3    H134864   5.889   1.984   1.310 -1.3652 -0.2258 -0.5401
 4435TIP3    H234865   5.940   1.891   1.202 -1.1032 -0.0405 -0.5760
 4436TIP3   OH234866   4.964   2.450   2.557  0.2226  0.4777 -0.0640
 4436TIP3    H134867   5.009   2.534   2.563 -0.2845  0.6974  1.1354
 4436TIP3    H234868   4.874   2.473   2.532  0.9619 -0.0416 -3.6558
 4437TIP3   OH234869   0.625   2.208   8.358  0.5707 -0.1534  0.9252
 4437TIP3    H134870   0.717   2.183   8.360  0.8759  0.1233 -2.6600
 4437TIP3    H234871   0.625   2.303   8.367  0.7157 -0.1005  0.4130
 4438TIP3   OH234872   1.357   2.137   7.716 -0.2160  0.1543  0.0572
 4438TIP3    H134873   1.380   2.145   7.623  0.1173  0.3461  0.1530
 4438TIP3    H234874   1.273   2.091   7.716  0.4590 -1.1620 -0.2878
 4439TIP3   OH234875   2.079   5.713   2.495  0.5592  0.6451 -0.8939
 4439TIP3    H134876   2.039   5.720   2.409  0.5649 -0.4917 -0.9956
 4439TIP3    H234877   2.055   5.795   2.539  1.2065  1.5880 -2.2330
 4440TIP3   OH234878   5.184   5.929   1.969 -1.2683 -0.0857  0.5194
 4440TIP3    H134879   5.152   5.851   1.924  1.1906 -0.2806 -1.0738
 4440TIP3    H234880   5.258   5.898   2.022  1.3977  1.3551 -2.0541
 4441TIP3   OH234881   4.626   6.220   7.402 -0.4083 -0.4264 -0.0154
 4441TIP3    H134882   4.585   6.297   7.441 -0.7391 -1.4864  1.8669
 4441TIP3    H234883   4.568   6.147   7.425  1.0206 -1.5512  0.2002
 4442TIP3   OH234884   6.277   4.947   7.333 -0.2866  0.3100  0.6307
 4442TIP3    H134885   6.278   5.038   7.306  1.4550  0.0920 -0.1804
 4442TIP3    H234886   6.217   4.904   7.272  1.4999  0.3284 -1.2149
 4443TIP3   OH234887   6.536   1.541   0.790 -0.2109 -0.2276 -0.3035
 4443TIP3    H134888   6.447   1.575   0.803 -0.3347 -0.7424  0.2460
 4443TIP3    H234889   6.585   1.576   0.864  0.2758  0.7918 -1.0811
 4444TIP3   OH234890   7.006   6.573   1.532  0.4543  0.1066 -0.3371
 4444TIP3    H134891   7.011   6.666   1.553 -1.1742 -0.0268  0.8181
 4444TIP3    H234892   6.998   6.570   1.437 -1.4825  1.2964 -0.2663
 4445TIP3   OH234893   5.928   6.961   1.778 -0.2849  0.1417 -0.3540
 4445TIP3    H134894   5.975   7.040   1.804 -0.0657  0.0881 -0.5823
 4445TIP3    H234895   5.864   6.991   1.715  0.0906  0.0761 -0.7709
 4446TIP3   OH234896   1.332   5.917   1.054  0.5326  0.2582 -0.2791
 4446TIP3    H134897   1.346   5.949   0.965  2.9838 -2.4059 -0.9917
 4446TIP3    H234898   1.397   5.964   1.106 -0.7991  1.7035  0.1437
 4447TIP3   OH234899   6.937   5.483   7.301 -0.3450  0.4310 -0.2405
 4447TIP3    H134900   6.937   5.461   7.208  1.4768  1.7818 -0.6175
 4447TIP3    H234901   6.861   5.541   7.312  0.4962  1.8220 -1.3528
 4448TIP3   OH234902   1.474   3.102   7.891  0.5703  0.1341 -0.8239
 4448TIP3    H134903   1.466   3.150   7.809 -1.3128 -2.7663 -2.4994
 4448TIP3    H234904   1.505   3.015   7.866 -1.3205 -1.2696  1.3045
 4449TIP3   OH234905   1.803   6.380   1.660  0.1694 -0.2785 -0.3097
 4449TIP3    H134906   1.743   6.330   1.605 -1.0316  1.7064 -0.8803
 4449TIP3    H234907   1.850   6.437   1.600 -0.4237  1.1908  0.5653
 4450TIP3   OH234908   2.201   5.588   8.335  0.0554 -0.3308  0.3397
 4450TIP3    H134909   2.109   5.590   8.310 -0.0092  1.1163  0.6120
 4450TIP3    H234910   2.201   5.549   8.423 -0.2431 -0.7677  0.1464
 4451TIP3   OH234911   3.219   5.396   0.098 -0.5196 -0.5175 -0.5328
 4451TIP3    H134912   3.156   5.464   0.122  0.3375  0.8326 -1.8349
 4451TIP3    H234913   3.175   5.344   0.031 -0.3105  0.3836 -1.3937
 4452TIP3   OH234914   5.254   3.562   7.744 -0.2162 -0.0868 -0.6802
 4452TIP3    H134915   5.224   3.478   7.778  0.1626 -0.0438 -0.2355
 4452TIP3    H234916   5.336   3.578   7.789 -0.3124  0.5514 -0.7267
 4453TIP3   OH234917   5.032   2.100   2.049  0.1208 -0.3903  0.2420
 4453TIP3    H134918   5.117   2.067   2.021  0.3046 -1.0259  1.4573
 4453TIP3    H234919   4.988   2.023   2.086 -2.4039 -0.9190 -3.4081
 4454TIP3   OH234920   0.676   4.838   0.330  0.4505  0.0486 -0.0143
 4454TIP3    H134921   0.690   4.903   0.261  1.1469  0.5476  0.5740
 4454TIP3    H234922   0.709   4.881   0.410  1.4437 -1.2178  0.2900
 4455TIP3   OH234923   3.215   2.365   7.567  0.0504 -0.1941  0.0511
 4455TIP3    H134924   3.247   2.421   7.638 -0.8392 -1.1725  1.2675
 4455TIP3    H234925   3.154   2.422   7.519  0.7963  0.5313 -0.0693
 4456TIP3   OH234926   0.115   4.276   1.017  0.1061 -0.6557  0.9337
 4456TIP3    H134927   0.142   4.360   1.053 -1.7607 -0.0724  1.0828
 4456TIP3    H234928   0.196   4.225   1.012  1.1829  0.9252  1.3982
 4457TIP3   OH234929   2.119   5.033   1.803 -0.3802  0.3356 -0.1411
 4457TIP3    H134930   2.154   5.009   1.717 -0.4600 -0.4425  0.0338
 4457TIP3    H234931   2.045   4.974   1.816  0.5968 -0.6733  1.1399
 4458TIP3   OH234932   0.903   1.201   0.649 -0.7920  0.1115 -0.4116
 4458TIP3    H134933   0.945   1.181   0.565 -0.5536 -3.2837  0.3572
 4458TIP3    H234934   0.810   1.205   0.628 -0.5292  3.3068 -1.3991
 4459TIP3   OH234935   5.239   3.013   7.115 -0.2152 -0.3309 -0.9296
 4459TIP3    H134936   5.200   2.991   7.031 -2.0573  2.2879 -0.8761
 4459TIP3    H234937   5.209   2.944   7.174 -2.1968 -0.1233 -1.6132
 4460TIP3   OH234938   1.618   2.129   0.339 -0.2771 -0.1958  0.4422
 4460TIP3    H134939   1.527   2.117   0.310 -0.5930 -0.7517  1.6041
 4460TIP3    H234940   1.614   2.204   0.398  0.3100  0.7331 -0.6425
 4461TIP3   OH234941   3.157   6.816   1.675 -0.2340 -0.1262 -0.5526
 4461TIP3    H134942   3.147   6.767   1.756  0.7369 -0.6413 -0.7265
 4461TIP3    H234943   3.068   6.839   1.649 -0.4859  2.7287  2.2488
 4462TIP3   OH234944   6.515   0.922   2.274 -0.0050  0.4954 -0.0350
 4462TIP3    H134945   6.528   0.894   2.364 -2.0409  0.3816  0.2780
 4462TIP3    H234946   6.439   0.872   2.244 -0.9441  2.3315 -0.9432
 4463TIP3   OH234947   1.332   4.828   0.583  0.0269  0.5222  0.1907
 4463TIP3    H134948   1.319   4.898   0.519  1.2927 -0.1578 -0.8467
 4463TIP3    H234949   1.278   4.854   0.658 -1.4989  1.3189 -1.1428
 4464TIP3   OH234950   2.928   2.003   0.768 -0.1704 -0.8798  0.2585
 4464TIP3    H134951   3.020   1.986   0.752  0.5123  1.1936  1.5531
 4464TIP3    H234952   2.907   2.080   0.714 -0.6403 -0.2813  1.2487
 4465TIP3   OH234953   3.227   0.046   1.577 -0.1881 -0.2583 -0.3228
 4465TIP3    H134954   3.220  -0.049   1.590 -0.2609 -0.3310 -0.8552
 4465TIP3    H234955   3.177   0.084   1.649 -0.5507 -0.6349 -0.3702
 4466TIP3   OH234956   2.015   2.274   6.765  0.2777 -0.4256  0.2577
 4466TIP3    H134957   1.984   2.338   6.701  1.0115 -0.4216 -0.1000
 4466TIP3    H234958   2.022   2.192   6.716 -0.1056 -0.6554  0.5769
 4467TIP3   OH234959   3.206   6.647   8.125 -0.2525  0.1140  0.1346
 4467TIP3    H134960   3.299   6.644   8.104 -0.2107 -1.3604  0.4218
 4467TIP3    H234961   3.181   6.738   8.109  1.2642  0.5751  0.2168
 4468TIP3   OH234962   5.090   0.330   1.555 -0.2947 -0.4624 -0.3119
 4468TIP3    H134963   5.034   0.257   1.582  0.5642 -1.4920 -1.1909
 4468TIP3    H234964   5.044   0.408   1.585 -1.4266 -1.3424  0.3430
 4469TIP3   OH234965   0.021   0.786   7.968  0.1296  0.3868  0.7266
 4469TIP3    H134966   0.054   0.795   8.057  0.0241 -0.0201  0.8102
 4469TIP3    H234967   0.019   0.875   7.933  1.0892  0.4417  0.8011
 4470TIP3   OH234968   4.823   6.257   8.233 -0.0595  0.2366 -0.1427
 4470TIP3    H134969   4.764   6.194   8.192  0.8259  0.1065 -1.2718
 4470TIP3    H234970   4.778   6.283   8.313 -1.0996 -0.7435 -0.3743
 4471TIP3   OH234971   5.356   6.664   2.599  0.1412  0.5053 -0.2576
 4471TIP3    H134972   5.378   6.745   2.554  3.0334  0.4687  0.8939
 4471TIP3    H234973   5.345   6.689   2.691 -2.7583  0.1144 -0.3944
 4472TIP3   OH234974   6.129   1.877   8.147  0.2743 -0.0424 -0.3698
 4472TIP3    H134975   6.123   1.965   8.110  0.3774  1.1758  2.3063
 4472TIP3    H234976   6.221   1.868   8.173  0.0348 -0.5217  0.3357
 4473TIP3   OH234977   0.943   6.868   0.116 -0.0401 -0.9950  0.2607
 4473TIP3    H134978   0.881   6.809   0.071 -1.1076  1.4877 -1.8083
 4473TIP3    H234979   0.898   6.894   0.196 -1.2588 -0.0934 -0.6801
 4474TIP3   OH234980   4.772   0.480   7.733 -0.3993 -0.5312 -0.2858
 4474TIP3    H134981   4.853   0.523   7.705  0.1437  0.5243  2.5762
 4474TIP3    H234982   4.801   0.396   7.770 -0.4918  0.0830  1.2415
 4475TIP3   OH234983   2.517   0.523   1.743  0.0536 -0.3999 -0.0858
 4475TIP3    H134984   2.567   0.596   1.707  0.0760 -0.6811 -0.6345
 4475TIP3    H234985   2.582   0.454   1.756 -0.1230 -0.6320 -0.4307
 4476TIP3   OH234986   4.329   4.639   8.134 -0.5720  0.5010 -0.0181
 4476TIP3    H134987   4.418   4.675   8.134  0.0395 -0.8922  1.4211
 4476TIP3    H234988   4.293   4.664   8.218 -0.8673 -0.4804  0.1569
 4477TIP3   OH234989   4.893   5.725   7.767  0.7115  0.3658 -0.2823
 4477TIP3    H134990   4.846   5.804   7.793  0.0515 -0.0203 -0.2832
 4477TIP3    H234991   4.896   5.671   7.846  3.3076  1.3957  0.4155
 4478TIP3   OH234992   6.807   6.140   0.421 -0.0050 -0.8985  0.1390
 4478TIP3    H134993   6.752   6.117   0.346 -0.0294 -2.3282  0.5637
 4478TIP3    H234994   6.806   6.236   0.423 -1.2885 -0.8698 -0.7248
 4479TIP3   OH234995   0.536   3.995   1.050 -0.5687  0.6230 -0.3920
 4479TIP3    H134996   0.592   4.015   1.125  2.5723 -2.0457 -1.7953
 4479TIP3    H234997   0.597   3.974   0.980 -3.3956 -0.7741 -2.6091
 4480TIP3   OH234998   0.314   0.279   0.397  0.0713  0.1354 -0.3430
 4480TIP3    H134999   0.359   0.202   0.364 -0.0795  0.4350 -1.3060
 4480TIP3    H235000   0.232   0.282   0.346 -2.3755 -1.8256  3.0346
 4481TIP3   OH235001   5.774   0.427   0.324  0.3905  0.1330  0.2166
 4481TIP3    H135002   5.705   0.481   0.285  0.0364 -0.8983 -0.6516
 4481TIP3    H235003   5.767   0.442   0.418 -0.9533  0.1492  0.1382
 4482TIP3   OH235004   2.728   2.394   1.782 -0.1122 -0.6125 -0.1785
 4482TIP3    H135005   2.651   2.395   1.725  0.1039 -0.5823 -0.4767
 4482TIP3    H235006   2.774   2.476   1.761 -1.1932  0.5581  1.6726
 4483TIP3   OH235007   3.685   5.544   6.365 -0.3904 -0.0586 -0.2453
 4483TIP3    H135008   3.625   5.479   6.400 -0.6938  0.4394  0.1762
 4483TIP3    H235009   3.638   5.627   6.375  0.2439  0.2963 -0.2050
 4484TIP3   OH235010   0.755   0.459   0.872  0.5383  0.0058 -0.3871
 4484TIP3    H135011   0.784   0.466   0.781 -0.3039 -2.2043 -0.8920
 4484TIP3    H235012   0.695   0.384   0.872 -2.4988  2.2013  1.2557
 4485TIP3   OH235013   4.753   6.702   6.550  0.0457 -0.2679  0.1642
 4485TIP3    H135014   4.664   6.695   6.517 -0.5672 -1.0393  1.8726
 4485TIP3    H235015   4.748   6.765   6.622  0.3606 -1.9830  1.7773
 4486TIP3   OH235016   0.607   6.989   1.617  0.1311 -0.0054  0.3358
 4486TIP3    H135017   0.570   7.002   1.529 -1.6692 -1.5562  0.8056
 4486TIP3    H235018   0.606   7.076   1.657 -1.8976  0.2461 -0.1429
 4487TIP3   OH235019   5.381   5.928   7.206  0.2799 -0.4755 -0.3793
 4487TIP3    H135020   5.309   5.914   7.268  2.1673  0.0964  2.0762
 4487TIP3    H235021   5.339   5.925   7.120 -2.5425 -0.9101  0.9018
 4488TIP3   OH235022   0.395   0.724   8.034 -0.3412 -0.6009 -0.1031
 4488TIP3    H135023   0.462   0.678   7.984  0.9773  1.2550 -0.1753
 4488TIP3    H235024   0.334   0.656   8.062  1.4158 -2.3416 -0.2807
 4489TIP3   OH235025   0.480   1.136   0.704 -0.5328 -0.1830 -0.4264
 4489TIP3    H135026   0.468   1.145   0.798 -1.0341  0.0387 -0.5065
 4489TIP3    H235027   0.550   1.197   0.682 -1.2904  0.7204 -0.3849
 4490TIP3   OH235028   6.147   4.769   0.113  0.3749 -0.3192  0.1449
 4490TIP3    H135029   6.229   4.720   0.104  0.0770 -1.0676  1.2231
 4490TIP3    H235030   6.173   4.852   0.153  0.9640  0.7372 -2.2391
 4491TIP3   OH235031   5.146   5.424   0.178  0.0113 -0.0642 -0.2651
 4491TIP3    H135032   5.151   5.330   0.160 -1.1924 -0.0162 -0.9187
 4491TIP3    H235033   5.231   5.445   0.217  0.2137 -1.4630  0.1142
 4492TIP3   OH235034   5.646   2.200   1.610 -0.3950 -0.2076 -0.0713
 4492TIP3    H135035   5.684   2.162   1.690  0.0218  0.1903 -0.0755
 4492TIP3    H235036   5.568   2.246   1.640 -0.4557 -0.3873  0.0500
 4493TIP3   OH235037   0.394   1.379   1.470 -0.2746  0.5798  0.2844
 4493TIP3    H135038   0.440   1.436   1.532  1.0238  0.7562 -0.8083
 4493TIP3    H235039   0.319   1.431   1.442 -0.0339  1.0875  0.5617
 4494TIP3   OH235040   3.943   3.240   2.377  0.5439  0.9247 -0.6791
 4494TIP3    H135041   3.859   3.195   2.365  1.0174  0.0043 -0.6547
 4494TIP3    H235042   3.919   3.331   2.394 -0.4859  0.5422  0.0531
 4495TIP3   OH235043   3.308   2.049   1.926 -0.7580  0.2562  0.3791
 4495TIP3    H135044   3.231   2.084   1.972 -0.0404  0.0165  1.8319
 4495TIP3    H235045   3.343   2.123   1.878 -1.3976  0.5775  0.3932
 4496TIP3   OH235046   5.705   0.190   1.796 -0.4457  0.2849  0.0726
 4496TIP3    H135047   5.647   0.266   1.794  0.0292  0.6389 -0.7831
 4496TIP3    H235048   5.793   0.226   1.785  0.0966 -0.1387  2.4439
 4497TIP3   OH235049   3.170   4.734   1.638 -0.9457 -0.3625 -0.3803
 4497TIP3    H135050   3.081   4.767   1.630 -1.7033 -0.8295  4.0612
 4497TIP3    H235051   3.162   4.640   1.623 -1.1458 -0.3703 -0.2285
 4498TIP3   OH235052   1.234   6.252   1.581  0.2427  0.2319 -0.5557
 4498TIP3    H135053   1.217   6.303   1.501  1.2451  0.5258 -0.5872
 4498TIP3    H235054   1.210   6.311   1.652  1.6013  0.8468 -0.5869
 4499TIP3   OH235055   6.760   4.993   7.849  0.4752  0.5291 -0.0003
 4499TIP3    H135056   6.754   4.902   7.876  0.4181 -0.4554 -2.9553
 4499TIP3    H235057   6.853   5.006   7.829  0.7562  1.6336  1.8223
 4500TIP3   OH235058   2.402   2.717   8.318  0.1226  0.2984 -0.3697
 4500TIP3    H135059   2.474   2.658   8.294 -0.1749  0.6070 -2.2122
 4500TIP3    H235060   2.440   2.805   8.312 -0.1056  0.4103 -0.2014
 4501TIP3   OH235061   0.349   1.061   1.195  0.2175  0.2811 -0.0143
 4501TIP3    H135062   0.266   1.034   1.156  1.4010 -1.3868 -1.5961
 4501TIP3    H235063   0.359   1.153   1.169 -1.5238  0.8137  1.0362
 4502TIP3   OH235064   0.303   4.722   0.591 -0.4129  0.3449  0.4953
 4502TIP3    H135065   0.319   4.694   0.681  1.3129  2.2326  0.8421
 4502TIP3    H235066   0.265   4.809   0.599 -2.3857 -0.3469 -0.6055
 4503TIP3   OH235067   3.292   1.588   1.165 -0.4789  0.5531  0.6243
 4503TIP3    H135068   3.200   1.562   1.156  0.0497 -0.7508 -2.5217
 4503TIP3    H235069   3.314   1.626   1.080  1.8621  1.0369  1.3816
 4504TIP3   OH235070   2.847   0.270   1.171 -0.0364 -0.1499  0.3925
 4504TIP3    H135071   2.892   0.348   1.139 -1.3870  1.0280  1.2185
 4504TIP3    H235072   2.789   0.246   1.098 -0.7730  0.6065  0.7037
 4505TIP3   OH235073   6.763   5.750   6.898  0.0565  0.5249  0.2992
 4505TIP3    H135074   6.800   5.760   6.986 -0.8700 -1.1318  0.9168
 4505TIP3    H235075   6.678   5.709   6.912 -0.4357  0.9311 -1.3318
 4506TIP3   OH235076   2.946   2.635   0.049 -0.2537 -0.2342  0.1603
 4506TIP3    H135077   2.880   2.673   0.106  0.0192 -0.3402  0.5527
 4506TIP3    H235078   3.020   2.615   0.107  1.2756  2.4519 -0.6612
 4507TIP3   OH235079   1.721   1.247   2.212  0.3740  0.6799  0.0587
 4507TIP3    H135080   1.697   1.339   2.222 -2.6912  0.4156 -3.0643
 4507TIP3    H235081   1.797   1.248   2.153  1.3952  1.1819  1.3364
 4508TIP3   OH235082   4.938   4.432   0.277  0.3840  0.3519  0.3110
 4508TIP3    H135083   4.900   4.507   0.230 -2.1852  0.1622  1.8693
 4508TIP3    H235084   5.016   4.409   0.227 -0.4089  2.1708 -1.9460
 4509TIP3   OH235085   6.307   3.404   7.950  0.3327  0.8416 -0.1752
 4509TIP3    H135086   6.350   3.326   7.914 -0.2702  0.8498 -0.9445
 4509TIP3    H235087   6.279   3.454   7.873 -1.9302  0.3447  0.2269
 4510TIP3   OH235088   5.919   1.858   1.026 -0.0296  0.4465  0.8041
 4510TIP3    H135089   5.954   1.788   0.970 -2.1811 -0.3789  0.4036
 4510TIP3    H235090   5.883   1.921   0.964  1.2963  1.6428  1.1890
 4511TIP3   OH235091   1.348   0.202   8.260  0.2492  0.1380 -0.2836
 4511TIP3    H135092   1.280   0.177   8.322  0.8720  0.8107  0.6947
 4511TIP3    H235093   1.410   0.253   8.312  0.5426  1.1253 -1.5596
 4512TIP3   OH235094   4.288   5.381   1.415  0.0641  0.2980 -0.2219
 4512TIP3    H135095   4.381   5.397   1.433  0.0510  1.2601 -0.9262
 4512TIP3    H235096   4.242   5.436   1.479 -0.0598 -1.3279  1.1424
 4513TIP3   OH235097   2.373   6.658   1.201 -0.1944  0.1791  0.7779
 4513TIP3    H135098   2.459   6.615   1.203 -1.2500 -2.0408  1.4339
 4513TIP3    H235099   2.363   6.688   1.110  0.9315 -0.2272  0.5061
 4514TIP3   OH235100   2.909   1.225   8.347  0.4591 -0.2691  0.2463
 4514TIP3    H135101   2.860   1.256   8.423  2.1445 -0.1955  1.3393
 4514TIP3    H235102   2.994   1.199   8.382  1.5947  0.5987 -1.7422
 4515TIP3   OH235103   0.425   2.289   2.296  0.1977 -0.0453  0.1651
 4515TIP3    H135104   0.499   2.243   2.335  0.8937  0.5993 -0.3649
 4515TIP3    H235105   0.446   2.294   2.203  0.5096  1.9564  0.2881
 4516TIP3   OH235106   6.988   2.257   7.803  0.5371  0.4122  0.0619
 4516TIP3    H135107   7.017   2.178   7.757  0.3700  0.3993 -0.0223
 4516TIP3    H235108   7.058   2.321   7.785  0.0811  0.6632 -0.9163
 4517TIP3   OH235109   1.510   1.366   2.821 -0.1193  0.1320  0.0532
 4517TIP3    H135110   1.594   1.411   2.811  0.0493  0.1856  1.5491
 4517TIP3    H235111   1.472   1.404   2.900 -1.8406  0.5241 -0.9076
 4518TIP3   OH235112   4.196   1.133   1.593  0.5458 -0.4486 -0.0638
 4518TIP3    H135113   4.238   1.198   1.536  0.9392 -0.3092  0.3798
 4518TIP3    H235114   4.255   1.126   1.668  0.3335 -1.0713  0.0465
 4519TIP3   OH235115   6.277   6.653   1.376  0.2408  0.2907 -0.2435
 4519TIP3    H135116   6.366   6.673   1.406  1.3182 -2.0378 -1.6341
 4519TIP3    H235117   6.287   6.575   1.322 -2.5094  0.6503 -1.4247
 4520TIP3   OH235118   0.709   6.134   0.713 -1.0375  0.5163  0.6645
 4520TIP3    H135119   0.789   6.177   0.744 -1.2703  0.4755  1.3364
 4520TIP3    H235120   0.727   6.040   0.724 -0.7165  0.4493 -0.3400
 4521TIP3   OH235121   0.116   4.779   1.265 -0.9065  0.2183  0.6744
 4521TIP3    H135122   0.148   4.758   1.353  0.6619  0.2753  0.1431
 4521TIP3    H235123   0.119   4.874   1.261  0.7013  0.1729 -0.0002
 4522TIP3   OH235124   5.450   5.996   0.891 -0.0760 -0.1413 -0.1641
 4522TIP3    H135125   5.447   6.071   0.951 -1.0349 -0.8912  0.7531
 4522TIP3    H235126   5.543   5.982   0.875  0.2106  0.0011  1.2681
 4523TIP3   OH235127   2.563   4.580   8.310  0.8388  0.0908 -0.5294
 4523TIP3    H135128   2.492   4.518   8.289 -0.8945  1.7381  0.1938
 4523TIP3    H235129   2.551   4.651   8.248 -0.5238  2.1148  1.8667
 4524TIP3   OH235130   1.801   5.626   0.372 -0.1036 -0.0004 -0.1433
 4524TIP3    H135131   1.880   5.640   0.423 -0.3541  1.1814 -0.0306
 4524TIP3    H235132   1.832   5.602   0.285  0.4315  1.3624 -0.3604
 4525TIP3   OH235133   1.677   2.909   1.575 -0.2921  0.4220  0.6686
 4525TIP3    H135134   1.592   2.883   1.539  0.1614 -0.6622  0.3289
 4525TIP3    H235135   1.735   2.910   1.498  0.2076  0.2254  1.0407
 4526TIP3   OH235136   6.206   6.521   1.774  0.0586 -0.0893 -0.1346
 4526TIP3    H135137   6.290   6.528   1.727  0.4749  3.0706  0.8321
 4526TIP3    H235138   6.180   6.612   1.789 -2.3965 -0.9941  1.6809
 4527TIP3   OH235139   2.649   2.251   2.112 -0.3237 -0.2498  0.8133
 4527TIP3    H135140   2.677   2.242   2.021  0.3343  0.1104  0.9744
 4527TIP3    H235141   2.554   2.265   2.106 -0.0693  1.3679  0.0714
 4528TIP3   OH235142   1.950   2.881   8.077 -0.5153 -0.4069  0.2948
 4528TIP3    H135143   1.891   2.904   8.149 -1.2004 -0.8822 -0.0933
 4528TIP3    H235144   2.034   2.918   8.101 -0.9392  0.1516  0.9465
 4529TIP3   OH235145   2.378   2.237   2.642  0.4958  0.2561  0.3464
 4529TIP3    H135146   2.345   2.237   2.732  1.8938 -0.2929  0.8963
 4529TIP3    H235147   2.388   2.145   2.620  0.0875  0.3840 -0.4151
 4530TIP3   OH235148   2.104   0.555   1.174  0.0198 -0.7114  0.0727
 4530TIP3    H135149   2.073   0.600   1.253 -2.2723 -0.5215 -0.8712
 4530TIP3    H235150   2.055   0.473   1.173  1.5836 -1.6917 -0.0859
 4531TIP3   OH235151   4.862   5.633   0.718 -0.0580 -0.1258  0.2427
 4531TIP3    H135152   4.954   5.614   0.702  0.4003  1.5841  0.6776
 4531TIP3    H235153   4.820   5.620   0.632  0.4171 -1.7074  0.2309
 4532TIP3   OH235154   2.370   1.500   1.627  0.2932 -0.3667  0.4590
 4532TIP3    H135155   2.300   1.437   1.608  1.7321 -1.6187 -0.9864
 4532TIP3    H235156   2.404   1.473   1.712  0.5838 -1.2741  0.0666
 4533TIP3   OH235157   3.897   3.915   1.928 -0.3326  0.0592  0.1447
 4533TIP3    H135158   3.879   3.824   1.906 -0.7887  0.7311 -2.8128
 4533TIP3    H235159   3.993   3.923   1.922  0.0221 -0.7497  3.2398
 4534TIP3   OH235160   0.061   0.868   7.171 -0.4572  0.3236 -0.2793
 4534TIP3    H135161  -0.028   0.901   7.181  0.2226  3.0548 -2.0927
 4534TIP3    H235162   0.116   0.947   7.169  2.1191 -1.2727  1.3554
 4535TIP3   OH235163   5.699   4.380   7.475  0.2476 -0.0447  0.5604
 4535TIP3    H135164   5.650   4.462   7.485 -1.2173 -0.7780 -0.1796
 4535TIP3    H235165   5.677   4.351   7.386  3.3866  0.3927 -0.5015
 4536TIP3   OH235166   6.114   2.876   0.819 -0.3766  0.0483 -0.2646
 4536TIP3    H135167   6.064   2.796   0.834 -2.4259  1.1646 -0.8126
 4536TIP3    H235168   6.182   2.875   0.886 -0.1481 -2.2846 -0.4737
 4537TIP3   OH235169   4.824   1.846   2.864 -0.2006  0.3312  0.0032
 4537TIP3    H135170   4.914   1.826   2.839  0.1279  0.4559  1.0506
 4537TIP3    H235171   4.780   1.761   2.865 -1.1138  0.5504 -4.1201
 4538TIP3   OH235172   3.776   5.576   0.129  0.1173 -0.5809 -0.3770
 4538TIP3    H135173   3.716   5.568   0.054 -1.5951 -0.1773  0.8966
 4538TIP3    H235174   3.832   5.651   0.107 -0.9510  0.0968 -0.8657
 4539TIP3   OH235175   3.628   6.876   0.371 -0.0189  0.3121 -0.1684
 4539TIP3    H135176   3.677   6.933   0.431 -1.1585  0.8694  0.2691
 4539TIP3    H235177   3.585   6.936   0.311 -0.9831 -0.0911  0.1011
 4540TIP3   OH235178   6.090   6.050   7.050 -0.0219 -0.4283  0.2756
 4540TIP3    H135179   6.173   6.004   7.034  0.6186  0.3786  1.1055
 4540TIP3    H235180   6.061   6.018   7.135  0.5276  0.7857  0.9500
 4541TIP3   OH235181   4.013   5.928   0.448  0.1504  0.0611  0.1664
 4541TIP3    H135182   3.943   5.984   0.415  0.4201  0.4217  0.1979
 4541TIP3    H235183   4.014   5.853   0.388  1.2622  1.1600 -1.2483
 4542TIP3   OH235184   2.550   0.551   8.227 -0.1563  0.1935 -0.0291
 4542TIP3    H135185   2.569   0.596   8.144 -0.6194 -2.2146 -1.5511
 4542TIP3    H235186   2.458   0.569   8.243 -0.7428 -1.3034 -1.4326
 4543TIP3   OH235187   3.174   0.596   7.671  0.1854 -0.3998  0.7827
 4543TIP3    H135188   3.154   0.526   7.608 -0.2548 -1.0162  1.5900
 4543TIP3    H235189   3.240   0.558   7.729  0.3191  0.0379  0.9184
 4544TIP3   OH235190   5.791   5.869   0.166  0.3649  0.2032  0.6254
 4544TIP3    H135191   5.851   5.800   0.139 -0.4713 -1.0148  1.7342
 4544TIP3    H235192   5.809   5.942   0.107 -0.2309 -1.7224 -2.0797
 4545TIP3   OH235193   6.602   5.481   0.085  0.4658 -0.2273  0.9675
 4545TIP3    H135194   6.560   5.407   0.043 -0.4309  1.1524 -0.6817
 4545TIP3    H235195   6.530   5.536   0.115  1.0998  0.4691  1.2541
 4546TIP3   OH235196   2.895   4.824   0.541 -0.1876 -0.3515  0.0357
 4546TIP3    H135197   2.830   4.893   0.544 -1.5824 -1.6057  0.1152
 4546TIP3    H235198   2.977   4.866   0.567 -1.1878  1.0126  1.1214
 4547TIP3   OH235199   1.767   6.303   7.413  0.4517  0.1078 -0.3422
 4547TIP3    H135200   1.810   6.255   7.483 -1.2458 -0.4681  0.3683
 4547TIP3    H235201   1.789   6.395   7.428  0.7107 -0.0934  0.5046
 4548TIP3   OH235202   5.509   6.987   7.427  0.5887 -0.3561 -0.1720
 4548TIP3    H135203   5.485   6.907   7.379  1.2248 -0.6065 -0.0873
 4548TIP3    H235204   5.476   6.972   7.516  0.6689 -0.5140 -0.1671
 4549TIP3   OH235205   0.128   6.230   7.538  0.0719  0.0790  0.1627
 4549TIP3    H135206   0.178   6.193   7.611 -0.1255  1.0586  0.8085
 4549TIP3    H235207   0.097   6.153   7.489  0.0966 -0.5910  1.1742
 4550TIP3   OH235208   5.485   1.285   1.009 -0.2038 -0.3593  0.1815
 4550TIP3    H135209   5.391   1.292   0.994 -0.0601 -1.4624 -1.4794
 4550TIP3    H235210   5.525   1.324   0.932  0.6699 -1.7151 -0.0836
 4551TIP3   OH235211   6.091   0.190   0.644 -0.0120  0.5572 -0.0660
 4551TIP3    H135212   6.089   0.095   0.638  1.4888  0.4147  1.2450
 4551TIP3    H235213   6.074   0.209   0.736  0.2330  1.5321 -0.2082
 4552TIP3   OH235214   1.271   5.021   0.393 -0.4305  0.2959  0.7964
 4552TIP3    H135215   1.316   5.086   0.447  1.1845 -0.0693 -0.0592
 4552TIP3    H235216   1.189   5.063   0.368  0.3708  1.8286  0.6415
 4553TIP3   OH235217   3.150   1.247   8.121  0.9527  1.4948  0.4133
 4553TIP3    H135218   3.241   1.272   8.131  2.0753 -2.2599  1.3083
 4553TIP3    H235219   3.118   1.235   8.210  0.6701 -0.4183  0.0962
 4554TIP3   OH235220   0.238   5.574   6.508 -0.1144  0.0437 -0.0112
 4554TIP3    H135221   0.159   5.531   6.474  1.0436  0.3432 -3.5127
 4554TIP3    H235222   0.212   5.665   6.518 -0.4469 -0.0082 -0.3518
 4555TIP3   OH235223   5.111   5.849   1.284 -0.8641 -0.6389  0.2222
 4555TIP3    H135224   5.074   5.763   1.262 -0.1271 -1.0759  0.6332
 4555TIP3    H235225   5.162   5.873   1.206  0.4616 -1.4614  0.7920
 4556TIP3   OH235226   5.447   2.353   0.333  0.0447  0.4336  0.2873
 4556TIP3    H135227   5.406   2.427   0.378 -0.8143  0.8550 -1.1390
 4556TIP3    H235228   5.373   2.306   0.293  0.3194 -2.3398  2.7271
 4557TIP3   OH235229   4.114   6.876   0.829  0.1265  0.2170 -0.7494
 4557TIP3    H135230   4.138   6.798   0.879 -0.1393  0.6076  0.0005
 4557TIP3    H235231   4.145   6.858   0.740 -1.7118 -1.5984 -1.1035
 4558TIP3   OH235232   4.393   1.253   1.058  0.0048  0.3350  0.8262
 4558TIP3    H135233   4.399   1.160   1.037 -0.3339  0.3028  0.8518
 4558TIP3    H235234   4.302   1.277   1.035 -0.8804 -0.0469  3.5808
 4559TIP3   OH235235   2.694   5.174   7.562  0.1440  0.4295  0.1445
 4559TIP3    H135236   2.602   5.196   7.545  0.0189  0.9851  1.4573
 4559TIP3    H235237   2.722   5.128   7.483 -1.8561 -1.5672  0.4694
 4560TIP3   OH235238   0.337   0.156   0.678  0.2928  0.3120  0.4158
 4560TIP3    H135239   0.252   0.133   0.716  0.1110  1.7192  0.9161
 4560TIP3    H235240   0.320   0.235   0.626  1.5135  1.3713  1.5475
 4561TIP3   OH235241   6.368   0.580   1.228  0.1275 -0.2099 -0.4861
 4561TIP3    H135242   6.404   0.669   1.235  1.2771 -0.5566 -1.5296
 4561TIP3    H235243   6.330   0.563   1.313 -1.3132  1.7775 -0.6481
 4562TIP3   OH235244   3.884   2.358   0.534 -0.5256 -0.2047  0.1396
 4562TIP3    H135245   3.924   2.396   0.456  0.8883  0.7565  1.2909
 4562TIP3    H235246   3.938   2.281   0.553 -0.1126  0.2598  0.8606
 4563TIP3   OH235247   6.163   5.017   6.970 -0.0438  0.2439  0.2659
 4563TIP3    H135248   6.255   4.991   6.963  0.5468  2.0728  0.6401
 4563TIP3    H235249   6.114   4.939   6.943  1.6077 -0.6679 -0.2695
 4564TIP3   OH235250   5.326   4.270   7.415  0.3158  0.7751  0.0584
 4564TIP3    H135251   5.250   4.293   7.361  0.1730  0.5443  0.1575
 4564TIP3    H235252   5.385   4.225   7.355  1.4065  2.9474 -0.5891
 4565TIP3   OH235253   2.030   5.281   1.150 -0.3578  0.2785 -0.2821
 4565TIP3    H135254   2.069   5.353   1.100 -0.9263 -0.8501 -2.4581
 4565TIP3    H235255   2.099   5.215   1.154 -0.2897  0.3868  0.5396
 4566TIP3   OH235256   4.745   4.999   8.098 -0.1084  0.2062 -0.0814
 4566TIP3    H135257   4.726   4.990   8.004  0.3351  0.3664 -0.1908
 4566TIP3    H235258   4.790   5.083   8.105 -0.4470  0.3520  0.3251
 4567TIP3   OH235259   1.575   3.639   0.128  0.2100  0.1372 -0.5688
 4567TIP3    H135260   1.509   3.705   0.149  0.4323 -0.2881  1.6465
 4567TIP3    H235261   1.524   3.566   0.091 -0.3976  0.3753 -0.2244
 4568TIP3   OH235262   0.757   0.900   0.644 -0.2258  0.2525  0.1909
 4568TIP3    H135263   0.674   0.852   0.651 -0.7486  0.9546 -0.8621
 4568TIP3    H235264   0.792   0.900   0.733 -2.4827  1.8585  1.1759
 4569TIP3   OH235265   6.959   0.748   0.752  0.1433  0.8960 -0.0257
 4569TIP3    H135266   7.007   0.763   0.833 -0.1025 -0.3655  0.3718
 4569TIP3    H235267   6.894   0.819   0.749 -1.1660 -0.1421  1.9232
 4570TIP3   OH235268   2.366   6.500   6.745 -0.6343 -0.3923  0.8083
 4570TIP3    H135269   2.457   6.527   6.737 -0.1916 -2.0008  0.0035
 4570TIP3    H235270   2.326   6.522   6.661 -0.7783 -0.4123  0.8695
 4571TIP3   OH235271   1.996   2.457   8.009  0.1442 -0.3620 -0.7982
 4571TIP3    H135272   2.029   2.368   8.000 -0.8015 -0.7335 -0.6285
 4571TIP3    H235273   2.067   2.504   8.053  0.3122 -1.2295 -0.1124
 4572TIP3   OH235274   4.256   1.966   6.409 -0.6674  0.4780 -0.5126
 4572TIP3    H135275   4.277   2.016   6.488 -2.1743  0.4395 -0.0717
 4572TIP3    H235276   4.325   1.899   6.404 -1.0915 -0.1453  1.3176
 4573TIP3   OH235277   4.407   3.739   1.775 -0.6036  0.1072 -0.0562
 4573TIP3    H135278   4.450   3.761   1.692  0.7777  2.0632  1.0859
 4573TIP3    H235279   4.316   3.764   1.762 -0.3428  0.6567 -0.8963
 4574TIP3   OH235280   1.020   0.750   0.594 -0.0536 -0.1278  0.0879
 4574TIP3    H135281   1.039   0.705   0.677 -1.1656 -0.8838 -0.0430
 4574TIP3    H235282   1.015   0.842   0.617 -0.7376 -0.3645  0.9545
 4575TIP3   OH235283   6.614   6.735   1.281  0.0408  0.3626  0.1113
 4575TIP3    H135284   6.661   6.655   1.305  2.1251  0.6901 -2.4548
 4575TIP3    H235285   6.605   6.783   1.363 -0.6512 -2.1123  1.6080
 4576TIP3   OH235286   6.861   1.163   8.315 -0.3475 -0.2287  0.4655
 4576TIP3    H135287   6.827   1.078   8.286  0.3873 -1.2453  2.3913
 4576TIP3    H235288   6.956   1.153   8.309 -0.2115 -0.0813  2.0428
 4577TIP3   OH235289   1.261   3.137   0.119  0.4152 -0.0785 -0.1058
 4577TIP3    H135290   1.303   3.074   0.061 -0.7417 -0.8566 -0.1352
 4577TIP3    H235291   1.289   3.110   0.207  0.8540  0.0889 -0.1919
 4578TIP3   OH235292   6.673   5.784   1.636  0.3556 -0.0401  0.9683
 4578TIP3    H135293   6.766   5.772   1.655  0.3453 -2.3645 -0.1244
 4578TIP3    H235294   6.643   5.847   1.702  2.5158  0.1697  1.8260
 4579TIP3   OH235295   6.065   6.738   1.866 -0.2545  0.1981  0.0501
 4579TIP3    H135296   6.118   6.764   1.942 -0.3912  0.0885  0.1829
 4579TIP3    H235297   6.014   6.816   1.845 -0.6673  0.0385  0.4502
 4580TIP3   OH235298   1.155   5.249   6.935 -0.0735  0.0738 -0.2094
 4580TIP3    H135299   1.094   5.322   6.944  0.9100  0.6564  2.8474
 4580TIP3    H235300   1.127   5.186   7.001  0.6946 -1.1354 -0.9954
 4581TIP3   OH235301   5.978   5.336   8.343  0.5029  0.4921 -0.4516
 4581TIP3    H135302   5.928   5.364   8.420  1.7008  1.5927 -0.0349
 4581TIP3    H235303   6.040   5.271   8.376  0.6703  0.5871 -0.5749
 4582TIP3   OH235304   0.807   3.947   8.222  0.6969  0.0239 -0.5137
 4582TIP3    H135305   0.758   3.898   8.155 -0.3807  1.2757 -0.6681
 4582TIP3    H235306   0.880   3.985   8.173  0.4517  0.1480 -0.7911
 4583TIP3   OH235307   3.445   3.521   1.831 -0.2486  0.9233  0.0243
 4583TIP3    H135308   3.520   3.559   1.784  0.9266 -0.4746  0.6855
 4583TIP3    H235309   3.381   3.592   1.834 -0.0258  1.3829 -2.8190
 4584TIP3   OH235310   2.581   2.412   2.692 -0.0681 -0.2528  0.0824
 4584TIP3    H135311   2.505   2.356   2.677  0.0251 -0.2924 -0.2490
 4584TIP3    H235312   2.570   2.445   2.782  0.9282 -2.4570  1.0972
 4585TIP3   OH235313   2.295   5.793   2.137  0.1995 -0.1281 -0.1157
 4585TIP3    H135314   2.346   5.822   2.213  2.2193 -1.4544 -0.8966
 4585TIP3    H235315   2.210   5.768   2.173  1.4928 -1.8519  1.9374
 4586TIP3   OH235316   6.954   6.082   0.005  0.3989  0.3080 -0.9753
 4586TIP3    H135317   6.973   6.098  -0.088 -1.7112  0.2787 -1.4565
 4586TIP3    H235318   6.888   6.147   0.027  0.2224 -0.2680  0.2745
 4587TIP3   OH235319   4.642   6.752   0.526 -0.1123 -0.1136 -0.0073
 4587TIP3    H135320   4.627   6.751   0.620 -0.0342 -1.1035  0.0059
 4587TIP3    H235321   4.653   6.660   0.502  0.4732  0.1684 -0.8906
 4588TIP3   OH235322   1.999   0.720   2.572  0.1765  0.3203  0.0712
 4588TIP3    H135323   1.981   0.689   2.483  0.0760 -0.1662  0.2565
 4588TIP3    H235324   2.028   0.642   2.619 -1.0175  0.2881  0.8026
 4589TIP3   OH235325   2.572   3.309   0.998 -0.3834  0.2021  0.2755
 4589TIP3    H135326   2.530   3.367   1.062 -0.4363  1.0449 -0.4990
 4589TIP3    H235327   2.550   3.348   0.913 -2.3855 -2.2153 -0.4312
 4590TIP3   OH235328   0.242   4.371   1.604 -0.4108  0.0177 -0.4174
 4590TIP3    H135329   0.215   4.284   1.630  1.4430 -1.4028 -2.8088
 4590TIP3    H235330   0.288   4.406   1.680  0.0688 -1.6802  0.1031
 4591TIP3   OH235331   5.467   2.936   0.889 -0.4947  0.5822 -0.3438
 4591TIP3    H135332   5.437   2.856   0.932  2.4046  0.6128  1.9866
 4591TIP3    H235333   5.560   2.921   0.871 -0.1743  2.9597 -0.9916
 4592TIP3   OH235334   0.752   4.198   0.844 -0.1675 -0.6073 -0.5182
 4592TIP3    H135335   0.814   4.219   0.913  2.5531 -1.1472 -2.6179
 4592TIP3    H235336   0.736   4.281   0.799 -2.6828 -0.0559  1.1446
 4593TIP3   OH235337   1.559   2.289   1.710 -0.1302  0.3734 -0.1931
 4593TIP3    H135338   1.563   2.247   1.796 -2.8725 -1.4999 -0.8597
 4593TIP3    H235339   1.494   2.358   1.720  1.0116  1.5012 -0.3014
 4594TIP3   OH235340   6.051   1.292   7.577  0.6459  0.2225  0.1686
 4594TIP3    H135341   5.985   1.356   7.606  1.7002  0.6082  1.8719
 4594TIP3    H235342   6.070   1.240   7.656 -0.0700 -2.1494 -1.1189
 4595TIP3   OH235343   0.750   3.700   0.263 -0.1700  0.2113  0.4993
 4595TIP3    H135344   0.667   3.747   0.255 -0.6254 -0.5566  0.5535
 4595TIP3    H235345   0.804   3.732   0.190  0.2069  2.1040  1.5479
 4596TIP3   OH235346   2.896   5.752   1.018 -0.3680  0.2985 -0.5497
 4596TIP3    H135347   2.848   5.725   0.940  0.6037  1.1933 -1.4974
 4596TIP3    H235348   2.837   5.814   1.062 -0.5892  0.4327 -1.0280
 4597TIP3   OH235349   2.024   5.948   1.280 -0.5679  0.4018 -0.2801
 4597TIP3    H135350   1.937   5.966   1.244 -0.9988  2.2335  1.4779
 4597TIP3    H235351   2.052   6.031   1.318  1.1621 -0.6233  0.8162
 4598TIP3   OH235352   3.106   5.274   1.918  0.0722  0.1640  0.1683
 4598TIP3    H135353   3.045   5.334   1.960  1.3946  1.3004  0.5310
 4598TIP3    H235354   3.178   5.266   1.980  1.1917  0.3937 -1.0569
 4599TIP3   OH235355   1.552   4.190   0.313 -0.1679  0.2488 -0.5012
 4599TIP3    H135356   1.500   4.263   0.280 -1.4232 -1.8421 -3.7802
 4599TIP3    H235357   1.489   4.135   0.360 -0.0739 -0.3983 -1.1130
 4600TIP3   OH235358   1.413   2.009   1.578 -0.3465  0.5258 -0.7976
 4600TIP3    H135359   1.465   2.082   1.612 -1.0300  0.7932 -0.3054
 4600TIP3    H235360   1.388   1.959   1.657  1.0533 -0.8979 -1.1907
 4601TIP3   OH235361   6.042   3.633   1.658 -0.0962  0.4100 -0.0873
 4601TIP3    H135362   6.124   3.662   1.698  0.0981  0.1726 -0.3109
 4601TIP3    H235363   5.973   3.676   1.710  0.1815  1.2229 -0.3801
 4602TIP3   OH235364   0.067   4.404   8.292  0.3447 -0.0019  0.1357
 4602TIP3    H135365   0.062   4.369   8.381 -0.1403  1.0891  0.5541
 4602TIP3    H235366  -0.024   4.423   8.268  0.2094 -2.2168 -1.4254
 4603TIP3   OH235367   3.618   2.895   7.268 -0.9231  0.1788 -0.0751
 4603TIP3    H135368   3.613   2.832   7.196 -1.0239 -0.0149  0.0979
 4603TIP3    H235369   3.653   2.844   7.341 -1.1152  0.2963  0.0981
 4604TIP3   OH235370   2.983   6.164   1.183  0.5622  0.2258  0.1054
 4604TIP3    H135371   2.965   6.102   1.112 -1.1116 -1.1141  1.6261
 4604TIP3    H235372   2.931   6.241   1.162  0.3251 -0.0363 -0.2771
 4605TIP3   OH235373   0.450   6.151   2.018 -0.3424 -0.3084  0.2461
 4605TIP3    H135374   0.413   6.220   1.964 -1.6553 -1.5294 -0.4988
 4605TIP3    H235375   0.468   6.080   1.956  2.8799  0.0184  0.6545
 4606TIP3   OH235376   6.408   0.417   8.092  0.1606 -0.6489 -0.2568
 4606TIP3    H135377   6.355   0.408   8.171 -0.0807  1.0193 -0.2018
 4606TIP3    H235378   6.465   0.340   8.092 -0.9960 -1.5485  0.6325
 4607TIP3   OH235379   3.444   4.905   0.439  0.2090  0.5155 -0.2667
 4607TIP3    H135380   3.376   4.953   0.390 -0.7081 -0.7554 -0.2925
 4607TIP3    H235381   3.471   4.835   0.379 -0.9242 -1.0600  0.9650
 4608TIP3   OH235382   5.395   1.363   1.269 -0.2576 -0.2885  0.1562
 4608TIP3    H135383   5.446   1.323   1.198 -1.4270 -0.1336 -0.7993
 4608TIP3    H235384   5.390   1.455   1.245  1.6576  0.3261  1.8891
 4609TIP3   OH235385   3.888   2.932   7.179  0.2827 -0.0473 -0.0138
 4609TIP3    H135386   3.854   3.014   7.144  0.9207  0.7251  1.1349
 4609TIP3    H235387   3.809   2.879   7.196 -0.0628 -0.9232 -3.5192
 4610TIP3   OH235388   6.010   2.657   7.773  0.1511 -0.5453  0.5025
 4610TIP3    H135389   5.917   2.658   7.751 -0.1511 -2.2075  1.5431
 4610TIP3    H235390   6.013   2.654   7.869  1.3445  1.5003  0.5966
 4611TIP3   OH235391   4.349   1.810   0.951  0.1778  0.6344 -0.0448
 4611TIP3    H135392   4.389   1.767   0.875  0.1132  1.7418 -0.7259
 4611TIP3    H235393   4.403   1.887   0.966 -0.2210  0.7944  0.6029
 4612TIP3   OH235394   4.252   5.299   1.774  0.1087 -0.2152  0.8669
 4612TIP3    H135395   4.319   5.364   1.752 -0.0501 -0.6003 -0.8973
 4612TIP3    H235396   4.229   5.319   1.865  0.4123  1.8859  0.5442
 4613TIP3   OH235397   1.091   6.014   2.249 -0.3245 -0.2484 -0.1147
 4613TIP3    H135398   1.111   6.032   2.157 -0.9419  0.9468 -0.0391
 4613TIP3    H235399   1.156   5.949   2.275  0.6195  0.2636 -1.0799
 4614TIP3   OH235400   3.590   3.372   2.020 -0.3973  0.2889 -0.1065
 4614TIP3    H135401   3.600   3.416   2.104 -0.2638 -1.3657  0.7864
 4614TIP3    H235402   3.555   3.439   1.961  0.9011  1.8853  0.8545
 4615TIP3   OH235403   2.713   5.551   7.654  0.0703  0.7620  0.0945
 4615TIP3    H135404   2.629   5.522   7.620 -0.7232 -0.1591  2.5762
 4615TIP3    H235405   2.692   5.621   7.716  1.1177  0.6234  0.6465
 4616TIP3   OH235406   6.335   1.916   0.934 -0.2282 -0.6840  0.1047
 4616TIP3    H135407   6.408   1.953   0.884 -0.8366 -1.4648 -1.4247
 4616TIP3    H235408   6.273   1.988   0.943  0.1981 -0.3447  0.3728
 4617TIP3   OH235409   3.211   4.168   2.584 -0.3653  0.0933  0.1254
 4617TIP3    H135410   3.145   4.198   2.522 -0.2581 -0.7221 -0.3949
 4617TIP3    H235411   3.162   4.116   2.648 -0.0135 -2.4437 -1.5040
 4618TIP3   OH235412   4.360   0.314   2.777  0.1673 -0.1635  0.3031
 4618TIP3    H135413   4.270   0.316   2.810 -0.1476 -2.1404 -0.3022
 4618TIP3    H235414   4.351   0.321   2.682  0.5819 -1.0002  0.1900
 4619TIP3   OH235415   1.137   0.673   1.632  0.4319 -0.1177  0.5765
 4619TIP3    H135416   1.186   0.642   1.556  1.1946 -1.4878  1.5952
 4619TIP3    H235417   1.063   0.612   1.640 -1.6882  2.0326 -1.0660
 4620TIP3   OH235418   1.928   2.704   7.031  0.3478  0.2438  0.0143
 4620TIP3    H135419   2.013   2.670   7.000 -0.5064 -0.6254 -1.4815
 4620TIP3    H235420   1.887   2.740   6.952 -0.8641  0.2599  0.6428
 4621TIP3   OH235421   0.820   4.243   6.715  0.1517 -0.1530 -0.0233
 4621TIP3    H135422   0.737   4.283   6.691  0.4244  0.4858  0.0592
 4621TIP3    H235423   0.872   4.246   6.635 -0.7906 -2.9945 -0.8538
 4622TIP3   OH235424   1.696   6.981   1.597  0.2045 -0.5522  0.1556
 4622TIP3    H135425   1.626   7.003   1.535 -0.9301 -1.5672  1.0052
 4622TIP3    H235426   1.651   6.931   1.666  1.2823  1.0752  2.1318
 4623TIP3   OH235427   6.994   2.677   7.007  0.4318 -0.0525 -0.2492
 4623TIP3    H135428   7.080   2.652   6.974 -0.7987 -2.3909 -1.9543
 4623TIP3    H235429   6.934   2.615   6.967 -1.8237  0.1130  2.5707
 4624TIP3   OH235430   4.539   4.641   1.885 -0.1909 -0.5447 -0.1798
 4624TIP3    H135431   4.483   4.718   1.886  0.5716  0.0246  0.1754
 4624TIP3    H235432   4.621   4.672   1.845  0.6289 -0.7800  1.2324
 4625TIP3   OH235433   1.210   6.086   7.143  0.7188 -0.3406 -0.5589
 4625TIP3    H135434   1.178   6.003   7.108  0.5301 -0.8192  0.6920
 4625TIP3    H235435   1.244   6.064   7.229 -0.4354  1.0773  0.3148
 4626TIP3   OH235436   1.404   1.398   1.686 -0.1054  0.3105 -0.5393
 4626TIP3    H135437   1.421   1.493   1.685 -1.3561  0.5701 -2.1893
 4626TIP3    H235438   1.360   1.383   1.769 -0.5525  1.3358 -0.5667
 4627TIP3   OH235439   2.287   4.225   7.987 -0.6610  0.0300  0.0429
 4627TIP3    H135440   2.307   4.171   7.911 -1.1956 -0.4302  0.2304
 4627TIP3    H235441   2.211   4.185   8.027  0.1188 -0.2403  1.3249
 4628TIP3   OH235442   4.309   2.750   8.038  0.0978  0.5237  0.0214
 4628TIP3    H135443   4.292   2.686   8.108 -0.4999  0.8803  0.2135
 4628TIP3    H235444   4.285   2.834   8.077  0.1131  0.7693 -0.4944
 4629TIP3   OH235445   0.242   0.638   0.917  0.3055  0.2734  0.4002
 4629TIP3    H135446   0.237   0.733   0.902 -0.3421  0.2155  0.2035
 4629TIP3    H235447   0.334   0.617   0.908  0.1511  0.4382 -2.3380
 4630TIP3   OH235448   4.710   5.321   0.664  0.0817 -0.4836  0.3697
 4630TIP3    H135449   4.677   5.327   0.753  1.4823 -1.5196  1.0088
 4630TIP3    H235450   4.695   5.408   0.626 -0.1088  0.1115  1.7644
 4631TIP3   OH235451   5.329   2.250   1.191 -0.1180 -0.0460  0.0560
 4631TIP3    H135452   5.265   2.246   1.262  0.3605  2.3291  0.6960
 4631TIP3    H235453   5.408   2.211   1.228 -0.4839 -0.8437  0.0354
 4632TIP3   OH235454   5.885   3.229   7.384 -0.3624 -0.1951 -0.4626
 4632TIP3    H135455   5.856   3.244   7.473 -0.7776 -1.8461 -0.2822
 4632TIP3    H235456   5.896   3.316   7.346 -1.5961  0.5044  0.7392
 4633TIP3   OH235457   0.821   1.280   8.310  0.0670 -0.0550  0.7956
 4633TIP3    H135458   0.763   1.205   8.301 -3.1492  2.2047  1.0818
 4633TIP3    H235459   0.855   1.274   8.399  0.1911 -1.3447  0.6777
 4634TIP3   OH235460   6.818   2.669   6.300  0.1351  0.0332 -1.1853
 4634TIP3    H135461   6.734   2.639   6.336  0.4717 -0.4113 -0.7675
 4634TIP3    H235462   6.804   2.667   6.205  0.2067 -1.6795 -1.1952
 4635TIP3   OH235463   3.500   2.628   8.162  0.3811 -0.0639 -0.5026
 4635TIP3    H135464   3.518   2.716   8.195  0.5593  0.0142 -0.8056
 4635TIP3    H235465   3.538   2.569   8.228 -0.4306  0.0701  0.1029
 4636TIP3   OH235466   2.425   1.812   7.282  0.0732  0.0583  0.1289
 4636TIP3    H135467   2.514   1.845   7.294  0.2071  0.1763 -1.0707
 4636TIP3    H235468   2.430   1.721   7.312  1.0580 -0.4777 -1.5190
 4637TIP3   OH235469   1.551   6.692   0.126  0.3794 -0.3053 -0.2883
 4637TIP3    H135470   1.492   6.732   0.062  0.7228 -0.4325 -0.6914
 4637TIP3    H235471   1.629   6.670   0.075  1.0723  0.5321  0.3761
 4638TIP3   OH235472   0.541   6.445   7.334 -0.0714 -0.1966 -0.3165
 4638TIP3    H135473   0.453   6.463   7.367 -0.4531 -1.3579 -0.6520
 4638TIP3    H235474   0.596   6.447   7.412 -0.0425  2.3394 -0.3155
 4639TIP3   OH235475   6.981   1.307   7.295  0.1225  0.2631  0.5015
 4639TIP3    H135476   6.888   1.311   7.314 -0.1524 -0.8237 -0.5082
 4639TIP3    H235477   7.022   1.362   7.362 -1.3302  1.7312  0.2442
 4640TIP3   OH235478   4.979   6.917   0.103 -0.0258  0.4541 -0.0278
 4640TIP3    H135479   4.898   6.967   0.106 -1.0228 -0.9684 -1.4731
 4640TIP3    H235480   5.036   6.966   0.044 -0.2902  0.8121  0.0155
 4641TIP3   OH235481   6.070   1.970   1.522  0.3393 -0.1063  0.4308
 4641TIP3    H135482   6.040   2.055   1.554  2.1370 -0.2011  2.5653
 4641TIP3    H235483   6.014   1.952   1.446 -2.3748  1.3700  1.9382
 4642TIP3   OH235484   1.228   1.003   0.981 -0.0142 -0.0889 -0.3617
 4642TIP3    H135485   1.292   1.065   1.016 -0.0310 -0.6154  0.6481
 4642TIP3    H235486   1.280   0.940   0.931 -0.2047  1.9582 -3.3605
 4643TIP3   OH235487   3.416   5.760   1.271 -0.4158 -0.0626  0.1903
 4643TIP3    H135488   3.508   5.750   1.296 -0.3069  1.1796  0.3829
 4643TIP3    H235489   3.416   5.832   1.208 -1.1210 -0.8907 -0.7912
 4644TIP3   OH235490   2.557   4.920   1.417  0.7124 -0.1558 -0.2119
 4644TIP3    H135491   2.537   4.977   1.343  0.1291 -1.3940 -1.0363
 4644TIP3    H235492   2.636   4.958   1.456  0.4040  1.1337 -0.8027
 4645TIP3   OH235493   3.264   5.905   1.458 -0.3537 -0.3805 -0.4400
 4645TIP3    H135494   3.321   5.877   1.387 -0.3059 -1.2997 -0.0505
 4645TIP3    H235495   3.317   5.966   1.510 -0.2728  0.0161 -0.9812
 4646TIP3   OH235496   5.866   3.493   7.269  0.5971  0.0456  0.5204
 4646TIP3    H135497   5.785   3.541   7.254  0.1283 -0.9582 -0.2597
 4646TIP3    H235498   5.916   3.548   7.330  0.1482  1.5804 -0.4400
 4647TIP3   OH235499   6.821   2.978   0.159  0.2380 -0.4242 -0.0816
 4647TIP3    H135500   6.855   3.063   0.188  2.4763 -1.5003  0.7328
 4647TIP3    H235501   6.898   2.920   0.161 -0.8462 -2.0769 -2.2761
 4648TIP3   OH235502   5.019   4.330   1.205  0.0608  0.2277 -0.1104
 4648TIP3    H135503   4.998   4.250   1.157  2.0013  0.2060 -1.0361
 4648TIP3    H235504   4.985   4.315   1.293 -0.4773 -1.2010 -0.5378
 4649TIP3   OH235505   0.156   2.746   0.379  0.1465 -0.2808 -0.0283
 4649TIP3    H135506   0.096   2.742   0.453 -0.0664 -0.3403 -0.2036
 4649TIP3    H235507   0.235   2.787   0.415  0.4275 -1.2540  0.4918
 4650TIP3   OH235508   3.747   0.129   1.123 -0.0852  0.6557  0.6761
 4650TIP3    H135509   3.663   0.083   1.110 -0.1840  1.1516 -0.5787
 4650TIP3    H235510   3.801   0.100   1.050  0.3732  1.3865  0.7260
 4651TIP3   OH235511   4.383   3.410   6.573 -0.2511  0.7023 -0.3949
 4651TIP3    H135512   4.343   3.450   6.650 -1.2732  2.0496 -1.5690
 4651TIP3    H235513   4.317   3.420   6.504 -0.6031 -3.1004 -0.8106
 4652TIP3   OH235514   3.242   5.704   0.091  0.7812 -0.6387 -0.4472
 4652TIP3    H135515   3.244   5.797   0.116  1.8771 -1.2097  1.7425
 4652TIP3    H235516   3.149   5.680   0.099  0.3041  0.4798 -2.0557
 4653TIP3   OH235517   6.904   1.262   0.486  0.1077  0.5648 -0.1200
 4653TIP3    H135518   6.912   1.241   0.579 -0.5529  1.7011  0.2146
 4653TIP3    H235519   6.990   1.298   0.463  0.2427  0.3722  0.0696
 4654TIP3   OH235520   6.580   5.150   0.200 -0.0059 -0.1733  0.3744
 4654TIP3    H135521   6.614   5.205   0.129 -1.1455  0.1456  0.0574
 4654TIP3    H235522   6.602   5.061   0.174  0.1514 -0.0102 -0.0642
 4655TIP3   OH235523   1.432   0.920   0.198 -0.0647 -0.1373  0.6904
 4655TIP3    H135524   1.378   0.986   0.242  0.5222  1.3507 -0.7658
 4655TIP3    H235525   1.384   0.898   0.118 -0.3815 -1.7095  1.2681
 4656TIP3   OH235526   3.634   3.028   0.332  0.5273  0.0541  0.2631
 4656TIP3    H135527   3.697   2.959   0.309  1.3682  0.8599  0.0838
 4656TIP3    H235528   3.663   3.104   0.281 -0.2344  0.6099  0.6523
 4657TIP3   OH235529   1.759   3.753   0.312 -0.0337 -0.7384  0.1954
 4657TIP3    H135530   1.769   3.845   0.291  0.4506 -0.8363 -0.0131
 4657TIP3    H235531   1.728   3.712   0.231 -0.1517 -0.7770  0.2591
 4658TIP3   OH235532   0.292   4.337   6.980  0.6621 -0.7557 -0.1367
 4658TIP3    H135533   0.298   4.241   6.986  2.5084 -0.7006 -0.5555
 4658TIP3    H235534   0.354   4.369   7.045  0.8722  0.1413 -0.7560
 4659TIP3   OH235535   4.892   6.313   7.462  0.1333 -0.7248  0.2111
 4659TIP3    H135536   4.819   6.263   7.423 -2.3146  2.4073  0.3404
 4659TIP3    H235537   4.933   6.357   7.387  0.9256 -1.2857  0.3112
 4660TIP3   OH235538   2.549   1.125   1.569  0.2145  0.0572 -0.3954
 4660TIP3    H135539   2.536   1.196   1.506 -0.7885  0.2060 -0.0330
 4660TIP3    H235540   2.586   1.054   1.517 -0.3041  0.2851 -1.0934
 4661TIP3   OH235541   5.942   4.496   1.481  0.6470  0.5759 -0.4202
 4661TIP3    H135542   5.923   4.565   1.416 -1.1424 -0.7037 -1.3365
 4661TIP3    H235543   5.925   4.538   1.565  0.9341  1.6485 -0.8694
 4662TIP3   OH235544   3.496   3.485   6.396 -1.0408  0.4407  0.8334
 4662TIP3    H135545   3.428   3.458   6.335 -2.8757  3.1701  1.4936
 4662TIP3    H235546   3.521   3.404   6.441 -1.3331 -1.2266 -1.7642
 4663TIP3   OH235547   2.193   6.368   7.544  0.4199 -0.4957  0.5870
 4663TIP3    H135548   2.120   6.428   7.531  0.4952 -0.7084 -1.0889
 4663TIP3    H235549   2.236   6.364   7.458  1.3766 -1.6916  1.0904
 4664TIP3   OH235550   3.143   4.290   7.679 -0.5293  0.2328 -0.2189
 4664TIP3    H135551   3.055   4.276   7.714 -0.3212 -1.3793 -0.2748
 4664TIP3    H235552   3.201   4.253   7.744  0.3141  3.1329  0.8332
 4665TIP3   OH235553   6.619   3.707   0.045 -0.4022  0.3050  0.5920
 4665TIP3    H135554   6.529   3.731   0.023 -0.2189  0.9920  0.5482
 4665TIP3    H235555   6.613   3.619   0.081 -0.8604 -0.4581 -1.2390
 4666TIP3   OH235556   4.033   5.679   1.072 -0.3900 -0.2674  0.6232
 4666TIP3    H135557   3.968   5.650   1.136 -2.0469  0.7221 -0.5195
 4666TIP3    H235558   4.016   5.625   0.995  0.4478 -0.2835  0.4443
 4667TIP3   OH235559   0.106   6.924   7.977 -0.0306  0.1690  0.1830
 4667TIP3    H135560   0.106   6.859   8.047 -1.4079 -0.1101 -0.0555
 4667TIP3    H235561   0.034   6.983   7.998 -0.1532  0.3677 -0.7315
 4668TIP3   OH235562   1.150   1.472   7.670  0.2155  0.2663  0.0093
 4668TIP3    H135563   1.171   1.391   7.625 -0.1366  0.0118  0.3006
 4668TIP3    H235564   1.150   1.449   7.763 -2.6917 -0.0873  0.0028
 4669TIP3   OH235565   6.467   5.396   7.046 -0.9101  0.1941 -0.5625
 4669TIP3    H135566   6.479   5.312   7.002  0.3646  0.0640 -0.0188
 4669TIP3    H235567   6.373   5.405   7.055 -1.0471 -1.8862  0.6795
 4670TIP3   OH235568   4.037   0.956   8.014 -0.0689  0.6536  0.3091
 4670TIP3    H135569   4.008   1.004   8.091 -1.1823 -0.6505  0.7288
 4670TIP3    H235570   4.013   1.012   7.940  0.7032  1.7509  0.8609
 4671TIP3   OH235571   5.903   1.911   8.278 -0.0587  0.3024 -0.0373
 4671TIP3    H135572   5.997   1.924   8.286  0.3482 -1.2026 -1.6748
 4671TIP3    H235573   5.891   1.877   8.189 -2.2248  0.9790 -0.0753
 4672TIP3   OH235574   2.925   2.245   0.605  0.0963 -0.2466 -0.0625
 4672TIP3    H135575   2.843   2.291   0.588  0.1330  1.3705  3.4424
 4672TIP3    H235576   2.990   2.314   0.616  2.0273 -1.4816 -2.4511
 4673TIP3   OH235577   0.865   1.866   7.550 -0.0888 -0.1769  0.6199
 4673TIP3    H135578   0.844   1.790   7.604 -1.1763 -0.8303 -0.6522
 4673TIP3    H235579   0.940   1.839   7.497 -0.7993 -0.5860 -0.2066
 4674TIP3   OH235580   6.293   6.014   8.125 -0.9310 -0.2236 -0.6534
 4674TIP3    H135581   6.257   6.013   8.037 -1.1023 -2.1086 -0.5978
 4674TIP3    H235582   6.366   5.951   8.122 -0.4743  0.2287  0.3710
 4675TIP3   OH235583   2.173   4.549   7.740 -0.2531  0.0489 -0.2065
 4675TIP3    H135584   2.144   4.467   7.779  1.0799 -0.3786 -0.0429
 4675TIP3    H235585   2.158   4.538   7.646  0.5969 -0.6988 -0.2692
 4676TIP3   OH235586   2.939   1.327   7.100 -0.0420  0.5114  0.2380
 4676TIP3    H135587   2.855   1.353   7.062 -0.6044 -0.3843  0.8136
 4676TIP3    H235588   2.935   1.358   7.190 -0.0165 -0.0784  0.4447
 4677TIP3   OH235589   3.365   2.288   1.779  0.0270  0.4810  0.3964
 4677TIP3    H135590   3.378   2.263   1.688 -0.5450 -1.3452  0.7859
 4677TIP3    H235591   3.300   2.358   1.776 -1.0914 -0.5693 -0.5118
 4678TIP3   OH235592   3.776   4.222   7.184 -0.1459 -0.7291 -0.3701
 4678TIP3    H135593   3.822   4.272   7.251 -1.8049 -0.4313  0.6263
 4678TIP3    H235594   3.818   4.247   7.102 -0.3101  1.6674  0.1819
 4679TIP3   OH235595   0.844   4.014   6.888 -0.7966 -0.7075  0.2014
 4679TIP3    H135596   0.844   4.082   6.821 -1.0624 -0.2318  0.6833
 4679TIP3    H235597   0.884   4.055   6.964 -1.9238 -0.7591  0.8291
 4680TIP3   OH235598   2.800   1.836   2.142  0.4991 -0.0312 -0.4929
 4680TIP3    H135599   2.882   1.820   2.095  1.0779  0.6688  0.2270
 4680TIP3    H235600   2.812   1.924   2.179 -0.2668 -0.2376  0.2628
 4681TIP3   OH235601   4.920   6.313   1.019 -0.3201 -0.4043  0.6246
 4681TIP3    H135602   4.834   6.343   0.989  0.5355  0.6817 -0.8676
 4681TIP3    H235603   4.929   6.350   1.107 -0.5183  1.2954 -0.0323
 4682TIP3   OH235604   3.571   2.296   0.558 -0.6281  0.0976 -0.1163
 4682TIP3    H135605   3.663   2.279   0.538  0.3722  3.6055  0.9231
 4682TIP3    H235606   3.522   2.244   0.493  2.1169  0.5117 -2.6872
 4683TIP3   OH235607   4.762   3.096   0.254 -0.0881 -0.2267 -0.2681
 4683TIP3    H135608   4.768   3.005   0.228 -0.3232 -1.1985  2.7075
 4683TIP3    H235609   4.801   3.099   0.342 -3.1533  1.7818  1.2198
 4684TIP3   OH235610   5.193   2.030   0.368  0.3488  0.0093 -0.4549
 4684TIP3    H135611   5.260   2.077   0.418 -0.3052  0.5405 -0.0629
 4684TIP3    H235612   5.110   2.066   0.399 -0.1034 -0.2805 -1.2982
 4685TIP3   OH235613   6.155   4.531   2.256 -0.7941 -0.0261  0.5462
 4685TIP3    H135614   6.157   4.626   2.251  0.9895  0.0819  2.1689
 4685TIP3    H235615   6.194   4.510   2.341 -1.1699 -2.2079  0.2498
 4686TIP3   OH235616   0.531   4.708   6.037  0.1654  0.1298  0.1329
 4686TIP3    H135617   0.606   4.703   6.096 -0.3030 -1.2818  0.6678
 4686TIP3    H235618   0.564   4.673   5.954 -0.2432 -1.9577  0.7932
 4687TIP3   OH235619   2.157   0.862   2.000  0.9002  0.2709  0.1551
 4687TIP3    H135620   2.217   0.821   1.939 -0.1499  1.2165 -1.6026
 4687TIP3    H235621   2.072   0.822   1.982  0.7896 -0.4098  1.9756
 4688TIP3   OH235622   3.304   5.849   7.092 -0.5577  0.0844  0.1259
 4688TIP3    H135623   3.226   5.835   7.038 -0.3437 -0.4185 -0.0585
 4688TIP3    H235624   3.369   5.886   7.031 -0.9667  1.5024  0.5034
 4689TIP3   OH235625   1.334   1.101   0.699 -0.3894 -1.0651  0.1364
 4689TIP3    H135626   1.427   1.116   0.716 -0.1686 -2.2345  0.0653
 4689TIP3    H235627   1.312   1.163   0.629  0.1002 -0.1477  0.7843
 4690TIP3   OH235628   3.138   1.071   0.029 -0.3214 -0.1851 -0.0296
 4690TIP3    H135629   3.103   1.007  -0.033 -1.2787  0.0079  0.3037
 4690TIP3    H235630   3.190   1.018   0.090 -1.8763 -0.8166  0.8141
 4691TIP3   OH235631   0.869   5.850   7.952  0.1291 -0.1167  0.2123
 4691TIP3    H135632   0.821   5.768   7.943 -1.5871  0.7724  0.9133
 4691TIP3    H235633   0.906   5.865   7.865  0.7636 -1.7840  0.1617
 4692TIP3   OH235634   3.404   5.132   6.851  0.0872 -0.2085 -0.3285
 4692TIP3    H135635   3.381   5.041   6.830  1.9058 -1.0113  0.9272
 4692TIP3    H235636   3.480   5.151   6.796 -0.4217  0.6777 -0.7622
 4693TIP3   OH235637   1.961   5.183   1.595 -0.4608 -0.0726  0.1493
 4693TIP3    H135638   1.867   5.181   1.612 -0.6139 -1.8314 -0.7252
 4693TIP3    H235639   2.000   5.148   1.675 -0.4211  1.8962  1.0402
 4694TIP3   OH235640   6.170   2.779   2.575  0.0467 -0.1565 -0.3222
 4694TIP3    H135641   6.145   2.705   2.520 -0.0340 -0.3964  0.0342
 4694TIP3    H235642   6.090   2.803   2.622  0.2508 -0.3344  0.1299
 4695TIP3   OH235643   5.375   0.200   0.450  0.1585  0.1393 -0.1710
 4695TIP3    H135644   5.314   0.268   0.478 -0.9702 -0.5857 -0.7988
 4695TIP3    H235645   5.372   0.203   0.354  2.7254  1.4956 -0.3118
 4696TIP3   OH235646   6.086   5.886   0.865 -0.5351  0.2055 -0.1270
 4696TIP3    H135647   6.080   5.945   0.940  0.5744  0.5936 -0.3148
 4696TIP3    H235648   6.050   5.936   0.792  0.6608  0.8003 -0.3452
 4697TIP3   OH235649   5.176   6.169   1.432  0.1297  0.1553 -0.5998
 4697TIP3    H135650   5.106   6.129   1.381  0.1999 -2.1522  0.9784
 4697TIP3    H235651   5.252   6.169   1.374 -0.1727 -0.9870 -1.0084
 4698TIP3   OH235652   3.524   0.121   1.626 -0.2493 -0.2618 -0.5781
 4698TIP3    H135653   3.530   0.202   1.677 -2.3091 -1.0364  1.0253
 4698TIP3    H235654   3.521   0.052   1.692  1.6836 -1.7214 -1.9192
 4699TIP3   OH235655   6.771   0.929   0.810  0.1767  0.0734 -0.1597
 4699TIP3    H135656   6.734   0.880   0.884  0.1964  1.3208  0.7047
 4699TIP3    H235657   6.786   1.017   0.844  0.0299  0.7359 -1.7022
 4700TIP3   OH235658   3.252   1.652   2.648  0.1139 -0.2928  0.2494
 4700TIP3    H135659   3.190   1.580   2.634 -2.2720  1.7975 -0.7506
 4700TIP3    H235660   3.333   1.622   2.606 -1.0789 -2.0384 -0.9632
 4701TIP3   OH235661   5.062   0.097   7.549  0.0772 -0.0848 -0.0300
 4701TIP3    H135662   5.025   0.071   7.465 -0.0396 -1.7152  0.5009
 4701TIP3    H235663   5.000   0.161   7.584 -0.3998 -0.1574 -0.7272
 4702TIP3   OH235664   1.913   5.927   2.644  0.2066 -0.1345  0.2098
 4702TIP3    H135665   1.883   5.974   2.722  0.1313 -1.5301  1.0585
 4702TIP3    H235666   1.841   5.935   2.582  0.4969  1.4830  0.0316
 4703TIP3   OH235667   5.484   6.303   0.773 -0.4598  0.3802  0.1694
 4703TIP3    H135668   5.445   6.252   0.703 -1.7823  0.9725  0.4503
 4703TIP3    H235669   5.578   6.282   0.769 -0.7511 -0.8346 -0.7111
 4704TIP3   OH235670   3.666   4.756   0.726  0.1562 -0.3065  0.3193
 4704TIP3    H135671   3.624   4.842   0.729  1.2837  0.2421  2.2528
 4704TIP3    H235672   3.598   4.696   0.757 -0.4324 -0.0416 -0.4214
 4705TIP3   OH235673   3.275   2.764   1.817 -0.3391  0.0741  0.1692
 4705TIP3    H135674   3.250   2.800   1.732 -0.3152 -0.2609  0.0179
 4705TIP3    H235675   3.354   2.812   1.842  0.7067 -1.0697 -0.8462
 4706TIP3   OH235676   5.369   3.010   6.751 -0.2770 -0.5435  0.3856
 4706TIP3    H135677   5.283   2.976   6.778 -0.6805  1.3654  1.7516
 4706TIP3    H235678   5.385   2.972   6.665 -1.4629 -2.6936  1.0470
 4707TIP3   OH235679   5.180   1.465   7.911 -0.1634  0.0730 -0.0707
 4707TIP3    H135680   5.256   1.504   7.868 -0.1016  1.0168  0.8555
 4707TIP3    H235681   5.209   1.446   8.000 -1.4617  2.0943  0.8704
 4708TIP3   OH235682   4.493   2.361   8.096 -0.2248 -0.2712  0.0714
 4708TIP3    H135683   4.500   2.450   8.061 -0.6824 -0.3055 -0.1068
 4708TIP3    H235684   4.523   2.305   8.024  1.5741 -0.1899  0.6957
 4709TIP3   OH235685   4.102   1.241   0.989  0.1306 -0.0479 -0.2126
 4709TIP3    H135686   4.052   1.180   1.043 -0.2097 -0.3215 -0.8314
 4709TIP3    H235687   4.038   1.280   0.930  0.5306  0.0818 -0.5699
 4710TIP3   OH235688   6.695   4.987   0.546 -0.4115 -0.1473  0.3527
 4710TIP3    H135689   6.639   4.933   0.490  0.5953  0.5495 -1.3942
 4710TIP3    H235690   6.783   4.954   0.530  0.0447  0.9740  0.4697
 4711TIP3   OH235691   6.565   0.565   1.573  0.0400 -0.0473 -0.0989
 4711TIP3    H135692   6.529   0.621   1.642  1.9074  1.8831 -0.5819
 4711TIP3    H235693   6.489   0.521   1.535 -1.5343  2.0662  0.4304
 4712TIP3   OH235694   0.056   1.904   2.658 -0.3394 -0.7609  0.1249
 4712TIP3    H135695  -0.001   1.840   2.699 -0.1459 -1.6866 -1.0196
 4712TIP3    H235696  -0.003   1.968   2.619 -0.5441 -0.6359  0.6306
 4713TIP3   OH235697   2.055   0.541   1.662 -0.1694  0.0211 -0.4296
 4713TIP3    H135698   1.988   0.474   1.653  1.8236 -2.5629  2.0525
 4713TIP3    H235699   2.010   0.615   1.702 -2.1455 -0.2648 -1.9391
 4714TIP3   OH235700   6.391   2.312   0.475  0.0669  0.3785  0.1906
 4714TIP3    H135701   6.382   2.220   0.449 -2.6577  1.0457 -1.7259
 4714TIP3    H235702   6.366   2.314   0.567 -0.3358 -0.7343  0.1139
 4715TIP3   OH235703   4.206   2.347   8.122 -0.1728  0.4378  0.2462
 4715TIP3    H135704   4.294   2.363   8.154  0.0435  0.1738 -0.2015
 4715TIP3    H235705   4.197   2.404   8.046  0.1978 -0.6830 -0.6703
 4716TIP3   OH235706   6.316   5.939   0.163 -0.5245  0.2902  0.7048
 4716TIP3    H135707   6.258   5.991   0.107  0.1977  1.1325  0.7315
 4716TIP3    H235708   6.289   5.961   0.252  0.4752  1.4448  0.7383
 4717TIP3   OH235709   2.586   1.009   2.743 -0.4575  0.2736 -0.6094
 4717TIP3    H135710   2.573   1.103   2.755 -0.0056  0.3921 -1.0150
 4717TIP3    H235711   2.499   0.976   2.719 -0.7992  0.4465  0.3689
 4718TIP3   OH235712   1.641   4.629   0.750  0.0609  0.0886 -0.6395
 4718TIP3    H135713   1.657   4.610   0.843  3.8462  1.6839 -0.7838
 4718TIP3    H235714   1.684   4.558   0.703  0.1306  0.4664 -1.1603
 4719TIP3   OH235715   1.223   1.820   7.957 -0.6237 -0.2863  0.3150
 4719TIP3    H135716   1.178   1.843   7.876  2.6292 -0.6017 -1.7742
 4719TIP3    H235717   1.256   1.903   7.991  2.0310 -0.4911 -1.4234
 4720TIP3   OH235718   2.579   1.188   1.109  0.7545  0.0921  0.1981
 4720TIP3    H135719   2.521   1.125   1.066 -0.2528  1.8973 -1.2341
 4720TIP3    H235720   2.657   1.192   1.053 -0.4709  2.2890 -1.5263
 4721TIP3   OH235721   3.625   6.191   6.790 -0.1118  0.1824 -0.0246
 4721TIP3    H135722   3.679   6.112   6.792 -0.1327  0.1444  2.0388
 4721TIP3    H235723   3.608   6.207   6.698  0.0606 -2.1080 -0.5066
 4722TIP3   OH235724   4.675   1.196   7.994 -0.4167  0.2156  0.0669
 4722TIP3    H135725   4.769   1.210   7.985 -0.3364 -1.4573 -2.9725
 4722TIP3    H235726   4.667   1.118   8.049 -0.0223  0.2188  0.1293
 4723TIP3   OH235727   0.899   1.031   1.159  0.3108  0.0116 -0.4041
 4723TIP3    H135728   0.994   1.031   1.151  0.2460 -0.1211 -1.3211
 4723TIP3    H235729   0.877   1.122   1.179  0.6633 -0.0711  0.4008
 4724TIP3   OH235730   3.087   3.363   7.860  0.3284 -0.9890 -0.5025
 4724TIP3    H135731   3.110   3.305   7.788 -0.4732 -1.5848 -0.2897
 4724TIP3    H235732   3.083   3.306   7.937 -0.3528 -0.6397 -0.2695
 4725TIP3   OH235733   2.433   3.850   7.458 -0.0799 -0.1503  0.0043
 4725TIP3    H135734   2.454   3.770   7.410 -0.4996  0.0269 -0.4872
 4725TIP3    H235735   2.378   3.821   7.530 -1.0695 -0.2003 -0.7499
 4726TIP3   OH235736   3.895   3.683   7.626  0.2788 -0.0368 -0.4221
 4726TIP3    H135737   3.935   3.633   7.555  0.5744 -1.2706  0.5787
 4726TIP3    H235738   3.968   3.732   7.665  0.3538 -0.3396 -0.1795
 4727TIP3   OH235739   2.525   2.041   6.787 -0.3724 -0.1354 -0.1446
 4727TIP3    H135740   2.597   2.090   6.747 -0.1526  0.1166  0.5373
 4727TIP3    H235741   2.465   2.023   6.715 -0.0981  0.5089 -0.5471
 4728TIP3   OH235742   1.593   5.424   0.962  0.0450  0.2692 -0.0191
 4728TIP3    H135743   1.656   5.479   1.009  0.0803  2.2753 -2.1996
 4728TIP3    H235744   1.529   5.487   0.927 -0.8427 -1.2770 -1.2880
 4729TIP3   OH235745   0.502   5.315   2.178  0.1821 -0.5079  0.1141
 4729TIP3    H135746   0.428   5.256   2.165  1.6605 -1.9488 -2.3658
 4729TIP3    H235747   0.523   5.348   2.091  1.6169  0.9959  0.9602
 4730TIP3   OH235748   3.630   2.845   1.203  0.3966  0.3551 -0.4816
 4730TIP3    H135749   3.632   2.764   1.254 -1.6646  1.1948  1.0948
 4730TIP3    H235750   3.657   2.819   1.115 -1.7310 -2.4136 -0.4531
 4731TIP3   OH235751   4.053   0.509   0.936  0.6012  0.0449  0.1476
 4731TIP3    H135752   4.012   0.433   0.977 -1.4515  0.1104 -1.5840
 4731TIP3    H235753   4.122   0.473   0.882 -0.5971 -0.6994 -0.9508
 4732TIP3   OH235754   5.422   4.740   0.208 -0.0643 -0.0595 -0.1511
 4732TIP3    H135755   5.504   4.705   0.243  0.2316  0.1637 -0.6070
 4732TIP3    H235756   5.448   4.784   0.127 -0.2456  2.1033  0.9023
 4733TIP3   OH235757   5.569   6.970   0.219  0.0870 -0.7449 -0.0541
 4733TIP3    H135758   5.656   7.003   0.241  0.3931 -2.4589  1.5764
 4733TIP3    H235759   5.510   7.042   0.241  0.8586 -0.6092  1.8305
 4734TIP3   OH235760   6.908   0.569   7.083  0.1554  0.3056 -0.3455
 4734TIP3    H135761   6.893   0.563   6.988 -0.1806 -0.2524 -0.2596
 4734TIP3    H235762   6.879   0.484   7.117 -0.5983  0.8379  0.3767
 4735TIP3   OH235763   1.203   5.644   8.024 -0.0485  0.7179  0.6754
 4735TIP3    H135764   1.109   5.625   8.022 -0.1524  1.2739 -0.3840
 4735TIP3    H235765   1.245   5.559   8.038 -0.7731  0.7832  4.1507
 4736TIP3   OH235766   0.293   3.346   1.584 -0.1044 -0.1259  0.7801
 4736TIP3    H135767   0.341   3.294   1.520 -0.0834 -0.4085  1.0230
 4736TIP3    H235768   0.290   3.291   1.662 -1.1815 -0.2900  0.6417
 4737TIP3   OH235769   1.498   0.640   6.866 -0.3762 -0.5793  0.0359
 4737TIP3    H135770   1.544   0.672   6.944  1.2762 -1.1115 -0.6880
 4737TIP3    H235771   1.453   0.718   6.832 -1.1507 -0.3462  1.5080
 4738TIP3   OH235772   6.913   1.018   2.270  0.6577  0.0335  0.4658
 4738TIP3    H135773   6.965   1.097   2.252  0.6235  0.6729  2.8740
 4738TIP3    H235774   6.846   1.047   2.332 -0.2281 -1.6037  0.3288
 4739TIP3   OH235775   1.254   4.286   6.776 -0.1577  0.3225  0.0936
 4739TIP3    H135776   1.196   4.240   6.836 -0.6842  0.7479 -0.0761
 4739TIP3    H235777   1.206   4.291   6.694  0.4390  0.0031 -0.2839
 4740TIP3   OH235778   3.140   5.021   8.145  0.2947 -0.2014 -0.4052
 4740TIP3    H135779   3.174   4.934   8.164  0.8457  0.2967  1.0020
 4740TIP3    H235780   3.218   5.072   8.119  0.4635  0.5850  1.5080
 4741TIP3   OH235781   0.281   4.072   1.708  0.1663 -0.2460 -0.4570
 4741TIP3    H135782   0.200   4.034   1.741  0.0727 -0.0115 -0.4141
 4741TIP3    H235783   0.297   4.148   1.764 -0.0043  0.1696 -0.9629
 4742TIP3   OH235784   0.042   2.696   0.630  0.0660  0.3008  0.0746
 4742TIP3    H135785   0.003   2.778   0.659  1.3815  1.3677 -1.0638
 4742TIP3    H235786   0.126   2.691   0.678  1.3330  1.0967 -1.9414
 4743TIP3   OH235787   2.982   2.163   3.063  0.2582  0.0221  0.3219
 4743TIP3    H135788   3.056   2.161   3.124  1.8384 -1.6064 -1.5068
 4743TIP3    H235789   3.023   2.172   2.976 -1.7468 -0.2759 -0.7110
 4744TIP3   OH235790   2.512   5.087   2.089 -0.0421 -0.1570 -0.2422
 4744TIP3    H135791   2.431   5.066   2.134 -1.0313  1.4430 -1.1976
 4744TIP3    H235792   2.505   5.043   2.004 -0.5547  1.0629 -0.8592
 4745TIP3   OH235793   3.342   2.219   0.303  0.1020  0.5596  0.9936
 4745TIP3    H135794   3.314   2.137   0.343 -1.3980  0.4504 -0.2072
 4745TIP3    H235795   3.435   2.206   0.283 -0.4386 -1.3759 -0.4501
 4746TIP3   OH235796   6.171   4.429   7.155  0.4252  0.1076  0.9865
 4746TIP3    H135797   6.245   4.482   7.184  0.9509 -0.1686  0.1580
 4746TIP3    H235798   6.117   4.489   7.104  0.7909 -0.0417  0.4236
 4747TIP3   OH235799   6.663   2.186   6.934  0.0292  0.1330  0.3107
 4747TIP3    H135800   6.662   2.091   6.923 -0.7797  0.3423 -1.9722
 4747TIP3    H235801   6.589   2.205   6.991  1.2139 -0.6724  2.2371
 4748TIP3   OH235802   3.484   3.792   1.408 -0.3938 -0.5336 -0.1376
 4748TIP3    H135803   3.577   3.807   1.427 -0.3590  2.2136 -1.9809
 4748TIP3    H235804   3.439   3.820   1.488  0.2885 -2.7638  1.1380
 4749TIP3   OH235805   0.685   4.475   6.040 -0.3907 -0.1512  0.1152
 4749TIP3    H135806   0.719   4.534   6.106 -1.5025  0.3916  0.2286
 4749TIP3    H235807   0.616   4.425   6.085 -0.3540 -0.6069 -0.3186
 4750TIP3   OH235808   0.117   1.421   6.754 -0.2976 -0.1315  0.3959
 4750TIP3    H135809   0.135   1.331   6.782 -1.3862 -1.0262 -1.5923
 4750TIP3    H235810   0.154   1.426   6.666 -1.6187  0.8591 -0.1233
 4751TIP3   OH235811   5.267   6.645   1.184  0.6247 -0.2522 -0.5037
 4751TIP3    H135812   5.319   6.658   1.104  1.9863  0.6683  0.4619
 4751TIP3    H235813   5.321   6.587   1.238 -0.5621 -1.3629 -0.4780
 4752TIP3   OH235814   0.400   3.479   1.927  0.3587  0.0075  0.5193
 4752TIP3    H135815   0.421   3.386   1.912 -0.0311 -0.1248  0.7889
 4752TIP3    H235816   0.442   3.500   2.011  2.6896  0.7950 -0.7521
 4753TIP3   OH235817   0.968   3.482   7.244 -0.5408 -0.8647  0.0565
 4753TIP3    H135818   0.953   3.542   7.317  1.4849  0.4526 -0.5248
 4753TIP3    H235819   0.899   3.503   7.181  0.5825  1.5152 -0.4827
 4754TIP3   OH235820   5.817   1.685   7.315  0.0789 -0.5005 -0.2344
 4754TIP3    H135821   5.739   1.629   7.307  1.4056 -2.4165 -0.6034
 4754TIP3    H235822   5.811   1.744   7.240 -0.1575 -1.8092 -1.2885
 4755TIP3   OH235823   0.353   6.621   0.521  0.5583 -0.1994  0.5400
 4755TIP3    H135824   0.304   6.585   0.595  1.0748  0.0933  1.0312
 4755TIP3    H235825   0.354   6.715   0.537 -0.7847  0.0634 -0.7394
 4756TIP3   OH235826   3.034   3.422   7.260 -0.1025 -0.1850  0.0199
 4756TIP3    H135827   3.060   3.396   7.348 -0.3769  1.8530  0.7639
 4756TIP3    H235828   3.113   3.460   7.221 -0.6782  1.6569  0.5391
 4757TIP3   OH235829   3.331   3.570   1.326  0.0080  0.6488 -0.6444
 4757TIP3    H135830   3.255   3.585   1.382  0.6511  1.8585 -0.0443
 4757TIP3    H235831   3.391   3.642   1.348  0.2640  1.2179 -2.9693
 4758TIP3   OH235832   2.326   2.289   0.734 -0.3752 -0.4854  0.0458
 4758TIP3    H135833   2.407   2.250   0.700  0.1128  0.5240  0.0219
 4758TIP3    H235834   2.353   2.372   0.772 -1.3713 -0.2345  0.2364
 4759TIP3   OH235835   0.648   0.393   7.606 -0.0957  0.4453 -0.5205
 4759TIP3    H135836   0.582   0.460   7.618 -0.7101  0.0374 -1.4626
 4759TIP3    H235837   0.687   0.380   7.692 -1.9197  0.0050  0.2732
 4760TIP3   OH235838   5.426   3.959   2.369 -0.4884  0.0212  0.2501
 4760TIP3    H135839   5.335   3.932   2.359 -0.4607 -1.8845  3.6341
 4760TIP3    H235840   5.426   4.017   2.445  0.9602  1.3557 -0.7005
 4761TIP3   OH235841   1.709   4.318   7.902 -0.0482 -0.0274 -0.5741
 4761TIP3    H135842   1.673   4.335   7.815 -0.5780 -0.0378 -0.3567
 4761TIP3    H235843   1.668   4.384   7.958 -0.5922 -0.7568 -0.1095
 4762TIP3   OH235844   2.778   3.302   2.003 -0.0890  0.5798  0.0031
 4762TIP3    H135845   2.874   3.302   2.002 -0.0495  1.3939  1.7501
 4762TIP3    H235846   2.754   3.210   2.014  0.5472  0.5841  1.5318
 4763TIP3   OH235847   1.177   0.831   0.391 -0.0063 -0.8784  0.0808
 4763TIP3    H135848   1.267   0.820   0.423  0.2435 -2.0724 -0.9979
 4763TIP3    H235849   1.122   0.819   0.469  0.7695  1.0878  1.0179
 4764TIP3   OH235850   6.446   2.383   7.644 -0.3889  0.7975  0.8764
 4764TIP3    H135851   6.525   2.358   7.692 -0.9076  0.4980  1.5996
 4764TIP3    H235852   6.462   2.473   7.616  1.5238 -0.2279 -1.7692
 4765TIP3   OH235853   0.732   3.597   8.184 -0.6230  0.2698  0.0853
 4765TIP3    H135854   0.641   3.593   8.156 -0.3537  2.1411 -1.2343
 4765TIP3    H235855   0.737   3.676   8.238 -0.0708 -0.6749  1.5089
 4766TIP3   OH235856   3.900   0.823   0.030  0.3187 -0.0643 -0.2249
 4766TIP3    H135857   3.830   0.808  -0.034 -1.7205  0.4827  1.7397
 4766TIP3    H235858   3.968   0.760   0.006  0.2834  0.9501 -3.6522
 4767TIP3   OH235859   2.229   1.499   7.862 -0.0495  0.1920 -0.8234
 4767TIP3    H135860   2.217   1.522   7.770  0.7141  0.9547 -0.7423
 4767TIP3    H235861   2.243   1.582   7.906 -1.0151 -0.1092  0.0958
 4768TIP3   OH235862   4.636   3.150   1.950 -0.4012 -0.5319 -0.3306
 4768TIP3    H135863   4.708   3.197   1.908 -0.8079  1.0934  0.7134
 4768TIP3    H235864   4.559   3.173   1.899 -0.5812 -0.1724  0.1019
 4769TIP3   OH235865   5.561   5.585   1.833  0.5572  0.1404 -0.0501
 4769TIP3    H135866   5.475   5.570   1.793  0.8177 -0.5462 -0.3502
 4769TIP3    H235867   5.560   5.678   1.856  0.0638  0.3366 -0.8314
 4770TIP3   OH235868   5.180   3.879   2.069  0.1216  0.2397 -0.8748
 4770TIP3    H135869   5.195   3.794   2.028  1.1723 -0.1152  0.1787
 4770TIP3    H235870   5.266   3.921   2.071  0.0603  0.3675  0.6066
 4771TIP3   OH235871   6.028   0.892   0.930  0.1791  0.7968 -0.0430
 4771TIP3    H135872   6.018   0.823   0.995  1.2119  1.8505  1.3168
 4771TIP3    H235873   6.119   0.886   0.902  0.6381  2.2598  0.9644
 4772TIP3   OH235874   6.307   4.042   1.114 -0.0930  0.3364  0.3824
 4772TIP3    H135875   6.346   4.108   1.171 -0.5206  0.2691  0.7566
 4772TIP3    H235876   6.281   3.971   1.173 -2.2401  1.0550  0.3924
 4773TIP3   OH235877   4.594   2.245   2.172  0.6077 -0.5514  0.4047
 4773TIP3    H135878   4.501   2.259   2.184  0.6329 -0.8411  0.9627
 4773TIP3    H235879   4.600   2.161   2.124  0.4723  1.0190 -2.6230
 4774TIP3   OH235880   0.617   3.323   1.367 -0.2720  0.3822 -0.1142
 4774TIP3    H135881   0.603   3.415   1.386 -0.8499  0.3435 -0.3154
 4774TIP3    H235882   0.538   3.279   1.400 -1.6247  0.3815 -2.9761
 4775TIP3   OH235883   0.322   4.261   0.601  0.2833 -0.7529  0.0727
 4775TIP3    H135884   0.387   4.289   0.666  0.1694  1.5527 -0.7183
 4775TIP3    H235885   0.368   4.269   0.517 -0.8793  0.4765 -0.4627
 4776TIP3   OH235886   1.708   2.242   8.266  0.3499 -0.0121 -0.4948
 4776TIP3    H135887   1.707   2.318   8.208 -2.1826  0.2305 -0.2188
 4776TIP3    H235888   1.689   2.277   8.353  0.7771 -0.7808 -0.0800
 4777TIP3   OH235889   1.998   1.873   1.738  0.1539  1.0498 -0.6091
 4777TIP3    H135890   1.962   1.793   1.774  0.4276  0.6431 -1.2073
 4777TIP3    H235891   2.074   1.844   1.686  1.5562  1.8953  0.8759
 4778TIP3   OH235892   3.458   2.558   0.913  0.4457 -0.1568 -0.5940
 4778TIP3    H135893   3.477   2.512   0.994  0.7557 -2.0008 -1.6513
 4778TIP3    H235894   3.543   2.596   0.887  0.8525 -1.3564 -1.0959
 4779TIP3   OH235895   1.823   6.634   7.055 -0.0417  0.2956  0.5335
 4779TIP3    H135896   1.758   6.698   7.084 -0.0682  0.1034  0.8953
 4779TIP3    H235897   1.890   6.687   7.011 -0.3775  0.5070  0.2678
 4780TIP3   OH235898   6.387   0.628   1.955 -0.1517  0.7103 -0.1473
 4780TIP3    H135899   6.423   0.654   1.870  2.2324 -0.9955  0.2361
 4780TIP3    H235900   6.426   0.542   1.972 -1.1222  0.6778  2.3664
 4781TIP3   OH235901   4.409   0.523   7.600  0.0688 -0.1918  0.4229
 4781TIP3    H135902   4.358   0.536   7.520  1.2367  1.1074 -0.1566
 4781TIP3    H235903   4.412   0.428   7.611 -0.3018 -0.3956 -0.9683
 4782TIP3   OH235904   6.743   4.596   0.873  0.0723 -0.3096 -0.6414
 4782TIP3    H135905   6.786   4.665   0.924  0.7601 -0.3042 -1.2017
 4782TIP3    H235906   6.815   4.554   0.825  0.0269 -2.9310  1.4012
 4783TIP3   OH235907   5.015   6.666   7.396  0.0640 -0.0197 -0.0130
 4783TIP3    H135908   5.012   6.741   7.337  0.7558 -0.4737 -0.6389
 4783TIP3    H235909   4.983   6.593   7.343  1.0344 -0.5008  0.0572
 4784TIP3   OH235910   2.737   0.360   7.266  0.0072 -0.3095  0.0028
 4784TIP3    H135911   2.727   0.454   7.279  0.0827 -0.3943  0.7645
 4784TIP3    H235912   2.702   0.343   7.179 -1.0181  0.2664  0.2896
 4785TIP3   OH235913   6.835   2.323   0.421  0.2022 -1.1528  0.0279
 4785TIP3    H135914   6.910   2.371   0.457 -0.2606 -0.6631  0.3474
 4785TIP3    H235915   6.809   2.374   0.344 -0.4639 -0.7328  0.5267
 4786TIP3   OH235916   3.226   6.196   7.561 -0.1403 -0.4601 -0.0782
 4786TIP3    H135917   3.321   6.204   7.555 -0.1493 -0.5304 -0.3452
 4786TIP3    H235918   3.203   6.132   7.494 -0.2322 -1.5602  0.9809
 4787TIP3   OH235919   4.574   4.495   0.308 -0.0289 -0.3484 -0.4291
 4787TIP3    H135920   4.539   4.408   0.324 -0.4149  0.0573  1.1386
 4787TIP3    H235921   4.525   4.527   0.233 -0.1113 -1.3450 -0.8142
 4788TIP3   OH235922   0.677   5.524   7.537 -0.4589 -0.0476 -0.1265
 4788TIP3    H135923   0.633   5.521   7.452 -1.6526 -1.6080  0.5047
 4788TIP3    H235924   0.626   5.587   7.588  0.5978  1.3246 -0.7081
 4789TIP3   OH235925   4.107   0.921   1.131 -0.4254  0.3826  0.0676
 4789TIP3    H135926   4.125   0.926   1.037 -0.7736 -0.3949 -0.0433
 4789TIP3    H235927   4.092   0.828   1.148  1.4789  0.2359  1.2309
 4790TIP3   OH235928   6.719   6.728   0.296  0.0422 -0.0486 -0.5198
 4790TIP3    H135929   6.644   6.714   0.238 -0.9130 -0.1832  0.7233
 4790TIP3    H235930   6.748   6.639   0.319 -1.8796 -0.0940  2.0812
 4791TIP3   OH235931   5.498   4.488   7.720 -0.0484 -0.4160 -0.2557
 4791TIP3    H135932   5.428   4.536   7.763 -0.8346 -1.1172 -0.7326
 4791TIP3    H235933   5.489   4.511   7.627  2.2609  1.9140 -0.0483
 4792TIP3   OH235934   1.131   0.386   1.727  0.1112  0.3661  0.3004
 4792TIP3    H135935   1.211   0.423   1.766 -0.0151 -0.0068  0.9228
 4792TIP3    H235936   1.159   0.354   1.641  0.4984  0.7656  0.2712
 4793TIP3   OH235937   2.412   3.450   7.862 -0.0423 -0.1273  0.6336
 4793TIP3    H135938   2.464   3.451   7.782 -0.5173 -0.8153  0.3004
 4793TIP3    H235939   2.448   3.519   7.916  1.0745 -0.4568  0.3249
 4794TIP3   OH235940   1.944   5.670   1.240  0.8093 -0.3950  0.3618
 4794TIP3    H135941   1.976   5.758   1.263  0.4830 -0.4091  0.8612
 4794TIP3    H235942   1.903   5.637   1.319 -0.5932 -0.3214 -0.2988
 4795TIP3   OH235943   2.407   6.439   1.537 -0.0263 -0.2199 -0.2500
 4795TIP3    H135944   2.499   6.420   1.553 -0.0210 -0.4269 -0.5080
 4795TIP3    H235945   2.390   6.404   1.449 -0.4625 -0.5906 -0.0281
 4796TIP3   OH235946   2.177   3.702   1.253 -0.2376  0.1176  0.0763
 4796TIP3    H135947   2.093   3.701   1.208  0.3616 -0.9870 -1.0847
 4796TIP3    H235948   2.237   3.744   1.191  0.5235 -1.1013 -0.0612
 4797TIP3   OH235949   5.777   2.670   1.700 -0.3248  0.2926 -0.0523
 4797TIP3    H135950   5.710   2.738   1.697 -1.2081 -0.5064  0.5984
 4797TIP3    H235951   5.732   2.595   1.739  0.6008 -0.6835 -0.8077
 4798TIP3   OH235952   0.495   5.178   7.102  0.2587 -0.8185  0.4987
 4798TIP3    H135953   0.572   5.128   7.130 -1.0929 -2.5606  1.2443
 4798TIP3    H235954   0.474   5.144   7.015  0.1630 -0.5399  0.4115
 4799TIP3   OH235955   5.763   0.525   1.651 -0.6037  0.0644 -0.0789
 4799TIP3    H135956   5.682   0.573   1.638 -0.6424  0.4265  1.3269
 4799TIP3    H235957   5.813   0.579   1.712  1.3672  0.6106 -2.0398
 4800TIP3   OH235958   3.074   6.904   8.083 -0.2756  0.6839 -0.0580
 4800TIP3    H135959   3.000   6.917   8.023 -0.0328  2.0933 -0.0889
 4800TIP3    H235960   3.053   6.960   8.158  0.4399  0.5641  0.2340
 4801TIP3   OH235961   3.862   5.007   7.115  0.3898  0.0415  0.2656
 4801TIP3    H135962   3.811   5.074   7.070 -0.8064 -0.3161  1.0343
 4801TIP3    H235963   3.804   4.930   7.116  0.9832 -0.4111  1.0707
 4802TIP3   OH235964   1.717   4.220   0.082 -0.2726 -0.9334  0.3880
 4802TIP3    H135965   1.661   4.203   0.158  0.9353 -2.6596  0.9589
 4802TIP3    H235966   1.791   4.269   0.117  1.2533 -3.3864  0.7935
 4803TIP3   OH235967   4.949   1.437   1.309 -0.8643 -0.4281 -0.3226
 4803TIP3    H135968   4.898   1.355   1.306 -1.8046  0.1721 -1.3774
 4803TIP3    H235969   5.008   1.432   1.234  0.4921 -0.9949  0.7396
 4804TIP3   OH235970   1.993   6.616   2.094  0.1678 -0.3408  0.2031
 4804TIP3    H135971   1.963   6.602   2.184  1.1359  1.0491  0.7754
 4804TIP3    H235972   2.080   6.656   2.104  0.0222  0.4125 -1.3372
 4805TIP3   OH235973   4.325   2.037   0.218  0.2834 -0.0352 -0.5748
 4805TIP3    H135974   4.292   1.967   0.275 -1.1359  0.6064 -0.5677
 4805TIP3    H235975   4.328   2.114   0.274 -0.1187  0.3629 -1.0923
 4806TIP3   OH235976   1.674   6.369   6.964  0.0537 -0.2951  0.0085
 4806TIP3    H135977   1.657   6.338   7.052 -2.3430  1.5164  0.2923
 4806TIP3    H235978   1.632   6.304   6.907 -0.8408 -0.0217  0.3509
 4807TIP3   OH235979   4.627   5.386   0.950  0.3355  0.2831 -0.1116
 4807TIP3    H135980   4.599   5.457   1.008  1.1559 -0.0643  0.7365
 4807TIP3    H235981   4.550   5.330   0.942 -0.1168  0.9122 -0.2508
 4808TIP3   OH235982   5.035   0.878   7.981 -0.0592 -0.2888  0.2112
 4808TIP3    H135983   5.084   0.944   8.031  0.2327 -0.7388  0.5286
 4808TIP3    H235984   5.089   0.798   7.988 -1.2544 -1.0345  1.2923
 4809TIP3   OH235985   2.254   2.572   1.391 -0.7496  0.1162  0.0299
 4809TIP3    H135986   2.178   2.521   1.364  0.3478 -0.4481 -2.2387
 4809TIP3    H235987   2.327   2.532   1.344  0.8453  1.0830  1.5962
 4810TIP3   OH235988   0.029   5.005   7.765 -0.0024 -0.1059  0.6572
 4810TIP3    H135989   0.084   5.053   7.827  1.0267 -0.7975  0.3156
 4810TIP3    H235990   0.056   5.038   7.679  0.9819 -1.4956  0.3908
 4811TIP3   OH235991   5.772   1.678   2.529  0.2619  0.1743 -0.5436
 4811TIP3    H135992   5.760   1.656   2.436 -0.0445 -1.7005 -0.0886
 4811TIP3    H235993   5.695   1.642   2.572  1.0143 -0.0724  0.6202
 4812TIP3   OH235994   1.513   3.464   0.869  0.5508  0.2672 -0.0833
 4812TIP3    H135995   1.603   3.435   0.854  1.1523  1.8822  0.1726
 4812TIP3    H235996   1.501   3.455   0.964 -0.0129 -1.1176 -0.2642
 4813TIP3   OH235997   6.725   2.981   0.420 -0.4866 -0.0341 -0.1586
 4813TIP3    H135998   6.801   3.016   0.373  0.7561 -0.5691  1.3796
 4813TIP3    H235999   6.694   2.909   0.365 -0.4830  0.7763 -1.2594
 4814TIP3   OH236000   1.301   6.003   1.462  0.6887  0.2215  0.3134
 4814TIP3    H136001   1.262   6.082   1.500 -2.7777  0.7452 -3.6064
 4814TIP3    H236002   1.359   6.036   1.393  0.0128 -0.6068 -0.6739
 4815TIP3   OH236003   5.241   0.621   2.718 -0.0065  0.7622  0.8010
 4815TIP3    H136004   5.200   0.583   2.641 -0.3367 -1.4960  1.9996
 4815TIP3    H236005   5.334   0.623   2.697  0.0920 -1.2607  0.8453
 4816TIP3   OH236006   1.953   6.181   7.257 -0.0328 -0.0887 -0.5552
 4816TIP3    H136007   1.870   6.218   7.288  0.5168  1.4557 -0.8376
 4816TIP3    H236008   2.018   6.211   7.320  0.4735 -0.3451 -0.9468
 4817TIP3   OH236009   0.119   3.281   6.741  0.5839 -0.0443 -0.0241
 4817TIP3    H136010   0.138   3.191   6.767  2.3389  0.3214  0.0726
 4817TIP3    H236011   0.181   3.299   6.671  0.1403  1.0512 -0.1563
 4818TIP3   OH236012   5.277   3.447   2.203  0.2248 -0.3920  0.0848
 4818TIP3    H136013   5.319   3.398   2.132  0.3002  2.2367 -1.8568
 4818TIP3    H236014   5.267   3.383   2.274 -0.2608 -3.3457 -2.3997
 4819TIP3   OH236015   1.979   3.233   0.741  0.5333  0.0831  0.0318
 4819TIP3    H136016   1.996   3.318   0.701  1.0291  0.1472  0.3683
 4819TIP3    H236017   2.003   3.245   0.833  0.9381 -0.5196  0.0059
 4820TIP3   OH236018   2.879   2.453   2.337  0.0309  0.6405  0.1152
 4820TIP3    H136019   2.791   2.428   2.365  0.6539 -0.5222  1.1108
 4820TIP3    H236020   2.907   2.519   2.401  0.8134 -0.8139  1.3449
 4821TIP3   OH236021   6.765   2.509   8.133  0.1360 -0.2641  0.2187
 4821TIP3    H136022   6.805   2.425   8.114 -0.2618 -0.2787 -0.5696
 4821TIP3    H236023   6.694   2.489   8.193 -1.0742 -0.7313 -1.3275
 4822TIP3   OH236024   3.271   2.006   7.712  0.0027 -0.3821 -0.2038
 4822TIP3    H136025   3.312   1.923   7.689 -0.7202 -0.2857 -2.0436
 4822TIP3    H236026   3.305   2.026   7.799  1.9560 -1.4763 -0.6381
 4823TIP3   OH236027   4.851   1.916   2.161  0.3323  0.1072 -0.0708
 4823TIP3    H136028   4.783   1.897   2.096 -0.2653  1.4575  0.1261
 4823TIP3    H236029   4.845   1.845   2.224  0.1644 -0.6200 -0.8917
 4824TIP3   OH236030   0.101   4.811   0.930 -0.5806 -0.4416  0.1192
 4824TIP3    H136031   0.163   4.790   1.000 -0.9901  0.6564  0.8368
 4824TIP3    H236032   0.108   4.906   0.920 -0.0849 -0.6341 -1.7693
 4825TIP3   OH236033   6.328   3.217   0.364 -0.1788 -0.5249  0.3155
 4825TIP3    H136034   6.348   3.173   0.282  2.0588  0.2397  0.3873
 4825TIP3    H236035   6.388   3.179   0.428 -1.5978 -0.8169  1.5333
 4826TIP3   OH236036   3.154   1.922   0.979  0.5625 -0.1521 -0.1513
 4826TIP3    H136037   3.245   1.953   0.986  0.9848 -1.6063  1.3099
 4826TIP3    H236038   3.109   1.992   0.931  2.2288  1.0598 -0.0481
 4827TIP3   OH236039   0.276   6.679   1.960  0.1093  0.2994 -0.5455
 4827TIP3    H136040   0.323   6.708   2.039  0.2448  0.5832 -0.7274
 4827TIP3    H236041   0.253   6.760   1.915  0.7609  0.1277 -1.2170
 4828TIP3   OH236042   2.221   4.086   2.377 -0.0359  0.0438 -1.3126
 4828TIP3    H136043   2.315   4.097   2.384 -0.2190  1.1649 -0.1838
 4828TIP3    H236044   2.201   4.012   2.435 -0.0100  0.8469 -0.2408
 4829TIP3   OH236045   4.031   2.476   2.472 -0.2165  0.2394 -0.3402
 4829TIP3    H136046   3.943   2.443   2.455  0.3029 -1.0304 -0.7296
 4829TIP3    H236047   4.029   2.502   2.564 -1.0470  0.3849 -0.3933
 4830TIP3   OH236048   6.914   1.103   6.957 -0.8511 -0.1653  0.8595
 4830TIP3    H136049   6.887   1.057   7.037 -0.4402 -0.0622  1.0600
 4830TIP3    H236050   6.884   1.193   6.970 -0.0442  0.0549  1.2759
 4831TIP3   OH236051   1.316   2.408   1.841  0.3826 -0.1266  0.3078
 4831TIP3    H136052   1.305   2.373   1.930 -0.7806  0.5735  0.4480
 4831TIP3    H236053   1.248   2.364   1.790  0.1576  0.4975  0.0693
 4832TIP3   OH236054   1.463   5.222   7.193  0.2922  0.2134  0.3467
 4832TIP3    H136055   1.409   5.300   7.183 -1.0637 -0.4739  1.8544
 4832TIP3    H236056   1.535   5.235   7.132 -0.4547  2.1462 -0.2032
 4833TIP3   OH236057   0.420   5.588   7.619 -0.0580  0.5200 -0.2903
 4833TIP3    H136058   0.417   5.532   7.542 -1.8460 -0.9795  0.7771
 4833TIP3    H236059   0.373   5.539   7.687  3.6066  0.5812  2.6273
 4834TIP3   OH236060   0.002   4.647   0.739 -0.5206  0.5099 -0.1883
 4834TIP3    H136061   0.050   4.565   0.725  0.8617  1.5736 -2.0948
 4834TIP3    H236062   0.049   4.691   0.810 -1.0754 -0.1584  0.6202
 4835TIP3   OH236063   3.229   0.605   1.890  0.1697  0.3365  0.1860
 4835TIP3    H136064   3.139   0.602   1.857  0.2011  1.3087 -0.0060
 4835TIP3    H236065   3.251   0.513   1.907 -0.5045 -0.0136 -0.7318
 4836TIP3   OH236066   3.878   6.585   2.016  0.4357 -0.1682 -0.3898
 4836TIP3    H136067   3.844   6.605   2.103  0.5898 -0.2978 -0.2990
 4836TIP3    H236068   3.948   6.521   2.032  0.0853 -0.6253 -0.6544
 4837TIP3   OH236069   2.313   0.112   7.256 -0.1343  0.2381 -0.2487
 4837TIP3    H136070   2.329   0.088   7.165 -0.0672  0.9336 -0.4309
 4837TIP3    H236071   2.274   0.034   7.296  1.5575 -0.7234 -0.3778
 4838TIP3   OH236072   2.590   5.389   1.311  0.2995  0.4019  0.0307
 4838TIP3    H136073   2.502   5.387   1.274  1.5014 -1.1757 -3.1305
 4838TIP3    H236074   2.602   5.304   1.352  0.3254  0.6779  0.6098
 4839TIP3   OH236075   5.873   1.443   1.027  0.0577 -0.3255  0.3558
 4839TIP3    H136076   5.804   1.489   0.980  0.7075 -0.2386 -0.5419
 4839TIP3    H236077   5.953   1.465   0.980  0.4755 -1.8714  0.2623
 4840TIP3   OH236078   0.968   3.803   0.737  0.6764 -0.1327 -0.5579
 4840TIP3    H136079   1.049   3.762   0.766  1.3241  0.3183 -1.6957
 4840TIP3    H236080   0.937   3.747   0.666  0.6801  0.4123 -0.9913
 4841TIP3   OH236081   1.713   2.791   7.932 -0.1141 -0.2879 -0.1059
 4841TIP3    H136082   1.741   2.743   7.854  2.8025 -2.5660  2.1068
 4841TIP3    H236083   1.794   2.812   7.978 -1.7009  0.9957  2.3416
 4842TIP3   OH236084   4.851   4.289   7.147  0.2782 -0.3834 -0.2179
 4842TIP3    H136085   4.891   4.243   7.073  1.9074  1.1120 -0.3440
 4842TIP3    H236086   4.804   4.362   7.107  0.8545  0.2128  0.1699
 4843TIP3   OH236087   3.139   5.022   7.710  0.8222 -0.2024 -0.1951
 4843TIP3    H136088   3.227   5.017   7.746  1.5896 -1.0516 -2.0433
 4843TIP3    H236089   3.124   5.116   7.696  1.5789 -0.0816 -0.2098
 4844TIP3   OH236090   1.549   2.559   0.593 -0.4933 -0.3152  0.2490
 4844TIP3    H136091   1.508   2.644   0.607  0.6971  0.4106 -0.5965
 4844TIP3    H236092   1.493   2.498   0.643 -1.4256  0.9145  0.7706
 4845TIP3   OH236093   4.254   2.755   0.135 -0.2255 -0.3780 -0.3049
 4845TIP3    H136094   4.292   2.696   0.200  1.3669 -2.7586 -3.1277
 4845TIP3    H236095   4.330   2.801   0.097 -0.9609  0.0965 -1.2605
 4846TIP3   OH236096   3.863   3.874   0.543  0.6685 -0.4274 -0.1192
 4846TIP3    H136097   3.811   3.814   0.489  1.4516  0.0099 -1.3987
 4846TIP3    H236098   3.801   3.904   0.611 -0.1956 -1.3786 -0.4581
 4847TIP3   OH236099   3.034   6.334   7.746  0.1145 -0.1999  0.5297
 4847TIP3    H136100   3.091   6.285   7.686 -2.1299 -0.4760 -1.5717
 4847TIP3    H236101   2.987   6.266   7.794  0.6232  0.0067  1.3326
 4848TIP3   OH236102   5.553   3.315   6.802 -1.0357  0.0398 -0.3646
 4848TIP3    H136103   5.630   3.273   6.840 -2.5614 -1.0712  1.7449
 4848TIP3    H236104   5.544   3.275   6.716  0.3282 -0.3494 -0.3534
 4849TIP3   OH236105   1.828   1.945   2.789 -0.1410 -0.3640 -0.1432
 4849TIP3    H136106   1.919   1.936   2.816  0.1019  0.6195 -0.5962
 4849TIP3    H236107   1.804   2.035   2.813 -0.6420 -0.2495 -1.0413
 4850TIP3   OH236108   0.131   3.873   8.061  0.0023 -0.3033  0.9264
 4850TIP3    H136109   0.221   3.872   8.094 -0.2228 -1.5374  1.5602
 4850TIP3    H236110   0.105   3.965   8.065  1.0392 -0.0092  1.2793
 4851TIP3   OH236111   4.012   2.742   6.195  0.3665 -0.4449 -0.2018
 4851TIP3    H136112   3.969   2.660   6.170 -0.8767 -0.2153  1.0310
 4851TIP3    H236113   3.942   2.807   6.190  1.8847  1.2040 -3.8849
 4852TIP3   OH236114   5.421   6.557   7.778 -0.0374 -0.1535  0.3941
 4852TIP3    H136115   5.327   6.571   7.791  0.1448  1.0310  0.5166
 4852TIP3    H236116   5.438   6.470   7.815 -0.9377 -0.0452  1.0880
 4853TIP3   OH236117   5.186   4.185   7.700 -0.5479 -0.0476 -0.2705
 4853TIP3    H136118   5.250   4.231   7.645 -0.4758  0.8145  0.5008
 4853TIP3    H236119   5.104   4.232   7.686 -0.3821  0.6217  0.8469
 4854TIP3   OH236120   0.657   3.505   1.810  0.1297 -0.3361  0.6410
 4854TIP3    H136121   0.705   3.511   1.893 -0.4321 -0.4183  0.9797
 4854TIP3    H236122   0.567   3.527   1.833 -0.4974 -2.5193  0.4766
 4855TIP3   OH236123   6.545   5.833   7.204  0.1591 -0.3667  0.0261
 4855TIP3    H136124   6.466   5.806   7.251  1.1344 -2.3616  0.6549
 4855TIP3    H236125   6.515   5.849   7.115 -1.0428 -0.6125  0.3620
 4856TIP3   OH236126   0.719   3.420   0.293 -0.4585  0.4377  0.4166
 4856TIP3    H136127   0.749   3.511   0.282 -2.1847  1.0141  0.1747
 4856TIP3    H236128   0.624   3.427   0.305 -1.0470 -1.4912 -2.1863
 4857TIP3   OH236129   0.954   2.091   6.769 -0.5013  0.1434 -0.0910
 4857TIP3    H136130   0.899   2.060   6.697 -0.7084  0.5163 -0.0958
 4857TIP3    H236131   1.004   2.163   6.732  0.4379 -0.5783 -0.2537
 4858TIP3   OH236132   3.450   0.631   6.694 -0.6524 -0.9375  0.3422
 4858TIP3    H136133   3.511   0.643   6.621  0.2148  0.6076  1.2602
 4858TIP3    H236134   3.364   0.653   6.658 -0.1309  0.6119 -0.0477
 4859TIP3   OH236135   2.737   1.669   7.436 -0.3819  0.4207  1.1425
 4859TIP3    H136136   2.744   1.753   7.389  1.5126  0.7025  1.8202
 4859TIP3    H236137   2.828   1.646   7.455 -0.7697 -2.3887 -0.0084
 4860TIP3   OH236138   0.500   3.168   0.492 -0.5642 -0.0849  0.6177
 4860TIP3    H136139   0.515   3.254   0.532  0.1608 -0.0580  0.2996
 4860TIP3    H236140   0.407   3.150   0.509 -0.8623  0.9981  0.2386
 4861TIP3   OH236141   3.573   6.592   0.764  0.2809  0.1776  0.4103
 4861TIP3    H136142   3.559   6.684   0.741 -0.0030 -0.3512 -1.7323
 4861TIP3    H236143   3.611   6.553   0.686 -1.2636 -1.9089  0.6090
 4862TIP3   OH236144   2.441   4.310   8.271 -0.0543  0.1849  0.1637
 4862TIP3    H136145   2.502   4.246   8.309 -0.2601 -0.0330  0.1354
 4862TIP3    H236146   2.403   4.264   8.196  0.6251  0.7473 -0.5321
 4863TIP3   OH236147   3.072   0.743   0.985  0.1203 -0.3422 -0.1940
 4863TIP3    H136148   3.064   0.782   0.899 -1.0547  0.0537  0.0693
 4863TIP3    H236149   3.127   0.803   1.035 -0.9538  0.5554 -0.0528
 4864TIP3   OH236150   5.897   0.009   0.790  0.1987  0.3143  0.3198
 4864TIP3    H136151   5.973   0.002   0.731 -0.0040 -0.4880  0.1447
 4864TIP3    H236152   5.824  -0.027   0.740 -0.2242  0.7278  0.6309
 4865TIP3   OH236153   0.416   1.864   2.934  0.5276  0.2170 -0.2865
 4865TIP3    H136154   0.364   1.787   2.909  1.3796 -0.0233 -1.4163
 4865TIP3    H236155   0.362   1.939   2.910 -0.7016  0.0188  1.6597
 4866TIP3   OH236156   3.970   1.057   1.745 -0.0161 -0.2041  0.5259
 4866TIP3    H136157   4.054   1.090   1.716 -0.1505  1.1062  1.5381
 4866TIP3    H236158   3.908   1.084   1.677  0.4107 -1.5348 -0.4300
 4867TIP3   OH236159   4.854   3.304   1.853 -0.5674 -0.3969 -0.0449
 4867TIP3    H136160   4.840   3.322   1.760  0.4693 -1.5358 -0.4436
 4867TIP3    H236161   4.948   3.313   1.865 -0.8033  0.6931  1.1265
 4868TIP3   OH236162   2.819   3.129   0.521  0.6656  0.3095 -0.2206
 4868TIP3    H136163   2.841   3.172   0.604  2.0915 -0.1308 -0.3603
 4868TIP3    H236164   2.859   3.043   0.527  1.9997  0.7682 -1.9230
 4869TIP3   OH236165   3.278   4.848   7.265  0.7302 -0.0213 -0.2148
 4869TIP3    H136166   3.325   4.767   7.285 -0.0500 -0.4671 -0.1673
 4869TIP3    H236167   3.214   4.856   7.336 -0.0940 -0.0685 -0.9474
 4870TIP3   OH236168   2.192   0.968   8.274  0.5030 -0.6055 -0.8957
 4870TIP3    H136169   2.188   0.960   8.178  0.5198  0.9609 -1.0479
 4870TIP3    H236170   2.279   1.002   8.292 -0.1701  1.0175 -0.5113
 4871TIP3   OH236171   6.483   0.333   1.159 -0.7751 -0.2927 -0.3893
 4871TIP3    H136172   6.442   0.415   1.188 -1.4996 -0.2124 -1.5574
 4871TIP3    H236173   6.536   0.358   1.084  1.8716 -0.3216  1.3306
 4872TIP3   OH236174   6.087   1.244   7.908  0.9040  0.0660  0.3633
 4872TIP3    H136175   6.166   1.215   7.953  1.1169 -1.3958 -0.8588
 4872TIP3    H236176   6.022   1.178   7.928  0.3976  0.5193  0.2350
 4873TIP3   OH236177   6.647   5.490   2.768  0.0061  0.0656 -0.0792
 4873TIP3    H136178   6.566   5.533   2.739 -0.4466  1.2548  2.5556
 4873TIP3    H236179   6.713   5.558   2.764 -0.1117  0.3379  1.6102
 4874TIP3   OH236180   6.682   6.857   0.007 -0.6089  0.2873  0.3205
 4874TIP3    H136181   6.740   6.847   0.083 -1.8953 -0.0624  1.2912
 4874TIP3    H236182   6.656   6.949   0.010 -1.4196  0.0444  0.8822
 4875TIP3   OH236183   4.265   4.997   1.282 -0.1141  0.1410 -0.7656
 4875TIP3    H136184   4.258   5.027   1.191 -0.0613  1.0372 -0.4850
 4875TIP3    H236185   4.245   4.903   1.278  1.3350 -0.1633 -1.9215
 4876TIP3   OH236186   6.561   1.843   7.196 -0.1092  0.1974  0.0385
 4876TIP3    H136187   6.524   1.825   7.282  2.2679 -0.6743  0.9753
 4876TIP3    H236188   6.601   1.929   7.204 -0.9608  0.6792 -0.6389
 4877TIP3   OH236189   1.511   5.479   2.001 -0.6009 -0.1541  0.1669
 4877TIP3    H136190   1.585   5.426   2.033 -0.1655  0.4629  0.1941
 4877TIP3    H236191   1.550   5.536   1.935 -1.2001 -0.3339 -0.3461
 4878TIP3   OH236192   2.477   3.172   0.556 -0.3043 -0.0618 -0.3161
 4878TIP3    H136193   2.440   3.122   0.629  1.6646  0.4209  1.1252
 4878TIP3    H236194   2.514   3.106   0.498 -0.1968 -0.3992  0.1260
 4879TIP3   OH236195   2.404   2.776   7.370 -0.1982 -0.1539  0.0886
 4879TIP3    H136196   2.471   2.755   7.304 -0.3324 -0.8581  0.1656
 4879TIP3    H236197   2.454   2.788   7.451 -0.0611  0.4325 -0.0775
 4880TIP3   OH236198   3.548   5.171   7.612  0.0824 -0.5223  0.1052
 4880TIP3    H136199   3.618   5.142   7.553 -1.8697 -3.7460 -0.8275
 4880TIP3    H236200   3.509   5.246   7.566  0.2060 -1.3986 -1.5307
 4881TIP3   OH236201   6.027   3.540   1.368  0.1220  0.0617 -0.1219
 4881TIP3    H136202   6.102   3.495   1.328  0.5592  1.1954 -0.6221
 4881TIP3    H236203   6.059   3.567   1.454 -0.0777 -0.4025  0.1014
 4882TIP3   OH236204   0.975   2.834   8.037 -0.3436  0.2931 -0.5772
 4882TIP3    H136205   0.999   2.883   7.958  0.4131 -1.0859 -1.2215
 4882TIP3    H236206   1.022   2.751   8.029 -0.2583  0.1260  1.3260
 4883TIP3   OH236207   6.859   6.096   1.860  0.0758  0.2944  0.5742
 4883TIP3    H136208   6.859   6.192   1.856  0.2633  0.3542  1.6480
 4883TIP3    H236209   6.938   6.069   1.814  0.3913  0.6930  0.8800
 4884TIP3   OH236210   1.758   2.498   8.157  0.4123 -0.3938  0.3949
 4884TIP3    H136211   1.777   2.566   8.221  0.8653  0.0157 -0.1627
 4884TIP3    H236212   1.840   2.488   8.109 -0.3413  0.3600 -1.1043
 4885TIP3   OH236213   2.137   5.824   7.361 -0.0688  0.4040  0.4985
 4885TIP3    H136214   2.148   5.827   7.266 -0.1936 -0.9927  0.4293
 4885TIP3    H236215   2.043   5.810   7.374  0.2233 -1.5991  0.7445
 4886TIP3   OH236216   5.965   3.328   1.137 -0.6591 -0.4763  0.1907
 4886TIP3    H136217   6.059   3.328   1.152 -0.1794  0.2241 -2.3649
 4886TIP3    H236218   5.938   3.419   1.149 -0.5959 -0.2676 -1.1133
 4887TIP3   OH236219   3.413   0.213   2.481  0.6358  0.2345 -0.3449
 4887TIP3    H136220   3.466   0.282   2.442  0.1048  0.3585 -0.8539
 4887TIP3    H236221   3.384   0.249   2.566  0.2723  0.6828 -0.6542
 4888TIP3   OH236222   0.235   5.052   0.119 -0.3735 -0.4527 -0.5130
 4888TIP3    H136223   0.310   5.043   0.178 -0.5670  0.1059 -0.1794
 4888TIP3    H236224   0.186   4.970   0.130 -1.0599  0.1263  1.0191
 4889TIP3   OH236225   2.330   3.980   8.173 -0.0445 -1.1241 -0.0345
 4889TIP3    H136226   2.305   3.997   8.263  0.1618 -2.8517  0.3866
 4889TIP3    H236227   2.255   4.011   8.121  0.5229  1.4415  0.5289
 4890TIP3   OH236228   3.020   1.031   7.731  0.6317 -0.4915  0.0580
 4890TIP3    H136229   3.104   0.986   7.722 -0.4687 -3.0092  1.3646
 4890TIP3    H236230   2.955   0.961   7.737 -1.2036  1.2328  2.5934
 4891TIP3   OH236231   3.366   0.631   1.648 -0.1515 -0.1517 -0.3330
 4891TIP3    H136232   3.438   0.633   1.710 -0.8428 -0.5443  0.5095
 4891TIP3    H236233   3.294   0.675   1.694 -0.5579 -0.0804 -1.0182
 4892TIP3   OH236234   6.750   5.242   1.367  0.0556 -0.1022 -0.2728
 4892TIP3    H136235   6.708   5.211   1.447 -0.5748 -1.7767 -1.2080
 4892TIP3    H236236   6.776   5.332   1.387 -1.9803  0.2446  1.1047
 4893TIP3   OH236237   3.407   0.507   7.821  0.1840  0.0936  0.1815
 4893TIP3    H136238   3.415   0.509   7.916  0.4366 -0.8267  0.1935
 4893TIP3    H236239   3.493   0.536   7.789  0.9811 -2.0056  0.2695
 4894TIP3   OH236240   0.164   5.848   0.334  0.3701  0.8452 -0.0169
 4894TIP3    H136241   0.089   5.832   0.277  0.2002 -0.9748  0.6486
 4894TIP3    H236242   0.155   5.939   0.360 -0.6184  1.1641 -1.3396
 4895TIP3   OH236243   1.236   3.781   7.568  0.2116  0.0397  0.1651
 4895TIP3    H136244   1.245   3.861   7.516  1.5377  0.9843  1.7558
 4895TIP3    H236245   1.325   3.747   7.576 -0.4194 -2.0445 -1.1015
 4896TIP3   OH236246   2.160   1.098   1.476 -0.1609 -0.1791 -0.4235
 4896TIP3    H136247   2.215   1.025   1.446  0.5876 -2.0721  4.5089
 4896TIP3    H236248   2.083   1.056   1.512 -0.9633  1.7493  0.2347
 4897TIP3   OH236249   1.422   0.072   1.704 -1.0739 -0.2952 -0.5419
 4897TIP3    H136250   1.490   0.131   1.736 -0.6194 -0.5201 -1.0802
 4897TIP3    H236251   1.422  -0.001   1.765 -0.0302 -0.8496 -1.1736
 4898TIP3   OH236252   1.936   1.090   0.786  0.1127 -0.8872 -0.5467
 4898TIP3    H136253   2.014   1.052   0.826 -0.6042  0.6645  2.6857
 4898TIP3    H236254   1.865   1.032   0.812 -0.2737 -0.2575 -0.1646
 4899TIP3   OH236255   5.989   2.626   0.798 -0.1129  0.3592 -0.5519
 4899TIP3    H136256   6.026   2.614   0.710 -0.3699 -2.9668 -0.3203
 4899TIP3    H236257   5.895   2.612   0.787 -0.0715 -0.7736  0.2933
 4900TIP3   OH236258   2.284   2.149   6.892  0.5148  0.0002  0.3338
 4900TIP3    H136259   2.338   2.076   6.862  0.3146 -0.1184  0.2622
 4900TIP3    H236260   2.209   2.150   6.833 -0.2372 -0.6777  1.2556
 4901TIP3   OH236261   5.740   4.870   1.591 -0.0691  0.7650  0.0766
 4901TIP3    H136262   5.712   4.954   1.555  0.8394  0.9563 -0.2220
 4901TIP3    H236263   5.822   4.850   1.546  0.7401  0.6729  1.5101
 4902TIP3   OH236264   3.467   6.254   0.212 -0.3157  0.2662 -0.5277
 4902TIP3    H136265   3.403   6.233   0.280  0.1770  0.5721  0.0475
 4902TIP3    H236266   3.503   6.170   0.185  0.1646  0.1943  0.2814
 4903TIP3   OH236267   4.014   5.761   1.568 -0.0419  0.0942  0.0868
 4903TIP3    H136268   4.001   5.853   1.594  1.9955 -0.0803  2.0683
 4903TIP3    H236269   3.927   5.723   1.567 -0.7467  1.5976  1.1043
 4904TIP3   OH236270   3.498   3.701   0.038  0.0103  0.0713  0.2834
 4904TIP3    H136271   3.405   3.676   0.030 -0.0390 -0.1491  1.4542
 4904TIP3    H236272   3.500   3.793   0.011  0.0273 -0.7588 -3.0760
 4905TIP3   OH236273   3.228   5.571   1.288 -0.1009  0.1945 -0.3956
 4905TIP3    H136274   3.208   5.574   1.381  1.2676  0.6102 -0.0855
 4905TIP3    H236275   3.309   5.622   1.279  0.5869 -1.0269 -1.5788
 4906TIP3   OH236276   6.907   5.121   0.899  0.6002  0.4795 -0.0618
 4906TIP3    H136277   6.965   5.087   0.831 -1.9133 -0.1111 -2.0769
 4906TIP3    H236278   6.888   5.211   0.871  0.3350  0.5855  0.4400
 4907TIP3   OH236279   2.938   4.462   0.464  0.3312  0.3248  0.5738
 4907TIP3    H136280   2.957   4.384   0.517 -1.3497 -0.3439  0.2441
 4907TIP3    H236281   2.975   4.442   0.378  1.0675  0.4539  0.8564
 4908TIP3   OH236282   0.408   4.429   7.215  0.1000 -0.4818 -0.4796
 4908TIP3    H136283   0.455   4.512   7.225  1.2015 -0.8786 -1.9893
 4908TIP3    H236284   0.356   4.421   7.295  0.6877  1.2059  0.1123
 4909TIP3   OH236285   2.089   3.629   0.327  0.0759  0.2895  0.9621
 4909TIP3    H136286   2.026   3.563   0.298  0.9672 -0.9308  1.7020
 4909TIP3    H236287   2.084   3.698   0.261  0.4056 -1.3393 -0.8520
 4910TIP3   OH236288   6.546   2.266   8.137  0.3998  0.3000  0.1883
 4910TIP3    H136289   6.503   2.335   8.188  0.9197  0.1671  0.8196
 4910TIP3    H236290   6.633   2.257   8.177  1.3650  1.1657 -1.5707
 4911TIP3   OH236291   4.569   2.045   7.279  0.6666 -0.3115 -0.0154
 4911TIP3    H136292   4.625   2.106   7.326 -0.5678 -0.8190  2.2467
 4911TIP3    H236293   4.480   2.076   7.296  0.1297 -0.9721 -1.4176
 4912TIP3   OH236294   5.042   2.205   2.506 -0.3198 -0.0877  0.5141
 4912TIP3    H136295   5.067   2.219   2.415 -2.1829 -0.9559 -0.1804
 4912TIP3    H236296   5.020   2.292   2.539 -1.2969  0.0421 -0.4229
 4913TIP3   OH236297   1.002   3.382   2.709 -0.5701  0.0352 -0.0880
 4913TIP3    H136298   0.959   3.392   2.794  0.2344  0.2907  0.2937
 4913TIP3    H236299   1.052   3.463   2.698 -2.7002  1.2267 -2.0144
 4914TIP3   OH236300   1.129   0.104   7.246 -0.0135 -0.3333 -0.1469
 4914TIP3    H136301   1.220   0.134   7.258  0.4097 -2.1776  1.8991
 4914TIP3    H236302   1.137   0.015   7.213 -0.9588 -1.2392  1.8615
 4915TIP3   OH236303   6.183   7.000   1.620  0.5557 -0.4354  0.4260
 4915TIP3    H136304   6.132   7.060   1.674  2.7238  1.8539  0.1273
 4915TIP3    H236305   6.135   6.995   1.537  0.6531  1.5057  0.2031
 4916TIP3   OH236306   0.363   0.512   0.514 -0.3140 -0.7281  1.0630
 4916TIP3    H136307   0.275   0.549   0.513 -1.4799 -3.2717  1.0778
 4916TIP3    H236308   0.360   0.443   0.447  2.0705 -0.0507  0.1884
 4917TIP3   OH236309   3.288   0.474   1.186  0.3994 -0.1009  0.5392
 4917TIP3    H136310   3.311   0.402   1.246 -2.0251 -0.8396  0.7009
 4917TIP3    H236311   3.286   0.552   1.242 -0.0791 -0.4774  1.0580
 4918TIP3   OH236312   2.611   3.124   2.761  0.7642 -0.1575  0.0369
 4918TIP3    H136313   2.625   3.214   2.730 -0.0753  0.3629  1.1135
 4918TIP3    H236314   2.676   3.113   2.830 -1.0179  0.7219  1.9847
 4919TIP3   OH236315   2.250   3.433   1.685  0.5388  0.4092  0.6716
 4919TIP3    H136316   2.200   3.460   1.763  0.3051  1.0991  0.2919
 4919TIP3    H236317   2.203   3.356   1.653  0.6445  0.1103  1.2174
 4920TIP3   OH236318   2.367   6.053   0.757 -0.0964 -0.3644  0.2066
 4920TIP3    H136319   2.448   6.057   0.706 -0.0921 -1.3919  0.1274
 4920TIP3    H236320   2.298   6.075   0.694 -0.0433 -1.1683 -0.1473
 4921TIP3   OH236321   3.305   3.995   0.177  0.4280  0.0595 -1.2280
 4921TIP3    H136322   3.281   4.002   0.084 -0.2077  0.8482 -1.0120
 4921TIP3    H236323   3.227   3.959   0.219  0.3048  0.8129 -0.8135
 4922TIP3   OH236324   0.983   5.668   8.355  0.6890 -0.4106  0.1656
 4922TIP3    H136325   0.891   5.676   8.379  1.2076  0.1144  2.1349
 4922TIP3    H236326   0.982   5.639   8.263 -1.4115 -0.5945  0.2154
 4923TIP3   OH236327   5.067   3.028   0.920  0.5275 -0.2424  0.1399
 4923TIP3    H136328   5.093   2.936   0.919  0.2924 -0.3127  0.4203
 4923TIP3    H236329   5.146   3.076   0.944  1.5776 -0.0669 -3.1113
 4924TIP3   OH236330   1.196   6.340   7.880  0.1929 -0.2576  0.4875
 4924TIP3    H136331   1.190   6.264   7.822  2.3899 -0.3659  0.3429
 4924TIP3    H236332   1.268   6.392   7.844 -0.1880  1.0701  1.5513
 4925TIP3   OH236333   0.524   0.725   0.622 -0.5376 -0.1755  0.4510
 4925TIP3    H136334   0.479   0.657   0.572 -0.7146  0.9365 -0.9861
 4925TIP3    H236335   0.454   0.776   0.662 -0.4279 -0.3990  0.9381
 4926TIP3   OH236336   1.876   5.995   8.354 -0.1955 -0.0156 -0.3091
 4926TIP3    H136337   1.838   6.083   8.351 -0.0880  0.0655  0.5154
 4926TIP3    H236338   1.805   5.940   8.388  0.8767  0.4461  3.1168
 4927TIP3   OH236339   1.496   2.417   2.188 -0.5845 -1.0003 -0.1830
 4927TIP3    H136340   1.412   2.402   2.144  0.0913  0.8588 -2.3519
 4927TIP3    H236341   1.483   2.496   2.239 -0.4556 -1.3201  0.3474
 4928TIP3   OH236342   4.687   2.667   1.762  0.6907  0.1202 -0.1264
 4928TIP3    H136343   4.778   2.661   1.791  0.3014  3.2340  2.2481
 4928TIP3    H236344   4.643   2.715   1.831 -3.0384 -1.9644 -0.7948
 4929TIP3   OH236345   6.532   6.016   7.773  0.5775  0.0380  0.0003
 4929TIP3    H136346   6.580   6.075   7.831  0.9842 -3.4083  3.6000
 4929TIP3    H236347   6.599   5.982   7.713  0.7981  1.3821 -0.5547
 4930TIP3   OH236348   4.475   1.172   6.631 -0.3788  0.3599  0.1347
 4930TIP3    H136349   4.545   1.109   6.612 -0.7695 -0.3610  1.0434
 4930TIP3    H236350   4.517   1.257   6.621 -0.0196  0.0071 -1.8437
 4931TIP3   OH236351   0.219   1.732   0.706  0.1128  0.6730  0.3217
 4931TIP3    H136352   0.162   1.741   0.783 -0.0977  1.9427  0.0394
 4931TIP3    H236353   0.159   1.733   0.631  0.4690  1.7655  0.0364
 4932TIP3   OH236354   4.238   1.414   8.311  0.3808 -0.0497  0.3891
 4932TIP3    H136355   4.276   1.384   8.394  0.6387  1.1457  0.7211
 4932TIP3    H236356   4.288   1.492   8.288  0.2797 -0.3353 -0.8827
 4933TIP3   OH236357   5.071   0.679   0.998  0.0264 -0.1349  0.2788
 4933TIP3    H136358   5.121   0.603   1.029  1.0859  0.3831 -0.1035
 4933TIP3    H236359   5.022   0.645   0.923  1.2393 -0.2491 -0.5026
 4934TIP3   OH236360   4.406   0.068   1.232 -0.2915 -0.0095  0.5532
 4934TIP3    H136361   4.465   0.006   1.273  1.3114  1.4909  0.6356
 4934TIP3    H236362   4.382   0.128   1.302 -0.5122  0.4011  0.1330
 4935TIP3   OH236363   4.367   6.406   1.974  0.1407 -0.1442  0.3404
 4935TIP3    H136364   4.407   6.346   1.911 -2.9971  1.1602 -3.2404
 4935TIP3    H236365   4.318   6.349   2.033  0.1127 -1.2933 -0.7469
 4936TIP3   OH236366   1.935   6.571   8.001  0.5845  0.3966 -0.0361
 4936TIP3    H136367   1.869   6.516   7.959  0.6646  0.8922 -0.8411
 4936TIP3    H236368   1.974   6.516   8.068  1.3608 -0.8904 -1.4839
 4937TIP3   OH236369   5.701   1.959   0.088 -0.7180 -0.0703  0.5810
 4937TIP3    H136370   5.740   2.032   0.136 -0.9201  1.2035 -1.0991
 4937TIP3    H236371   5.770   1.928   0.030 -0.6215 -1.2710  1.3158
 4938TIP3   OH236372   5.436   4.589   1.251 -0.6362  0.3978  0.0574
 4938TIP3    H136373   5.444   4.622   1.340 -0.4639  1.8543 -0.4577
 4938TIP3    H236374   5.428   4.494   1.260  0.0042  0.4638  1.5740
 4939TIP3   OH236375   6.874   0.628   0.263 -0.0784  0.0320 -0.3462
 4939TIP3    H136376   6.823   0.697   0.222  0.4699  1.1267  0.7629
 4939TIP3    H236377   6.853   0.634   0.356 -0.0925 -1.3633 -0.2367
 4940TIP3   OH236378   0.548   5.058   2.350  0.2840  0.4659 -0.4775
 4940TIP3    H136379   0.559   5.150   2.325 -1.5122  0.8315 -0.0091
 4940TIP3    H236380   0.471   5.057   2.406  0.9434 -1.1767  0.4706
 4941TIP3   OH236381   5.333   4.333   1.588 -0.7617  0.3021  0.3133
 4941TIP3    H136382   5.269   4.279   1.634 -0.8738 -1.1012 -1.3471
 4941TIP3    H236383   5.349   4.286   1.506  2.0873  0.8133  0.4668
 4942TIP3   OH236384   4.925   0.051   1.928 -0.2265  0.7233 -0.3385
 4942TIP3    H136385   4.837   0.086   1.940 -1.0652  0.4544 -4.3665
 4942TIP3    H236386   4.916  -0.043   1.945  0.2623  1.1285  2.8076
 4943TIP3   OH236387   1.460   5.496   6.444  0.2592 -0.0984 -0.2495
 4943TIP3    H136388   1.442   5.404   6.423  1.0505  0.0269 -1.5730
 4943TIP3    H236389   1.553   5.506   6.427  0.3784  0.7336  0.8011
 4944TIP3   OH236390   4.216   5.638   0.318  0.1529 -0.2414  0.1033
 4944TIP3    H136391   4.191   5.685   0.239 -1.7121 -0.4103  0.5504
 4944TIP3    H236392   4.147   5.573   0.331  0.6708 -0.5449  1.6093
 4945TIP3   OH236393   6.096   2.835   6.395 -0.3622  0.5545 -0.0010
 4945TIP3    H136394   6.011   2.791   6.392  0.2820 -0.8097  0.9657
 4945TIP3    H236395   6.089   2.895   6.469 -0.0954 -0.4517  0.8675
 4946TIP3   OH236396   0.378   2.935   8.341  0.2193 -0.6081 -0.3274
 4946TIP3    H136397   0.404   3.003   8.403 -1.2966  0.1773 -0.5245
 4946TIP3    H236398   0.446   2.937   8.273 -0.9022  2.3003 -1.5330
 4947TIP3   OH236399   4.743   3.818   2.629 -0.1734 -0.1477  0.1560
 4947TIP3    H136400   4.684   3.762   2.679 -0.1811 -1.5160 -1.3124
 4947TIP3    H236401   4.828   3.807   2.671  0.1184 -2.3762 -0.8479
 4948TIP3   OH236402   1.401   1.476   3.069 -0.4948  0.1270  0.8440
 4948TIP3    H136403   1.407   1.571   3.080 -1.1660  0.4354 -0.9933
 4948TIP3    H236404   1.322   1.451   3.117 -1.2479  0.7826 -0.0175
 4949TIP3   OH236405   0.261   4.641   7.034 -0.1185  0.0556 -0.3517
 4949TIP3    H136406   0.231   4.557   7.069  1.4936  0.0873  1.2554
 4949TIP3    H236407   0.181   4.684   7.004 -1.0225 -1.8916 -0.9221
 4950TIP3   OH236408   6.457   1.632   1.348 -0.7899 -0.2302 -0.2647
 4950TIP3    H136409   6.402   1.703   1.314  1.0259  1.1552 -0.5313
 4950TIP3    H236410   6.529   1.678   1.392  0.6845 -1.8931 -0.8277
 4951TIP3   OH236411   3.526   0.993   2.249 -0.8412 -0.0321 -0.4607
 4951TIP3    H136412   3.438   1.026   2.268 -1.2112 -0.5059 -1.3020
 4951TIP3    H236413   3.553   0.948   2.329 -0.5429  1.7925  0.5192
 4952TIP3   OH236414   6.314   1.743   2.577  0.4435  0.2109  0.5568
 4952TIP3    H136415   6.339   1.739   2.485 -0.9304 -0.2040  0.1815
 4952TIP3    H236416   6.360   1.669   2.618  1.9761  1.0766  0.4686
 4953TIP3   OH236417   6.862   2.572   7.672  0.3592  0.6448 -0.7838
 4953TIP3    H136418   6.798   2.501   7.677  0.3211  0.7531  1.5217
 4953TIP3    H236419   6.814   2.646   7.637 -0.9058  0.7960  1.1490
 4954TIP3   OH236420   0.354   4.955   0.805 -0.4288 -0.2122  0.4778
 4954TIP3    H136421   0.411   4.891   0.849  0.6031  0.6739  0.4615
 4954TIP3    H236422   0.343   5.025   0.870 -1.0361 -0.1071  0.2654
 4955TIP3   OH236423   0.628   5.606   7.901 -0.0771 -0.5461 -0.7638
 4955TIP3    H136424   0.698   5.555   7.859  0.0827  0.4657 -1.7780
 4955TIP3    H236425   0.612   5.678   7.840  0.8307  1.5561  1.3256
 4956TIP3   OH236426   5.729   6.268   2.474 -0.1197  0.1886  0.1165
 4956TIP3    H136427   5.819   6.297   2.460  0.5268 -2.2266 -1.1765
 4956TIP3    H236428   5.690   6.338   2.528  2.4110  1.4185  0.5169
 4957TIP3   OH236429   2.031   4.439   7.277 -0.0561 -0.0081 -0.1619
 4957TIP3    H136430   1.984   4.447   7.360  1.3132  2.5753  0.4848
 4957TIP3    H236431   2.110   4.390   7.300  0.6658  1.3123  0.2844
 4958TIP3   OH236432   5.714   2.581   2.328  0.1479 -0.0172 -0.2032
 4958TIP3    H136433   5.764   2.504   2.302  1.7153  0.4837  1.1747
 4958TIP3    H236434   5.680   2.559   2.415 -1.3569 -0.0131 -0.7576
 4959TIP3   OH236435   5.492   5.794   6.885  0.0554 -0.0289 -0.3812
 4959TIP3    H136436   5.535   5.859   6.829 -0.0439  0.6819  0.3471
 4959TIP3    H236437   5.404   5.830   6.900 -0.5780 -1.1080 -1.2558
 4960TIP3   OH236438   4.770   4.475   7.513  0.9339 -0.2927 -0.2869
 4960TIP3    H136439   4.750   4.517   7.429  0.9235  1.4905  0.5507
 4960TIP3    H236440   4.702   4.507   7.572  1.0364 -1.3971  0.4478
 4961TIP3   OH236441   6.687   4.713   7.844  0.2645 -0.2084 -0.6467
 4961TIP3    H136442   6.725   4.670   7.767 -0.6030  0.7456 -1.6350
 4961TIP3    H236443   6.611   4.660   7.866  1.2411 -1.2430  0.4040
 4962TIP3   OH236444   2.119   3.191   1.604 -0.5072  0.0541 -0.0517
 4962TIP3    H136445   2.184   3.135   1.645 -0.9566  0.8409  1.8218
 4962TIP3    H236446   2.058   3.130   1.562  0.3452 -0.7532 -0.1504
 4963TIP3   OH236447   1.394   1.558   2.223 -0.0180 -0.1456  0.0314
 4963TIP3    H136448   1.472   1.529   2.176 -0.6842  1.2562 -2.1206
 4963TIP3    H236449   1.428   1.613   2.294  0.9785 -0.5678 -0.1023
 4964TIP3   OH236450   5.204   6.878   7.885  0.2208 -0.0052  0.7000
 4964TIP3    H136451   5.178   6.802   7.833  0.7178 -0.9676  1.8159
 4964TIP3    H236452   5.121   6.919   7.911 -0.0368  0.1580 -0.3625
 4965TIP3   OH236453   2.640   6.344   7.046  0.1074  0.1377 -0.2215
 4965TIP3    H136454   2.700   6.301   7.107  0.1833 -1.8067 -1.5650
 4965TIP3    H236455   2.631   6.433   7.080  1.1696 -0.4713  1.8434
 4966TIP3   OH236456   5.103   2.772   1.029 -0.1043 -0.8690  0.4203
 4966TIP3    H136457   5.191   2.752   0.997  0.8674  2.9739  0.1215
 4966TIP3    H236458   5.111   2.772   1.124 -0.1870 -1.8950  0.4356
 4967TIP3   OH236459   2.433   5.372   7.144  0.1770  0.1848 -0.0200
 4967TIP3    H136460   2.511   5.390   7.196  0.0905  0.4284  0.0303
 4967TIP3    H236461   2.459   5.302   7.085  0.7681  1.0010 -0.7512
 4968TIP3   OH236462   0.863   6.044   8.154  0.5410 -0.3427  0.1449
 4968TIP3    H136463   0.858   5.981   8.082 -0.8763  1.2095 -1.1817
 4968TIP3    H236464   0.942   6.095   8.135  1.4177 -1.3138  0.9629
 4969TIP3   OH236465   5.637   4.293   0.905  0.4303  0.2197 -0.0602
 4969TIP3    H136466   5.697   4.363   0.880 -0.3960  0.3819 -1.7148
 4969TIP3    H236467   5.602   4.260   0.822 -1.2262 -0.3385  0.8077
 4970TIP3   OH236468   0.820   0.376   7.847  0.1978 -0.2166  0.6730
 4970TIP3    H136469   0.827   0.281   7.853  0.7614 -0.1511  1.1691
 4970TIP3    H236470   0.906   0.408   7.873  0.8678  0.3547 -1.9749
 4971TIP3   OH236471   2.798   2.498   7.128  0.3776  0.4194  0.0725
 4971TIP3    H136472   2.818   2.584   7.164  1.1288 -0.2813  1.3795
 4971TIP3    H236473   2.721   2.468   7.176 -0.4779  0.7480 -1.0548
 4972TIP3   OH236474   0.523   0.607   0.883  0.3165 -0.7633  0.0730
 4972TIP3    H136475   0.566   0.692   0.874 -0.1917 -0.2955  1.7972
 4972TIP3    H236476   0.594   0.543   0.870  0.9147 -0.0645 -0.1696
 4973TIP3   OH236477   1.558   0.678   8.255 -0.0075 -0.2247 -0.3631
 4973TIP3    H136478   1.552   0.616   8.327  0.6190 -2.5766 -2.2109
 4973TIP3    H236479   1.467   0.701   8.236 -0.2785 -0.8639  0.1113
 4974TIP3   OH236480   0.008   4.651   5.990 -0.6718 -0.0697  0.1603
 4974TIP3    H136481  -0.072   4.664   5.939 -0.9668 -1.6036  0.2001
 4974TIP3    H236482  -0.018   4.599   6.065  0.2857 -0.1990  0.4234
 4975TIP3   OH236483   1.867   1.283   1.981  0.4608  0.0034  0.2761
 4975TIP3    H136484   1.895   1.201   1.941 -0.8150  1.6801 -4.7655
 4975TIP3    H236485   1.941   1.309   2.036  1.6354 -3.5496  0.6211
 4976TIP3   OH236486   3.944   3.045   8.128 -0.5468  0.3938  0.2773
 4976TIP3    H136487   3.864   3.019   8.175 -0.0931 -0.0369  0.8135
 4976TIP3    H236488   4.005   2.973   8.142  0.4180  1.3372  1.0417
 4977TIP3   OH236489   3.510   4.438   2.090  0.7840 -0.0914  0.3152
 4977TIP3    H136490   3.508   4.525   2.051 -1.8771 -0.5826 -0.8221
 4977TIP3    H236491   3.444   4.440   2.158  0.1376 -1.4183 -0.2408
 4978TIP3   OH236492   6.076   4.675   2.702  0.0241  0.7305  0.0454
 4978TIP3    H136493   6.071   4.750   2.643 -0.2422  1.8696  1.4417
 4978TIP3    H236494   6.123   4.609   2.653  0.5896  1.9431 -1.1175
 4979TIP3   OH236495   2.668   3.940   1.362  0.0179 -0.1169 -0.2763
 4979TIP3    H136496   2.577   3.965   1.349  0.3039  1.5588  0.7445
 4979TIP3    H236497   2.719   4.015   1.332  1.1072 -1.1368 -1.1177
 4980TIP3   OH236498   5.941   4.773   7.996 -0.0236  0.4815 -0.0131
 4980TIP3    H136499   5.934   4.792   8.089  0.2156  0.2491  0.0562
 4980TIP3    H236500   5.946   4.677   7.991 -0.1661  0.4855 -0.2724
 4981TIP3   OH236501   0.311   3.764   7.062  0.0161 -0.3125 -0.3567
 4981TIP3    H136502   0.302   3.735   7.153  1.7025  0.3035  0.0524
 4981TIP3    H236503   0.400   3.800   7.058 -0.6926  1.4373 -1.7447
 4982TIP3   OH236504   1.692   1.290   7.700  0.0295 -0.6333  0.2293
 4982TIP3    H136505   1.785   1.279   7.681  0.0476 -2.3053  1.1046
 4982TIP3    H236506   1.690   1.328   7.787 -0.1088  0.1526 -0.1139
 4983TIP3   OH236507   4.895   4.513   1.609  0.1104 -0.2982  0.1351
 4983TIP3    H136508   4.946   4.553   1.539  2.1273 -1.4449  0.8643
 4983TIP3    H236509   4.912   4.419   1.601  0.3296 -0.4700  2.0891
 4984TIP3   OH236510   0.397   1.089   6.978  0.4678 -0.4378 -0.3576
 4984TIP3    H136511   0.379   1.162   7.037 -1.1940 -1.7915  0.8807
 4984TIP3    H236512   0.329   1.095   6.911  1.0141 -0.2081 -0.9010
 4985TIP3   OH236513   1.954   1.868   0.067  0.1483  0.0022  0.0821
 4985TIP3    H136514   1.958   1.776   0.093  1.6233  0.4844  1.7446
 4985TIP3    H236515   1.864   1.894   0.082 -0.0641 -0.9318  0.4922
 4986TIP3   OH236516   3.650   3.537   2.253 -0.6809  0.0490  0.3860
 4986TIP3    H136517   3.635   3.483   2.331 -0.5575  1.6543  1.5834
 4986TIP3    H236518   3.742   3.563   2.260  0.2446 -2.2323 -1.9681
 4987TIP3   OH236519   0.053   0.644   7.328  0.1888 -0.9147 -0.2602
 4987TIP3    H136520   0.004   0.602   7.257 -0.9218 -0.4840  0.2276
 4987TIP3    H236521   0.083   0.727   7.290  2.1124 -1.9336 -1.1222
 4988TIP3   OH236522   2.269   5.775   0.916 -0.0902 -0.4827 -0.6624
 4988TIP3    H136523   2.278   5.867   0.943 -0.5704 -0.6263 -0.0076
 4988TIP3    H236524   2.181   5.769   0.881 -1.7964 -1.6694  3.3571
 4989TIP3   OH236525   2.401   5.121   6.436 -0.2788  0.1693 -0.3131
 4989TIP3    H136526   2.496   5.130   6.449  0.2018 -3.5745 -0.1297
 4989TIP3    H236527   2.371   5.210   6.417  2.9699  1.7991  1.3146
 4990TIP3   OH236528   6.295   6.253   7.572 -0.3030 -0.3786 -0.0148
 4990TIP3    H136529   6.315   6.274   7.663 -3.2220 -0.6730  0.8139
 4990TIP3    H236530   6.206   6.287   7.559 -0.4666 -1.5124 -2.3596
 4991TIP3   OH236531   1.720   5.292   7.082 -0.1100 -0.0296  0.5537
 4991TIP3    H136532   1.700   5.287   6.988  0.7383 -0.5750  0.3952
 4991TIP3    H236533   1.692   5.380   7.107 -1.2401 -0.2096  0.0088
 4992TIP3   OH236534   2.148   2.980   0.679  0.1286  0.4070  0.2284
 4992TIP3    H136535   2.196   3.014   0.755  0.4037  0.3241  0.0894
 4992TIP3    H236536   2.078   3.044   0.666  0.0918  0.4338  0.5406
 4993TIP3   OH236537   3.740   2.753   7.473  0.5006 -0.2922 -0.2747
 4993TIP3    H136538   3.755   2.710   7.557  1.9378 -1.4776 -1.0959
 4993TIP3    H236539   3.762   2.687   7.408  0.1942  0.8681 -1.6000
 4994TIP3   OH236540   0.241   2.634   1.452  0.0699  0.0803 -0.1353
 4994TIP3    H136541   0.186   2.569   1.408 -0.8529  0.5833  0.2229
 4994TIP3    H236542   0.281   2.684   1.381  0.1344 -0.3628 -0.4085
 4995TIP3   OH236543   1.203   2.084   7.298  0.4667 -0.1884  0.4853
 4995TIP3    H136544   1.129   2.037   7.337  2.2932 -2.2227  1.7519
 4995TIP3    H236545   1.208   2.052   7.208  0.4454 -0.9037  0.7309
 4996TIP3   OH236546   3.737   4.300   6.376 -0.3396  0.0225  0.1077
 4996TIP3    H136547   3.829   4.273   6.376 -0.5036 -0.5547 -0.4358
 4996TIP3    H236548   3.690   4.223   6.408 -0.7116  0.0208 -0.4257
 4997TIP3   OH236549   5.957   1.966   7.874 -0.1216 -0.2611  0.0254
 4997TIP3    H136550   6.017   2.029   7.914 -0.1106  0.2524 -0.7717
 4997TIP3    H236551   5.891   1.950   7.941  0.2613  0.0624  0.4904
 4998TIP3   OH236552   6.247   3.824   8.353  0.2062 -0.1329  0.0096
 4998TIP3    H136553   6.295   3.803   8.273  0.5155 -0.2203  0.2143
 4998TIP3    H236554   6.307   3.798   8.424  0.5582  1.2890  0.2716
 4999TIP3   OH236555   0.629   1.275   7.400  0.1857 -0.5759  0.1603
 4999TIP3    H136556   0.674   1.343   7.450  1.3480 -0.9754 -0.3142
 4999TIP3    H236557   0.588   1.321   7.327  1.4127 -0.4287 -0.4614
 5000TIP3   OH236558   6.342   1.569   7.536  0.4039 -0.0143  0.1712
 5000TIP3    H136559   6.342   1.534   7.625 -1.0615 -1.3796 -0.3143
 5000TIP3    H236560   6.251   1.560   7.507  0.9018  0.1596 -1.5538
 5001TIP3   OH236561   6.083   0.367   8.047  0.2334 -0.5413  0.0208
 5001TIP3    H136562   6.053   0.446   8.002  0.9108 -0.1690  0.2099
 5001TIP3    H236563   6.141   0.325   7.983  2.1525  0.5988  0.9260
 5002TIP3   OH236564   3.940   5.132   6.631  0.2079 -0.1631 -0.2693
 5002TIP3    H136565   4.031   5.161   6.620 -0.1693  0.5689 -1.7822
 5002TIP3    H236566   3.888   5.207   6.602 -0.8335 -1.2820 -1.4074
 5003TIP3   OH236567   4.222   0.305   1.070  0.2162 -0.1562  0.5341
 5003TIP3    H136568   4.221   0.224   1.019  0.3006  1.1142 -1.6064
 5003TIP3    H236569   4.135   0.310   1.110 -0.0266 -0.9648  0.1175
 5004TIP3   OH236570   6.013   1.100   7.400 -0.0275  0.6137 -0.0358
 5004TIP3    H136571   6.103   1.072   7.411  0.4406  1.9463 -0.2594
 5004TIP3    H236572   6.006   1.180   7.453 -0.9209  0.8192 -0.4443
 5005TIP3   OH236573   0.694   6.336   2.029  0.1693  0.0456 -0.1297
 5005TIP3    H136574   0.612   6.298   2.061 -0.1644  1.5791  0.9248
 5005TIP3    H236575   0.705   6.297   1.942 -2.1967  0.5088 -0.7267
 5006TIP3   OH236576   2.694   0.331   8.178 -0.2268  0.0289  0.3472
 5006TIP3    H136577   2.696   0.341   8.083 -1.0656  1.7609  0.4646
 5006TIP3    H236578   2.651   0.411   8.210  0.9263 -0.0205  2.2412
 5007TIP3   OH236579   2.785   1.922   0.232  0.0956  0.6202  0.4826
 5007TIP3    H136580   2.731   2.000   0.220 -1.0150 -0.1837  0.1318
 5007TIP3    H236581   2.861   1.953   0.281 -0.2563  1.9466  0.2284
 5008TIP3   OH236582   0.419   3.998   0.438  0.0715 -0.0841 -0.0946
 5008TIP3    H136583   0.349   3.952   0.485 -0.3822  0.9826  0.3128
 5008TIP3    H236584   0.471   4.038   0.507 -0.5326  1.4047 -0.4694
 5009TIP3   OH236585   1.026   6.759   1.234  0.0230  0.6583  0.2171
 5009TIP3    H136586   0.986   6.843   1.259  0.3535  1.9288 -3.0257
 5009TIP3    H236587   0.968   6.725   1.166  0.6432 -1.1302  0.5375
 5010TIP3   OH236588   3.573   0.705   7.309 -0.2864  0.5163  0.2717
 5010TIP3    H136589   3.562   0.730   7.217  1.4833 -1.4257 -0.5281
 5010TIP3    H236590   3.517   0.767   7.357 -1.3954  1.4715 -2.0944
 5011TIP3   OH236591   6.346   3.095   1.261  0.0151  0.2624  0.0403
 5011TIP3    H136592   6.306   3.179   1.237  0.0861  0.0439 -0.8879
 5011TIP3    H236593   6.362   3.102   1.355 -1.1184  0.8053  0.2101
 5012TIP3   OH236594   2.830   1.905   8.026  0.0495 -0.4870  0.4889
 5012TIP3    H136595   2.803   1.876   8.113 -2.3619  0.7551  0.2465
 5012TIP3    H236596   2.896   1.972   8.043  1.9796 -2.4710  1.1940
 5013TIP3   OH236597   5.491   3.528   6.979  0.2952 -0.1305 -0.0410
 5013TIP3    H136598   5.535   3.591   6.922  1.1773 -0.2705  0.4628
 5013TIP3    H236599   5.486   3.448   6.928  1.9148 -0.5337  0.3623
 5014TIP3   OH236600   4.133   0.238   0.738  0.2761  0.5848  0.0556
 5014TIP3    H136601   4.217   0.220   0.695  0.3058  1.2537 -0.1806
 5014TIP3    H236602   4.110   0.156   0.781  1.3633  0.5754  0.6424
 5015TIP3   OH236603   5.638   0.581   7.845 -0.0799  0.3525  0.1720
 5015TIP3    H136604   5.678   0.533   7.772 -0.2053 -0.5674  0.6857
 5015TIP3    H236605   5.683   0.665   7.846  1.3882 -0.3965  0.3068
 5016TIP3   OH236606   5.892   1.216   1.179  0.0354  0.0692  0.3204
 5016TIP3    H136607   5.841   1.150   1.132  1.7442 -0.2361 -1.2524
 5016TIP3    H236608   5.878   1.297   1.130  0.9204  0.0064 -0.0550
 5017TIP3   OH236609   4.856   2.154   8.122 -0.1447  0.0492 -0.3068
 5017TIP3    H136610   4.815   2.228   8.166 -0.2327 -0.8892  1.2669
 5017TIP3    H236611   4.785   2.093   8.105  0.3051 -0.8671  0.9474
 5018TIP3   OH236612   0.617   2.209   1.365  0.1671 -0.3587 -0.5071
 5018TIP3    H136613   0.626   2.264   1.287  0.8605  0.8385  0.3823
 5018TIP3    H236614   0.532   2.166   1.354 -0.7122  1.4030 -0.9363
 5019TIP3   OH236615   2.410   1.167   0.008  0.1163 -0.2528  0.1633
 5019TIP3    H136616   2.372   1.100   0.065 -1.2298  0.3993  0.0753
 5019TIP3    H236617   2.482   1.203   0.058 -1.3409  0.6559  1.7262
 5020TIP3   OH236618   4.105   0.046   1.791 -0.1904  0.0171 -0.3084
 5020TIP3    H136619   4.085  -0.034   1.839  0.3011 -0.6227 -1.1421
 5020TIP3    H236620   4.022   0.067   1.746 -0.0301 -0.6486 -0.9479
 5021TIP3   OH236621   2.058   2.138   7.992 -0.3163  0.0132  0.2116
 5021TIP3    H136622   2.113   2.105   7.921  1.4519  3.0100  0.0443
 5021TIP3    H236623   2.090   2.092   8.070  0.1446 -0.7110 -0.3901
 5022TIP3   OH236624   2.552   2.925   2.569  0.4305  0.0571  0.4286
 5022TIP3    H136625   2.576   3.001   2.622 -2.4005  0.7738  0.8466
 5022TIP3    H236626   2.456   2.924   2.570  0.1944 -0.4517 -3.9001
 5023TIP3   OH236627   5.368   0.183   1.814  0.3765  0.5949 -0.2446
 5023TIP3    H136628   5.323   0.101   1.830  0.9010  0.2994 -0.2592
 5023TIP3    H236629   5.355   0.200   1.720 -2.2266  2.0455  0.2766
 5024TIP3   OH236630   2.996   5.546   2.615 -0.1192  0.4699 -0.2479
 5024TIP3    H136631   3.006   5.459   2.655 -0.4062 -1.3759 -3.7644
 5024TIP3    H236632   2.942   5.530   2.538 -1.5693  4.1597 -0.1708
 5025TIP3   OH236633   0.105   5.031   0.708 -0.0561 -0.3856 -0.3229
 5025TIP3    H136634   0.155   5.075   0.639  1.0266  1.0141  1.2586
 5025TIP3    H236635   0.170   4.979   0.755 -0.3703  0.1796  0.7755
 5026TIP3   OH236636   3.613   6.508   1.544  0.0749 -0.0231 -0.6089
 5026TIP3    H136637   3.595   6.525   1.636 -0.5804 -0.5698 -0.6299
 5026TIP3    H236638   3.709   6.504   1.539  0.1423  0.6266 -0.0738
 5027TIP3   OH236639   3.526   0.234   8.020 -0.1034  0.8544  0.1723
 5027TIP3    H136640   3.506   0.212   7.929 -0.6986  1.2676  0.1988
 5027TIP3    H236641   3.606   0.286   8.015  0.5468 -0.1458 -0.0049
 5028TIP3   OH236642   1.045   5.367   0.002 -0.0194 -0.1135  0.4323
 5028TIP3    H136643   1.046   5.461   0.019  1.0285 -0.0290 -0.0403
 5028TIP3    H236644   0.955   5.349  -0.025 -0.4732  0.5756  1.4339
 5029TIP3   OH236645   2.120   4.382   1.565  0.2133  0.8657 -0.0270
 5029TIP3    H136646   2.052   4.359   1.501  0.7273  1.7280 -0.8931
 5029TIP3    H236647   2.198   4.399   1.513  1.6066 -1.6974  1.0326
 5030TIP3   OH236648   5.519   2.297   7.576  0.6285 -0.4464  0.3219
 5030TIP3    H136649   5.474   2.340   7.649  2.2752  0.1895  1.0113
 5030TIP3    H236650   5.452   2.242   7.536 -0.8273  0.6795  1.1030
 5031TIP3   OH236651   6.695   5.835   0.133  0.2314 -0.3488  0.6709
 5031TIP3    H136652   6.643   5.910   0.161  0.0087  0.6052 -1.9905
 5031TIP3    H236653   6.781   5.848   0.173 -0.0623  0.8627  0.9256
 5032TIP3   OH236654   5.378   3.239   0.110  0.4271 -0.3956  0.3527
 5032TIP3    H136655   5.306   3.301   0.096  1.0101  0.5504  1.3925
 5032TIP3    H236656   5.454   3.281   0.070  0.7563 -0.6122  0.7524
 5033TIP3   OH236657   1.605   5.923   0.726  0.2109 -0.0509 -0.0540
 5033TIP3    H136658   1.518   5.955   0.751 -0.1414 -0.4794 -0.7050
 5033TIP3    H236659   1.588   5.857   0.659  1.0732  0.3565 -0.7004
 5034TIP3   OH236660   5.772   2.423   7.114 -0.5818  0.2695  0.7471
 5034TIP3    H136661   5.858   2.382   7.108 -0.8632 -0.4195  1.4149
 5034TIP3    H236662   5.725   2.390   7.037  0.1738  1.7122 -0.3996
 5035TIP3   OH236663   4.337   0.235   7.608  0.4664  0.1488 -0.3016
 5035TIP3    H136664   4.367   0.171   7.543  2.0898  0.4503  0.1057
 5035TIP3    H236665   4.241   0.227   7.607  0.5940 -1.8669 -0.6845
 5036TIP3   OH236666   6.145   4.996   1.702  0.2863 -0.2349  0.6309
 5036TIP3    H136667   6.240   4.982   1.697  0.1775 -0.4956 -1.2929
 5036TIP3    H236668   6.136   5.077   1.753  1.7091  1.0433 -0.9969
 5037TIP3   OH236669   1.072   6.608   1.953  0.7388 -0.0812  0.5891
 5037TIP3    H136670   1.159   6.649   1.952  0.8912 -0.4081 -0.8308
 5037TIP3    H236671   1.088   6.521   1.989  0.8142  0.2051  1.2813
 5038TIP3   OH236672   3.167   2.486   7.051  0.1411  0.3440 -0.2563
 5038TIP3    H136673   3.117   2.409   7.080  1.3438 -0.5810 -0.5559
 5038TIP3    H236674   3.124   2.513   6.970 -0.0170 -0.3107 -0.3990
 5039TIP3   OH236675   2.859   3.555   7.462 -0.0541  0.3409  0.3219
 5039TIP3    H136676   2.918   3.615   7.508 -0.1827  1.0575 -0.4398
 5039TIP3    H236677   2.916   3.509   7.399 -0.0465 -0.0087  0.5778
 5040TIP3   OH236678   6.508   5.677   6.937  0.1795 -0.2918 -0.0466
 5040TIP3    H136679   6.480   5.585   6.930  0.2302 -0.4506  1.4518
 5040TIP3    H236680   6.432   5.727   6.908 -0.8612 -0.7721  1.6844
 5041TIP3   OH236681   6.462   0.110   1.330 -0.2396 -0.4872  0.2091
 5041TIP3    H136682   6.371   0.080   1.328 -0.1883 -0.9746  2.2919
 5041TIP3    H236683   6.466   0.179   1.263 -1.5669 -1.8978 -1.4162
 5042TIP3   OH236684   0.123   2.040   0.817 -0.3233 -0.2733  0.0221
 5042TIP3    H136685   0.057   1.972   0.806 -0.5285 -0.4535  1.9345
 5042TIP3    H236686   0.153   2.029   0.908  2.3165 -0.1692 -0.7491
 5043TIP3   OH236687   1.597   4.424   1.862  0.1033 -0.4185  0.0656
 5043TIP3    H136688   1.506   4.418   1.832  0.3820 -1.7788 -0.6256
 5043TIP3    H236689   1.615   4.339   1.902  1.7889 -1.1959 -2.0847
 5044TIP3   OH236690   6.406   2.690   0.673  0.3064  0.6424  0.2696
 5044TIP3    H136691   6.478   2.629   0.660  0.5352  0.6887  1.2685
 5044TIP3    H236692   6.358   2.656   0.749 -0.9835  0.3728 -0.6337
 5045TIP3   OH236693   1.049   6.273   7.299 -0.1440 -0.2065 -0.1047
 5045TIP3    H136694   1.115   6.329   7.341  0.9527 -2.0974  0.8619
 5045TIP3    H236695   1.099   6.223   7.235 -0.8904 -0.8120 -0.2216
 5046TIP3   OH236696   1.847   6.179   7.656 -0.6081 -0.2631 -0.4345
 5046TIP3    H136697   1.877   6.091   7.632  0.7109 -0.0954  0.5059
 5046TIP3    H236698   1.877   6.190   7.747 -0.3749  1.3314 -0.6855
 5047TIP3   OH236699   2.031   5.086   2.340 -0.0947  0.2939 -0.7886
 5047TIP3    H136700   1.947   5.040   2.344 -0.0087  0.1547 -0.5794
 5047TIP3    H236701   2.011   5.170   2.299 -0.6502  0.9856  0.8350
 5048TIP3   OH236702   3.433   5.996   7.822 -0.0400  0.6097  0.3364
 5048TIP3    H136703   3.411   5.913   7.865 -1.4521  1.0325  0.4673
 5048TIP3    H236704   3.482   5.970   7.744  0.5759 -0.2788  0.9981
 5049TIP3   OH236705   5.280   1.887   0.149 -0.1458  0.0816 -0.7325
 5049TIP3    H136706   5.277   1.918   0.240  0.5997 -0.7419 -0.4103
 5049TIP3    H236707   5.194   1.910   0.113 -0.8606 -0.5297  0.5155
 5050TIP3   OH236708   5.940   0.666   7.166 -0.0604  0.7249  0.0760
 5050TIP3    H136709   5.917   0.741   7.221  0.0043  0.3233  0.6617
 5050TIP3    H236710   6.034   0.654   7.180  0.3723  1.8008 -1.6131
 5051TIP3   OH236711   5.796   0.440   0.590  0.3668 -0.1587  0.3862
 5051TIP3    H136712   5.707   0.460   0.617 -0.3319 -1.9178 -0.4907
 5051TIP3    H236713   5.826   0.372   0.651 -0.7206 -3.1272 -2.1418
 5052TIP3   OH236714   4.214   4.141   6.957  0.5717  0.2813 -0.1891
 5052TIP3    H136715   4.142   4.124   6.897  0.9674  1.1004 -0.9266
 5052TIP3    H236716   4.174   4.143   7.044  0.0985 -1.6425 -0.3231
 5053TIP3   OH236717   0.189   6.810   6.963  0.0977 -0.1400  0.0124
 5053TIP3    H136718   0.177   6.874   7.032 -2.6635 -0.1745 -0.3369
 5053TIP3    H236719   0.188   6.861   6.882 -1.3268 -0.4925 -0.2200
 5054TIP3   OH236720   0.598   1.512   6.934 -0.5239  0.2122 -0.0358
 5054TIP3    H136721   0.613   1.420   6.911 -1.3758  0.5837 -2.3973
 5054TIP3    H236722   0.659   1.529   7.005  0.2168 -1.9679 -0.0669
 5055TIP3   OH236723   4.960   3.149   0.062 -0.4144 -0.7624  0.2734
 5055TIP3    H136724   4.999   3.062   0.069  0.4703 -0.3037  1.6105
 5055TIP3    H236725   4.873   3.140   0.102 -0.8094 -1.2777 -0.6668
 5056TIP3   OH236726   2.976   3.358   6.825 -0.4360  0.0011  0.3351
 5056TIP3    H136727   3.048   3.364   6.888 -0.1349  0.7230 -0.0653
 5056TIP3    H236728   3.005   3.294   6.761 -0.3101  0.0094  0.3835
 5057TIP3   OH236729   2.817   0.419   0.377 -0.0427 -0.1361 -0.2484
 5057TIP3    H136730   2.752   0.489   0.377 -0.6954 -0.7390 -0.1276
 5057TIP3    H236731   2.771   0.342   0.409  0.4693 -0.8117 -1.0762
 5058TIP3   OH236732   3.267   0.696   2.322  0.2189 -0.2552  0.5548
 5058TIP3    H136733   3.356   0.673   2.295  0.7813 -0.7075  2.6264
 5058TIP3    H236734   3.276   0.781   2.365 -0.5110  0.1023  0.0309
 5059TIP3   OH236735   1.255   4.501   0.408 -0.0161 -0.7399  0.1680
 5059TIP3    H136736   1.239   4.596   0.412  1.3439 -0.3910 -1.3470
 5059TIP3    H236737   1.248   4.472   0.499  0.7822  1.0603  0.8586
 5060TIP3   OH236738   4.776   1.982   1.553 -0.2086 -0.1008 -0.0083
 5060TIP3    H136739   4.756   2.050   1.488  1.8465  0.5449 -0.0194
 5060TIP3    H236740   4.867   1.999   1.579  0.0238 -2.2433  0.7535
 5061TIP3   OH236741   1.530   4.562   1.250 -0.2189  0.5101 -0.0034
 5061TIP3    H136742   1.437   4.563   1.230  0.0312 -1.3132 -1.5391
 5061TIP3    H236743   1.535   4.532   1.340 -1.1364  1.5284  0.4007
 5062TIP3   OH236744   3.081   6.276   0.340  0.1711  0.0060 -0.1226
 5062TIP3    H136745   3.070   6.198   0.285  0.7283 -0.5952  0.5908
 5062TIP3    H236746   3.081   6.242   0.430  1.1144  0.7384  0.1725
 5063TIP3   OH236747   4.579   3.161   7.900  0.2849  0.1355  0.0361
 5063TIP3    H136748   4.626   3.229   7.852  0.4201  1.3686  1.8666
 5063TIP3    H236749   4.490   3.165   7.866 -0.0128  2.0752  0.9864
 5064TIP3   OH236750   5.902   0.228   2.358 -0.4856  0.4833  0.1319
 5064TIP3    H136751   5.950   0.174   2.295  1.1652 -0.1190  1.8072
 5064TIP3    H236752   5.920   0.318   2.332  1.8692  0.2834  0.8571
 5065TIP3   OH236753   1.723   1.133   7.375 -0.0149  0.2667  0.6475
 5065TIP3    H136754   1.756   1.210   7.421  1.4696  0.5366 -0.7579
 5065TIP3    H236755   1.728   1.157   7.282 -0.6653 -1.0903  0.2362
 5066TIP3   OH236756   5.241   5.939   0.559  0.0422 -0.3935  0.3717
 5066TIP3    H136757   5.244   5.852   0.520  1.2765 -0.1541 -0.0895
 5066TIP3    H236758   5.159   5.976   0.527 -0.9659 -1.6912  1.2948
 5067TIP3   OH236759   2.792   6.457   0.361 -0.1018 -0.0712 -0.0505
 5067TIP3    H136760   2.800   6.403   0.283 -1.3483 -1.2379  0.5813
 5067TIP3    H236761   2.716   6.512   0.344  0.7026  0.9653 -0.3736
 5068TIP3   OH236762   3.066   4.307   6.446  1.1583  0.9452 -0.2143
 5068TIP3    H136763   3.085   4.221   6.484 -2.3077  0.0102 -0.1733
 5068TIP3    H236764   3.116   4.309   6.365  1.5451 -1.0271 -0.0765
 5069TIP3   OH236765   6.938   5.382   2.682 -0.3781  0.3031  0.0506
 5069TIP3    H136766   6.846   5.356   2.681 -0.0033 -1.0860 -0.3530
 5069TIP3    H236767   6.938   5.470   2.721 -1.9211  0.5565 -0.4736
 5070TIP3   OH236768   3.217   0.912   2.038 -0.3792  0.0503  0.1415
 5070TIP3    H136769   3.146   0.942   1.981 -1.2079 -0.8055  0.7079
 5070TIP3    H236770   3.236   0.987   2.094  1.2677  1.3493 -1.9693
 5071TIP3   OH236771   2.007   5.923   2.289 -0.0573  0.2934  0.1079
 5071TIP3    H136772   1.940   5.963   2.346 -0.5131  0.2463 -0.3868
 5071TIP3    H236773   2.080   5.984   2.292 -0.1358  0.3696  0.6271
 5072TIP3   OH236774   2.658   1.204   0.173 -0.5595 -0.6047  0.0329
 5072TIP3    H136775   2.702   1.128   0.211  0.0117  0.2025  1.0340
 5072TIP3    H236776   2.663   1.271   0.241 -1.0072  0.3459 -0.8496
 5073TIP3   OH236777   2.812   3.782   0.122 -0.5106  0.7098  0.8035
 5073TIP3    H136778   2.898   3.808   0.155  0.0749 -0.9753  0.6798
 5073TIP3    H236779   2.825   3.774   0.027 -1.2522  2.0407  0.5686
 5074TIP3   OH236780   1.449   4.283   6.965 -0.3890 -0.8450  0.2905
 5074TIP3    H136781   1.390   4.284   6.890  0.1786 -1.1487 -0.1678
 5074TIP3    H236782   1.532   4.251   6.930 -0.6453 -2.9436  1.4498
 5075TIP3   OH236783   6.310   4.968   7.926 -1.4034 -0.6562 -0.0017
 5075TIP3    H136784   6.297   4.874   7.944  0.9018 -0.9400  0.5834
 5075TIP3    H236785   6.381   4.970   7.862 -2.6866  0.6797 -1.4305
 5076TIP3   OH236786   3.460   5.261   1.968  0.1182 -0.8253 -0.4222
 5076TIP3    H136787   3.546   5.274   2.010  0.6169  0.1903 -1.6616
 5076TIP3    H236788   3.399   5.311   2.022  0.9826  1.6517 -1.5695
 5077TIP3   OH236789   2.646   4.102   0.044 -0.7220 -0.0675  0.2708
 5077TIP3    H136790   2.722   4.109   0.101 -0.3382 -1.1701 -0.0840
 5077TIP3    H236791   2.573   4.083   0.103 -0.6466  0.5281  0.5629
 5078TIP3   OH236792   0.722   2.529   0.701  0.0764 -0.0823 -0.1929
 5078TIP3    H136793   0.655   2.572   0.648 -1.1057  0.5368  1.7194
 5078TIP3    H236794   0.704   2.436   0.691  1.4750 -0.1838 -2.8363
 5079TIP3   OH236795   1.273   5.810   2.528  0.0031 -0.0410 -0.1527
 5079TIP3    H136796   1.293   5.764   2.609  1.3445 -0.8849 -0.9223
 5079TIP3    H236797   1.178   5.821   2.529 -0.0831 -0.7697  1.1292
 5080TIP3   OH236798   6.915   4.117   8.312 -0.1183 -0.0840  0.1577
 5080TIP3    H136799   6.945   4.204   8.337  1.2552 -1.1430  2.5549
 5080TIP3    H236800   6.995   4.065   8.304 -0.9610 -1.4011 -0.1276
 5081TIP3   OH236801   6.064   2.512   0.562  0.4284  0.4127 -0.3701
 5081TIP3    H136802   6.060   2.417   0.574  1.3401  0.5117  1.0022
 5081TIP3    H236803   6.015   2.529   0.481  0.5306 -1.2513 -0.8093
 5082TIP3   OH236804   3.439   5.405   7.512 -0.6798 -0.2217 -0.3134
 5082TIP3    H136805   3.454   5.492   7.549  0.2867 -0.3620 -0.3483
 5082TIP3    H236806   3.431   5.421   7.417 -3.0599  0.1249 -0.1116
 5083TIP3   OH236807   5.403   2.723   1.037  0.2082 -0.0670 -0.2406
 5083TIP3    H136808   5.400   2.728   1.132  0.0147 -0.4614 -0.2230
 5083TIP3    H236809   5.436   2.635   1.018 -1.8954 -0.8353 -0.5396
 5084TIP3   OH236810   3.632   3.140   2.338  0.3370 -0.0739  0.1603
 5084TIP3    H136811   3.576   3.212   2.370 -0.5764 -0.0930 -1.2727
 5084TIP3    H236812   3.575   3.063   2.341  1.0666 -0.5955  0.9399
 5085TIP3   OH236813   6.732   6.381   7.591 -0.6965  0.2161  0.0403
 5085TIP3    H136814   6.662   6.440   7.620 -1.1662 -0.7717  0.9609
 5085TIP3    H236815   6.791   6.376   7.666 -1.1795 -1.2461  0.3549
 5086TIP3   OH236816   5.120   0.857   6.906 -0.3267  0.4190 -0.7065
 5086TIP3    H136817   5.140   0.936   6.855  0.0578  1.6643  1.2756
 5086TIP3    H236818   5.204   0.811   6.912 -0.1742  0.7351 -0.4245
 5087TIP3   OH236819   0.516   2.401   6.445  0.2701  0.1886  0.1495
 5087TIP3    H136820   0.588   2.353   6.485 -0.4667  0.0493  1.3643
 5087TIP3    H236821   0.452   2.410   6.515 -0.7084  0.6948 -0.7880
 5088TIP3   OH236822   1.938   2.894   7.668 -0.3278 -0.2868  0.6839
 5088TIP3    H136823   1.998   2.886   7.742  1.1258  1.5350 -0.2309
 5088TIP3    H236824   1.949   2.812   7.619  0.5631 -0.4465  1.1353
 5089TIP3   OH236825   3.229   2.412   8.192  0.0085 -0.1588 -0.1704
 5089TIP3    H136826   3.224   2.359   8.271 -0.2869 -0.7393 -0.5704
 5089TIP3    H236827   3.228   2.502   8.223  3.0185 -0.3074  0.7133
 5090TIP3   OH236828   0.932   2.286   6.559 -0.1035  0.1774 -1.4717
 5090TIP3    H136829   1.027   2.295   6.569 -0.0197 -1.5937 -0.4395
 5090TIP3    H236830   0.919   2.274   6.465  0.8056 -0.7108 -1.4928
 5091TIP3   OH236831   0.796   6.878   7.823 -0.2738 -0.0523  0.0431
 5091TIP3    H136832   0.716   6.853   7.778 -0.7378  1.1457  0.1478
 5091TIP3    H236833   0.861   6.813   7.797 -0.5631  0.4856 -2.2456
 5092TIP3   OH236834   5.513   6.469   7.525  0.2944 -0.1304  0.0795
 5092TIP3    H136835   5.434   6.463   7.472  1.9454  0.0609 -2.6004
 5092TIP3    H236836   5.511   6.558   7.561  0.3401  0.7023 -1.8504
 5093TIP3   OH236837   4.848   5.848   1.999 -0.1839  0.3244  0.3158
 5093TIP3    H136838   4.799   5.883   2.074  0.3544 -0.4457  1.0432
 5093TIP3    H236839   4.832   5.911   1.929  1.2948  2.4281  1.7383
 5094TIP3   OH236840   4.747   4.098   2.590 -0.0861  0.2896 -0.0671
 5094TIP3    H136841   4.694   4.019   2.587  1.1365 -0.5325 -1.5271
 5094TIP3    H236842   4.803   4.087   2.667 -0.6449  0.2460  0.3401
 5095TIP3   OH236843   0.309   2.204   1.319  0.2319  0.3141  0.0614
 5095TIP3    H136844   0.267   2.190   1.234  0.1449  0.9901 -0.0129
 5095TIP3    H236845   0.256   2.271   1.361  0.0342 -0.3075  0.8247
 5096TIP3   OH236846   5.136   0.278   0.899  0.3221 -0.0483 -0.7144
 5096TIP3    H136847   5.063   0.223   0.928 -0.4242  1.1661 -0.2208
 5096TIP3    H236848   5.097   0.364   0.881  1.4548  0.3452 -1.4689
 5097TIP3   OH236849   2.770   5.610   2.117  0.1157  0.1982 -0.0320
 5097TIP3    H136850   2.825   5.645   2.187  0.5066  1.0944 -0.7725
 5097TIP3    H236851   2.689   5.583   2.162  1.4668 -2.0612  1.2247
 5098TIP3   OH236852   1.390   1.603   7.912  0.3599 -0.0567  0.1021
 5098TIP3    H136853   1.329   1.677   7.918  0.4017  0.0366 -0.5230
 5098TIP3    H236854   1.334   1.527   7.900  0.2320 -0.3537  2.2583
 5099TIP3   OH236855   0.846   5.208   0.987 -0.1506 -0.0038  0.3484
 5099TIP3    H136856   0.854   5.114   0.969 -0.0961  0.2018 -0.7729
 5099TIP3    H236857   0.834   5.213   1.082 -0.8873 -1.1945  0.3431
 5100TIP3   OH236858   3.867   2.236   2.279  0.4078 -0.0090  0.2326
 5100TIP3    H136859   3.846   2.220   2.371 -0.7514  0.3756  0.0486
 5100TIP3    H236860   3.863   2.331   2.269  0.4533 -0.0531 -0.2316
 5101TIP3   OH236861   0.811   6.400   7.149 -0.0840  0.3905  0.7909
 5101TIP3    H136862   0.870   6.339   7.194  0.0116 -1.3577 -1.5025
 5101TIP3    H236863   0.747   6.425   7.216  1.9895  0.7038  2.7950
 5102TIP3   OH236864   5.979   4.224   7.184  0.6034 -0.3998 -0.0844
 5102TIP3    H136865   6.055   4.282   7.184 -0.7162  1.4622 -0.6539
 5102TIP3    H236866   5.984   4.178   7.100  1.3335 -0.6411  0.0871
 5103TIP3   OH236867   5.084   4.277   7.261 -0.1110 -0.9118  0.0429
 5103TIP3    H136868   5.135   4.321   7.192  0.0588 -1.0166  0.1016
 5103TIP3    H236869   4.993   4.297   7.239  0.0022  0.6701  0.8689
 5104TIP3   OH236870   6.254   3.754   6.917  0.0175 -0.3504  0.6043
 5104TIP3    H136871   6.222   3.688   6.855  1.2982 -0.5926  0.1853
 5104TIP3    H236872   6.203   3.737   6.997  1.1095 -2.6589  0.9106
 5105TIP3   OH236873   4.137   2.892   1.771 -0.7522 -0.2417  0.1797
 5105TIP3    H136874   4.154   2.936   1.854 -0.9964 -0.0403  0.1227
 5105TIP3    H236875   4.223   2.889   1.728 -1.0046  1.8818 -0.6403
 5106TIP3   OH236876   2.392   0.314   0.611  0.1914  0.2076 -0.1093
 5106TIP3    H136877   2.324   0.380   0.625  0.7524  0.9301 -0.6758
 5106TIP3    H236878   2.402   0.270   0.695  0.1076  1.1486  0.4027
 5107TIP3   OH236879   6.080   3.026   1.966 -0.5646  0.4157  0.6176
 5107TIP3    H136880   6.008   3.004   2.025 -1.1114  0.7641  0.0913
 5107TIP3    H236881   6.150   3.056   2.023 -0.8128  0.0149  1.1411
 5108TIP3   OH236882   1.746   1.722   0.354 -0.6407 -0.1113 -0.3372
 5108TIP3    H136883   1.787   1.695   0.272 -0.9620 -2.9111  0.3254
 5108TIP3    H236884   1.680   1.785   0.328 -0.5366 -0.7101 -2.2140
 5109TIP3   OH236885   4.227   6.233   0.213 -0.3849  0.0703 -0.0685
 5109TIP3    H136886   4.144   6.278   0.198  0.0598  0.7334 -0.6009
 5109TIP3    H236887   4.217   6.150   0.166 -0.8565  0.0008  0.1378
 5110TIP3   OH236888   6.704   1.614   0.398  0.1556 -0.3115 -0.0934
 5110TIP3    H136889   6.797   1.604   0.378 -0.1271 -3.3638 -0.3369
 5110TIP3    H236890   6.659   1.576   0.323 -1.2676 -0.0744  0.6062
 5111TIP3   OH236891   6.977   3.747   0.915 -0.2181 -0.3005 -0.3215
 5111TIP3    H136892   7.036   3.685   0.957 -1.4499 -2.4484 -1.5902
 5111TIP3    H236893   7.032   3.824   0.897  1.2765 -0.8601  1.5789
 5112TIP3   OH236894   4.698   3.579   2.714  1.0596  0.0970 -0.5022
 5112TIP3    H136895   4.779   3.628   2.723  1.1951 -0.1928 -0.1422
 5112TIP3    H236896   4.707   3.534   2.630  1.2827  0.0459 -0.4520
 5113TIP3   OH236897   3.118   4.530   1.172  0.5347 -0.6289  0.5093
 5113TIP3    H136898   3.192   4.590   1.168  0.9366 -1.1459  0.0183
 5113TIP3    H236899   3.149   4.456   1.225  0.6705 -1.2322 -0.3801
 5114TIP3   OH236900   1.187   3.607   0.615 -0.2817  0.8591 -0.4083
 5114TIP3    H136901   1.191   3.512   0.604 -0.4185  0.8794 -0.6284
 5114TIP3    H236902   1.163   3.641   0.529  0.0585  1.1169 -0.4034
 5115TIP3   OH236903   5.677   3.214   1.661 -0.0251 -0.5874  0.0920
 5115TIP3    H136904   5.734   3.161   1.606  0.3934 -0.1626  0.1038
 5115TIP3    H236905   5.737   3.271   1.710 -0.4970  0.5513 -0.6185
 5116TIP3   OH236906   1.829   4.387   1.188  0.0889  0.4936  0.6526
 5116TIP3    H136907   1.875   4.459   1.232 -0.5288  1.5052 -0.3024
 5116TIP3    H236908   1.755   4.367   1.245 -2.2857  3.6067 -1.0137
 5117TIP3   OH236909   3.756   3.441   6.767 -0.3519 -0.1172  0.1791
 5117TIP3    H136910   3.759   3.477   6.679 -1.8226  0.4246  0.3214
 5117TIP3    H236911   3.846   3.413   6.785  0.0008 -0.1072 -1.4238
 5118TIP3   OH236912   4.716   5.631   1.915 -0.6832 -0.0978 -0.8013
 5118TIP3    H136913   4.641   5.626   1.974  0.4732 -1.7049  0.6238
 5118TIP3    H236914   4.776   5.692   1.957 -0.3911 -0.2837 -0.9400
 5119TIP3   OH236915   2.821   2.425   1.343 -0.6323 -0.1969  0.3848
 5119TIP3    H136916   2.846   2.495   1.403  0.4409 -0.2483  0.0221
 5119TIP3    H236917   2.876   2.440   1.266  0.4278 -2.0588  0.7227
 5120TIP3   OH236918   2.969   6.496   0.614 -0.0910 -0.1966 -0.4713
 5120TIP3    H136919   3.027   6.541   0.552 -2.5382  2.1119 -1.2455
 5120TIP3    H236920   2.892   6.473   0.563 -1.0592 -0.7056  1.1347
 5121TIP3   OH236921   4.635   0.593   0.740 -0.6760 -0.3773  0.8045
 5121TIP3    H136922   4.547   0.568   0.770 -0.9488 -0.9255 -0.3806
 5121TIP3    H236923   4.687   0.513   0.751 -0.4881 -0.2435  0.8904
 5122TIP3   OH236924   0.090   6.660   0.301  0.1325  0.1322 -0.3639
 5122TIP3    H136925   0.021   6.640   0.238 -0.5731  0.7997  0.1860
 5122TIP3    H236926   0.161   6.695   0.248 -0.7342  1.3976 -0.7357
 5123TIP3   OH236927   1.151   2.864   0.663 -0.4093  0.3912 -0.6424
 5123TIP3    H136928   1.170   2.918   0.739 -1.7681 -0.9979  0.7810
 5123TIP3    H236929   1.055   2.858   0.662 -0.3416 -2.5649 -0.1972
 5124TIP3   OH236930   0.348   5.560   1.668  0.3131 -0.3955  0.1961
 5124TIP3    H136931   0.424   5.507   1.691  1.2879  0.8438 -0.0593
 5124TIP3    H236932   0.320   5.600   1.750 -0.2436 -1.0654  0.3381
 5125TIP3   OH236933   5.844   6.132   0.386 -0.0553  0.0359  0.4097
 5125TIP3    H136934   5.819   6.066   0.322 -0.2759  0.4616  0.0460
 5125TIP3    H236935   5.761   6.165   0.420  0.0600 -0.2155  0.9521
 5126TIP3   OH236936   6.472   2.955   7.450  0.0061 -0.3291 -0.1342
 5126TIP3    H136937   6.381   2.983   7.438  0.0744  0.2877  0.6874
 5126TIP3    H236938   6.468   2.860   7.451 -0.1655 -0.4831 -3.5764
 5127TIP3   OH236939   5.912   1.373   1.683 -0.5724 -0.2553 -0.0546
 5127TIP3    H136940   5.976   1.443   1.693 -1.1888  0.3343 -0.2120
 5127TIP3    H236941   5.928   1.338   1.596 -0.1521 -0.4383  0.0890
 5128TIP3   OH236942   1.948   0.015   2.618  0.0506  0.1778 -0.0260
 5128TIP3    H136943   1.943  -0.076   2.590  0.5506 -0.3646  1.5139
 5128TIP3    H236944   1.865   0.031   2.663  0.6768 -0.1219  1.2963
 5129TIP3   OH236945   2.497   0.101   0.459  0.0959 -0.1374  0.1437
 5129TIP3    H136946   2.474   0.033   0.523 -1.1745  0.8796  0.8143
 5129TIP3    H236947   2.458   0.181   0.494  1.7113  0.9983 -0.5271
 5130TIP3   OH236948   5.297   2.331   0.067  0.5579  0.2209 -0.1137
 5130TIP3    H136949   5.262   2.401   0.121 -0.0158 -0.5060  0.4829
 5130TIP3    H236950   5.222   2.273   0.051  1.5471 -1.6665  1.6404
 5131TIP3   OH236951   1.946   6.929   0.566 -0.0211 -0.4943 -0.0155
 5131TIP3    H136952   1.868   6.877   0.548 -0.6489  0.7142 -0.9553
 5131TIP3    H236953   1.974   6.901   0.653 -1.4473 -1.0172  0.3043
 5132TIP3   OH236954   0.613   6.403   7.623 -0.4018 -0.3478 -0.0352
 5132TIP3    H136955   0.634   6.319   7.581 -0.2847 -0.6802  0.6693
 5132TIP3    H236956   0.605   6.382   7.716  0.7615  0.6280  0.3134
 5133TIP3   OH236957   7.005   4.286   0.163  0.6839  0.4051 -0.0247
 5133TIP3    H136958   7.014   4.192   0.180  0.6323  0.3171 -0.4931
 5133TIP3    H236959   7.049   4.328   0.238 -1.6412  0.0463  1.6387
 5134TIP3   OH236960   1.296   4.955   8.110 -0.3715 -0.0613 -0.3508
 5134TIP3    H136961   1.354   4.979   8.038 -0.0273  1.8377  0.5000
 5134TIP3    H236962   1.271   5.039   8.150 -1.7091 -0.9761  0.8475
 5135TIP3   OH236963   6.706   1.811   2.526 -0.2832  0.2737  0.2061
 5135TIP3    H136964   6.727   1.880   2.464 -0.6800 -0.7258 -1.0956
 5135TIP3    H236965   6.610   1.805   2.524 -0.2542 -0.3105  0.2874
 5136TIP3   OH236966   3.274   3.889   0.489  0.4291  0.0141 -0.4892
 5136TIP3    H136967   3.247   3.799   0.471  0.0855  0.2982 -1.4920
 5136TIP3    H236968   3.212   3.921   0.554  2.5674 -1.5121  2.5345
 5137TIP3   OH236969   3.857   0.171   8.238 -0.3608 -0.3045 -0.4110
 5137TIP3    H136970   3.856   0.128   8.324  3.3252 -1.3866 -0.7366
 5137TIP3    H236971   3.823   0.105   8.178 -0.9965 -0.2969 -0.0692
 5138TIP3   OH236972   1.227   3.373   0.497  0.1961  0.5037  0.0733
 5138TIP3    H136973   1.243   3.396   0.406 -2.6307  2.7816  0.0190
 5138TIP3    H236974   1.148   3.320   0.495  0.6795 -0.3058  1.1748
 5139TIP3   OH236975   6.616   4.246   7.416  0.9893 -0.7128  0.1943
 5139TIP3    H136976   6.683   4.315   7.419 -1.7389  2.6068 -3.6282
 5139TIP3    H236977   6.656   4.177   7.364  1.4696  1.4751 -2.6063
 5140TIP3   OH236978   5.024   5.693   0.172 -0.3321 -0.5804  0.3970
 5140TIP3    H136979   4.930   5.691   0.156 -0.3344  1.6211 -0.1423
 5140TIP3    H236980   5.052   5.602   0.160 -2.6552 -1.6968  2.5480
 5141TIP3   OH236981   5.989   6.607   7.634  0.2093  0.0769 -0.7082
 5141TIP3    H136982   5.898   6.604   7.603  0.4752  0.6508 -1.5873
 5141TIP3    H236983   6.026   6.523   7.607 -0.5480 -0.9833  1.3273
 5142TIP3   OH236984   3.876   4.961   2.188  0.5212 -0.2453  0.1463
 5142TIP3    H136985   3.882   5.007   2.271 -1.3038  0.2323  0.0592
 5142TIP3    H236986   3.913   4.874   2.205 -1.8040 -0.9485  2.1248
 5143TIP3   OH236987   5.726   1.750   6.385 -0.3742 -0.6084 -0.0690
 5143TIP3    H136988   5.635   1.781   6.385 -0.0127  0.5303  0.4646
 5143TIP3    H236989   5.764   1.788   6.305 -0.0170  0.0640  0.4107
 5144TIP3   OH236990   0.591   3.932   7.013  0.1140 -0.1553  0.5797
 5144TIP3    H136991   0.630   4.016   6.989  0.0627 -0.3865 -0.3391
 5144TIP3    H236992   0.662   3.869   7.003 -0.0695 -0.3419  0.4374
 5145TIP3   OH236993   5.414   5.072   7.683 -0.2887  0.2710 -0.3887
 5145TIP3    H136994   5.498   5.115   7.697 -0.1628  0.3351 -1.2560
 5145TIP3    H236995   5.355   5.113   7.746  0.5098 -0.3461  0.7821
 5146TIP3   OH236996   3.527   2.133   8.197 -0.0563  0.3392 -0.0717
 5146TIP3    H136997   3.581   2.176   8.264 -0.4963  0.2568  0.3416
 5146TIP3    H236998   3.506   2.203   8.135  0.6044  0.3477 -0.2846
 5147TIP3   OH236999   6.500   2.928   7.140 -0.0447  0.0597 -0.2841
 5147TIP3    H137000   6.521   2.962   7.227  0.8188 -1.5578  0.1889
 5147TIP3    H237001   6.534   2.994   7.080  0.0626  0.8243  0.5937
 5148TIP3   OH237002   3.052   2.543   7.454 -0.2592 -0.3098  0.2680
 5148TIP3    H137003   3.129   2.518   7.402  0.5852 -0.4035  1.5374
 5148TIP3    H237004   2.991   2.580   7.389  0.6895 -0.5769 -0.8150
 5149TIP3   OH237005   6.135   3.228   0.112 -0.2153  0.2330  0.6112
 5149TIP3    H137006   6.107   3.214   0.203 -2.5655  4.5467  0.8339
 5149TIP3    H237007   6.198   3.300   0.117  0.8428 -0.5052 -1.1159
 5150TIP3   OH237008   3.380   5.466   7.878 -0.5093  0.0180  0.7805
 5150TIP3    H137009   3.286   5.454   7.859 -0.0818  0.0889 -1.6760
 5150TIP3    H237010   3.381   5.503   7.966 -2.7909 -0.0661  0.9224
 5151TIP3   OH237011   3.753   2.348   0.790 -0.3007 -0.0995  0.2483
 5151TIP3    H137012   3.764   2.364   0.697 -0.0168  0.8711  0.4336
 5151TIP3    H237013   3.679   2.288   0.796  0.4346 -1.1320 -0.6593
 5152TIP3   OH237014   0.721   5.898   2.209  0.2283 -0.3083 -0.3504
 5152TIP3    H137015   0.738   5.854   2.292 -1.8370 -1.9061 -0.6875
 5152TIP3    H237016   0.636   5.939   2.220  0.4326  0.4369 -1.3385
 5153TIP3   OH237017   5.984   0.753   0.532 -0.3498  0.0018  0.2505
 5153TIP3    H137018   6.076   0.738   0.513 -0.4463 -0.6519  0.2938
 5153TIP3    H237019   5.970   0.846   0.510  0.6295  0.4774  1.5058
 5154TIP3   OH237020   0.987   6.792   7.279  0.0155  0.0775  0.0302
 5154TIP3    H137021   0.893   6.801   7.259 -0.2506  0.7426  1.4330
 5154TIP3    H237022   1.030   6.800   7.195 -1.2291 -0.9785 -0.7555
 5155TIP3   OH237023   2.607   1.878   0.619 -0.1616  0.0614  0.3342
 5155TIP3    H137024   2.548   1.810   0.587  0.3215 -0.5531  0.7353
 5155TIP3    H237025   2.694   1.842   0.605  0.0774 -0.1251  2.0829
 5156TIP3   OH237026   2.296   5.530   7.992  0.2302 -0.0784 -0.0516
 5156TIP3    H137027   2.317   5.617   7.957 -1.8433  0.5592  0.1320
 5156TIP3    H237028   2.216   5.505   7.946  0.2481 -1.4591  0.6331
 5157TIP3   OH237029   3.087   0.984   1.315 -1.0375  0.6213  0.5842
 5157TIP3    H137030   3.146   0.974   1.389  0.1252  0.6919 -0.2979
 5157TIP3    H237031   3.012   1.033   1.349 -0.6588  0.3986  1.7607
 5158TIP3   OH237032   4.902   5.333   1.637 -0.1346  0.0756 -0.0780
 5158TIP3    H137033   4.898   5.429   1.632 -0.3749  0.1081  0.6046
 5158TIP3    H237034   4.921   5.305   1.548 -1.1888  0.7158 -0.5312
 5159TIP3   OH237035   6.632   3.212   7.210  0.5339 -0.0218 -0.2696
 5159TIP3    H137036   6.690   3.282   7.179 -0.4912  1.7388  1.5296
 5159TIP3    H237037   6.567   3.203   7.141  0.5823  0.9503 -0.4640
 5160TIP3   OH237038   1.895   4.865   2.130  0.0567  0.1065  0.0110
 5160TIP3    H137039   1.843   4.919   2.190  0.8465  0.4469  0.4015
 5160TIP3    H237040   1.960   4.822   2.186  0.7283  0.3390 -0.5803
 5161TIP3   OH237041   3.915   5.047   1.044  0.7095 -0.0265 -0.2068
 5161TIP3    H137042   3.839   5.102   1.024  0.3666 -0.4126  0.0208
 5161TIP3    H237043   3.895   4.963   1.004  0.2954 -0.6148  1.1859
 5162TIP3   OH237044   2.810   1.201   7.476 -0.1784  0.9285  0.4073
 5162TIP3    H137045   2.905   1.193   7.464 -0.2541 -0.4080  0.5518
 5162TIP3    H237046   2.776   1.114   7.453 -1.4945  1.7252 -0.7889
 5163TIP3   OH237047   5.308   4.282   1.294 -0.6043 -0.3306  0.4670
 5163TIP3    H137048   5.214   4.291   1.306 -0.9687  1.2511 -2.5401
 5163TIP3    H237049   5.318   4.225   1.217  0.9775 -1.6959  1.6115
 5164TIP3   OH237050   5.401   3.164   1.638 -0.1945 -0.2494 -0.0016
 5164TIP3    H137051   5.490   3.195   1.653 -0.4050  0.1665  0.4351
 5164TIP3    H237052   5.360   3.233   1.585  0.0507 -0.9401 -1.1452
 5165TIP3   OH237053   5.448   3.962   7.461  0.1186 -0.6049  0.1643
 5165TIP3    H137054   5.450   4.028   7.392 -2.4498 -0.2216  0.3719
 5165TIP3    H237055   5.518   3.901   7.438  1.9480  1.6222 -0.5595
 5166TIP3   OH237056   2.229   3.023   0.409 -0.0010  0.1895  0.0418
 5166TIP3    H137057   2.176   3.020   0.489 -1.1772 -0.1274 -0.7377
 5166TIP3    H237058   2.305   2.967   0.429  0.0039  0.5603  1.1247
 5167TIP3   OH237059   1.145   5.340   0.903 -0.4416  0.2212  0.8622
 5167TIP3    H137060   1.121   5.319   0.994 -0.4828 -3.7519  0.1265
 5167TIP3    H237061   1.062   5.336   0.855 -0.0879 -0.2044  0.2820
 5168TIP3   OH237062   2.047   0.252   6.575 -0.4979 -0.6571 -0.6559
 5168TIP3    H137063   2.032   0.343   6.603 -0.7201 -0.4809 -1.3134
 5168TIP3    H237064   1.966   0.206   6.599 -1.0783 -0.2981 -1.7997
 5169TIP3   OH237065   6.839   0.247   1.155  0.1227  0.4869 -0.0193
 5169TIP3    H137066   6.869   0.337   1.138  0.4027  0.0344 -2.1595
 5169TIP3    H237067   6.756   0.240   1.108  0.5996 -0.6668 -0.7370
 5170TIP3   OH237068   4.977   4.790   0.689  0.2901 -0.3291  1.0014
 5170TIP3    H137069   5.041   4.846   0.644  2.0928 -1.8174  1.6102
 5170TIP3    H237070   4.951   4.726   0.623  0.8561 -0.8501  1.2776
 5171TIP3   OH237071   1.404   5.109   1.478  0.1963 -0.1438 -0.1952
 5171TIP3    H137072   1.353   5.051   1.534 -0.9441  0.1165 -0.9269
 5171TIP3    H237073   1.343   5.180   1.457  0.4080 -0.5148 -2.2002
 5172TIP3   OH237074   5.344   1.520   1.562  0.0307  0.2476  0.2693
 5172TIP3    H137075   5.272   1.482   1.613  0.1694 -1.6803 -0.8849
 5172TIP3    H237076   5.322   1.613   1.555 -1.7079 -0.0759  0.9952
 5173TIP3   OH237077   2.760   4.641   7.725 -0.1686 -0.1527  0.0604
 5173TIP3    H137078   2.684   4.696   7.705  0.0835 -0.5617 -2.2724
 5173TIP3    H237079   2.825   4.701   7.760 -0.7571  0.6063 -0.1233
 5174TIP3   OH237080   5.440   2.884   2.146 -0.0421  0.0906  0.3710
 5174TIP3    H137081   5.445   2.789   2.155  0.3141  0.3065  3.6591
 5174TIP3    H237082   5.347   2.903   2.149 -0.0777 -0.1240  0.8683
 5175TIP3   OH237083   0.968   1.706   1.185  0.4413 -0.2815  0.5074
 5175TIP3    H137084   0.916   1.680   1.109  0.1274 -1.4764  1.1020
 5175TIP3    H237085   0.912   1.686   1.260  0.5290  1.3937  1.0552
 5176TIP3   OH237086   2.944   1.262   1.800  0.1092 -0.3749 -0.0168
 5176TIP3    H137087   2.986   1.316   1.867  0.3355 -0.0383 -0.4259
 5176TIP3    H237088   2.851   1.266   1.821  0.2163 -0.6079  0.5194
 5177TIP3   OH237089   1.717   3.590   6.640 -0.2284 -0.0481  0.2902
 5177TIP3    H137090   1.683   3.639   6.566  0.0992 -2.6905 -1.7455
 5177TIP3    H237091   1.646   3.531   6.665 -0.5808  1.2178  2.6131
 5178TIP3   OH237092   2.875   5.379   7.537 -0.3426 -0.0051 -0.6297
 5178TIP3    H137093   2.820   5.438   7.590  1.0943 -0.7333  1.8112
 5178TIP3    H237094   2.826   5.297   7.534  1.3015 -1.3455  3.3326
 5179TIP3   OH237095   1.865   0.908   2.251  1.0189 -0.1823  0.5458
 5179TIP3    H137096   1.905   0.821   2.258 -0.1268 -0.6788  1.1753
 5179TIP3    H237097   1.934   0.968   2.280  1.6785 -0.9097  0.5309
 5180TIP3   OH237098   5.759   3.600   7.589 -0.3887  0.3305 -0.1260
 5180TIP3    H137099   5.844   3.644   7.594  0.3999 -1.0829 -0.3633
 5180TIP3    H237100   5.709   3.634   7.663  0.1212  1.7053 -0.3897
 5181TIP3   OH237101   2.657   3.385   0.406  0.1053  0.4528 -0.6349
 5181TIP3    H137102   2.732   3.356   0.353 -1.3205  0.4549 -2.7836
 5181TIP3    H237103   2.624   3.305   0.447  0.7181  0.3043 -0.4268
 5182TIP3   OH237104   2.157   3.956   7.593  0.2647  0.2036 -0.2446
 5182TIP3    H137105   2.085   3.897   7.572 -0.1283  1.3807 -2.4507
 5182TIP3    H237106   2.232   3.921   7.546  0.5430  0.3325  0.0976
 5183TIP3   OH237107   4.366   4.722   7.833 -0.5172 -0.8844  0.2890
 5183TIP3    H137108   4.272   4.715   7.850 -0.4456 -1.7935  0.3455
 5183TIP3    H237109   4.407   4.692   7.914 -0.1759 -0.1832  0.3784
 5184TIP3   OH237110   5.704   2.842   7.953  0.6682 -0.8450 -0.3346
 5184TIP3    H137111   5.797   2.825   7.967  0.5544 -0.5853  0.8215
 5184TIP3    H237112   5.663   2.822   8.037 -0.2484 -0.4634 -0.6800
 5185TIP3   OH237113   5.842   2.842   0.232  0.0921 -0.0952 -0.3700
 5185TIP3    H137114   5.843   2.937   0.243 -2.0372  0.4733 -3.7397
 5185TIP3    H237115   5.918   2.823   0.177  0.4800 -0.3819  0.2473
 5186TIP3   OH237116   2.332   5.792   7.903 -0.3662 -0.6831  0.3584
 5186TIP3    H137117   2.334   5.887   7.914  1.1050 -0.6941  0.4200
 5186TIP3    H237118   2.361   5.778   7.813 -1.0365 -1.0577  0.1987
 5187TIP3   OH237119   3.061   1.729   0.149  0.2365 -0.8365  0.0704
 5187TIP3    H137120   3.135   1.717   0.208  2.8154 -0.0872 -2.7644
 5187TIP3    H237121   3.076   1.814   0.108 -1.7775 -0.9951 -1.1420
 5188TIP3   OH237122   2.643   4.895   2.525 -0.4635 -0.0606 -0.4179
 5188TIP3    H137123   2.721   4.949   2.513  0.0924 -0.7092  0.2232
 5188TIP3    H237124   2.670   4.828   2.587 -1.7030  0.0519  0.2655
 5189TIP3   OH237125   1.613   5.761   2.353  0.0080 -0.1026 -0.2136
 5189TIP3    H137126   1.697   5.808   2.351 -0.2095  0.3340  0.5497
 5189TIP3    H237127   1.548   5.829   2.371 -0.4012 -0.5835  0.1464
 5190TIP3   OH237128   5.521   0.672   1.608  0.2959  0.1604 -0.4296
 5190TIP3    H137129   5.527   0.767   1.613  0.3784  0.2535 -1.8964
 5190TIP3    H237130   5.428   0.653   1.595  0.1988 -0.0072  0.4437
 5191TIP3   OH237131   5.750   3.965   6.983 -0.1271  0.7475  0.3259
 5191TIP3    H137132   5.704   4.029   7.039  0.4602  0.5032  1.1068
 5191TIP3    H237133   5.836   4.004   6.969  0.2459  0.1163  0.8369
 5192TIP3   OH237134   6.842   2.710   7.943  0.2674 -0.2847 -0.1992
 5192TIP3    H137135   6.781   2.655   7.992 -0.8264  0.3815 -0.7891
 5192TIP3    H237136   6.858   2.662   7.862 -1.0086  0.4300 -0.8950
 5193TIP3   OH237137   5.283   5.191   7.465  0.3817  0.4659 -0.6439
 5193TIP3    H137138   5.308   5.134   7.538 -0.0392  1.8676  0.6420
 5193TIP3    H237139   5.366   5.223   7.430  0.5578  0.3857 -0.2989
 5194TIP3   OH237140   2.757   0.941   0.143 -0.7188  0.4051  0.3660
 5194TIP3    H137141   2.727   0.960   0.054  0.4206  0.4290 -0.0301
 5194TIP3    H237142   2.795   0.854   0.138 -3.1100 -0.7999  1.4846
 5195TIP3   OH237143   2.178   1.662   1.961  0.2626 -0.1148  0.1959
 5195TIP3    H137144   2.213   1.573   1.951  0.2361 -0.2057  0.8938
 5195TIP3    H237145   2.083   1.650   1.961  0.2593 -0.0876  0.2762
 5196TIP3   OH237146   3.536   6.999   1.024 -0.2312  0.1001  0.1856
 5196TIP3    H137147   3.450   7.019   1.059 -0.7312  2.4611 -2.1028
 5196TIP3    H237148   3.530   7.021   0.931  2.0889 -2.1998 -0.6432
 5197TIP3   OH237149   3.568   1.478   1.199  0.0374 -0.0248  0.7119
 5197TIP3    H137150   3.477   1.472   1.172  0.4120 -0.7737 -0.4477
 5197TIP3    H237151   3.567   1.541   1.272 -1.1704  1.2040 -0.2971
 5198TIP3   OH237152   1.759   6.086   0.569  0.3489  0.3371  0.1491
 5198TIP3    H137153   1.737   6.025   0.639  2.0907  0.7511  1.1175
 5198TIP3    H237154   1.675   6.121   0.540 -0.6294 -1.9361  0.0755
 5199TIP3   OH237155   5.849   4.203   2.556 -0.4683 -0.1663  0.4230
 5199TIP3    H137156   5.788   4.265   2.597  1.0993  1.4555  0.3940
 5199TIP3    H237157   5.931   4.251   2.547  0.7700 -2.1816  0.1800
 5200TIP3   OH237158   6.464   2.871   2.042 -0.3196  0.1259  0.2426
 5200TIP3    H137159   6.456   2.959   2.004 -0.5656  0.1423  0.3264
 5200TIP3    H237160   6.428   2.813   1.975  0.6703 -0.0062 -0.1841
 5201TIP3   OH237161   2.717   6.325   6.678 -0.0459 -0.8400  0.5089
 5201TIP3    H137162   2.650   6.301   6.614 -1.1180  0.6150  1.0339
 5201TIP3    H237163   2.760   6.401   6.640 -0.5893 -0.0572  1.4147
 5202TIP3   OH237164   0.468   5.342   2.501 -0.0108  0.4649  0.3304
 5202TIP3    H137165   0.376   5.345   2.472  0.1401 -1.6837 -0.5767
 5202TIP3    H237166   0.465   5.295   2.584  0.2912  0.2010  0.1916
 5203TIP3   OH237167   2.251   0.222   7.913  0.0270 -0.8819  0.0100
 5203TIP3    H137168   2.257   0.127   7.924 -1.3531 -0.8109  1.7688
 5203TIP3    H237169   2.276   0.258   7.998 -2.3831  0.1609  0.3590
 5204TIP3   OH237170   1.177   6.754   0.900  0.1055  0.2426  0.1679
 5204TIP3    H137171   1.088   6.784   0.881  0.3079  0.0043 -1.2284
 5204TIP3    H237172   1.222   6.757   0.816  1.5045  0.5901  0.8904
 5205TIP3   OH237173   5.334   0.160   7.648  0.7409  0.1148  0.1878
 5205TIP3    H137174   5.256   0.113   7.618 -1.7150  0.6543  4.8344
 5205TIP3    H237175   5.310   0.252   7.646  1.0399  0.2702  1.9940
 5206TIP3   OH237176   6.015   4.486   7.994 -0.4533 -0.0737 -0.0448
 5206TIP3    H137177   6.009   4.393   8.016  1.0886 -0.7920 -2.3429
 5206TIP3    H237178   5.955   4.497   7.921  0.8705  0.2530 -1.1103
 5207TIP3   OH237179   6.292   7.008   2.234 -0.7190  0.2167 -0.0626
 5207TIP3    H137180   6.353   7.076   2.209 -0.3382 -0.1493 -0.1370
 5207TIP3    H237181   6.337   6.958   2.302  0.5890 -2.2823 -2.5908
 5208TIP3   OH237182   6.212   3.716   2.583 -0.1680 -0.2743  0.3532
 5208TIP3    H137183   6.181   3.804   2.607  1.9425  0.3709  0.9066
 5208TIP3    H237184   6.257   3.729   2.500 -0.0301 -0.8811  0.3345
 5209TIP3   OH237185   1.514   0.063   0.482 -0.9143  0.5596 -0.6950
 5209TIP3    H137186   1.481  -0.026   0.468  0.9737 -0.2229 -0.5479
 5209TIP3    H237187   1.465   0.117   0.420 -0.2396 -1.0497 -2.7883
 5210TIP3   OH237188   1.219   6.819   7.496  0.5565 -0.0085  0.1277
 5210TIP3    H137189   1.310   6.816   7.524  1.1207  2.1072 -1.1924
 5210TIP3    H237190   1.207   6.739   7.445  1.0802 -1.2118  1.7955
 5211TIP3   OH237191   5.889   1.743   7.733  0.0773 -0.4426 -0.3494
 5211TIP3    H137192   5.946   1.676   7.770 -0.2644 -1.4068 -1.5135
 5211TIP3    H237193   5.910   1.823   7.782  0.0772 -1.5107  1.4520
 5212TIP3   OH237194   3.886   4.832   0.875 -0.1419 -0.0116 -0.4776
 5212TIP3    H137195   3.815   4.796   0.822 -0.1551 -1.8056  0.7052
 5212TIP3    H237196   3.964   4.821   0.820 -0.4104 -0.2306 -0.8192
 5213TIP3   OH237197   3.030   1.648   7.459 -0.4655 -0.2316 -0.1737
 5213TIP3    H137198   3.072   1.622   7.377 -0.6663  0.5845 -0.5432
 5213TIP3    H237199   3.054   1.579   7.521  1.3189  0.1403 -0.4047
 5214TIP3   OH237200   0.138   4.488   2.226  0.3058 -0.2630 -0.4296
 5214TIP3    H137201   0.207   4.477   2.292  0.1770  0.6148 -0.1302
 5214TIP3    H237202   0.120   4.400   2.194  0.8118 -0.6240  0.2678
 5215TIP3   OH237203   3.006   6.220   2.149  0.7945 -0.0570 -0.2217
 5215TIP3    H137204   3.028   6.297   2.202  1.6420 -0.5349  0.1248
 5215TIP3    H237205   2.911   6.226   2.138  0.6779  0.3664  0.8640
 5216TIP3   OH237206   2.850   2.079   2.267  0.3512 -0.0531  0.0341
 5216TIP3    H137207   2.847   2.094   2.361 -1.0198 -1.0624  0.1770
 5216TIP3    H237208   2.801   2.151   2.229 -1.6702 -1.1895  0.3448
 5217TIP3   OH237209   3.585   3.095   0.061 -0.4476 -0.1639 -0.2986
 5217TIP3    H137210   3.503   3.130   0.025 -0.2853 -0.4099 -0.9253
 5217TIP3    H237211   3.634   3.173   0.089 -1.0365 -0.0362  0.4087
 5218TIP3   OH237212   2.908   4.862   7.832 -0.2348  0.1095  0.9412
 5218TIP3    H137213   2.999   4.879   7.808 -0.6773 -0.5289 -1.5099
 5218TIP3    H237214   2.861   4.942   7.808 -0.3828  0.3311  1.9245
 5219TIP3   OH237215   1.074   3.853   8.053  0.4161 -0.2395 -0.4271
 5219TIP3    H137216   1.019   3.909   7.998  0.7861  0.1465 -0.4102
 5219TIP3    H237217   1.124   3.800   7.991 -2.1963 -2.8929 -0.4908
 5220TIP3   OH237218   5.160   4.637   2.177 -0.3901 -0.2590  0.0827
 5220TIP3    H137219   5.072   4.650   2.211 -0.2848 -0.3269  0.3878
 5220TIP3    H237220   5.147   4.600   2.089 -0.6622 -0.5218  0.2337
 5221TIP3   OH237221   6.012   1.527   7.887  0.2474  0.0630  0.3930
 5221TIP3    H137222   6.080   1.562   7.944  1.3797  1.8071 -1.8584
 5221TIP3    H237223   6.014   1.433   7.901  3.0826  0.0561  0.5045
 5222TIP3   OH237224   4.501   3.639   0.329 -0.3749  0.0225  0.2298
 5222TIP3    H137225   4.407   3.626   0.312 -0.2055 -2.0619  0.5318
 5222TIP3    H237226   4.517   3.590   0.410  1.1656 -0.5624 -0.3926
 5223TIP3   OH237227   0.609   5.857   7.406  0.1489 -0.2482  0.5836
 5223TIP3    H137228   0.642   5.941   7.440  2.9973 -1.9452  2.4211
 5223TIP3    H237229   0.591   5.876   7.313  1.7110  2.1668  0.6536
 5224TIP3   OH237230   6.664   1.265   0.381 -0.1740  0.1191  0.1990
 5224TIP3    H137231   6.754   1.267   0.414 -0.5137 -1.8916  1.4172
 5224TIP3    H237232   6.622   1.341   0.421  1.1813  1.6528 -1.1483
 5225TIP3   OH237233   5.903   3.669   2.976  0.3193  0.4185 -0.1231
 5225TIP3    H137234   5.829   3.648   2.919  0.9677 -0.2046 -0.7570
 5225TIP3    H237235   5.974   3.612   2.945  0.5859 -0.2023  1.5329
 5226TIP3   OH237236   5.072   4.937   2.741 -0.6279 -0.9006  0.8113
 5226TIP3    H137237   5.115   4.863   2.782 -0.7725 -0.2222  2.2549
 5226TIP3    H237238   5.122   5.013   2.769  0.2047 -0.4806 -1.5404
 5227TIP3   OH237239   0.758   0.005   7.168  0.2783 -0.0517  0.2885
 5227TIP3    H137240   0.663   0.020   7.173  0.3908  1.0532 -0.4768
 5227TIP3    H237241   0.795   0.072   7.225  0.6448  0.2072 -0.2533
 5228TIP3   OH237242   1.527   5.846   6.778 -0.4313  0.3547  0.3828
 5228TIP3    H137243   1.592   5.906   6.813 -0.5688  0.6861  0.0690
 5228TIP3    H237244   1.480   5.896   6.712 -0.4688 -0.1320  0.0319
 5229TIP3   OH237245   0.447   5.451   7.401 -0.0572  0.1879  0.3085
 5229TIP3    H137246   0.363   5.431   7.360  0.0254  4.3018 -2.5873
 5229TIP3    H237247   0.505   5.469   7.327  2.2071  1.4003  2.2490
 5230TIP3   OH237248   2.837   0.821   7.637  0.1208  0.5906 -0.5071
 5230TIP3    H137249   2.746   0.795   7.650  0.9178 -2.1025  0.3478
 5230TIP3    H237250   2.840   0.854   7.548 -1.8732  1.8226 -0.1854
 5231TIP3   OH237251   3.231   5.500   1.780  0.6689 -0.0014 -0.5600
 5231TIP3    H137252   3.257   5.454   1.860 -1.0096 -1.2498 -0.6801
 5231TIP3    H237253   3.273   5.585   1.787  0.3333  0.0332  1.8204
 5232TIP3   OH237254   1.164   5.727   0.502 -0.1140 -0.5155 -0.3008
 5232TIP3    H137255   1.163   5.757   0.593  0.3194 -1.3788 -0.0052
 5232TIP3    H237256   1.080   5.682   0.490  0.3447 -1.4669  0.0389
 5233TIP3   OH237257   5.300   6.981   0.651 -0.8345 -0.2341  0.1957
 5233TIP3    H137258   5.305   6.999   0.557 -2.0459  0.2422  0.2010
 5233TIP3    H237259   5.354   7.050   0.691 -1.6911  0.6137 -0.0661
 5234TIP3   OH237260   1.317   6.356   0.890 -0.2852 -0.2332 -0.3517
 5234TIP3    H137261   1.277   6.443   0.881  1.7831  0.8774  0.5681
 5234TIP3    H237262   1.387   6.355   0.825  1.5462 -0.0416  1.5087
 5235TIP3   OH237263   2.577   3.003   7.933  0.1098  0.0404  0.2641
 5235TIP3    H137264   2.661   3.012   7.888 -0.6392 -0.6878 -1.3586
 5235TIP3    H237265   2.553   3.093   7.956  0.4609  0.4694 -0.9471
 5236TIP3   OH237266   5.386   3.833   0.030  0.0617 -0.0527 -0.5454
 5236TIP3    H137267   5.397   3.739   0.047  0.2279 -0.2817 -1.7940
 5236TIP3    H237268   5.350   3.868   0.111 -1.5728 -1.4976 -0.5935
 5237TIP3   OH237269   6.688   2.584   0.641  0.2567 -0.0055 -0.3774
 5237TIP3    H137270   6.721   2.645   0.707 -0.5598  0.5331 -0.4554
 5237TIP3    H237271   6.747   2.509   0.646  0.5104  0.2490  0.5996
 5238TIP3   OH237272   6.624   2.573   6.734  0.2123 -0.3973 -0.2303
 5238TIP3    H137273   6.625   2.668   6.724  0.2798 -0.2454  1.0294
 5238TIP3    H237274   6.712   2.551   6.764  0.0712 -0.7918 -0.0918
 5239TIP3   OH237275   3.820   4.461   2.234 -0.2707 -0.5179  0.0158
 5239TIP3    H137276   3.777   4.489   2.154  1.6786 -3.0362 -2.0951
 5239TIP3    H237277   3.756   4.403   2.277 -1.2888  0.7756  0.3028
 5240TIP3   OH237278   4.606   3.762   0.950 -0.4398  0.3710 -0.4794
 5240TIP3    H137279   4.568   3.844   0.918  0.1514  2.0501  2.6949
 5240TIP3    H237280   4.657   3.729   0.876 -1.1473  2.5458 -2.0633
 5241TIP3   OH237281   5.370   4.827   7.584 -0.7172  0.2373  0.1801
 5241TIP3    H137282   5.387   4.918   7.610 -0.0503  0.6218 -1.5208
 5241TIP3    H237283   5.404   4.775   7.657  1.0484  1.2705  0.1490
 5242TIP3   OH237284   2.011   2.681   7.512 -0.1533 -0.0277 -0.2816
 5242TIP3    H137285   2.045   2.609   7.565  1.8501  0.8303 -0.3139
 5242TIP3    H237286   2.041   2.662   7.423 -0.0372  0.5900 -0.3771
 5243TIP3   OH237287   1.474   0.835   1.093  0.2781 -0.0031 -0.7125
 5243TIP3    H137288   1.444   0.802   1.008 -0.1388 -1.1864 -0.1193
 5243TIP3    H237289   1.484   0.757   1.147 -2.6960  0.8918  1.3850
 5244TIP3   OH237290   2.536   2.436   7.218  0.4808  0.6878  0.0551
 5244TIP3    H137291   2.490   2.371   7.270  2.4909 -1.9303 -1.1796
 5244TIP3    H237292   2.472   2.467   7.155 -0.4068 -0.5212  0.3335
 5245TIP3   OH237293   6.209   2.791   6.131  0.8178  0.3206  0.0007
 5245TIP3    H137294   6.301   2.815   6.139  2.1173 -3.4200 -1.5832
 5245TIP3    H237295   6.173   2.806   6.218  3.5560 -0.3573  1.3630
 5246TIP3   OH237296   3.069   1.248   7.421  0.9969  0.4523 -0.1651
 5246TIP3    H137297   3.139   1.254   7.356  1.0857  0.6792 -0.0517
 5246TIP3    H237298   3.100   1.301   7.495  0.6302  0.7004 -0.1844
 5247TIP3   OH237299   4.365   2.017   0.693 -0.2562 -0.4824 -0.5001
 5247TIP3    H137300   4.358   2.109   0.666 -0.2726 -0.1729  0.5087
 5247TIP3    H237301   4.430   2.018   0.764 -0.4052 -1.2154 -0.3468
 5248TIP3   OH237302   2.342   3.477   1.436 -0.0855 -0.7315  0.1112
 5248TIP3    H137303   2.319   3.453   1.526  0.0847 -0.1244  0.3259
 5248TIP3    H237304   2.393   3.557   1.446 -1.7347  0.4606 -0.6600
 5249TIP3   OH237305   4.656   2.782   7.807  0.3893  0.6218 -0.3966
 5249TIP3    H137306   4.596   2.854   7.826  0.2562  0.5291 -0.4545
 5249TIP3    H237307   4.673   2.789   7.713  0.5294  0.6927 -0.3660
 5250TIP3   OH237308   5.478   1.926   1.105  0.1428  0.2622 -0.6365
 5250TIP3    H137309   5.537   1.853   1.124 -0.7205  0.0580  1.5966
 5250TIP3    H237310   5.404   1.887   1.060  0.9168  0.2516 -1.9468
 5251TIP3   OH237311   0.852   4.464   6.450  0.3657 -0.1137 -0.5269
 5251TIP3    H137312   0.934   4.500   6.483 -0.7400  0.1995  2.1079
 5251TIP3    H237313   0.869   4.371   6.439  0.4944 -0.5118  2.3432
 5252TIP3   OH237314   5.585   1.551   1.957 -0.1287 -0.1148 -0.2545
 5252TIP3    H137315   5.562   1.485   1.892 -0.1521  0.1419 -0.5102
 5252TIP3    H237316   5.657   1.512   2.007  2.2628  0.9578 -2.6049
 5253TIP3   OH237317   2.448   1.351   2.242  0.2797  0.3453  0.0380
 5253TIP3    H137318   2.391   1.305   2.304  0.5130 -0.5760 -0.4162
 5253TIP3    H237319   2.456   1.440   2.278 -0.4821  0.1465  0.7293
 5254TIP3   OH237320   4.354   2.704   7.739  0.3276  0.4582  0.1291
 5254TIP3    H137321   4.275   2.705   7.685 -0.1209 -1.3361  0.6841
 5254TIP3    H237322   4.323   2.723   7.828  0.5956  0.2757  0.2625
 5255TIP3   OH237323   2.471   0.540   0.960 -0.1779 -0.5338  0.2121
 5255TIP3    H137324   2.383   0.509   0.979 -0.7212  2.2952  2.9547
 5255TIP3    H237325   2.468   0.565   0.867 -2.4652  0.0682  0.3930
 5256TIP3   OH237326   2.518   2.139   1.395 -0.3814  0.2763 -0.4117
 5256TIP3    H137327   2.426   2.135   1.418  0.5034  0.2645  3.8807
 5256TIP3    H237328   2.541   2.049   1.370 -1.2347  0.0168 -0.2781
 5257TIP3   OH237329   0.652   6.796   0.740  0.2209 -0.3151 -0.3023
 5257TIP3    H137330   0.613   6.813   0.825  2.3403 -0.8476  0.8629
 5257TIP3    H237331   0.612   6.860   0.681 -0.6609  0.6446  1.2810
 5258TIP3   OH237332   1.235   4.061   0.755  0.0947 -0.0237  0.3756
 5258TIP3    H137333   1.312   4.006   0.763 -0.7200 -1.2124  0.2372
 5258TIP3    H237334   1.270   4.150   0.745  1.4392 -0.6047 -0.2841
 5259TIP3   OH237335   5.511   6.988   7.079 -0.3291  0.1525 -0.0151
 5259TIP3    H137336   5.603   6.960   7.074 -0.1584  0.9249 -2.1832
 5259TIP3    H237337   5.469   6.922   7.134  1.3609 -0.6427  0.3937
 5260TIP3   OH237338   4.830   1.555   7.380 -0.1925 -0.3090  0.4846
 5260TIP3    H137339   4.826   1.590   7.469 -0.9483 -0.2425  0.4236
 5260TIP3    H237340   4.869   1.468   7.390  1.4816  0.4058  0.6689
 5261TIP3   OH237341   5.674   1.355   0.261 -0.1477  0.1825 -0.3971
 5261TIP3    H137342   5.757   1.400   0.246 -1.9941  3.8167 -0.8015
 5261TIP3    H237343   5.656   1.368   0.354  0.1122 -1.4411 -0.0909
 5262TIP3   OH237344   2.366   0.808   7.335  0.6468  0.5964 -0.5042
 5262TIP3    H137345   2.364   0.864   7.412 -0.8036  1.7722 -1.3435
 5262TIP3    H237346   2.285   0.757   7.341  1.1140 -0.1789 -0.6462
 5263TIP3   OH237347   4.563   5.814   7.084  0.4062 -0.3605 -0.0175
 5263TIP3    H137348   4.531   5.899   7.115 -1.6615 -0.4209 -1.7400
 5263TIP3    H237349   4.607   5.834   7.002  1.9040 -0.7176  0.6812
 5264TIP3   OH237350   1.109   3.755   1.272  0.6415 -0.0451  0.7105
 5264TIP3    H137351   1.147   3.835   1.308 -0.7572  1.9491 -1.8654
 5264TIP3    H237352   1.096   3.698   1.348  1.7452  2.1419  2.6611
 5265TIP3   OH237353   3.633   6.923   7.318  0.5618 -0.3295  0.0266
 5265TIP3    H137354   3.550   6.935   7.364 -0.2776 -0.9121 -1.2640
 5265TIP3    H237355   3.625   6.836   7.278  2.1429 -0.7510  0.5636
 5266TIP3   OH237356   3.937   5.180   1.891 -0.0598  0.6921 -0.0129
 5266TIP3    H137357   3.980   5.248   1.840 -1.9288  1.8117 -0.1981
 5266TIP3    H237358   3.981   5.180   1.976 -0.3244  2.4910  0.1542
 5267TIP3   OH237359   3.123   4.394   6.882 -0.4417 -0.4649 -0.2140
 5267TIP3    H137360   3.142   4.445   6.803  0.6417 -1.2466 -0.4741
 5267TIP3    H237361   3.206   4.391   6.929 -0.5681 -1.7180 -0.0441
 5268TIP3   OH237362   4.557   1.396   8.335  0.3851  0.4575 -0.0523
 5268TIP3    H137363   4.620   1.424   8.269 -0.2132  2.0179 -0.0069
 5268TIP3    H237364   4.477   1.444   8.314 -0.8121 -1.4468 -0.0803
 5269TIP3   OH237365   6.639   5.847   6.427  0.2069 -0.7164 -0.4348
 5269TIP3    H137366   6.617   5.933   6.392  0.0931 -1.2025 -1.5974
 5269TIP3    H237367   6.587   5.839   6.507 -1.5424 -0.6083 -1.5132
 5270TIP3   OH237368   6.744   1.204   7.707  0.1921  0.1114  0.6115
 5270TIP3    H137369   6.755   1.142   7.635  1.0199 -0.0508  0.8642
 5270TIP3    H237370   6.811   1.271   7.691 -1.2641  1.4440 -0.1533
 5271TIP3   OH237371   5.147   3.159   1.339  0.0837  0.2948  0.4205
 5271TIP3    H137372   5.158   3.103   1.415 -0.3243  1.0903  1.0745
 5271TIP3    H237373   5.057   3.143   1.309  0.2379 -0.0055  0.1153
 5272TIP3   OH237374   0.879   1.695   2.177  0.1594 -0.4852 -0.2907
 5272TIP3    H137375   0.974   1.697   2.172  0.1651 -0.1205 -0.0784
 5272TIP3    H237376   0.853   1.625   2.118  0.5238 -0.0739 -0.9535
 5273TIP3   OH237377   3.041   3.677   7.623  1.0015 -0.1033 -0.4889
 5273TIP3    H137378   3.068   3.769   7.612  1.5589 -0.5091 -3.1427
 5273TIP3    H237379   3.105   3.627   7.572 -1.0860 -1.6858 -1.7164
 5274TIP3   OH237380   3.308   5.932   0.274  0.2292  0.5027  0.4582
 5274TIP3    H137381   3.331   5.987   0.349 -0.6127  0.8879  0.4530
 5274TIP3    H237382   3.299   5.994   0.201 -1.1367  0.4458  0.5393
 5275TIP3   OH237383   6.582   4.317   1.298  0.2512  1.1800  0.2539
 5275TIP3    H137384   6.600   4.229   1.330 -0.4666 -0.0949 -2.5218
 5275TIP3    H237385   6.641   4.328   1.223 -1.8621  1.7321 -1.4365
 5276TIP3   OH237386   5.350   2.476   0.732  0.0033 -0.0325  0.0424
 5276TIP3    H137387   5.317   2.564   0.714  2.5370  1.1198  0.5578
 5276TIP3    H237388   5.368   2.476   0.826  0.0065 -1.1267  0.0554
 5277TIP3   OH237389   3.516   2.505   1.754 -0.3267 -0.0500  0.2300
 5277TIP3    H137390   3.455   2.550   1.696 -1.5104 -0.5826  1.0235
 5277TIP3    H237391   3.490   2.413   1.749  0.1964 -0.2370  0.8612
 5278TIP3   OH237392   4.719   2.429   7.856 -0.5434 -0.3209  0.5175
 5278TIP3    H137393   4.730   2.471   7.941 -1.2680 -0.3764  0.6445
 5278TIP3    H237394   4.711   2.336   7.876  0.4517 -0.4688  0.2850
 5279TIP3   OH237395   2.086   1.325   2.188  0.2108  0.1130  0.1888
 5279TIP3    H137396   2.137   1.244   2.183  0.1183  0.0410  0.4221
 5279TIP3    H237397   2.087   1.349   2.281 -1.1061 -0.4759  0.3750
 5280TIP3   OH237398   4.257   6.403   8.161  0.2261 -0.3490  0.1311
 5280TIP3    H137399   4.236   6.313   8.138  1.0305  0.0245 -2.3145
 5280TIP3    H237400   4.349   6.401   8.187  0.5426 -0.0889 -0.9401
 5281TIP3   OH237401   3.993   1.950   6.492 -0.1760 -0.3071 -0.3249
 5281TIP3    H137402   4.061   1.974   6.430 -1.6842  2.8116 -0.9616
 5281TIP3    H237403   4.009   2.005   6.568 -2.0132  0.5876 -0.5407
 5282TIP3   OH237404   5.951   5.204   1.538 -0.5127  0.5258  0.1653
 5282TIP3    H137405   6.005   5.211   1.617  0.6472  0.1598 -0.5708
 5282TIP3    H237406   5.862   5.221   1.568 -0.3491 -1.3203  1.8907
 5283TIP3   OH237407   2.998   3.879   1.312 -0.0453  0.0217 -0.3055
 5283TIP3    H137408   2.958   3.955   1.356 -0.7886 -0.3692 -0.3000
 5283TIP3    H237409   2.924   3.827   1.282  0.3478 -2.3869  2.5077
 5284TIP3   OH237410   3.648   6.888   2.089  0.3346 -0.5452 -0.1304
 5284TIP3    H137411   3.650   6.816   2.151 -1.3480  0.5447  1.3001
 5284TIP3    H237412   3.723   6.943   2.112 -1.4354  0.9704  2.4997
 5285TIP3   OH237413   3.807   2.676   0.160 -0.1050 -0.0786 -0.6161
 5285TIP3    H137414   3.848   2.759   0.134  0.7429 -0.9676 -2.2745
 5285TIP3    H237415   3.814   2.620   0.083 -0.3468 -1.8327  0.5640
 5286TIP3   OH237416   2.355   0.482   0.206 -0.4683  0.0007  0.0754
 5286TIP3    H137417   2.392   0.395   0.192  1.1634  0.3631  1.7407
 5286TIP3    H237418   2.284   0.469   0.268 -0.2493 -0.1514  0.2952
 5287TIP3   OH237419   1.458   6.542   2.303  0.4215 -0.4909  0.0073
 5287TIP3    H137420   1.547   6.544   2.337  0.2804 -1.8463  0.5069
 5287TIP3    H237421   1.403   6.524   2.379 -0.0270 -2.1675 -0.6706
 5288TIP3   OH237422   2.983   2.360   1.599 -0.1663  0.3260  0.0804
 5288TIP3    H137423   3.000   2.438   1.547  0.7757 -0.2646 -0.5482
 5288TIP3    H237424   2.907   2.319   1.558 -0.4458  0.7243  0.1973
 5289TIP3   OH237425   0.382   5.760   2.117 -0.3518 -0.0727 -0.0760
 5289TIP3    H137426   0.412   5.827   2.179 -1.6169 -0.7232  1.2802
 5289TIP3    H237427   0.296   5.791   2.088 -0.0693 -0.1263 -0.9954
 5290TIP3   OH237428   6.648   4.775   2.548  0.0429  0.7294 -0.1488
 5290TIP3    H137429   6.602   4.713   2.603  0.8788  0.4691  0.2720
 5290TIP3    H237430   6.687   4.722   2.478  0.0098  0.8989 -0.2989
 5291TIP3   OH237431   6.221   3.458   0.841 -0.1328  0.1283 -0.2621
 5291TIP3    H137432   6.179   3.375   0.864 -0.8032  0.6902  0.6214
 5291TIP3    H237433   6.157   3.525   0.867  1.0447  0.9899  0.5380
 5292TIP3   OH237434   6.844   5.670   2.760  0.4093  0.1151 -0.0340
 5292TIP3    H137435   6.820   5.698   2.672 -0.6354 -0.0545  0.1839
 5292TIP3    H237436   6.912   5.731   2.787 -0.2653  1.0475 -0.4094
 5293TIP3   OH237437   2.196   6.022   6.793  0.2068 -0.0455  0.2717
 5293TIP3    H137438   2.225   5.931   6.796  0.6784  0.1019  0.2392
 5293TIP3    H237439   2.102   6.018   6.812  0.6777 -0.2884  2.7804
 5294TIP3   OH237440   1.546   3.035   7.016  0.1154  0.1232 -0.3000
 5294TIP3    H137441   1.559   2.993   6.931 -1.3627 -1.3776  0.1703
 5294TIP3    H237442   1.475   2.986   7.057  0.9734  0.6195  1.9345
 5295TIP3   OH237443   3.211   1.606   6.818 -0.4875 -0.7129 -0.3544
 5295TIP3    H137444   3.302   1.596   6.790 -0.9531 -1.3633 -1.6774
 5295TIP3    H237445   3.183   1.690   6.782  0.1397  0.4575  1.7009
 5296TIP3   OH237446   4.474   5.928   1.041 -0.3689  0.4219 -0.4159
 5296TIP3    H137447   4.402   5.984   1.011  0.1330  0.9725 -0.6105
 5296TIP3    H237448   4.443   5.839   1.026 -0.2608  0.6559 -2.3437
 5297TIP3   OH237449   6.358   5.766   7.406 -0.1970  0.6437 -0.3385
 5297TIP3    H137450   6.346   5.837   7.469 -1.1277 -0.7828  1.1734
 5297TIP3    H237451   6.419   5.706   7.448  0.0180  0.1751 -1.2744
 5298TIP3   OH237452   0.752   0.414   6.661 -0.2421 -0.3540  0.2227
 5298TIP3    H137453   0.754   0.494   6.609  1.0013 -1.6825 -1.9330
 5298TIP3    H237454   0.788   0.346   6.603 -2.1619 -2.7078  1.5727
 5299TIP3   OH237455   3.800   2.406   1.739  0.0883  0.1951  0.0201
 5299TIP3    H137456   3.838   2.484   1.781  0.2323  0.5209 -0.7131
 5299TIP3    H237457   3.706   2.420   1.743  0.1258  0.5606 -0.4095
 5300TIP3   OH237458   3.706   3.311   8.211 -0.4327  0.0641  0.5311
 5300TIP3    H137459   3.705   3.406   8.198  0.7493  0.0547  0.2428
 5300TIP3    H237460   3.627   3.280   8.166  0.8728  0.5765 -2.3284
 5301TIP3   OH237461   4.033   6.249   0.515 -0.3748  0.0019  0.0342
 5301TIP3    H137462   3.991   6.225   0.433  0.1407 -0.5729 -0.0650
 5301TIP3    H237463   4.039   6.345   0.511 -0.1158 -0.0360 -0.7240
 5302TIP3   OH237464   0.450   1.221   7.733  0.2027 -0.2568 -0.0717
 5302TIP3    H137465   0.398   1.217   7.652 -0.1775 -1.9832  0.2153
 5302TIP3    H237466   0.466   1.314   7.747 -1.5406  0.2212 -0.9845
 5303TIP3   OH237467   3.641   6.638   7.497 -0.3927  0.0823  0.0111
 5303TIP3    H137468   3.565   6.641   7.556 -0.0097  3.3942  0.5097
 5303TIP3    H237469   3.603   6.648   7.409 -0.6347 -0.3414  0.0595
 5304TIP3   OH237470   0.803   5.097   6.665 -0.8216 -0.0776  0.3396
 5304TIP3    H137471   0.873   5.136   6.613 -1.0558  0.0959  0.1520
 5304TIP3    H237472   0.835   5.009   6.685 -0.6213 -0.0594  0.1143
 5305TIP3   OH237473   1.769   6.403   7.899  0.3082 -0.0014  0.4851
 5305TIP3    H137474   1.766   6.428   7.807 -2.8614  0.8265  0.6987
 5305TIP3    H237475   1.767   6.308   7.898  1.4919 -0.0384 -0.2778
 5306TIP3   OH237476   0.693   0.823   8.329  0.4887  0.1396  0.0944
 5306TIP3    H137477   0.679   0.913   8.358 -1.2708  0.7244 -2.2582
 5306TIP3    H237478   0.714   0.831   8.236 -0.7275 -1.9068 -0.4105
 5307TIP3   OH237479   6.474   4.657   1.711  0.2844  0.0028 -0.1220
 5307TIP3    H137480   6.406   4.591   1.721 -0.1667  0.1642 -1.7963
 5307TIP3    H237481   6.429   4.733   1.673  1.1879  0.5058 -0.2326
 5308TIP3   OH237482   2.747   0.379   1.402 -0.3717 -0.4929  0.5727
 5308TIP3    H137483   2.766   0.328   1.322 -2.4198  1.7058 -1.4666
 5308TIP3    H237484   2.828   0.427   1.418 -0.3381  0.0483 -1.0269
 5309TIP3   OH237485   1.270   3.148   8.056  0.1022  0.3596 -0.0406
 5309TIP3    H137486   1.329   3.088   8.010  1.4863  0.9686  0.8732
 5309TIP3    H237487   1.216   3.091   8.111 -0.2167 -0.2087 -0.9187
 5310TIP3   OH237488   6.385   0.384   6.818  0.7636 -0.1014 -0.5502
 5310TIP3    H137489   6.332   0.319   6.864  1.0443 -1.0558 -1.5212
 5310TIP3    H237490   6.332   0.463   6.818 -0.7901 -1.0843 -1.6931
 5311TIP3   OH237491   6.151   0.979   2.358  0.6917  0.4534 -0.1473
 5311TIP3    H137492   6.132   0.890   2.328 -1.1778  1.0896 -1.0739
 5311TIP3    H237493   6.065   1.014   2.384  1.1933  2.3289 -0.8360
 5312TIP3   OH237494   3.207   5.706   0.418 -0.0788 -0.5353 -0.3452
 5312TIP3    H137495   3.213   5.779   0.356  0.4995  0.5882  0.9716
 5312TIP3    H237496   3.209   5.628   0.363 -2.2462  0.4098 -1.9416
 5313TIP3   OH237497   1.663   0.966   1.905 -0.9587  0.1658 -0.7351
 5313TIP3    H137498   1.665   0.983   1.999 -2.3417  1.3722 -0.8883
 5313TIP3    H237499   1.570   0.975   1.881 -0.5469  0.5023 -2.3193
 5314TIP3   OH237500   3.514   1.866   2.005  0.2991 -0.7353  0.6529
 5314TIP3    H137501   3.582   1.933   2.003  0.1049 -0.4361 -3.0540
 5314TIP3    H237502   3.432   1.914   1.998  0.1163 -1.2265 -1.1946
 5315TIP3   OH237503   0.267   1.722   7.736 -0.7928  0.0085  0.0992
 5315TIP3    H137504   0.237   1.704   7.825  0.1410  2.4935  0.9978
 5315TIP3    H237505   0.221   1.802   7.711  0.9652  0.8826 -0.5394
 5316TIP3   OH237506   2.130   4.053   1.244  0.2686 -0.5870 -0.2692
 5316TIP3    H137507   2.060   3.988   1.254  0.2221 -0.7266 -1.4029
 5316TIP3    H237508   2.122   4.082   1.153  1.2508 -0.0950 -0.2019
 5317TIP3   OH237509   4.683   2.296   0.309 -0.2609 -0.3402  0.4599
 5317TIP3    H137510   4.674   2.339   0.224 -2.4708  0.2306  0.9236
 5317TIP3    H237511   4.750   2.347   0.354  1.9024 -1.4158 -1.3241
 5318TIP3   OH237512   0.837   3.822   6.644 -0.4391  0.5562  0.5517
 5318TIP3    H137513   0.897   3.877   6.593 -0.1811 -1.7562 -1.8891
 5318TIP3    H237514   0.817   3.749   6.585 -3.5402 -0.1511  2.3026
 5319TIP3   OH237515   1.727   4.726   6.312 -0.3613  0.9208  0.7536
 5319TIP3    H137516   1.672   4.794   6.274  0.2484  1.3518  0.6214
 5319TIP3    H237517   1.801   4.773   6.350  1.6630  0.2135 -1.9506
 5320TIP3   OH237518   4.136   6.366   0.984  0.0139  0.1991  0.2104
 5320TIP3    H137519   4.101   6.314   0.912  1.7126 -0.1514 -0.4036
 5320TIP3    H237520   4.129   6.309   1.061  1.2393 -0.7030 -0.3264
 5321TIP3   OH237521   2.892   2.924   0.162  0.3653 -0.3792  0.1385
 5321TIP3    H137522   2.881   2.893   0.252  2.9103  0.0436  0.6593
 5321TIP3    H237523   2.986   2.934   0.151  0.0119  1.2365 -2.0404
 5322TIP3   OH237524   4.939   4.961   0.098 -0.2426  0.1979 -0.3990
 5322TIP3    H137525   4.930   5.023   0.026 -1.6904 -0.1758 -0.5519
 5322TIP3    H237526   4.980   4.884   0.059  2.2078  1.2344 -0.0733
 5323TIP3   OH237527   6.621   5.168   0.744 -0.1302  0.1775 -0.2106
 5323TIP3    H137528   6.538   5.121   0.750  0.2511 -0.3557  1.2780
 5323TIP3    H237529   6.684   5.103   0.713 -0.1050  0.3654 -0.5541
 5324TIP3   OH237530   3.678   5.332   0.228 -0.5424 -0.0341  0.3811
 5324TIP3    H137531   3.592   5.329   0.269  0.0795  1.3259  1.9068
 5324TIP3    H237532   3.697   5.425   0.216 -0.5976 -0.3098 -2.9941
 5325TIP3   OH237533   4.713   0.931   8.131  0.6619  0.5297  0.0386
 5325TIP3    H137534   4.712   0.919   8.226  0.8919 -0.1559 -0.0363
 5325TIP3    H237535   4.660   0.858   8.098  0.3313  0.9415 -0.3428
 5326TIP3   OH237536   6.857   4.607   0.295  0.6782 -0.2123 -0.2970
 5326TIP3    H137537   6.922   4.558   0.346 -1.1757 -1.6036  0.8544
 5326TIP3    H237538   6.808   4.540   0.248 -0.3253  0.7573 -0.6743
 5327TIP3   OH237539   6.155   5.231   7.254 -0.1547  0.1654 -0.2326
 5327TIP3    H137540   6.141   5.310   7.202  0.4076  1.1304  1.0325
 5327TIP3    H237541   6.070   5.187   7.254 -1.0238  1.7581  0.5989
 5328TIP3   OH237542   1.472   5.226   7.517 -0.3738 -0.7350 -0.2820
 5328TIP3    H137543   1.428   5.143   7.535  2.2733 -2.0867  0.4833
 5328TIP3    H237544   1.505   5.217   7.428 -0.4325 -0.3288 -0.3456
 5329TIP3   OH237545   2.950   0.312   7.442 -0.4503  0.3612  0.0876
 5329TIP3    H137546   2.904   0.320   7.359 -1.3339 -0.5592  0.4645
 5329TIP3    H237547   2.998   0.394   7.452  0.5388  0.0633 -1.8323
 5330TIP3   OH237548   1.293   4.428   2.388  1.2755 -0.7144  0.1631
 5330TIP3    H137549   1.205   4.409   2.421  0.5959 -0.9716 -1.7161
 5330TIP3    H237550   1.339   4.344   2.391  0.9963 -0.8796 -0.1820
 5331TIP3   OH237551   5.147   2.967   0.630 -0.1987  0.2167 -0.1652
 5331TIP3    H137552   5.135   3.016   0.712  0.2151  0.3735 -0.1970
 5331TIP3    H237553   5.132   3.032   0.561 -1.7767 -0.1912 -0.2399
 5332TIP3   OH237554   3.102   6.094   8.046  0.1784 -0.3850 -0.4479
 5332TIP3    H137555   3.096   6.168   8.106  1.4599  0.1657 -0.9573
 5332TIP3    H237556   3.021   6.097   7.995 -1.2968 -1.2995  1.6857
 5333TIP3   OH237557   3.031   0.239   6.958 -0.4529  0.6613  0.1928
 5333TIP3    H137558   3.036   0.145   6.942 -1.6343  0.4554  0.9475
 5333TIP3    H237559   3.000   0.276   6.875  1.4658  0.6027 -0.6119
 5334TIP3   OH237560   0.087   0.366   1.631  0.1533  0.1739  0.3183
 5334TIP3    H137561   0.040   0.330   1.557  0.5798 -0.3116  0.2722
 5334TIP3    H237562   0.141   0.436   1.594  1.6022 -1.1321 -0.1404
 5335TIP3   OH237563   0.729   3.926   0.864  0.4747  0.4460  0.6385
 5335TIP3    H137564   0.795   3.864   0.833  0.9315  0.6457  1.1994
 5335TIP3    H237565   0.756   4.010   0.829  0.5440  0.5372  0.9107
 5336TIP3   OH237566   6.280   6.698   0.899 -0.3031 -0.2336 -0.1904
 5336TIP3    H137567   6.337   6.765   0.862 -0.0705 -0.0350  0.5130
 5336TIP3    H237568   6.196   6.743   0.912  0.5812  0.7403  2.7818
 5337TIP3   OH237569   3.031   6.524   7.350  0.3926  0.3801 -0.5187
 5337TIP3    H137570   3.000   6.561   7.268 -0.9220 -0.0161 -0.2255
 5337TIP3    H237571   2.964   6.547   7.414  1.1156  0.1988  0.3332
 5338TIP3   OH237572   1.190   6.500   6.278  0.2165 -0.1425  0.3647
 5338TIP3    H137573   1.254   6.482   6.210 -0.6966 -0.4558 -0.4355
 5338TIP3    H237574   1.113   6.450   6.253 -0.4872  0.5368  1.0873
 5339TIP3   OH237575   5.901   1.007   0.549 -0.0656  0.8911 -0.1277
 5339TIP3    H137576   5.864   1.049   0.627 -1.8247  0.1801 -0.5142
 5339TIP3    H237577   5.950   1.076   0.505 -1.4048  2.0671  0.1660
 5340TIP3   OH237578   3.894   2.492   8.358 -0.1357  0.3283 -0.0273
 5340TIP3    H137579   3.911   2.543   8.278 -0.8491 -1.6474 -1.5118
 5340TIP3    H237580   3.981   2.465   8.387  0.0145 -0.8677 -1.4975
 5341TIP3   OH237581   1.195   1.974   2.142 -0.0575  0.2297  0.2981
 5341TIP3    H137582   1.151   1.943   2.221  1.0327  1.4808  1.4362
 5341TIP3    H237583   1.168   2.065   2.134  2.0595  0.9714  0.8948
 5342TIP3   OH237584   4.907   1.092   1.386  0.2790 -0.0489  0.2795
 5342TIP3    H137585   4.912   1.052   1.472  2.3102 -0.9797 -0.2249
 5342TIP3    H237586   4.980   1.054   1.337  1.2620  2.9119 -0.8049
 5343TIP3   OH237587   5.723   3.306   2.053 -0.0107 -0.0316  0.8034
 5343TIP3    H137588   5.679   3.388   2.077 -2.7345 -1.2848  0.5029
 5343TIP3    H237589   5.716   3.251   2.132 -0.1408 -0.6908  0.3438
 5344TIP3   OH237590   0.310   1.967   2.324 -0.2440  0.0364  0.2966
 5344TIP3    H137591   0.290   2.027   2.396  0.1273  1.3747 -0.6815
 5344TIP3    H237592   0.251   1.993   2.254  1.7622  1.0969 -1.0918
 5345TIP3   OH237593   2.042   4.207   0.271 -0.0549  0.0313  0.2198
 5345TIP3    H137594   2.075   4.220   0.359 -2.0045  0.7970  0.8987
 5345TIP3    H237595   1.995   4.288   0.251 -1.8984 -1.1173 -0.4394
 5346TIP3   OH237596   3.132   5.183   0.466 -0.2149  0.5539  0.2613
 5346TIP3    H137597   3.136   5.125   0.542  0.8027  1.7652  1.1929
 5346TIP3    H237598   3.093   5.264   0.500 -0.5731  0.8098 -0.7252
 5347TIP3   OH237599   5.153   5.213   7.139  0.3157  0.1508  0.2075
 5347TIP3    H137600   5.178   5.278   7.205 -0.2468  0.6334 -0.0465
 5347TIP3    H237601   5.232   5.201   7.087  1.0287 -0.8674  1.4718
 5348TIP3   OH237602   2.848   4.821   1.875  0.2857 -0.0684  0.0348
 5348TIP3    H137603   2.893   4.894   1.832  0.1536 -0.6620 -1.1443
 5348TIP3    H237604   2.893   4.812   1.959 -0.3766  2.0444  0.6851
 5349TIP3   OH237605   1.841   0.381   1.630  0.2596  0.6219  0.1335
 5349TIP3    H137606   1.880   0.301   1.594  1.6895  0.7386  1.3270
 5349TIP3    H237607   1.825   0.360   1.722 -0.1552  1.4335  0.2545
 5350TIP3   OH237608   1.113   6.358   1.362 -0.6177  0.4816 -0.4412
 5350TIP3    H137609   1.084   6.312   1.283 -1.6833 -0.3959  0.4390
 5350TIP3    H237610   1.048   6.336   1.428  0.7042  0.5124  0.9244
 5351TIP3   OH237611   4.477   3.192   2.784  0.0600  0.0277 -0.1589
 5351TIP3    H137612   4.557   3.228   2.823  0.2968 -1.4206  0.7771
 5351TIP3    H237613   4.431   3.268   2.749  1.4035  0.9987  0.1101
 5352TIP3   OH237614   6.360   5.146   0.361 -0.0988 -0.1108 -0.7830
 5352TIP3    H137615   6.424   5.131   0.291 -1.2288 -1.2081 -1.6360
 5352TIP3    H237616   6.347   5.241   0.362  1.7436  0.1618 -0.3790
 5353TIP3   OH237617   5.301   4.162   1.960  0.1667 -0.0438  0.3068
 5353TIP3    H137618   5.360   4.089   1.980 -0.6371 -0.8466 -0.1619
 5353TIP3    H237619   5.323   4.229   2.024 -1.3533 -1.9421  2.9950
 5354TIP3   OH237620   6.243   4.205   8.206 -0.3257  0.3007  0.5903
 5354TIP3    H137621   6.168   4.196   8.264 -1.0442 -2.5193 -0.6106
 5354TIP3    H237622   6.317   4.224   8.265 -1.6380  1.4162  1.9600
 5355TIP3   OH237623   1.914   2.164   1.085 -0.4908  0.2501 -0.2249
 5355TIP3    H137624   1.933   2.130   0.997 -0.4351  0.5431 -0.3255
 5355TIP3    H237625   1.934   2.257   1.080  2.1296 -0.1564  0.8222
 5356TIP3   OH237626   1.293   2.870   6.865 -0.5889  0.4834  0.1313
 5356TIP3    H137627   1.242   2.808   6.812 -0.3057  0.6469 -0.3411
 5356TIP3    H237628   1.382   2.862   6.831 -0.4985  0.9512  0.2565
 5357TIP3   OH237629   6.864   6.125   6.720  0.7944 -0.3009 -0.3542
 5357TIP3    H137630   6.863   6.032   6.744  0.9690  0.0469  1.1261
 5357TIP3    H237631   6.957   6.146   6.712  0.7461 -0.3260 -1.0360
 5358TIP3   OH237632   6.523   4.775   0.065  0.2463  0.7220  0.6841
 5358TIP3    H137633   6.501   4.682   0.063 -0.3034  0.8570 -0.6904
 5358TIP3    H237634   6.469   4.814  -0.004  2.0216  1.6961 -0.2316
 5359TIP3   OH237635   3.168   2.733   7.204  0.1809 -0.0509  0.4920
 5359TIP3    H137636   3.160   2.644   7.168 -1.3572  0.0313  0.5549
 5359TIP3    H237637   3.092   2.741   7.262 -1.2454  2.2034 -1.4990
 5360TIP3   OH237638   0.215   0.886   2.229 -0.3663 -0.1561 -0.0833
 5360TIP3    H137639   0.121   0.902   2.237 -0.4760 -1.3082  1.2367
 5360TIP3    H237640   0.226   0.793   2.248  0.8268 -0.5607 -2.3592
 5361TIP3   OH237641   5.722   6.057   1.539 -0.0784 -0.2301  0.0782
 5361TIP3    H137642   5.674   6.083   1.460  1.1922  0.3838 -0.5161
 5361TIP3    H237643   5.800   6.112   1.539  0.5987 -1.1516  1.0663
 5362TIP3   OH237644   5.770   4.999   0.013 -0.2544 -0.1216  0.0023
 5362TIP3    H137645   5.839   4.945  -0.025  2.9074  1.2628  3.1734
 5362TIP3    H237646   5.787   5.087  -0.020 -0.1624  0.3162  1.1662
 5363TIP3   OH237647   6.858   1.497   1.230 -0.2099  0.0453 -0.4119
 5363TIP3    H137648   6.852   1.489   1.325  1.4984 -2.6688 -0.4331
 5363TIP3    H237649   6.915   1.573   1.216  0.3727 -0.1571  0.7778
 5364TIP3   OH237650   3.117   2.182   2.839 -0.1729 -0.0188 -0.0924
 5364TIP3    H137651   3.127   2.094   2.803  0.1925  0.2854 -0.7524
 5364TIP3    H237652   3.086   2.235   2.765 -0.6967  0.3381  0.3814
 5365TIP3   OH237653   6.639   0.321   0.919  0.0775  0.3814 -0.1929
 5365TIP3    H137654   6.655   0.275   0.837 -3.1356  0.4156 -0.9791
 5365TIP3    H237655   6.588   0.398   0.894 -0.6736  0.5962  1.7824
 5366TIP3   OH237656   5.583   4.244   1.712 -0.3548 -0.1511  0.3560
 5366TIP3    H137657   5.502   4.273   1.669 -0.2217  0.8412  0.7493
 5366TIP3    H237658   5.555   4.173   1.769 -1.1550  0.8810  1.2856
 5367TIP3   OH237659   1.555   2.982   1.927  0.3248 -0.5171  0.2498
 5367TIP3    H137660   1.621   3.044   1.895  0.5799 -0.4990  0.7876
 5367TIP3    H237661   1.558   2.908   1.866 -0.5251  0.3230 -0.8514
 5368TIP3   OH237662   4.798   2.791   7.548 -0.2685 -0.4077 -0.1956
 5368TIP3    H137663   4.885   2.753   7.560  1.4124  2.9386 -0.4986
 5368TIP3    H237664   4.800   2.824   7.458 -2.2372 -1.0488 -0.5035
 5369TIP3   OH237665   0.166   6.491   6.663 -0.1633  0.2229 -0.2319
 5369TIP3    H137666   0.156   6.415   6.606  0.3042 -0.2249  0.2683
 5369TIP3    H237667   0.244   6.535   6.630 -1.0941  1.1630 -1.2636
 5370TIP3   OH237668   2.308   3.663   8.154  0.5342  0.3269  0.7561
 5370TIP3    H137669   2.252   3.688   8.228 -2.2170  2.3964 -1.7828
 5370TIP3    H237670   2.288   3.571   8.139 -0.3423  0.3910  1.4553
 5371TIP3   OH237671   0.885   4.378   0.997 -0.1677  0.1623  0.0621
 5371TIP3    H137672   0.917   4.439   0.931 -1.1339  0.5048 -0.1126
 5371TIP3    H237673   0.957   4.369   1.059  0.4557  0.4666 -0.6065
 5372TIP3   OH237674   2.130   6.872   7.660  0.6671 -0.5068 -0.4101
 5372TIP3    H137675   2.036   6.889   7.674 -0.0276 -4.0964  0.1608
 5372TIP3    H237676   2.171   6.898   7.742 -0.2379 -1.2095  0.2964
 5373TIP3   OH237677   0.552   5.028   1.314 -0.0820  0.0261 -0.1338
 5373TIP3    H137678   0.478   5.044   1.373  1.5198 -0.9373  2.2616
 5373TIP3    H237679   0.570   4.935   1.322 -0.7786 -0.5196 -3.4809
 5374TIP3   OH237680   0.075   2.594   8.159  0.1597  0.3938  0.1625
 5374TIP3    H137681   0.084   2.680   8.202 -1.7275  0.6466  0.1548
 5374TIP3    H237682  -0.006   2.601   8.109 -0.7798 -1.8396  1.2495
 5375TIP3   OH237683   2.715   5.393   2.325  0.0265 -0.1266  0.2291
 5375TIP3    H137684   2.642   5.448   2.296 -0.8520 -1.9763 -1.2745
 5375TIP3    H237685   2.687   5.357   2.409  0.7686  1.9059  1.4223
 5376TIP3   OH237686   5.809   2.568   8.216  0.5364 -0.2645 -0.3005
 5376TIP3    H137687   5.810   2.591   8.309  1.4207 -2.4751  0.2837
 5376TIP3    H237688   5.717   2.578   8.190  0.0770 -0.6593  1.0855
 5377TIP3   OH237689   6.973   5.855   0.147  0.3802 -0.0339  0.0384
 5377TIP3    H137690   6.952   5.934   0.098 -2.0888  0.2449  1.3778
 5377TIP3    H237691   7.019   5.799   0.085 -3.3208 -0.0839 -3.0294
 5378TIP3   OH237692   4.103   4.418   7.189  0.5186 -0.1358 -0.1026
 5378TIP3    H137693   4.123   4.326   7.176  0.4435 -0.0644 -0.7895
 5378TIP3    H237694   4.065   4.446   7.105 -1.6470 -0.0568  0.8204
 5379TIP3   OH237695   0.916   6.547   6.791  0.1204  0.4152  0.8361
 5379TIP3    H137696   1.002   6.506   6.794  1.5382  3.1672  0.7697
 5379TIP3    H237697   0.881   6.524   6.705  1.5981  0.7207  0.1317
 5380TIP3   OH237698   3.602   6.974   2.473  0.2956  0.4877  0.2587
 5380TIP3    H137699   3.693   7.002   2.487 -0.2212  1.1989  2.6644
 5380TIP3    H237700   3.549   7.049   2.500 -1.0290  0.2021 -1.4263
 5381TIP3   OH237701   6.262   5.377   7.488  0.6594 -0.7271  0.1509
 5381TIP3    H137702   6.257   5.352   7.396 -0.0782  0.3309 -0.1106
 5381TIP3    H237703   6.171   5.388   7.515  0.8887  1.8836  0.1492
 5382TIP3   OH237704   1.372   0.810   0.854  0.4429 -0.3021 -0.0393
 5382TIP3    H137705   1.312   0.737   0.841  0.3559 -0.1315 -0.6328
 5382TIP3    H237706   1.381   0.849   0.767  0.9839  0.0065  0.1515
 5383TIP3   OH237707   1.199   1.248   7.492  0.5714  0.3790  0.4266
 5383TIP3    H137708   1.178   1.294   7.411  0.0158 -0.5615  0.0213
 5383TIP3    H237709   1.186   1.155   7.472  0.8415  0.0971  1.4671
 5384TIP3   OH237710   0.948   1.771   0.696 -0.0333 -0.0400 -0.2029
 5384TIP3    H137711   0.863   1.767   0.652  0.6281  1.0416 -1.6712
 5384TIP3    H237712   0.966   1.680   0.721 -0.7429 -0.6080 -1.6225
 5385TIP3   OH237713   0.558   5.111   0.929 -0.2529  0.3385  0.3693
 5385TIP3    H137714   0.608   5.036   0.961  1.5512  1.7061  0.9077
 5385TIP3    H237715   0.545   5.166   1.006  0.0114  1.4194 -0.3354
 5386TIP3   OH237716   3.923   1.731   0.863  0.0425 -0.0797  0.4793
 5386TIP3    H137717   3.929   1.826   0.874 -0.5485 -0.0660  0.7217
 5386TIP3    H237718   3.986   1.711   0.794  1.1320  0.3198  1.3320
 5387TIP3   OH237719   6.202   3.318   7.266  0.3282  0.6014  0.1093
 5387TIP3    H137720   6.137   3.358   7.324  0.6965 -0.3396  1.2085
 5387TIP3    H237721   6.216   3.383   7.198 -1.1276  1.1822  0.3212
 5388TIP3   OH237722   5.381   6.318   2.044  0.6037 -0.0204  0.0143
 5388TIP3    H137723   5.415   6.279   2.124  1.2604 -1.9811 -1.1385
 5388TIP3    H237724   5.414   6.262   1.974 -0.4302  1.2698 -1.6013
 5389TIP3   OH237725   2.263   5.530   2.409  0.7764 -0.0080  0.4823
 5389TIP3    H137726   2.203   5.590   2.453 -0.3811 -0.5956 -0.2416
 5389TIP3    H237727   2.256   5.448   2.458  1.8192  0.2181  1.0396
 5390TIP3   OH237728   2.426   1.003   0.919 -0.2723 -0.2015 -0.4072
 5390TIP3    H137729   2.331   1.004   0.910 -0.2701  0.1585 -0.3994
 5390TIP3    H237730   2.445   0.922   0.966 -0.5941 -0.1642 -0.2125
 5391TIP3   OH237731   6.119   6.056   7.920  0.1799  0.5072 -0.1455
 5391TIP3    H137732   6.038   6.050   7.970  0.2946  1.8821  0.2465
 5391TIP3    H237733   6.095   6.031   7.831 -0.2872 -0.7762  0.3116
 5392TIP3   OH237734   1.402   1.168   8.092 -0.2078  0.2725  0.2148
 5392TIP3    H137735   1.449   1.085   8.099 -2.2095 -0.8871  0.5293
 5392TIP3    H237736   1.310   1.144   8.089 -0.9340  2.5594  1.4742
 5393TIP3   OH237737   3.633   3.113   2.038 -0.4230 -0.9906 -0.4180
 5393TIP3    H137738   3.672   3.108   2.125  2.9152  0.0400 -1.6965
 5393TIP3    H237739   3.599   3.202   2.032 -0.4322 -0.9832 -0.2586
 5394TIP3   OH237740   2.710   5.046   0.398  0.4320  0.4812  0.2487
 5394TIP3    H137741   2.663   5.126   0.420 -1.1525  0.2347 -1.9175
 5394TIP3    H237742   2.760   5.068   0.319 -0.2199 -0.6713 -0.5198
 5395TIP3   OH237743   3.078   1.805   2.363  0.4014 -0.2228 -0.1521
 5395TIP3    H137744   3.070   1.711   2.379 -3.1178 -0.2778 -1.3800
 5395TIP3    H237745   3.006   1.844   2.414  1.7915  1.8390  0.3409
 5396TIP3   OH237746   6.027   6.329   7.553 -0.7390 -0.1352 -0.6134
 5396TIP3    H137747   5.934   6.324   7.574 -1.2070 -0.7322 -2.6509
 5396TIP3    H237748   6.031   6.322   7.458  1.4008 -0.0899 -0.5763
 5397TIP3   OH237749   4.166   2.642   6.403  0.0523 -0.0839  0.7435
 5397TIP3    H137750   4.179   2.550   6.378  0.4029  0.0989  0.2473
 5397TIP3    H237751   4.126   2.682   6.325 -0.4957  0.0923  1.1094
 5398TIP3   OH237752   4.927   0.361   0.377  0.1660  0.5609 -0.1029
 5398TIP3    H137753   4.968   0.320   0.453  0.6527  0.2121 -0.5409
 5398TIP3    H237754   5.001   0.400   0.329 -0.3711  2.9879  0.8825
 5399TIP3   OH237755   2.851   3.834   7.473  0.0035  0.4579  0.1704
 5399TIP3    H137756   2.770   3.851   7.522  0.4718  1.0544  0.7706
 5399TIP3    H237757   2.828   3.764   7.412  0.1712 -2.6092  3.3287
 5400TIP3   OH237758   3.849   4.086   2.138  0.2182  0.1371 -0.4322
 5400TIP3    H137759   3.870   4.024   2.208 -4.1200 -1.6566 -0.4154
 5400TIP3    H237760   3.876   4.042   2.058 -0.4564 -0.6633 -0.2362
 5401TIP3   OH237761   1.708   0.402   0.401 -0.4220 -0.1953  0.4061
 5401TIP3    H137762   1.716   0.430   0.310 -0.6598  1.4375  0.8433
 5401TIP3    H237763   1.797   0.380   0.428 -0.7973 -5.2017 -1.4409
 5402TIP3   OH237764   4.453   4.282   7.646  0.9404  0.4550 -0.6870
 5402TIP3    H137765   4.545   4.307   7.632  1.2543  0.7814  1.6420
 5402TIP3    H237766   4.426   4.332   7.723 -1.4166  0.8187 -1.6874
 5403TIP3   OH237767   2.507   6.334   0.958  0.4070  0.5771  0.1800
 5403TIP3    H137768   2.436   6.316   1.020 -1.5160  1.5721 -1.6300
 5403TIP3    H237769   2.534   6.423   0.977  1.1362  0.2384  0.7917
 5404TIP3   OH237770   2.673   6.027   1.672 -0.3269 -0.0743 -0.0293
 5404TIP3    H137771   2.642   5.944   1.635 -1.9640 -0.0505  1.2190
 5404TIP3    H237772   2.595   6.070   1.706  0.4573  2.0984 -0.7828
 5405TIP3   OH237773   3.118   1.641   0.487  0.0401  0.6557  0.1228
 5405TIP3    H137774   3.173   1.690   0.425 -0.3424  0.2473 -0.5530
 5405TIP3    H237775   3.091   1.563   0.438  0.3559 -0.0625  1.0712
 5406TIP3   OH237776   4.709   2.564   2.528 -0.0107  0.1828  0.5976
 5406TIP3    H137777   4.708   2.659   2.541  1.1908  0.1279  1.2191
 5406TIP3    H237778   4.635   2.532   2.579 -0.5938  0.7984  0.1624
 5407TIP3   OH237779   1.474   0.160   6.478 -0.6375 -0.1290  0.6366
 5407TIP3    H137780   1.437   0.111   6.405  3.3384  0.3937 -2.0710
 5407TIP3    H237781   1.417   0.237   6.487 -1.2666 -0.1857 -2.0154
 5408TIP3   OH237782   0.853   0.246   7.268 -0.3811  0.2806  0.2769
 5408TIP3    H137783   0.940   0.218   7.240 -1.1832 -1.9311 -0.2018
 5408TIP3    H237784   0.867   0.291   7.351  1.3991  1.7079 -0.7361
 5409TIP3   OH237785   6.653   0.304   1.428  0.1785  0.5055  0.0059
 5409TIP3    H137786   6.608   0.251   1.361  3.0498  0.9537 -2.5204
 5409TIP3    H237787   6.612   0.390   1.422 -0.5268  0.1634 -0.1805
 5410TIP3   OH237788   6.609   5.089   8.121  0.4327 -0.4793  0.0220
 5410TIP3    H137789   6.624   5.150   8.193  0.5245 -1.2367  0.6550
 5410TIP3    H237790   6.696   5.070   8.086  0.5622 -1.3620  0.7733
 5411TIP3   OH237791   1.703   0.465   0.942 -0.5701  0.6515 -0.4950
 5411TIP3    H137792   1.672   0.498   1.027  0.6868  4.9602 -1.4691
 5411TIP3    H237793   1.795   0.490   0.939  1.0329 -4.2908 -1.1004
 5412TIP3   OH237794   0.054   5.800   2.871 -0.1726  0.2252  0.1623
 5412TIP3    H137795   0.146   5.787   2.847 -0.7705 -0.2995 -2.0661
 5412TIP3    H237796   0.051   5.889   2.907  0.9265  0.9820 -1.4809
 5413TIP3   OH237797   2.773   3.089   8.308  0.4311 -0.4094 -0.0715
 5413TIP3    H137798   2.784   3.183   8.319  2.3315 -0.6404  0.3092
 5413TIP3    H237799   2.800   3.051   8.391  0.7923 -1.3397 -0.5912
 5414TIP3   OH237800   6.261   3.000   1.709 -0.0119  0.1026 -0.3915
 5414TIP3    H137801   6.197   3.003   1.780  1.1292 -3.9247  1.0579
 5414TIP3    H237802   6.337   3.048   1.743 -0.4200  0.5345 -0.0723
 5415TIP3   OH237803   4.944   1.559   7.843 -0.2286  0.2279 -0.6067
 5415TIP3    H137804   5.020   1.520   7.886 -1.1381 -1.5071 -0.4715
 5415TIP3    H237805   4.936   1.512   7.760 -1.1111  0.4283 -0.6508
 5416TIP3   OH237806   0.843   5.089   7.430 -0.2298 -0.0730  0.6577
 5416TIP3    H137807   0.850   5.086   7.525 -2.4700 -0.4076  0.8643
 5416TIP3    H237808   0.816   5.001   7.405  0.5795 -0.0587 -0.3271
 5417TIP3   OH237809   4.967   5.226   0.671 -0.6373  0.3998 -0.2215
 5417TIP3    H137810   4.970   5.161   0.741  2.0740  1.7844  1.0989
 5417TIP3    H237811   4.882   5.270   0.681 -0.5063  0.2248  1.9159
 5418TIP3   OH237812   5.794   1.156   7.243 -0.5555 -0.3032  0.3665
 5418TIP3    H137813   5.813   1.113   7.160 -0.2773  0.5613 -0.0267
 5418TIP3    H237814   5.879   1.159   7.288 -0.5216  0.0682  0.2785
 5419TIP3   OH237815   3.662   2.965   7.914  0.3714  0.4248  0.0341
 5419TIP3    H137816   3.625   2.878   7.900 -1.0476  1.0081  0.0204
 5419TIP3    H237817   3.720   2.955   7.989 -2.0704  0.0710  1.9730
 5420TIP3   OH237818   1.266   1.947   0.863 -0.2612 -0.1602 -0.1934
 5420TIP3    H137819   1.171   1.953   0.874 -0.6302 -1.5236 -2.0877
 5420TIP3    H237820   1.277   1.890   0.786  2.0963 -0.2443  0.1536
 5421TIP3   OH237821   5.092   4.617   1.862 -0.1163  0.4267 -0.3934
 5421TIP3    H137822   5.097   4.687   1.796 -0.5621 -1.1945 -2.2516
 5421TIP3    H237823   5.041   4.548   1.819 -1.5789 -0.2226  2.1670
 5422TIP3   OH237824   5.335   1.654   1.899  0.1251 -0.0017 -0.2321
 5422TIP3    H137825   5.423   1.636   1.932  0.2152  0.1451 -0.3941
 5422TIP3    H237826   5.290   1.569   1.903 -0.1465  0.1864  1.1117
 5423TIP3   OH237827   5.870   3.101   0.306  0.0103 -0.1298  0.1062
 5423TIP3    H137828   5.781   3.135   0.294 -0.0141 -0.6124 -1.2760
 5423TIP3    H237829   5.920   3.174   0.343  0.2296  1.8439 -3.6794
 5424TIP3   OH237830   2.869   5.348   1.190 -0.4134 -0.5731  0.0482
 5424TIP3    H137831   2.837   5.377   1.105 -0.1789 -0.4856 -0.0113
 5424TIP3    H237832   2.806   5.381   1.253  0.5577  1.2629  0.1224
 5425TIP3   OH237833   5.381   2.043   8.291 -0.4177  0.4072 -0.1001
 5425TIP3    H137834   5.345   2.123   8.329 -1.1870 -0.2773  0.6525
 5425TIP3    H237835   5.361   1.975   8.356 -4.4597 -1.4523 -2.8945
 5426TIP3   OH237836   6.750   3.688   7.110  0.0473 -0.2004 -0.4053
 5426TIP3    H137837   6.841   3.710   7.131 -0.2899  0.3068  0.5877
 5426TIP3    H237838   6.741   3.709   7.017  0.9398 -0.2614 -0.5164
 5427TIP3   OH237839   5.345   3.282   7.612 -0.2853 -0.5434  0.4603
 5427TIP3    H137840   5.405   3.348   7.577  0.1233  1.2479  4.0502
 5427TIP3    H237841   5.370   3.201   7.567  2.0728  0.9156 -1.0995
 5428TIP3   OH237842   2.318   0.109   1.516 -0.5061  0.1722 -0.0931
 5428TIP3    H137843   2.301   0.195   1.554  2.5269  0.2657  1.3756
 5428TIP3    H237844   2.413   0.108   1.502 -0.4942 -2.8179 -0.3653
 5429TIP3   OH237845   2.271   2.660   0.629 -0.0272 -0.2142 -0.2924
 5429TIP3    H137846   2.267   2.626   0.718 -2.4484 -0.3694 -0.3938
 5429TIP3    H237847   2.303   2.750   0.639 -2.3553  0.5417  1.0259
 5430TIP3   OH237848   4.184   3.086   2.392  0.3834  0.0295  0.1024
 5430TIP3    H137849   4.114   3.137   2.431  1.0147  0.8144  0.2382
 5430TIP3    H237850   4.248   3.075   2.462  2.3342  2.9063 -1.0048
 5431TIP3   OH237851   0.594   6.558   6.915  0.3851  0.6311  0.0001
 5431TIP3    H137852   0.526   6.494   6.935  0.7288 -0.3845 -1.8608
 5431TIP3    H237853   0.547   6.632   6.875  0.3313 -0.1154 -1.3879
 5432TIP3   OH237854   6.963   4.487   1.668 -0.4403 -0.0817  0.7060
 5432TIP3    H137855   6.978   4.394   1.648  0.5637  0.2179  0.0336
 5432TIP3    H237856   7.024   4.506   1.739  0.9474  0.6057 -0.6282
 5433TIP3   OH237857   1.748   6.879   0.379 -0.0921 -0.4624  0.0773
 5433TIP3    H137858   1.702   6.838   0.307  0.4193 -0.3518 -0.3193
 5433TIP3    H237859   1.714   6.969   0.383 -1.6218 -1.0600  1.3064
 5434TIP3   OH237860   5.628   5.874   1.719 -0.1432 -0.0846 -0.0749
 5434TIP3    H137861   5.601   5.807   1.657  0.1929  0.0366 -0.3529
 5434TIP3    H237862   5.665   5.944   1.665 -0.6784  0.4177  0.1943
 5435TIP3   OH237863   3.535   3.992   0.313 -0.1537  0.1315  0.2525
 5435TIP3    H137864   3.594   3.930   0.271 -1.9363 -2.0500  0.7414
 5435TIP3    H237865   3.459   3.995   0.254 -0.6460  0.8247  0.9075
 5436TIP3   OH237866   0.384   0.810   6.951  0.4680  0.8560  0.1401
 5436TIP3    H137867   0.295   0.778   6.970  0.2339  1.1941 -0.3485
 5436TIP3    H237868   0.396   0.884   7.011  0.4275  0.7916  0.2271
 5437TIP3   OH237869   1.248   3.967   1.395  0.3314  0.4321 -0.6689
 5437TIP3    H137870   1.331   3.937   1.431  0.9323  0.8878 -1.6534
 5437TIP3    H237871   1.236   4.055   1.430 -0.6471 -0.2597  0.9124
 5438TIP3   OH237872   4.661   6.092   0.070  0.1177  0.0663 -0.3265
 5438TIP3    H137873   4.604   6.166   0.050 -1.1639 -0.8957 -0.4241
 5438TIP3    H237874   4.612   6.042   0.136  1.2130 -0.3889  0.1596
 5439TIP3   OH237875   6.028   3.903   0.642  0.0260  0.3893  0.1828
 5439TIP3    H137876   5.988   3.910   0.556 -0.7158 -1.4690  0.3267
 5439TIP3    H237877   5.963   3.855   0.695  1.9108 -1.7450  0.7393
 5440TIP3   OH237878   1.530   3.528   1.833 -0.1792 -1.0089 -0.3868
 5440TIP3    H137879   1.617   3.490   1.819  0.2279  0.1017 -0.9624
 5440TIP3    H237880   1.536   3.571   1.918  1.1906  2.5582 -2.1060
 5441TIP3   OH237881   1.090   3.395   0.188  0.2261 -0.2872 -0.0604
 5441TIP3    H137882   1.047   3.424   0.107  0.4101  1.4414  0.4427
 5441TIP3    H237883   1.062   3.303   0.197  0.5870 -0.6858 -2.3288
 5442TIP3   OH237884   6.127   1.120   1.760 -0.2927 -0.4216 -0.3424
 5442TIP3    H137885   6.093   1.208   1.773 -0.2443 -0.2302 -1.4068
 5442TIP3    H237886   6.080   1.066   1.824  0.7258  0.5940  1.3328
 5443TIP3   OH237887   3.997   5.476   0.324 -0.3337 -0.5029  0.3979
 5443TIP3    H137888   3.913   5.499   0.284  0.7710  0.7379 -1.3916
 5443TIP3    H237889   4.017   5.389   0.289 -0.3764 -0.3266 -0.0796
 5444TIP3   OH237890   2.847   5.298   8.222 -0.3844  0.4246 -0.1306
 5444TIP3    H137891   2.835   5.351   8.142 -0.6503  0.2046 -0.2392
 5444TIP3    H237892   2.761   5.300   8.264 -1.2438 -2.1653 -1.5187
 5445TIP3   OH237893   6.596   2.160   1.044  0.1969  0.0540 -0.0145
 5445TIP3    H137894   6.677   2.113   1.066  1.7630  1.6921 -1.8480
 5445TIP3    H237895   6.574   2.130   0.956 -2.2965 -1.6521  1.0623
 5446TIP3   OH237896   6.425   2.674   7.453 -0.1156  0.0504 -0.1629
 5446TIP3    H137897   6.347   2.666   7.508  0.7952 -2.1445  0.9694
 5446TIP3    H237898   6.406   2.621   7.376  0.2656 -0.6021  0.1781
 5447TIP3   OH237899   4.541   0.011   1.792  0.6767 -0.6114 -0.1948
 5447TIP3    H137900   4.473  -0.022   1.734 -2.1535 -0.1389  2.5981
 5447TIP3    H237901   4.592  -0.067   1.815  1.4198 -0.9166 -2.5997
 5448TIP3   OH237902   0.868   0.124   7.758  0.6398  0.6003  0.9204
 5448TIP3    H137903   0.934   0.087   7.699  2.5315  0.2427  3.1181
 5448TIP3    H237904   0.821   0.048   7.791 -1.4384  0.8861 -1.0939
 5449TIP3   OH237905   1.167   4.624   2.229 -0.3445  0.2977  0.7774
 5449TIP3    H137906   1.178   4.699   2.286 -1.0469 -0.8634  2.5283
 5449TIP3    H237907   1.172   4.548   2.287  1.1871 -1.1065 -1.0132
 5450TIP3   OH237908   5.050   5.322   7.487  0.1196  0.1364  0.1517
 5450TIP3    H137909   5.131   5.273   7.474 -0.8364 -1.9188  1.4629
 5450TIP3    H237910   5.030   5.311   7.580 -1.7469  0.4104 -0.1862
 5451TIP3   OH237911   1.913   4.746   0.608  0.4435 -0.1204 -0.5482
 5451TIP3    H137912   1.937   4.831   0.569 -0.3563  0.1782 -0.3971
 5451TIP3    H237913   1.981   4.730   0.673  0.0653  0.8816  0.1123
 5452TIP3   OH237914   4.602   5.563   0.604 -0.1778 -0.3342  0.0606
 5452TIP3    H137915   4.573   5.587   0.693  1.2818 -0.0568  0.4910
 5452TIP3    H237916   4.539   5.606   0.546  0.8218  2.4754  0.8864
 5453TIP3   OH237917   0.202   5.032   1.113 -0.6763  0.8156 -0.4804
 5453TIP3    H137918   0.260   5.087   1.165  0.5247  0.9856 -1.9383
 5453TIP3    H237919   0.117   5.075   1.118 -0.7950  0.4329  1.9015
 5454TIP3   OH237920   6.979   3.402   8.258  0.1495  0.4495  0.0034
 5454TIP3    H137921   6.998   3.484   8.303  0.7150  1.6990 -2.3158
 5454TIP3    H237922   6.883   3.394   8.263  0.1386  0.9617  0.7458
 5455TIP3   OH237923   6.425   4.932   0.994 -0.3129  0.2259  0.1071
 5455TIP3    H137924   6.459   4.879   0.922 -1.2214 -1.8931  1.1342
 5455TIP3    H237925   6.501   4.979   1.027  0.8908 -1.5685  0.0468
 5456TIP3   OH237926   1.975   3.953   8.289  0.1383  0.3157 -0.0967
 5456TIP3    H137927   1.992   3.947   8.383  0.4430 -0.6735 -0.1969
 5456TIP3    H237928   1.881   3.940   8.280  0.2517 -0.6246  0.0050
 5457TIP3   OH237929   3.782   4.703   0.492 -0.1589  0.2260  0.2373
 5457TIP3    H137930   3.782   4.620   0.445 -0.8396  0.2478  0.1887
 5457TIP3    H237931   3.717   4.692   0.562 -0.6486  0.8891 -0.0998
 5458TIP3   OH237932   1.383   5.615   0.406 -0.1454 -0.1550 -0.0580
 5458TIP3    H137933   1.306   5.641   0.456 -1.6277 -0.7198 -1.9214
 5458TIP3    H237934   1.348   5.578   0.325  2.1120  2.2070 -2.3134
 5459TIP3   OH237935   3.382   2.200   7.384 -0.0796  0.5029  0.5973
 5459TIP3    H137936   3.446   2.265   7.414 -0.6210  1.0432  0.5972
 5459TIP3    H237937   3.435   2.127   7.353  0.5990  1.4180 -0.5120
 5460TIP3   OH237938   3.185   6.419   0.773 -0.5133  0.1717  0.1261
 5460TIP3    H137939   3.214   6.506   0.746 -1.0745  0.2332 -0.2938
 5460TIP3    H237940   3.094   6.413   0.744 -0.3989 -0.6617 -0.1085
 5461TIP3   OH237941   6.310   6.615   7.515 -0.6269  0.3663 -0.1201
 5461TIP3    H137942   6.314   6.552   7.587  1.0594  0.8392  0.2518
 5461TIP3    H237943   6.216   6.627   7.499 -1.0916  0.5170  2.2476
 5462TIP3   OH237944   0.593   5.764   0.793  0.0308  0.4455  0.6148
 5462TIP3    H137945   0.624   5.702   0.727 -0.1562  0.2376  0.7228
 5462TIP3    H237946   0.658   5.761   0.862  0.0878  0.4639  0.5619
 5463TIP3   OH237947   6.816   3.918   0.447  0.0975 -0.4411 -0.4285
 5463TIP3    H137948   6.746   3.919   0.381  0.1985 -3.5036 -0.7267
 5463TIP3    H237949   6.801   3.997   0.498 -1.6026  0.6800 -2.4749
 5464TIP3   OH237950   0.443   0.321   1.951 -0.6243 -0.2994  0.2514
 5464TIP3    H137951   0.516   0.334   2.012  0.3888 -1.5646 -0.6543
 5464TIP3    H237952   0.407   0.235   1.974  1.2308 -1.8799 -2.3363
 5465TIP3   OH237953   2.560   1.152   0.679 -0.0872 -0.2364  0.2488
 5465TIP3    H137954   2.505   1.073   0.682 -2.3967  1.2682 -0.2568
 5465TIP3    H237955   2.505   1.221   0.714  1.4228  1.4315 -0.4991
 5466TIP3   OH237956   3.926   3.236   7.932 -0.0949  0.2564 -0.4835
 5466TIP3    H137957   3.931   3.158   7.988  0.9806  0.1597 -0.7034
 5466TIP3    H237958   3.939   3.203   7.843  0.6701  0.7183 -0.5527
 5467TIP3   OH237959   3.782   5.824   7.866  0.3690 -0.1482 -0.4251
 5467TIP3    H137960   3.719   5.775   7.919  2.6208 -2.2744  0.4867
 5467TIP3    H237961   3.729   5.869   7.800 -2.2256 -0.1832  1.4877
 5468TIP3   OH237962   1.379   4.600   8.257 -0.5829 -0.7881 -0.5624
 5468TIP3    H137963   1.323   4.663   8.302 -0.3887 -1.1347  0.1744
 5468TIP3    H237964   1.467   4.639   8.262 -0.6090 -0.6755 -0.9297
 5469TIP3   OH237965   5.539   0.850   6.852  0.1248  0.5261  0.3199
 5469TIP3    H137966   5.572   0.932   6.815  0.2586  0.8581  1.1432
 5469TIP3    H237967   5.617   0.805   6.884  0.2576 -0.7333 -1.6376
 5470TIP3   OH237968   3.958   2.463   7.641 -0.1541  0.5859 -0.4034
 5470TIP3    H137969   3.916   2.534   7.690 -2.2571 -1.6193  1.2348
 5470TIP3    H237970   3.942   2.384   7.693  4.0739 -0.8911 -0.9502
 5471TIP3   OH237971   3.159   4.743   0.186  0.2774  0.5992  0.4612
 5471TIP3    H137972   3.177   4.671   0.246 -1.7683  1.4068  2.1475
 5471TIP3    H237973   3.200   4.820   0.226  0.7911  0.7554 -0.3305
 5472TIP3   OH237974   0.398   0.764   1.397  0.1073 -0.1164  0.4874
 5472TIP3    H137975   0.434   0.740   1.311  0.2299  1.7911 -0.0380
 5472TIP3    H237976   0.460   0.727   1.460 -0.1183 -1.7726 -0.1913
 5473TIP3   OH237977   5.613   3.129   0.247  0.1225  0.2073  0.3604
 5473TIP3    H137978   5.582   3.194   0.184  0.5117 -0.6648 -0.7455
 5473TIP3    H237979   5.534   3.097   0.289 -0.7382 -2.5913 -2.9921
 5474TIP3   OH237980   3.638   0.897   2.472 -0.1180  0.0735 -0.3446
 5474TIP3    H137981   3.717   0.873   2.424 -0.2055 -1.2535  0.1373
 5474TIP3    H237982   3.663   0.892   2.564 -0.2358  1.5933 -0.2097
 5475TIP3   OH237983   6.845   5.798   6.655  0.1017 -0.2848  0.7491
 5475TIP3    H137984   6.773   5.794   6.592  0.6168 -3.2837  0.2299
 5475TIP3    H237985   6.802   5.796   6.741 -0.5168 -2.4279  0.4470
 5476TIP3   OH237986   0.514   6.160   6.443 -0.3250  0.2114 -0.3708
 5476TIP3    H137987   0.553   6.146   6.357 -0.6489  1.2642 -0.7145
 5476TIP3    H237988   0.454   6.087   6.455 -2.5073  1.5281 -2.3876
 5477TIP3   OH237989   5.243   3.728   7.508  0.4346 -0.5529  0.2704
 5477TIP3    H137990   5.164   3.724   7.455  0.8322 -1.4590 -0.2775
 5477TIP3    H237991   5.229   3.663   7.577  0.4443 -0.2727  0.5389
 5478TIP3   OH237992   1.831   3.466   0.182 -0.0178  0.1193  0.0577
 5478TIP3    H137993   1.756   3.524   0.175  0.2031  0.4507  0.4015
 5478TIP3    H237994   1.801   3.392   0.235  0.5483  1.3757  2.2607
 5479TIP3   OH237995   0.100   3.135   2.027 -0.3395  0.0784 -0.1739
 5479TIP3    H137996   0.014   3.150   2.066 -0.2721 -0.1535  0.0741
 5479TIP3    H237997   0.107   3.199   1.957 -0.8473 -0.1214 -0.4065
 5480TIP3   OH237998   0.659   4.730   1.270 -0.4527 -0.3525 -0.1267
 5480TIP3    H137999   0.605   4.715   1.348  0.5201  1.2716  0.9274
 5480TIP3    H238000   0.743   4.690   1.292 -0.3331 -0.3524 -0.5758
 5481TIP3   OH238001   3.205   0.339   1.836  0.0905 -0.2949 -0.3203
 5481TIP3    H138002   3.157   0.300   1.908  0.3487 -0.2715 -0.1334
 5481TIP3    H238003   3.144   0.338   1.762 -0.4367  0.3813  0.0957
 5482TIP3   OH238004   5.760   6.376   7.574  0.2894  0.1337 -0.1617
 5482TIP3    H138005   5.679   6.422   7.597  0.4570  0.0441  0.6419
 5482TIP3    H238006   5.755   6.365   7.479 -0.7080 -0.0021 -0.1068
 5483TIP3   OH238007   2.787   2.738   8.079 -0.1871 -0.2836 -0.4120
 5483TIP3    H138008   2.705   2.786   8.066 -0.6555 -1.1533 -0.7305
 5483TIP3    H238009   2.763   2.666   8.138  0.3006 -0.6627 -0.6767
 5484TIP3   OH238010   4.446   0.051   7.432  0.2106 -0.0422 -0.0593
 5484TIP3    H138011   4.427   0.065   7.339 -5.4989  0.9693  0.8622
 5484TIP3    H238012   4.419  -0.040   7.449  0.9239 -0.1283  0.6913
 5485TIP3   OH238013   5.581   0.503   8.104 -0.2572 -0.4337  0.7481
 5485TIP3    H138014   5.603   0.536   8.017  1.1206 -1.2036  0.7841
 5485TIP3    H238015   5.494   0.540   8.122  0.3882  1.5874 -0.0048
 5486TIP3   OH238016   0.831   0.995   7.471 -0.5237 -0.1283 -0.7266
 5486TIP3    H138017   0.829   1.061   7.401  1.7382  1.4865  0.5838
 5486TIP3    H238018   0.772   1.029   7.538 -1.3034 -0.7739 -1.0608
 5487TIP3   OH238019   6.600   3.519   0.962 -0.3121 -0.0970  0.3977
 5487TIP3    H138020   6.560   3.485   1.042  1.4594  1.1512  1.8896
 5487TIP3    H238021   6.559   3.605   0.950  0.2630  0.2238  0.6672
 5488TIP3   OH238022   0.915   5.068   8.205 -0.4180 -0.4228 -0.3168
 5488TIP3    H138023   0.874   5.121   8.272  1.1365 -0.0010  0.3516
 5488TIP3    H238024   0.855   4.994   8.192 -1.6854  0.5074  0.0929
 5489TIP3   OH238025   1.053   6.572   7.083  0.0040  0.1222 -0.2221
 5489TIP3    H138026   1.131   6.518   7.095 -0.5346 -1.1389 -2.0479
 5489TIP3    H238027   1.086   6.657   7.056  0.7803 -0.8960 -2.7741
 5490TIP3   OH238028   6.364   5.051   0.663 -0.1104  1.1228  0.2426
 5490TIP3    H138029   6.382   4.964   0.627 -0.9747  0.9748  0.1527
 5490TIP3    H238030   6.346   5.106   0.586  0.6174  1.4376  0.2849
 5491TIP3   OH238031   0.326   0.113   7.513 -0.0092 -0.1302  0.1459
 5491TIP3    H138032   0.341   0.045   7.447  0.9393  0.7746 -0.5982
 5491TIP3    H238033   0.409   0.120   7.560 -0.2457  0.1928  0.5226
 5492TIP3   OH238034   6.243   2.334   2.459 -0.2522  0.3525  0.2404
 5492TIP3    H138035   6.265   2.423   2.485  0.4473  0.4594 -0.6490
 5492TIP3    H238036   6.150   2.325   2.478 -0.3122  1.2472  0.4047
 5493TIP3   OH238037   1.351   3.280   0.752 -0.5436 -0.3971 -0.3885
 5493TIP3    H138038   1.345   3.301   0.659 -1.7774 -1.8884 -0.6868
 5493TIP3    H238039   1.412   3.345   0.788 -1.9834  1.7974 -1.7365
 5494TIP3   OH238040   0.801   3.578   0.931  0.1559  0.4474  0.1456
 5494TIP3    H138041   0.890   3.606   0.913 -0.0189  0.8248 -0.1593
 5494TIP3    H238042   0.807   3.528   1.012  1.2172 -2.5767 -1.6432
 5495TIP3   OH238043   0.333   6.896   0.497  0.4274  0.1941 -0.3922
 5495TIP3    H138044   0.416   6.920   0.456  1.0604 -1.1292  0.0393
 5495TIP3    H238045   0.294   6.979   0.523  1.7188  0.8417 -0.4278
 5496TIP3   OH238046   5.381   4.821   7.865 -0.4364  0.1063  0.0358
 5496TIP3    H138047   5.303   4.876   7.864 -0.2174  0.5345  1.9465
 5496TIP3    H238048   5.452   4.881   7.891  0.6947 -0.1235 -2.2788
 5497TIP3   OH238049   1.461   4.444   0.230  0.1602  0.4988 -0.4861
 5497TIP3    H138050   1.390   4.470   0.289  0.5307  0.7054 -0.1211
 5497TIP3    H238051   1.458   4.508   0.159 -0.4623  0.0878 -0.8423
 5498TIP3   OH238052   2.760   4.929   1.083 -0.3865  0.5034  0.3698
 5498TIP3    H138053   2.821   4.862   1.051 -0.7991  0.2726  0.0542
 5498TIP3    H238054   2.678   4.881   1.100  0.0162  0.4775  2.4998
 5499TIP3   OH238055   5.329   0.872   0.534 -0.1606  0.3466  0.1543
 5499TIP3    H138056   5.242   0.893   0.567  0.3626  0.4930  1.4924
 5499TIP3    H238057   5.334   0.917   0.449 -0.9241  1.3473  0.6188
 5500TIP3   OH238058   6.609   2.998   8.350  0.0065 -0.7471  0.1214
 5500TIP3    H138059   6.698   2.993   8.383 -0.2388 -1.4340  0.7087
 5500TIP3    H238060   6.619   2.993   8.255  0.7570  1.9118 -0.0032
 5501TIP3   OH238061   5.348   0.412   1.634 -0.1894 -0.4578 -0.4355
 5501TIP3    H138062   5.439   0.386   1.648 -0.2949 -0.4782  0.2523
 5501TIP3    H238063   5.303   0.331   1.608 -0.1620 -0.6189 -0.0050
 5502TIP3   OH238064   7.001   4.653   2.437 -0.3893  0.3232  0.9222
 5502TIP3    H138065   6.988   4.668   2.343  1.1184 -3.1003  0.0134
 5502TIP3    H238066   7.089   4.685   2.454 -0.9167  1.5837  1.3908
 5503TIP3   OH238067   5.702   5.900   0.680  0.0227 -0.7439 -0.0923
 5503TIP3    H138068   5.616   5.860   0.694 -0.5957  0.0732 -1.3167
 5503TIP3    H238069   5.732   5.925   0.767  0.2545 -3.4289  0.6858
 5504TIP3   OH238070   3.233   0.291   7.115 -0.1986 -0.4641  0.1377
 5504TIP3    H138071   3.178   0.364   7.145 -1.8121 -1.5591 -0.0045
 5504TIP3    H238072   3.174   0.239   7.060  0.6855 -2.2640  0.8474
 5505TIP3   OH238073   4.082   4.741   2.515 -0.4612 -0.2714 -0.5323
 5505TIP3    H138074   4.047   4.653   2.498  2.8283 -1.5492 -1.5005
 5505TIP3    H238075   4.169   4.740   2.476  0.5489  2.7524  1.3038
 5506TIP3   OH238076   1.860   0.227   1.852 -0.9549  0.1409 -0.2062
 5506TIP3    H138077   1.859   0.141   1.810 -0.7779  0.7833 -1.5939
 5506TIP3    H238078   1.861   0.208   1.945  0.6103 -1.3787 -0.4780
 5507TIP3   OH238079   0.181   3.615   1.051  0.3101  0.6392 -0.1024
 5507TIP3    H138080   0.249   3.681   1.041  1.5662 -0.1813  2.2376
 5507TIP3    H238081   0.187   3.589   1.143 -2.5316 -0.1847 -0.0523
 5508TIP3   OH238082   2.771   1.424   7.302 -0.6422  0.1996  0.2416
 5508TIP3    H138083   2.772   1.351   7.364 -2.0603  0.2081  0.3134
 5508TIP3    H238084   2.743   1.500   7.354  0.5980  0.7655  0.1210
 5509TIP3   OH238085   2.940   0.597   7.386 -0.4863 -0.4757 -0.0305
 5509TIP3    H138086   2.980   0.622   7.469  1.2611 -0.1074 -0.9300
 5509TIP3    H238087   2.890   0.673   7.358 -1.1295 -0.6246  0.6981
 5510TIP3   OH238088   4.032   6.590   0.067  0.5046 -0.4260  0.0651
 5510TIP3    H138089   4.025   6.579  -0.028 -0.3107 -2.0610  0.2743
 5510TIP3    H238090   3.977   6.665   0.087  0.8046  0.0227 -0.7704
 5511TIP3   OH238091   6.815   0.251   0.224 -0.3102 -0.4688  0.2662
 5511TIP3    H138092   6.755   0.319   0.256  0.3663  0.0039  0.5715
 5511TIP3    H238093   6.831   0.275   0.133  1.8434  1.2677  1.0093
 5512TIP3   OH238094   6.798   6.181   7.855  0.1936  0.1103 -0.6912
 5512TIP3    H138095   6.861   6.253   7.844  0.2271 -0.1439 -2.4804
 5512TIP3    H238096   6.738   6.211   7.923  1.6413  0.7892  0.3351
 5513TIP3   OH238097   4.446   2.067   7.725  0.9940  0.0590 -0.5697
 5513TIP3    H138098   4.388   2.036   7.795  1.5163  0.8190  0.2138
 5513TIP3    H238099   4.387   2.087   7.652  0.4676 -1.0098 -0.4591
 5514TIP3   OH238100   5.597   4.124   1.151 -0.8780 -0.8337  0.3291
 5514TIP3    H138101   5.613   4.176   1.072  2.5861 -4.1564 -1.4783
 5514TIP3    H238102   5.644   4.170   1.220 -1.0358  0.3348 -0.3181
 5515TIP3   OH238103   2.018   6.032   0.951 -0.0069 -0.5581 -0.2319
 5515TIP3    H138104   1.996   6.098   0.885  1.8265  0.2036 -0.1307
 5515TIP3    H238105   1.960   6.052   1.024 -0.0624  0.4242 -0.5276
 5516TIP3   OH238106   5.660   2.071   0.653 -0.6544  0.3213 -0.5145
 5516TIP3    H138107   5.616   2.153   0.633  0.9412  1.3889  0.1618
 5516TIP3    H238108   5.706   2.047   0.572  0.1597  0.9626 -0.2583
 5517TIP3   OH238109   4.091   3.412   0.864  0.0220  0.0364 -0.3139
 5517TIP3    H138110   4.158   3.477   0.841 -0.4714  0.3384 -0.9302
 5517TIP3    H238111   4.124   3.371   0.944 -0.0268  1.5734  0.5191
 5518TIP3   OH238112   6.728   6.383   7.228 -0.2888  0.1052  0.0854
 5518TIP3    H138113   6.659   6.367   7.292  1.2561 -2.2088  1.3457
 5518TIP3    H238114   6.771   6.298   7.218  0.3849  0.7097 -3.0846
 5519TIP3   OH238115   6.659   3.607   6.581  0.0351  0.4804  0.4871
 5519TIP3    H138116   6.668   3.693   6.540 -1.3972 -0.1740 -1.3678
 5519TIP3    H238117   6.615   3.625   6.665 -1.7789  1.4629 -0.6025
 5520TIP3   OH238118   3.156   5.327   0.882 -0.1486 -0.2322  0.4060
 5520TIP3    H138119   3.065   5.299   0.873 -0.6014  1.6282 -1.5926
 5520TIP3    H238120   3.161   5.362   0.971 -0.5310 -2.9434  1.6060
 5521TIP3   OH238121   6.304   1.110   8.001 -0.4778 -0.3940 -0.0273
 5521TIP3    H138122   6.309   1.093   8.095  0.5161 -2.8642 -0.4455
 5521TIP3    H238123   6.393   1.137   7.977 -0.1893 -1.7497 -0.5505
 5522TIP3   OH238124   2.882   6.611   7.083 -0.9777  0.4369  0.0304
 5522TIP3    H138125   2.908   6.610   6.991 -0.9767 -0.5630  0.0304
 5522TIP3    H238126   2.788   6.631   7.081 -1.4529 -1.5971 -0.3459
 5523TIP3   OH238127   3.535   6.560   1.007  0.1829 -0.0281 -0.4266
 5523TIP3    H138128   3.549   6.565   0.912  0.8957  1.4973 -0.2699
 5523TIP3    H238129   3.594   6.626   1.043  0.8788 -1.4421  1.1978
 5524TIP3   OH238130   0.540   1.721   2.710 -0.2329 -0.3122  0.4112
 5524TIP3    H138131   0.453   1.693   2.738 -1.0227  0.1970 -1.3577
 5524TIP3    H238132   0.595   1.643   2.722 -0.7353 -0.4298  2.2196
 5525TIP3   OH238133   1.416   4.720   1.504 -0.3387 -0.6347  0.4164
 5525TIP3    H138134   1.365   4.706   1.424  0.3517 -0.4812 -0.0587
 5525TIP3    H238135   1.449   4.633   1.526 -0.3441 -0.6377  0.4126
 5526TIP3   OH238136   3.052   0.153   0.390  0.0320  1.1137  0.3794
 5526TIP3    H138137   3.118   0.123   0.453 -1.3441 -1.3275  0.7635
 5526TIP3    H238138   3.012   0.229   0.431 -1.5606 -0.9999  3.1114
 5527TIP3   OH238139   6.218   4.316   0.560 -0.2703 -0.3147 -0.2032
 5527TIP3    H138140   6.172   4.248   0.609  0.1504 -1.6955 -1.6664
 5527TIP3    H238141   6.310   4.291   0.564 -0.4045 -1.9657 -3.7295
 5528TIP3   OH238142   6.211   5.685   0.988 -0.6108 -0.6062  0.2264
 5528TIP3    H138143   6.175   5.689   1.077 -0.6268  0.2141  0.1860
 5528TIP3    H238144   6.165   5.754   0.940  0.8171  0.2845  0.1039
 5529TIP3   OH238145   5.706   0.860   7.813 -0.1102  0.4452 -1.0498
 5529TIP3    H138146   5.779   0.902   7.858  2.7919 -3.1066 -1.9638
 5529TIP3    H238147   5.713   0.891   7.723 -0.1165  0.5523 -1.0146
 5530TIP3   OH238148   0.938   0.953   8.257 -0.0797  0.1476 -0.3097
 5530TIP3    H138149   0.895   0.876   8.220  0.3325 -1.3491  2.0464
 5530TIP3    H238150   0.931   0.940   8.352  1.3353  2.2787  0.1537
 5531TIP3   OH238151   0.883   2.777   0.589  0.6984  0.2314 -0.1653
 5531TIP3    H138152   0.810   2.719   0.610  0.6467  0.0434 -0.8281
 5531TIP3    H238153   0.849   2.865   0.603  1.2992  0.1002  2.5186
 5532TIP3   OH238154   0.148   5.243   6.333 -0.2625  0.2748 -0.0133
 5532TIP3    H138155   0.100   5.312   6.378 -1.2467  1.0354 -2.0909
 5532TIP3    H238156   0.102   5.162   6.358 -0.7776  0.6705  0.3346
 5533TIP3   OH238157   3.197   1.555   0.734 -0.0780 -0.2394  0.1982
 5533TIP3    H138158   3.249   1.482   0.701 -0.2182 -0.5684  0.7010
 5533TIP3    H238159   3.137   1.575   0.662  0.4253 -0.1572 -0.2075
 5534TIP3   OH238160   3.696   5.264   2.089 -0.5219 -0.2609 -1.0202
 5534TIP3    H138161   3.750   5.221   2.022  1.4871 -0.8103  0.8370
 5534TIP3    H238162   3.715   5.216   2.170 -1.5132  1.4625  0.3000
 5535TIP3   OH238163   0.697   3.253   7.363  0.2310  0.4120  0.0599
 5535TIP3    H138164   0.766   3.201   7.320  0.0721  0.5821 -0.4102
 5535TIP3    H238165   0.741   3.294   7.437  1.1738  2.1561 -1.3915
 5536TIP3   OH238166   3.168   6.472   1.325 -0.5469 -0.1898  0.7151
 5536TIP3    H138167   3.245   6.501   1.276 -1.2495 -0.2889 -0.4893
 5536TIP3    H238168   3.102   6.453   1.258 -2.1248  1.2922  1.7498
 5537TIP3   OH238169   6.306   3.188   6.779  0.1527 -0.2528  0.5868
 5537TIP3    H138170   6.241   3.190   6.709  0.8350 -0.5541 -0.0810
 5537TIP3    H238171   6.390   3.180   6.733  0.7804  1.3805  1.3524
 5538TIP3   OH238172   1.512   5.349   1.701  0.2569  0.2598  0.9098
 5538TIP3    H138173   1.552   5.262   1.710  0.6027  0.3047 -0.0863
 5538TIP3    H238174   1.587   5.408   1.688  0.0845  0.8340  2.3165
 5539TIP3   OH238175   1.432   6.816   0.401  0.6402 -0.1985  0.1443
 5539TIP3    H138176   1.474   6.742   0.357  0.1282  0.6421 -1.8657
 5539TIP3    H238177   1.356   6.836   0.347  0.5598  1.5794  0.8471
 5540TIP3   OH238178   3.075   6.266   1.851  0.4802  0.4780 -0.0077
 5540TIP3    H138179   3.001   6.214   1.820  1.2448 -1.3573  1.1267
 5540TIP3    H238180   3.059   6.277   1.944  1.2552  0.7580  0.0957
 5541TIP3   OH238181   3.387   1.433   2.285  0.2263 -0.1787  0.6415
 5541TIP3    H138182   3.409   1.480   2.205  1.0849 -0.5703  0.6438
 5541TIP3    H238183   3.298   1.401   2.269 -1.2998  3.1541  1.4466
 5542TIP3   OH238184   6.026   6.274   2.587 -0.3114 -0.8672 -0.0888
 5542TIP3    H138185   6.003   6.361   2.553 -0.1334 -1.2004 -1.0693
 5542TIP3    H238186   6.082   6.236   2.521  2.3459 -0.4788  1.7970
 5543TIP3   OH238187   0.715   6.616   1.137  0.1266  0.3083  0.4041
 5543TIP3    H138188   0.700   6.671   1.060 -2.1178 -1.3138 -0.4379
 5543TIP3    H238189   0.794   6.567   1.116  0.2467  0.7951 -0.3168
 5544TIP3   OH238190   4.252   1.334   0.246 -0.4129  0.2026 -0.1537
 5544TIP3    H138191   4.331   1.292   0.279 -0.0900 -0.0686 -1.2433
 5544TIP3    H238192   4.188   1.263   0.239 -1.1704  0.6232  1.8872
 5545TIP3   OH238193   3.423   1.411   7.516 -0.8150  0.0437  0.2379
 5545TIP3    H138194   3.454   1.498   7.540  0.1259 -0.1882 -0.1171
 5545TIP3    H238195   3.410   1.415   7.421  0.5389 -0.5887  0.0062
 5546TIP3   OH238196   5.738   1.884   8.022  0.4829  0.4543  0.2877
 5546TIP3    H138197   5.688   1.933   7.957  1.1521 -0.9791 -1.3818
 5546TIP3    H238198   5.673   1.848   8.082 -0.0994  2.3545  0.8705
 5547TIP3   OH238199   3.017   5.996   1.428  0.4493  0.5421  0.6769
 5547TIP3    H138200   3.106   5.962   1.433  0.3335  0.1642  0.1829
 5547TIP3    H238201   3.019   6.059   1.356  0.7105  1.7522  1.6996
 5548TIP3   OH238202   4.782   6.011   1.812  0.7940  0.7435 -0.0483
 5548TIP3    H138203   4.795   5.994   1.718 -1.5278 -0.1605 -0.2561
 5548TIP3    H238204   4.687   6.019   1.822  1.0227  1.2675  2.1846
 5549TIP3   OH238205   1.680   5.272   7.813 -0.1315  0.6002 -0.1631
 5549TIP3    H138206   1.715   5.262   7.902 -1.1204  0.2556  0.2024
 5549TIP3    H238207   1.757   5.288   7.759  0.5245  0.4838  0.7064
 5550TIP3   OH238208   3.801   4.029   6.510  0.4835 -0.1990  0.0137
 5550TIP3    H138209   3.784   4.039   6.604 -0.4107 -1.2923 -0.0032
 5550TIP3    H238210   3.874   4.088   6.492  1.6534 -1.0715  1.6862
 5551TIP3   OH238211   6.404   6.638   8.234 -0.2323 -0.0197 -0.5994
 5551TIP3    H138212   6.428   6.730   8.224  0.3570 -0.2941 -1.8540
 5551TIP3    H238213   6.312   6.635   8.208 -0.6119  0.4010  0.6194
 5552TIP3   OH238214   4.666   1.367   7.640  0.0807  0.1221 -0.2678
 5552TIP3    H138215   4.634   1.348   7.551 -0.3350 -0.4418 -0.0043
 5552TIP3    H238216   4.756   1.398   7.626 -0.2010  0.6740 -0.9325
 5553TIP3   OH238217   0.727   6.643   7.527 -0.0594 -0.2329  0.2374
 5553TIP3    H138218   0.695   6.564   7.570  1.4639 -0.4041  1.1238
 5553TIP3    H238219   0.651   6.701   7.524 -0.4287 -0.5256  2.4410
 5554TIP3   OH238220   4.329   0.609   2.667  0.0226  0.0162  0.0054
 5554TIP3    H138221   4.250   0.567   2.701 -0.9531 -0.1774 -2.3499
 5554TIP3    H238222   4.334   0.692   2.714 -1.4611 -0.0714  0.3605
 5555TIP3   OH238223   3.585   2.790   1.739  0.5532 -0.4759 -0.1821
 5555TIP3    H138224   3.638   2.837   1.804 -1.1855 -1.5103  2.1034
 5555TIP3    H238225   3.570   2.704   1.779 -0.6294 -1.1381 -1.9675
 5556TIP3   OH238226   1.090   6.217   0.446 -0.1068  0.5344  0.2227
 5556TIP3    H138227   1.128   6.285   0.390 -0.9422  2.1823  1.5996
 5556TIP3    H238228   1.023   6.176   0.391  0.0608  1.1369 -0.4486
 5557TIP3   OH238229   5.822   3.386   1.832 -0.5305 -0.1746 -0.2217
 5557TIP3    H138230   5.794   3.326   1.901  0.5733 -0.9143 -0.3819
 5557TIP3    H238231   5.872   3.454   1.877 -0.6658 -0.1040 -0.1793
 5558TIP3   OH238232   6.841   5.632   7.637 -0.3531 -0.5473  0.0460
 5558TIP3    H138233   6.814   5.540   7.645  0.4492 -0.8038 -0.1521
 5558TIP3    H238234   6.914   5.641   7.697 -0.0810 -0.1737 -0.3381
 5559TIP3   OH238235   4.180   5.476   2.622  0.1448  0.2354  0.1701
 5559TIP3    H138236   4.270   5.475   2.590 -0.4971 -1.9432 -1.8270
 5559TIP3    H238237   4.176   5.406   2.687 -0.0462  0.5260  0.4763
 5560TIP3   OH238238   2.420   5.150   0.265 -0.1300  0.1229  0.4104
 5560TIP3    H138239   2.474   5.224   0.237 -0.9697  0.6755  0.2237
 5560TIP3    H238240   2.466   5.073   0.230  1.7209  0.3695  2.0854
 5561TIP3   OH238241   3.972   3.460   7.333 -0.0233 -0.4342  0.2077
 5561TIP3    H138242   3.912   3.388   7.317  1.5877 -1.7735 -0.0600
 5561TIP3    H238243   3.964   3.516   7.255 -0.8204 -0.6459  0.1335
 5562TIP3   OH238244   0.784   6.923   7.482 -0.3634 -0.3249  0.1449
 5562TIP3    H138245   0.804   6.830   7.496  1.4390  0.0447  0.1984
 5562TIP3    H238246   0.869   6.965   7.473 -1.1763  0.9835 -2.3761
 5563TIP3   OH238247   3.171   6.004   0.669  0.4600  0.4581 -0.4444
 5563TIP3    H138248   3.199   6.011   0.760  1.8930  1.2866 -0.9279
 5563TIP3    H238249   3.095   6.061   0.662  0.8285  1.0137  0.0498
 5564TIP3   OH238250   2.626   2.357   2.364  0.1630  0.6908  0.2947
 5564TIP3    H138251   2.594   2.304   2.290  1.7886 -1.5568  1.0720
 5564TIP3    H238252   2.595   2.445   2.346 -2.9618 -0.5360 -0.9792
 5565TIP3   OH238253   0.084   0.170   7.686 -0.4717 -0.4305  0.3536
 5565TIP3    H138254   0.133   0.125   7.617  0.3634  1.0827 -0.0663
 5565TIP3    H238255   0.127   0.255   7.696 -2.5888  0.7059  0.4324
 5566TIP3   OH238256   6.843   3.166   2.047 -0.4889 -0.5082 -0.1994
 5566TIP3    H138257   6.781   3.096   2.024 -0.8279  0.0527 -1.0265
 5566TIP3    H238258   6.794   3.247   2.033  0.0076 -0.0929  0.4337
 5567TIP3   OH238259   5.818   4.994   0.781 -0.8429 -0.0158  0.1734
 5567TIP3    H138260   5.829   4.993   0.686 -0.9940 -0.3702  0.1601
 5567TIP3    H238261   5.745   4.935   0.798  0.9210 -2.1589  0.7445
 5568TIP3   OH238262   3.674   6.494   0.516  0.5462 -0.3268 -0.5137
 5568TIP3    H138263   3.732   6.565   0.543  0.1287  0.0465 -0.5877
 5568TIP3    H238264   3.600   6.538   0.474 -0.8667 -0.6345  1.4934
 5569TIP3   OH238265   4.266   1.651   1.972 -0.0078 -0.2818  0.6018
 5569TIP3    H138266   4.185   1.618   2.010 -0.1703 -0.9872 -0.3314
 5569TIP3    H238267   4.332   1.584   1.992  0.0932 -0.2503  0.3817
 5570TIP3   OH238268   3.584   1.193   8.285 -0.2611  0.2798  0.4680
 5570TIP3    H138269   3.677   1.215   8.287 -0.7075  2.5094 -0.2784
 5570TIP3    H238270   3.547   1.236   8.362 -0.2546 -3.2820  2.6433
 5571TIP3   OH238271   6.155   1.150   7.068  0.5355 -0.0577 -0.5244
 5571TIP3    H138272   6.173   1.196   6.986  3.0373 -2.0189 -1.2082
 5571TIP3    H238273   6.201   1.201   7.135  0.3257  0.3427 -0.6842
 5572TIP3   OH238274   4.241   1.159   0.564  0.2960  0.0722 -0.2015
 5572TIP3    H138275   4.296   1.149   0.486  0.7898  0.6623  0.0618
 5572TIP3    H238276   4.170   1.096   0.552  1.2970 -1.0761 -0.3144
 5573TIP3   OH238277   4.047   0.889   7.150 -0.7385  0.0382  0.3951
 5573TIP3    H138278   4.075   0.857   7.236  0.5525  0.9976  0.3631
 5573TIP3    H238279   4.100   0.839   7.088  0.5141  1.4272  0.3024
 5574TIP3   OH238280   1.570   3.917   0.549  0.1530 -1.1452 -0.6899
 5574TIP3    H138281   1.644   3.941   0.494  0.6893 -2.4714 -0.6034
 5574TIP3    H238282   1.580   3.970   0.628  1.0779 -1.3606 -0.6460
 5575TIP3   OH238283   1.458   6.075   1.241  0.3756  0.4322 -0.7409
 5575TIP3    H138284   1.552   6.067   1.259 -0.1590  1.1734  3.2639
 5575TIP3    H238285   1.439   6.167   1.257 -1.3153 -0.0936  0.5714
 5576TIP3   OH238286   3.299   4.295   0.109 -0.2041  0.2892  0.5306
 5576TIP3    H138287   3.356   4.276   0.034  0.6241  1.7512  0.7469
 5576TIP3    H238288   3.307   4.219   0.166  1.1018  0.2227  0.2869
 5577TIP3   OH238289   3.443   4.228   7.992 -0.1492  0.0673  0.1570
 5577TIP3    H138290   3.489   4.240   7.909  0.9642 -1.6309  0.4779
 5577TIP3    H238291   3.351   4.218   7.967 -0.0482  1.1015 -0.7099
 5578TIP3   OH238292   4.769   5.702   0.060 -0.0323 -0.2098 -0.0070
 5578TIP3    H138293   4.726   5.722   0.143  0.0177  0.4063 -0.1281
 5578TIP3    H238294   4.760   5.782   0.008  0.8845 -0.2227 -0.1942
 5579TIP3   OH238295   4.859   5.061   0.892  0.5007 -0.2124 -0.1572
 5579TIP3    H138296   4.798   5.095   0.956 -1.4518 -1.2843 -1.3282
 5579TIP3    H238297   4.875   4.970   0.919  0.5304 -0.3346 -0.5652
 5580TIP3   OH238298   0.639   6.675   8.141 -0.1372 -0.1214 -0.4306
 5580TIP3    H138299   0.715   6.624   8.171 -0.9551 -0.1476  1.7454
 5580TIP3    H238300   0.669   6.766   8.145 -0.3318 -0.0947  0.9078
 5581TIP3   OH238301   4.215   2.496   7.855  0.0503 -0.3664  0.3253
 5581TIP3    H138302   4.295   2.500   7.804  0.9811  0.2172  1.7606
 5581TIP3    H238303   4.172   2.415   7.828  0.6590 -0.2379 -1.1068
 5582TIP3   OH238304   5.373   2.039   1.918  0.8331 -0.2820 -0.5199
 5582TIP3    H138305   5.388   1.986   1.996  0.1007  0.2444 -0.0129
 5582TIP3    H238306   5.351   1.976   1.850  1.9405 -0.7859 -0.4337
 5583TIP3   OH238307   3.603   7.002   1.324 -0.1635  1.0745  0.6730
 5583TIP3    H138308   3.657   6.928   1.296 -0.2229  1.7934 -1.5146
 5583TIP3    H238309   3.654   7.045   1.392  1.8638  1.4784 -1.0124
 5584TIP3   OH238310   3.349   3.670   0.765  0.5280  0.1910 -0.0942
 5584TIP3    H138311   3.443   3.653   0.758  0.4096 -1.0217  0.8377
 5584TIP3    H238312   3.324   3.628   0.847 -1.0014 -0.3081 -0.7828
 5585TIP3   OH238313   3.268   2.029   0.110 -0.2799 -0.7322  0.3620
 5585TIP3    H138314   3.304   1.974   0.040  0.1421  0.0821 -0.0762
 5585TIP3    H238315   3.262   2.116   0.071  2.3844  0.3397  2.0676
 5586TIP3   OH238316   4.462   0.800   8.037 -0.3477 -0.2591 -0.0589
 5586TIP3    H138317   4.400   0.820   8.107 -0.9283 -1.3571 -0.2480
 5586TIP3    H238318   4.423   0.837   7.958 -0.1071  0.2214  0.0415
 5587TIP3   OH238319   1.938   3.413   6.634  0.2665  0.1591  0.3121
 5587TIP3    H138320   1.882   3.394   6.708  0.8086 -0.8739  0.4801
 5587TIP3    H238321   1.895   3.485   6.588 -0.5849  0.1387  1.0660
 5588TIP3   OH238322   4.132   3.865   0.621  0.2856  0.0414 -0.4172
 5588TIP3    H138323   4.038   3.872   0.602  0.4806  3.5094 -0.6105
 5588TIP3    H238324   4.175   3.906   0.547  2.0527 -1.6505 -0.4199
 5589TIP3   OH238325   6.457   1.098   1.165  0.3553  0.0215 -0.7913
 5589TIP3    H138326   6.369   1.127   1.190  0.3601  0.7173 -1.5335
 5589TIP3    H238327   6.486   1.162   1.100  1.3293 -0.3207 -0.7167
 5590TIP3   OH238328   0.645   4.394   0.454 -0.2353  0.2182 -0.1981
 5590TIP3    H138329   0.581   4.336   0.413 -0.5656  0.0595  0.5220
 5590TIP3    H238330   0.611   4.482   0.440  0.2071  0.2412 -1.1917
 5591TIP3   OH238331   3.323   6.580   0.553 -0.6443 -0.3067 -0.7229
 5591TIP3    H138332   3.246   6.553   0.502 -0.1800  1.8767 -2.7749
 5591TIP3    H238333   3.386   6.609   0.487 -0.3925  3.7963  1.0401
 5592TIP3   OH238334   4.336   6.106   1.293  0.5450  0.5488 -0.2978
 5592TIP3    H138335   4.331   6.012   1.276  0.4110  0.9771 -3.1157
 5592TIP3    H238336   4.264   6.143   1.242  0.4788  2.2073  0.9142
 5593TIP3   OH238337   5.036   1.522   0.957  0.0795  0.2027  0.4292
 5593TIP3    H138338   5.075   1.609   0.947 -1.8000  1.0028 -0.5171
 5593TIP3    H238339   5.089   1.479   1.024  1.0421  2.0822  0.9391
 5594TIP3   OH238340   5.129   1.101   0.596  0.3574 -0.2646  0.0786
 5594TIP3    H138341   5.143   1.191   0.625  3.7043 -0.1656 -1.3957
 5594TIP3    H238342   5.146   1.103   0.502  1.7604 -2.5947  0.1984
 5595TIP3   OH238343   1.857   3.747   7.933 -0.1815  0.0834  0.0147
 5595TIP3    H138344   1.784   3.708   7.886 -0.2005  2.5514 -2.1944
 5595TIP3    H238345   1.931   3.690   7.913 -1.0408 -1.3259  0.6530
 5596TIP3   OH238346   1.314   1.772   0.674 -0.3285 -0.3823  0.4158
 5596TIP3    H138347   1.323   1.703   0.740  0.2853 -2.1083 -1.3704
 5596TIP3    H238348   1.277   1.727   0.597 -2.6886  1.8805  0.0802
 5597TIP3   OH238349   3.584   1.077   2.725 -0.4244  0.0818 -0.2924
 5597TIP3    H138350   3.633   1.000   2.753  0.4537  1.0520  0.9630
 5597TIP3    H238351   3.650   1.133   2.684 -0.7873  0.7292  0.0001
 5598TIP3   OH238352   1.772   3.383   1.848 -0.2920  0.4675 -0.5172
 5598TIP3    H138353   1.797   3.333   1.926  1.9109  0.9563 -0.8307
 5598TIP3    H238354   1.759   3.317   1.780 -0.5985  0.1380 -0.1430
 5599TIP3   OH238355   0.742   3.683   7.271 -0.5520 -0.4373  0.3895
 5599TIP3    H138356   0.690   3.609   7.299  0.9606 -0.7058  2.8495
 5599TIP3    H238357   0.751   3.737   7.350  0.7003  0.8938 -0.6038
 5600TIP3   OH238358   6.100   0.487   0.093 -0.4885  0.1994  0.2625
 5600TIP3    H138359   6.106   0.536   0.175 -1.6150 -0.0793  0.5281
 5600TIP3    H238360   6.115   0.553   0.025  2.5692  0.0666  0.6769
 5601TIP3   OH238361   3.618   6.702   1.345  0.0669  0.2535 -0.6346
 5601TIP3    H138362   3.590   6.635   1.408 -0.5768 -1.7880 -2.9388
 5601TIP3    H238363   3.691   6.746   1.389  1.1537 -2.5903  0.6784
 5602TIP3   OH238364   6.162   1.431   0.552  0.5279  0.6137  0.6239
 5602TIP3    H138365   6.221   1.462   0.483  1.7217  1.2734  1.8920
 5602TIP3    H238366   6.204   1.351   0.584 -0.3067  0.0129  0.2385
 5603TIP3   OH238367   0.515   3.146   7.186 -0.0786 -0.1696  0.3270
 5603TIP3    H138368   0.579   3.157   7.257 -0.9225 -2.9866  1.6890
 5603TIP3    H238369   0.431   3.140   7.231 -0.8659 -0.1265 -1.1154
 5604TIP3   OH238370   3.936   2.059   2.898 -0.5208 -0.1571 -0.2744
 5604TIP3    H138371   3.858   2.069   2.843 -0.1432 -1.1886 -1.0448
 5604TIP3    H238372   3.902   2.023   2.980 -0.8401 -0.9116 -0.7213
 5605TIP3   OH238373   2.518   5.265   0.650 -0.0948  0.6482  0.1109
 5605TIP3    H138374   2.510   5.170   0.641  1.7068  0.5507 -0.8682
 5605TIP3    H238375   2.540   5.296   0.562 -2.5163  2.2372 -0.0138
 5606TIP3   OH238376   1.947   5.861   0.270 -0.3239  0.1769  0.0012
 5606TIP3    H138377   2.014   5.793   0.271 -0.2828  0.2223  0.4734
 5606TIP3    H238378   1.889   5.837   0.198 -0.0872 -0.1415 -0.0834
 5607TIP3   OH238379   1.843   6.812   8.162  0.1291  0.1149 -0.3502
 5607TIP3    H138380   1.890   6.768   8.090  2.1686  0.6608  0.5708
 5607TIP3    H238381   1.839   6.746   8.231  0.6379  0.4643  0.0140
 5608TIP3   OH238382   4.324   2.582   8.270 -0.1939  0.2690  0.2600
 5608TIP3    H138383   4.401   2.527   8.286 -0.2609  0.0991  0.0043
 5608TIP3    H238384   4.268   2.568   8.346 -1.2039 -1.7077 -0.7951
 5609TIP3   OH238385   6.150   4.289   0.081 -0.4372  0.3111  0.2490
 5609TIP3    H138386   6.113   4.210   0.121 -1.1105  1.2915  1.6421
 5609TIP3    H238387   6.168   4.347   0.155 -0.4063  1.6486 -0.7688
 5610TIP3   OH238388   3.732   3.814   1.506  0.2403 -0.0960  0.5489
 5610TIP3    H138389   3.755   3.907   1.514  1.8873 -0.4856  0.6203
 5610TIP3    H238390   3.815   3.770   1.489 -0.9545 -1.1497 -3.4588
 5611TIP3   OH238391   1.774   3.899   1.834 -0.0248 -0.5958  0.1058
 5611TIP3    H138392   1.682   3.906   1.858 -0.0696 -2.9839  0.8854
 5611TIP3    H238393   1.791   3.804   1.830  2.6477 -0.2527  1.0067
 5612TIP3   OH238394   0.160   4.677   1.562  0.3112 -0.0651 -0.2237
 5612TIP3    H138395   0.121   4.760   1.533  3.3142  0.7912 -2.1935
 5612TIP3    H238396   0.088   4.614   1.555 -1.9568  2.1686  0.8611
 5613TIP3   OH238397   2.338   2.290   7.338 -0.0854  0.4273 -0.0355
 5613TIP3    H138398   2.303   2.208   7.304 -0.2599 -0.2003  1.5504
 5613TIP3    H238399   2.269   2.354   7.323 -0.3695  0.0461 -0.3722
 5614TIP3   OH238400   6.995   3.344   2.747 -0.0475  0.4395  0.3501
 5614TIP3    H138401   6.973   3.420   2.801 -0.0591  0.5611  0.1741
 5614TIP3    H238402   7.036   3.283   2.808  0.5711  0.8598  0.3679
 5615TIP3   OH238403   5.481   0.956   2.193 -0.1944 -0.0795  0.9590
 5615TIP3    H138404   5.404   0.970   2.247  0.0586  0.7253  1.1217
 5615TIP3    H238405   5.455   0.982   2.105  0.3046  1.6353  1.2779
 5616TIP3   OH238406   1.932   0.107   1.526  0.1341 -0.5441 -0.1435
 5616TIP3    H138407   1.846   0.066   1.539 -0.2757  0.5068  0.6561
 5616TIP3    H238408   1.987   0.037   1.493 -0.8958 -1.3818 -0.1521
 5617TIP3   OH238409   6.463   6.129   6.732 -0.5144 -0.6470 -0.1470
 5617TIP3    H138410   6.391   6.172   6.687 -0.5948 -1.5041 -0.8766
 5617TIP3    H238411   6.513   6.087   6.662  0.9358  0.2674  0.3000
 5618TIP3   OH238412   3.009   6.539   6.357  0.1381  0.5359 -0.5313
 5618TIP3    H138413   2.995   6.447   6.334 -2.2352  1.1302 -1.8570
 5618TIP3    H238414   3.095   6.560   6.322  0.7349 -1.1728 -0.1651
 5619TIP3   OH238415   0.468   1.265   0.056 -0.2550  0.4660 -0.1234
 5619TIP3    H138416   0.434   1.344   0.099  0.7438  1.0035 -0.3112
 5619TIP3    H238417   0.416   1.194   0.094 -0.1630  1.0507  1.1420
 5620TIP3   OH238418   1.535   6.712   7.304 -0.1468 -0.1439 -0.0447
 5620TIP3    H138419   1.517   6.806   7.311 -1.2777 -0.3097 -0.6305
 5620TIP3    H238420   1.592   6.694   7.379 -0.7694  0.8003  0.6815
 5621TIP3   OH238421   0.797   0.872   0.939 -0.1864 -0.4469 -0.1858
 5621TIP3    H138422   0.807   0.948   0.996  1.2586  0.9827 -2.2416
 5621TIP3    H238423   0.862   0.809   0.971 -1.3936 -0.8999  1.5255
 5622TIP3   OH238424   2.705   4.208   8.167  0.0628 -0.1124 -0.5932
 5622TIP3    H138425   2.701   4.159   8.249 -0.3916  0.0688 -0.5003
 5622TIP3    H238426   2.687   4.299   8.193 -1.3451 -0.2431 -1.0451
 5623TIP3   OH238427   4.381   4.341   1.251 -0.4113  0.1394 -0.5832
 5623TIP3    H138428   4.455   4.358   1.309 -0.9846 -1.8376  0.8487
 5623TIP3    H238429   4.420   4.321   1.166  0.7127 -0.7778  0.1288
 5624TIP3   OH238430   2.599   4.635   0.212 -0.3633  0.6295 -0.0813
 5624TIP3    H138431   2.651   4.557   0.232 -1.1867  0.2045  0.4529
 5624TIP3    H238432   2.585   4.631   0.118  0.0605  0.4231 -0.1360
 5625TIP3   OH238433   4.271   2.325   2.595 -0.0738  0.3771 -0.0506
 5625TIP3    H138434   4.218   2.256   2.634 -1.1835  0.9770 -0.4779
 5625TIP3    H238435   4.224   2.351   2.516  2.2877 -1.0497 -2.0588
 5626TIP3   OH238436   6.600   0.841   7.079 -0.4078  0.3444 -0.8667
 5626TIP3    H138437   6.611   0.783   7.003  2.2963  0.9980 -1.0856
 5626TIP3    H238438   6.544   0.912   7.047 -0.8753 -0.3736 -1.6642
 5627TIP3   OH238439   1.617   2.260   1.299  0.0850 -0.1034  0.0579
 5627TIP3    H138440   1.636   2.246   1.207  2.4403 -0.0928  0.4733
 5627TIP3    H238441   1.654   2.183   1.343 -0.3378  0.2519  1.0628
 5628TIP3   OH238442   7.000   0.876   0.085  1.1449  0.5019 -0.4690
 5628TIP3    H138443   6.942   0.915   0.151 -1.5115 -3.0010 -0.4120
 5628TIP3    H238444   7.079   0.853   0.134  0.4502  0.7023  0.8025
 5629TIP3   OH238445   6.261   4.335   7.777 -0.2340  0.0773  0.2704
 5629TIP3    H138446   6.196   4.402   7.756 -0.4339 -0.7721 -2.2417
 5629TIP3    H238447   6.224   4.253   7.743  2.3157 -0.3429 -1.8780
 5630TIP3   OH238448   3.299   3.309   1.585 -0.2652 -0.3725 -0.2336
 5630TIP3    H138449   3.306   3.332   1.678  0.9081  0.8153 -0.5798
 5630TIP3    H238450   3.217   3.347   1.557 -0.1167  0.2041  0.0832
 5631TIP3   OH238451   0.417   4.495   1.247  0.0125 -0.0235  0.3192
 5631TIP3    H138452   0.424   4.531   1.335 -1.7874  0.9788  0.1114
 5631TIP3    H238453   0.506   4.471   1.223  0.9518  2.1027  1.4203
 5632TIP3   OH238454   4.864   3.105   0.517  0.4352  0.0693  0.0189
 5632TIP3    H138455   4.865   3.022   0.563  1.0702 -0.6348 -1.2260
 5632TIP3    H238456   4.789   3.152   0.554  0.4824 -0.7674  1.2118
 5633TIP3   OH238457   4.392   6.674   8.085  0.2296 -0.3933 -0.2695
 5633TIP3    H138458   4.388   6.696   8.178  0.8222 -0.6023 -0.1895
 5633TIP3    H238459   4.402   6.579   8.084  1.8587 -0.2548 -0.4875
 5634TIP3   OH238460   2.420   5.776   0.189  0.4754  0.1274 -0.3055
 5634TIP3    H138461   2.460   5.826   0.261  0.9538  0.5507 -0.8608
 5634TIP3    H238462   2.347   5.830   0.160  0.7574  0.3202 -0.6526
 5635TIP3   OH238463   4.988   3.660   2.764 -0.0634  0.4255  0.1457
 5635TIP3    H138464   5.077   3.692   2.777 -0.8930  3.6115 -1.0623
 5635TIP3    H238465   4.998   3.566   2.750  3.3248  0.9091 -1.7784
 5636TIP3   OH238466   4.121   6.976   0.102  0.2212  0.1632  0.1362
 5636TIP3    H138467   4.163   7.014   0.025  0.1566  0.1811  0.1095
 5636TIP3    H238468   4.029   7.000   0.093  0.0254 -0.7106 -0.3203
 5637TIP3   OH238469   4.010   3.781   1.513 -0.5892  0.0171 -0.1201
 5637TIP3    H138470   4.062   3.796   1.434  0.8363  1.7027  1.0555
 5637TIP3    H238471   4.051   3.836   1.579 -0.5605 -2.7089  2.3310
 5638TIP3   OH238472   6.505   4.904   7.736 -0.5580  0.1848  0.5932
 5638TIP3    H138473   6.532   4.939   7.651 -1.0429  1.0357  0.7768
 5638TIP3    H238474   6.578   4.849   7.764 -0.8052 -0.9162 -0.8324
 5639TIP3   OH238475   2.243   5.098   7.204 -0.1129  0.0523 -0.6088
 5639TIP3    H138476   2.182   5.156   7.157  0.3202  1.0760  0.0404
 5639TIP3    H238477   2.308   5.073   7.138 -0.7919 -0.4150 -1.1122
 5640TIP3   OH238478   4.156   2.143   1.680 -0.5947  0.0645 -0.0029
 5640TIP3    H138479   4.083   2.123   1.620 -0.3808  1.4204 -0.7550
 5640TIP3    H238480   4.148   2.077   1.749 -1.6860 -0.6928 -0.7993
 5641TIP3   OH238481   2.386   3.235   7.543 -0.5624  0.3483 -0.6063
 5641TIP3    H138482   2.374   3.179   7.467  0.4168 -0.2351 -0.3489
 5641TIP3    H238483   2.470   3.208   7.580 -1.8309 -0.6327  1.7444
 5642TIP3   OH238484   0.688   6.112   6.231 -0.3473 -0.4679  0.0590
 5642TIP3    H138485   0.696   6.061   6.150  0.7461  0.6693 -0.5700
 5642TIP3    H238486   0.778   6.137   6.252 -0.6280 -0.6671  1.5966
 5643TIP3   OH238487   3.849   0.647   8.082  0.1188 -0.0421  0.4274
 5643TIP3    H138488   3.943   0.657   8.092  0.0820 -0.1968  0.9650
 5643TIP3    H238489   3.819   0.732   8.047  0.2359  0.6253  1.8774
 5644TIP3   OH238490   6.569   2.304   1.314  0.0023  0.0413  0.4381
 5644TIP3    H138491   6.632   2.361   1.270  1.9141 -1.5178  0.9830
 5644TIP3    H238492   6.503   2.363   1.350 -0.5626  1.5306 -2.7326
 5645TIP3   OH238493   6.115   0.411   7.454 -0.0420 -0.3783 -0.4365
 5645TIP3    H138494   6.128   0.505   7.458 -0.2135 -0.1014 -3.8508
 5645TIP3    H238495   6.143   0.379   7.540 -0.8742  2.8249  1.1669
 5646TIP3   OH238496   2.843   4.612   1.108 -0.0102  0.2968  0.4119
 5646TIP3    H138497   2.795   4.537   1.141  1.9435 -1.5539 -0.7169
 5646TIP3    H238498   2.935   4.584   1.106  0.5820  2.0593 -1.7209
 5647TIP3   OH238499   3.922   5.310   7.118 -0.0213  0.4850  0.2110
 5647TIP3    H138500   3.960   5.222   7.128  0.8899  0.9724  1.3343
 5647TIP3    H238501   3.837   5.295   7.077  0.4927 -0.8441 -0.4399
 5648TIP3   OH238502   0.789   6.252   0.282 -0.2411 -0.5609 -0.0582
 5648TIP3    H138503   0.882   6.237   0.298  0.1197 -1.2853 -2.4039
 5648TIP3    H238504   0.771   6.205   0.200 -2.4028  0.5510 -0.2959
 5649TIP3   OH238505   3.658   5.560   7.229 -0.3452 -0.3810 -0.1048
 5649TIP3    H138506   3.648   5.467   7.250  0.1840 -0.6171 -0.8416
 5649TIP3    H238507   3.715   5.561   7.152 -0.0063  0.5808  0.1444
 5650TIP3   OH238508   2.500   4.382   7.680  0.1437 -0.2003 -0.9655
 5650TIP3    H138509   2.545   4.298   7.693  0.1764  0.1327  1.3089
 5650TIP3    H238510   2.478   4.412   7.768 -0.4378  1.8933 -1.7729
 5651TIP3   OH238511   3.357   1.374   7.227 -0.3828  0.8608  0.5202
 5651TIP3    H138512   3.396   1.399   7.143  0.7045  0.1236  0.7923
 5651TIP3    H238513   3.296   1.304   7.205  1.8598 -1.2482  0.6140
 5652TIP3   OH238514   5.496   4.692   0.626  0.2104 -0.4701  0.2603
 5652TIP3    H138515   5.565   4.652   0.574 -0.0343  0.3522 -0.7419
 5652TIP3    H238516   5.541   4.759   0.678  0.4212 -1.1467  0.9732
 5653TIP3   OH238517   2.358   3.126   0.981  0.0058 -0.0839 -0.0601
 5653TIP3    H138518   2.367   3.222   0.984 -1.0440  0.3479 -4.2176
 5653TIP3    H238519   2.447   3.094   0.977  0.3604  0.9304 -0.8477
 5654TIP3   OH238520   4.340   2.316   0.640 -0.1570 -0.3435 -0.2044
 5654TIP3    H138521   4.369   2.357   0.721  2.0758 -0.9593 -0.6051
 5654TIP3    H238522   4.297   2.387   0.591  0.0201  0.4792  0.7980
 5655TIP3   OH238523   0.904   3.171   3.002 -0.0378  0.0022 -0.3410
 5655TIP3    H138524   0.868   3.101   3.056 -0.2086 -0.0240 -0.4879
 5655TIP3    H238525   0.969   3.128   2.946  1.2858  0.2806  0.9203
 5656TIP3   OH238526   3.707   4.856   7.398 -0.5850 -0.0869  0.0454
 5656TIP3    H138527   3.795   4.841   7.433 -1.2776  0.5579  2.2127
 5656TIP3    H238528   3.690   4.779   7.343  0.4349 -1.3779  1.4627
 5657TIP3   OH238529   3.607   6.026   0.127 -0.2216 -0.2157  0.2136
 5657TIP3    H138530   3.579   5.935   0.136 -1.1270  0.1164  0.8712
 5657TIP3    H238531   3.640   6.032   0.037  0.0699 -1.2423  0.2329
 5658TIP3   OH238532   6.554   1.998   1.312 -0.0238  0.2340  0.2201
 5658TIP3    H138533   6.488   1.946   1.267 -1.1469 -0.1653  2.1905
 5658TIP3    H238534   6.529   2.089   1.296  0.7976  0.1711 -1.6007
 5659TIP3   OH238535   6.887   4.713   1.506  0.2293 -0.1630  0.4042
 5659TIP3    H138536   6.861   4.687   1.418 -0.2524  0.4347  0.3638
 5659TIP3    H238537   6.893   4.631   1.555  1.4812 -0.5997 -0.4328
 5660TIP3   OH238538   1.115   1.497   7.293  0.5099 -0.2170 -0.1673
 5660TIP3    H138539   1.133   1.530   7.205 -0.1082 -1.1288 -0.6605
 5660TIP3    H238540   1.078   1.410   7.278 -3.5747  1.1241  0.7324
 5661TIP3   OH238541   0.071   3.293   1.424  0.3879 -0.0326 -0.2104
 5661TIP3    H138542   0.114   3.335   1.350 -0.8418  2.4868  0.3912
 5661TIP3    H238543   0.125   3.316   1.499 -0.2037  0.3478  0.1058
 5662TIP3   OH238544   4.524   6.408   8.211 -0.1172  0.0334 -0.1556
 5662TIP3    H138545   4.587   6.416   8.282 -1.5316 -1.6374  1.3780
 5662TIP3    H238546   4.527   6.315   8.186 -0.8853  0.2362 -1.0833
 5663TIP3   OH238547   5.555   2.905   8.214  0.6570  0.0361  0.1705
 5663TIP3    H138548   5.645   2.931   8.231  0.3593  0.2300  1.6159
 5663TIP3    H238549   5.509   2.987   8.195  0.6938  0.0001 -0.0650
 5664TIP3   OH238550   1.986   5.234   7.096 -0.1767  0.2747 -0.9225
 5664TIP3    H138551   1.891   5.239   7.099 -0.1971 -0.0033 -1.0753
 5664TIP3    H238552   2.015   5.321   7.069 -0.4046  0.2403 -1.2790
 5665TIP3   OH238553   0.046   3.915   6.953 -0.6224 -0.4671 -0.1363
 5665TIP3    H138554  -0.001   3.987   6.995  0.1951  0.9222 -1.4655
 5665TIP3    H238555   0.029   3.926   6.860  1.8527 -0.1736 -0.6456
 5666TIP3   OH238556   4.761   2.564   7.375 -0.2883  0.1201 -0.2676
 5666TIP3    H138557   4.750   2.608   7.459  1.1245 -1.7753  1.0242
 5666TIP3    H238558   4.673   2.534   7.351 -0.6236  0.1682  0.8578
 5667TIP3   OH238559   0.060   6.101   2.877 -0.1918 -0.4076 -0.2537
 5667TIP3    H138560   0.140   6.097   2.825 -0.8979 -0.6265 -1.3485
 5667TIP3    H238561   0.069   6.180   2.930  0.3201  0.0875 -1.0747
 5668TIP3   OH238562   0.340   0.187   1.612  0.0599  0.3255  0.2244
 5668TIP3    H138563   0.426   0.215   1.643 -0.4384  1.3409  0.7288
 5668TIP3    H238564   0.280   0.254   1.645 -0.9049 -0.2980 -0.2395
 5669TIP3   OH238565   4.011   6.857   1.963 -0.5393 -0.7715  0.1457
 5669TIP3    H138566   3.939   6.862   2.025  0.6414 -0.5422  1.5518
 5669TIP3    H238567   4.045   6.768   1.974  1.8529  0.2977  2.4699
 5670TIP3   OH238568   4.570   4.276   2.471  0.0087 -0.2573  0.5179
 5670TIP3    H138569   4.618   4.198   2.499  1.5150  0.5014  0.2013
 5670TIP3    H238570   4.522   4.304   2.549  1.3772 -0.1601  1.3686
 5671TIP3   OH238571   5.365   1.613   0.884  0.4349 -0.5360  0.4429
 5671TIP3    H138572   5.305   1.686   0.876 -1.0746 -1.5427  1.8555
 5671TIP3    H238573   5.409   1.627   0.968 -0.4347 -1.5848  1.1120
 5672TIP3   OH238574   3.645   1.315   7.830 -0.4705  0.0594  0.3308
 5672TIP3    H138575   3.719   1.265   7.865  0.4347 -0.6115 -2.3549
 5672TIP3    H238576   3.677   1.405   7.824  1.1584 -0.6006 -3.0872
 5673TIP3   OH238577   2.567   0.512   0.488 -0.8549  0.1517 -0.0890
 5673TIP3    H138578   2.501   0.449   0.519 -0.8768  0.0248 -0.3829
 5673TIP3    H238579   2.522   0.561   0.419 -0.4160 -0.4305 -0.7982
 5674TIP3   OH238580   4.358   5.991   2.259 -0.1498  0.0272  0.2052
 5674TIP3    H138581   4.310   5.913   2.287 -0.4996  0.4453  0.7891
 5674TIP3    H238582   4.427   5.957   2.203 -0.5363 -0.6722  0.1354
 5675TIP3   OH238583   5.167   4.940   0.547  0.3224  0.6238  0.1495
 5675TIP3    H138584   5.195   4.984   0.627  0.1902 -0.7946  1.0175
 5675TIP3    H238585   5.244   4.890   0.519  0.3055  0.9528 -0.4949
 5676TIP3   OH238586   5.515   3.413   7.910 -0.0654 -0.4586 -0.4930
 5676TIP3    H138587   5.485   3.409   7.819  0.4562  1.8033 -0.8009
 5676TIP3    H238588   5.610   3.403   7.905 -0.0803 -0.8395 -0.1262
 5677TIP3   OH238589   7.002   1.775   0.863 -0.2672 -0.2881 -0.7257
 5677TIP3    H138590   7.019   1.768   0.957 -0.1044  1.8058 -0.5439
 5677TIP3    H238591   6.907   1.770   0.855 -0.2891 -0.3293 -0.4269
 5678TIP3   OH238592   1.877   5.540   1.601 -1.0904  0.3219  0.0382
 5678TIP3    H138593   1.940   5.484   1.556 -2.0644 -0.8821  0.1472
 5678TIP3    H238594   1.894   5.524   1.694 -0.5551  1.1515  0.0946
 5679TIP3   OH238595   4.341   3.989   1.067 -0.5082  0.1487 -0.0313
 5679TIP3    H138596   4.286   3.935   1.011  0.4876 -0.4386 -0.4593
 5679TIP3    H238597   4.347   4.073   1.022  0.5327 -0.4156 -0.9671
 5680TIP3   OH238598   1.646   5.524   8.343  0.1489  0.1021 -0.3526
 5680TIP3    H138599   1.552   5.530   8.329  0.3973  2.3037 -1.3490
 5680TIP3    H238600   1.685   5.559   8.263  1.7864  0.8898  0.7305
 5681TIP3   OH238601   1.581   2.497   6.245 -0.3613 -0.2961 -0.0803
 5681TIP3    H138602   1.565   2.434   6.315  0.8784  1.6333  2.1150
 5681TIP3    H238603   1.515   2.565   6.258 -1.1475 -0.6774 -1.8654
 5682TIP3   OH238604   3.727   1.244   2.565  0.2411  0.2427  0.1120
 5682TIP3    H138605   3.683   1.224   2.482  3.6318 -0.3864 -1.6808
 5682TIP3    H238606   3.713   1.338   2.577 -1.9345  0.0090 -0.0507
 5683TIP3   OH238607   6.240   4.578   0.423  0.0843 -0.3303 -0.3295
 5683TIP3    H138608   6.156   4.545   0.392 -0.2865  0.8854 -0.7057
 5683TIP3    H238609   6.240   4.560   0.517 -0.9664  0.3749 -0.1781
 5684TIP3   OH238610   3.006   2.224   7.390 -0.0235  0.1083 -0.3173
 5684TIP3    H138611   3.004   2.216   7.294 -1.5828 -1.0437 -0.2160
 5684TIP3    H238612   2.921   2.262   7.412  0.4679  0.7055  0.6178
 5685TIP3   OH238613   0.055   1.088   8.109  0.0329 -0.3331 -0.2236
 5685TIP3    H138614   0.119   1.032   8.152 -0.1339 -0.7596 -0.5191
 5685TIP3    H238615   0.102   1.128   8.037 -0.4885 -2.1857 -1.6908
 5686TIP3   OH238616   1.312   2.302   8.080  0.2380  0.2911  0.6498
 5686TIP3    H138617   1.253   2.376   8.097 -0.3661 -0.0647  0.1423
 5686TIP3    H238618   1.397   2.343   8.062 -0.0059  0.8432  0.7408
 5687TIP3   OH238619   2.100   6.703   7.191 -0.1445  0.2049 -0.1868
 5687TIP3    H138620   2.137   6.622   7.157 -0.5243  1.0567 -2.8521
 5687TIP3    H238621   2.122   6.769   7.125 -1.1631  1.9548  1.1512
 5688TIP3   OH238622   4.314   6.584   7.836 -0.0550  0.2583 -0.3789
 5688TIP3    H138623   4.393   6.537   7.864  0.3310  0.5005 -1.0173
 5688TIP3    H238624   4.294   6.642   7.909  0.5884  0.4665 -0.3570
 5689TIP3   OH238625   5.237   4.536   0.128  0.2875 -0.0056  0.3515
 5689TIP3    H138626   5.283   4.617   0.151 -0.3512  0.6699 -0.6810
 5689TIP3    H238627   5.300   4.486   0.077  1.6224 -1.3931  3.1438
 5690TIP3   OH238628   1.311   5.300   0.503 -0.0284  0.1256 -0.1351
 5690TIP3    H138629   1.308   5.355   0.424  0.1812  0.0467 -0.1971
 5690TIP3    H238630   1.297   5.362   0.575 -0.6987  0.1283 -0.2643
 5691TIP3   OH238631   4.243   4.690   0.460  0.4010  0.0949 -0.2965
 5691TIP3    H138632   4.218   4.616   0.516  0.1138 -0.2146 -0.8239
 5691TIP3    H238633   4.160   4.733   0.440  0.6938  1.4612  1.2128
 5692TIP3   OH238634   3.203   4.279   1.232  0.4957  0.3907 -0.0132
 5692TIP3    H138635   3.113   4.263   1.260 -0.6296 -1.3429 -3.9298
 5692TIP3    H238636   3.246   4.194   1.236  1.4803  0.8781  0.2312
 5693TIP3   OH238637   5.521   1.676   7.310 -0.0216  0.0271 -0.3365
 5693TIP3    H138638   5.497   1.675   7.217  0.6522 -0.2920 -0.5162
 5693TIP3    H238639   5.483   1.757   7.344  0.3027  0.4922 -1.0490
 5694TIP3   OH238640   1.268   6.755   2.191 -0.6155  0.6298  0.1668
 5694TIP3    H138641   1.342   6.702   2.219  0.8870  2.1288 -0.8262
 5694TIP3    H238642   1.193   6.716   2.237  0.7385 -0.9508  1.1713
 5695TIP3   OH238643   5.863   0.955   2.131  0.2821 -0.3069  0.2154
 5695TIP3    H138644   5.799   1.020   2.102 -0.8293 -0.9948  1.0324
 5695TIP3    H238645   5.947   0.989   2.102 -0.5780 -0.1134 -2.2742
 5696TIP3   OH238646   0.584   0.369   0.639  0.2120  0.1970 -0.2527
 5696TIP3    H138647   0.619   0.356   0.551  1.2150 -0.4716  0.2251
 5696TIP3    H238648   0.508   0.425   0.627  2.2463  2.9734 -1.2353
 5697TIP3   OH238649   0.342   5.388   7.167  0.4576  0.0043  0.3313
 5697TIP3    H138650   0.290   5.365   7.090  0.6305 -1.6923  0.6711
 5697TIP3    H238651   0.417   5.329   7.163 -0.0088 -0.7984  2.2893
 5698TIP3   OH238652   6.708   3.349   8.273  0.5864  0.0684 -0.2146
 5698TIP3    H138653   6.730   3.269   8.224  2.9789  2.1689 -2.9738
 5698TIP3    H238654   6.615   3.364   8.255  0.0500 -2.1068  0.4833
 5699TIP3   OH238655   5.431   5.565   7.239 -0.4305 -0.0289 -1.1504
 5699TIP3    H138656   5.474   5.648   7.261 -0.3445 -0.5589  0.9734
 5699TIP3    H238657   5.476   5.534   7.161  2.7307 -0.2395  0.5667
 5700TIP3   OH238658   0.070   2.493   0.199 -0.0009  0.3993 -0.3479
 5700TIP3    H138659   0.136   2.551   0.161  1.2544 -0.0960  0.9915
 5700TIP3    H238660   0.075   2.509   0.293  0.7530 -2.1832  0.1402
 5701TIP3   OH238661   1.140   1.471   0.442  0.0905 -0.0632 -0.2180
 5701TIP3    H138662   1.159   1.404   0.376 -2.2557 -1.9328  0.8593
 5701TIP3    H238663   1.113   1.547   0.391 -1.7554 -1.4822 -1.5180
 5702TIP3   OH238664   2.154   6.182   0.588 -0.6592 -0.0320  0.5353
 5702TIP3    H138665   2.194   6.269   0.590 -0.6999  0.0047 -0.0586
 5702TIP3    H238666   2.066   6.196   0.625 -2.4948  1.1895 -3.7001
 5703TIP3   OH238667   4.360   6.746   1.714 -0.8046 -0.5830 -0.1061
 5703TIP3    H138668   4.342   6.768   1.805 -1.1788  1.7935 -0.6865
 5703TIP3    H238669   4.404   6.661   1.718 -0.9674 -0.6189  2.2555
 5704TIP3   OH238670   6.622   5.579   2.112  0.2742  0.1204 -0.0813
 5704TIP3    H138671   6.658   5.592   2.024 -1.2279  0.7615 -0.6393
 5704TIP3    H238672   6.661   5.497   2.142  2.3420  0.8625 -0.5208
 5705TIP3   OH238673   6.420   6.934   1.936  0.7838 -0.3308 -0.3350
 5705TIP3    H138674   6.347   6.916   1.995  1.1051  0.5883  0.3554
 5705TIP3    H238675   6.493   6.956   1.993  1.8170 -1.9055 -0.9936
 5706TIP3   OH238676   6.090   3.546   2.818 -0.2793  0.1289 -0.2843
 5706TIP3    H138677   6.105   3.455   2.791  0.6604  0.4508 -0.9203
 5706TIP3    H238678   6.125   3.598   2.746  0.8443  1.0141  0.8407
 5707TIP3   OH238679   2.897   0.644   8.087  0.6536  0.2375  0.0048
 5707TIP3    H138680   2.857   0.722   8.126 -1.4820 -0.4126 -0.8012
 5707TIP3    H238681   2.914   0.669   7.996  0.8746  0.0803  0.0029
 5708TIP3   OH238682   2.245   5.826   7.078 -0.3060 -0.0234 -0.0777
 5708TIP3    H138683   2.328   5.799   7.116  0.7040  3.1991  0.3308
 5708TIP3    H238684   2.253   5.806   6.985 -0.3698 -2.4565  0.3712
 5709TIP3   OH238685   3.826   5.007   1.315  0.1303  0.1764  0.0718
 5709TIP3    H138686   3.840   5.044   1.227  0.7264  0.2095  0.1756
 5709TIP3    H238687   3.843   5.080   1.374 -0.4204  0.1946  0.2174
 5710TIP3   OH238688   6.296   3.570   7.686  0.1455  0.6281  0.2141
 5710TIP3    H138689   6.315   3.621   7.607 -0.2662  0.7889  0.2168
 5710TIP3    H238690   6.268   3.485   7.653  2.3086 -0.1465  0.2287
 5711TIP3   OH238691   6.664   6.925   0.856  0.2203 -0.6595 -0.2021
 5711TIP3    H138692   6.718   6.901   0.780  0.1772  2.6635 -1.4587
 5711TIP3    H238693   6.727   6.958   0.920 -0.0102  1.1782 -0.8319
 5712TIP3   OH238694   2.800   1.587   1.848 -0.0452  0.1640 -0.1018
 5712TIP3    H138695   2.727   1.605   1.789  0.9273  1.6402 -0.8960
 5712TIP3    H238696   2.758   1.572   1.933 -1.2578  1.4376 -0.4328
 5713TIP3   OH238697   3.224   2.934   8.205  0.2321 -0.2022  0.1246
 5713TIP3    H138698   3.285   3.001   8.237  1.0016 -0.4442 -0.8213
 5713TIP3    H238699   3.212   2.954   8.113 -0.0855 -0.9573 -0.0035
 5714TIP3   OH238700   4.702   3.070   7.518  0.0414  0.3005  0.4213
 5714TIP3    H138701   4.616   3.031   7.535  0.3041 -0.8111 -0.6455
 5714TIP3    H238702   4.740   3.015   7.450  2.2345 -0.1408  1.8947
 5715TIP3   OH238703   3.961   1.647   0.184 -0.6761 -0.1787  0.3063
 5715TIP3    H138704   4.028   1.693   0.134 -0.2466 -1.1431 -0.0189
 5715TIP3    H238705   4.009   1.598   0.251 -1.1489  0.0478  0.8275
 5716TIP3   OH238706   0.396   1.493   0.676  0.1817  0.0537 -0.0391
 5716TIP3    H138707   0.344   1.444   0.612  0.4935 -0.3765  0.0410
 5716TIP3    H238708   0.337   1.563   0.705 -1.2252 -1.8075  1.8239
 5717TIP3   OH238709   4.633   4.289   2.207  0.5289  0.1551  0.4235
 5717TIP3    H138710   4.612   4.277   2.300  1.0043  0.9023  0.6292
 5717TIP3    H238711   4.663   4.379   2.200 -0.2528  0.3572 -0.6047
 5718TIP3   OH238712   1.271   6.357   6.506  0.3529 -0.2033  0.0606
 5718TIP3    H138713   1.247   6.424   6.442  1.5243 -0.2318 -0.4388
 5718TIP3    H238714   1.235   6.276   6.471 -0.2941  0.0191  0.2042
 5719TIP3   OH238715   6.721   3.843   1.145  0.4926  0.1779  0.3577
 5719TIP3    H138716   6.778   3.920   1.142  0.4371  0.2208  0.3796
 5719TIP3    H238717   6.777   3.770   1.120  0.0874  0.4816 -1.6382
 5720TIP3   OH238718   6.493   0.177   1.843  0.3878  0.1984  0.2676
 5720TIP3    H138719   6.468   0.086   1.856  0.5610  0.1724  0.4239
 5720TIP3    H238720   6.472   0.195   1.751  0.9001 -0.1762  0.0716
 5721TIP3   OH238721   2.113   5.017   7.426  0.2001  0.5212  0.1247
 5721TIP3    H138722   2.151   5.046   7.343  0.0425  1.6225  0.4291
 5721TIP3    H238723   2.055   5.088   7.453  1.8319  1.1406  2.2314
 5722TIP3   OH238724   4.598   1.294   7.345  0.3064 -0.5396  0.1844
 5722TIP3    H138725   4.635   1.322   7.261  0.0242 -0.8687 -0.0554
 5722TIP3    H238726   4.546   1.216   7.323 -0.5090 -0.0980  0.5130
 5723TIP3   OH238727   4.711   6.929   7.370  0.2841 -0.3710  0.0350
 5723TIP3    H138728   4.664   6.852   7.338  0.8504 -0.7750  0.1588
 5723TIP3    H238729   4.679   7.001   7.316  0.4214 -0.8527 -0.6992
 5724TIP3   OH238730   3.046   5.232   6.864  0.5482  0.7761  0.2445
 5724TIP3    H138731   2.980   5.298   6.886  0.8542  1.1913 -0.0560
 5724TIP3    H238732   3.129   5.278   6.876  0.7301  1.1010 -1.9650
 5725TIP3   OH238733   4.196   0.215   2.450  0.5209  0.5309  1.2669
 5725TIP3    H138734   4.153   0.259   2.377  0.9998  0.5596  0.9918
 5725TIP3    H238735   4.275   0.267   2.465  0.1198  0.8769  2.2113
 5726TIP3   OH238736   0.287   1.101   2.606 -0.4655  0.3847 -0.8419
 5726TIP3    H138737   0.254   1.149   2.530 -0.2097 -2.6318 -3.0809
 5726TIP3    H238738   0.215   1.100   2.668 -0.8786  2.5025 -1.2190
 5727TIP3   OH238739   6.215   5.850   1.612 -1.4931 -0.2141 -0.0596
 5727TIP3    H138740   6.136   5.858   1.666 -0.5455  0.8659  1.2323
 5727TIP3    H238741   6.255   5.768   1.641 -1.2276  0.1312  0.5653
 5728TIP3   OH238742   1.058   1.471   0.159 -0.0881 -0.5092 -0.0874
 5728TIP3    H138743   1.037   1.447   0.069  1.8270 -0.4512 -0.5895
 5728TIP3    H238744   1.090   1.561   0.154  0.4586 -0.6574  0.5736
 5729TIP3   OH238745   5.791   0.298   7.129 -0.1992  0.1743 -0.0473
 5729TIP3    H138746   5.700   0.307   7.100 -0.6195  1.0674  1.4336
 5729TIP3    H238747   5.826   0.227   7.075 -1.4087  0.5878 -1.4729
 5730TIP3   OH238748   5.322   4.503   2.340 -0.6173  0.9251 -0.2550
 5730TIP3    H138749   5.258   4.560   2.298 -1.0846  1.9850  1.7877
 5730TIP3    H238750   5.271   4.452   2.403  0.4188  1.2545  0.8812
 5731TIP3   OH238751   3.727   4.971   6.777  0.4433  0.6737 -0.5796
 5731TIP3    H138752   3.646   4.929   6.808  1.5679 -1.3877 -0.2654
 5731TIP3    H238753   3.697   5.046   6.727 -1.6588  0.2701 -0.0371
 5732TIP3   OH238754   6.738   0.167   7.533 -0.0304  0.7396 -0.1283
 5732TIP3    H138755   6.734   0.251   7.487 -0.3615  1.6960  1.5652
 5732TIP3    H238756   6.806   0.118   7.487 -2.1893  0.4911 -3.3563
 5733TIP3   OH238757   0.336   0.576   2.023  0.4530 -0.0549  0.0012
 5733TIP3    H138758   0.372   0.493   1.993 -0.3833 -0.3918 -0.0966
 5733TIP3    H238759   0.322   0.627   1.943 -1.3930 -0.7971 -0.1896
 5734TIP3   OH238760   1.286   5.718   6.448  0.1724  0.0895 -0.7777
 5734TIP3    H138761   1.333   5.635   6.455 -0.4775 -0.1901  0.8168
 5734TIP3    H238762   1.315   5.756   6.365  0.5077 -1.7067 -1.5220
 5735TIP3   OH238763   1.372   2.550   6.991  0.4184  0.1158 -0.2847
 5735TIP3    H138764   1.328   2.621   7.039 -0.2368  0.2165 -1.0113
 5735TIP3    H238765   1.367   2.475   7.049 -1.0281  0.0381 -0.4714
 5736TIP3   OH238766   3.655   2.800   6.407 -0.1960  0.0084 -0.2432
 5736TIP3    H138767   3.591   2.729   6.413  0.1551 -0.5090 -2.0656
 5736TIP3    H238768   3.609   2.877   6.440 -0.9268 -0.8396  0.7817
 5737TIP3   OH238769   5.599   3.389   7.523 -0.1069  0.3970 -0.1128
 5737TIP3    H138770   5.654   3.465   7.543  0.2940  0.0695  0.0499
 5737TIP3    H238771   5.632   3.358   7.438  0.5562 -0.3176  0.3849
 5738TIP3   OH238772   2.405   6.650   1.743  0.0479 -0.4867  0.2581
 5738TIP3    H138773   2.364   6.646   1.829 -1.2654 -2.4990 -0.3859
 5738TIP3    H238774   2.405   6.559   1.712  2.0878 -0.0777 -1.1584
 5739TIP3   OH238775   4.827   0.137   8.069  0.2383 -0.2696 -0.2586
 5739TIP3    H138776   4.879   0.096   7.999  0.4863  2.1212 -1.5898
 5739TIP3    H238777   4.829   0.230   8.048 -1.5084  0.2948  1.7836
 5740TIP3   OH238778   3.792   5.655   0.491 -0.2192 -0.1920  0.1018
 5740TIP3    H138779   3.742   5.622   0.415  0.5851  0.6844 -0.8377
 5740TIP3    H238780   3.746   5.735   0.516 -1.6639 -1.4977  1.8398
 5741TIP3   OH238781   6.192   2.280   7.686  0.3413  0.3638 -0.4764
 5741TIP3    H138782   6.236   2.197   7.674 -1.2169 -0.3638 -1.5521
 5741TIP3    H238783   6.261   2.342   7.710  1.5889 -1.1196 -0.1481
 5742TIP3   OH238784   3.400   6.002   1.136  0.3759  0.5940 -0.0195
 5742TIP3    H138785   3.348   6.055   1.196  0.3281  1.5103 -0.8445
 5742TIP3    H238786   3.451   6.066   1.085  1.2894 -0.2192 -0.1531
 5743TIP3   OH238787   2.194   5.903   0.087 -0.3831 -0.0762  0.1888
 5743TIP3    H138788   2.150   5.962   0.025 -1.1707  2.6034  3.0449
 5743TIP3    H238789   2.149   5.819   0.075 -2.2550  1.0204 -1.0976
 5744TIP3   OH238790   6.643   6.510   8.256  0.1483 -0.0188 -0.2290
 5744TIP3    H138791   6.553   6.538   8.238 -0.8143 -1.5634  1.7270
 5744TIP3    H238792   6.689   6.520   8.172 -1.4428  2.1144 -0.9500
 5745TIP3   OH238793   4.944   0.938   6.611 -0.0914 -0.0302  0.7309
 5745TIP3    H138794   4.957   0.856   6.564 -3.1628  0.7283 -1.8300
 5745TIP3    H238795   5.020   0.991   6.588  0.8202 -1.3636  0.5718
 5746TIP3   OH238796   0.059   6.659   1.270  0.1345 -0.1176 -0.1216
 5746TIP3    H138797   0.002   6.597   1.224  1.3010 -0.5113 -1.0888
 5746TIP3    H238798   0.109   6.701   1.201  1.9998 -0.7815  0.7664
 5747TIP3   OH238799   1.224   3.778   0.858  0.0076  0.7389  0.0338
 5747TIP3    H138800   1.252   3.703   0.806  0.5639 -0.3304  1.7812
 5747TIP3    H238801   1.271   3.853   0.822 -1.2715  0.4882 -2.3589
 5748TIP3   OH238802   0.399   0.828   8.352 -0.0265  1.0689 -0.5330
 5748TIP3    H138803   0.368   0.770   8.282 -0.9407  0.5929  0.2565
 5748TIP3    H238804   0.493   0.810   8.357  0.0217  0.9711 -1.5047
 5749TIP3   OH238805   1.164   0.278   1.169  0.3889  0.3582 -0.2161
 5749TIP3    H138806   1.083   0.240   1.136  0.6625 -0.1234 -0.3417
 5749TIP3    H238807   1.223   0.204   1.179  0.4344  0.5347  1.0160
 5750TIP3   OH238808   6.494   4.131   0.928 -0.1046 -0.5227  0.4106
 5750TIP3    H138809   6.439   4.089   0.994  0.7278  1.3219  2.4046
 5750TIP3    H238810   6.440   4.203   0.895 -0.3979 -1.2463 -0.7437
 5751TIP3   OH238811   5.492   3.098   2.630  0.1665  0.2235  0.0918
 5751TIP3    H138812   5.501   3.012   2.589 -3.8704 -0.5303  0.3372
 5751TIP3    H238813   5.412   3.134   2.590  0.0938  2.5619  2.1500
 5752TIP3   OH238814   6.508   0.137   0.277 -0.4769 -0.4391  0.0913
 5752TIP3    H138815   6.509   0.232   0.286 -1.2628 -0.1921 -1.9935
 5752TIP3    H238816   6.475   0.106   0.361  2.3433  0.9090  1.8611
 5753TIP3   OH238817   6.694   6.104   7.062  0.2260  0.8162  0.3995
 5753TIP3    H138818   6.773   6.061   7.095 -0.2682 -0.4144  0.0254
 5753TIP3    H238819   6.639   6.032   7.031  0.8147  1.8572 -3.5406
 5754TIP3   OH238820   4.808   4.228   0.442 -0.1137  0.1602 -0.6653
 5754TIP3    H138821   4.797   4.321   0.420 -1.3403  0.3175  0.4694
 5754TIP3    H238822   4.896   4.207   0.411  0.5818  1.9697 -0.0864
 5755TIP3   OH238823   3.154   1.448   7.613 -0.1638 -0.4156  0.0366
 5755TIP3    H138824   3.248   1.432   7.605 -0.5775 -2.2367 -1.9784
 5755TIP3    H238825   3.132   1.417   7.701  1.2343  1.0176  0.9531
 5756TIP3   OH238826   1.879   1.689   1.940  0.0937 -0.3417  0.1043
 5756TIP3    H138827   1.823   1.616   1.912  0.4371 -0.3875 -0.4937
 5756TIP3    H238828   1.818   1.761   1.957 -0.1048  0.0065 -1.7661
 5757TIP3   OH238829   2.811   2.218   1.158 -0.2786 -0.0366  0.6414
 5757TIP3    H138830   2.849   2.143   1.203 -1.0680  0.2466  1.8343
 5757TIP3    H238831   2.811   2.288   1.224  1.6093  1.4499 -0.7865
 5758TIP3   OH238832   4.295   3.270   8.187  0.7844 -0.3662 -0.0849
 5758TIP3    H138833   4.349   3.328   8.132  0.6868 -0.0125  0.1853
 5758TIP3    H238834   4.230   3.329   8.225  1.8293 -0.2945  1.6864
 5759TIP3   OH238835   2.726   5.645   6.999  0.3776  0.0399  0.9326
 5759TIP3    H138836   2.669   5.658   7.075 -0.4407 -1.1243  0.5406
 5759TIP3    H238837   2.752   5.734   6.973 -1.0621  0.5833  1.2662
 5760TIP3   OH238838   4.379   2.676   1.948  0.3398 -0.2849  0.1494
 5760TIP3    H138839   4.446   2.692   2.015  2.5649  0.1735 -2.0420
 5760TIP3    H238840   4.369   2.761   1.905  1.1986 -1.1951 -1.9745
 5761TIP3   OH238841   6.687   4.441   1.877  0.4464 -0.2137 -0.1514
 5761TIP3    H138842   6.661   4.526   1.913 -0.5721  0.0107 -1.3514
 5761TIP3    H238843   6.611   4.384   1.893  0.8126 -0.6824 -0.0710
 5762TIP3   OH238844   0.943   5.589   0.413 -0.3869  0.4094  0.2510
 5762TIP3    H138845   0.987   5.518   0.366 -0.6132 -0.0611  0.7271
 5762TIP3    H238846   0.863   5.548   0.448  1.1729 -0.1697  3.6337
 5763TIP3   OH238847   4.615   3.386   7.449 -0.1910 -0.0636  0.2913
 5763TIP3    H138848   4.612   3.291   7.439  0.6351 -0.2909  1.9134
 5763TIP3    H238849   4.702   3.404   7.484 -0.6450  1.1884  0.8383
 5764TIP3   OH238850   6.220   4.624   1.445 -0.2110 -0.1696  0.1807
 5764TIP3    H138851   6.163   4.547   1.449 -0.1553 -0.1428  2.4771
 5764TIP3    H238852   6.296   4.601   1.498  0.0331  1.2787  0.4916
 5765TIP3   OH238853   4.696   6.786   1.842  0.6607  0.2774  0.0895
 5765TIP3    H138854   4.636   6.711   1.836  0.7413  0.3285 -2.5449
 5765TIP3    H238855   4.749   6.768   1.920 -0.8917 -1.1693  0.8964
 5766TIP3   OH238856   1.144   2.957   7.347 -0.1138 -0.3079 -0.2439
 5766TIP3    H138857   1.137   2.895   7.419 -0.8140 -0.3389 -0.3288
 5766TIP3    H238858   1.237   2.977   7.341  0.0879 -1.1428 -0.0394
 5767TIP3   OH238859   4.518   0.717   1.059  0.7126  0.0994  0.3464
 5767TIP3    H138860   4.601   0.687   1.023  1.3416  0.5519  1.3965
 5767TIP3    H238861   4.520   0.689   1.150  0.1848  1.0771  0.6697
 5768TIP3   OH238862   4.920   6.059   7.233  0.3108 -0.1329  0.5229
 5768TIP3    H138863   4.880   6.145   7.220 -0.1520 -0.2534  1.1211
 5768TIP3    H238864   4.923   6.021   7.146  1.0123  0.6974  0.1626
 5769TIP3   OH238865   4.235   1.236   1.325 -0.2838  0.0135 -0.5665
 5769TIP3    H138866   4.317   1.268   1.286  0.1831  2.1346  1.9277
 5769TIP3    H238867   4.166   1.279   1.274  0.2685  1.2163 -0.3376
 5770TIP3   OH238868   3.695   6.335   6.506  0.0609  0.3740 -0.1487
 5770TIP3    H138869   3.648   6.400   6.454  0.1860  1.9502  1.5938
 5770TIP3    H238870   3.787   6.362   6.500  0.2775 -0.3712 -0.3597
 5771TIP3   OH238871   1.057   4.385   7.986 -0.0615 -0.0383 -0.1303
 5771TIP3    H138872   1.094   4.385   7.897  0.6355 -2.3488  0.0943
 5771TIP3    H238873   1.132   4.397   8.043 -0.3416  0.1243  0.2060
 5772TIP3   OH238874   3.764   3.359   0.879  0.2429  0.3775  0.0480
 5772TIP3    H138875   3.850   3.323   0.858  0.3080  0.1911  0.6076
 5772TIP3    H238876   3.779   3.411   0.958 -0.0225  0.9174 -0.2540
 5773TIP3   OH238877   3.019   6.267   6.351  0.1675 -0.2615 -0.6193
 5773TIP3    H138878   3.058   6.236   6.433 -1.5929 -2.2792 -0.4529
 5773TIP3    H238879   3.024   6.192   6.292 -1.8248 -0.0356 -1.1456
 5774TIP3   OH238880   3.074   5.221   8.331 -0.1393  0.3275 -0.1970
 5774TIP3    H138881   3.107   5.141   8.292 -0.2326 -1.3560  2.8365
 5774TIP3    H238882   2.991   5.238   8.286 -0.7496 -2.0502 -0.1047
 5775TIP3   OH238883   0.412   6.352   6.766 -0.1870 -0.7087 -0.5804
 5775TIP3    H138884   0.370   6.299   6.833  0.5535  0.4320  0.8662
 5775TIP3    H238885   0.350   6.422   6.747  0.1404 -0.2777 -0.0848
 5776TIP3   OH238886   1.435   4.210   2.287 -0.2835  0.8611  0.0929
 5776TIP3    H138887   1.517   4.195   2.334 -0.5279  0.2963  0.3445
 5776TIP3    H238888   1.454   4.181   2.197 -0.8328 -1.3950  0.6288
 5777TIP3   OH238889   0.953   2.798   1.294  0.4987  0.3271  0.0755
 5777TIP3    H138890   0.993   2.712   1.281  1.3531  0.6357  0.5680
 5777TIP3    H238891   1.026   2.855   1.317  0.1999  1.5571 -1.8272
 5778TIP3   OH238892   4.518   1.011   0.993  0.3793 -0.0257 -0.1857
 5778TIP3    H138893   4.489   1.015   0.901  2.9267 -0.3759 -1.0807
 5778TIP3    H238894   4.494   0.923   1.021  0.0851 -0.1168 -0.6976
 5779TIP3   OH238895   6.905   4.038   1.151  0.1521  0.3554  0.2160
 5779TIP3    H138896   6.923   4.075   1.237 -0.2209  1.4579 -0.1554
 5779TIP3    H238897   6.991   4.017   1.115  0.2822 -0.5038  1.0166
 5780TIP3   OH238898   4.337   2.339   2.203  0.9365 -0.1279  0.2612
 5780TIP3    H138899   4.300   2.297   2.280  1.1520  0.2330  0.5675
 5780TIP3    H238900   4.320   2.432   2.216  1.3083 -0.0286  0.0626
 5781TIP3   OH238901   5.853   3.118   1.465  0.2583  0.0801 -0.4972
 5781TIP3    H138902   5.932   3.065   1.459 -0.0420 -0.3896 -0.3374
 5781TIP3    H238903   5.797   3.087   1.393 -0.1774 -0.2601 -0.0183
 5782TIP3   OH238904   0.051   5.519   0.264 -0.6569  0.0828 -0.4101
 5782TIP3    H138905   0.000   5.549   0.339 -1.5896  0.8145 -1.3122
 5782TIP3    H238906  -0.011   5.517   0.192  0.1440 -0.9330 -1.1080
 5783TIP3   OH238907   6.196   0.947   7.563  0.1778  0.7635 -0.2277
 5783TIP3    H138908   6.222   0.937   7.655  0.3723  1.2321 -0.2267
 5783TIP3    H238909   6.270   0.992   7.523  0.7428 -0.7550 -0.9518
 5784TIP3   OH238910   1.910   3.053   1.258  0.3268 -0.9295 -0.2947
 5784TIP3    H138911   1.854   3.084   1.187 -0.9139  1.2183  1.5191
 5784TIP3    H238912   1.999   3.069   1.228  0.0597 -3.1554 -2.6655
 5785TIP3   OH238913   6.816   0.672   1.521  0.5522 -0.0709  0.9570
 5785TIP3    H138914   6.828   0.747   1.578  0.2199 -0.8879  2.1329
 5785TIP3    H238915   6.727   0.641   1.540  0.5994 -0.6310  0.3225
 5786TIP3   OH238916   2.806   2.475   0.703  0.6834 -0.4283  0.1516
 5786TIP3    H138917   2.897   2.467   0.731  0.8251 -0.5693 -0.3299
 5786TIP3    H238918   2.757   2.419   0.763  1.0570 -1.2148 -0.2551
 5787TIP3   OH238919   1.951   2.974   1.525 -0.6436  0.2377  0.7014
 5787TIP3    H138920   1.953   2.975   1.429  0.7981 -1.3903  0.6608
 5787TIP3    H238921   1.901   2.896   1.547  0.2993 -0.2384  1.2276
 5788TIP3   OH238922   6.612   1.607   7.744 -0.1191  0.7043  0.4618
 5788TIP3    H138923   6.682   1.591   7.807  0.6686  1.6384 -0.1478
 5788TIP3    H238924   6.629   1.545   7.673  0.7685  1.6688 -0.1979
 5789TIP3   OH238925   6.018   6.769   1.466  0.1263  0.0708  0.7765
 5789TIP3    H138926   6.101   6.721   1.465 -0.3223 -0.7605 -1.2799
 5789TIP3    H238927   6.020   6.823   1.387 -1.6137 -0.5978  0.2272
 5790TIP3   OH238928   1.390   2.862   7.147 -0.2717  0.2553 -0.3008
 5790TIP3    H138929   1.469   2.809   7.158 -0.0604  0.6028 -0.0789
 5790TIP3    H238930   1.320   2.810   7.185 -0.1427 -0.0457 -0.4750
 5791TIP3   OH238931   4.267   5.492   0.793 -0.1629 -0.5649 -0.4901
 5791TIP3    H138932   4.292   5.408   0.832 -1.3837 -1.0155 -0.6183
 5791TIP3    H238933   4.171   5.490   0.791 -0.1836 -0.2517 -2.8255
 5792TIP3   OH238934   4.406   0.415   2.096  0.1764  0.5393  0.3865
 5792TIP3    H138935   4.449   0.377   2.172 -0.9344  0.1516  0.8555
 5792TIP3    H238936   4.312   0.399   2.111 -0.1879  1.8877 -0.2800
 5793TIP3   OH238937   6.224   6.233   2.136 -1.0144 -0.7591  0.0839
 5793TIP3    H138938   6.238   6.303   2.201  0.3846 -1.5165  0.6410
 5793TIP3    H238939   6.156   6.268   2.078 -3.1589 -0.4633  2.5731
 5794TIP3   OH238940   3.863   6.275   7.722 -0.6394 -0.0214  1.1672
 5794TIP3    H138941   3.837   6.230   7.802 -0.9250  0.2479  1.2338
 5794TIP3    H238942   3.782   6.318   7.693 -0.3323  0.6183  1.2280
 5795TIP3   OH238943   4.420   2.749   2.452 -0.0647 -0.4182  0.0693
 5795TIP3    H138944   4.454   2.828   2.494  0.1368 -0.2729 -0.3617
 5795TIP3    H238945   4.389   2.695   2.525 -1.2215  0.5256  0.3266
 5796TIP3   OH238946   3.586   5.751   8.060  0.2600  0.0822  0.7376
 5796TIP3    H138947   3.491   5.753   8.044  0.3718  2.5328  0.1215
 5796TIP3    H238948   3.595   5.694   8.137 -1.9248  1.2962  2.0042
 5797TIP3   OH238949   4.906   6.960   7.881  0.0940 -0.2610 -0.0057
 5797TIP3    H138950   4.838   6.917   7.933 -2.0176  1.4935 -1.0922
 5797TIP3    H238951   4.868   6.966   7.793  1.5737  1.0180 -0.6041
 5798TIP3   OH238952   6.668   4.053   1.897  0.0109  0.6938 -0.8024
 5798TIP3    H138953   6.595   3.992   1.880  0.2842  0.1865 -0.1883
 5798TIP3    H238954   6.654   4.124   1.834 -1.5698  1.0949 -0.0547
 5799TIP3   OH238955   3.744   5.746   1.472 -0.2215  0.2176 -0.3639
 5799TIP3    H138956   3.689   5.815   1.434  1.2593  0.0914 -2.9122
 5799TIP3    H238957   3.681   5.688   1.515 -1.4554  3.8352  3.3812
 5800TIP3   OH238958   1.588   6.465   6.320  0.7485  0.1087 -0.1569
 5800TIP3    H138959   1.627   6.387   6.281 -0.5012 -1.5457  1.7419
 5800TIP3    H238960   1.575   6.443   6.412 -1.4218  1.8394  0.0535
 5801TIP3   OH238961   4.628   4.842   8.316 -0.1350  0.1350 -0.1162
 5801TIP3    H138962   4.664   4.894   8.243  0.8873 -1.4273 -0.7728
 5801TIP3    H238963   4.682   4.763   8.318 -0.2734  0.0392  2.2341
 5802TIP3   OH238964   4.641   6.736   1.379  0.2160 -0.0527  0.0446
 5802TIP3    H138965   4.700   6.669   1.345  0.0087 -1.0556  1.5873
 5802TIP3    H238966   4.675   6.756   1.466  1.1515  2.9524 -0.8693
 5803TIP3   OH238967   6.721   0.374   1.705 -0.4117  0.0760 -0.3300
 5803TIP3    H138968   6.659   0.442   1.676 -0.0280  0.5712 -0.0005
 5803TIP3    H238969   6.666   0.308   1.746 -0.6858  0.7345  0.3797
 5804TIP3   OH238970   0.768   3.667   1.610 -0.2095 -0.3091  0.3505
 5804TIP3    H138971   0.840   3.711   1.656  0.4906 -2.2141  1.1767
 5804TIP3    H238972   0.728   3.611   1.676 -1.4320 -0.4799 -0.5180
 5805TIP3   OH238973   2.214   1.759   8.007 -0.0308  0.6977  0.8667
 5805TIP3    H138974   2.175   1.781   8.091  2.9998  5.0408  1.4352
 5805TIP3    H238975   2.195   1.834   7.951 -0.5674 -1.3589 -1.9197
 5806TIP3   OH238976   3.961   0.416   1.809  0.3559  0.0615  0.2264
 5806TIP3    H138977   3.919   0.413   1.723 -0.9167  0.9123  0.7852
 5806TIP3    H238978   3.980   0.325   1.829 -2.0164 -0.4656  0.2920
 5807TIP3   OH238979   4.139   4.109   8.049 -0.7473 -0.4066  0.0273
 5807TIP3    H138980   4.190   4.173   8.098 -0.8840  0.2327 -0.6455
 5807TIP3    H238981   4.184   4.026   8.063  1.8853  0.4591 -2.3734
 5808TIP3   OH238982   0.991   3.590   6.821  0.1667 -0.1670  0.1177
 5808TIP3    H138983   1.075   3.549   6.805 -0.2400 -0.8086 -0.4335
 5808TIP3    H238984   0.932   3.550   6.757 -0.4911  0.4780  0.3019
 5809TIP3   OH238985   1.035   6.759   7.687  0.2037 -0.6623 -0.7141
 5809TIP3    H138986   1.098   6.789   7.622 -0.1375 -0.9199 -1.1768
 5809TIP3    H238987   1.025   6.665   7.669 -1.8713 -0.2611 -2.0590
 5810TIP3   OH238988   0.727   4.491   7.200 -0.3325  0.2590  0.4587
 5810TIP3    H138989   0.716   4.542   7.280  0.5632  0.1499  0.6525
 5810TIP3    H238990   0.821   4.477   7.193 -0.5282 -1.0726  0.2309
 5811TIP3   OH238991   3.981   4.717   2.238  0.2902  0.5750 -0.3533
 5811TIP3    H138992   3.939   4.642   2.196  0.2269  0.2838  0.2206
 5811TIP3    H238993   4.056   4.737   2.183 -0.5850  1.1035 -1.4061
 5812TIP3   OH238994   6.773   3.609   8.169 -0.2843  0.0246 -0.6521
 5812TIP3    H138995   6.691   3.640   8.207  0.2598 -1.1534  1.6724
 5812TIP3    H238996   6.782   3.519   8.201  2.4023  0.4494  0.0223
 5813TIP3   OH238997   2.955   6.610   6.822 -0.2384 -0.0933 -0.7667
 5813TIP3    H138998   3.044   6.640   6.804  0.0648 -0.3193  0.3113
 5813TIP3    H238999   2.920   6.587   6.736 -0.3990  3.0418 -1.6477
 5814TIP3   OH239000   6.697   2.738   7.523  0.4710  0.2633 -0.1939
 5814TIP3    H139001   6.664   2.783   7.600 -0.7819 -2.7657  1.2274
 5814TIP3    H239002   6.620   2.727   7.467  0.5516 -0.6939 -0.1448
 5815TIP3   OH239003   4.190   3.766   2.052  0.0992  0.3345  0.7800
 5815TIP3    H139004   4.172   3.795   2.141 -1.5198  0.7475  0.3414
 5815TIP3    H239005   4.182   3.845   1.999 -2.2858 -0.4481 -0.1471
 5816TIP3   OH239006   6.459   6.700   7.938  0.6169  0.7172  0.0785
 5816TIP3    H139007   6.410   6.701   8.020 -0.1454  0.3408 -0.3649
 5816TIP3    H239008   6.435   6.783   7.895 -2.1615 -0.7964 -1.5709
 5817TIP3   OH239009   6.055   6.767   7.872 -0.7944  0.7133 -0.5060
 5817TIP3    H139010   5.960   6.752   7.875 -1.1343  2.2042 -2.2652
 5817TIP3    H239011   6.085   6.715   7.797 -0.4120  1.1536 -0.6616
 5818TIP3   OH239012   5.560   2.759   7.707  0.0507 -0.4336 -0.1612
 5818TIP3    H139013   5.634   2.699   7.702 -0.2217 -0.9008  1.0349
 5818TIP3    H239014   5.586   2.823   7.773  0.0484  0.3754 -0.9255
 5819TIP3   OH239015   4.361   5.259   0.932  0.2820  0.4108  1.0483
 5819TIP3    H139016   4.303   5.206   0.987  1.3770 -0.8649  1.0188
 5819TIP3    H239017   4.362   5.214   0.847  1.4839  0.2861  1.1144
 5820TIP3   OH239018   5.224   0.686   1.533 -0.1388  0.0150 -0.4635
 5820TIP3    H139019   5.247   0.778   1.545  1.4310 -0.6590  2.7918
 5820TIP3    H239020   5.136   0.679   1.570  0.3883 -0.0401  0.8297
 5821TIP3   OH239021   3.723   5.143   0.877 -0.1747  0.0092 -0.1163
 5821TIP3    H139022   3.693   5.083   0.809  1.1665 -0.0899 -0.6546
 5821TIP3    H239023   3.704   5.230   0.843 -2.7135 -0.0396  0.9413
 5822TIP3   OH239024   6.956   6.741   0.875 -0.5681 -0.7749  0.2831
 5822TIP3    H139025   6.871   6.712   0.843 -1.2722 -1.4752  2.6339
 5822TIP3    H239026   6.951   6.837   0.873 -0.2126 -0.7131 -2.4242
 5823TIP3   OH239027   5.835   5.204   2.247  0.3275 -0.5831  0.4560
 5823TIP3    H139028   5.895   5.167   2.311 -0.2468 -2.9191 -0.2548
 5823TIP3    H239029   5.751   5.163   2.266 -0.4754  0.7245 -0.1329
 5824TIP3   OH239030   0.194   6.261   6.527  0.0412 -0.3248 -0.0485
 5824TIP3    H139031   0.264   6.199   6.507  0.6471  0.5017 -0.5306
 5824TIP3    H239032   0.137   6.214   6.588  1.0397 -0.9835  0.3920
 5825TIP3   OH239033   3.609   0.365   7.486  0.1926 -0.9472  0.2626
 5825TIP3    H139034   3.553   0.363   7.409 -1.7323 -0.1569  1.5746
 5825TIP3    H239035   3.643   0.455   7.488 -0.6564 -0.6338  0.9296
 5826TIP3   OH239036   0.090   1.700   0.350  0.3945 -0.9966 -0.1700
 5826TIP3    H139037   0.011   1.744   0.381  0.7716  0.0712 -0.6418
 5826TIP3    H239038   0.066   1.663   0.266 -0.3203 -2.9455  0.8500
 5827TIP3   OH239039   0.602   5.799   0.255  0.3251 -0.1694  0.1394
 5827TIP3    H139040   0.623   5.836   0.341 -0.5518  2.5733 -0.6971
 5827TIP3    H239041   0.534   5.858   0.221  1.1407 -0.7515 -2.7059
 5828TIP3   OH239042   6.081   2.680   0.187 -0.9157 -0.7601 -0.0152
 5828TIP3    H139043   6.109   2.711   0.101  0.0227 -0.2002  0.4735
 5828TIP3    H239044   6.133   2.732   0.249 -1.5561 -1.1719  0.8881
 5829TIP3   OH239045   4.409   6.892   7.844 -0.4310  0.8721  0.0647
 5829TIP3    H139046   4.369   6.950   7.909 -0.6054 -0.9616  1.6614
 5829TIP3    H239047   4.481   6.850   7.890  1.5558  1.8841 -1.9144
 5830TIP3   OH239048   4.320   4.316   8.306 -0.1482  0.3577  0.3137
 5830TIP3    H139049   4.333   4.363   8.388 -0.4597  1.2678 -0.1394
 5830TIP3    H239050   4.282   4.382   8.247  1.4981  0.1799 -1.0265
 5831TIP3   OH239051   0.856   2.286   7.115  0.5168  0.3405 -0.1938
 5831TIP3    H139052   0.882   2.220   7.051 -0.6684 -0.0709 -0.2795
 5831TIP3    H239053   0.878   2.247   7.200  0.5629  0.1816 -0.2779
 5832TIP3   OH239054   1.736   3.884   1.437 -0.0639 -0.6382  0.6624
 5832TIP3    H139055   1.757   3.974   1.464 -0.3554 -0.6626  0.9943
 5832TIP3    H239056   1.641   3.885   1.425  0.1316 -0.4580 -1.0579
 5833TIP3   OH239057   0.780   2.980   8.177  0.2370 -0.6734 -0.3296
 5833TIP3    H139058   0.861   3.023   8.204 -1.2333  1.6420  0.6927
 5833TIP3    H239059   0.808   2.917   8.110  2.8859 -0.2106  0.2213
 5834TIP3   OH239060   4.924   0.076   0.846  0.2165  0.0502 -0.0428
 5834TIP3    H139061   4.872   0.004   0.810  0.7951  0.1416 -1.1240
 5834TIP3    H239062   4.973   0.110   0.770  1.7378  0.0463  0.8994
 5835TIP3   OH239063   0.310   2.658   0.138  0.0796  0.0678 -0.2790
 5835TIP3    H139064   0.259   2.707   0.203 -1.1182 -0.2631 -0.9255
 5835TIP3    H239065   0.357   2.726   0.089 -2.6434  0.8512 -2.0961
 5836TIP3   OH239066   1.788   3.435   0.823 -0.2775  0.4430 -0.4618
 5836TIP3    H139067   1.816   3.395   0.741  0.6081 -1.1331  0.5655
 5836TIP3    H239068   1.846   3.511   0.834  3.0971 -2.0865  1.0441
 5837TIP3   OH239069   6.836   3.754   6.021  0.2398  0.0609  0.2121
 5837TIP3    H139070   6.795   3.817   6.081  1.8585  1.0593  0.3514
 5837TIP3    H239071   6.909   3.803   5.983 -0.0699 -0.9100 -1.7495
 5838TIP3   OH239072   5.846   3.707   8.033  0.3541 -1.0612 -0.2577
 5838TIP3    H139073   5.777   3.724   8.097  0.4972  0.3473 -0.4531
 5838TIP3    H239074   5.912   3.774   8.049  0.9268 -1.3890 -1.1371
 5839TIP3   OH239075   3.277   2.761   1.278  0.1289  0.5630 -0.4256
 5839TIP3    H139076   3.264   2.787   1.186 -2.0484  0.8707 -0.0942
 5839TIP3    H239077   3.229   2.678   1.286  0.0733  0.6769  0.4911
 5840TIP3   OH239078   5.239   1.357   0.742  0.1498 -0.6432 -0.6241
 5840TIP3    H139079   5.314   1.318   0.696  0.4535 -0.3312 -0.3866
 5840TIP3    H239080   5.272   1.438   0.780  0.2396 -1.4979  1.2332
 5841TIP3   OH239081   3.034   0.991   1.823  0.6111 -0.1968 -0.0318
 5841TIP3    H139082   3.020   1.077   1.785  2.0412  0.3150  0.5438
 5841TIP3    H239083   3.038   0.932   1.747 -2.9676 -0.2424 -0.3405
 5842TIP3   OH239084   1.369   3.311   7.380 -0.7725 -0.8972  0.0708
 5842TIP3    H139085   1.437   3.283   7.319 -1.1658 -1.4643 -0.1202
 5842TIP3    H239086   1.397   3.274   7.464 -0.4205 -0.4278  0.1622
 5843TIP3   OH239087   1.034   0.151   1.851  0.3946  0.3545 -0.0025
 5843TIP3    H139088   0.998   0.090   1.787  1.8258 -0.0253 -0.4705
 5843TIP3    H239089   1.049   0.232   1.802 -0.5132  0.7674  0.3747
 5844TIP3   OH239090   0.393   6.557   1.136  0.0733 -0.0321 -0.6338
 5844TIP3    H139091   0.375   6.601   1.219 -0.1852  0.0356 -0.7256
 5844TIP3    H239092   0.483   6.583   1.115  0.2759 -0.3596 -0.1868
 5845TIP3   OH239093   0.937   1.175   0.362  0.2338  0.1581  0.0966
 5845TIP3    H139094   0.891   1.258   0.350  0.1925  0.4898  2.1405
 5845TIP3    H239095   1.000   1.172   0.290  0.3094  2.0107  0.0372
 5846TIP3   OH239096   5.767   6.422   1.412  0.5108 -0.5280  0.1754
 5846TIP3    H139097   5.824   6.424   1.335 -0.8033 -0.6406 -0.8425
 5846TIP3    H239098   5.806   6.356   1.469  1.8144 -0.0517 -0.1447
 5847TIP3   OH239099   3.137   3.314   0.374  0.1753  0.0786  0.7630
 5847TIP3    H139100   3.186   3.390   0.342 -0.1320  0.0705  0.2568
 5847TIP3    H239101   3.204   3.247   0.387 -0.0073 -1.7711 -5.0073
 5848TIP3   OH239102   1.852   1.093   8.333  0.1667  0.2595  0.2668
 5848TIP3    H139103   1.798   1.155   8.284 -0.2939  0.0122  0.4580
 5848TIP3    H239104   1.911   1.055   8.267 -1.7155 -1.4870 -0.5125
 5849TIP3   OH239105   4.628   6.706   0.795  0.3218  0.5095 -0.0801
 5849TIP3    H139106   4.574   6.640   0.837 -0.1370  0.6008 -0.5144
 5849TIP3    H239107   4.665   6.757   0.867  1.2032 -0.6224  0.2881
 5850TIP3   OH239108   6.812   6.164   0.731  0.0701 -0.3217 -0.2749
 5850TIP3    H139109   6.832   6.094   0.793 -1.8554 -0.1750  0.5778
 5850TIP3    H239110   6.826   6.124   0.645  0.2869 -1.3353  0.2166
 5851TIP3   OH239111   6.731   4.980   1.493 -0.3415 -0.0277  0.1264
 5851TIP3    H139112   6.643   5.009   1.515  0.1336  0.3999  1.5815
 5851TIP3    H239113   6.718   4.900   1.441 -1.5747 -0.8899  1.6809
 5852TIP3   OH239114   6.171   0.785   1.873  0.0044 -0.3748  0.2248
 5852TIP3    H139115   6.251   0.766   1.921  0.6409  1.1245 -0.1771
 5852TIP3    H239116   6.102   0.783   1.939  0.4590 -1.0825  0.6860
 5853TIP3   OH239117   0.444   6.937   0.838 -0.1586  0.0805  0.0595
 5853TIP3    H139118   0.359   6.893   0.849 -0.6936  0.9370 -0.5232
 5853TIP3    H239119   0.423   7.020   0.796  0.9671  0.3614  0.0120
 5854TIP3   OH239120   0.151   2.052   7.488 -0.1550  0.4502  0.2088
 5854TIP3    H139121   0.200   2.126   7.525 -2.1760  1.9781  0.0633
 5854TIP3    H239122   0.105   2.014   7.563  0.1877 -0.1141  0.1390
 5855TIP3   OH239123   0.904   5.397   6.798 -0.1894  0.5531 -0.1650
 5855TIP3    H139124   0.828   5.343   6.818 -0.1398 -0.1670 -1.7845
 5855TIP3    H239125   0.903   5.407   6.703  1.3105  1.1703 -0.1512
 5856TIP3   OH239126   5.710   6.743   0.948  0.0208 -0.1620  0.1934
 5856TIP3    H139127   5.703   6.765   1.041  0.0475  1.3239 -0.1292
 5856TIP3    H239128   5.632   6.780   0.908 -0.0376 -0.8700 -0.3731
 5857TIP3   OH239129   6.946   6.557   7.173  0.0207  0.0762 -0.3327
 5857TIP3    H139130   6.862   6.511   7.174  0.4524 -0.7231  0.6508
 5857TIP3    H239131   6.974   6.553   7.082 -0.4361 -0.7316 -0.4473
 5858TIP3   OH239132   2.699   5.901   1.140  0.3239  0.2924  0.7101
 5858TIP3    H139133   2.669   5.816   1.173  2.4030 -0.0343  1.9808
 5858TIP3    H239134   2.694   5.959   1.216  2.9793  0.1386  1.1094
 5859TIP3   OH239135   5.128   0.812   7.175 -0.0890  0.1833  0.3993
 5859TIP3    H139136   5.090   0.827   7.088  0.1881  0.4489  0.3220
 5859TIP3    H239137   5.222   0.822   7.162 -0.0728  0.5806  0.7966
 5860TIP3   OH239138   3.376   5.291   0.293  0.2136 -0.4379  0.0320
 5860TIP3    H139139   3.353   5.323   0.380  1.5003  1.8304 -0.3921
 5860TIP3    H239140   3.315   5.334   0.234  1.3096  0.5088 -0.4539
 5861TIP3   OH239141   6.177   4.694   1.819 -0.2917  0.7292 -0.1922
 5861TIP3    H139142   6.198   4.758   1.887 -0.4159  0.5245  0.0416
 5861TIP3    H239143   6.103   4.733   1.772  0.5011  1.3892 -0.9339
 5862TIP3   OH239144   1.384   6.944   0.990  0.8076 -0.8118  0.0809
 5862TIP3    H139145   1.340   6.961   1.074  0.6861  0.4488 -0.2212
 5862TIP3    H239146   1.345   6.862   0.959 -0.9956 -0.0149  0.0809
 5863TIP3   OH239147   1.114   5.647   7.704  0.1853  0.4386  0.7897
 5863TIP3    H139148   1.186   5.697   7.745  0.7263 -0.1519  0.5770
 5863TIP3    H239149   1.141   5.638   7.612 -0.0205 -0.0360  0.7742
 5864TIP3   OH239150   5.403   4.875   0.441 -0.0783  1.0264 -0.6182
 5864TIP3    H139151   5.430   4.845   0.355 -0.8232 -0.0697 -0.4902
 5864TIP3    H239152   5.447   4.816   0.503 -0.1032  1.3558 -0.2809
 5865TIP3   OH239153   4.682   5.265   7.716 -0.1533  0.4678 -0.0625
 5865TIP3    H139154   4.621   5.191   7.709 -0.4703  0.5155  1.7916
 5865TIP3    H239155   4.679   5.307   7.630  0.5789 -2.0679 -1.4125
 5866TIP3   OH239156   2.590   6.523   7.696  0.4283  0.2499 -0.0640
 5866TIP3    H139157   2.610   6.605   7.650 -0.0385  0.0703 -0.6016
 5866TIP3    H239158   2.639   6.529   7.778  1.7928  0.3139 -0.8487
 5867TIP3   OH239159   3.143   3.060   7.441  0.5535  0.0956 -0.4612
 5867TIP3    H139160   3.229   3.026   7.418  1.3815  1.7450 -0.0110
 5867TIP3    H239161   3.098   3.074   7.358  1.1916  0.3513 -0.7630
 5868TIP3   OH239162   1.355   6.089   7.381 -0.1948 -0.3686 -0.1226
 5868TIP3    H139163   1.393   6.034   7.450  1.9981  0.8507 -0.2694
 5868TIP3    H239164   1.325   6.167   7.427 -0.9765 -0.5756 -0.2613
 5869TIP3   OH239165   6.311   5.381   0.871  0.1990 -0.0384  0.7719
 5869TIP3    H139166   6.351   5.321   0.934  0.3249  1.1109  1.8330
 5869TIP3    H239167   6.311   5.466   0.916  2.1623  1.3017 -1.5504
 5870TIP3   OH239168   2.543   0.692   2.618  0.1936 -0.4677 -0.2000
 5870TIP3    H139169   2.484   0.764   2.594 -0.6937 -1.0804  0.1053
 5870TIP3    H239170   2.495   0.613   2.595  1.3453 -0.9751 -0.9654
 5871TIP3   OH239171   6.299   2.310   6.466 -0.3051 -0.2418 -0.0131
 5871TIP3    H139172   6.351   2.350   6.396  0.9922  0.8657  1.5034
 5871TIP3    H239173   6.316   2.365   6.543 -3.1575 -0.2702  0.7754
 5872TIP3   OH239174   2.514   5.684   7.169 -0.0976 -0.1133 -0.0254
 5872TIP3    H139175   2.495   5.590   7.171 -0.0046 -0.1397  1.8778
 5872TIP3    H239176   2.573   5.698   7.243 -2.0597  1.7944  1.3114
 5873TIP3   OH239177   3.148   5.356   1.138 -0.9680  0.3186  0.3224
 5873TIP3    H139178   3.176   5.430   1.192 -0.4238  1.6208 -1.6188
 5873TIP3    H239179   3.062   5.332   1.172  0.4997 -0.8186  3.5437
 5874TIP3   OH239180   1.292   2.038   0.048 -0.5507 -0.3139  0.0428
 5874TIP3    H139181   1.278   2.004   0.136 -1.0317  1.2431  0.5955
 5874TIP3    H239182   1.357   2.107   0.059 -1.1759  0.4112 -0.6909
 5875TIP3   OH239183   3.567   2.466   6.594 -0.3077 -0.3150  0.2250
 5875TIP3    H139184   3.526   2.542   6.553  1.2171  0.1478 -0.4936
 5875TIP3    H239185   3.570   2.400   6.524  0.6056 -0.1724  0.1260
 5876TIP3   OH239186   4.519   0.656   0.158 -0.2499 -0.2294 -0.4776
 5876TIP3    H139187   4.520   0.568   0.194  0.2350  0.1802  0.5478
 5876TIP3    H239188   4.496   0.712   0.232 -0.5676  0.5144 -1.1165
 5877TIP3   OH239189   4.306   2.140   7.285  0.4838 -0.1636  0.1134
 5877TIP3    H139190   4.216   2.140   7.317  0.3663  0.9849 -0.1803
 5877TIP3    H239191   4.302   2.187   7.202  1.4494  0.4364  0.3955
 5878TIP3   OH239192   5.513   5.253   7.351 -0.4403 -0.1397  0.4643
 5878TIP3    H139193   5.571   5.179   7.330  0.1509  0.3346  0.4049
 5878TIP3    H239194   5.553   5.328   7.307 -1.1301  0.1887  0.3862
 5879TIP3   OH239195   6.441   2.014   2.111 -0.2667 -0.5653 -0.0421
 5879TIP3    H139196   6.394   2.043   2.189 -0.2791 -0.0449 -0.2373
 5879TIP3    H239197   6.454   2.095   2.060  2.2691 -0.4083  0.7465
 5880TIP3   OH239198   2.609   0.598   1.286  0.1334  0.3986 -0.3091
 5880TIP3    H139199   2.598   0.552   1.203 -0.9651  0.7324 -0.3706
 5880TIP3    H239200   2.661   0.538   1.340  1.2555  0.3772 -1.3740
 5881TIP3   OH239201   0.877   5.963   1.974 -0.0777 -0.0030 -0.1898
 5881TIP3    H139202   0.967   5.995   1.986 -0.4054  0.7298  0.4348
 5881TIP3    H239203   0.860   5.911   2.053 -0.1806 -0.1929 -0.3371
 5882TIP3   OH239204   2.684   3.852   2.146 -0.0759 -0.0001 -0.4401
 5882TIP3    H139205   2.689   3.772   2.094 -0.7946 -0.8540  0.7487
 5882TIP3    H239206   2.609   3.899   2.110 -0.1297 -0.2405 -0.6446
 5883TIP3   OH239207   4.044   2.327   1.917 -0.0745 -0.1546  0.2583
 5883TIP3    H139208   4.093   2.299   1.839  0.2797  2.1568 -0.4068
 5883TIP3    H239209   4.081   2.412   1.940 -2.2197  0.6059  1.1317
 5884TIP3   OH239210   4.582   5.120   2.165  0.0605 -0.3705  0.3111
 5884TIP3    H139211   4.565   5.175   2.089 -1.9784  0.0711  1.0121
 5884TIP3    H239212   4.583   5.181   2.239 -2.4805 -1.2028  1.1284
 5885TIP3   OH239213   4.637   5.616   0.301  0.0796  0.2362  0.3399
 5885TIP3    H139214   4.617   5.553   0.371 -1.2444  0.1893 -0.0468
 5885TIP3    H239215   4.562   5.609   0.241 -1.1649  3.6207  1.2937
 5886TIP3   OH239216   5.957   1.842   2.673  0.5563 -0.8012  0.1477
 5886TIP3    H139217   5.882   1.799   2.633  1.0096 -1.1796 -0.3039
 5886TIP3    H239218   6.012   1.770   2.705 -1.5443 -0.6512  4.9558
 5887TIP3   OH239219   6.458   0.057   7.439 -0.1166 -0.0130 -0.1862
 5887TIP3    H139220   6.515   0.088   7.509  0.3564 -0.6573 -0.2857
 5887TIP3    H239221   6.421   0.137   7.402 -2.9862  0.3322  2.9014
 5888TIP3   OH239222   6.227   4.632   0.692 -0.2715 -0.5459  0.3908
 5888TIP3    H139223   6.320   4.617   0.703 -0.5932 -2.1727  1.0693
 5888TIP3    H239224   6.186   4.593   0.769 -1.5411 -0.0805 -0.0115
 5889TIP3   OH239225   2.615   2.566   6.280 -0.6759  0.0443  0.2567
 5889TIP3    H139226   2.667   2.593   6.205 -1.1851 -0.5339 -0.3183
 5889TIP3    H239227   2.622   2.638   6.343 -0.3379  0.5785 -0.3907
 5890TIP3   OH239228   1.417   2.618   7.816  0.2910  0.1214 -0.6472
 5890TIP3    H139229   1.346   2.602   7.879 -0.3646 -1.0549 -1.6484
 5890TIP3    H239230   1.487   2.558   7.842  0.2710  0.0950 -0.6545
 5891TIP3   OH239231   1.742   3.171   1.065 -0.6643  0.0433 -0.0042
 5891TIP3    H139232   1.689   3.122   1.002 -0.0074  0.6158 -1.0321
 5891TIP3    H239233   1.794   3.230   1.011  0.8890 -0.3631  0.9885
 5892TIP3   OH239234   5.962   6.993   0.404  0.3919  0.6353 -0.1733
 5892TIP3    H139235   5.897   7.062   0.389  0.4997  0.6816 -0.4397
 5892TIP3    H239236   6.000   6.977   0.317  1.1666  1.0424  0.0779
 5893TIP3   OH239237   3.107   5.058   1.492  0.1689 -0.0568 -0.7861
 5893TIP3    H139238   3.161   5.026   1.420  5.0743 -0.3005  2.5743
 5893TIP3    H239239   3.071   4.979   1.533  0.7825 -0.2232 -0.5676
 5894TIP3   OH239240   6.948   4.350   1.268 -0.2760  0.3234  0.3186
 5894TIP3    H139241   7.044   4.344   1.266 -0.1956  0.7415  1.7160
 5894TIP3    H239242   6.921   4.326   1.180  1.0710 -0.6453  0.1270
 5895TIP3   OH239243   1.201   5.641   0.156  0.1054  0.7061 -0.5097
 5895TIP3    H139244   1.182   5.704   0.225  1.4224  1.0300 -0.4177
 5895TIP3    H239245   1.125   5.646   0.098 -0.4415  1.3516  0.2363
 5896TIP3   OH239246   4.239   1.295   7.717  0.2710  1.0820  0.1544
 5896TIP3    H139247   4.312   1.236   7.699  0.0414  1.1106 -0.9921
 5896TIP3    H239248   4.197   1.259   7.795  1.4325  0.9970  0.7510
 5897TIP3   OH239249   0.930   3.179   7.208  0.1868 -0.0137 -0.3399
 5897TIP3    H139250   0.998   3.221   7.260 -0.2931 -0.5115  0.7062
 5897TIP3    H239251   0.906   3.244   7.142 -0.2784  1.2017  1.0027
 5898TIP3   OH239252   4.836   4.498   1.901 -0.3227  0.0163  0.2560
 5898TIP3    H139253   4.857   4.408   1.926 -1.2264 -0.1419  0.4846
 5898TIP3    H239254   4.809   4.540   1.983 -1.8136 -0.0738 -0.1514
 5899TIP3   OH239255   6.852   0.596   8.186 -0.2211 -0.3439  0.5554
 5899TIP3    H139256   6.787   0.655   8.224  0.3013  1.5974 -1.3336
 5899TIP3    H239257   6.936   0.630   8.218 -0.0155 -1.7392  1.5607
 5900TIP3   OH239258   5.663   5.144   1.524  0.7016  0.0478  0.1829
 5900TIP3    H139259   5.646   5.205   1.595 -0.8038 -1.3660  1.1023
 5900TIP3    H239260   5.599   5.168   1.457  2.0549  1.3158 -0.7357
 5901TIP3   OH239261   2.965   6.842   0.762 -0.1382  0.1906  0.3965
 5901TIP3    H139262   3.028   6.813   0.829  0.3118  1.2042  0.4297
 5901TIP3    H239263   3.008   6.823   0.679  0.4505  1.3156  0.4181
 5902TIP3   OH239264   1.450   2.344   7.159  0.3986  0.6860 -0.6628
 5902TIP3    H139265   1.527   2.286   7.165 -0.3033 -0.4223 -1.8942
 5902TIP3    H239266   1.432   2.368   7.250  2.1751  0.9460 -0.3431
 5903TIP3   OH239267   3.710   0.769   2.179 -0.4013  0.2139  0.7635
 5903TIP3    H139268   3.634   0.727   2.219 -0.9456  0.0187 -0.4301
 5903TIP3    H239269   3.754   0.814   2.251 -0.1414 -1.8705  1.9665
 5904TIP3   OH239270   0.513   4.245   7.773 -0.5522  0.5367  0.4732
 5904TIP3    H139271   0.560   4.328   7.763  0.7271 -0.4004 -2.7278
 5904TIP3    H239272   0.428   4.261   7.732  0.9573 -0.4727 -3.5757
 5905TIP3   OH239273   6.926   6.300   1.580  0.3254  0.3014 -0.4661
 5905TIP3    H139274   6.968   6.378   1.544 -0.0269  0.1302 -1.2643
 5905TIP3    H239275   6.979   6.227   1.548  1.6269  0.2595  1.6004
 5906TIP3   OH239276   1.811   2.910   7.284  0.2557  0.6925 -0.0315
 5906TIP3    H139277   1.895   2.954   7.296 -0.6659  2.6590 -0.2883
 5906TIP3    H239278   1.770   2.913   7.370  0.4550 -0.3501  0.1174
 5907TIP3   OH239279   5.087   0.464   0.165  0.0983 -0.0973  0.0827
 5907TIP3    H139280   5.107   0.411   0.087 -0.8746 -2.6499  1.4529
 5907TIP3    H239281   5.002   0.503   0.146  0.0985 -0.2886 -0.3363
 5908TIP3   OH239282   3.661   3.802   6.440  0.6592  0.1756  0.2144
 5908TIP3    H139283   3.711   3.727   6.409 -0.0140 -0.4139  0.5216
 5908TIP3    H239284   3.722   3.875   6.437  1.1210 -0.2374 -0.7675
 5909TIP3   OH239285   5.192   1.772   1.563  0.1070  0.1551  0.0469
 5909TIP3    H139286   5.152   1.728   1.487  1.2992 -1.1896  0.1512
 5909TIP3    H239287   5.147   1.856   1.568  0.2554  0.4677 -2.3993
 5910TIP3   OH239288   4.798   2.034   0.328 -0.7605 -0.2467 -0.2310
 5910TIP3    H139289   4.843   1.988   0.399  0.2674  0.3787 -0.4484
 5910TIP3    H239290   4.745   2.100   0.372 -2.1057 -1.4869  0.0724
 5911TIP3   OH239291   0.995   2.532   3.417 -0.6488  0.2487  0.0701
 5911TIP3    H139292   1.007   2.523   3.511 -0.9624 -3.8894 -0.1009
 5911TIP3    H239293   0.900   2.540   3.406 -0.5406  1.8098  0.0969
 5912TIP3   OH239294   5.050   0.265   7.842 -0.3422  0.6272 -0.3254
 5912TIP3    H139295   5.099   0.320   7.902 -1.5290  0.4522  0.8558
 5912TIP3    H239296   5.116   0.208   7.802  0.2695 -0.8719  2.5532
 5913TIP3   OH239297   6.967   5.847   1.644  0.6741 -0.1657 -0.7927
 5913TIP3    H139298   6.960   5.931   1.597  0.4418  0.4605  0.3174
 5913TIP3    H239299   7.037   5.800   1.599  0.5916  0.4942 -1.6352
 5914TIP3   OH239300   0.211   1.421   2.585 -0.4036  0.5622 -0.2051
 5914TIP3    H139301   0.159   1.461   2.655 -0.7940  0.8893 -0.6782
 5914TIP3    H239302   0.179   1.461   2.504 -0.7354 -0.6196 -0.6899
 5915TIP3   OH239303   3.866   5.088   8.163  0.2509  0.5386  0.7577
 5915TIP3    H139304   3.787   5.049   8.126  0.8237 -0.8707  0.9414
 5915TIP3    H239305   3.840   5.122   8.248 -0.2190  0.3379  0.6926
 5916TIP3   OH239306   1.808   3.503   8.124  0.0999  0.1580  0.3123
 5916TIP3    H139307   1.754   3.576   8.095  0.4596  1.3187  2.3647
 5916TIP3    H239308   1.753   3.425   8.112 -0.5063  0.8080 -1.3645
 5917TIP3   OH239309   1.645   6.700   7.578 -0.6271 -0.0267 -0.2924
 5917TIP3    H139310   1.618   6.792   7.572 -0.2100  0.2718  1.9020
 5917TIP3    H239311   1.696   6.694   7.658 -0.7426 -2.2115 -0.3130
 5918TIP3   OH239312   3.609   2.566   0.317  0.4560  0.3955  0.7156
 5918TIP3    H139313   3.651   2.482   0.298  0.2014  0.4464 -0.1317
 5918TIP3    H239314   3.656   2.629   0.263 -0.0995  0.5967  0.4522
 5919TIP3   OH239315   5.289   3.344   8.120  0.1425 -0.1315  0.1023
 5919TIP3    H139316   5.208   3.385   8.152  0.8092  0.5169  1.0101
 5919TIP3    H239317   5.284   3.353   8.025 -0.3771  0.8183  0.2016
 5920TIP3   OH239318   1.469   3.581   1.583  0.2218  0.2441  0.1162
 5920TIP3    H139319   1.517   3.516   1.532  1.3857  2.7878 -2.2569
 5920TIP3    H239320   1.504   3.573   1.671  1.4233 -1.2992 -0.4600
 5921TIP3   OH239321   1.168   0.267   1.475  0.1753  0.4862  0.1782
 5921TIP3    H139322   1.189   0.179   1.507 -0.3188  0.3593  0.1703
 5921TIP3    H239323   1.225   0.280   1.399 -0.4638 -0.2325 -0.4377
 5922TIP3   OH239324   6.629   5.932   2.161 -0.7286 -0.0682  0.3138
 5922TIP3    H139325   6.580   5.866   2.210 -0.6158  0.3055  0.9375
 5922TIP3    H239326   6.586   6.015   2.182  0.0981  0.2558  0.7930
 5923TIP3   OH239327   1.823   0.134   7.328  0.4348  0.5403 -0.0665
 5923TIP3    H139328   1.853   0.043   7.327  0.5678  0.5819  0.0778
 5923TIP3    H239329   1.883   0.179   7.387  0.0270  0.6052  0.3079
 5924TIP3   OH239330   6.094   6.294   1.909 -0.4807 -0.1664  0.3653
 5924TIP3    H139331   6.010   6.338   1.901 -1.5968 -2.4662 -1.9705
 5924TIP3    H239332   6.145   6.326   1.835  0.1740  0.0771  0.9043
 5925TIP3   OH239333   2.621   1.988   1.814 -0.2301  0.0861  0.5682
 5925TIP3    H139334   2.547   2.049   1.813 -0.0348  0.3410 -0.8708
 5925TIP3    H239335   2.592   1.915   1.759 -0.2452 -0.8771  1.8222
 5926TIP3   OH239336   6.022   4.411   0.372 -0.0805  0.5344 -0.5761
 5926TIP3    H139337   6.060   4.389   0.457  1.3549 -0.2801 -1.3949
 5926TIP3    H239338   5.984   4.329   0.340 -1.3269  1.0169 -0.4024
 5927TIP3   OH239339   3.892   2.657   1.193  0.3746  0.0370  0.5642
 5927TIP3    H139340   3.820   2.638   1.133  0.4338 -0.1012  0.5358
 5927TIP3    H239341   3.885   2.750   1.211  0.4284  0.1019  0.2510
 5928TIP3   OH239342   4.736   5.308   2.778  0.1430 -0.3090 -0.1604
 5928TIP3    H139343   4.800   5.254   2.732  0.5245 -1.3057  1.4465
 5928TIP3    H239344   4.779   5.393   2.789 -0.5215  0.4677 -2.8492
 5929TIP3   OH239345   1.315   2.610   2.798  0.2390 -0.3053  0.0129
 5929TIP3    H139346   1.387   2.553   2.769  0.4238 -0.2003  0.2594
 5929TIP3    H239347   1.302   2.671   2.725  2.2095  1.4101  0.9665
 5930TIP3   OH239348   4.197   2.279   7.074 -0.0120 -0.2861  0.7732
 5930TIP3    H139349   4.135   2.352   7.072  0.3964  0.0505 -0.0357
 5930TIP3    H239350   4.145   2.203   7.047 -0.3055 -0.1992  1.0777
 5931TIP3   OH239351   4.806   1.667   1.239 -0.1312 -0.3941 -0.2474
 5931TIP3    H139352   4.859   1.588   1.251  0.2536 -0.4438 -2.1143
 5931TIP3    H239353   4.730   1.637   1.190  0.2524  0.4660 -1.3903
 5932TIP3   OH239354   0.418   5.620   2.358  0.0968 -0.2270  0.6321
 5932TIP3    H139355   0.354   5.673   2.407 -0.8514 -1.7460  1.0950
 5932TIP3    H239356   0.398   5.639   2.266 -0.0393  0.4287  0.7846
 5933TIP3   OH239357   0.451   2.453   1.493  0.0151  0.3254  0.5496
 5933TIP3    H139358   0.410   2.532   1.457  0.5491 -0.0666 -1.0028
 5933TIP3    H239359   0.477   2.403   1.416  0.2624 -1.0767  1.5144
 5934TIP3   OH239360   2.795   6.628   0.797  0.3953  0.0808  0.3849
 5934TIP3    H139361   2.848   6.707   0.797  0.8614 -0.2200  1.1529
 5934TIP3    H239362   2.856   6.558   0.775  0.4024 -0.3122  1.5987
 5935TIP3   OH239363   3.370   3.894   1.617  0.4168  0.6433 -0.1332
 5935TIP3    H139364   3.290   3.942   1.635 -0.6398 -1.6912  1.9802
 5935TIP3    H239365   3.412   3.884   1.703  3.2644  2.1183 -1.2086
 5936TIP3   OH239366   2.927   6.968   1.428  0.0206 -0.2683  0.0707
 5936TIP3    H139367   2.907   6.938   1.516  0.6877  1.0593  0.7014
 5936TIP3    H239368   3.002   6.915   1.401 -0.6373 -1.1795  0.0038
 5937TIP3   OH239369   6.877   3.203   0.316  0.2705  0.4619 -0.3078
 5937TIP3    H139370   6.807   3.268   0.306 -1.9994 -1.5785  1.2506
 5937TIP3    H239371   6.951   3.240   0.266 -1.9320  2.6446 -2.2476
 5938TIP3   OH239372   4.897   3.013   2.174  0.3313 -0.1191 -0.5522
 5938TIP3    H139373   4.858   2.934   2.212  0.6982  0.0342  0.1573
 5938TIP3    H239374   4.855   3.085   2.220 -0.1503  0.1217 -1.3408
 5939TIP3   OH239375   0.112   2.252   2.743  0.2631 -0.1761 -0.5088
 5939TIP3    H139376   0.035   2.220   2.695 -1.6239  0.4940  1.8490
 5939TIP3    H239377   0.109   2.347   2.731  1.0322 -0.1882 -0.8063
 5940TIP3   OH239378   5.923   2.302   6.826  0.0829 -0.0046  0.1101
 5940TIP3    H139379   5.831   2.325   6.838 -0.1387 -0.5851 -0.4323
 5940TIP3    H239380   5.950   2.270   6.912 -0.4673 -0.6274  0.0661
 5941TIP3   OH239381   1.633   3.571   2.412  0.5338 -0.4960 -0.3163
 5941TIP3    H139382   1.622   3.617   2.329 -0.1300 -1.4727 -0.7825
 5941TIP3    H239383   1.651   3.640   2.475  0.4041  0.3196 -1.1522
 5942TIP3   OH239384   3.624   6.101   0.827 -0.5591  0.0010 -0.8346
 5942TIP3    H139385   3.691   6.156   0.868 -1.0617  0.5934 -0.7952
 5942TIP3    H239386   3.557   6.162   0.799 -1.1889 -0.6089 -0.6736
 5943TIP3   OH239387   1.908   2.787   0.620 -0.3688  0.0449 -0.1397
 5943TIP3    H139388   1.956   2.825   0.693  0.4622  0.4409 -0.8790
 5943TIP3    H239389   1.975   2.758   0.559 -1.0440 -0.5385 -0.6213
 5944TIP3   OH239390   6.676   0.538   7.880 -0.2790 -0.0703 -0.7962
 5944TIP3    H139391   6.715   0.459   7.918 -0.5112  0.3947  0.4564
 5944TIP3    H239392   6.745   0.576   7.827  0.7782  0.3709  0.8388
 5945TIP3   OH239393   2.352   2.558   1.655  0.0477  0.4304  0.2240
 5945TIP3    H139394   2.300   2.565   1.575  0.2268  0.1692  0.0847
 5945TIP3    H239395   2.412   2.486   1.638 -0.5587 -0.2698  0.9451
 5946TIP3   OH239396   3.513   4.089   1.453  0.0343  0.2839  0.0741
 5946TIP3    H139397   3.607   4.081   1.468  0.3215 -0.5148 -1.9422
 5946TIP3    H239398   3.474   4.024   1.511  0.5115  1.8996  2.3591
 5947TIP3   OH239399   5.848   2.175   0.174 -0.5961  0.2229 -0.2459
 5947TIP3    H139400   5.940   2.197   0.192 -0.7562  0.3807  0.4019
 5947TIP3    H239401   5.800   2.255   0.194 -0.6699  0.8622 -2.6688
 5948TIP3   OH239402   6.057   4.570   0.920  0.3268  0.0240  0.1616
 5948TIP3    H139403   6.102   4.527   0.993  0.7450  0.6213  0.2705
 5948TIP3    H239404   5.965   4.546   0.929  0.7116 -1.8421 -0.4959
 5949TIP3   OH239405   0.787   1.415   1.415  0.7403 -0.1540 -0.0311
 5949TIP3    H139406   0.784   1.509   1.400  0.1905 -0.2327 -0.4164
 5949TIP3    H239407   0.828   1.379   1.336 -0.2668 -0.3642 -0.4677
 5950TIP3   OH239408   6.640   2.697   0.960 -0.1522  0.0820  0.5787
 5950TIP3    H139409   6.648   2.723   1.052 -0.4556  0.9898  0.3640
 5950TIP3    H239410   6.547   2.709   0.939  0.2239  1.7366 -0.3476
 5951TIP3   OH239411   2.420   0.230   0.920 -0.0424 -0.0832  0.0930
 5951TIP3    H139412   2.407   0.157   0.859  1.5556 -0.5869  0.3126
 5951TIP3    H239413   2.331   0.253   0.948 -0.6134 -1.7076 -0.2422
 5952TIP3   OH239414   0.890   4.849   6.589  0.2959 -0.4034  0.0789
 5952TIP3    H139415   0.913   4.763   6.555 -0.6195  0.1392 -2.0541
 5952TIP3    H239416   0.909   4.910   6.517 -0.9041  0.9378  0.8415
 5953TIP3   OH239417   5.763   6.294   0.840 -0.6976 -0.3931  0.7298
 5953TIP3    H139418   5.846   6.246   0.835  1.1522  2.6307 -1.1725
 5953TIP3    H239419   5.763   6.332   0.928  0.3756  0.1477  0.5232
 5954TIP3   OH239420   2.985   2.685   7.887  0.7046 -0.0304 -0.2681
 5954TIP3    H139421   2.945   2.694   7.801  0.9044  1.9087 -0.1981
 5954TIP3    H239422   2.920   2.721   7.948  0.5818 -1.3403  0.4048
 5955TIP3   OH239423   2.794   3.576   1.601 -0.0803  0.0386  0.1643
 5955TIP3    H139424   2.745   3.565   1.683  0.3856  2.1312  0.7828
 5955TIP3    H239425   2.884   3.555   1.623  0.1887  1.3663  0.4481
 5956TIP3   OH239426   2.770   5.465   0.923  0.4110  0.2887 -0.1990
 5956TIP3    H139427   2.700   5.526   0.946  0.7895  1.1730 -1.2881
 5956TIP3    H239428   2.812   5.505   0.847  0.2211 -1.6954 -1.4043
 5957TIP3   OH239429   6.569   4.823   1.340 -0.4275  0.6506 -0.0764
 5957TIP3    H139430   6.505   4.805   1.271  0.0910  1.0283 -0.6708
 5957TIP3    H239431   6.577   4.740   1.387  1.9728 -0.8683 -2.8035
 5958TIP3   OH239432   4.626   1.007   1.347 -0.4568 -0.2203  0.4018
 5958TIP3    H139433   4.717   0.992   1.371 -0.2991  2.6851  2.1852
 5958TIP3    H239434   4.631   1.064   1.270 -0.8642 -1.6102 -0.7021
 5959TIP3   OH239435   6.023   4.911   1.465 -0.4930  0.0193 -0.0738
 5959TIP3    H139436   6.073   4.951   1.535  2.6306  1.4551 -2.8333
 5959TIP3    H239437   5.964   4.980   1.435  1.0796  0.8500 -1.3825
 5960TIP3   OH239438   0.369   5.496   0.775  0.4638  0.1139  0.2399
 5960TIP3    H139439   0.296   5.448   0.738  0.3161  1.0542 -0.7351
 5960TIP3    H239440   0.364   5.583   0.735  1.9561  0.2825  0.3565
 5961TIP3   OH239441   4.510   2.666   2.215  0.8588 -0.1637  0.3932
 5961TIP3    H139442   4.450   2.640   2.286  0.2928 -0.4786 -0.1809
 5961TIP3    H239443   4.562   2.737   2.251  2.4493 -2.0421  2.0448
 5962TIP3   OH239444   3.736   5.306   1.517  0.1505  0.1129  0.0972
 5962TIP3    H139445   3.655   5.287   1.564  0.2361  1.2834  0.7643
 5962TIP3    H239446   3.711   5.373   1.453  0.0494 -1.4057 -1.5348
 5963TIP3   OH239447   6.707   2.351   7.760  0.0585 -0.4834 -0.0077
 5963TIP3    H139448   6.724   2.348   7.854  1.7187 -0.7935 -0.2704
 5963TIP3    H239449   6.778   2.298   7.722  2.4062  3.4154 -1.7489
 5964TIP3   OH239450   5.080   1.082   7.437 -0.1039 -0.2125  0.2314
 5964TIP3    H139451   5.043   1.054   7.521 -1.1452 -0.3830 -0.2686
 5964TIP3    H239452   5.172   1.056   7.442 -0.6949 -2.5526  0.3389
 5965TIP3   OH239453   4.653   5.902   0.292 -0.4165 -0.0477  0.0535
 5965TIP3    H139454   4.582   5.905   0.227 -0.4312  0.4245  0.0936
 5965TIP3    H239455   4.649   5.812   0.326  0.0717 -0.5501 -1.1253
 5966TIP3   OH239456   6.758   3.127   8.125 -0.3061  0.4262  0.4196
 5966TIP3    H139457   6.727   3.037   8.131 -0.1969  0.3262 -0.4202
 5966TIP3    H239458   6.709   3.165   8.053  2.6969 -0.2933 -2.2702
 5967TIP3   OH239459   3.964   2.486   0.297 -0.1695 -1.0033  0.0679
 5967TIP3    H139460   3.904   2.548   0.254  1.7445  1.8528  1.2322
 5967TIP3    H239461   4.004   2.438   0.224 -1.1219 -0.3346 -0.9465
 5968TIP3   OH239462   2.744   5.318   1.938 -0.6496 -0.0125 -0.4175
 5968TIP3    H139463   2.771   5.245   1.993  1.1571 -0.9351 -2.3794
 5968TIP3    H239464   2.802   5.389   1.961  1.7941 -1.1189 -2.6102
 5969TIP3   OH239465   1.035   1.237   1.820 -0.3686 -0.5986  0.0717
 5969TIP3    H139466   0.988   1.320   1.833 -1.2506 -1.0502 -0.1264
 5969TIP3    H239467   1.087   1.250   1.741  1.2731  0.5268  1.2770
 5970TIP3   OH239468   6.349   3.650   7.395 -0.3090  0.5292  0.0929
 5970TIP3    H139469   6.333   3.614   7.308  3.6249 -0.0704 -0.5645
 5970TIP3    H239470   6.339   3.745   7.384 -2.6214  0.3059 -0.2082
 5971TIP3   OH239471   4.699   6.419   0.056 -0.0925 -0.4791  0.3682
 5971TIP3    H139472   4.629   6.415   0.121  0.4785  0.2554  1.0485
 5971TIP3    H239473   4.775   6.450   0.105  1.2152 -2.9403  0.0644
 5972TIP3   OH239474   3.655   4.836   2.751  0.5015  0.5314 -0.4264
 5972TIP3    H139475   3.734   4.788   2.728  0.7549  1.2736 -1.1532
 5972TIP3    H239476   3.685   4.922   2.779  0.2302 -0.3605  3.0657
 5973TIP3   OH239477   0.237   0.610   2.279  0.1755  0.0232 -0.6512
 5973TIP3    H139478   0.252   0.549   2.351  2.1972  1.7777  0.5451
 5973TIP3    H239479   0.297   0.581   2.210  0.9156  0.4608 -0.1996
 5974TIP3   OH239480   4.798   5.957   7.881 -0.4569  0.4504 -0.0784
 5974TIP3    H139481   4.876   5.964   7.936  0.6579  0.2921 -1.5753
 5974TIP3    H239482   4.725   5.955   7.943  0.7188  0.5697  1.3658
 5975TIP3   OH239483   3.181   6.666   7.118 -0.1831  0.5746  0.5608
 5975TIP3    H139484   3.140   6.696   7.037  1.2483  2.8470  0.5733
 5975TIP3    H239485   3.269   6.639   7.091 -0.2316 -0.1945  1.1432
 5976TIP3   OH239486   2.997   3.176   1.753  0.3287 -0.0463  0.7161
 5976TIP3    H139487   2.984   3.147   1.663  1.8291  0.6906  0.2268
 5976TIP3    H239488   2.982   3.271   1.750  0.7227  0.0368  1.1697
 5977TIP3   OH239489   0.119   0.495   0.238  0.0033 -0.3734 -0.1402
 5977TIP3    H139490   0.110   0.401   0.256  1.9138 -0.7289 -0.8668
 5977TIP3    H239491   0.029   0.528   0.240 -0.6502 -2.0621  0.8780
 5978TIP3   OH239492   6.778   2.474   2.680  0.2661 -0.2766  0.2080
 5978TIP3    H139493   6.874   2.471   2.680  0.2533 -2.9839  0.1988
 5978TIP3    H239494   6.751   2.388   2.649 -2.2083  0.7776 -0.8811
 5979TIP3   OH239495   6.735   4.351   1.065  0.3295 -0.1810 -0.7007
 5979TIP3    H139496   6.751   4.311   0.980  0.3983 -0.4835 -0.5450
 5979TIP3    H239497   6.716   4.443   1.045 -0.4247 -0.4182 -1.1057
 5980TIP3   OH239498   5.734   6.426   0.197  0.2467  0.0892 -0.0914
 5980TIP3    H139499   5.712   6.401   0.287  1.7886  0.2757  0.3618
 5980TIP3    H239500   5.804   6.490   0.206  0.0899  0.4789 -1.4253
 5981TIP3   OH239501   3.247   0.108   7.370  0.9446 -0.1438 -0.6643
 5981TIP3    H139502   3.253   0.202   7.353  0.3357  0.0863  0.3209
 5981TIP3    H239503   3.196   0.074   7.297  2.0849  0.1007 -1.6032
 5982TIP3   OH239504   6.015   0.634   7.917 -0.9536 -0.0460  0.2369
 5982TIP3    H139505   5.984   0.719   7.950 -4.0526 -1.7883  2.2730
 5982TIP3    H239506   5.984   0.631   7.826 -0.5580  1.1056  0.0504
 5983TIP3   OH239507   6.632   2.708   0.019 -0.0909 -0.0280 -0.4237
 5983TIP3    H139508   6.726   2.712   0.033 -0.3893 -0.6734  2.2862
 5983TIP3    H239509   6.607   2.796  -0.008  1.1977  0.2885 -0.6222
 5984TIP3   OH239510   1.848   6.129   7.935  0.6583  0.1754  0.3383
 5984TIP3    H139511   1.937   6.146   7.963  0.7457 -1.4683  1.1672
 5984TIP3    H239512   1.836   6.035   7.947 -1.4473  0.4744  1.0220
 5985TIP3   OH239513   2.919   3.854   0.948 -0.0240  0.6276 -0.2558
 5985TIP3    H139514   2.909   3.817   1.036 -0.5073  0.2977 -0.4494
 5985TIP3    H239515   2.837   3.833   0.903  0.6149 -0.0904 -1.1185
 5986TIP3   OH239516   6.229   0.007   8.288 -0.0644 -0.3063  0.2315
 5986TIP3    H139517   6.319  -0.015   8.266 -0.1760  0.1179 -0.6841
 5986TIP3    H239518   6.179  -0.012   8.209 -0.5596  0.7824  0.2607
 5987TIP3   OH239519   2.767   6.051   7.606  0.1990  0.2685 -0.0822
 5987TIP3    H139520   2.783   6.075   7.697 -0.6912 -0.1739  0.2022
 5987TIP3    H239521   2.800   6.126   7.555 -1.6515  1.7294  0.7448
 5988TIP3   OH239522   1.467   6.079   8.332  0.6549  0.4620 -0.1077
 5988TIP3    H139523   1.420   6.024   8.395 -0.2886  1.3163 -0.0335
 5988TIP3    H239524   1.512   6.017   8.274  0.5434 -0.3563  0.6532
 5989TIP3   OH239525   0.698   6.373   0.937  0.1284 -0.2435 -0.3408
 5989TIP3    H139526   0.713   6.432   0.863  0.7781  0.9651  0.7175
 5989TIP3    H239527   0.604   6.361   0.939 -0.3434  2.7046  0.8039
 5990TIP3   OH239528   4.924   0.724   0.262 -0.0531 -0.3848  0.0005
 5990TIP3    H139529   4.854   0.661   0.248  0.0470 -0.9223  1.6665
 5990TIP3    H239530   5.002   0.671   0.279  0.1480  0.1681  0.8816
 5991TIP3   OH239531   3.711   3.012   7.618  0.3708 -0.0864  0.3102
 5991TIP3    H139532   3.725   2.966   7.701 -1.7490  0.3318  0.9718
 5991TIP3    H239533   3.702   2.943   7.553 -0.6463 -0.5723  0.9330
 5992TIP3   OH239534   0.147   0.659   0.552 -0.4928 -0.6237 -0.3727
 5992TIP3    H139535   0.105   0.681   0.635  1.3399 -0.4442  0.5313
 5992TIP3    H239536   0.184   0.742   0.521 -1.6148 -0.5685 -1.6815
 5993TIP3   OH239537   1.854   2.584   2.678  0.3176 -0.0888  0.0269
 5993TIP3    H139538   1.942   2.558   2.707  0.5694  0.3396 -0.3400
 5993TIP3    H239539   1.801   2.505   2.689  0.7649 -0.3756  0.1785
 5994TIP3   OH239540   0.548   3.107   8.105  0.2576  0.0013 -0.4607
 5994TIP3    H139541   0.633   3.078   8.137 -0.4670 -1.7581  0.0028
 5994TIP3    H239542   0.560   3.199   8.084  2.7108 -0.5712 -1.9225
 5995TIP3   OH239543   1.457   3.054   0.940  0.3665  0.2496  0.4655
 5995TIP3    H139544   1.392   3.001   0.986  0.5953 -0.6187 -0.1827
 5995TIP3    H239545   1.412   3.136   0.921  0.1383  0.4698  1.8609
 5996TIP3   OH239546   4.100   0.251   6.721  0.0533 -0.1065 -0.1305
 5996TIP3    H139547   4.132   0.181   6.665 -1.6095  0.0174 -1.3023
 5996TIP3    H239548   4.009   0.264   6.695 -0.1808  1.3597  1.2084
 5997TIP3   OH239549   1.745   3.050   8.247  0.1193  0.1656 -0.5395
 5997TIP3    H139550   1.798   3.067   8.325  1.3543  0.0986 -1.3320
 5997TIP3    H239551   1.681   3.121   8.246 -0.5059 -0.3334  1.0098
 5998TIP3   OH239552   4.662   1.369   1.202  0.2344 -0.2331 -0.0973
 5998TIP3    H139553   4.720   1.302   1.167 -0.2388 -1.0210  0.5738
 5998TIP3    H239554   4.590   1.374   1.139 -0.0025 -0.7662  0.1213
 5999TIP3   OH239555   0.394   6.606   6.573 -0.6935  0.1684  0.3840
 5999TIP3    H139556   0.411   6.681   6.631 -1.2185 -0.3003  1.1603
 5999TIP3    H239557   0.481   6.570   6.555 -0.5530  0.0712  1.2204
 6000TIP3   OH239558   6.710   5.229   0.423 -0.5622  0.2597 -0.2098
 6000TIP3    H139559   6.715   5.147   0.472 -0.4235  0.0833 -0.5137
 6000TIP3    H239560   6.634   5.219   0.366  0.0554 -0.0873 -0.9982
 6001TIP3   OH239561   2.152   3.719   0.032 -0.5288 -0.0455 -0.0751
 6001TIP3    H139562   2.078   3.667   0.001 -0.3317 -0.2857 -0.1419
 6001TIP3    H239563   2.116   3.808   0.041 -0.5919  0.0245 -0.9677
 6002TIP3   OH239564   6.367   6.333   1.404  0.2160  0.1753  0.3540
 6002TIP3    H139565   6.433   6.370   1.463  0.2218 -0.5159  0.7893
 6002TIP3    H239566   6.414   6.269   1.351 -0.0482 -0.1171  0.4696
 6003TIP3   OH239567   0.661   4.387   1.182 -0.0555  0.0508 -0.0693
 6003TIP3    H139568   0.665   4.297   1.213 -0.9172 -0.1176 -0.4033
 6003TIP3    H239569   0.721   4.390   1.108  2.0455  0.4613  1.5463
 6004TIP3   OH239570   3.287   4.974   1.317  0.3930 -0.2194  0.4255
 6004TIP3    H139571   3.318   5.043   1.258  1.8374 -0.1827  1.1637
 6004TIP3    H239572   3.289   4.894   1.263  1.0286 -0.0744  0.2221
 6005TIP3   OH239573   0.028   5.745   2.360  0.4957  0.2274  0.3783
 6005TIP3    H139574   0.069   5.768   2.276  0.0049 -1.8790 -0.5067
 6005TIP3    H239575   0.096   5.760   2.425  1.1706  1.0816 -0.4997
 6006TIP3   OH239576   4.544   2.014   0.931 -0.0679  0.2401 -0.1320
 6006TIP3    H139577   4.610   1.959   0.974  0.3308  0.6269 -0.2358
 6006TIP3    H239578   4.582   2.102   0.932 -0.0616  0.2716 -1.2194
 6007TIP3   OH239579   0.108   3.395   0.559  0.3531 -0.4144 -0.0882
 6007TIP3    H139580   0.125   3.317   0.507 -1.4609  0.4818 -2.2084
 6007TIP3    H239581   0.013   3.402   0.562  0.4472  1.0797  1.0605
 6008TIP3   OH239582   1.131   6.142   8.065  0.1392 -0.4546 -0.0950
 6008TIP3    H139583   1.160   6.221   8.019 -0.7755 -0.5998 -0.9555
 6008TIP3    H239584   1.133   6.074   7.998  0.6425 -1.1038  0.5765
 6009TIP3   OH239585   4.464   1.017   1.661 -0.2195 -0.0167 -0.1635
 6009TIP3    H139586   4.538   1.000   1.719  0.6077  2.1886 -0.4821
 6009TIP3    H239587   4.472   1.109   1.637 -2.1421 -0.1322 -1.5488
 6010TIP3   OH239588   5.818   5.318   7.482 -0.3024 -0.9045 -0.5750
 6010TIP3    H139589   5.895   5.372   7.465  0.5976 -1.9941 -0.0952
 6010TIP3    H239590   5.852   5.228   7.484 -1.2246 -1.2688  1.6789
 6011TIP3   OH239591   2.121   1.283   7.957 -0.0443 -0.3587  0.5321
 6011TIP3    H139592   2.069   1.332   8.020 -0.0761  0.0977  0.1598
 6011TIP3    H239593   2.175   1.349   7.914 -0.5701 -0.5359 -0.4436
 6012TIP3   OH239594   2.070   6.379   8.284  0.5349  0.4888  0.3554
 6012TIP3    H139595   2.125   6.450   8.249 -0.5061  1.5947  0.8778
 6012TIP3    H239596   2.079   6.387   8.379  0.9556 -0.5543  0.4133
 6013TIP3   OH239597   0.854   1.767   1.738 -0.4699 -0.2408  0.0327
 6013TIP3    H139598   0.940   1.772   1.780 -0.7498 -0.2657  0.6186
 6013TIP3    H239599   0.863   1.697   1.673  0.2948  0.5416 -0.7395
 6014TIP3   OH239600   2.849   4.405   7.632  0.2190 -0.6029 -0.1960
 6014TIP3    H139601   2.856   4.342   7.703  1.9395  0.6002  0.7604
 6014TIP3    H239602   2.805   4.481   7.670  1.3083  0.1213 -0.3228
 6015TIP3   OH239603   6.268   4.884   7.593 -0.3521 -0.5721  0.5264
 6015TIP3    H139604   6.301   4.899   7.505  0.9851  4.5924  1.5606
 6015TIP3    H239605   6.347   4.870   7.646 -0.6969  0.8037  1.4508
 6016TIP3   OH239606   5.927   2.720   7.019 -0.0461 -0.0667  0.0237
 6016TIP3    H139607   5.962   2.636   6.987 -1.9175 -0.0239 -2.3723
 6016TIP3    H239608   5.854   2.696   7.075  0.7858 -0.0294  1.1713
 6017TIP3   OH239609   2.389   4.968   2.455 -0.0355  0.5217 -0.0407
 6017TIP3    H139610   2.481   4.951   2.480 -0.3936 -0.4727  0.7009
 6017TIP3    H239611   2.353   4.881   2.438 -1.1491  0.7938  0.8148
 6018TIP3   OH239612   1.730   4.424   0.582  0.1036 -0.6145  0.4454
 6018TIP3    H139613   1.822   4.403   0.562  1.1822  3.1959  0.5179
 6018TIP3    H239614   1.694   4.454   0.499  0.3354  2.0173  1.2158
 6019TIP3   OH239615   0.020   4.976   6.692  0.0278 -0.1360 -0.4200
 6019TIP3    H139616   0.032   5.000   6.600  0.9830  1.0737 -0.0236
 6019TIP3    H239617   0.060   5.049   6.740 -1.6010 -0.1134  0.9702
 6020TIP3   OH239618   1.786   1.675   8.176  0.3055  0.5273  0.0111
 6020TIP3    H139619   1.798   1.752   8.233  1.3010  1.8418 -1.8827
 6020TIP3    H239620   1.692   1.658   8.180  0.0564  1.8672  0.4668
 6021TIP3   OH239621   2.310   2.843   2.435 -0.1147 -0.1362  0.6082
 6021TIP3    H139622   2.223   2.811   2.411  0.5370 -1.2293 -0.4055
 6021TIP3    H239623   2.317   2.929   2.393  0.2362 -1.1466 -1.5109
 6022TIP3   OH239624   3.367   4.314   1.540  0.1811 -0.1882 -0.2319
 6022TIP3    H139625   3.404   4.231   1.510  0.2363 -0.9881  1.8802
 6022TIP3    H239626   3.439   4.358   1.586 -0.1792  0.4767 -0.2858
 6023TIP3   OH239627   4.448   3.509   2.714  0.2997 -0.4901 -0.1043
 6023TIP3    H139628   4.434   3.494   2.621 -0.3636 -1.3981  0.1267
 6023TIP3    H239629   4.541   3.528   2.722  0.4169 -0.7056 -0.9171
 6024TIP3   OH239630   3.874   6.591   2.290 -0.2776  0.1324 -0.9925
 6024TIP3    H139631   3.955   6.638   2.313 -1.6595  2.4197 -0.4673
 6024TIP3    H239632   3.898   6.499   2.296  2.1357  0.7108 -0.3010
 6025TIP3   OH239633   2.755   0.714   1.919  0.4438 -0.4093 -0.0696
 6025TIP3    H139634   2.737   0.675   1.833  0.2074 -1.3959  0.4185
 6025TIP3    H239635   2.836   0.673   1.948  0.2209 -0.4992  0.4285
 6026TIP3   OH239636   2.965   0.706   7.835 -0.0235 -0.0535  0.6835
 6026TIP3    H139637   2.895   0.728   7.773 -0.3069 -0.5170  0.8314
 6026TIP3    H239638   3.028   0.656   7.783  0.4121  0.7325  0.4489
 6027TIP3   OH239639   2.675   5.373   7.255 -0.1435 -0.2900  0.4425
 6027TIP3    H139640   2.735   5.310   7.295  0.7661  0.7810  0.7939
 6027TIP3    H239641   2.698   5.457   7.295 -1.3807  0.2660  0.0307
 6028TIP3   OH239642   6.357   3.087   8.116  0.3987  0.5881 -0.6066
 6028TIP3    H139643   6.402   3.168   8.093  0.9293  0.2086 -0.9363
 6028TIP3    H239644   6.348   3.040   8.033 -0.6053  0.6513 -0.5480
 6029TIP3   OH239645   6.293   6.204   1.065 -0.2190 -0.0009 -0.1817
 6029TIP3    H139646   6.360   6.197   0.997 -0.6694 -0.7270 -0.5586
 6029TIP3    H239647   6.335   6.170   1.144 -0.6002 -1.8764 -0.7500
 6030TIP3   OH239648   6.870   6.188   7.404  0.0972 -0.3971 -0.2767
 6030TIP3    H139649   6.879   6.116   7.467  0.7551  0.1414  0.2659
 6030TIP3    H239650   6.845   6.263   7.456 -1.5243 -0.4164 -0.9690
 6031TIP3   OH239651   6.262   4.491   1.110 -0.2635  0.0189  0.3502
 6031TIP3    H139652   6.311   4.437   1.047  0.5506  0.4008  0.6424
 6031TIP3    H239653   6.261   4.440   1.190 -1.9751 -0.8177 -0.1539
 6032TIP3   OH239654   2.638   3.986   7.992 -0.3669  0.3528 -0.7665
 6032TIP3    H139655   2.708   3.989   7.926  0.4234  0.4661  0.0465
 6032TIP3    H239656   2.656   4.062   8.048  0.0961 -0.7781  0.6639
 6033TIP3   OH239657   1.408   3.486   7.649  0.0399 -0.8287 -0.5902
 6033TIP3    H139658   1.455   3.403   7.659 -0.0691 -0.7506  0.7335
 6033TIP3    H239659   1.325   3.473   7.695 -1.1284 -0.8230 -2.5348
 6034TIP3   OH239660   6.758   4.366   0.161 -0.0104 -0.7944 -0.3462
 6034TIP3    H139661   6.848   4.333   0.163  0.7437  1.1653 -0.0965
 6034TIP3    H239662   6.730   4.352   0.070  0.9228 -0.4518 -0.6965
 6035TIP3   OH239663   4.397   3.504   1.134  0.2962  0.3158  0.4250
 6035TIP3    H139664   4.451   3.575   1.170 -0.7851  1.8939 -0.8927
 6035TIP3    H239665   4.458   3.449   1.086  0.8647  1.7718 -0.6052
 6036TIP3   OH239666   4.632   0.247   1.048 -0.1835 -0.3889 -0.4074
 6036TIP3    H139667   4.628   0.214   0.958  0.8511 -0.2441 -0.5221
 6036TIP3    H239668   4.644   0.169   1.102  0.0459 -0.3967 -0.4714
 6037TIP3   OH239669   4.289   0.121   7.199 -0.2766 -0.3942 -0.6068
 6037TIP3    H139670   4.213   0.114   7.257  0.7751 -1.8793  0.6882
 6037TIP3    H239671   4.269   0.062   7.126 -1.4702  1.2485 -1.6726
 6038TIP3   OH239672   6.157   5.048   8.148 -0.1025 -0.2070 -0.1547
 6038TIP3    H139673   6.210   5.043   8.068 -0.8173  0.3993 -0.6826
 6038TIP3    H239674   6.080   5.100   8.123 -0.4980 -0.2829  0.8424
 6039TIP3   OH239675   3.566   4.344   7.001 -0.9888  0.1077  0.3433
 6039TIP3    H139676   3.515   4.271   7.035 -0.2891 -1.2328 -1.3227
 6039TIP3    H239677   3.654   4.330   7.035 -0.9558  0.4550  0.4061
 6040TIP3   OH239678   3.817   4.456   0.222  0.2489 -1.0455 -1.0784
 6040TIP3    H139679   3.737   4.411   0.250  1.3220 -2.6735 -0.4265
 6040TIP3    H239680   3.788   4.543   0.195 -1.5504 -1.1107  0.4280
 6041TIP3   OH239681   2.036   3.477   0.647 -0.7933  0.4818 -0.0163
 6041TIP3    H139682   2.105   3.477   0.580 -2.2225  0.6116 -1.5589
 6041TIP3    H239683   2.073   3.528   0.720  0.9271  0.0803 -0.5669
 6042TIP3   OH239684   3.673   5.519   7.766 -0.2871 -0.7369  0.3032
 6042TIP3    H139685   3.656   5.521   7.860 -0.1315  1.1707  0.3253
 6042TIP3    H239686   3.598   5.565   7.728  0.5245  0.0867 -0.3318
 6043TIP3   OH239687   0.479   1.408   2.322  0.6759 -0.0131  0.1440
 6043TIP3    H139688   0.428   1.332   2.294  4.0160 -1.7957 -1.7206
 6043TIP3    H239689   0.494   1.395   2.415 -0.0714 -0.8174  0.1572
 6044TIP3   OH239690   0.767   5.085   6.983 -0.1259 -0.1462 -0.1785
 6044TIP3    H139691   0.705   5.015   6.963  0.0500 -0.2250 -0.4638
 6044TIP3    H239692   0.851   5.041   6.993 -0.0432  0.0057 -0.1979
 6045TIP3   OH239693   6.791   6.480   8.035 -0.2541 -0.2773 -0.7824
 6045TIP3    H139694   6.877   6.452   8.006  0.4774  2.8404 -1.9503
 6045TIP3    H239695   6.779   6.567   7.997 -2.8288  0.5130  1.4820
 6046TIP3   OH239696   2.560   0.186   1.416  0.9250  0.3022  0.0640
 6046TIP3    H139697   2.617   0.263   1.418 -2.2504  2.8499  0.6177
 6046TIP3    H239698   2.537   0.175   1.324 -1.8937  2.8414  0.3212
 6047TIP3   OH239699   5.366   1.993   1.350 -0.2670 -0.2001  0.1873
 6047TIP3    H139700   5.437   2.040   1.307  0.4799 -1.0647  0.4357
 6047TIP3    H239701   5.322   1.945   1.280 -0.0519 -0.3541  0.1578
 6048TIP3   OH239702   1.869   4.654   7.743  0.2003 -0.1759  0.5319
 6048TIP3    H139703   1.920   4.728   7.776 -0.2608  0.3012  0.1883
 6048TIP3    H239704   1.883   4.585   7.808  2.3330 -0.5112 -0.2020
 6049TIP3   OH239705   3.117   4.864   7.490 -0.6433  0.0001 -0.3399
 6049TIP3    H139706   3.117   4.924   7.564  2.9606 -0.6528  0.3922
 6049TIP3    H239707   3.102   4.778   7.529 -1.2398 -0.0748 -0.7314
 6050TIP3   OH239708   5.646   3.879   7.227 -0.2068 -0.0817  0.1491
 6050TIP3    H139709   5.667   3.866   7.135 -1.5022 -0.2361 -0.1543
 6050TIP3    H239710   5.608   3.796   7.256  1.7898 -0.6415  1.3321
 6051TIP3   OH239711   1.247   4.731   2.786  0.1619  0.1346 -0.1809
 6051TIP3    H139712   1.292   4.695   2.863 -0.8662 -0.5126  0.1239
 6051TIP3    H239713   1.316   4.777   2.738  1.0716 -0.5193  0.4740
 6052TIP3   OH239714   5.874   2.184   1.340 -0.0847  0.3302 -0.6743
 6052TIP3    H139715   5.896   2.219   1.427 -2.6713 -0.9941  0.6236
 6052TIP3    H239716   5.880   2.260   1.282 -0.9520  1.9136  1.1767
 6053TIP3   OH239717   6.758   6.469   2.119  0.0874  0.0778  0.2700
 6053TIP3    H139718   6.715   6.460   2.204 -0.2084 -1.5918 -0.0102
 6053TIP3    H239719   6.811   6.390   2.111  0.4630  0.4291 -0.9077
 6054TIP3   OH239720   0.654   5.266   0.291  0.0964 -0.1633 -0.4171
 6054TIP3    H139721   0.634   5.239   0.201  0.4794  0.4915 -0.7029
 6054TIP3    H239722   0.637   5.360   0.293 -1.7721 -0.4751  0.7290
 6055TIP3   OH239723   1.420   2.796   1.422  0.0207  0.1598  0.1862
 6055TIP3    H139724   1.435   2.849   1.344 -0.3844  1.2797  0.8471
 6055TIP3    H239725   1.342   2.833   1.463  1.1458  0.6792  1.9995
 6056TIP3   OH239726   0.709   1.808   0.029 -0.1201  0.2296  0.4575
 6056TIP3    H139727   0.742   1.872  -0.035 -3.1469  0.9283 -0.6059
 6056TIP3    H239728   0.672   1.738  -0.025 -0.3737 -0.4817  1.5280
 6057TIP3   OH239729   0.017   3.752   7.188 -0.0457  0.1528 -0.0302
 6057TIP3    H139730   0.050   3.841   7.175  1.7041 -0.5050 -0.3527
 6057TIP3    H239731  -0.006   3.749   7.281  0.6156  0.7318  0.1657
 6058TIP3   OH239732   3.327   4.501   7.058 -0.4753 -0.6564  0.2604
 6058TIP3    H139733   3.415   4.464   7.059 -0.7520 -1.3370 -0.2233
 6058TIP3    H239734   3.328   4.561   6.983  0.5176  1.7467  2.0426
 6059TIP3   OH239735   6.218   6.716   2.112 -0.3646  0.2458  0.0066
 6059TIP3    H139736   6.295   6.662   2.093 -1.2090 -0.2861 -2.2531
 6059TIP3    H239737   6.151   6.653   2.139 -1.2765  0.0642 -2.3876
 6060TIP3   OH239738   2.893   5.298   6.611  0.1475  0.1894 -0.1979
 6060TIP3    H139739   2.872   5.205   6.621 -1.4129  0.5765  0.3235
 6060TIP3    H239740   2.926   5.325   6.697 -0.6990  0.4129  0.0716
 6061TIP3   OH239741   6.107   2.646   1.093 -0.8061 -0.0853 -0.3326
 6061TIP3    H139742   6.015   2.672   1.084 -1.0230  0.0807  1.8630
 6061TIP3    H239743   6.148   2.721   1.136 -0.2108 -1.1698  1.0249
 6062TIP3   OH239744   3.480   3.573   7.033  0.8982  0.2175  0.1904
 6062TIP3    H139745   3.506   3.532   7.116 -0.4917 -0.9934  0.0618
 6062TIP3    H239746   3.521   3.519   6.966 -0.4106 -0.6393  0.0397
 6063TIP3   OH239747   4.166   4.704   0.788 -0.4438 -0.3581  0.3145
 6063TIP3    H139748   4.237   4.708   0.851  0.2475 -0.1132 -0.4665
 6063TIP3    H239749   4.208   4.718   0.703 -1.5464  0.8753 -0.0724
 6064TIP3   OH239750   4.036   1.972   8.163 -1.0894  0.0565 -0.0835
 6064TIP3    H139751   4.071   2.014   8.242  0.6580  0.0971 -0.8290
 6064TIP3    H239752   4.007   2.045   8.108 -0.0776  0.1957 -0.4587
 6065TIP3   OH239753   6.449   1.851   7.453 -0.2401  0.0096  0.1128
 6065TIP3    H139754   6.391   1.919   7.419 -1.5250 -0.7156  0.7671
 6065TIP3    H239755   6.391   1.778   7.474  1.2331 -2.0902 -2.3478
 6066TIP3   OH239756   5.013   2.242   7.911 -0.1150  0.0161  0.4744
 6066TIP3    H139757   4.946   2.206   7.970  1.5162  0.0432  2.4743
 6066TIP3    H239758   5.032   2.329   7.948  0.2356  0.4774 -0.7455
 6067TIP3   OH239759   1.281   6.555   0.537  0.0953 -0.6436  0.4556
 6067TIP3    H139760   1.306   6.640   0.572 -1.0901  0.0314 -0.2249
 6067TIP3    H239761   1.345   6.537   0.469 -0.1256  0.1307  0.0275
 6068TIP3   OH239762   3.868   3.710   2.182  0.2080 -0.4298  0.2415
 6068TIP3    H139763   3.903   3.637   2.233  0.8664 -0.6217 -0.4501
 6068TIP3    H239764   3.896   3.788   2.229  0.9099 -0.6011  0.1261
 6069TIP3   OH239765   5.336   1.302   0.332  0.1017  0.1531  0.0843
 6069TIP3    H139766   5.396   1.276   0.402  0.2303  0.6399  0.1527
 6069TIP3    H239767   5.307   1.390   0.355 -0.4357  0.0297 -0.0872
 6070TIP3   OH239768   2.180   3.155   1.912  0.2314  0.8015 -0.5327
 6070TIP3    H139769   2.166   3.172   2.005 -0.9601  1.5968 -0.8284
 6070TIP3    H239770   2.268   3.118   1.907 -0.5415 -1.4641  1.1499
 6071TIP3   OH239771   4.054   3.429   6.945 -0.2028  0.3055  0.4282
 6071TIP3    H139772   4.131   3.483   6.929 -1.4814  2.1265  0.1429
 6071TIP3    H239773   4.035   3.388   6.860  0.1213  0.2851  0.3656
 6072TIP3   OH239774   0.406   3.891   8.117  0.0711  0.1459  0.1721
 6072TIP3    H139775   0.405   3.801   8.151  0.1849 -0.6888 -1.8634
 6072TIP3    H239776   0.497   3.907   8.096 -0.0696  0.4379 -0.2151
 6073TIP3   OH239777   1.935   2.837   0.929  0.2679 -0.2212 -0.5361
 6073TIP3    H139778   1.917   2.747   0.903 -1.8685 -0.6480  1.9407
 6073TIP3    H239779   1.848   2.876   0.942  1.1310  1.2570  1.3463
 6074TIP3   OH239780   0.272   1.204   7.528 -0.0920  0.3086  0.2048
 6074TIP3    H139781   0.332   1.152   7.475 -0.1991 -0.7393  1.0736
 6074TIP3    H239782   0.211   1.141   7.565  0.1176  0.9588  1.7389
 6075TIP3   OH239783   3.931   3.531   2.382  0.0406  0.0969  0.6269
 6075TIP3    H139784   4.026   3.525   2.386  0.0551 -0.1497 -0.0513
 6075TIP3    H239785   3.903   3.519   2.473  0.6852  0.8630  0.9359
 6076TIP3   OH239786   1.237   4.825   8.361  0.0990  0.1567  0.0847
 6076TIP3    H139787   1.157   4.856   8.402 -0.3845 -0.8543 -0.0607
 6076TIP3    H239788   1.251   4.884   8.287 -1.4046 -0.6061 -0.8533
 6077TIP3   OH239789   4.206   5.038   1.023 -0.4923  0.5513  0.0837
 6077TIP3    H139790   4.111   5.045   1.033 -0.9455 -1.9748 -1.7200
 6077TIP3    H239791   4.220   5.025   0.929  1.5286 -0.3121  0.4506
 6078TIP3   OH239792   6.844   2.245   0.780 -0.4615  0.1799 -0.2130
 6078TIP3    H139793   6.935   2.247   0.810 -0.5977 -0.7877  0.2819
 6078TIP3    H239794   6.798   2.303   0.842 -0.1937  0.6682 -0.4619
 6079TIP3   OH239795   0.763   4.570   1.805 -0.3328 -0.3603 -0.3601
 6079TIP3    H139796   0.780   4.542   1.895 -0.3453 -0.7015 -0.4616
 6079TIP3    H239797   0.784   4.493   1.752  3.7814  1.0098 -1.0575
 6080TIP3   OH239798   4.822   1.710   7.626  0.3665 -0.0824 -0.3437
 6080TIP3    H139799   4.825   1.674   7.715 -0.3288 -1.3145 -0.8005
 6080TIP3    H239800   4.747   1.770   7.628 -0.1644 -0.7386 -0.3180
 6081TIP3   OH239801   6.741   2.877   1.990 -0.3685 -0.3414 -0.2978
 6081TIP3    H139802   6.661   2.861   1.939 -0.9246  0.3100  0.3313
 6081TIP3    H239803   6.764   2.791   2.026  0.8444 -1.1118 -2.7254
 6082TIP3   OH239804   3.269   1.717   7.725  0.7676 -0.0722 -0.6456
 6082TIP3    H139805   3.343   1.657   7.727  0.8129 -0.0265  1.2039
 6082TIP3    H239806   3.207   1.678   7.664  1.7214 -0.8429 -1.1396
 6083TIP3   OH239807   4.947   1.850   1.378 -0.2483  0.1797  0.2538
 6083TIP3    H139808   4.903   1.781   1.328 -0.9765  0.1699  0.8759
 6083TIP3    H239809   4.881   1.877   1.442  0.6379  0.2398  1.1527
 6084TIP3   OH239810   5.370   4.546   1.910 -0.2575  0.2251 -0.2507
 6084TIP3    H139811   5.281   4.559   1.877 -0.3625  0.0063 -0.0630
 6084TIP3    H239812   5.421   4.617   1.871 -0.2003 -0.4960 -1.5450
 6085TIP3   OH239813   0.857   6.305   1.612  0.6524 -0.1873  0.5645
 6085TIP3    H139814   0.877   6.377   1.673  1.3836 -0.6230  0.8519
 6085TIP3    H239815   0.840   6.230   1.669 -0.7940 -0.0911  0.2889
 6086TIP3   OH239816   0.770   2.779   6.860 -0.6094  0.1100  0.1563
 6086TIP3    H139817   0.731   2.750   6.943  1.6008 -0.0958  1.2004
 6086TIP3    H239818   0.825   2.853   6.884 -1.2532  1.1698 -1.4625
 6087TIP3   OH239819   2.980   0.573   1.796 -0.3043 -0.1195 -0.1151
 6087TIP3    H139820   2.985   0.625   1.716  2.0812  0.3782  0.2584
 6087TIP3    H239821   2.996   0.483   1.768 -1.0273 -0.1784 -0.3593
 6088TIP3   OH239822   0.358   4.880   7.164  0.6134 -0.1693  0.3331
 6088TIP3    H139823   0.391   4.806   7.213  1.1818 -0.3654 -0.3263
 6088TIP3    H239824   0.403   4.876   7.080  0.8597  1.0745  0.3790
 6089TIP3   OH239825   1.688   7.000   6.505 -0.3239 -0.2481 -0.3620
 6089TIP3    H139826   1.653   7.089   6.495  1.2910  0.5991  0.8840
 6089TIP3    H239827   1.657   6.953   6.428 -0.3252  1.7093 -1.6293
 6090TIP3   OH239828   0.979   1.547   1.634 -0.2765 -0.1748  0.1648
 6090TIP3    H139829   1.045   1.597   1.683 -0.1971 -0.4003  0.2926
 6090TIP3    H239830   1.027   1.472   1.600 -0.0653  0.5815 -1.2626
 6091TIP3   OH239831   0.168   3.984   1.204 -0.4943  0.1523  0.0599
 6091TIP3    H139832   0.203   4.027   1.282 -0.8728  0.0592  0.2844
 6091TIP3    H239833   0.243   3.939   1.166 -0.0648  1.1046 -0.2451
 6092TIP3   OH239834   0.674   0.331   7.037  0.0636  0.7290 -0.1272
 6092TIP3    H139835   0.611   0.258   7.035 -1.2048  1.8078 -1.1299
 6092TIP3    H239836   0.740   0.303   7.101 -2.0654  0.0477  1.9270
 6093TIP3   OH239837   4.280   5.508   2.232 -0.1736  0.1333 -0.0010
 6093TIP3    H139838   4.195   5.468   2.214 -0.1826 -0.0514  0.4528
 6093TIP3    H239839   4.336   5.435   2.257  0.2557  0.1881 -0.7573
 6094TIP3   OH239840   2.556   6.927   0.173 -0.3626 -0.5608 -0.0873
 6094TIP3    H139841   2.463   6.932   0.148  0.1816 -0.1144 -2.2028
 6094TIP3    H239842   2.565   6.840   0.211 -1.6405 -0.6385  0.1025
 6095TIP3   OH239843   6.435   3.866   1.970 -0.3667 -0.5508  0.9437
 6095TIP3    H139844   6.394   3.894   2.051  0.9400 -1.0690  1.8265
 6095TIP3    H239845   6.516   3.823   1.998  0.3559 -0.3065 -0.6642
 6096TIP3   OH239846   6.747   5.558   8.001 -0.2576 -1.0461 -0.1414
 6096TIP3    H139847   6.831   5.558   7.954 -0.7107 -0.9752 -0.9731
 6096TIP3    H239848   6.722   5.651   8.005 -1.6435 -1.2298 -2.4318
 6097TIP3   OH239849   0.748   6.094   0.034  0.0788  0.4147  0.4713
 6097TIP3    H139850   0.790   6.060  -0.044  1.9646  1.2580  1.0577
 6097TIP3    H239851   0.654   6.095   0.013  0.5299  0.5203 -1.7090
 6098TIP3   OH239852   2.337   3.721   1.725 -0.3393  0.5739 -0.3987
 6098TIP3    H139853   2.383   3.689   1.647  2.5839  0.0337  1.4063
 6098TIP3    H239854   2.245   3.723   1.699  0.5992  2.0725 -4.4216
 6099TIP3   OH239855   2.621   5.609   7.991 -0.1468 -0.4520  0.3144
 6099TIP3    H139856   2.618   5.687   7.935 -0.2338  0.0885  1.0457
 6099TIP3    H239857   2.566   5.632   8.066 -1.0455 -1.6340  0.0417
 6100TIP3   OH239858   2.627   3.392   1.790  0.1299 -0.0918  0.0415
 6100TIP3    H139859   2.668   3.347   1.863 -0.9008  0.2755  0.8620
 6100TIP3    H239860   2.589   3.471   1.828  0.4089  0.6026 -1.0630
 6101TIP3   OH239861   6.532   3.793   0.936 -0.7126  0.1652  0.2049
 6101TIP3    H139862   6.460   3.849   0.965  0.2258  1.6382 -0.1878
 6101TIP3    H239863   6.600   3.806   1.003 -0.2381  0.0330 -0.2448
 6102TIP3   OH239864   2.333   4.010   0.605 -0.4240 -0.7560 -0.0661
 6102TIP3    H139865   2.382   4.073   0.553 -1.4044 -0.8382 -1.1188
 6102TIP3    H239866   2.339   4.043   0.695  4.4547 -2.5591  0.5474
 6103TIP3   OH239867   1.678   3.515   7.225 -0.3125  0.1976 -0.1332
 6103TIP3    H139868   1.665   3.423   7.201  0.5414 -0.4523  1.7306
 6103TIP3    H239869   1.695   3.559   7.142 -1.6276 -1.1351 -1.1770
 6104TIP3   OH239870   2.559   6.781   0.525 -0.4200 -0.1342 -0.4532
 6104TIP3    H139871   2.626   6.840   0.561 -0.7039  0.7082 -1.2637
 6104TIP3    H239872   2.527   6.732   0.601 -0.2405  0.8286  0.2626
 6105TIP3   OH239873   5.118   2.830   1.781 -0.7260 -0.0638  0.5429
 6105TIP3    H139874   5.052   2.883   1.826 -0.2918  0.9079  0.0818
 6105TIP3    H239875   5.198   2.883   1.785 -0.5110 -0.2377 -0.7591
 6106TIP3   OH239876   4.743   4.929   1.909  0.2239  0.3909  0.2931
 6106TIP3    H139877   4.731   4.854   1.851  0.3599 -0.7355  1.6533
 6106TIP3    H239878   4.827   4.968   1.882  1.2489 -1.2710  0.9247
 6107TIP3   OH239879   1.917   5.125   0.253 -0.1227 -0.0617 -0.2136
 6107TIP3    H139880   1.843   5.150   0.198 -1.0203 -0.8216  0.6330
 6107TIP3    H239881   1.983   5.193   0.237 -0.7226  0.2430 -1.4968
 6108TIP3   OH239882   6.048   2.073   6.205  0.1292  0.3919 -0.1854
 6108TIP3    H139883   6.055   2.095   6.298 -1.3361  0.6881 -0.1286
 6108TIP3    H239884   6.104   1.996   6.195  1.0049  0.8883  0.7447
 6109TIP3   OH239885   6.289   4.478   1.997  0.3244 -0.3812 -0.3229
 6109TIP3    H139886   6.243   4.504   2.077 -0.2179 -0.4515 -0.6076
 6109TIP3    H239887   6.258   4.539   1.931  3.0097  1.6451  0.1290
 6110TIP3   OH239888   5.001   5.749   8.229  0.0999 -0.0766  0.0062
 6110TIP3    H139889   4.961   5.711   8.307  1.9731  0.9043  1.5063
 6110TIP3    H239890   4.978   5.842   8.234  0.8275  0.1170 -0.2318
 6111TIP3   OH239891   3.800   1.871   7.153 -0.0798  0.4408 -0.0309
 6111TIP3    H139892   3.719   1.919   7.174  0.7210  2.0156 -0.3743
 6111TIP3    H239893   3.832   1.913   7.072  2.0928  1.2180  1.1532
 6112TIP3   OH239894   0.046   2.036   7.234  0.6605 -0.1114  0.1471
 6112TIP3    H139895  -0.020   1.967   7.240 -0.3744  0.7704 -0.8223
 6112TIP3    H239896   0.073   2.051   7.324  0.3686 -1.2634  0.4470
 6113TIP3   OH239897   2.956   2.942   3.085  0.2029  0.2776 -0.0638
 6113TIP3    H139898   2.877   2.891   3.108  0.0446  1.0169  1.1177
 6113TIP3    H239899   2.922   3.025   3.053  0.4996  0.4884  0.1707
 6114TIP3   OH239900   5.564   5.274   0.338  0.7851  0.3220  0.2164
 6114TIP3    H139901   5.638   5.274   0.400 -0.3696 -1.3255  1.6917
 6114TIP3    H239902   5.575   5.355   0.288  2.8321  0.7876  1.2981
 6115TIP3   OH239903   3.140   1.592   8.121 -0.3285 -0.0966  0.2002
 6115TIP3    H139904   3.161   1.535   8.195  0.7873  0.1248  0.0627
 6115TIP3    H239905   3.075   1.654   8.157  0.3720  0.1571  1.0656
 6116TIP3   OH239906   2.529   6.227   7.881  0.0625  0.4437  0.1123
 6116TIP3    H139907   2.502   6.182   7.801  0.3215  2.2515 -1.0534
 6116TIP3    H239908   2.619   6.255   7.864  0.5894 -0.2629  1.5751
 6117TIP3   OH239909   0.660   2.514   1.877 -0.3215  0.2779  0.0832
 6117TIP3    H139910   0.708   2.560   1.808 -0.0514 -0.8751 -0.5097
 6117TIP3    H239911   0.693   2.553   1.958  0.6560  0.4270 -0.3690
 6118TIP3   OH239912   3.765   4.376   1.140  0.3771  0.1575 -0.1853
 6118TIP3    H139913   3.693   4.418   1.092 -0.2611 -1.1911 -0.4693
 6118TIP3    H239914   3.844   4.418   1.105 -0.1634  0.2729 -1.3405
 6119TIP3   OH239915   6.761   5.351   1.874  0.0108  0.7125 -0.3554
 6119TIP3    H139916   6.776   5.293   1.948  0.4086  1.4993  0.1994
 6119TIP3    H239917   6.846   5.392   1.857  0.5125 -1.1238 -2.7441
 6120TIP3   OH239918   4.106   5.961   7.628  0.2064  0.1775 -0.1175
 6120TIP3    H139919   4.183   5.921   7.669  0.0190 -0.5873 -0.4927
 6120TIP3    H239920   4.064   5.889   7.580  0.5594  1.0861 -1.8728
 6121TIP3   OH239921   4.197   1.101   2.636  0.3494 -0.3428  0.3351
 6121TIP3    H139922   4.152   1.063   2.561  0.8939 -1.0329  0.3495
 6121TIP3    H239923   4.284   1.122   2.603  1.0396 -1.8530  1.0807
 6122TIP3   OH239924   6.821   6.452   6.848  0.4618 -0.1779  0.2431
 6122TIP3    H139925   6.798   6.430   6.757  0.9131 -0.5396  0.2096
 6122TIP3    H239926   6.901   6.504   6.841  1.6828 -1.9329  0.5127
 6123TIP3   OH239927   2.531   2.247   7.002 -0.1043 -0.0817  0.1459
 6123TIP3    H139928   2.453   2.202   6.970 -0.3925  0.3951  0.1716
 6123TIP3    H239929   2.501   2.335   7.023 -0.0640 -0.5374  2.2839
 6124TIP3   OH239930   4.426   2.825   6.783 -0.1344 -0.3453  0.7329
 6124TIP3    H139931   4.512   2.824   6.741 -0.9008 -0.7573 -0.8612
 6124TIP3    H239932   4.426   2.747   6.839 -0.4314 -1.8575 -1.2968
 6125TIP3   OH239933   1.468   3.673   7.275  0.4842 -0.3028  0.9345
 6125TIP3    H139934   1.543   3.620   7.246  0.4518 -1.0211  2.0732
 6125TIP3    H239935   1.391   3.620   7.254  0.1165  1.1130 -1.6960
 6126TIP3   OH239936   2.771   3.090   7.080 -0.3748 -0.3552  0.3177
 6126TIP3    H139937   2.738   3.172   7.044  0.4837 -0.5274 -0.9542
 6126TIP3    H239938   2.842   3.116   7.139 -0.8654 -0.1319  0.8112
 6127TIP3   OH239939   6.236   2.749   1.605  0.3780  0.4998  0.0560
 6127TIP3    H139940   6.311   2.709   1.561 -0.0063 -0.7910  0.5241
 6127TIP3    H239941   6.268   2.833   1.635  1.2662  0.5074 -0.8483
 6128TIP3   OH239942   1.366   1.765   3.148  0.1952  0.9153 -0.3767
 6128TIP3    H139943   1.365   1.832   3.217 -1.0462  0.4577  0.0794
 6128TIP3    H239944   1.337   1.811   3.069  1.4308  1.3950 -0.5794
 6129TIP3   OH239945   5.368   6.899   2.079  0.1034 -0.2445  0.0930
 6129TIP3    H139946   5.456   6.937   2.074 -0.6095  1.4079 -0.5693
 6129TIP3    H239947   5.320   6.955   2.139 -0.7034 -0.6878 -0.1161
 6130TIP3   OH239948   0.138   5.067   1.740 -0.3217  0.2634  0.0059
 6130TIP3    H139949   0.094   4.982   1.748  0.3974 -0.5107 -2.8916
 6130TIP3    H239950   0.074   5.123   1.697 -0.5011  0.9599  1.1582
 6131TIP3   OH239951   4.065   0.306   0.068  0.4537  0.1026 -0.6354
 6131TIP3    H139952   4.020   0.261  -0.004 -0.6016  0.9915 -0.5695
 6131TIP3    H239953   4.037   0.260   0.147 -1.3586  1.3565 -0.4784
 6132TIP3   OH239954   2.787   2.636   6.574 -0.3531 -0.2372  0.0408
 6132TIP3    H139955   2.717   2.663   6.515  0.2375  0.1018 -0.5173
 6132TIP3    H239956   2.848   2.710   6.574 -0.2778 -0.2965  0.9672
 6133TIP3   OH239957   2.533   2.719   7.919 -0.8700  0.4959  0.2607
 6133TIP3    H139958   2.530   2.813   7.932 -1.6444  0.4586  0.4247
 6133TIP3    H239959   2.460   2.700   7.860 -0.7788 -0.0091  0.3005
 6134TIP3   OH239960   3.921   6.533   7.464  0.0334 -0.5459 -0.5910
 6134TIP3    H139961   3.830   6.511   7.443 -0.1650 -0.7656  0.4059
 6134TIP3    H239962   3.919   6.628   7.482 -0.0330 -0.5756 -0.4358
 6135TIP3   OH239963   5.202   6.719   1.965 -0.1105 -0.1517  0.0004
 6135TIP3    H139964   5.259   6.789   1.995  0.2612 -0.4649  0.0277
 6135TIP3    H239965   5.113   6.755   1.972 -0.2950 -0.9451  3.7126
 6136TIP3   OH239966   0.495   5.153   7.868  0.2249 -0.3607 -0.0723
 6136TIP3    H139967   0.555   5.195   7.806 -0.9530  0.7704 -0.4907
 6136TIP3    H239968   0.509   5.060   7.855  0.1601 -0.1410 -1.9070
 6137TIP3   OH239969   3.082   3.211   8.087  0.1976  0.3728 -0.4489
 6137TIP3    H139970   3.071   3.249   8.174 -0.2068  1.8768 -1.1341
 6137TIP3    H239971   3.030   3.130   8.090  0.1875  0.4041  0.6974
 6138TIP3   OH239972   4.058   3.554   6.587  0.4992 -0.0739 -0.7462
 6138TIP3    H139973   4.129   3.570   6.650  1.2723 -1.7022 -1.1704
 6138TIP3    H239974   4.025   3.468   6.610 -0.4676  0.1095 -1.4112
 6139TIP3   OH239975   1.912   5.606   1.870 -0.6621 -0.2772  0.1656
 6139TIP3    H139976   1.871   5.691   1.883 -2.1419 -0.8449 -0.5397
 6139TIP3    H239977   1.941   5.579   1.957 -1.0669  0.5029  0.5518
 6140TIP3   OH239978   3.847   1.881   7.602  0.2967  0.0589 -0.1834
 6140TIP3    H139979   3.790   1.958   7.606  0.9566  0.6149 -1.1525
 6140TIP3    H239980   3.824   1.838   7.520  0.8660 -0.0366 -0.2950
 6141TIP3   OH239981   1.749   0.360   7.155 -0.3855  0.6999  0.3324
 6141TIP3    H139982   1.798   0.311   7.222  0.3033 -1.7315 -1.7828
 6141TIP3    H239983   1.658   0.331   7.166  0.0631 -1.4615 -1.1029
 6142TIP3   OH239984   2.084   0.882   0.151 -0.2044 -0.6844 -0.2049
 6142TIP3    H139985   2.026   0.812   0.180  0.3833 -1.2913 -0.4572
 6142TIP3    H239986   2.075   0.884   0.056 -0.2504 -0.3810 -0.1970
 6143TIP3   OH239987   5.808   5.480   7.010  0.4464 -0.2728  0.6001
 6143TIP3    H139988   5.808   5.434   6.926  0.6575 -0.6406  0.7986
 6143TIP3    H239989   5.901   5.492   7.030  0.4416 -1.6034  1.5409
 6144TIP3   OH239990   5.745   2.367   0.938 -0.2527  0.3638 -0.1775
 6144TIP3    H139991   5.670   2.315   0.966 -0.6871  1.5889  1.0563
 6144TIP3    H239992   5.708   2.432   0.878  0.0753  0.0625 -0.7147
 6145TIP3   OH239993   0.006   4.138   2.551  0.2632  0.0322 -0.3808
 6145TIP3    H139994  -0.064   4.194   2.519 -0.6100 -0.6711  0.2442
 6145TIP3    H239995   0.019   4.074   2.481  0.4057  0.2733 -0.5745
 6146TIP3   OH239996   6.525   1.567   8.287 -0.8984  0.4316  0.0584
 6146TIP3    H139997   6.567   1.625   8.224 -0.3368 -0.0800 -0.0482
 6146TIP3    H239998   6.553   1.479   8.261 -0.1976  0.2439  1.3359
 6147TIP3   OH239999   5.574   0.108   2.300  0.0769 -0.5895 -0.3059
 6147TIP3    H140000   5.630   0.053   2.354 -0.2033 -0.5841 -0.0049
 6147TIP3    H240001   5.492   0.059   2.293  0.4159 -1.0181 -1.4982
 6148TIP3   OH240002   4.717   5.282   0.257 -0.6250 -0.2759  0.3990
 6148TIP3    H140003   4.795   5.308   0.305 -0.0771  0.8553 -1.0291
 6148TIP3    H240004   4.645   5.327   0.302 -0.2157  0.1819  0.6024
 6149TIP3   OH240005   2.815   7.000   1.204 -0.3249  0.3023  0.3286
 6149TIP3    H140006   2.832   6.968   1.292  0.5663 -0.0206  0.0518
 6149TIP3    H240007   2.851   7.089   1.203 -1.4432  0.7721  0.6477
 6150TIP3   OH240008   2.886   5.500   6.436  1.1690  0.0320 -0.3402
 6150TIP3    H140009   2.885   5.417   6.483  1.0436  1.1056  1.7120
 6150TIP3    H240010   2.848   5.562   6.498  0.5927  1.4954 -2.0771
 6151TIP3   OH240011   4.301   2.360   0.943  0.2103  0.2504 -0.4175
 6151TIP3    H140012   4.208   2.377   0.932  0.3402  0.7113 -0.8812
 6151TIP3    H240013   4.321   2.389   1.032 -0.0591  0.2904 -0.3704
 6152TIP3   OH240014   3.373   1.688   0.923 -0.2820 -0.1537 -0.3420
 6152TIP3    H140015   3.316   1.643   0.860 -0.7792  0.8224 -0.6026
 6152TIP3    H240016   3.461   1.678   0.887 -0.3257 -1.2277 -0.2017
 6153TIP3   OH240017   0.789   3.729   7.004  0.6083 -0.5473  0.2714
 6153TIP3    H140018   0.736   3.653   6.984  0.1432  0.1482 -1.2705
 6153TIP3    H240019   0.780   3.741   7.099 -1.6878 -0.6744  0.1193
 6154TIP3   OH240020   3.888   3.985   0.030 -0.5626  0.1018 -0.3254
 6154TIP3    H140021   3.820   4.003   0.096 -0.7783 -0.0801 -0.4982
 6154TIP3    H240022   3.935   4.069   0.021 -1.5335  0.5811 -1.0880
 6155TIP3   OH240023   6.498   3.087   0.538 -0.1553 -1.0628 -0.1857
 6155TIP3    H140024   6.471   3.042   0.619 -1.4039  0.5138  0.3059
 6155TIP3    H240025   6.577   3.040   0.511 -0.7338 -2.7973  0.9393
 6156TIP3   OH240026   0.157   1.122   7.209 -0.3209  0.1183 -0.0044
 6156TIP3    H140027   0.082   1.169   7.245 -0.5408  0.2765 -0.6740
 6156TIP3    H240028   0.219   1.190   7.182  0.4479 -0.0142  1.3182
 6157TIP3   OH240029   2.799   5.090   7.335 -0.3634  0.3204  0.3747
 6157TIP3    H140030   2.891   5.098   7.310  0.1410  1.9146  2.4106
 6157TIP3    H240031   2.775   5.001   7.311  1.1808  0.4001 -1.7582
 6158TIP3   OH240032   5.396   6.572   0.782 -0.3692 -0.2878 -0.2180
 6158TIP3    H140033   5.457   6.499   0.766  0.4422  0.5015 -0.8207
 6158TIP3    H240034   5.363   6.556   0.870  0.1816 -1.1160 -0.1456
 6159TIP3   OH240035   6.144   0.467   1.791  0.3331  0.4122  0.5660
 6159TIP3    H140036   6.171   0.557   1.772 -0.3364  0.4824 -0.1110
 6159TIP3    H240037   6.165   0.455   1.884  0.2631  1.3310  0.7113
 6160TIP3   OH240038   0.294   6.410   0.311 -0.2741  0.5898  0.0552
 6160TIP3    H140039   0.303   6.487   0.367 -1.6284 -1.8691  4.0837
 6160TIP3    H240040   0.199   6.395   0.304 -0.0392 -1.2291  0.2202
 6161TIP3   OH240041   3.987   1.259   2.074 -0.3402  0.2545 -0.6372
 6161TIP3    H140042   4.027   1.331   2.122  0.7720 -0.2850 -0.7206
 6161TIP3    H240043   3.941   1.301   2.001  0.3248  0.8889 -0.7054
 6162TIP3   OH240044   1.943   0.919   1.538 -0.1319 -0.0230  0.0931
 6162TIP3    H140045   1.926   0.856   1.607 -1.7140  2.7048  2.4295
 6162TIP3    H240046   1.856   0.953   1.514  0.6969  2.2200 -0.0113
 6163TIP3   OH240047   6.592   0.477   7.012  0.3365 -0.3799 -0.3660
 6163TIP3    H140048   6.566   0.408   6.952 -2.8306 -0.1059  0.4942
 6163TIP3    H240049   6.601   0.555   6.957  1.3263 -0.9248 -0.9811
 6164TIP3   OH240050   5.783   2.002   0.388 -0.0534 -0.1554 -0.5241
 6164TIP3    H140051   5.750   1.918   0.356 -1.1749  0.2025 -0.3430
 6164TIP3    H240052   5.783   2.060   0.312 -2.0626  0.4949 -0.0949
 6165TIP3   OH240053   5.812   4.721   7.524  0.0001  0.1119  0.7766
 6165TIP3    H140054   5.734   4.776   7.523 -0.0679  0.0103  0.6077
 6165TIP3    H240055   5.876   4.771   7.576  0.0452  0.4971  0.3544
 6166TIP3   OH240056   3.497   0.231   0.802 -0.5883  0.1379 -0.1510
 6166TIP3    H140057   3.536   0.281   0.731 -2.6257  2.1476  0.0397
 6166TIP3    H240058   3.523   0.277   0.881 -0.3919 -0.6265  0.2443
 6167TIP3   OH240059   5.094   4.979   1.091  0.0238  0.2979  0.5828
 6167TIP3    H140060   5.025   4.927   1.048 -0.5656  0.6872  1.0385
 6167TIP3    H240061   5.175   4.931   1.073  0.6392  2.5893 -4.7527
 6168TIP3   OH240062   3.622   4.383   1.365  0.1875  0.1890 -0.3251
 6168TIP3    H140063   3.662   4.373   1.278 -0.0591 -1.5327 -0.2898
 6168TIP3    H240064   3.575   4.300   1.378  1.7610 -0.3812  2.2518
 6169TIP3   OH240065   4.554   3.993   1.276  0.1832  0.2029 -0.0200
 6169TIP3    H140066   4.616   4.059   1.308  1.2268 -0.8959  0.2748
 6169TIP3    H240067   4.483   4.045   1.237  1.1081  1.4977 -0.0633
 6170TIP3   OH240068   0.081   3.454   1.970 -0.4617  0.6461  0.2756
 6170TIP3    H140069   0.035   3.536   1.988  0.7663  0.7222  3.7924
 6170TIP3    H240070   0.164   3.482   1.932 -1.6669  0.6646 -2.6717
 6171TIP3   OH240071   4.480   4.118   1.864 -0.4231  0.1294 -0.0189
 6171TIP3    H140072   4.460   4.212   1.865 -0.4755  0.1622 -1.4111
 6171TIP3    H240073   4.450   4.089   1.778 -0.3372 -1.1583  0.3679
 6172TIP3   OH240074   3.633   1.353   0.936  0.7631  0.4372 -0.3960
 6172TIP3    H140075   3.607   1.364   1.027 -1.4453  2.4139 -1.1583
 6172TIP3    H240076   3.555   1.379   0.886  2.2778  0.5442 -2.8573
 6173TIP3   OH240077   2.086   3.310   1.004  0.0141  0.0660  0.3259
 6173TIP3    H140078   2.135   3.252   1.064  1.0918  1.4014  0.7916
 6173TIP3    H240079   2.090   3.396   1.045 -1.9077  0.4257 -0.1559
 6174TIP3   OH240080   4.489   0.485   0.545  0.5755  1.1887  0.6217
 6174TIP3    H140081   4.532   0.538   0.612 -1.6598  1.2364  2.1152
 6174TIP3    H240082   4.561   0.442   0.498  2.2346  1.0769  3.1025
 6175TIP3   OH240083   3.862   2.789   2.115 -0.0006 -0.1924  0.4933
 6175TIP3    H140084   3.947   2.816   2.148 -0.0618  0.9717 -0.2162
 6175TIP3    H240085   3.816   2.755   2.192  1.2122 -1.1773  0.8121
 6176TIP3   OH240086   1.099   3.917   7.022  0.2178  0.1225  0.2799
 6176TIP3    H140087   1.145   3.996   7.051  0.4977 -0.6870  2.1618
 6176TIP3    H240088   1.060   3.881   7.102  0.7692 -2.0792 -0.3861
 6177TIP3   OH240089   6.909   0.330   0.487  0.4939 -0.3156  0.2722
 6177TIP3    H140090   6.951   0.349   0.404 -1.7836 -2.2565 -1.4928
 6177TIP3    H240091   6.865   0.411   0.511 -1.7193 -0.5815 -2.3766
 6178TIP3   OH240092   1.415   6.487   7.246 -0.4970 -0.1998  0.0814
 6178TIP3    H140093   1.343   6.481   7.310 -1.6517 -0.1079 -1.1665
 6178TIP3    H240094   1.449   6.575   7.257 -0.6340 -0.2057  0.6054
 6179TIP3   OH240095   0.430   6.735   6.797 -0.2189  0.0778 -0.2489
 6179TIP3    H140096   0.480   6.815   6.814 -0.7850  0.5388 -0.6979
 6179TIP3    H240097   0.356   6.740   6.857  0.6019 -0.9255  0.8741
 6180TIP3   OH240098   2.046   5.038   0.838  0.4711  0.0899 -0.0327
 6180TIP3    H140099   2.080   5.100   0.902  3.7188 -0.6361 -0.8877
 6180TIP3    H240100   2.082   5.067   0.754  2.0404 -2.7641 -0.4936
 6181TIP3   OH240101   2.228   5.091   1.298 -0.0493  0.2942 -0.2487
 6181TIP3    H140102   2.241   5.159   1.364 -0.3515 -0.2096  0.3406
 6181TIP3    H240103   2.304   5.097   1.241  1.1973 -0.5042  1.2542
 6182TIP3   OH240104   4.803   2.118   7.015 -0.1378  0.1550  0.0857
 6182TIP3    H140105   4.815   2.175   7.091 -1.0194 -0.3022  0.5845
 6182TIP3    H240106   4.855   2.159   6.946 -1.3519  1.9972  0.1848
 6183TIP3   OH240107   1.561   6.370   0.698 -0.7168 -0.1586  0.2089
 6183TIP3    H140108   1.622   6.433   0.660 -0.8497  0.6195  1.2413
 6183TIP3    H240109   1.535   6.315   0.625 -0.8466  1.2013 -0.8054
 6184TIP3   OH240110   1.066   5.089   1.692 -0.5126 -0.0309 -0.2029
 6184TIP3    H140111   1.141   5.029   1.691 -2.2849 -2.4001 -0.7845
 6184TIP3    H240112   1.092   5.159   1.751  2.4377 -0.3223 -0.9852
 6185TIP3   OH240113   2.599   0.339   7.028  0.0012  0.1537  0.1150
 6185TIP3    H140114   2.533   0.381   6.973 -1.8985 -0.1417  2.0609
 6185TIP3    H240115   2.592   0.246   7.008  0.7767  0.2246 -0.5886
 6186TIP3   OH240116   5.630   5.912   1.247 -0.0052 -0.0808  0.3692
 6186TIP3    H140117   5.717   5.896   1.210 -1.3567  0.5460 -3.6444
 6186TIP3    H240118   5.573   5.854   1.197 -2.2814  2.0051  0.3594
 6187TIP3   OH240119   6.261   3.611   1.086 -0.2528  0.0783 -0.1947
 6187TIP3    H140120   6.196   3.653   1.031 -0.4278  0.4042  0.2532
 6187TIP3    H240121   6.254   3.518   1.066 -0.5261  0.1637 -0.4930
 6188TIP3   OH240122   0.731   6.069   1.121 -0.0846 -0.5933  0.4786
 6188TIP3    H140123   0.724   6.149   1.173  0.9321  0.5524 -1.0353
 6188TIP3    H240124   0.823   6.065   1.095 -0.0580 -2.4326  0.7518
 6189TIP3   OH240125   0.625   1.507   8.293 -0.3522 -0.9800  0.2601
 6189TIP3    H140126   0.549   1.464   8.254  0.7456 -1.8541 -1.0208
 6189TIP3    H240127   0.700   1.460   8.258  0.8668  0.9692  0.0558
 6190TIP3   OH240128   0.669   3.251   3.121  0.0998 -0.5017  0.3578
 6190TIP3    H140129   0.606   3.234   3.051 -0.1599  0.8020  0.2577
 6190TIP3    H240130   0.755   3.235   3.081 -0.0780 -0.4472 -0.0519
 6191TIP3   OH240131   6.020   3.882   8.177  0.3784 -0.4155  0.1693
 6191TIP3    H140132   6.091   3.918   8.125  0.7181 -0.8038  0.3538
 6191TIP3    H240133   6.064   3.839   8.251  0.0714 -2.0171 -0.5328
 6192TIP3   OH240134   6.892   6.530   1.102 -0.2793  0.0670 -0.1491
 6192TIP3    H140135   6.869   6.457   1.045 -1.4600  0.3052  0.0060
 6192TIP3    H240136   6.861   6.608   1.056  0.0637  0.3878  0.1522
 6193TIP3   OH240137   1.747   5.554   7.722  0.2829  0.1277  0.1169
 6193TIP3    H140138   1.665   5.517   7.690  0.4786 -0.4277  0.2595
 6193TIP3    H240139   1.731   5.574   7.814  0.9237 -1.8249  0.6812
 6194TIP3   OH240140   0.566   0.421   0.052 -0.0386  0.0436 -0.1483
 6194TIP3    H140141   0.587   0.505   0.093 -2.5478 -0.3497  2.1817
 6194TIP3    H240142   0.646   0.369   0.061  0.9409  1.5166  0.0842
 6195TIP3   OH240143   3.316   3.210   7.116 -0.2232  0.3878  0.0861
 6195TIP3    H140144   3.297   3.144   7.182 -0.9799  1.4679  0.9978
 6195TIP3    H240145   3.373   3.166   7.053  1.0071 -0.5246  1.7664
 6196TIP3   OH240146   0.969   2.197   7.603  0.1290  0.7851  0.0475
 6196TIP3    H140147   1.038   2.239   7.654 -0.0341  1.2248 -0.0931
 6196TIP3    H240148   0.913   2.269   7.573  0.1748  0.5291 -0.6791
 6197TIP3   OH240149   2.636   6.885   1.010 -0.8439  0.2816 -0.0037
 6197TIP3    H140150   2.667   6.968   0.975 -0.9303  0.4755  0.3788
 6197TIP3    H240151   2.689   6.870   1.088 -1.5952  0.5418  0.5713
 6198TIP3   OH240152   5.011   1.921   0.068 -0.3850 -0.6059  0.6539
 6198TIP3    H140153   4.925   1.955   0.093  0.5525  1.7531  0.8824
 6198TIP3    H240154   4.993   1.836   0.028 -2.8587  0.0629  0.2189
 6199TIP3   OH240155   4.518   5.337   1.977 -0.2978  0.6167 -0.3892
 6199TIP3    H140156   4.459   5.402   2.016  0.9948  1.7971 -0.3338
 6199TIP3    H240157   4.544   5.375   1.894  0.4112  0.1266 -0.4008
 6200TIP3   OH240158   5.701   2.840   0.856 -1.1317 -0.0201 -0.3842
 6200TIP3    H140159   5.777   2.831   0.913 -1.0080  1.1865 -0.3318
 6200TIP3    H240160   5.723   2.787   0.779 -0.4581 -0.0906 -0.1532
 6201TIP3   OH240161   2.904   0.539   8.354 -0.5463 -0.1240 -0.5010
 6201TIP3    H140162   2.987   0.493   8.368  0.7765  2.5313  1.1219
 6201TIP3    H240163   2.902   0.555   8.259  0.9734  0.0630 -0.5270
 6202TIP3   OH240164   1.853   4.429   0.207 -0.4745 -0.5177  0.7179
 6202TIP3    H140165   1.839   4.473   0.123  3.0549  1.8151  1.1461
 6202TIP3    H240166   1.820   4.491   0.272 -1.8143 -1.6663  1.1947
 6203TIP3   OH240167   0.885   0.691   7.393  0.1137  0.1047  0.0803
 6203TIP3    H140168   0.837   0.773   7.404  0.4809  0.0869  2.0657
 6203TIP3    H240169   0.918   0.695   7.303  0.7340  2.4827  0.3417
 6204TIP3   OH240170   1.511   3.024   7.391  0.5431 -0.3887  0.2737
 6204TIP3    H140171   1.476   2.977   7.315  0.1739 -0.8110  0.6986
 6204TIP3    H240172   1.554   2.956   7.443  0.8097 -0.0991  0.4330
 6205TIP3   OH240173   3.388   6.466   7.108  0.3770 -0.8442  0.0431
 6205TIP3    H140174   3.335   6.386   7.107 -0.1038 -0.5941  2.1134
 6205TIP3    H240175   3.456   6.449   7.172  1.0013 -0.0312 -0.3864
 6206TIP3   OH240176   1.023   3.804   7.283  0.2648 -0.0109  0.5453
 6206TIP3    H140177   0.964   3.800   7.358  0.3249 -0.7422  0.5631
 6206TIP3    H240178   1.103   3.759   7.313  0.2020 -0.5166 -0.0232
 6207TIP3   OH240179   5.876   5.791   7.043  0.1266 -0.0405 -0.6183
 6207TIP3    H140180   5.856   5.855   6.974 -2.0563 -1.0437 -1.0016
 6207TIP3    H240181   5.951   5.742   7.009  1.2681  1.6830 -0.7046
 6208TIP3   OH240182   1.615   1.875   7.328  0.2344 -0.0885 -0.3126
 6208TIP3    H140183   1.676   1.884   7.401  1.1088  0.6867 -1.1163
 6208TIP3    H240184   1.670   1.864   7.251 -0.5481  1.8535 -1.2330
 6209TIP3   OH240185   0.554   3.505   7.365 -0.3765 -0.8181  0.7571
 6209TIP3    H140186   0.462   3.521   7.389 -0.3705 -1.6400  1.3708
 6209TIP3    H240187   0.556   3.412   7.341 -0.0409 -0.4149 -0.9071
 6210TIP3   OH240188   0.436   1.419   2.742  0.2671 -0.3487  0.5826
 6210TIP3    H140189   0.513   1.399   2.688  1.3762 -0.1860  2.0510
 6210TIP3    H240190   0.362   1.405   2.683  1.3114 -2.1875 -0.4178
 6211TIP3   OH240191   6.399   1.797   8.153  0.4369 -0.4058  0.4881
 6211TIP3    H140192   6.481   1.781   8.107  1.2127 -0.7634  1.9299
 6211TIP3    H240193   6.407   1.887   8.184  0.1945 -0.3774  0.4691
 6212TIP3   OH240194   1.386   2.990   8.265 -0.5391 -0.1782  0.4402
 6212TIP3    H140195   1.343   2.906   8.279 -2.1159  0.5721  0.3093
 6212TIP3    H240196   1.430   2.981   8.180 -0.5699 -0.9086  0.4971
 6213TIP3   OH240197   3.455   4.624   0.809 -0.2354  0.1451 -0.4077
 6213TIP3    H140198   3.388   4.654   0.870  0.5820  0.7537  0.2134
 6213TIP3    H240199   3.443   4.529   0.806  0.4503 -0.0605  1.6548
 6214TIP3   OH240200   6.477   3.102   1.881 -0.4644 -0.0255 -0.5721
 6214TIP3    H140201   6.436   3.180   1.843  2.9696  2.9679  1.2100
 6214TIP3    H240202   6.553   3.085   1.826  0.0680 -0.6738  0.3316
 6215TIP3   OH240203   4.083   6.762   2.300  0.0654 -0.2217 -0.3713
 6215TIP3    H140204   4.092   6.857   2.293 -0.1536 -0.2240 -0.7179
 6215TIP3    H240205   4.169   6.731   2.325  0.0153  0.1179  0.2404
 6216TIP3   OH240206   5.033   4.035   8.219  0.0994 -0.1282  0.3059
 6216TIP3    H140207   5.059   4.059   8.131  1.0758 -0.7417  0.4014
 6216TIP3    H240208   5.113   4.045   8.271 -0.6499  0.9745  1.2890
 6217TIP3   OH240209   0.423   2.400   0.425  0.1965  0.2680  0.2745
 6217TIP3    H140210   0.481   2.468   0.459 -0.7529  0.5701  1.3318
 6217TIP3    H240211   0.441   2.399   0.331  1.2286  1.0018  0.4453
 6218TIP3   OH240212   6.768   2.105   1.893  0.2681 -0.3909  0.0950
 6218TIP3    H140213   6.774   2.079   1.984  0.1977 -0.3399  0.1148
 6218TIP3    H240214   6.846   2.069   1.851 -0.1596 -1.2169 -0.0212
 6219TIP3   OH240215   0.365   2.509   1.854  0.1998  0.2767 -0.3886
 6219TIP3    H140216   0.366   2.583   1.915  1.9475  0.0669 -0.1159
 6219TIP3    H240217   0.450   2.513   1.810 -0.2477 -0.7506 -1.3994
 6220TIP3   OH240218   6.021   5.964   7.640  0.6837 -0.5904  0.0209
 6220TIP3    H140219   6.005   5.943   7.548  0.5789 -1.8175  0.2937
 6220TIP3    H240220   5.943   6.012   7.668  0.6442 -0.3599 -0.4867
 6221TIP3   OH240221   0.626   2.888   0.391 -0.2389  0.3364  0.6786
 6221TIP3    H140222   0.536   2.907   0.366 -0.8474 -2.0718  0.7631
 6221TIP3    H240223   0.645   2.949   0.462 -1.0768  2.2094 -0.6335
 6222TIP3   OH240224   3.199   6.314   8.268 -0.3008 -0.4392 -0.4030
 6222TIP3    H140225   3.117   6.357   8.292 -0.6406 -0.7993 -0.8875
 6222TIP3    H240226   3.260   6.385   8.251 -0.7686 -0.1496 -0.9056
 6223TIP3   OH240227   3.458   1.108   2.005 -0.3307 -0.5114  0.7675
 6223TIP3    H140228   3.448   1.188   1.954  3.5068  1.0316  2.1123
 6223TIP3    H240229   3.393   1.116   2.076 -1.7373  0.0686 -0.5328
 6224TIP3   OH240230   0.925   6.990   1.674 -0.0072  0.6260  0.1757
 6224TIP3    H140231   0.943   6.903   1.639  0.4838 -0.4076  2.7896
 6224TIP3    H240232   0.844   7.017   1.630 -0.2259 -1.1644 -0.6150
 6225TIP3   OH240233   4.321   0.318   6.877 -0.3037  0.2778  0.0512
 6225TIP3    H140234   4.312   0.396   6.931 -0.2649 -1.0178  2.0252
 6225TIP3    H240235   4.240   0.313   6.827  0.0773  2.0490 -0.8509
 6226TIP3   OH240236   4.303   0.540   7.330 -0.0284  0.2738  0.6709
 6226TIP3    H140237   4.359   0.596   7.277 -0.2339 -0.1656 -0.0301
 6226TIP3    H240238   4.256   0.486   7.266 -0.9671  0.3688  1.2625
 6227TIP3   OH240239   0.335   6.116   1.599 -0.8502 -0.2729 -0.1543
 6227TIP3    H140240   0.310   6.208   1.611  0.5923  0.0682  0.3387
 6227TIP3    H240241   0.386   6.116   1.518  1.6330 -0.1002  1.3239
 6228TIP3   OH240242   1.466   0.179   7.987 -0.0816  0.0139 -0.3569
 6228TIP3    H140243   1.403   0.200   7.918 -0.0639 -0.6884 -0.5964
 6228TIP3    H240244   1.427   0.215   8.067 -1.7045 -1.9359 -0.1664
 6229TIP3   OH240245   4.195   3.518   2.378 -0.2983  0.4928 -0.0463
 6229TIP3    H140246   4.214   3.609   2.355  2.0512 -0.0186 -0.3902
 6229TIP3    H240247   4.265   3.494   2.439 -1.0005 -1.0194  0.2078
 6230TIP3   OH240248   4.834   3.143   1.417 -0.2889 -0.1304  0.1193
 6230TIP3    H140249   4.799   3.091   1.344 -1.3674  0.4345  0.2100
 6230TIP3    H240250   4.813   3.092   1.495 -0.7147  0.0964  0.1562
 6231TIP3   OH240251   1.564   3.737   6.489  0.2314 -0.1972 -0.0563
 6231TIP3    H140252   1.475   3.716   6.517  0.0070  1.5354  0.6435
 6231TIP3    H240253   1.560   3.737   6.394  0.0406 -2.2558 -0.0961
 6232TIP3   OH240254   6.318   0.492   1.486  0.3054  0.2148  0.4654
 6232TIP3    H140255   6.255   0.549   1.531 -0.9710 -2.3011  2.1106
 6232TIP3    H240256   6.287   0.403   1.504  2.8155 -1.0789 -1.0234
 6233TIP3   OH240257   4.302   0.649   0.822  0.1968 -0.0374  0.3032
 6233TIP3    H140258   4.319   0.694   0.905 -2.7765 -0.7758  1.4552
 6233TIP3    H240259   4.337   0.561   0.836 -0.2231 -0.1360  0.7547
 6234TIP3   OH240260   0.886   3.576   6.496 -0.4683 -0.0101 -0.0041
 6234TIP3    H140261   0.870   3.503   6.437 -3.7303  1.2596 -0.8709
 6234TIP3    H240262   0.955   3.628   6.453  1.4783 -2.1274  0.3580
 6235TIP3   OH240263   6.335   3.540   7.127  0.2151 -1.2452  0.1201
 6235TIP3    H140264   6.404   3.483   7.161 -1.5531 -2.4929  1.8258
 6235TIP3    H240265   6.334   3.523   7.033  1.7514 -1.7138  0.1606
 6236TIP3   OH240266   5.169   6.975   1.788 -0.1072  0.3481  0.1566
 6236TIP3    H140267   5.081   6.979   1.826 -0.3632 -0.6011 -0.3023
 6236TIP3    H240268   5.155   6.981   1.694 -0.0078 -2.7802 -0.1715
 6237TIP3   OH240269   3.982   3.768   1.062  0.3477 -0.1075 -0.0680
 6237TIP3    H140270   3.926   3.844   1.047  1.1560  0.7138  0.9156
 6237TIP3    H240271   4.061   3.786   1.011  0.3451 -0.5174 -0.2202
 6238TIP3   OH240272   4.735   2.007   0.079  0.1259 -0.3101 -0.8369
 6238TIP3    H140273   4.742   2.006   0.174 -2.1601  0.3820 -0.6149
 6238TIP3    H240274   4.716   2.098   0.057 -1.5874 -0.8383 -1.7307
 6239TIP3   OH240275   6.488   1.090   6.902 -0.0541  0.1737  0.6666
 6239TIP3    H140276   6.502   1.031   6.829  1.8676  0.5603  0.6734
 6239TIP3    H240277   6.412   1.143   6.876 -0.5277 -0.8978 -0.2124
 6240TIP3   OH240278   4.306   2.631   1.169 -0.2228 -0.0745 -0.5995
 6240TIP3    H140279   4.369   2.565   1.197 -0.7055 -0.3879 -0.2413
 6240TIP3    H240280   4.300   2.692   1.242 -0.5067 -0.1713 -0.5429
 6241TIP3   OH240281   5.394   0.864   0.850 -0.1359 -0.2649 -0.9224
 6241TIP3    H140282   5.466   0.831   0.796  0.4755 -0.4593 -0.0245
 6241TIP3    H240283   5.416   0.956   0.866  0.2349 -0.4706 -0.1763
 6242TIP3   OH240284   3.075   4.464   7.941  0.2062  0.3136 -0.4424
 6242TIP3    H140285   3.122   4.509   7.871 -0.2657  0.9712 -0.3442
 6242TIP3    H240286   3.071   4.373   7.913  0.9863  0.3655 -0.7498
 6243TIP3   OH240287   4.689   1.943   1.166 -0.2808  0.2373 -0.0516
 6243TIP3    H140288   4.781   1.921   1.152  0.3672  1.6701  1.5634
 6243TIP3    H240289   4.646   1.858   1.178  1.3380 -0.4183  1.7740
 6244TIP3   OH240290   3.009   1.244   6.840 -0.4091  0.1842 -0.1064
 6244TIP3    H140291   2.925   1.225   6.798 -1.2211  0.8227  1.1406
 6244TIP3    H240292   2.985   1.273   6.928  1.2067 -1.2751  0.8908
 6245TIP3   OH240293   5.958   0.414   2.715  0.8583  0.4464 -0.3549
 6245TIP3    H140294   5.911   0.373   2.642  0.8669 -0.1880 -0.0102
 6245TIP3    H240295   5.940   0.508   2.705 -0.7685  0.2042 -0.0453
 6246TIP3   OH240296   1.089   3.399   0.813 -0.4289 -0.5101  0.5790
 6246TIP3    H140297   1.183   3.390   0.796 -0.6180  0.1160 -0.9695
 6246TIP3    H240298   1.084   3.456   0.890  0.4738  2.1249 -1.1700
 6247TIP3   OH240299   3.802   1.632   8.207  0.3927 -0.5113  0.2530
 6247TIP3    H140300   3.893   1.607   8.223  1.1177  0.4394 -1.9533
 6247TIP3    H240301   3.803   1.671   8.119 -1.7248  1.6201  1.0606
 6248TIP3   OH240302   6.005   2.627   8.050 -0.0949  0.0985  0.2935
 6248TIP3    H140303   6.070   2.620   8.120 -0.4995  1.2107  0.8093
 6248TIP3    H240304   5.921   2.619   8.096 -0.3961  1.8091  0.0952
 6249TIP3   OH240305   3.421   0.772   8.144 -0.1945 -0.4590  0.5413
 6249TIP3    H140306   3.359   0.762   8.216 -0.5943  1.8260  0.6062
 6249TIP3    H240307   3.366   0.772   8.065  0.0243 -1.0368  0.3870
 6250TIP3   OH240308   2.516   1.314   8.000 -0.9149 -0.6514 -0.1819
 6250TIP3    H140309   2.452   1.363   8.051 -1.0115 -1.1372  0.1711
 6250TIP3    H240310   2.600   1.329   8.044 -0.9049 -0.6181 -0.2113
 6251TIP3   OH240311   1.460   5.178   0.135  0.3558  0.0042  0.1639
 6251TIP3    H140312   1.545   5.217   0.116  0.6970 -1.2793 -1.1006
 6251TIP3    H240313   1.470   5.085   0.112 -0.9419 -0.4793  1.4116
 6252TIP3   OH240314   3.968   1.027   0.568 -0.0065 -0.3970 -0.7292
 6252TIP3    H140315   3.926   1.113   0.573 -0.3697 -0.5507 -1.1244
 6252TIP3    H240316   3.895   0.966   0.560  0.1090 -0.9255  1.5246
 6253TIP3   OH240317   6.680   6.976   7.964  0.0043 -0.8807  0.5248
 6253TIP3    H140318   6.723   6.900   8.003  0.6959 -0.6841  0.1655
 6253TIP3    H240319   6.745   7.013   7.905 -1.0421 -1.2059 -0.8753
 6254TIP3   OH240320   5.551   2.903   7.266  0.1489 -0.4846 -0.3356
 6254TIP3    H140321   5.480   2.845   7.240  0.2410 -0.8544  0.2395
 6254TIP3    H240322   5.630   2.850   7.258  0.2565 -0.3733 -0.0173
 6255TIP3   OH240323   6.920   1.391   8.155 -0.1869 -0.2180  0.1090
 6255TIP3    H140324   6.900   1.467   8.209  2.2511 -0.4369  1.4774
 6255TIP3    H240325   6.901   1.316   8.211  1.9757 -0.4550  0.6286
 6256TIP3   OH240326   1.179   1.399   7.943  0.5794  1.0677  0.5151
 6256TIP3    H140327   1.209   1.330   7.884 -0.0439  0.9556  0.3318
 6256TIP3    H240328   1.104   1.362   7.989  0.3139  1.5802  0.5076
 6257TIP3   OH240329   5.706   4.825   1.114  0.4493 -0.0393  0.6020
 6257TIP3    H140330   5.622   4.831   1.160  1.2544  0.1325  2.1401
 6257TIP3    H240331   5.743   4.913   1.122 -0.0279  0.4264 -1.7446
 6258TIP3   OH240332   2.110   2.472   6.947  0.4631  0.0075 -0.0962
 6258TIP3    H140333   2.129   2.425   7.028  0.5158  0.0366 -0.0915
 6258TIP3    H240334   2.079   2.405   6.887  0.2142  0.0189  0.0161
 6259TIP3   OH240335   3.774   2.360   6.824  0.2321 -0.0136  0.0228
 6259TIP3    H140336   3.790   2.268   6.846  1.4644 -0.0550 -0.9640
 6259TIP3    H240337   3.690   2.359   6.779  1.6638 -1.1736 -2.8434
 6260TIP3   OH240338   1.840   2.284   0.826 -0.3200 -0.1712  0.5131
 6260TIP3    H140339   1.787   2.323   0.895 -0.9120  1.2655 -0.6908
 6260TIP3    H240340   1.912   2.346   0.813 -0.7672  0.0954 -0.8115
 6261TIP3   OH240341   0.075   1.021   1.092 -0.1334 -0.2841 -0.0588
 6261TIP3    H140342   0.031   0.938   1.109  0.1445 -0.5177 -0.4657
 6261TIP3    H240343   0.004   1.083   1.072 -0.3438 -0.4061  0.3136
 6262TIP3   OH240344   5.511   0.305   1.062 -0.2391  0.0220  0.2326
 6262TIP3    H140345   5.474   0.392   1.052  1.1391  0.4974 -1.0017
 6262TIP3    H240346   5.601   0.319   1.090  0.1486 -0.9716 -0.4261
 6263TIP3   OH240347   2.887   4.395   0.715 -0.1048  0.2100  0.6315
 6263TIP3    H140348   2.940   4.407   0.794  1.4213  0.3207 -0.3579
 6263TIP3    H240349   2.845   4.310   0.728  2.0330 -0.9341  0.5725
 6264TIP3   OH240350   4.054   4.895   1.507  0.2259 -0.4618  0.3628
 6264TIP3    H140351   4.069   4.801   1.521  0.4981 -0.5279 -0.3086
 6264TIP3    H240352   3.968   4.911   1.545  1.2325 -0.4175  2.8249
 6265TIP3   OH240353   2.367   0.044   7.589 -0.2801  0.4609 -0.2601
 6265TIP3    H140354   2.333  -0.011   7.518 -0.4968  1.4652 -0.9541
 6265TIP3    H240355   2.412  -0.018   7.648 -1.3850 -0.5838 -0.4774
 6266TIP3   OH240356   0.255   2.952   2.118  0.2019  0.6842 -0.1627
 6266TIP3    H140357   0.221   3.025   2.066 -1.6990 -1.4440 -2.1356
 6266TIP3    H240358   0.182   2.927   2.175 -0.1108 -1.1368 -1.2630
 6267TIP3   OH240359   0.562   6.650   0.070  0.2627 -0.6644 -0.0294
 6267TIP3    H140360   0.649   6.611   0.068  1.0965  1.0965 -0.0838
 6267TIP3    H240361   0.544   6.663   0.163 -0.3663 -1.8603  0.0358
 6268TIP3   OH240362   2.843   6.045   6.618  0.1651  0.5801  0.5158
 6268TIP3    H140363   2.936   6.034   6.637 -0.0473 -1.4306  0.5228
 6268TIP3    H240364   2.808   6.088   6.697  1.2989  2.7845 -0.0877
 6269TIP3   OH240365   3.109   1.923   2.741  0.4968 -0.0808  0.6663
 6269TIP3    H140366   3.049   1.864   2.787  0.7192  0.5696  1.8276
 6269TIP3    H240367   3.159   1.866   2.682 -0.7624 -0.7275  0.1869
 6270TIP3   OH240368   0.967   6.491   7.615  0.4926 -0.0742 -0.0231
 6270TIP3    H140369   0.879   6.519   7.590  0.5513  0.3183  0.2063
 6270TIP3    H240370   0.962   6.479   7.710  0.6614 -0.1358 -0.0211
 6271TIP3   OH240371   4.449   1.143   0.357 -0.3884 -0.5172 -0.0015
 6271TIP3    H140372   4.517   1.210   0.346 -2.0619  1.4121  0.6560
 6271TIP3    H240373   4.493   1.071   0.401  1.0471  1.0435  1.2589
 6272TIP3   OH240374   4.527   2.377   1.920 -0.1324  0.4280 -0.0567
 6272TIP3    H140375   4.506   2.466   1.949  1.0998  0.8666 -0.4537
 6272TIP3    H240376   4.555   2.332   2.000 -3.0450 -0.3948  0.6421
 6273TIP3   OH240377   3.093   3.997   1.631  0.1732 -0.0523  0.5801
 6273TIP3    H140378   3.059   4.057   1.698 -0.3443 -0.8166  1.0224
 6273TIP3    H240379   3.067   4.036   1.548 -2.8058 -1.1006  0.8826
 6274TIP3   OH240380   1.044   1.749   7.379 -0.0067 -0.0690 -0.1352
 6274TIP3    H140381   1.067   1.804   7.305  0.2693  0.1424  0.1046
 6274TIP3    H240382   1.096   1.670   7.367  0.4836  0.2048  0.1398
 6275TIP3   OH240383   1.153   0.948   1.663  0.1656  0.2990  0.2790
 6275TIP3    H140384   1.150   0.855   1.644 -1.4321  0.1116  1.2684
 6275TIP3    H240385   1.152   0.953   1.758 -0.9128  1.3270  0.2370
 6276TIP3   OH240386   2.997   1.197   0.697 -0.5513 -0.4967  0.3007
 6276TIP3    H140387   3.002   1.291   0.712  2.6304 -0.1684 -1.8140
 6276TIP3    H240388   2.929   1.186   0.631 -0.1293  0.4681 -0.3016
 6277TIP3   OH240389   0.122   6.145   6.753 -0.2074 -0.2774 -0.5993
 6277TIP3    H140390   0.177   6.199   6.810  0.9857 -0.0134 -1.9223
 6277TIP3    H240391   0.172   6.063   6.743 -1.6270 -1.3787  0.7620
 6278TIP3   OH240392   6.288   4.446   1.643  0.6479 -0.0774  0.2393
 6278TIP3    H140393   6.331   4.363   1.662  0.1690 -0.0144  1.7927
 6278TIP3    H240394   6.243   4.468   1.725  0.7956  1.7262 -0.1353
 6279TIP3   OH240395   2.262   1.131   2.111 -0.1346  0.9851  0.0183
 6279TIP3    H140396   2.270   1.052   2.057  0.5541  0.8486  0.3134
 6279TIP3    H240397   2.350   1.168   2.111  0.0723  0.5500  1.7021
 6280TIP3   OH240398   2.644   3.298   6.943  0.8096 -0.2588  0.2418
 6280TIP3    H140399   2.620   3.385   6.912 -2.1795 -0.8017  0.7116
 6280TIP3    H240400   2.607   3.239   6.877  1.3468 -1.1999  0.7633
 6281TIP3   OH240401   2.789   6.793   8.136  0.3011 -0.3180  0.6758
 6281TIP3    H140402   2.803   6.865   8.198  0.3874  0.0267  0.2571
 6281TIP3    H240403   2.849   6.724   8.166  0.1448 -0.2588  1.1375
 6282TIP3   OH240404   2.533   1.278   2.716 -0.2970  0.1468 -0.0473
 6282TIP3    H140405   2.456   1.323   2.751  0.0250 -0.2044  1.1937
 6282TIP3    H240406   2.605   1.339   2.732 -0.2212  0.2132 -0.6273
 6283TIP3   OH240407   2.796   0.535   0.682  0.4198  0.3368  0.0513
 6283TIP3    H140408   2.703   0.543   0.662  0.5492  0.9625 -0.3499
 6283TIP3    H240409   2.839   0.590   0.616  1.0320  0.5043  0.5843
 6284TIP3   OH240410   0.337   3.196   2.788 -0.3432 -0.9078 -0.6539
 6284TIP3    H140411   0.408   3.232   2.842 -1.5067  0.2236  0.1952
 6284TIP3    H240412   0.267   3.178   2.850 -2.3298  1.9343 -1.8761
 6285TIP3   OH240413   2.770   1.393   1.246  0.3079 -0.0660 -0.2756
 6285TIP3    H140414   2.734   1.352   1.324  1.6689 -1.5937 -0.3836
 6285TIP3    H240415   2.703   1.456   1.219 -0.9238 -0.6843  1.1558
 6286TIP3   OH240416   0.605   5.455   1.941 -0.5910 -0.3595 -0.3633
 6286TIP3    H140417   0.679   5.422   1.888  0.0162 -0.5230  0.5682
 6286TIP3    H240418   0.623   5.548   1.952 -0.6476 -0.3537 -0.3220
 6287TIP3   OH240419   2.570   5.247   0.935  0.2339 -0.6815 -0.6384
 6287TIP3    H140420   2.636   5.316   0.942 -1.3043  0.7590  0.4333
 6287TIP3    H240421   2.510   5.278   0.868 -0.8781 -0.5876  0.3702
 6288TIP3   OH240422   3.431   1.964   1.050  0.7050  0.5080 -0.4458
 6288TIP3    H140423   3.428   1.873   1.022  2.1816  0.0422  0.7883
 6288TIP3    H240424   3.414   1.961   1.144  0.4268  1.5533 -0.4507
 6289TIP3   OH240425   2.063   6.134   2.545  0.0375 -0.2778  0.2531
 6289TIP3    H140426   2.000   6.062   2.556 -0.6882  0.1262 -0.9951
 6289TIP3    H240427   2.048   6.191   2.620 -1.0114 -0.2558  0.0389
 6290TIP3   OH240428   4.963   5.064   0.414  0.0316  0.6301 -0.0922
 6290TIP3    H140429   5.031   5.003   0.444  0.9674  1.5073 -0.4040
 6290TIP3    H240430   4.948   5.122   0.489 -0.9421 -0.0057  0.2429
 6291TIP3   OH240431   3.946   4.130   1.263  0.0137 -0.6034  0.2873
 6291TIP3    H140432   3.964   4.168   1.349 -0.4019  0.7566 -0.1992
 6291TIP3    H240433   3.984   4.042   1.267  0.6712 -0.2860  1.5966
 6292TIP3   OH240434   1.974   1.449   8.139  0.3374 -0.3643  0.3873
 6292TIP3    H140435   1.923   1.516   8.184  0.0013  0.5698 -1.3248
 6292TIP3    H240436   2.047   1.430   8.198 -0.2113  0.6437  1.4136
 6293TIP3   OH240437   2.024   2.252   7.447  0.2298  0.3502  0.1913
 6293TIP3    H140438   2.070   2.335   7.456  1.2571 -0.0562 -0.9278
 6293TIP3    H240439   1.966   2.247   7.523  1.7425  1.0796  1.4325
 6294TIP3   OH240440   1.043   5.677   1.478  0.8125 -0.5176  0.9376
 6294TIP3    H140441   1.134   5.695   1.501  0.8815  0.6432 -0.1996
 6294TIP3    H240442   1.019   5.745   1.416 -1.0617 -0.3766  1.7403
 6295TIP3   OH240443   1.771   1.815   7.090 -0.0586  0.4002  0.3822
 6295TIP3    H140444   1.738   1.725   7.096  1.4486 -0.1114  1.4526
 6295TIP3    H240445   1.865   1.807   7.102  0.1404  2.1123  0.2039
 6296TIP3   OH240446   0.984   4.503   6.773  0.1034  0.0163 -0.0122
 6296TIP3    H140447   0.902   4.456   6.757  0.2446 -0.6372  1.0482
 6296TIP3    H240448   1.020   4.520   6.686 -1.7863  1.4982 -0.5590
 6297TIP3   OH240449   6.232   2.110   6.742  0.0406  0.1691  0.4620
 6297TIP3    H140450   6.323   2.084   6.750  0.2502  0.5953 -0.3799
 6297TIP3    H240451   6.183   2.029   6.749  0.3989  0.0576  2.0006
 6298TIP3   OH240452   3.777   2.991   0.697 -0.8859  0.2163  0.2061
 6298TIP3    H140453   3.698   2.942   0.674 -0.2684 -0.4436 -0.5435
 6298TIP3    H240454   3.823   2.935   0.760 -0.6432  0.2581  0.0680
 6299TIP3   OH240455   6.114   0.236   0.360 -0.0604 -0.1279 -0.1915
 6299TIP3    H140456   6.117   0.160   0.301  0.8416 -0.4491  0.2574
 6299TIP3    H240457   6.091   0.199   0.445  1.6437 -0.1083  0.3198
 6300TIP3   OH240458   0.430   4.334   0.836  0.0949 -0.5642  0.5793
 6300TIP3    H140459   0.515   4.365   0.805 -0.7035 -1.8992 -3.5482
 6300TIP3    H240460   0.379   4.414   0.850  0.6830  0.2460 -1.4451
 6301TIP3   OH240461   2.602   6.650   0.287  0.3604  0.6667  0.0237
 6301TIP3    H140462   2.569   6.692   0.366  0.2555  0.7688 -0.0731
 6301TIP3    H240463   2.547   6.572   0.276  1.0349  0.0920  0.6139
 6302TIP3   OH240464   1.060   2.902   1.732  0.2156 -0.5977  0.2652
 6302TIP3    H140465   0.997   2.890   1.803  1.1603 -0.4479  1.1575
 6302TIP3    H240466   1.137   2.940   1.775  1.0170 -1.0449 -0.7384
 6303TIP3   OH240467   4.316   5.822   7.728 -0.5492  0.2318 -0.4747
 6303TIP3    H140468   4.266   5.762   7.783  0.8930  1.6422  2.6590
 6303TIP3    H240469   4.407   5.795   7.741 -0.0905  1.2072 -1.4799
 6304TIP3   OH240470   5.285   5.254   8.276  0.6675 -0.0365 -0.3983
 6304TIP3    H140471   5.340   5.184   8.309  1.8188  0.3256 -1.4465
 6304TIP3    H240472   5.308   5.330   8.330  1.4694  0.1977 -1.0549
 6305TIP3   OH240473   1.529   6.213   0.488  0.0497 -0.0082  0.1665
 6305TIP3    H140474   1.478   6.133   0.499  1.1378 -0.5982  1.0888
 6305TIP3    H240475   1.530   6.228   0.393  1.6289 -2.3121 -0.2693
 6306TIP3   OH240476   2.236   2.062   1.405  0.0548  0.0514 -0.1532
 6306TIP3    H140477   2.174   1.990   1.393  1.9108 -2.0329  1.7358
 6306TIP3    H240478   2.210   2.102   1.488  1.9134 -1.7981  1.4590
 6307TIP3   OH240479   5.522   1.269   7.854  0.0432 -0.4629  0.2759
 6307TIP3    H140480   5.530   1.219   7.935  0.1051 -0.5242  0.2316
 6307TIP3    H240481   5.522   1.361   7.883 -0.0793 -0.4876  0.3566
 6308TIP3   OH240482   0.839   0.656   0.139 -0.2879  0.0427 -0.0893
 6308TIP3    H140483   0.805   0.690   0.057 -0.2215  0.8022  0.1896
 6308TIP3    H240484   0.761   0.637   0.191 -0.3510 -1.1518 -0.5973
 6309TIP3   OH240485   6.207   2.384   7.337  0.0528  0.1058 -0.6966
 6309TIP3    H140486   6.226   2.474   7.363  1.1008 -0.9084  2.6181
 6309TIP3    H240487   6.145   2.353   7.402 -0.7559 -1.4204 -2.1387
 6310TIP3   OH240488   2.641   0.481   6.654  0.0428  0.2409  0.6690
 6310TIP3    H140489   2.636   0.392   6.621 -0.0902  0.6791 -0.5193
 6310TIP3    H240490   2.567   0.489   6.714 -1.0118  0.1046 -0.5877
 6311TIP3   OH240491   3.764   1.330   6.861  0.1924  0.3693 -0.3737
 6311TIP3    H140492   3.759   1.359   6.952 -0.3172  1.1220 -0.6311
 6311TIP3    H240493   3.677   1.295   6.842  0.9785 -2.0406  0.1324
 6312TIP3   OH240494   2.268   6.196   1.723 -0.2380 -0.0085 -0.2399
 6312TIP3    H140495   2.352   6.229   1.753  0.8155 -0.7850 -2.1871
 6312TIP3    H240496   2.211   6.274   1.722  1.1895  1.0711 -1.3806
 6313TIP3   OH240497   1.010   6.479   0.614  0.2247  0.6370 -0.3796
 6313TIP3    H140498   1.105   6.487   0.602  0.4983 -0.2210  0.9983
 6313TIP3    H240499   0.976   6.565   0.590  1.4071  1.1062 -0.4498
 6314TIP3   OH240500   5.176   3.601   0.079 -0.8063 -0.1999  0.1082
 6314TIP3    H140501   5.096   3.638   0.115 -1.7490 -2.2324  0.2289
 6314TIP3    H240502   5.160   3.506   0.077  1.6197 -0.6698  0.2109
 6315TIP3   OH240503   2.343   6.322   6.462  0.1031 -0.2060 -0.5430
 6315TIP3    H140504   2.429   6.284   6.480  0.2828  0.5465  0.2593
 6315TIP3    H240505   2.284   6.247   6.458  0.7166 -0.6957 -0.6535
 6316TIP3   OH240506   1.141   0.537   0.441 -0.5236 -0.5196 -0.1859
 6316TIP3    H140507   1.091   0.615   0.464  1.4668  1.2913 -1.5613
 6316TIP3    H240508   1.214   0.536   0.502 -0.1596 -0.8977 -0.6165
 6317TIP3   OH240509   6.941   3.126   1.725  0.1372  0.1782 -0.2036
 6317TIP3    H140510   6.955   3.114   1.631  0.2060  0.2524 -0.2034
 6317TIP3    H240511   6.854   3.090   1.742  0.0813  0.2618 -0.3149
 6318TIP3   OH240512   1.245   2.695   8.284  0.4366  0.3860 -0.4431
 6318TIP3    H140513   1.188   2.707   8.209  0.1385 -2.7557 -0.8421
 6318TIP3    H240514   1.312   2.633   8.254  0.4463 -0.7871  1.7830
 6319TIP3   OH240515   4.554   4.191   7.351 -0.1875  0.2505 -0.9321
 6319TIP3    H140516   4.649   4.183   7.357 -0.3336 -0.6262  0.8068
 6319TIP3    H240517   4.520   4.104   7.369 -1.3612  0.9764  0.6548
 6320TIP3   OH240518   6.259   6.308   7.968  0.5334  0.1881  0.0221
 6320TIP3    H140519   6.233   6.330   8.058 -1.2125 -0.1133 -0.3714
 6320TIP3    H240520   6.201   6.237   7.943  1.9572 -0.7051 -0.8861
 6321TIP3   OH240521   6.337   3.325   6.379  0.5026 -0.4258  0.3826
 6321TIP3    H140522   6.304   3.371   6.457 -0.3151  1.9332 -1.2433
 6321TIP3    H240523   6.325   3.232   6.399 -1.9109  0.1569  2.1426
 6322TIP3   OH240524   6.806   5.786   2.481  0.3082  0.4739 -0.0817
 6322TIP3    H140525   6.856   5.817   2.406 -0.1757  2.1604  0.2532
 6322TIP3    H240526   6.729   5.744   2.442  0.8994 -0.2220 -0.5408
 6323TIP3   OH240527   6.389   1.027   0.133  0.2708  0.4790 -0.3226
 6323TIP3    H140528   6.368   0.959   0.197 -0.5318 -0.6663 -1.7443
 6323TIP3    H240529   6.473   1.063   0.162  0.7019 -1.1040  0.4692
 6324TIP3   OH240530   2.880   6.262   7.480  0.0984 -0.1622  0.1670
 6324TIP3    H140531   2.975   6.259   7.468 -0.0984  0.6477 -2.2624
 6324TIP3    H240532   2.866   6.337   7.538  0.9367 -0.1701  0.3988
 6325TIP3   OH240533   6.646   6.265   1.562  0.5995  0.3303  0.1169
 6325TIP3    H140534   6.736   6.280   1.592  1.7430  0.3132 -2.8729
 6325TIP3    H240535   6.610   6.200   1.622  2.8438 -0.1756  1.0066
 6326TIP3   OH240536   2.685   6.403   1.634 -0.4577  0.3110 -0.0795
 6326TIP3    H140537   2.720   6.466   1.698  0.1963 -0.0581 -0.0662
 6326TIP3    H240538   2.757   6.342   1.618 -0.5102  0.5707 -1.4004
 6327TIP3   OH240539   5.170   5.158   0.236  0.3051 -0.1446 -0.1166
 6327TIP3    H140540   5.143   5.142   0.327  0.1184 -0.8702 -0.2947
 6327TIP3    H240541   5.118   5.097   0.184  2.4006 -1.7811 -0.4510
 6328TIP3   OH240542   4.319   4.647   1.198  0.4242 -0.0766 -0.8613
 6328TIP3    H140543   4.330   4.552   1.192  1.6705  0.0546 -0.8734
 6328TIP3    H240544   4.339   4.668   1.289  0.2127  0.1847 -0.8748
 6329TIP3   OH240545   6.607   5.210   1.600 -0.1244 -0.0983 -0.5251
 6329TIP3    H140546   6.677   5.167   1.649 -0.0472 -0.3591 -0.8622
 6329TIP3    H240547   6.602   5.298   1.638 -0.7607 -0.6184  0.6335
 6330TIP3   OH240548   0.192   0.753   0.224  0.4537  0.0806 -0.1990
 6330TIP3    H140549   0.157   0.666   0.205  1.2830 -0.3714  0.2948
 6330TIP3    H240550   0.278   0.737   0.264  0.1781  1.0945  0.8683
 6331TIP3   OH240551   5.963   6.206   1.500  0.8692 -0.0254 -0.4223
 6331TIP3    H140552   6.026   6.160   1.445  1.7630  1.5541 -0.7450
 6331TIP3    H240553   5.998   6.294   1.510 -1.0476  0.7785 -0.2408
 6332TIP3   OH240554   0.675   4.423   0.753 -0.7718  0.4077  0.0773
 6332TIP3    H140555   0.749   4.484   0.757  0.2989 -0.8374  0.1720
 6332TIP3    H240556   0.679   4.385   0.665 -1.5274  0.5948 -0.0440
 6333TIP3   OH240557   6.619   3.592   7.728  0.2282  0.0361 -0.6174
 6333TIP3    H140558   6.618   3.500   7.700  1.5458  0.2290 -1.3782
 6333TIP3    H240559   6.527   3.612   7.746 -0.2996 -0.9705 -1.9725
 6334TIP3   OH240560   1.958   3.071   6.975 -0.4131 -0.2783  0.1238
 6334TIP3    H140561   1.894   3.007   6.944  0.0131 -1.1016  0.8779
 6334TIP3    H240562   2.040   3.021   6.980  0.1483  0.5883 -0.1974
 6335TIP3   OH240563   2.403   1.494   0.254  0.5676 -0.5704 -0.7000
 6335TIP3    H140564   2.417   1.423   0.316  1.5793 -0.7850 -1.1535
 6335TIP3    H240565   2.491   1.523   0.230  0.1879 -0.0270 -1.4979
 6336TIP3   OH240566   5.181   6.147   8.148 -0.3424 -0.2633  0.3550
 6336TIP3    H140567   5.088   6.171   8.154 -0.1834  0.7942 -1.0970
 6336TIP3    H240568   5.228   6.230   8.155  0.5219 -0.7761  0.9500
 6337TIP3   OH240569   0.348   1.162   2.289 -0.2227 -0.1167  0.0625
 6337TIP3    H140570   0.308   1.076   2.296  0.8464 -0.4958  3.0777
 6337TIP3    H240571   0.442   1.145   2.285 -0.0307  0.9195 -0.4408
 6338TIP3   OH240572   3.809   0.094   1.785  0.2223  0.1738  0.3348
 6338TIP3    H140573   3.742   0.030   1.760 -1.5706  1.9534  0.3247
 6338TIP3    H240574   3.762   0.158   1.839  1.7498  1.8415 -0.2039
 6339TIP3   OH240575   6.651   6.684   7.137  0.1329  0.3226 -0.1376
 6339TIP3    H140576   6.656   6.590   7.157 -1.0392 -0.0992 -1.6324
 6339TIP3    H240577   6.557   6.702   7.133  0.2922  0.9253 -2.5256
 6340TIP3   OH240578   1.106   5.894   6.988 -0.4002 -0.2073  0.1438
 6340TIP3    H140579   1.121   5.851   6.903  2.4964 -1.4335  1.1093
 6340TIP3    H240580   1.088   5.821   7.048 -1.6876  0.5769  0.7374
 6341TIP3   OH240581   0.598   0.554   7.931  0.1000 -0.7254 -0.0569
 6341TIP3    H140582   0.662   0.587   7.994 -0.6650 -1.1397  0.9615
 6341TIP3    H240583   0.639   0.476   7.894  0.5659 -0.4584 -0.1247
 6342TIP3   OH240584   5.389   5.159   1.734  0.2681  0.9585  0.0826
 6342TIP3    H140585   5.427   5.218   1.669  0.3241  1.2020  0.3362
 6342TIP3    H240586   5.460   5.100   1.758  0.0950  0.5005 -0.4938
 6343TIP3   OH240587   4.751   6.948   6.723  0.5317 -0.3988  0.5521
 6343TIP3    H140588   4.837   6.932   6.685  1.2476  1.4656  1.2608
 6343TIP3    H240589   4.759   7.033   6.767 -2.2560  0.9039 -1.1501
 6344TIP3   OH240590   3.275   1.638   1.421  0.1759  0.0661 -0.8242
 6344TIP3    H140591   3.284   1.620   1.327 -1.0698 -0.2262 -0.9014
 6344TIP3    H240592   3.302   1.557   1.463  1.1106  0.3269 -0.9111
 6345TIP3   OH240593   0.569   0.066   7.622  0.1250  0.5768  0.1833
 6345TIP3    H140594   0.525  -0.011   7.659 -2.3059 -0.8747 -4.8233
 6345TIP3    H240595   0.642   0.029   7.571  0.6023  1.9164 -0.1552
 6346TIP3   OH240596   1.554   0.055   0.176  0.1920 -0.3941  0.1532
 6346TIP3    H140597   1.569   0.002   0.098  0.4939 -0.1109  0.0139
 6346TIP3    H240598   1.554   0.145   0.144 -4.1514 -0.3215 -0.3016
 6347TIP3   OH240599   5.367   0.641   8.212 -0.3865 -0.7077 -0.0720
 6347TIP3    H140600   5.311   0.631   8.289 -0.6997 -0.9078 -0.3188
 6347TIP3    H240601   5.316   0.695   8.152 -0.9622 -2.0881 -0.8933
 6348TIP3   OH240602   6.036   5.544   7.841 -0.6010 -0.0421  0.6879
 6348TIP3    H140603   6.121   5.568   7.805 -0.1752  0.0745  1.7225
 6348TIP3    H240604   5.993   5.627   7.861 -1.6163 -0.0551 -1.2346
 6349TIP3   OH240605   4.057   4.609   1.256 -0.0941  0.3707  0.0907
 6349TIP3    H140606   4.119   4.665   1.210  1.7836  0.0111  1.9996
 6349TIP3    H240607   4.063   4.525   1.211 -1.5548  1.1370 -1.6395
 6350TIP3   OH240608   5.566   2.631   8.158  0.0164 -0.3925 -0.2103
 6350TIP3    H140609   5.492   2.570   8.149 -0.2665 -0.1043  0.1489
 6350TIP3    H240610   5.525   2.715   8.180  0.4821 -0.3410  0.4927
 6351TIP3   OH240611   5.458   0.832   7.896  0.2090 -0.0549 -0.3888
 6351TIP3    H140612   5.476   0.855   7.987 -1.2337 -1.1869  0.2194
 6351TIP3    H240613   5.544   0.826   7.856  0.9166 -0.2273  1.0825
 6352TIP3   OH240614   0.145   2.834   8.291 -0.0438  0.5432  0.6023
 6352TIP3    H140615   0.105   2.920   8.302  0.9370  1.5034 -2.3795
 6352TIP3    H240616   0.239   2.849   8.304  0.1055 -0.1442  0.3847
 6353TIP3   OH240617   0.517   6.086   0.919 -0.0643 -0.1837 -0.2056
 6353TIP3    H140618   0.597   6.075   0.970 -0.0028  0.8386 -0.0637
 6353TIP3    H240619   0.546   6.079   0.828  0.3337  0.8841 -0.1833
 6354TIP3   OH240620   4.182   5.103   7.273  0.0292  0.2039  0.1822
 6354TIP3    H140621   4.266   5.127   7.312  0.8325 -2.9292  0.6298
 6354TIP3    H240622   4.202   5.087   7.181 -0.4733  1.1318 -0.0994
 6355TIP3   OH240623   0.964   7.000   2.340 -0.0044  0.5846 -0.4339
 6355TIP3    H140624   0.902   7.073   2.341  1.2565  1.7050  0.9257
 6355TIP3    H240625   0.967   6.970   2.431 -0.3721 -1.0910 -0.9447
 6356TIP3   OH240626   2.664   5.509   1.525  0.5657  0.7213 -0.2599
 6356TIP3    H140627   2.676   5.461   1.443  1.2330  1.5662 -0.6781
 6356TIP3    H240628   2.729   5.472   1.584  1.4012  1.4016 -0.7275
 6357TIP3   OH240629   2.221   4.649   0.533 -0.1106 -0.3289 -0.1003
 6357TIP3    H140630   2.188   4.739   0.535  2.7451  0.8417 -0.1242
 6357TIP3    H240631   2.249   4.636   0.442  1.3601 -0.4633  0.3531
 6358TIP3   OH240632   6.438   6.504   2.088  0.4332  0.2203  0.4444
 6358TIP3    H140633   6.451   6.417   2.052  0.9926  0.5948 -0.2728
 6358TIP3    H240634   6.504   6.512   2.157  2.0020  0.9335 -1.0662
 6359TIP3   OH240635   0.175   2.218   1.846 -0.1750 -0.0852  0.7080
 6359TIP3    H140636   0.096   2.183   1.805  0.0238 -0.1727  0.4042
 6359TIP3    H240637   0.240   2.221   1.776 -0.2200  0.9850  0.6928
 6360TIP3   OH240638   2.453   2.976   8.220 -0.2791  0.2301 -0.0777
 6360TIP3    H140639   2.458   3.059   8.268 -0.5803  0.4548 -0.4334
 6360TIP3    H240640   2.532   2.976   8.165  0.9124 -0.7362  1.5153
 6361TIP3   OH240641   4.119   2.724   7.595 -0.4973 -0.0290 -0.1534
 6361TIP3    H140642   4.130   2.783   7.520  0.6958  0.5895  0.4943
 6361TIP3    H240643   4.079   2.645   7.557 -0.8938  0.6709 -1.2513
 6362TIP3   OH240644   6.557   4.674   2.001  0.3417 -0.5575 -0.5854
 6362TIP3    H140645   6.464   4.692   2.016  0.6571  0.0656  0.8211
 6362TIP3    H240646   6.575   4.710   1.914 -0.3613  0.8450 -0.1788
 6363TIP3   OH240647   4.957   3.928   1.309  0.2916 -0.5178  0.4434
 6363TIP3    H140648   5.016   3.950   1.382  0.2259 -0.0250  0.3511
 6363TIP3    H240649   5.015   3.903   1.238  0.3741 -0.4756  0.4959
 6364TIP3   OH240650   0.066   1.536   2.819  0.1937 -0.2035 -0.7200
 6364TIP3    H140651   0.007   1.468   2.850  0.9522 -0.1367  0.9629
 6364TIP3    H240652   0.008   1.608   2.793 -0.4905  0.0828  1.4285
 6365TIP3   OH240653   1.169   5.152   8.252 -0.5206  0.1293  0.0129
 6365TIP3    H140654   1.084   5.121   8.221 -1.7848  2.9452  0.4286
 6365TIP3    H240655   1.149   5.226   8.308  2.2335  1.1213 -0.1644
 6366TIP3   OH240656   3.663   4.255   2.302 -0.1211 -0.7423  0.0777
 6366TIP3    H140657   3.670   4.173   2.253 -0.5641 -0.3386 -0.6729
 6366TIP3    H240658   3.614   4.231   2.381 -1.1673 -1.0069 -0.6252
 6367TIP3   OH240659   4.629   5.352   6.826 -0.0829  0.0105  0.0454
 6367TIP3    H140660   4.628   5.321   6.916 -1.1100  1.0975  0.4442
 6367TIP3    H240661   4.545   5.322   6.790 -0.3320  0.8316 -0.0752
 6368TIP3   OH240662   2.634   4.207   7.047 -0.4297 -0.1056 -0.5634
 6368TIP3    H140663   2.631   4.291   7.001 -1.1937  0.3349  0.2532
 6368TIP3    H240664   2.702   4.218   7.113 -1.0264  0.1279  0.0161
 6369TIP3   OH240665   2.295   1.401   1.947 -0.3791  0.3939 -0.5460
 6369TIP3    H140666   2.300   1.391   2.042 -1.6165  1.6356 -0.3305
 6369TIP3    H240667   2.229   1.337   1.920 -0.3607  0.3615 -0.5153
 6370TIP3   OH240668   2.211   6.763   0.745  0.3207  0.8328  0.2035
 6370TIP3    H140669   2.122   6.761   0.780 -0.1267 -0.9059 -0.9079
 6370TIP3    H240670   2.264   6.721   0.813 -0.0595  0.0815  0.0537
 6371TIP3   OH240671   1.281   4.005   7.407 -0.0392 -0.1416  0.4009
 6371TIP3    H140672   1.236   4.083   7.374  0.9922  0.4063  0.2371
 6371TIP3    H240673   1.325   3.969   7.330  1.9702  0.8555  1.0335
 6372TIP3   OH240674   2.172   2.488   7.392 -0.1063  0.2342 -0.4585
 6372TIP3    H140675   2.174   2.564   7.333  0.9692  0.6628  0.0894
 6372TIP3    H240676   2.256   2.492   7.437  0.1977 -1.6099 -0.8010
 6373TIP3   OH240677   4.755   5.795   1.328  0.1662  0.6733  0.7932
 6373TIP3    H140678   4.798   5.734   1.268 -1.5207 -0.2816  0.4928
 6373TIP3    H240679   4.741   5.874   1.276  0.6259  0.6214  0.5872
 6374TIP3   OH240680   6.530   6.800   7.570  0.0353 -0.4699 -0.3285
 6374TIP3    H140681   6.583   6.841   7.502 -0.5802  1.1004  0.1088
 6374TIP3    H240682   6.457   6.760   7.522  0.1371 -0.2452 -0.6734
 6375TIP3   OH240683   0.988   4.324   0.666 -0.1531  0.3259  0.1940
 6375TIP3    H140684   1.041   4.353   0.741  0.7292 -0.7448  0.0154
 6375TIP3    H240685   1.001   4.230   0.663 -0.7311  0.2649 -0.8968
 6376TIP3   OH240686   4.315   5.007   7.019  0.0522  0.8465 -0.0395
 6376TIP3    H140687   4.317   5.055   6.936  1.8977  0.7734 -0.0663
 6376TIP3    H240688   4.259   4.931   7.001 -1.9535  2.3064 -0.3278
 6377TIP3   OH240689   3.195   3.634   0.543  0.0365  0.2198  0.2227
 6377TIP3    H140690   3.105   3.654   0.568 -0.5258 -2.3251  0.5536
 6377TIP3    H240691   3.244   3.638   0.626 -0.1758 -0.3098  0.3748
 6378TIP3   OH240692   1.338   1.321   1.982  0.2377 -0.2038 -0.1776
 6378TIP3    H140693   1.384   1.391   2.027 -0.6595 -0.0256  0.4972
 6378TIP3    H240694   1.246   1.345   1.987  0.0188 -0.7544 -1.1294
 6379TIP3   OH240695   5.609   4.554   6.968 -0.0352 -0.0990 -0.5344
 6379TIP3    H140696   5.547   4.483   6.948 -1.0155  0.7578 -0.6122
 6379TIP3    H240697   5.554   4.625   7.002  1.0884  0.1662  0.7647
 6380TIP3   OH240698   0.646   1.339   2.567  0.2070  0.0813 -0.4775
 6380TIP3    H140699   0.728   1.380   2.538  0.2893  0.3491  0.1159
 6380TIP3    H240700   0.664   1.245   2.561  0.5397  0.1365 -0.3964
 6381TIP3   OH240701   2.783   1.699   6.569  0.3115 -0.3928  0.8548
 6381TIP3    H140702   2.696   1.739   6.573  0.6967  0.3537  2.4502
 6381TIP3    H240703   2.775   1.619   6.621  0.2972 -0.9515  0.0233
 6382TIP3   OH240704   3.804   2.898   6.189  0.1767  0.1269  1.0937
 6382TIP3    H140705   3.750   2.864   6.260 -1.3424  1.2019  0.5101
 6382TIP3    H240706   3.754   2.972   6.154  0.3330 -1.0066 -1.8160
 6383TIP3   OH240707   0.039   2.524   2.694 -0.1835 -0.3359  0.3967
 6383TIP3    H140708   0.044   2.591   2.762  0.7751  0.9161 -0.8613
 6383TIP3    H240709   0.016   2.572   2.614 -1.3301 -1.7754 -0.1879
 6384TIP3   OH240710   5.304   5.583   1.745 -0.0526  0.0069 -0.2302
 6384TIP3    H140711   5.222   5.595   1.793 -0.0738 -0.4009 -0.1646
 6384TIP3    H240712   5.276   5.560   1.656 -0.0408  2.2884 -0.8846
 6385TIP3   OH240713   4.553   1.487   2.293 -0.7723 -0.1138 -0.3975
 6385TIP3    H140714   4.555   1.467   2.199 -1.0247  1.5313 -0.7891
 6385TIP3    H240715   4.525   1.579   2.297 -0.8001 -0.1721  1.2956
 6386TIP3   OH240716   2.314   2.238   2.903 -0.3081  0.0386  0.3865
 6386TIP3    H140717   2.375   2.183   2.952 -0.2289 -0.2545 -0.0277
 6386TIP3    H240718   2.229   2.222   2.943 -0.7645 -2.4078 -1.3257
 6387TIP3   OH240719   3.111   0.955   7.426  0.2575  0.1892 -0.3774
 6387TIP3    H140720   3.023   0.948   7.388  0.6756  1.0003 -1.5555
 6387TIP3    H240721   3.098   1.008   7.505 -0.3760 -0.0707 -0.2979
 6388TIP3   OH240722   3.928   1.657   6.885  0.9814  0.1457 -0.2541
 6388TIP3    H140723   3.955   1.747   6.902  1.2782  0.3269 -1.5531
 6388TIP3    H240724   3.906   1.656   6.792 -0.3534 -0.7982  0.0445
 6389TIP3   OH240725   6.624   2.850   6.710  0.4095 -0.2490 -0.2074
 6389TIP3    H140726   6.603   2.929   6.759  1.4268 -0.7657  1.1457
 6389TIP3    H240727   6.657   2.881   6.626  0.7369  0.7688  0.2832
 6390TIP3   OH240728   4.151   0.520   6.902  0.8583 -0.4562  0.8047
 6390TIP3    H140729   4.117   0.511   6.813  1.2991  0.5792  0.5156
 6390TIP3    H240730   4.137   0.612   6.924  1.7006 -0.4580  1.3988
 6391TIP3   OH240731   2.185   5.397   0.235 -0.3491 -0.0125  0.0091
 6391TIP3    H140732   2.112   5.378   0.294 -1.9173  0.9770 -1.4842
 6391TIP3    H240733   2.221   5.311   0.212 -0.5407 -0.4746  1.3680
 6392TIP3   OH240734   6.100   4.771   7.230  0.1712  0.0964  0.2168
 6392TIP3    H140735   6.164   4.750   7.162  0.3932  2.4746 -0.4100
 6392TIP3    H240736   6.069   4.686   7.261  1.8294 -1.0894 -1.1668
 6393TIP3   OH240737   1.524   6.407   6.595  0.1552  0.0775  0.2496
 6393TIP3    H140738   1.530   6.357   6.677  1.3747 -2.4787 -1.2566
 6393TIP3    H240739   1.442   6.378   6.556  0.9152 -0.8744 -0.6799
 6394TIP3   OH240740   4.002   0.458   7.454  0.3102 -0.8744  0.1711
 6394TIP3    H140741   3.931   0.492   7.400 -0.3610 -0.8350  1.0656
 6394TIP3    H240742   4.076   0.449   7.393 -0.4853 -1.0361 -0.8043
 6395TIP3   OH240743   2.362   0.622   1.433  0.5062  0.4643 -0.0539
 6395TIP3    H140744   2.437   0.608   1.376 -0.2097 -3.3756 -0.3432
 6395TIP3    H240745   2.378   0.565   1.508 -2.4460 -1.3257 -0.6147
 6396TIP3   OH240746   4.998   3.995   1.907  0.5376  0.5322  0.0433
 6396TIP3    H140747   5.054   3.944   1.966  0.9465  1.5762  0.5846
 6396TIP3    H240748   4.937   4.039   1.966  1.1036  1.7820 -0.2833
 6397TIP3   OH240749   1.497   6.586   7.997  0.1653  0.1863 -0.4138
 6397TIP3    H140750   1.407   6.616   8.008  0.3020  0.5661 -0.3296
 6397TIP3    H240751   1.491   6.491   8.004 -0.0854  0.2623  0.7146
 6398TIP3   OH240752   6.388   2.561   2.195 -0.1820  0.7375  0.3399
 6398TIP3    H140753   6.350   2.553   2.282 -1.1689  0.4481 -0.1009
 6398TIP3    H240754   6.476   2.596   2.210  1.1172 -2.6950  1.7538
 6399TIP3   OH240755   0.560   0.585   0.283 -0.4538 -0.2713 -0.2543
 6399TIP3    H140756   0.496   0.646   0.320  0.0896  0.9433 -1.2474
 6399TIP3    H240757   0.632   0.584   0.346 -0.1820  0.6317 -0.5405
 6400TIP3   OH240758   5.558   0.976   1.581 -0.3887 -0.1178  0.1525
 6400TIP3    H140759   5.464   0.965   1.597 -0.4698  1.9940  1.4462
 6400TIP3    H240760   5.562   1.037   1.507  0.0341 -1.8319 -1.3315
 6401TIP3   OH240761   3.734   6.200   7.968 -0.5279 -0.3289  0.5412
 6401TIP3    H140762   3.824   6.228   7.984 -0.7498  0.5928  0.2705
 6401TIP3    H240763   3.687   6.222   8.048 -0.7392  0.2780  0.2644
 6402TIP3   OH240764   0.568   2.487   1.242  0.8393 -0.1584 -0.1433
 6402TIP3    H140765   0.644   2.450   1.198  1.7337 -1.3924  2.2669
 6402TIP3    H240766   0.604   2.551   1.303 -0.2800  0.9219 -0.5785
 6403TIP3   OH240767   1.000   2.243   1.229  0.1702  0.2905  0.1543
 6403TIP3    H140768   1.096   2.248   1.232  0.2876  1.0924 -2.5720
 6403TIP3    H240769   0.981   2.154   1.201  0.2308  0.6365 -1.0425
 6404TIP3   OH240770   5.641   0.631   0.224 -0.2588  0.1074 -0.2611
 6404TIP3    H140771   5.558   0.647   0.180 -0.4976  0.9497  0.4769
 6404TIP3    H240772   5.661   0.713   0.269  0.6276 -0.3134  0.1341
 6405TIP3   OH240773   3.935   4.290   7.639  0.1358 -0.2478  0.3676
 6405TIP3    H140774   4.012   4.245   7.673  0.3604 -0.0886  0.0736
 6405TIP3    H240775   3.950   4.295   7.544  0.2586  0.7113  0.4309
 6406TIP3   OH240776   6.973   2.143   6.827 -0.6514 -0.2298 -0.7089
 6406TIP3    H140777   6.987   2.057   6.786 -0.2488  0.1872 -1.4511
 6406TIP3    H240778   6.997   2.206   6.760 -4.0786  0.5485 -1.3638
 6407TIP3   OH240779   0.856   3.326   7.003  0.2750  0.0060  0.5184
 6407TIP3    H140780   0.830   3.278   6.924  0.1719  0.0601  0.5181
 6407TIP3    H240781   0.786   3.390   7.015  0.8109  0.6804  0.0699
 6408TIP3   OH240782   0.578   4.410   6.672  0.0063  0.3160 -0.2807
 6408TIP3    H140783   0.591   4.478   6.738  0.1638  0.2940 -0.2896
 6408TIP3    H240784   0.589   4.454   6.589  2.3894 -0.1476 -0.2929
 6409TIP3   OH240785   5.191   3.663   1.375 -0.0121 -0.4993  0.2409
 6409TIP3    H140786   5.285   3.668   1.390 -0.0799 -0.8774  0.8098
 6409TIP3    H240787   5.151   3.694   1.456 -0.3919  0.8754 -0.4402
 6410TIP3   OH240788   3.967   6.820   0.328  0.1491 -0.4792  0.0225
 6410TIP3    H140789   4.029   6.854   0.264  0.6404 -1.7113 -0.1872
 6410TIP3    H240790   3.886   6.807   0.279  0.5048 -1.3593 -0.3511
 6411TIP3   OH240791   5.964   4.562   7.337  0.4412  0.3824 -0.4050
 6411TIP3    H140792   6.031   4.545   7.402  0.6111  1.0809 -0.3868
 6411TIP3    H240793   5.884   4.574   7.388 -0.2943 -3.0258 -0.5559
 6412TIP3   OH240794   6.628   4.062   1.329 -0.0202  0.1166  0.5409
 6412TIP3    H140795   6.607   3.992   1.268 -0.3357 -0.8048  1.6636
 6412TIP3    H240796   6.698   4.026   1.384  1.1175  1.3742 -0.0273
 6413TIP3   OH240797   3.075   0.561   6.857  0.0937  0.1229 -0.5885
 6413TIP3    H140798   3.109   0.583   6.944 -0.6978 -0.2595 -0.1733
 6413TIP3    H240799   3.099   0.636   6.802 -0.6482  1.0396  0.2920
 6414TIP3   OH240800   0.310   6.951   1.300 -0.0436 -0.4904 -0.5223
 6414TIP3    H140801   0.392   6.915   1.266  1.2751  2.3955 -0.6934
 6414TIP3    H240802   0.244   6.924   1.236  0.7604 -2.7440 -0.4626
 6415TIP3   OH240803   6.025   2.746   7.387 -0.0496 -0.0835  0.2997
 6415TIP3    H140804   6.077   2.730   7.308 -0.9651  0.1229 -0.3579
 6415TIP3    H240805   6.063   2.687   7.453  0.3514 -0.6926 -0.4598
 6416TIP3   OH240806   4.828   6.473   0.304 -0.2535 -0.0471  0.2334
 6416TIP3    H140807   4.908   6.482   0.355 -0.5252  2.2421  0.3979
 6416TIP3    H240808   4.761   6.451   0.368 -0.0425 -0.3039  0.3672
 6417TIP3   OH240809   4.516   1.766   6.700  0.3003 -0.3841 -0.3564
 6417TIP3    H140810   4.574   1.735   6.631 -0.5138 -2.1102 -0.3037
 6417TIP3    H240811   4.440   1.709   6.695 -1.4130  1.7916 -0.3889
 6418TIP3   OH240812   3.976   0.468   7.737 -0.3685  0.1712  0.1767
 6418TIP3    H140813   4.023   0.549   7.758  0.4549 -0.1600 -0.3523
 6418TIP3    H240814   3.970   0.469   7.641  1.2200 -1.2389  0.0241
 6419TIP3   OH240815   1.214   2.845   7.889 -0.6444  0.0192 -0.0605
 6419TIP3    H140816   1.180   2.757   7.909 -1.4324  0.1902 -0.5723
 6419TIP3    H240817   1.309   2.837   7.898 -0.8023 -0.5282  1.2450
 6420TIP3   OH240818   3.421   1.268   8.056 -0.2543  0.5228  0.9888
 6420TIP3    H140819   3.455   1.357   8.051  0.6801  0.0817 -1.3937
 6420TIP3    H240820   3.461   1.232   8.136  1.3520  1.4408  0.6405
 6421TIP3   OH240821   2.831   2.957   7.423 -0.2075  0.6427  0.3744
 6421TIP3    H140822   2.744   2.974   7.458 -0.3692  1.6533 -0.4399
 6421TIP3    H240823   2.862   3.043   7.393  1.0358  0.2904  0.5745
 6422TIP3   OH240824   6.920   3.065   1.429 -0.0694 -0.0797 -0.1019
 6422TIP3    H140825   6.978   3.130   1.390 -0.9290  0.2273 -0.9215
 6422TIP3    H240826   6.966   2.982   1.420  0.9397  0.3624  0.7513
 6423TIP3   OH240827   4.814   1.470   2.285 -0.5333 -0.0452  0.3666
 6423TIP3    H140828   4.721   1.470   2.308 -0.3571  0.8921  1.1343
 6423TIP3    H240829   4.847   1.553   2.319 -0.1055  1.1954 -2.8058
 6424TIP3   OH240830   3.027   5.716   7.954  0.2427  0.2457  0.2988
 6424TIP3    H140831   2.998   5.626   7.937  1.1021 -0.4013  2.0588
 6424TIP3    H240832   2.954   5.756   8.001  0.3458  0.0899  0.5897
 6425TIP3   OH240833   5.724   0.662   1.148  0.4725 -0.3999 -0.3561
 6425TIP3    H140834   5.729   0.598   1.218  1.6749 -0.1637 -0.1954
 6425TIP3    H240835   5.764   0.619   1.072 -1.3065 -0.8553 -1.0969
 6426TIP3   OH240836   3.772   6.743   0.146 -0.1341 -0.2266 -0.2055
 6426TIP3    H140837   3.718   6.818   0.122 -1.0321 -0.4238  1.0854
 6426TIP3    H240838   3.710   6.671   0.157  0.5200 -0.7338  0.2441
 6427TIP3   OH240839   4.130   2.373   0.075  0.5450 -0.6639 -0.4490
 6427TIP3    H140840   4.145   2.292   0.026 -1.2415 -0.4398 -1.4035
 6427TIP3    H240841   4.216   2.393   0.114  1.2086 -2.5794 -0.8227
 6428TIP3   OH240842   5.464   1.693   7.013  0.1775 -0.5908 -0.3670
 6428TIP3    H140843   5.401   1.723   6.947 -0.4496  1.6888  1.1638
 6428TIP3    H240844   5.527   1.640   6.963 -2.5314 -2.4896 -2.0801
 6429TIP3   OH240845   6.241   4.092   0.333 -0.3958 -0.1835  0.5646
 6429TIP3    H140846   6.253   4.014   0.388 -3.4146 -0.7191  0.6421
 6429TIP3    H240847   6.178   4.065   0.266  0.5686  1.4574 -1.0918
 6430TIP3   OH240848   5.189   6.858   1.334 -0.6504 -0.8263 -0.7953
 6430TIP3    H140849   5.240   6.783   1.305  1.5015  0.4437 -0.5182
 6430TIP3    H240850   5.151   6.895   1.254 -0.1443 -1.1204 -1.1755
 6431TIP3   OH240851   2.160   1.322   1.646 -0.4123 -0.0551  0.1007
 6431TIP3    H140852   2.075   1.357   1.618 -1.1524 -1.8087 -0.0288
 6431TIP3    H240853   2.165   1.236   1.603  0.4355 -0.9235  1.8466
 6432TIP3   OH240854   3.235   1.289   1.077  0.0425 -0.3449 -0.0575
 6432TIP3    H140855   3.141   1.271   1.069 -0.1883  0.7269  0.0919
 6432TIP3    H240856   3.242   1.348   1.152  0.6944  0.5507 -0.8014
 6433TIP3   OH240857   6.360   1.099   2.496  0.3319 -0.3554 -0.4645
 6433TIP3    H140858   6.414   1.143   2.431 -1.9611  2.1635 -0.8434
 6433TIP3    H240859   6.296   1.049   2.445 -0.2800  0.0662 -0.1222
 6434TIP3   OH240860   3.159   2.285   0.055 -0.4970  0.3975 -0.4267
 6434TIP3    H140861   3.076   2.239   0.067  0.4361 -0.9932  1.2492
 6434TIP3    H240862   3.196   2.290   0.144  1.1988  0.9497 -1.1306
 6435TIP3   OH240863   4.358   0.211   0.554 -0.0746  0.0708 -0.0487
 6435TIP3    H140864   4.410   0.290   0.537 -2.2685  1.2934 -1.5777
 6435TIP3    H240865   4.423   0.141   0.563  1.9970  2.0821  2.0188
 6436TIP3   OH240866   0.904   0.211   0.279  0.2206 -0.5948  0.1174
 6436TIP3    H140867   0.844   0.266   0.329 -0.5098 -1.2382 -0.0362
 6436TIP3    H240868   0.864   0.205   0.192  2.0374  1.4408 -0.9391
 6437TIP3   OH240869   1.819   2.008   7.844 -0.1038 -0.3001  0.4750
 6437TIP3    H140870   1.835   2.051   7.928  0.1694 -0.2058  0.3747
 6437TIP3    H240871   1.818   1.914   7.864 -1.9114 -0.2315  0.9095
 6438TIP3   OH240872   5.944   3.593   2.020  0.6221  0.1100  0.6594
 6438TIP3    H140873   5.997   3.652   2.073  2.0007 -1.0875  0.6851
 6438TIP3    H240874   5.984   3.507   2.033 -0.6533 -0.6521 -0.2302
 6439TIP3   OH240875   5.586   3.534   2.135 -0.4106 -0.3107 -0.6012
 6439TIP3    H140876   5.614   3.625   2.125 -0.0724 -0.4598 -1.0369
 6439TIP3    H240877   5.530   3.535   2.212  0.3430  0.0940 -0.0433
 6440TIP3   OH240878   4.787   2.811   2.310  0.0189 -0.5910 -0.7437
 6440TIP3    H140879   4.810   2.803   2.402 -0.4381 -0.5435 -0.6194
 6440TIP3    H240880   4.802   2.724   2.274  0.1247 -0.6309 -0.6058
 6441TIP3   OH240881   3.463   5.373   8.347  0.0800 -0.0059 -0.3557
 6441TIP3    H140882   3.459   5.283   8.315 -0.1708 -0.6089  1.2520
 6441TIP3    H240883   3.411   5.372   8.428  2.6306  0.7747  1.4334
 6442TIP3   OH240884   0.550   1.621   1.618  0.4845 -0.1605 -0.2277
 6442TIP3    H140885   0.585   1.586   1.536  2.3826  1.0582 -0.0028
 6442TIP3    H240886   0.541   1.715   1.603 -0.0635 -0.0580  0.6544
 6443TIP3   OH240887   5.190   6.505   7.119  0.0016  0.6519  0.2372
 6443TIP3    H140888   5.187   6.581   7.062  2.1045  0.5944 -0.0151
 6443TIP3    H240889   5.279   6.471   7.109 -1.0552 -2.2555 -0.1836
 6444TIP3   OH240890   1.231   0.394   0.219  0.1221 -0.2688  0.0402
 6444TIP3    H140891   1.188   0.438   0.292  1.1740  0.4881  0.2144
 6444TIP3    H240892   1.265   0.313   0.256  0.9570  0.2761  0.4882
 6445TIP3   OH240893   4.848   4.925   6.735 -0.1193  0.2064  0.2410
 6445TIP3    H140894   4.775   4.921   6.673  1.5736 -0.5501 -1.8168
 6445TIP3    H240895   4.908   4.988   6.697  0.7616  0.0786  1.3785
 6446TIP3   OH240896   5.783   0.091   8.337 -0.1037  0.4056 -0.1488
 6446TIP3    H140897   5.803   0.096   8.244  0.5238 -0.4781 -0.0700
 6446TIP3    H240898   5.847   0.150   8.378  1.0284 -0.8003 -0.1013
 6447TIP3   OH240899   0.133   6.105   0.402 -0.1099  0.2041 -0.5145
 6447TIP3    H140900   0.039   6.121   0.402 -0.2999 -0.6449  1.1506
 6447TIP3    H240901   0.171   6.190   0.426 -0.7230 -0.1959  2.2319
 6448TIP3   OH240902   5.286   2.445   7.053  0.0899 -0.6968 -0.0269
 6448TIP3    H140903   5.248   2.524   7.016 -1.3327 -0.7280  1.2883
 6448TIP3    H240904   5.326   2.400   6.978  1.3137  1.4327 -0.7198
 6449TIP3   OH240905   2.566   4.448   1.904  0.2947 -0.2271  0.0010
 6449TIP3    H140906   2.637   4.445   1.841 -0.2502 -0.9330 -0.5976
 6449TIP3    H240907   2.573   4.535   1.945  0.7050  0.2092 -0.9691
 6450TIP3   OH240908   0.310   1.065   0.197 -0.5823 -0.5899  0.3524
 6450TIP3    H140909   0.356   0.982   0.209  1.5143  0.2200 -1.5464
 6450TIP3    H240910   0.220   1.039   0.175  0.2892 -2.4437 -1.3853
 6451TIP3   OH240911   0.631   2.328   2.550 -0.0357  0.3518  0.2310
 6451TIP3    H140912   0.659   2.419   2.562  0.3890  0.1361  0.9355
 6451TIP3    H240913   0.580   2.309   2.629  1.1807 -0.5063  0.8320
 6452TIP3   OH240914   6.419   5.709   1.265 -0.0043 -0.4413  0.2491
 6452TIP3    H140915   6.455   5.789   1.305 -1.0688 -0.6986  1.7914
 6452TIP3    H240916   6.485   5.642   1.283 -0.4050 -0.5240  1.5092
 6453TIP3   OH240917   4.286   1.594   6.802 -0.0101 -0.0331 -0.0713
 6453TIP3    H140918   4.327   1.515   6.837  0.2709  0.3797  0.5499
 6453TIP3    H240919   4.219   1.562   6.742 -0.1049 -0.7481  0.4066
 6454TIP3   OH240920   6.012   0.027   2.199  0.5316  0.4053  1.0013
 6454TIP3    H140921   5.971  -0.058   2.183  1.3876  0.3243 -1.1680
 6454TIP3    H240922   6.106   0.009   2.196  0.7254  1.2532  1.6904
 6455TIP3   OH240923   3.871   2.533   1.466  0.3070 -0.0215 -0.3393
 6455TIP3    H140924   3.856   2.627   1.450  0.7996 -0.2165 -2.1501
 6455TIP3    H240925   3.896   2.529   1.558  0.9776  1.7394 -0.3875
 6456TIP3   OH240926   4.059   4.362   1.130 -0.2557 -0.5323 -0.2948
 6456TIP3    H140927   4.014   4.296   1.185  0.1093 -0.0409  0.6156
 6456TIP3    H240928   4.127   4.312   1.085 -1.1486 -1.1253 -1.0514
 6457TIP3   OH240929   6.203   0.784   0.157 -0.1429 -0.2175 -0.0464
 6457TIP3    H140930   6.145   0.860   0.149  0.8877  0.6122  0.1639
 6457TIP3    H240931   6.255   0.784   0.077 -0.5952 -1.1149 -0.3579
 6458TIP3   OH240932   6.863   4.006   2.069 -0.5633 -0.3426  0.2384
 6458TIP3    H140933   6.808   3.978   2.142  0.1134 -0.4958  0.6935
 6458TIP3    H240934   6.801   4.026   1.999 -1.2874  0.7169  1.1470
 6459TIP3   OH240935   4.272   4.835   7.325  0.2001 -0.5450 -0.4570
 6459TIP3    H140936   4.218   4.757   7.332 -0.6521  0.0866  0.2120
 6459TIP3    H240937   4.210   4.907   7.319  0.8733  0.4239  2.5665
 6460TIP3   OH240938   3.265   6.779   0.742  0.1488 -0.0509 -0.0993
 6460TIP3    H140939   3.274   6.708   0.679  0.6987 -0.0308 -0.0547
 6460TIP3    H240940   3.339   6.837   0.723 -0.0802  0.3158  0.1078
 6461TIP3   OH240941   5.098   6.508   0.385  0.9715  0.2754  0.3763
 6461TIP3    H140942   5.166   6.525   0.320  1.1615 -1.0760  0.1939
 6461TIP3    H240943   5.143   6.462   0.456  0.4418  0.2740  0.7196
 6462TIP3   OH240944   2.086   3.199   2.171  0.7980 -0.7065 -0.1931
 6462TIP3    H140945   2.049   3.272   2.220 -1.2480 -1.9191  0.1589
 6462TIP3    H240946   2.025   3.127   2.184  2.0168 -2.0950 -1.6808
 6463TIP3   OH240947   1.150   2.334   7.767 -0.1379  0.0380 -0.2641
 6463TIP3    H140948   1.223   2.284   7.802 -0.8265 -0.9042 -0.1365
 6463TIP3    H240949   1.124   2.392   7.839  0.5402  0.4675 -0.3520
 6464TIP3   OH240950   2.552   0.711   7.961  0.0146  0.0392 -0.6581
 6464TIP3    H140951   2.536   0.661   7.881 -1.1100 -0.8368  0.0894
 6464TIP3    H240952   2.635   0.756   7.944  1.1924 -2.2154 -1.3052
 6465TIP3   OH240953   6.210   2.997   7.448  0.1871 -0.1947 -0.4529
 6465TIP3    H140954   6.167   2.948   7.518 -0.0094 -0.3207 -0.6610
 6465TIP3    H240955   6.142   3.012   7.383 -0.4534  2.5878  0.7196
 6466TIP3   OH240956   1.098   1.710   0.049 -0.1874 -0.0599  0.1304
 6466TIP3    H140957   1.084   1.711  -0.046 -0.6418  0.0947  0.1918
 6466TIP3    H240958   1.073   1.798   0.077  1.5615  0.4495  0.1897
 6467TIP3   OH240959   2.655   0.347   7.915  0.4605  0.2673  0.0249
 6467TIP3    H140960   2.739   0.358   7.871  0.8443 -0.0061  0.6676
 6467TIP3    H240961   2.595   0.405   7.868  0.9746  0.3622 -0.5260
 6468TIP3   OH240962   1.443   3.917   0.822  0.3938 -0.4456  0.0255
 6468TIP3    H140963   1.449   3.895   0.915  0.5363  0.9801  0.3837
 6468TIP3    H240964   1.501   3.855   0.779 -0.5751 -1.8896  0.7362
 6469TIP3   OH240965   3.667   1.241   7.511 -0.8037 -0.4497  0.1175
 6469TIP3    H140966   3.586   1.289   7.530 -0.9154 -1.5566  2.9157
 6469TIP3    H240967   3.736   1.306   7.520 -1.2488  0.1293 -0.5514
 6470TIP3   OH240968   2.803   1.535   6.823 -0.4800  0.4961 -0.3346
 6470TIP3    H140969   2.871   1.559   6.886 -0.6398 -0.0196  0.0433
 6470TIP3    H240970   2.773   1.449   6.851 -1.7838  1.0088 -0.0824
 6471TIP3   OH240971   3.277   5.117   7.409  0.2423 -0.2547  0.0924
 6471TIP3    H140972   3.270   5.043   7.470  0.6929 -1.3229 -1.1168
 6471TIP3    H240973   3.362   5.106   7.367  0.0107  0.5707 -0.6176
 6472TIP3   OH240974   2.208   6.959   7.923  0.8702 -0.4088 -0.3442
 6472TIP3    H140975   2.125   7.000   7.947  2.1656  0.8343  2.5228
 6472TIP3    H240976   2.191   6.865   7.930 -0.7240 -0.2576 -1.6275
 6473TIP3   OH240977   6.891   1.851   0.524  0.2936  0.2957 -0.6952
 6473TIP3    H140978   6.874   1.793   0.598 -0.5382  0.3066 -0.8676
 6473TIP3    H240979   6.827   1.922   0.534  0.8284  0.8200 -0.8782
 6474TIP3   OH240980   1.058   2.597   0.861 -0.2991  0.3752 -0.3624
 6474TIP3    H140981   1.066   2.685   0.823 -2.9675 -0.2117 -2.6359
 6474TIP3    H240982   1.045   2.540   0.785  0.6427 -1.9246  1.1048
 6475TIP3   OH240983   0.886   4.476   0.431 -0.1265  0.4034  0.5367
 6475TIP3    H140984   0.800   4.436   0.424 -0.3422  0.7104  1.2951
 6475TIP3    H240985   0.921   4.445   0.515  0.9887 -0.6295 -0.2743
 6476TIP3   OH240986   6.644   1.483   1.580 -0.3201  0.8211  0.1968
 6476TIP3    H140987   6.602   1.421   1.521  0.4436 -1.3964  1.8607
 6476TIP3    H240988   6.738   1.465   1.570 -0.1360  1.1079  1.3424
 6477TIP3   OH240989   5.733   1.478   0.533 -0.5038 -0.2865 -0.2363
 6477TIP3    H140990   5.779   1.444   0.610  0.1997  0.2510 -0.4073
 6477TIP3    H240991   5.699   1.563   0.560 -0.3138 -0.1259 -0.4972
 6478TIP3   OH240992   0.407   4.614   0.842  0.0734  0.5388 -0.0340
 6478TIP3    H140993   0.394   4.682   0.907  1.4122  0.6661  0.1182
 6478TIP3    H240994   0.497   4.583   0.856 -0.2697 -0.7826 -0.5404
 6479TIP3   OH240995   3.731   4.927   0.321 -0.2395 -0.4486 -0.1837
 6479TIP3    H140996   3.696   4.894   0.238 -1.9978 -0.6511  0.6089
 6479TIP3    H240997   3.726   4.852   0.380 -0.2159  0.0527  0.4560
 6480TIP3   OH240998   2.893   2.808   1.243  0.7249  0.1628 -0.3444
 6480TIP3    H140999   2.801   2.791   1.264 -0.1132  3.7831 -0.4027
 6480TIP3    H241000   2.927   2.855   1.319  1.8355  0.8824 -1.2436
 6481TIP3   OH241001   5.710   1.182   2.057  0.4379 -0.1041 -0.3104
 6481TIP3    H141002   5.693   1.174   1.963  3.5518 -1.0334 -0.9202
 6481TIP3    H241003   5.726   1.276   2.070 -0.3115  0.0744 -0.6314
 6482TIP3   OH241004   2.491   2.334   1.619 -0.0721  0.3080 -0.2779
 6482TIP3    H141005   2.526   2.327   1.530 -0.4157  0.2932 -0.4131
 6482TIP3    H241006   2.463   2.246   1.641 -0.5385  0.4254 -0.3858
 6483TIP3   OH241007   4.377   5.624   8.358 -1.0512 -0.1422 -0.1016
 6483TIP3    H141008   4.354   5.592   8.271  0.3241 -2.3509  0.2581
 6483TIP3    H241009   4.294   5.625   8.406 -1.4710 -1.2127 -0.7686
 6484TIP3   OH241010   6.335   2.407   1.447  0.2960  0.1901  0.3466
 6484TIP3    H141011   6.342   2.320   1.486  0.6911  0.5049  0.9856
 6484TIP3    H241012   6.241   2.421   1.435  0.1764  0.0277  1.0519
 6485TIP3   OH241013   0.876   3.710   7.722 -0.1523 -0.6650  0.0240
 6485TIP3    H141014   0.914   3.640   7.775  0.7622  0.7244  1.3118
 6485TIP3    H241015   0.784   3.713   7.747  0.0810 -0.6039  0.9116
 6486TIP3   OH241016   5.223   5.697   8.032 -0.5243 -0.0366 -0.0276
 6486TIP3    H141017   5.215   5.787   8.002 -0.5617  0.2410  0.8046
 6486TIP3    H241018   5.136   5.676   8.067 -0.3358 -0.1907  0.3468
 6487TIP3   OH241019   6.544   6.244   7.966  0.0217 -0.0270 -0.9327
 6487TIP3    H141020   6.449   6.245   7.959 -0.1713 -0.2928  1.1610
 6487TIP3    H241021   6.570   6.335   7.953 -0.5509  0.1311 -0.9903
 6488TIP3   OH241022   3.180   5.674   2.046 -0.2876 -0.4906 -0.2543
 6488TIP3    H141023   3.255   5.730   2.069  0.4209 -1.5520  0.0932
 6488TIP3    H241024   3.213   5.585   2.056 -1.7985 -0.9965  0.5599
 6489TIP3   OH241025   1.958   0.311   7.497  0.6961 -0.0200  0.1923
 6489TIP3    H141026   1.908   0.361   7.561  0.7474 -1.0873  1.0960
 6489TIP3    H241027   2.043   0.297   7.539  1.3160  0.6487 -0.7913
 6490TIP3   OH241028   6.124   1.627   1.183 -0.6226  0.4893  0.1152
 6490TIP3    H141029   6.133   1.585   1.097 -1.9343 -1.4283  0.8625
 6490TIP3    H241030   6.190   1.583   1.238 -1.1992  0.2333  0.6073
 6491TIP3   OH241031   1.803   5.882   1.617 -0.8486  0.0301  0.4124
 6491TIP3    H141032   1.836   5.796   1.591 -0.1339  0.5003 -0.2826
 6491TIP3    H241033   1.775   5.870   1.708 -2.7778 -1.4783 -0.3100
 6492TIP3   OH241034   1.232   2.826   2.203 -0.1167  0.1399  0.9679
 6492TIP3    H141035   1.271   2.760   2.260 -2.5175 -0.1555  2.3837
 6492TIP3    H241036   1.204   2.778   2.125 -0.4341 -0.2160  1.3005
 6493TIP3   OH241037   3.295   0.374   1.532 -0.0344  0.0379  0.0641
 6493TIP3    H141038   3.297   0.469   1.546  2.1344  0.1532 -0.7534
 6493TIP3    H241039   3.309   0.337   1.619  1.1568  0.5301  0.0991
 6494TIP3   OH241040   5.103   3.161   0.408 -0.4902  0.0284  0.0351
 6494TIP3    H141041   5.084   3.104   0.334 -1.2485  3.0307 -2.2807
 6494TIP3    H241042   5.018   3.174   0.450 -0.6782  0.8374 -0.5682
 6495TIP3   OH241043   4.029   2.035   7.210  0.7598  0.3437  0.0680
 6495TIP3    H141044   3.981   1.952   7.213  0.9479  0.2272 -0.1998
 6495TIP3    H241045   4.025   2.062   7.119 -1.1198  1.6947  0.5085
 6496TIP3   OH241046   2.479   6.334   0.675  0.1895 -0.0043  0.1482
 6496TIP3    H141047   2.393   6.377   0.673  0.6760  1.0082  0.3169
 6496TIP3    H241048   2.478   6.281   0.754  0.0838  0.8132  0.7100
 6497TIP3   OH241049   4.081   3.515   8.080  0.3016 -0.2857  0.3282
 6497TIP3    H141050   4.041   3.440   8.126  1.4207 -1.4816 -0.5544
 6497TIP3    H241051   4.016   3.541   8.016 -0.2886 -0.1925  0.9473
 6498TIP3   OH241052   1.429   4.256   0.868 -0.2139  0.3930 -0.0514
 6498TIP3    H141053   1.482   4.178   0.851 -2.1900 -1.1135  0.4250
 6498TIP3    H241054   1.493   4.328   0.869  1.7106 -1.2224 -0.2301
 6499TIP3   OH241055   4.689   0.388   1.524  0.4005  0.0223  0.4300
 6499TIP3    H141056   4.645   0.386   1.439  1.4532 -3.3215 -0.1926
 6499TIP3    H241057   4.738   0.470   1.524 -0.7273  0.7688 -1.5791
 6500TIP3   OH241058   3.307   5.043   2.297 -0.0625  0.1004  0.2784
 6500TIP3    H141059   3.272   5.082   2.216  0.6126  1.4449  0.5997
 6500TIP3    H241060   3.252   5.080   2.367 -0.2674 -0.5945  0.4916
 6501TIP3   OH241061   1.371   1.705   1.727 -0.6997 -0.1727 -0.0664
 6501TIP3    H141062   1.449   1.740   1.770 -1.4676 -0.7171  1.8922
 6501TIP3    H241063   1.385   1.720   1.634  0.4929  2.2490  0.4438
 6502TIP3   OH241064   2.313   6.622   7.006 -0.5284 -0.0152  0.1885
 6502TIP3    H141065   2.356   6.707   6.993 -2.4201  0.7908 -1.3342
 6502TIP3    H241066   2.313   6.581   6.920  0.7240 -1.8053  0.9840
 6503TIP3   OH241067   5.225   0.391   0.587 -0.2193 -1.0379  0.0383
 6503TIP3    H141068   5.223   0.415   0.679 -2.5443 -1.2434  0.0953
 6503TIP3    H241069   5.255   0.471   0.542 -3.8540  0.8185  0.5924
 6504TIP3   OH241070   3.571   3.967   8.097  0.3571  0.1984 -0.2595
 6504TIP3    H141071   3.635   3.941   8.031  1.5398  0.3481  0.7906
 6504TIP3    H241072   3.555   4.060   8.080  0.8540  0.2991 -0.1779
 6505TIP3   OH241073   1.241   6.349   0.264  0.4206  0.1860 -0.2832
 6505TIP3    H141074   1.323   6.390   0.292  1.5511 -0.6919 -2.1084
 6505TIP3    H241075   1.262   6.308   0.180 -1.3057 -1.9857  0.2485
 6506TIP3   OH241076   6.903   3.961   1.422  0.6733  0.2787 -0.6337
 6506TIP3    H141077   6.942   3.906   1.491 -0.4088 -0.5144 -0.6249
 6506TIP3    H241078   6.898   3.903   1.346  1.7944  1.1345 -1.3881
 6507TIP3   OH241079   1.328   0.164   7.499  0.3611 -0.0827  0.3132
 6507TIP3    H141080   1.305   0.176   7.591 -0.3068 -0.2431  0.1655
 6507TIP3    H241081   1.422   0.185   7.495  0.8612 -1.9206  1.3834
 6508TIP3   OH241082   4.862   4.614   1.256  0.0056 -0.2394 -0.0518
 6508TIP3    H141083   4.894   4.533   1.217  0.3405  0.3955 -1.1369
 6508TIP3    H241084   4.928   4.638   1.321 -1.0688 -1.8565  1.7540
 6509TIP3   OH241085   3.394   5.023   7.794 -0.2298  0.2770  0.1129
 6509TIP3    H141086   3.446   5.093   7.753 -0.3243  1.0872  1.3249
 6509TIP3    H241087   3.445   4.944   7.779  0.8431  0.9019  0.3694
 6510TIP3   OH241088   1.727   0.910   0.842  0.7395 -0.1027 -1.0343
 6510TIP3    H141089   1.681   0.994   0.851  1.5482  0.1999  0.5493
 6510TIP3    H241090   1.659   0.849   0.812 -0.7391  0.3219  1.1952
 6511TIP3   OH241091   6.238   4.014   6.785 -0.4376  0.9712  0.3747
 6511TIP3    H141092   6.324   4.056   6.779 -0.7069  1.4078 -0.6578
 6511TIP3    H241093   6.252   3.940   6.845  0.5687  1.2413  0.4990
 6512TIP3   OH241094   1.743   1.877   1.160 -0.2375 -0.1992  0.5412
 6512TIP3    H141095   1.650   1.895   1.170 -0.9496 -3.5085  0.7304
 6512TIP3    H241096   1.765   1.912   1.073 -2.0559 -0.7505 -0.1809
 6513TIP3   OH241097   5.304   5.919   1.514  0.6714  0.1409  0.8203
 6513TIP3    H141098   5.281   5.867   1.437  0.5883 -1.5205  1.8902
 6513TIP3    H241099   5.222   5.929   1.562  1.2227 -1.7348  2.3009
 6514TIP3   OH241100   6.820   5.755   7.390  0.3939 -0.1146  0.8202
 6514TIP3    H141101   6.733   5.767   7.352  0.8581  0.2739 -0.1618
 6514TIP3    H241102   6.804   5.724   7.479 -0.7437 -0.2255  0.5869
 6515TIP3   OH241103   5.800   5.511   1.211  0.2590 -0.4277 -0.1828
 6515TIP3    H141104   5.792   5.465   1.128 -0.2426  0.3844 -0.5913
 6515TIP3    H241105   5.891   5.495   1.239 -0.1935 -2.5838  0.2544
 6516TIP3   OH241106   3.742   0.380   7.906  0.1168 -0.3536 -0.4280
 6516TIP3    H141107   3.702   0.460   7.872 -1.2073 -1.0079 -0.4641
 6516TIP3    H241108   3.834   0.387   7.880  0.2798  1.6316  0.4682
 6517TIP3   OH241109   2.136   6.427   7.116 -0.2780 -0.3026 -0.0795
 6517TIP3    H141110   2.169   6.339   7.132 -1.3338 -0.4179  1.9103
 6517TIP3    H241111   2.214   6.480   7.101  0.6557 -1.0329  1.8439
 6518TIP3   OH241112   1.721   4.046   7.941 -0.4589 -0.3461 -0.4128
 6518TIP3    H141113   1.815   4.040   7.921 -0.6395 -0.3844 -1.2732
 6518TIP3    H241114   1.707   4.139   7.958 -0.4680 -0.1647 -1.3589
 6519TIP3   OH241115   3.409   1.857   1.345  0.4546  0.4523 -0.2381
 6519TIP3    H141116   3.361   1.783   1.382 -0.4040  0.3953 -1.3976
 6519TIP3    H241117   3.501   1.837   1.362  0.1493 -0.0887  0.8613
 6520TIP3   OH241118   5.699   1.223   1.764 -0.4144  0.2427  0.0013
 6520TIP3    H141119   5.622   1.280   1.765  0.4412  1.4838 -1.2239
 6520TIP3    H241120   5.769   1.278   1.730  0.9718 -0.9380  0.8386
 6521TIP3   OH241121   4.834   5.540   7.453  0.6242  0.6081 -0.0472
 6521TIP3    H141122   4.833   5.588   7.370  0.9924 -1.4302 -1.2814
 6521TIP3    H241123   4.920   5.559   7.491  1.4739 -0.4456 -1.3750
 6522TIP3   OH241124   1.734   5.284   0.098  0.5385 -0.1071 -0.3950
 6522TIP3    H141125   1.693   5.364   0.064 -1.0971 -0.7744 -0.1327
 6522TIP3    H241126   1.777   5.245   0.022 -1.6891 -0.7481 -1.4412
 6523TIP3   OH241127   0.770   2.335   1.139  0.7219  0.2425  0.2126
 6523TIP3    H141128   0.774   2.325   1.044  0.8157  0.7139  0.1621
 6523TIP3    H241129   0.859   2.319   1.168  0.8747  0.9077  0.1308
 6524TIP3   OH241130   4.539   1.117   6.934  0.5454 -0.2209 -0.3802
 6524TIP3    H141131   4.516   1.091   6.845 -0.6221  0.1019 -0.1813
 6524TIP3    H241132   4.514   1.042   6.989  1.9353 -0.7169 -0.3889
 6525TIP3   OH241133   0.820   3.845   7.491 -0.1211  0.6519 -0.1385
 6525TIP3    H141134   0.822   3.939   7.509 -0.1805  0.6443 -0.0941
 6525TIP3    H241135   0.846   3.804   7.574  0.4946  0.6502 -0.3238
 6526TIP3   OH241136   6.129   2.378   0.928 -0.3348 -1.1342  0.2909
 6526TIP3    H141137   6.084   2.461   0.912 -1.5564 -1.3759  2.2443
 6526TIP3    H241138   6.202   2.402   0.985  0.3705 -1.1741 -0.5716
 6527TIP3   OH241139   5.730   2.565   0.700  0.4663 -0.2133  0.0933
 6527TIP3    H141140   5.741   2.614   0.619 -0.4411  2.1966  1.3381
 6527TIP3    H241141   5.689   2.483   0.673 -1.6493  1.3355 -1.7441
 6528TIP3   OH241142   6.027   3.422   8.068 -0.0727  0.2050  0.2177
 6528TIP3    H141143   6.044   3.456   8.156  0.3738 -0.5022  0.4149
 6528TIP3    H241144   6.113   3.425   8.025 -0.1270 -0.2008  0.0755
 6529TIP3   OH241145   6.810   4.420   7.341  0.4200  0.0338  0.7436
 6529TIP3    H141146   6.869   4.380   7.406  0.3787  1.7982  1.9352
 6529TIP3    H241147   6.867   4.474   7.287  0.1769  0.1078  0.5603
 6530TIP3   OH241148   0.867   3.338   6.376 -0.3387  0.3352  0.1750
 6530TIP3    H141149   0.809   3.336   6.300  0.6908 -2.0970 -0.6509
 6530TIP3    H241150   0.828   3.276   6.437 -0.1574  0.8847  0.8615
 6531TIP3   OH241151   4.939   6.908   7.015  0.0397 -0.0030  0.2248
 6531TIP3    H141152   4.940   6.996   6.975  0.2354 -0.4937 -0.8987
 6531TIP3    H241153   4.902   6.852   6.947 -1.9071 -0.5132  1.6021
 6532TIP3   OH241154   2.317   2.482   1.106 -0.5752 -0.3592  0.4059
 6532TIP3    H141155   2.330   2.388   1.119 -2.2284 -0.6501  0.1628
 6532TIP3    H241156   2.342   2.498   1.015  2.4370  0.0269  1.1748
 6533TIP3   OH241157   6.837   1.625   7.062  0.4947 -0.0476  0.1987
 6533TIP3    H141158   6.743   1.641   7.056  0.4042 -0.8624 -1.2167
 6533TIP3    H241159   6.845   1.529   7.055  1.3951 -0.0352  0.8970
 6534TIP3   OH241160   5.199   5.334   0.565 -0.5111  0.2033 -0.2780
 6534TIP3    H141161   5.276   5.279   0.554 -0.5175 -0.2055  1.3710
 6534TIP3    H241162   5.133   5.275   0.601 -0.9090  1.0060  0.3469
 6535TIP3   OH241163   0.426   0.577   7.695  0.0963 -0.5712 -0.0340
 6535TIP3    H141164   0.416   0.550   7.786 -0.0055  1.1065  0.4779
 6535TIP3    H241165   0.352   0.636   7.679  1.5398  1.2227 -0.3872
 6536TIP3   OH241166   5.973   4.993   7.170 -0.0063  0.6626  0.1393
 6536TIP3    H141167   5.983   4.910   7.217  0.9750  0.8030  0.1846
 6536TIP3    H241168   6.055   5.004   7.124 -0.6727  0.9149 -1.0094
 6537TIP3   OH241169   0.998   6.298   8.263 -0.1056  0.5808 -1.4504
 6537TIP3    H141170   1.056   6.238   8.217 -0.2924 -0.5367 -0.2930
 6537TIP3    H241171   1.056   6.351   8.318 -0.1870 -1.8063  1.1624
 6538TIP3   OH241172   6.896   3.092   6.920 -0.2253 -0.4556  0.1036
 6538TIP3    H141173   6.914   3.052   7.005 -0.1172  0.1751  0.3903
 6538TIP3    H241174   6.980   3.090   6.875 -0.1602 -0.3313  0.2168
 6539TIP3   OH241175   0.193   5.417   7.753 -0.4092  0.0518  0.5361
 6539TIP3    H141176   0.196   5.415   7.657 -0.8415 -0.9015  0.5337
 6539TIP3    H241177   0.184   5.326   7.779 -0.0234  0.2804  1.5067
 6540TIP3   OH241178   2.145   1.972   0.336 -0.4722  0.1180  0.2346
 6540TIP3    H141179   2.165   2.055   0.379  2.3111 -0.4898  0.3110
 6540TIP3    H241180   2.067   1.990   0.283 -0.3893  2.5437  0.8386
 6541TIP3   OH241181   6.116   2.418   0.045 -0.1398 -0.3800 -0.3958
 6541TIP3    H141182   6.127   2.489  -0.018 -2.4225  1.2460  0.9110
 6541TIP3    H241183   6.153   2.451   0.127 -1.6477 -0.4414  0.3547
 6542TIP3   OH241184   1.408   1.119   7.197  0.3096 -0.0768 -0.6198
 6542TIP3    H141185   1.394   1.072   7.115  0.2555 -1.5231  0.1745
 6542TIP3    H241186   1.502   1.135   7.200  0.2134  0.6506 -1.2988
 6543TIP3   OH241187   3.516   4.020   7.310 -0.0406 -0.4164 -0.0863
 6543TIP3    H141188   3.431   4.053   7.283  0.3691  0.4483 -0.3342
 6543TIP3    H241189   3.524   4.046   7.402  1.1278  2.0110 -0.8093
 6544TIP3   OH241190   2.832   0.219   0.042 -0.3794 -0.2982 -0.1545
 6544TIP3    H141191   2.793   0.251  -0.039 -0.7848 -0.6905 -0.1247
 6544TIP3    H241192   2.876   0.295   0.081 -2.2289  0.5094  0.4680
 6545TIP3   OH241193   0.018   6.298   0.200  0.0437 -0.0214  0.7194
 6545TIP3    H141194  -0.017   6.382   0.169 -0.3362 -0.2140  0.6248
 6545TIP3    H241195  -0.008   6.235   0.133  1.4681  0.0010  0.1046
 6546TIP3   OH241196   4.045   4.426   0.825 -0.2260  0.1628 -0.8274
 6546TIP3    H141197   3.952   4.429   0.846  0.0512  0.1168  0.5003
 6546TIP3    H241198   4.069   4.517   0.806  0.0538  0.7056  1.7573
 6547TIP3   OH241199   5.668   1.744   1.203 -0.0656  0.1118  0.0689
 6547TIP3    H141200   5.757   1.773   1.225  0.2654 -1.1804  0.5425
 6547TIP3    H241201   5.629   1.721   1.288 -1.3639  1.9488  0.0345
 6548TIP3   OH241202   5.391   3.120   0.429  0.2314 -0.0053  0.2413
 6548TIP3    H141203   5.382   3.035   0.473  0.0126  0.5820  1.3700
 6548TIP3    H241204   5.310   3.166   0.449  0.4018  0.5198 -0.2523
 6549TIP3   OH241205   1.520   6.220   6.797  0.0840 -0.3475 -0.5796
 6549TIP3    H141206   1.436   6.173   6.801  0.4150 -1.0885 -1.7902
 6549TIP3    H241207   1.585   6.156   6.826  0.0038  1.0975  3.3541
 6550TIP3   OH241208   6.544   6.283   7.400  0.2603  0.8525 -0.1571
 6550TIP3    H141209   6.610   6.264   7.467 -0.0623 -0.8111 -0.2616
 6550TIP3    H241210   6.462   6.288   7.448 -0.0357 -0.7759 -0.4290
 6551TIP3   OH241211   3.685   1.570   6.542 -0.7134  0.4171  0.1097
 6551TIP3    H141212   3.637   1.581   6.460  2.0341  0.3931 -1.6059
 6551TIP3    H241213   3.706   1.476   6.545  1.3204  0.8083 -0.4974
 6552TIP3   OH241214   0.742   2.378   6.743  0.3602  0.0087 -0.7091
 6552TIP3    H141215   0.822   2.374   6.690 -0.5311  0.8643 -2.2011
 6552TIP3    H241216   0.688   2.306   6.710  0.4678 -0.5297  0.2529
 6553TIP3   OH241217   3.532   1.584   0.282 -0.1990  0.0119 -0.1113
 6553TIP3    H141218   3.621   1.610   0.306 -0.7272  0.4871  1.4253
 6553TIP3    H241219   3.507   1.520   0.348 -0.6258 -0.9651 -1.1672
 6554TIP3   OH241220   4.116   4.529   0.002  0.2413 -0.2518 -0.4740
 6554TIP3    H141221   4.189   4.501   0.058 -0.0580 -1.5657 -0.7306
 6554TIP3    H241222   4.102   4.621   0.028  3.6276  0.9311 -2.1359
 6555TIP3   OH241223   0.236   1.209   1.740 -0.1894 -0.3476 -0.5885
 6555TIP3    H141224   0.250   1.299   1.712 -0.5380 -0.5539 -1.4808
 6555TIP3    H241225   0.276   1.203   1.827 -1.5706  1.1031  0.2073
 6556TIP3   OH241226   3.695   5.819   1.067  0.5114 -0.0342  0.2427
 6556TIP3    H141227   3.678   5.807   0.974  1.0814 -0.7565  0.2280
 6556TIP3    H241228   3.708   5.913   1.077  2.5160 -0.1550 -0.7655
 6557TIP3   OH241229   0.084   2.531   7.339 -0.6644  0.0197  0.6417
 6557TIP3    H141230   0.012   2.593   7.335  0.1915  1.1134  1.4371
 6557TIP3    H241231   0.146   2.562   7.273  0.5535  1.1045  2.2117
 6558TIP3   OH241232   0.762   3.259   1.682 -0.0094 -0.0113 -0.3835
 6558TIP3    H141233   0.698   3.331   1.681  0.1940  0.1670 -0.6880
 6558TIP3    H241234   0.750   3.215   1.598 -0.4989 -0.6659  0.0131
 6559TIP3   OH241235   1.870   0.297   7.985 -0.4700  0.2639 -0.7726
 6559TIP3    H141236   1.806   0.361   8.015  0.2345  0.4046  0.5313
 6559TIP3    H241237   1.955   0.339   8.002 -0.0166 -0.6147 -0.8224
 6560TIP3   OH241238   3.448   0.448   7.282 -0.1648  0.3946 -0.2735
 6560TIP3    H141239   3.507   0.519   7.257  2.3435 -1.4194  0.0029
 6560TIP3    H241240   3.388   0.439   7.208  0.9565  1.2963 -1.3274
 6561TIP3   OH241241   4.012   3.937   7.768  0.4683  0.3141  0.2927
 6561TIP3    H141242   4.037   4.023   7.733 -0.9839 -0.0719 -1.8670
 6561TIP3    H241243   4.094   3.887   7.767  1.1690  1.3882  0.8048
 6562TIP3   OH241244   2.043   5.429   6.475 -0.2054 -0.3326 -0.2197
 6562TIP3    H141245   2.089   5.497   6.523 -0.2261 -1.2760  1.2050
 6562TIP3    H241246   2.103   5.403   6.406  1.0392 -0.8947  1.0284
 6563TIP3   OH241247   0.902   1.422   2.429  0.0868  0.0558 -0.6768
 6563TIP3    H141248   0.996   1.432   2.417 -0.1361  1.3624 -1.4938
 6563TIP3    H241249   0.870   1.387   2.346 -0.3315  0.9934 -0.9207
 6564TIP3   OH241250   3.758   5.179   0.026 -0.2977  0.7029  0.2713
 6564TIP3    H141251   3.673   5.150  -0.009 -0.3168 -0.7097  1.3793
 6564TIP3    H241252   3.736   5.240   0.096 -0.3624  0.9373  0.0499
 6565TIP3   OH241253   5.234   3.670   8.180 -0.3001 -0.3091  1.1145
 6565TIP3    H141254   5.222   3.675   8.275 -0.9458 -1.4343  1.1225
 6565TIP3    H241255   5.146   3.651   8.147 -0.0701  0.0306  0.2905
 6566TIP3   OH241256   3.106   2.292   2.447  0.1029 -0.7748 -0.6109
 6566TIP3    H141257   3.040   2.311   2.380  0.4770  0.3754 -0.6689
 6566TIP3    H241258   3.059   2.298   2.530 -0.1830 -1.4006 -0.7255
 6567TIP3   OH241259   5.967   5.346   2.025 -0.0099 -0.1559 -0.1406
 6567TIP3    H141260   6.056   5.323   2.052  0.1036  1.0293  0.5342
 6567TIP3    H241261   5.911   5.288   2.077  0.3154  0.1281  0.5276
 6568TIP3   OH241262   4.735   3.343   6.510  0.0583 -0.0089 -0.0126
 6568TIP3    H141263   4.810   3.338   6.569  0.8352 -0.2768 -1.0079
 6568TIP3    H241264   4.730   3.435   6.486 -0.7929  0.2624  1.1258
 6569TIP3   OH241265   1.406   3.217   2.605  0.6306 -0.1513  0.2856
 6569TIP3    H141266   1.445   3.142   2.651  2.2736  0.3711 -0.1876
 6569TIP3    H241267   1.314   3.216   2.632  1.0644 -1.1107  1.9080
 6570TIP3   OH241268   4.236   4.132   6.560  0.3901 -0.0132  0.0713
 6570TIP3    H141269   4.298   4.072   6.518 -1.1842 -1.8073  0.2001
 6570TIP3    H241270   4.285   4.171   6.632  1.2715 -1.6360  0.3790
 6571TIP3   OH241271   1.749   5.886   7.653  0.1848  0.4962  0.1084
 6571TIP3    H141272   1.781   5.916   7.737  1.3055  0.0983 -0.1583
 6571TIP3    H241273   1.686   5.816   7.674  2.9430 -2.0237  0.6181
 6572TIP3   OH241274   1.093   4.561   1.066  0.7752  0.2521  0.1715
 6572TIP3    H141275   1.059   4.647   1.041  2.8662  2.2092  3.3152
 6572TIP3    H241276   1.107   4.516   0.982 -0.2798  2.9955 -1.6256
 6573TIP3   OH241277   2.255   4.329   7.378 -1.4589  0.3200  0.1522
 6573TIP3    H141278   2.290   4.405   7.424 -0.7305  0.0849 -0.0062
 6573TIP3    H241279   2.311   4.256   7.405 -0.8093  0.2353 -1.3569
 6574TIP3   OH241280   5.753   4.290   1.348  0.3037  0.9140  0.5550
 6574TIP3    H141281   5.737   4.330   1.433  1.7282 -0.5963  1.5987
 6574TIP3    H241282   5.828   4.232   1.363  0.0405 -0.0407 -1.5269
 6575TIP3   OH241283   4.344   6.485   7.324  0.4594 -0.2570 -0.1948
 6575TIP3    H141284   4.336   6.579   7.306  0.4917 -0.2951 -0.4111
 6575TIP3    H241285   4.409   6.480   7.394  0.1241 -0.0873  0.1338
 6576TIP3   OH241286   0.534   1.884   1.600 -0.5657 -0.4176  0.1660
 6576TIP3    H141287   0.589   1.895   1.523  1.5310  0.4138  1.6720
 6576TIP3    H241288   0.453   1.932   1.580  0.4875  0.9382 -1.0058
 6577TIP3   OH241289   6.612   3.574   7.330 -0.2509  0.1721  0.1374
 6577TIP3    H141290   6.558   3.638   7.376 -0.3847  0.1488  0.0122
 6577TIP3    H241291   6.650   3.623   7.257 -1.2845 -0.1755 -0.6562
 6578TIP3   OH241292   6.007   1.981   7.454 -0.2015  0.4907 -0.2219
 6578TIP3    H141293   5.955   1.913   7.497 -0.8726  1.4419  0.5026
 6578TIP3    H241294   5.961   2.063   7.474  1.8949  1.4617  0.9862
 6579TIP3   OH241295   4.040   3.548   0.042 -0.1778 -0.0555 -0.4763
 6579TIP3    H141296   4.020   3.466  -0.002 -0.6360  0.0923 -0.5490
 6579TIP3    H241297   4.136   3.553   0.041 -0.1693 -0.2296 -1.1350
 6580TIP3   OH241298   6.804   2.061   1.387  0.5997 -0.0888 -0.0800
 6580TIP3    H141299   6.781   2.154   1.394  1.8863  0.2675 -0.3771
 6580TIP3    H241300   6.720   2.018   1.367 -0.0022  1.0083 -0.0329
 6581TIP3   OH241301   1.478   0.620   2.183 -0.0025 -0.6050 -0.5473
 6581TIP3    H141302   1.420   0.691   2.156 -0.4717 -0.5827  0.4506
 6581TIP3    H241303   1.421   0.560   2.231  0.5227 -1.3203 -0.7977
 6582TIP3   OH241304   2.328   4.620   2.386 -0.1779  0.1741  0.5185
 6582TIP3    H141305   2.416   4.599   2.417 -0.5489  0.0886  1.5556
 6582TIP3    H241306   2.338   4.629   2.292  0.8650 -0.2272  0.5724
 6583TIP3   OH241307   3.863   2.945   0.112 -0.5657 -0.0409  0.2923
 6583TIP3    H141308   3.889   3.010   0.047  1.4503 -1.9538 -0.9412
 6583TIP3    H241309   3.885   2.984   0.196  1.3210  0.5973 -0.4617
 6584TIP3   OH241310   4.465   3.125   2.172 -0.3184 -0.3807  0.0301
 6584TIP3    H141311   4.525   3.145   2.099 -1.1589  0.4068 -0.4696
 6584TIP3    H241312   4.443   3.211   2.209 -2.6818 -0.4413 -1.0683
 6585TIP3   OH241313   1.830   3.716   7.387 -0.1126 -0.4231  0.4748
 6585TIP3    H141314   1.882   3.672   7.455 -1.8227 -1.3330  1.2464
 6585TIP3    H241315   1.778   3.647   7.348 -0.7312  0.4579 -0.3017
 6586TIP3   OH241316   4.741   2.316   1.758 -0.5608 -0.2533 -0.3343
 6586TIP3    H141317   4.662   2.346   1.802 -2.1091 -1.8244 -1.8469
 6586TIP3    H241318   4.802   2.390   1.762 -1.6453  0.5859  1.8873
 6587TIP3   OH241319   0.399   1.206   2.015  0.1662 -0.2715 -0.1609
 6587TIP3    H141320   0.487   1.226   2.048 -0.3414 -1.3194  2.0071
 6587TIP3    H241321   0.340   1.254   2.073 -0.7459 -0.1487 -1.1578
 6588TIP3   OH241322   0.790   1.610   0.990  0.0345 -0.1624  0.0771
 6588TIP3    H141323   0.712   1.557   1.009 -0.1585 -0.9899 -2.6609
 6588TIP3    H241324   0.773   1.649   0.905  1.5379  1.8308  0.6232
 6589TIP3   OH241325   4.251   5.961   8.289 -0.5330  0.0028  0.0447
 6589TIP3    H141326   4.258   5.904   8.213  0.0270 -1.6008  1.2324
 6589TIP3    H241327   4.169   6.009   8.276 -1.7169 -2.0205 -0.3977
 6590TIP3   OH241328   3.875   1.446   7.479  0.8030 -0.3266  0.3543
 6590TIP3    H141329   3.843   1.524   7.432 -0.2348 -0.1860  1.2402
 6590TIP3    H241330   3.926   1.481   7.551  0.3577 -0.4520  0.7378
 6591TIP3   OH241331   4.130   1.423   2.242 -0.5421  0.0599 -0.0709
 6591TIP3    H141332   4.203   1.362   2.243  0.4927  1.2400  1.8039
 6591TIP3    H241333   4.068   1.386   2.305  0.1629  0.9741  1.1973
 6592TIP3   OH241334   3.503   1.557   6.758  0.1599 -0.1775  0.0216
 6592TIP3    H141335   3.548   1.603   6.687  0.0784  0.3240  0.2842
 6592TIP3    H241336   3.561   1.485   6.781 -0.1387 -0.7825 -1.0299
 6593TIP3   OH241337   1.224   2.454   6.261 -0.1592  0.0115 -0.0081
 6593TIP3    H141338   1.296   2.408   6.303 -0.7953  0.9957  2.3226
 6593TIP3    H241339   1.235   2.545   6.286 -1.9333  0.2582  0.0438
 6594TIP3   OH241340   5.427   2.401   1.618 -0.4395  0.1029 -0.0297
 6594TIP3    H141341   5.489   2.424   1.548 -0.4643 -1.0175 -0.4531
 6594TIP3    H241342   5.385   2.483   1.641 -0.1328  0.5727 -1.0525
 6595TIP3   OH241343   3.990   2.072   1.482 -0.2126  0.3935 -0.0011
 6595TIP3    H141344   3.995   2.018   1.403  1.4934  0.3183  0.1123
 6595TIP3    H241345   4.037   2.152   1.459 -0.5854  0.7970  0.6198
 6596TIP3   OH241346   2.211   6.435   0.637 -0.8364 -1.2539 -0.1969
 6596TIP3    H141347   2.137   6.434   0.698 -0.9304 -3.2652 -0.2739
 6596TIP3    H241348   2.187   6.501   0.572 -0.4753  1.3856  2.1569
 6597TIP3   OH241349   2.996   5.420   0.548  0.2114  0.3807 -0.2227
 6597TIP3    H141350   3.055   5.474   0.601 -1.2336  0.9821  0.8394
 6597TIP3    H241351   2.909   5.456   0.564 -0.4364 -0.2576 -2.0207
 6598TIP3   OH241352   3.802   0.328   6.906  0.9299 -0.1174 -0.2068
 6598TIP3    H141353   3.823   0.421   6.912  2.5634 -0.4146 -0.6181
 6598TIP3    H241354   3.836   0.290   6.987 -0.9897 -0.1740  0.6092
 6599TIP3   OH241355   5.957   1.330   1.946 -0.7352 -0.1521  0.0747
 6599TIP3    H141356   5.919   1.325   1.858 -0.5808  0.5994 -0.0370
 6599TIP3    H241357   5.887   1.366   2.001 -0.5311  0.2259  0.0838
 6600TIP3   OH241358   0.905   0.453   8.143  0.0501  0.4810  0.2354
 6600TIP3    H141359   0.904   0.543   8.112  0.1938  0.0854 -0.9733
 6600TIP3    H241360   0.974   0.450   8.209  2.0769  0.6091 -1.7828
 6601TIP3   OH241361   3.584   6.264   8.194  0.0482  0.3096  0.9227
 6601TIP3    H141362   3.510   6.222   8.149  1.4352  1.9238 -3.3184
 6601TIP3    H241363   3.544   6.336   8.242 -1.3817 -0.3513  0.7945
 6602TIP3   OH241364   1.218   1.020   0.014  0.7513  0.0290  0.0057
 6602TIP3    H141365   1.159   1.008  -0.060  1.4591 -1.1583 -0.3914
 6602TIP3    H241366   1.168   0.989   0.090  0.4074  0.2377 -0.1375
 6603TIP3   OH241367   5.800   5.832   2.430  0.3812 -0.2931 -0.5728
 6603TIP3    H141368   5.878   5.802   2.384 -0.4178 -2.2866 -0.7065
 6603TIP3    H241369   5.835   5.873   2.510  1.6048  0.0115 -1.2313
 6604TIP3   OH241370   6.765   4.697   8.315  0.2906  0.1261  0.1169
 6604TIP3    H141371   6.796   4.782   8.283  1.7948 -0.0039  1.1003
 6604TIP3    H241372   6.693   4.718   8.374 -0.3329  0.5849 -0.7774
 6605TIP3   OH241373   6.586   3.492   1.770  0.3317  0.8017  0.5741
 6605TIP3    H141374   6.569   3.422   1.706 -2.5012  0.1973  1.8117
 6605TIP3    H241375   6.671   3.470   1.808  0.5892 -0.6331 -0.7164
 6606TIP3   OH241376   1.226   2.643   0.481  0.5473 -0.1157  0.4481
 6606TIP3    H141377   1.164   2.595   0.536  0.0640  1.1310  1.0393
 6606TIP3    H241378   1.250   2.720   0.533 -0.1232  1.2460 -1.1311
 6607TIP3   OH241379   2.855   2.657   7.659  0.4435  0.0755 -0.1237
 6607TIP3    H141380   2.927   2.599   7.632  1.8902  1.1898  1.1926
 6607TIP3    H241381   2.804   2.669   7.579  1.0079 -1.7243 -0.8144
 6608TIP3   OH241382   6.848   3.508   6.140 -0.0924 -0.0611 -1.2224
 6608TIP3    H141383   6.763   3.485   6.176  0.2234 -0.3641 -0.6622
 6608TIP3    H241384   6.838   3.598   6.109 -0.8012 -0.3209 -1.7508
 6609TIP3   OH241385   6.322   4.693   7.087  0.0552 -0.1600  0.0634
 6609TIP3    H141386   6.346   4.696   6.994 -0.1035  0.0340  0.0266
 6609TIP3    H241387   6.366   4.769   7.125  1.7278 -1.3219  0.5464
 6610TIP3   OH241388   2.396   3.972   1.840  0.7749 -0.3881  0.2334
 6610TIP3    H141389   2.320   4.012   1.798  1.4209 -1.5389 -2.2287
 6610TIP3    H241390   2.417   3.896   1.784  2.0529 -1.7349  2.3963
 6611TIP3   OH241391   2.508   4.854   1.029 -0.2029  0.2490 -0.1625
 6611TIP3    H141392   2.474   4.943   1.036 -1.4674 -0.1418 -0.9161
 6611TIP3    H241393   2.508   4.835   0.935  0.6182 -0.3329 -0.0515
 6612TIP3   OH241394   1.306   0.738   8.233 -0.6365 -0.1473  0.3719
 6612TIP3    H141395   1.232   0.726   8.293 -0.9362  0.9872  0.2653
 6612TIP3    H241396   1.323   0.833   8.236 -0.6205 -0.0723 -1.2902
 6613TIP3   OH241397   4.716   4.314   7.840  0.1901 -0.0135 -0.3801
 6613TIP3    H141398   4.781   4.250   7.872  0.5402  0.3743 -0.3054
 6613TIP3    H241399   4.635   4.290   7.885  0.4642 -0.0366  0.1135
 6614TIP3   OH241400   6.872   4.731   2.176  0.6135  0.1091 -0.0300
 6614TIP3    H141401   6.844   4.642   2.195  0.9489  0.1447  0.6721
 6614TIP3    H241402   6.796   4.772   2.135  0.1187 -0.2148  0.5454
 6615TIP3   OH241403   5.325   0.665   6.807  0.0110 -0.2579  0.6093
 6615TIP3    H141404   5.399   0.723   6.823 -0.7915  0.3419  2.4333
 6615TIP3    H241405   5.307   0.675   6.713  1.5301  0.3999  0.3465
 6616TIP3   OH241406   0.244   1.468   1.768  0.0186  0.6568  0.2624
 6616TIP3    H141407   0.203   1.527   1.705 -2.0347 -0.2021  0.7238
 6616TIP3    H241408   0.252   1.521   1.848 -2.6541  0.1567  0.9545
 6617TIP3   OH241409   4.088   6.782   1.262 -0.3223  0.3012 -0.0863
 6617TIP3    H141410   4.064   6.746   1.177  0.5073  1.6752 -0.9453
 6617TIP3    H241411   4.156   6.723   1.295 -0.5426 -0.1609 -0.4495
 6618TIP3   OH241412   0.895   3.146   0.931  0.4620 -0.4064 -0.6769
 6618TIP3    H141413   0.891   3.240   0.952  1.2044 -0.5139  0.0318
 6618TIP3    H241414   0.925   3.105   1.013 -1.6260 -1.5013 -0.3894
 6619TIP3   OH241415   1.570   2.278   6.889 -0.1679 -0.4623  0.0212
 6619TIP3    H141416   1.504   2.329   6.935 -1.0114 -1.7030  0.2308
 6619TIP3    H241417   1.648   2.333   6.891 -0.7258  0.3277  1.2367
 6620TIP3   OH241418   2.563   1.578   1.189  0.2717 -0.1065 -0.4406
 6620TIP3    H141419   2.507   1.642   1.144  1.5998  1.2741 -0.2182
 6620TIP3    H241420   2.535   1.582   1.281 -0.1480 -0.3981 -0.5551
 6621TIP3   OH241421   5.774   0.289   1.121 -0.4156  0.1708 -0.8886
 6621TIP3    H141422   5.761   0.204   1.161 -3.9842  0.9126 -0.1527
 6621TIP3    H241423   5.788   0.349   1.194  0.0975  0.5155 -1.2588
 6622TIP3   OH241424   1.768   0.915   7.747 -0.2422 -0.1129 -0.3747
 6622TIP3    H141425   1.752   1.005   7.720  0.3009 -0.3318 -1.4793
 6622TIP3    H241426   1.830   0.881   7.682  0.8233 -0.7833  0.9538
 6623TIP3   OH241427   3.954   5.896   0.727  0.5881 -0.2265 -0.2037
 6623TIP3    H141428   4.011   5.870   0.655 -2.0310 -0.8457 -2.2061
 6623TIP3    H241429   3.880   5.836   0.723 -0.6499  1.0267  1.7343
 6624TIP3   OH241430   1.640   1.384   1.536  0.5985  0.2585 -0.6217
 6624TIP3    H141431   1.643   1.314   1.471 -0.4260  0.8266 -1.3067
 6624TIP3    H241432   1.578   1.353   1.601  1.0203  0.0378 -0.3193
 6625TIP3   OH241433   3.405   2.286   6.428  0.4771 -0.2399  0.6084
 6625TIP3    H141434   3.336   2.234   6.387  0.1940 -0.6709  1.5934
 6625TIP3    H241435   3.365   2.319   6.509  0.2703  2.4445 -0.4671
 6626TIP3   OH241436   1.598   4.062   1.103 -0.0149 -1.2343  0.1356
 6626TIP3    H141437   1.503   4.074   1.107 -0.0489  1.2218 -3.2031
 6626TIP3    H241438   1.633   4.120   1.170 -0.8921  0.6627 -0.9580
 6627TIP3   OH241439   1.536   6.268   1.729  0.1399  0.4283  0.2281
 6627TIP3    H141440   1.475   6.332   1.694 -0.0571  0.2337  0.2132
 6627TIP3    H241441   1.485   6.187   1.736  0.4639  0.1996 -0.0304
 6628TIP3   OH241442   4.707   3.684   1.860 -0.1039 -0.3070 -0.2554
 6628TIP3    H141443   4.639   3.660   1.923  0.5100 -0.6209  0.3121
 6628TIP3    H241444   4.660   3.722   1.786 -0.8498  0.1045  0.4086
 6629TIP3   OH241445   1.349   4.564   7.876  0.3755 -0.3163 -0.4603
 6629TIP3    H141446   1.399   4.569   7.795 -0.0763 -2.7068 -0.9760
 6629TIP3    H241447   1.268   4.520   7.852 -0.5368  0.4756  0.9885
 6630TIP3   OH241448   6.693   2.709   7.167 -0.4489  0.2039  0.3287
 6630TIP3    H141449   6.644   2.774   7.116 -0.5307 -0.7881 -0.8869
 6630TIP3    H241450   6.647   2.627   7.152  1.2026 -0.6474 -0.3611
 6631TIP3   OH241451   5.791   2.349   7.804 -0.3025  0.7712 -0.0027
 6631TIP3    H141452   5.849   2.356   7.879 -0.9067 -0.4127  0.5975
 6631TIP3    H241453   5.797   2.258   7.776 -2.7643  0.2413  0.8708
 6632TIP3   OH241454   2.384   5.769   1.388 -0.1328  0.1596  0.4393
 6632TIP3    H141455   2.294   5.737   1.384  0.3043 -1.0354 -0.5586
 6632TIP3    H241456   2.379   5.861   1.363 -0.8116 -0.4870 -2.0307
 6633TIP3   OH241457   1.642   6.296   0.242  0.1832  0.2731 -0.2053
 6633TIP3    H141458   1.681   6.289   0.155 -0.9240  1.5439 -0.8477
 6633TIP3    H241459   1.707   6.257   0.301  0.4496 -1.6588 -1.7008
 6634TIP3   OH241460   4.447   6.920   0.024  0.2800  0.1944  0.0758
 6634TIP3    H141461   4.377   6.962  -0.026  0.4842  1.8824  1.1426
 6634TIP3    H241462   4.413   6.833   0.044 -1.2690  0.7548  0.0148
 6635TIP3   OH241463   6.307   1.900   1.655 -0.2872 -0.3078  0.2652
 6635TIP3    H141464   6.324   1.808   1.673 -0.2898 -0.4534 -0.4590
 6635TIP3    H241465   6.215   1.904   1.631 -0.3250 -0.0890  0.4360
 6636TIP3   OH241466   4.906   3.821   0.475  0.4154 -0.0872  0.0021
 6636TIP3    H141467   4.965   3.762   0.428 -1.2639 -1.0196 -1.0330
 6636TIP3    H241468   4.915   3.905   0.430  0.9512 -0.2157 -0.1379
 6637TIP3   OH241469   2.750   4.244   0.989 -0.1934 -0.8414 -0.2064
 6637TIP3    H141470   2.844   4.231   1.001 -0.1364 -1.0665 -0.8770
 6637TIP3    H241471   2.724   4.298   1.064  0.8131  0.7460 -0.9360
 6638TIP3   OH241472   1.670   2.415   0.143  0.6251  0.5827  0.5644
 6638TIP3    H141473   1.664   2.464   0.224  1.1016  0.5803  0.6040
 6638TIP3    H241474   1.757   2.374   0.145  0.3047 -0.1357  0.4664
 6639TIP3   OH241475   1.409   6.320   8.083  0.5736  0.2695  0.5901
 6639TIP3    H141476   1.463   6.244   8.060  1.2775  0.7305  0.7012
 6639TIP3    H241477   1.333   6.313   8.025 -0.4648 -1.7296  2.0859
 6640TIP3   OH241478   4.631   3.822   7.386 -0.0076  0.2527 -0.5228
 6640TIP3    H141479   4.574   3.781   7.451  1.3848  0.9382  1.1893
 6640TIP3    H241480   4.571   3.852   7.317 -1.5966  0.0642  0.7330
 6641TIP3   OH241481   6.400   3.742   7.850  0.2463 -0.2869 -0.0187
 6641TIP3    H141482   6.414   3.822   7.798 -0.2915  1.2113  2.0021
 6641TIP3    H241483   6.344   3.687   7.795 -0.2816  1.2078 -1.0457
 6642TIP3   OH241484   1.782   3.267   6.867 -0.1350  0.3597 -0.0184
 6642TIP3    H141485   1.844   3.215   6.919 -0.8224  1.5666  2.1581
 6642TIP3    H241486   1.771   3.218   6.786  2.4380 -0.7019  0.1655
 6643TIP3   OH241487   3.441   5.416   0.542  0.6951 -0.2651  0.5611
 6643TIP3    H141488   3.479   5.476   0.478 -0.4477 -0.3244 -0.2023
 6643TIP3    H241489   3.404   5.473   0.609  0.6975 -0.1504  0.4660
 6644TIP3   OH241490   5.396   0.251   0.158  0.3828  0.2755  0.1594
 6644TIP3    H141491   5.467   0.274   0.098  0.0414  3.5321  0.8162
 6644TIP3    H241492   5.316   0.268   0.108  0.0279 -1.2593  0.1518
 6645TIP3   OH241493   3.624   0.923   6.835 -0.9086  0.5955  0.7930
 6645TIP3    H141494   3.577   0.995   6.795  0.4272  1.5272  0.8491
 6645TIP3    H241495   3.698   0.964   6.880  0.4113 -0.8680  0.0605
 6646TIP3   OH241496   6.999   5.622   0.749  0.5885 -0.3144  0.1018
 6646TIP3    H141497   7.067   5.679   0.786  0.1278  0.6077 -0.4465
 6646TIP3    H241498   6.929   5.623   0.814 -0.0353  0.9479 -0.5722
 6647TIP3   OH241499   0.462   0.370   1.413 -0.1151 -0.0246  0.1887
 6647TIP3    H141500   0.498   0.292   1.455 -0.5417  0.1722  0.9385
 6647TIP3    H241501   0.537   0.412   1.371 -0.0179 -1.3283 -1.0483
 6648TIP3   OH241502   0.654   2.815   2.014 -0.1773  0.0346  0.1019
 6648TIP3    H141503   0.696   2.874   1.952  0.1599 -0.4128 -0.1052
 6648TIP3    H241504   0.612   2.872   2.078  0.6554  0.4981  0.2504
 6649TIP3   OH241505   0.142   5.707   1.502 -0.1363 -0.0472 -0.0208
 6649TIP3    H141506   0.197   5.629   1.513 -1.0443 -0.7119 -0.1189
 6649TIP3    H241507   0.143   5.723   1.407  2.0057  1.5289  0.1924
 6650TIP3   OH241508   0.645   5.578   0.590  0.2353  0.0608 -0.3400
 6650TIP3    H141509   0.602   5.618   0.514 -2.3939  0.8812  1.4530
 6650TIP3    H241510   0.613   5.488   0.591  0.2388  0.0613 -0.1945
 6651TIP3   OH241511   1.561   2.204   0.779  0.1963  1.2212  0.2297
 6651TIP3    H141512   1.530   2.149   0.706 -1.0584  1.0439  0.8743
 6651TIP3    H241513   1.655   2.216   0.761  1.5440 -4.1070  1.8418
 6652TIP3   OH241514   3.867   0.752   7.580  0.7618  0.1421 -0.4567
 6652TIP3    H141515   3.938   0.745   7.644  0.3092  0.8218  0.1409
 6652TIP3    H241516   3.911   0.776   7.498  1.2629  0.1484 -0.1923
 6653TIP3   OH241517   6.537   4.156   8.100  0.3790  0.2220  0.0264
 6653TIP3    H141518   6.574   4.107   8.173 -0.9343 -0.1649  0.4550
 6653TIP3    H241519   6.461   4.201   8.137 -0.1607  0.2240 -1.0360
 6654TIP3   OH241520   2.553   6.810   7.887  0.0782  0.1799  0.0684
 6654TIP3    H141521   2.589   6.756   7.958 -0.0805  0.5715  0.4547
 6654TIP3    H241522   2.548   6.898   7.925 -0.9532  0.2032 -0.0857
 6655TIP3   OH241523   2.481   0.983   1.979  0.3999  0.0190 -0.3111
 6655TIP3    H141524   2.571   0.972   1.949  0.3018 -1.1334 -0.2290
 6655TIP3    H241525   2.430   0.993   1.898  0.6786  1.4845 -0.3327
 6656TIP3   OH241526   3.374   3.038   1.887 -0.5623  0.4735  0.1634
 6656TIP3    H141527   3.319   3.116   1.895  0.7980  1.4421  0.4512
 6656TIP3    H241528   3.459   3.065   1.921  0.5245 -0.5483 -1.6152
 6657TIP3   OH241529   6.032   4.062   6.976 -0.2272  0.0576  0.0224
 6657TIP3    H141530   6.066   3.982   7.018  0.0530 -1.2956 -2.5947
 6657TIP3    H241531   6.084   4.071   6.897 -0.2920  2.9016  0.2320
 6658TIP3   OH241532   1.950   4.809   7.206 -0.3690  0.3876 -0.4931
 6658TIP3    H141533   2.037   4.779   7.233 -0.2414  1.8717  0.8492
 6658TIP3    H241534   1.898   4.729   7.201  0.8671 -0.4412 -0.6062
 6659TIP3   OH241535   4.441   5.497   1.763 -0.5056  0.2033 -0.0596
 6659TIP3    H141536   4.504   5.517   1.694  1.2316 -0.0469  1.3610
 6659TIP3    H241537   4.426   5.581   1.806  0.8753 -0.1270  1.1612
 6660TIP3   OH241538   2.346   5.550   0.473  0.2165  0.0360  0.1296
 6660TIP3    H141539   2.411   5.528   0.540 -0.5731 -2.6634  0.1049
 6660TIP3    H241540   2.293   5.619   0.512  0.2244 -0.9737  2.0365
 6661TIP3   OH241541   3.608   1.612   7.603  0.0852  0.2811  0.1206
 6661TIP3    H141542   3.648   1.572   7.680 -0.1140  0.3980  0.2858
 6661TIP3    H241543   3.680   1.623   7.541  0.1789 -0.1399  0.1545
 6662TIP3   OH241544   0.905   6.357   1.141 -0.4762 -0.0100  0.5238
 6662TIP3    H141545   0.832   6.358   1.079 -0.2433 -1.2289  0.1957
 6662TIP3    H241546   0.949   6.441   1.128 -0.0681 -0.4648 -1.4330
 6663TIP3   OH241547   5.063   3.399   2.750 -0.3950  0.1474  0.5073
 6663TIP3    H141548   5.031   3.326   2.698 -0.7940  0.5629  0.1595
 6663TIP3    H241549   5.151   3.373   2.777 -0.3699 -0.2753  0.0334
 6664TIP3   OH241550   4.485   5.364   2.375 -0.3109 -0.4321  0.0388
 6664TIP3    H141551   4.473   5.434   2.439  0.8549  0.7932 -1.0257
 6664TIP3    H241552   4.569   5.324   2.399  0.5461  0.5673 -1.1444
 6665TIP3   OH241553   2.504   1.324   1.370  0.2889 -0.1442  0.3513
 6665TIP3    H141554   2.420   1.367   1.356  0.8234  1.1133  0.7791
 6665TIP3    H241555   2.522   1.277   1.288 -1.7339 -2.1194  0.9684
 6666TIP3   OH241556   2.139   6.152   1.420 -0.2909 -0.2157  0.5926
 6666TIP3    H141557   2.175   6.206   1.350  0.0426 -0.7295  0.3611
 6666TIP3    H241558   2.214   6.135   1.478 -0.6763  0.6563  1.3801
 6667TIP3   OH241559   3.907   3.389   1.296  0.2828 -0.0902  0.6693
 6667TIP3    H141560   3.980   3.397   1.235 -0.0601 -1.9124 -0.0371
 6667TIP3    H241561   3.835   3.435   1.252  0.7758  1.0905  1.0455
 6668TIP3   OH241562   6.364   1.132   2.125 -0.2012 -0.7606  0.4030
 6668TIP3    H141563   6.415   1.187   2.185 -0.6347  0.2062 -0.0830
 6668TIP3    H241564   6.329   1.062   2.180 -0.3356 -0.0660  1.2159
 6669TIP3   OH241565   1.807   4.494   1.501 -0.2983 -0.2999  1.0447
 6669TIP3    H141566   1.832   4.575   1.456  0.8958 -0.6616  1.0141
 6669TIP3    H241567   1.844   4.504   1.589  0.3223 -1.0154  0.8809
 6670TIP3   OH241568   1.659   3.264   8.052 -0.1495 -0.3560 -0.1838
 6670TIP3    H141569   1.616   3.257   8.137  0.1160 -0.6562 -0.0758
 6670TIP3    H241570   1.659   3.175   8.017 -0.0816 -0.2679 -0.4110
 6671TIP3   OH241571   0.955   0.027   1.335 -0.4206 -0.1273  0.6799
 6671TIP3    H141572   1.039   0.033   1.380  1.3529  2.2967 -2.4884
 6671TIP3    H241573   0.895   0.080   1.388  1.1463  1.3206  1.0921
 6672TIP3   OH241574   3.972   2.946   1.238  0.1194 -0.7441 -0.1225
 6672TIP3    H141575   4.021   2.985   1.165  0.0087 -0.8238 -0.2404
 6672TIP3    H241576   4.038   2.929   1.305  0.0351  0.4920  0.2951
 6673TIP3   OH241577   5.008   3.661   6.814  0.5246  0.3224 -0.4628
 6673TIP3    H141578   5.047   3.640   6.729 -0.5306 -0.1950 -0.8313
 6673TIP3    H241579   4.937   3.598   6.824  0.9083  0.0799  1.0156
 6674TIP3   OH241580   6.803   6.267   0.989  0.3131 -0.0317  0.2984
 6674TIP3    H141581   6.821   6.208   1.062 -1.7224 -0.2408  0.6826
 6674TIP3    H241582   6.797   6.209   0.912  1.0127  0.0181  0.1998
 6675TIP3   OH241583   3.522   2.730   7.929  0.0634  0.4416 -0.1679
 6675TIP3    H141584   3.431   2.761   7.924  0.1192  0.4198 -2.7930
 6675TIP3    H241585   3.525   2.678   8.010 -2.5459 -0.4296 -0.5218
 6676TIP3   OH241586   6.531   5.249   1.031 -0.1323 -0.3202 -0.5002
 6676TIP3    H141587   6.587   5.189   0.981  0.6138  1.0203 -1.3241
 6676TIP3    H241588   6.488   5.193   1.095  0.8196 -1.6795 -0.9969
 6677TIP3   OH241589   0.293   0.477   1.183  0.3703 -0.3539 -0.6199
 6677TIP3    H141590   0.215   0.468   1.128  1.0227 -0.7637 -1.5004
 6677TIP3    H241591   0.290   0.401   1.241 -0.5825  0.3385  0.2785
 6678TIP3   OH241592   3.437   3.293   8.035 -0.4475  0.4294 -0.4480
 6678TIP3    H141593   3.412   3.228   7.969  2.4030 -1.9508  0.6385
 6678TIP3    H241594   3.467   3.368   7.984  1.1534 -1.1279 -1.9238
 6679TIP3   OH241595   5.954   3.780   7.697  0.2027  0.1958 -0.8884
 6679TIP3    H141596   6.030   3.839   7.693  2.8363 -2.6435  1.8291
 6679TIP3    H241597   5.897   3.820   7.763  1.7785  0.0297  0.6650
 6680TIP3   OH241598   6.925   2.753   7.357  0.0947 -0.1616  0.6651
 6680TIP3    H141599   6.855   2.748   7.291 -0.0945  0.1897  0.8351
 6680TIP3    H241600   6.878   2.756   7.440  0.2661  1.3376  0.7273
 6681TIP3   OH241601   3.246   1.960   6.900 -0.4807  0.1749  0.4105
 6681TIP3    H141602   3.254   2.015   6.821 -0.3802  2.8252  2.1476
 6681TIP3    H241603   3.152   1.951   6.913 -0.5192  0.9153  0.7149
 6682TIP3   OH241604   5.009   2.236   0.488 -0.5272 -0.2870  0.1109
 6682TIP3    H141605   5.069   2.308   0.510 -0.0077 -0.5124 -0.5183
 6682TIP3    H241606   4.997   2.188   0.570 -1.2173  0.7598  0.6369
 6683TIP3   OH241607   3.646   4.441   1.626 -0.1970 -0.7912  0.0877
 6683TIP3    H141608   3.656   4.397   1.541 -0.7985 -0.0047 -0.3996
 6683TIP3    H241609   3.682   4.528   1.612  2.1401 -1.4653  1.3974
 6684TIP3   OH241610   1.330   1.093   2.574  0.0522 -0.1492 -0.1424
 6684TIP3    H141611   1.249   1.097   2.524  0.7505  1.2533 -1.2142
 6684TIP3    H241612   1.377   1.018   2.537  0.0869  0.2125 -0.8336
 6685TIP3   OH241613   4.662   2.369   0.660  0.1332  0.3012 -0.0427
 6685TIP3    H141614   4.652   2.277   0.634 -0.9650 -0.0491  1.4383
 6685TIP3    H241615   4.735   2.368   0.722  0.2832  0.4705 -0.2182
 6686TIP3   OH241616   3.513   6.265   1.393  0.0504 -0.2848 -0.4976
 6686TIP3    H141617   3.541   6.348   1.432  2.2509 -1.1499 -0.0871
 6686TIP3    H241618   3.430   6.245   1.435  0.7402  0.4634  1.3350
 6687TIP3   OH241619   3.828   4.352   1.810  0.2023 -0.2694 -0.3973
 6687TIP3    H141620   3.794   4.374   1.723  1.7361  0.8936 -0.7521
 6687TIP3    H241621   3.754   4.311   1.855 -0.7399 -0.5416 -2.1073
 6688TIP3   OH241622   5.312   3.213   2.018 -0.1196  0.4337  0.3897
 6688TIP3    H141623   5.383   3.182   2.074  0.9555  0.2427 -1.0180
 6688TIP3    H241624   5.239   3.230   2.078  0.4121 -1.4083  1.6344
 6689TIP3   OH241625   4.979   1.392   7.606  0.4718  0.1618  0.0564
 6689TIP3    H141626   4.961   1.298   7.608  0.7497  0.1150  0.3822
 6689TIP3    H241627   5.069   1.399   7.576  0.7439  0.2835  0.8719
 6690TIP3   OH241628   5.123   2.623   8.298 -0.4895 -0.0813  0.0206
 6690TIP3    H141629   5.179   2.603   8.373  0.2732 -0.6916 -0.6913
 6690TIP3    H241630   5.183   2.655   8.231 -0.6956 -2.2813 -1.3300
 6691TIP3   OH241631   1.162   2.672   1.978 -0.6205  0.3183  0.1506
 6691TIP3    H141632   1.184   2.670   1.885  0.0168 -1.0543  0.3103
 6691TIP3    H241633   1.104   2.597   1.990 -0.3664  0.2408  0.9369
 6692TIP3   OH241634   5.193   1.536   7.531 -0.4861  0.9810 -0.3155
 6692TIP3    H141635   5.160   1.622   7.557  0.7896  1.5874 -0.6056
 6692TIP3    H241636   5.281   1.531   7.569 -1.3709 -1.2041  1.7217
 6693TIP3   OH241637   0.425   4.966   6.031 -0.1892 -0.2553 -0.5836
 6693TIP3    H141638   0.473   4.883   6.039 -1.9646 -1.3165 -0.5413
 6693TIP3    H241639   0.334   4.940   6.015 -1.0818  1.6668  1.0135
 6694TIP3   OH241640   6.883   4.632   6.894  0.4082  0.5394 -0.2112
 6694TIP3    H141641   6.915   4.546   6.866  1.0672  0.8061 -0.3155
 6694TIP3    H241642   6.894   4.632   6.989  2.6482  1.3363 -0.3949
 6695TIP3   OH241643   0.431   2.264   2.009 -0.0499  0.2159  0.0977
 6695TIP3    H141644   0.454   2.352   1.981 -0.9824  1.0288  1.7673
 6695TIP3    H241645   0.346   2.246   1.969  0.7383 -0.4957 -1.3354
 6696TIP3   OH241646   6.266   7.004   2.655  0.0890  0.5446 -0.6691
 6696TIP3    H141647   6.269   7.070   2.724 -1.2086  0.2854 -0.3223
 6696TIP3    H241648   6.257   7.054   2.574 -3.0058  0.8815 -0.2645
 6697TIP3   OH241649   0.826   5.018   1.653 -1.0488 -0.1992 -0.5603
 6697TIP3    H141650   0.857   4.943   1.602  0.1120 -0.5927  0.6821
 6697TIP3    H241651   0.903   5.071   1.668 -1.4430  0.1234  0.4135
 6698TIP3   OH241652   5.820   0.754   1.817 -0.0198  0.7319 -0.8839
 6698TIP3    H141653   5.841   0.816   1.747  1.4226 -1.4866 -2.5524
 6698TIP3    H241654   5.890   0.766   1.881 -0.5223  1.7427 -0.4977
 6699TIP3   OH241655   6.891   0.650   6.799  0.9980  0.3822  0.5526
 6699TIP3    H141656   6.807   0.688   6.826  0.3314 -1.4603  1.2403
 6699TIP3    H241657   6.883   0.642   6.704  0.1870 -0.2335  0.6659
 6700TIP3   OH241658   1.344   6.510   1.397  0.3122  0.4594  0.1453
 6700TIP3    H141659   1.256   6.480   1.374  0.7431 -0.1778 -0.6835
 6700TIP3    H241660   1.346   6.507   1.493  0.0271 -1.2261  0.1136
 6701TIP3   OH241661   4.740   4.561   8.228  0.5646 -0.2640  0.0304
 6701TIP3    H141662   4.823   4.567   8.275  0.5599  1.2900 -0.1344
 6701TIP3    H241663   4.728   4.467   8.214  0.8219 -0.7573  2.6527
 6702TIP3   OH241664   5.957   3.867   2.794 -0.1919 -0.2113  0.1952
 6702TIP3    H141665   5.906   3.790   2.770  0.8885 -0.8362 -0.1692
 6702TIP3    H241666   5.944   3.875   2.889 -0.0707 -1.0257  0.2900
 6703TIP3   OH241667   2.976   2.071   0.366  0.1950 -0.2988  0.5198
 6703TIP3    H141668   2.955   2.114   0.449 -4.9699 -2.0292  0.4300
 6703TIP3    H241669   2.945   2.132   0.299 -0.9748 -1.2603  0.1566
 6704TIP3   OH241670   0.377   4.429   2.098  0.3488  0.6530 -0.7029
 6704TIP3    H141671   0.464   4.461   2.122 -0.0627 -0.6215  3.1463
 6704TIP3    H241672   0.317   4.495   2.133 -0.2929  0.1548 -0.8524
 6705TIP3   OH241673   4.345   4.109   0.141 -0.1779  0.6406  0.0658
 6705TIP3    H141674   4.275   4.053   0.175  1.1218  0.1093  2.0523
 6705TIP3    H241675   4.363   4.074   0.054 -1.2880 -0.2400  0.1628
 6706TIP3   OH241676   0.101   4.113   0.592 -0.6647 -0.5484  0.5217
 6706TIP3    H141677   0.088   4.088   0.500 -1.6984  1.6361 -0.0030
 6706TIP3    H241678   0.186   4.158   0.593 -0.2085 -1.4124  0.8361
 6707TIP3   OH241679   2.414   4.033   0.243  0.4421 -0.2121  0.3977
 6707TIP3    H141680   2.408   3.988   0.327 -2.0074 -0.0596  0.3875
 6707TIP3    H241681   2.420   3.962   0.178 -2.0294 -0.5961  0.4754
 6708TIP3   OH241682   5.493   4.212   0.686  0.2368  0.3090  0.4691
 6708TIP3    H141683   5.414   4.223   0.632  1.2288 -1.5550 -1.5520
 6708TIP3    H241684   5.564   4.212   0.622  1.5642 -1.2311  1.8916
 6709TIP3   OH241685   2.391   4.489   1.516  0.0720 -0.2085 -0.0636
 6709TIP3    H141686   2.425   4.416   1.568  0.7521 -0.7818 -1.2596
 6709TIP3    H241687   2.435   4.566   1.551  1.4540 -0.7406 -0.5578
 6710TIP3   OH241688   0.324   1.336   1.152  0.0614  0.3428 -0.2964
 6710TIP3    H141689   0.387   1.407   1.155 -1.0637  1.3548  0.1584
 6710TIP3    H241690   0.276   1.343   1.235 -1.0704  0.0067 -0.9076
 6711TIP3   OH241691   4.460   3.211   0.533  0.3464  0.1619 -0.2718
 6711TIP3    H141692   4.482   3.254   0.450  0.7255  0.6706  0.0885
 6711TIP3    H241693   4.531   3.235   0.592 -0.1453  0.1545  0.3270
 6712TIP3   OH241694   0.271   0.540   8.199 -0.3103  0.0235 -0.3150
 6712TIP3    H141695   0.199   0.499   8.151  0.9367 -0.2181 -2.0853
 6712TIP3    H241696   0.326   0.467   8.227  0.4653  0.3152 -1.0439
 6713TIP3   OH241697   6.287   3.455   0.042 -0.4954 -0.3352 -0.9095
 6713TIP3    H141698   6.332   3.428   0.122  0.0711 -0.1893 -1.1690
 6713TIP3    H241699   6.255   3.544   0.061  0.4235  0.0607 -1.1414
 6714TIP3   OH241700   5.879   6.295   7.957  0.2333 -0.4063  0.6344
 6714TIP3    H141701   5.957   6.350   7.949 -0.5110  0.6828  0.6269
 6714TIP3    H241702   5.903   6.229   8.023  1.2965 -0.3574  0.3180
 6715TIP3   OH241703   6.838   2.023   1.110  0.0311 -0.1409 -0.3845
 6715TIP3    H141704   6.816   2.035   1.202  0.0264  0.1649 -0.4244
 6715TIP3    H241705   6.908   2.085   1.094 -0.0481 -0.1112 -0.6162
 6716TIP3   OH241706   4.753   1.207   0.326 -0.1492  0.1363  0.3114
 6716TIP3    H141707   4.789   1.119   0.318  1.0676  0.6948 -0.4669
 6716TIP3    H241708   4.807   1.250   0.392 -0.3416  0.5057  0.2345
 6717TIP3   OH241709   3.795   6.087   0.336  0.7021  0.3516  0.2365
 6717TIP3    H141710   3.765   6.117   0.251  0.6589  1.2488  0.5537
 6717TIP3    H241711   3.727   6.027   0.366  2.2165 -2.6535 -1.7368
 6718TIP3   OH241712   2.490   4.527   0.792 -0.1776 -0.1021 -0.0081
 6718TIP3    H141713   2.506   4.621   0.793  0.1622 -0.1476 -0.6096
 6718TIP3    H241714   2.534   4.496   0.713 -0.6003 -0.7103 -0.0148
 6719TIP3   OH241715   6.921   1.440   7.673 -0.3616 -0.1300 -0.5602
 6719TIP3    H141716   7.009   1.431   7.637 -0.4668  2.3683 -1.6471
 6719TIP3    H241717   6.885   1.517   7.628 -1.3461  1.8421  3.1906
 6720TIP3   OH241718   4.164   6.617   2.036 -0.2405  0.0985 -0.0959
 6720TIP3    H141719   4.221   6.544   2.009  0.3147  1.5671 -3.3652
 6720TIP3    H241720   4.209   6.655   2.111  0.9571 -1.2075 -0.0872
 6721TIP3   OH241721   2.294   4.396   1.972  0.0397 -0.2852 -0.1042
 6721TIP3    H141722   2.386   4.372   1.971 -0.2887 -1.7449  1.4325
 6721TIP3    H241723   2.250   4.325   2.019 -1.6870  1.0336  0.3986
 6722TIP3   OH241724   0.887   6.554   1.737  0.1460  0.7114  0.5245
 6722TIP3    H141725   0.951   6.579   1.804 -0.3097  1.2529  0.7702
 6722TIP3    H241726   0.904   6.614   1.664  0.5789  0.1861  0.1870
 6723TIP3   OH241727   1.126   6.100   1.948 -0.3479 -0.5076 -0.0043
 6723TIP3    H141728   1.105   6.074   1.859 -0.9116 -1.8195  0.4849
 6723TIP3    H241729   1.218   6.074   1.960 -0.6047 -1.4005  0.1429
 6724TIP3   OH241730   0.607   1.198   1.369  0.4406  0.4645 -0.2267
 6724TIP3    H141731   0.547   1.265   1.402  0.5728  0.4337  0.0713
 6724TIP3    H241732   0.694   1.237   1.379  0.4474  0.7413 -1.1765
 6725TIP3   OH241733   1.706   0.310   1.253 -0.0214 -0.2794  0.1036
 6725TIP3    H141734   1.792   0.333   1.286  0.3351 -1.5525  0.1153
 6725TIP3    H241735   1.721   0.235   1.195 -0.9698  0.2197 -0.8449
 6726TIP3   OH241736   0.018   5.623   7.832  0.1140 -0.1728 -0.0086
 6726TIP3    H141737   0.083   5.666   7.888  1.4042 -0.4564 -1.2404
 6726TIP3    H241738   0.060   5.541   7.805 -1.5861 -1.3952  0.8299
 6727TIP3   OH241739   4.521   4.552   1.399 -1.0428 -0.7006  0.1435
 6727TIP3    H141740   4.524   4.514   1.487 -0.7213  0.1866  0.5257
 6727TIP3    H241741   4.600   4.606   1.393 -1.5695  0.0364 -0.3249
 6728TIP3   OH241742   0.970   4.376   8.268 -0.6453 -0.1610 -0.3894
 6728TIP3    H141743   0.929   4.339   8.190 -1.2999  2.8385 -1.5933
 6728TIP3    H241744   1.064   4.365   8.253 -0.7933 -2.3666 -0.0693
 6729TIP3   OH241745   3.393   0.929   7.384 -0.1219 -0.2833  0.6120
 6729TIP3    H141746   3.422   0.975   7.463 -1.7053 -0.2634  1.2138
 6729TIP3    H241747   3.298   0.930   7.389 -0.2889  0.1606 -1.5638
 6730TIP3   OH241748   3.514   6.678   7.233  0.1138  1.0660 -0.1280
 6730TIP3    H141749   3.470   6.714   7.156 -0.6018 -0.2199 -0.3495
 6730TIP3    H241750   3.570   6.609   7.199 -0.6903  0.0546  0.5456
 6731TIP3   OH241751   0.878   2.404   8.007 -0.2754 -0.1508 -0.2178
 6731TIP3    H141752   0.913   2.316   8.021 -0.8666 -0.3223  0.2160
 6731TIP3    H241753   0.954   2.461   8.016  0.3008 -0.6883 -1.4989
 6732TIP3   OH241754   1.984   3.541   1.437 -0.0466 -0.1394  0.1768
 6732TIP3    H141755   2.025   3.560   1.353  1.9787  0.1430  1.1763
 6732TIP3    H241756   1.913   3.479   1.416 -0.4446  0.9264 -1.8640
 6733TIP3   OH241757   6.512   6.098   6.387 -0.5604  0.4281 -0.3357
 6733TIP3    H141758   6.513   6.089   6.291 -0.0310  1.9323 -0.5023
 6733TIP3    H241759   6.463   6.179   6.402  2.2682  2.1368  0.4236
 6734TIP3   OH241760   4.736   1.383   0.907 -0.7058 -0.1426  0.2735
 6734TIP3    H141761   4.782   1.466   0.922 -0.1031 -0.3510 -0.3644
 6734TIP3    H241762   4.644   1.408   0.894 -0.0971  0.8284 -3.1434
 6735TIP3   OH241763   6.343   4.725   8.056  0.3078 -0.4516  0.3372
 6735TIP3    H141764   6.394   4.791   8.103 -0.3819  0.5457 -0.2773
 6735TIP3    H241765   6.307   4.669   8.125  0.6987 -0.0309  0.8910
 6736TIP3   OH241766   1.712   3.151   0.663 -0.7268 -0.0422  0.2603
 6736TIP3    H141767   1.796   3.171   0.704  0.5884 -0.5036 -2.0175
 6736TIP3    H241768   1.680   3.236   0.632 -0.3373 -0.0371 -0.1532
 6737TIP3   OH241769   3.605   3.975   0.004  0.2092 -0.5789  0.3898
 6737TIP3    H141770   3.525   3.970  -0.047  0.0724 -0.1624  0.5586
 6737TIP3    H241771   3.675   3.979  -0.061  0.0618 -0.4253  0.2407
 6738TIP3   OH241772   6.110   5.289   1.787 -0.2722  0.1708 -0.2334
 6738TIP3    H141773   6.190   5.322   1.828 -0.1446 -1.1278  0.6045
 6738TIP3    H241774   6.047   5.281   1.859 -0.5818 -0.5220 -0.5669
 6739TIP3   OH241775   3.739   5.097   2.807  0.6036 -0.3660  0.0735
 6739TIP3    H141776   3.672   5.164   2.824  0.6643 -0.4936  0.8721
 6739TIP3    H241777   3.791   5.133   2.736  1.0869  0.7860  0.9754
 6740TIP3   OH241778   0.927   4.973   6.339 -0.6154 -0.6366  0.4530
 6740TIP3    H141779   0.982   4.943   6.267  1.2157  0.2719  1.4133
 6740TIP3    H241780   0.944   5.067   6.345 -2.2131 -0.3449  0.8632
 6741TIP3   OH241781   1.055   4.713   1.986  0.0702 -0.5878  0.3844
 6741TIP3    H141782   0.968   4.685   2.014 -0.1151  0.1067  0.5259
 6741TIP3    H241783   1.110   4.704   2.063  0.0000 -0.5161  0.4428
 6742TIP3   OH241784   2.489   6.034   7.224  0.1522  0.1766 -0.4285
 6742TIP3    H141785   2.504   5.948   7.185 -0.7888 -0.1365 -0.1136
 6742TIP3    H241786   2.434   6.080   7.161  1.1529  0.7952 -0.8897
 6743TIP3   OH241787   6.304   3.305   7.524 -0.5815  0.1415 -0.4503
 6743TIP3    H141788   6.266   3.234   7.473  0.1147 -0.0923 -0.6525
 6743TIP3    H241789   6.392   3.317   7.488  1.2119 -2.1546  2.6073
 6744TIP3   OH241790   1.766   1.755   2.548  0.3799 -0.3169 -0.5056
 6744TIP3    H141791   1.831   1.690   2.573  1.1189  0.1041 -1.2894
 6744TIP3    H241792   1.790   1.834   2.597 -0.8779 -0.7683  0.9207
 6745TIP3   OH241793   5.580   2.218   1.902 -0.7857  0.2659 -0.1975
 6745TIP3    H141794   5.508   2.159   1.926 -0.0182 -1.2425 -1.4324
 6745TIP3    H241795   5.625   2.235   1.985 -0.9998 -0.9420  0.1869
 6746TIP3   OH241796   1.987   4.826   1.005  0.2631 -0.2525 -0.2296
 6746TIP3    H141797   2.031   4.891   0.949  1.0381 -0.6222 -0.0663
 6746TIP3    H241798   1.985   4.746   0.952 -0.0552 -0.2868 -0.1665
 6747TIP3   OH241799   6.340   3.071   6.456  0.1783  0.3987 -0.3153
 6747TIP3    H141800   6.358   2.992   6.406  0.1328 -0.1342  0.4943
 6747TIP3    H241801   6.281   3.043   6.526  2.0378  0.6191  1.4311
 6748TIP3   OH241802   0.475   4.861   7.893 -0.0789  0.8570  0.0892
 6748TIP3    H141803   0.451   4.889   7.806 -0.3224  0.4585  0.0271
 6748TIP3    H241804   0.571   4.854   7.890 -0.2293 -2.7771 -1.3054
 6749TIP3   OH241805   1.406   5.932   7.626 -0.3000  0.1685  0.6867
 6749TIP3    H141806   1.443   5.857   7.581  1.8965  0.3624  2.0029
 6749TIP3    H241807   1.386   5.900   7.714 -0.0294  0.9426  1.0421
 6750TIP3   OH241808   6.787   1.484   6.275 -0.5724  0.1097 -0.1520
 6750TIP3    H141809   6.789   1.580   6.282 -0.7612  0.0276  1.4280
 6750TIP3    H241810   6.878   1.459   6.261 -0.6489  0.5621 -1.6198
 6751TIP3   OH241811   2.606   3.953   6.667  0.2790 -0.0141  0.5157
 6751TIP3    H141812   2.608   3.949   6.571 -0.6782 -0.0328  0.4851
 6751TIP3    H241813   2.569   3.868   6.693  1.7413 -0.5308  0.9690
 6752TIP3   OH241814   0.446   6.700   7.448 -0.7069  0.5993 -0.0416
 6752TIP3    H141815   0.408   6.762   7.384  2.0757 -0.0785 -2.5644
 6752TIP3    H241816   0.383   6.628   7.451 -1.0927  0.8195 -1.7984
 6753TIP3   OH241817   3.468   6.303   1.092  0.1709 -0.2252 -0.6626
 6753TIP3    H141818   3.506   6.283   1.178  0.2388  0.3540 -0.5556
 6753TIP3    H241819   3.490   6.395   1.077 -1.6541  0.2907 -0.3539
 6754TIP3   OH241820   6.617   5.281   7.360 -0.3577 -0.4300 -0.1730
 6754TIP3    H141821   6.581   5.273   7.448  0.7241  0.0399  0.3314
 6754TIP3    H241822   6.622   5.375   7.344 -1.4911 -0.5193 -1.1473
 6755TIP3   OH241823   0.416   2.348   0.938 -0.2799  0.1512  0.1905
 6755TIP3    H141824   0.331   2.328   0.899 -0.8054  1.8883  0.3868
 6755TIP3    H241825   0.397   2.414   1.004  0.7287 -1.9455  2.7612
 6756TIP3   OH241826   5.526   2.884   0.581  0.0610 -0.3622 -0.0482
 6756TIP3    H141827   5.519   2.929   0.665  1.4844 -0.4250  0.1302
 6756TIP3    H241828   5.618   2.894   0.556 -0.1703 -1.0037 -1.2260
 6757TIP3   OH241829   4.085   4.990   0.045  0.7015 -0.3189  0.2578
 6757TIP3    H141830   4.034   5.050   0.099 -1.1633 -0.2937 -1.4259
 6757TIP3    H241831   4.101   5.039  -0.036 -0.2394 -1.7884 -0.8717
 6758TIP3   OH241832   4.020   1.887   1.303  0.1894  0.4245  0.1910
 6758TIP3    H141833   4.054   1.900   1.215 -2.5596  1.0892 -0.8877
 6758TIP3    H241834   3.976   1.801   1.300 -0.3072  0.6450  0.7614
 6759TIP3   OH241835   6.512   4.415   6.808 -0.1190  0.1446  0.2800
 6759TIP3    H141836   6.576   4.421   6.737 -1.4205 -1.2853 -1.0923
 6759TIP3    H241837   6.448   4.484   6.788  0.4119  0.8921  1.0769
 6760TIP3   OH241838   1.828   4.034   2.590  0.6995 -0.2626  1.1569
 6760TIP3    H141839   1.854   4.121   2.559 -0.7154 -0.0111  0.6146
 6760TIP3    H241840   1.869   4.026   2.676 -0.4986  1.6381  1.9567
 6761TIP3   OH241841   0.326   6.615   1.400  0.0194 -0.1699  0.1069
 6761TIP3    H141842   0.234   6.638   1.386  0.1032  0.5576  0.7061
 6761TIP3    H241843   0.360   6.684   1.456  0.7339 -0.8551  0.5380
 6762TIP3   OH241844   2.939   5.978   8.330 -0.8562 -0.1473 -0.0532
 6762TIP3    H141845   2.892   5.906   8.288  0.4362 -0.6164 -0.7776
 6762TIP3    H241846   2.982   6.024   8.258 -1.9951  1.6404  0.3520
 6763TIP3   OH241847   5.588   6.173   1.234 -0.1375 -0.0155 -0.6070
 6763TIP3    H141848   5.660   6.200   1.177  0.0591 -0.5937 -0.6388
 6763TIP3    H241849   5.599   6.078   1.244  0.6093  0.2334  1.4596
 6764TIP3   OH241850   4.906   3.698   7.913 -0.0581  0.3045 -0.3588
 6764TIP3    H141851   4.852   3.712   7.836 -0.0249 -1.4424 -0.7275
 6764TIP3    H241852   4.895   3.605   7.934 -0.6966  0.8845  2.2100
 6765TIP3   OH241853   5.448   6.114   0.542 -0.1677  0.7127 -0.1078
 6765TIP3    H141854   5.531   6.067   0.543  0.2122  1.2498  2.6451
 6765TIP3    H241855   5.382   6.048   0.562  0.4876  1.2141  5.0186
 6766TIP3   OH241856   1.352   1.088   2.203  0.2469  0.4311 -0.1978
 6766TIP3    H141857   1.441   1.073   2.172  0.2832 -0.5916  0.3405
 6766TIP3    H241858   1.315   1.149   2.140 -0.2197 -2.7025 -3.3167
 6767TIP3   OH241859   5.926   4.584   0.186 -0.2009  0.2697 -0.2338
 6767TIP3    H141860   5.963   4.527   0.253  0.1040  1.4069  0.5888
 6767TIP3    H241861   6.002   4.629   0.149 -0.5782  1.2361  0.1567
 6768TIP3   OH241862   1.505   0.577   0.154  0.4477  0.5709 -0.1584
 6768TIP3    H141863   1.562   0.639   0.199  1.1871 -0.3884  0.2591
 6768TIP3    H241864   1.426   0.575   0.208  1.4387 -0.7854  1.3265
 6769TIP3   OH241865   5.735   6.022   0.944  0.6620  0.1787  0.0152
 6769TIP3    H141866   5.757   6.090   1.007 -2.5639  0.8800  0.5786
 6769TIP3    H241867   5.806   5.958   0.951  1.5418  1.3279  2.7149
 6770TIP3   OH241868   5.243   2.272   1.787  0.1417 -0.4888 -0.3467
 6770TIP3    H141869   5.298   2.311   1.719  0.6816 -1.1652 -0.3016
 6770TIP3    H241870   5.296   2.203   1.825 -0.0312  0.0615  0.9761
 6771TIP3   OH241871   1.233   6.657   8.056 -0.3014 -0.4366 -0.2996
 6771TIP3    H141872   1.276   6.743   8.060 -2.4489  0.6633  1.4353
 6771TIP3    H241873   1.156   6.667   8.111 -0.2409 -3.7522  0.5617
 6772TIP3   OH241874   0.624   0.154   1.274  0.2977  0.0172 -0.2001
 6772TIP3    H141875   0.682   0.229   1.263 -0.4712  0.9969  1.9570
 6772TIP3    H241876   0.549   0.173   1.217 -0.9831  2.1146  2.0481
 6773TIP3   OH241877   0.737   2.857   1.150  0.9373  0.4462  0.1237
 6773TIP3    H141878   0.765   2.808   1.072 -0.6835 -0.2675 -0.0343
 6773TIP3    H241879   0.792   2.821   1.221  0.9740 -0.3868 -0.3063
 6774TIP3   OH241880   3.267   3.489   0.957 -0.0486  0.0721  0.2078
 6774TIP3    H141881   3.210   3.447   0.892  0.5576 -0.3416 -0.0700
 6774TIP3    H241882   3.317   3.416   0.995  0.0085  0.3805  0.7376
 6775TIP3   OH241883   3.401   4.957   1.017 -0.7077 -0.0299  0.2281
 6775TIP3    H141884   3.496   4.949   1.021 -0.7243 -0.4939 -0.1944
 6775TIP3    H241885   3.378   5.012   1.092 -0.2451 -1.2705  1.3321
 6776TIP3   OH241886   0.007   5.748   1.895  0.1976 -0.4526 -0.1811
 6776TIP3    H141887  -0.083   5.749   1.927  0.2906 -2.6066  0.3004
 6776TIP3    H241888   0.001   5.779   1.805 -1.0359 -0.5361 -0.1388
 6777TIP3   OH241889   4.214   5.584   7.800 -0.6134 -0.2035  0.1216
 6777TIP3    H141890   4.185   5.520   7.865 -2.3726  1.6523  1.2842
 6777TIP3    H241891   4.182   5.549   7.717 -2.0330 -0.5935  0.7950
 6778TIP3   OH241892   5.730   5.007   0.288 -0.5045 -0.0282  0.0168
 6778TIP3    H141893   5.749   5.027   0.197  0.0305  0.0153  0.1329
 6778TIP3    H241894   5.643   5.044   0.304 -0.2214  0.7469 -0.2211
 6779TIP3   OH241895   5.436   2.453   1.002  0.3564 -0.3005  0.0313
 6779TIP3    H141896   5.517   2.412   1.034  0.4018 -0.9433 -0.8877
 6779TIP3    H241897   5.366   2.397   1.035  0.4143 -1.0969 -1.1457
 6780TIP3   OH241898   2.395   4.833   6.974  0.4010  0.2983 -0.1407
 6780TIP3    H141899   2.465   4.774   6.998  0.6484  1.1942  1.5013
 6780TIP3    H241900   2.395   4.834   6.878  0.1263 -2.5976 -0.2622
 6781TIP3   OH241901   5.274   4.417   7.104  0.3433  0.9373 -0.7340
 6781TIP3    H141902   5.300   4.509   7.105  0.8112  0.8172 -1.1319
 6781TIP3    H241903   5.319   4.380   7.027 -1.0780  0.7273 -1.4869
 6782TIP3   OH241904   3.508   6.629   0.345 -0.5129 -0.3246 -0.9241
 6782TIP3    H141905   3.445   6.640   0.274  0.4547  0.1775 -1.7112
 6782TIP3    H241906   3.551   6.714   0.353 -0.2977 -0.5022 -0.0287
 6783TIP3   OH241907   2.409   1.360   7.657  0.2848 -0.4003  0.3557
 6783TIP3    H141908   2.333   1.418   7.651  0.9551  0.6252  1.3145
 6783TIP3    H241909   2.450   1.382   7.741  3.1017  0.9593 -1.2080
 6784TIP3   OH241910   0.793   1.749   6.070  0.1443  0.1550  0.1699
 6784TIP3    H141911   0.869   1.693   6.086 -0.2614 -0.2424  0.7583
 6784TIP3    H241912   0.824   1.838   6.087  0.4468 -0.0158  0.5206
 6785TIP3   OH241913   1.801   0.040   1.187 -0.0470 -0.6789  0.2951
 6785TIP3    H141914   1.858  -0.002   1.251 -1.4580 -1.1419  1.2959
 6785TIP3    H241915   1.762  -0.034   1.139  1.8299 -0.3460 -1.9537
 6786TIP3   OH241916   3.997   5.255   1.596 -0.3478 -0.6048  0.5152
 6786TIP3    H141917   4.044   5.336   1.577  0.2278 -0.4701  2.3160
 6786TIP3    H241918   3.910   5.269   1.559  0.2883  0.0562 -0.8450
 6787TIP3   OH241919   4.311   3.862   7.444  0.4277  0.0184 -0.9930
 6787TIP3    H141920   4.385   3.901   7.491  0.2546 -1.0716  0.2284
 6787TIP3    H241921   4.335   3.770   7.434 -0.1482 -0.0454 -1.8626
 6788TIP3   OH241922   2.558   6.403   7.454 -0.3843  0.2035 -0.6637
 6788TIP3    H141923   2.547   6.310   7.476  1.3200 -0.1624 -1.2719
 6788TIP3    H241924   2.572   6.445   7.539  0.9427 -0.4302 -0.5424
 6789TIP3   OH241925   4.169   4.714   6.957 -0.0274  0.1883  0.1576
 6789TIP3    H141926   4.248   4.671   6.987 -0.4310  1.1469  2.8830
 6789TIP3    H241927   4.101   4.646   6.961 -0.0480  0.2640  1.4435
 6790TIP3   OH241928   2.389   1.437   0.753  0.5063 -0.0755  0.0410
 6790TIP3    H141929   2.348   1.413   0.836  0.3517 -0.2285 -0.0794
 6790TIP3    H241930   2.327   1.409   0.686  0.4749  0.3592 -0.1167
 6791TIP3   OH241931   5.504   0.231   7.335 -0.5086  0.0540 -0.0349
 6791TIP3    H141932   5.504   0.208   7.242 -1.4247 -1.1757  0.2529
 6791TIP3    H241933   5.484   0.149   7.380 -3.2530  1.2234  1.0629
 6792TIP3   OH241934   6.281   1.207   0.616 -0.5696 -0.9456  0.1088
 6792TIP3    H141935   6.286   1.137   0.552 -0.9805 -1.3037  0.4593
 6792TIP3    H241936   6.262   1.163   0.699 -2.6764 -0.2964  0.0279
 6793TIP3   OH241937   5.758   0.440   1.355 -0.4376 -0.1713  0.2833
 6793TIP3    H141938   5.798   0.471   1.436  0.7940 -0.3570 -0.2409
 6793TIP3    H241939   5.718   0.356   1.379  2.5086 -1.7514  0.0734
 6794TIP3   OH241940   4.410   5.191   8.362  0.2554 -0.0981  0.0098
 6794TIP3    H141941   4.457   5.123   8.411  0.6685  0.0258 -0.2150
 6794TIP3    H241942   4.471   5.264   8.358 -0.8452  1.0146  1.8782
 6795TIP3   OH241943   0.722   1.949   1.427  0.5411  0.2098  0.1093
 6795TIP3    H141944   0.688   2.011   1.362  0.7070  2.2622  1.8753
 6795TIP3    H241945   0.808   1.984   1.450  1.4748 -1.7759 -0.1898
 6796TIP3   OH241946   4.005   0.099   7.929  0.0184  0.3933 -0.4033
 6796TIP3    H141947   3.973   0.152   8.002 -0.9459 -0.2082 -0.3716
 6796TIP3    H241948   3.928   0.085   7.874  0.8851  1.4484 -1.9435
 6797TIP3   OH241949   3.978   5.465   0.900 -0.0031  0.4186 -0.1431
 6797TIP3    H141950   3.942   5.382   0.930  3.1890 -1.5715 -1.3211
 6797TIP3    H241951   3.949   5.473   0.809  1.4438 -0.5944 -0.7255
 6798TIP3   OH241952   0.943   5.592   8.085 -0.5767  0.0790  0.4806
 6798TIP3    H141953   0.858   5.587   8.128 -1.1313  0.3736 -0.5395
 6798TIP3    H241954   0.939   5.528   8.015  0.2980 -0.3737  0.8219
 6799TIP3   OH241955   5.422   3.974   7.758 -0.3619 -0.0677  0.1127
 6799TIP3    H141956   5.511   3.977   7.724  0.1179  3.9349  1.2051
 6799TIP3    H241957   5.431   3.932   7.844  0.0671 -1.5012 -0.6060
 6800TIP3   OH241958   0.370   1.608   1.073 -0.3237  0.3851  0.2109
 6800TIP3    H141959   0.429   1.677   1.103 -0.4078  0.1891  0.8279
 6800TIP3    H241960   0.283   1.644   1.085 -0.3326  0.8958 -1.2336
 6801TIP3   OH241961   0.335   3.752   7.336 -0.7396  0.8158  0.3381
 6801TIP3    H141962   0.346   3.846   7.350 -1.3975  0.9288  0.1219
 6801TIP3    H241963   0.290   3.721   7.415 -3.1783  1.2092 -0.8128
 6802TIP3   OH241964   1.293   5.527   7.184  0.7461  0.2383  0.4074
 6802TIP3    H141965   1.308   5.620   7.170  0.7072  0.0683 -0.8342
 6802TIP3    H241966   1.202   5.512   7.158  0.8793 -0.2177  0.1876
 6803TIP3   OH241967   1.874   1.338   7.436  0.2645 -0.3450  0.1519
 6803TIP3    H141968   1.934   1.412   7.426  2.0424 -1.5178  1.3953
 6803TIP3    H241969   1.928   1.261   7.419 -0.6937 -1.4957  1.9418
 6804TIP3   OH241970   4.660   4.925   7.857 -0.0589  0.2740  0.3586
 6804TIP3    H141971   4.620   4.892   7.776 -0.6060  0.9336  0.3452
 6804TIP3    H241972   4.740   4.970   7.828  0.1161 -0.0962  0.2633
 6805TIP3   OH241973   6.470   0.778   1.723 -0.0340  0.0983  0.1882
 6805TIP3    H141974   6.389   0.822   1.696 -0.9968 -0.2040  2.3423
 6805TIP3    H241975   6.538   0.817   1.669 -1.5624  0.5755 -1.4949
 6806TIP3   OH241976   2.866   0.895   1.574 -0.5913  0.7371  0.3012
 6806TIP3    H141977   2.842   0.953   1.501  0.6918  1.4620  0.4373
 6806TIP3    H241978   2.917   0.826   1.533  0.0375  1.0864  0.4849
 6807TIP3   OH241979   3.308   0.299   7.642 -0.9419  0.3948  0.4572
 6807TIP3    H141980   3.333   0.378   7.691 -1.4748 -0.1421  1.6374
 6807TIP3    H241981   3.335   0.226   7.698 -3.5989 -0.2190  1.0873
 6808TIP3   OH241982   4.831   0.509   0.080 -0.5387 -0.0463  0.5942
 6808TIP3    H141983   4.743   0.475   0.094 -1.5329  2.7492  1.9946
 6808TIP3    H241984   4.820   0.573   0.009  0.7639 -0.9615 -0.4596
 6809TIP3   OH241985   6.522   3.887   2.527  0.3191  0.1951 -0.1710
 6809TIP3    H141986   6.480   3.854   2.448  1.5299  0.3952 -0.9154
 6809TIP3    H241987   6.605   3.841   2.532  0.7186  0.9484  0.4185
 6810TIP3   OH241988   6.687   6.090   8.130 -0.0031 -0.0302  0.4191
 6810TIP3    H141989   6.709   6.107   8.222  1.2522 -0.0343  0.1371
 6810TIP3    H241990   6.613   6.147   8.112 -0.1368  0.1218  1.3731
 6811TIP3   OH241991   1.527   5.678   1.172 -0.2603 -0.6239 -0.2069
 6811TIP3    H141992   1.572   5.724   1.101  1.2313 -2.4749 -0.5591
 6811TIP3    H241993   1.596   5.654   1.233 -0.7426 -3.1764 -0.5401
 6812TIP3   OH241994   5.038   0.513   2.534 -0.3365  0.0760 -0.1538
 6812TIP3    H141995   4.955   0.548   2.565 -0.4698 -0.1089 -0.3026
 6812TIP3    H241996   5.041   0.423   2.567 -0.5294 -0.1619 -0.7577
 6813TIP3   OH241997   0.297   4.819   6.677  0.0152 -0.3163 -0.2334
 6813TIP3    H141998   0.252   4.735   6.669 -0.4748 -0.0430 -0.4145
 6813TIP3    H241999   0.227   4.884   6.665  0.1290  0.1312  1.3824
 6814TIP3   OH242000   6.826   0.590   0.548  0.0104  0.0471 -0.2747
 6814TIP3    H142001   6.753   0.645   0.576  0.2239  0.3224 -0.2614
 6814TIP3    H242002   6.897   0.611   0.608  0.1984  0.0033 -0.4804
 6815TIP3   OH242003   2.407   2.741   1.136 -0.2600 -0.4566  0.4725
 6815TIP3    H142004   2.385   2.648   1.130 -1.1477 -0.3705  1.9382
 6815TIP3    H242005   2.326   2.787   1.112  0.4756 -0.0041 -1.3454
 6816TIP3   OH242006   6.373   5.616   1.590  0.2742  0.4392  0.0996
 6816TIP3    H142007   6.387   5.546   1.655 -0.3951 -0.2486 -0.4745
 6816TIP3    H242008   6.403   5.578   1.507  2.9050  1.9730  0.2524
 6817TIP3   OH242009   5.932   5.170   8.089  0.2395  0.0044 -0.3027
 6817TIP3    H142010   5.857   5.216   8.049  1.0584  1.4926 -0.2124
 6817TIP3    H242011   5.967   5.232   8.153  0.5446 -1.3352  0.8795
 6818TIP3   OH242012   4.654   4.625   6.680  0.2169  0.1141  0.2397
 6818TIP3    H142013   4.678   4.674   6.601 -0.5951 -0.5996 -0.4765
 6818TIP3    H242014   4.602   4.686   6.732 -0.9711 -0.0289 -0.7451
 6819TIP3   OH242015   4.475   3.521   7.794 -0.0517  0.3980 -0.5648
 6819TIP3    H142016   4.553   3.467   7.811 -1.3656 -1.3800  0.1485
 6819TIP3    H242017   4.403   3.472   7.833 -1.8485  1.0425 -2.8522
 6820TIP3   OH242018   1.602   4.919   1.502  0.0911  0.2643 -0.5925
 6820TIP3    H142019   1.552   4.840   1.521  0.9996 -0.3839 -0.8158
 6820TIP3    H242020   1.536   4.984   1.478 -0.6324 -0.5749 -0.9345
 6821TIP3   OH242021   5.851   4.428   1.128  0.1031  0.1260  0.5622
 6821TIP3    H142022   5.926   4.372   1.107 -0.0003  0.4310 -0.7004
 6821TIP3    H242023   5.806   4.381   1.199  0.7346 -0.7368  0.4153
 6822TIP3   OH242024   2.606   6.617   7.103 -0.3661  0.1752 -0.5872
 6822TIP3    H142025   2.575   6.633   7.192 -0.9451 -1.6057 -0.4199
 6822TIP3    H242026   2.527   6.624   7.049 -0.5236 -1.2239 -0.5861
 6823TIP3   OH242027   6.965   6.845   0.053  0.2941 -0.2643 -0.0579
 6823TIP3    H142028   6.940   6.904   0.124  0.7238  0.8097 -0.7710
 6823TIP3    H242029   7.055   6.820   0.074  0.0311 -0.8740  0.3702
 6824TIP3   OH242030   4.336   6.657   1.345 -0.0171 -0.7328  0.3174
 6824TIP3    H142031   4.371   6.587   1.400  1.2392  0.1031  0.6330
 6824TIP3    H242032   4.368   6.738   1.386 -1.2132  0.0189 -0.1815
 6825TIP3   OH242033   3.048   4.587   7.545  0.1466  0.0317  0.0988
 6825TIP3    H142034   2.990   4.522   7.583 -1.3910  1.8081  0.9671
 6825TIP3    H242035   3.057   4.561   7.454 -2.5186 -0.0475 -0.2228
 6826TIP3   OH242036   5.470   1.502   2.243  0.2952 -0.4369  0.2424
 6826TIP3    H142037   5.375   1.493   2.247  0.1153  0.9637 -0.3441
 6826TIP3    H242038   5.503   1.412   2.236 -1.0462 -0.8698 -0.8362
 6827TIP3   OH242039   5.226   0.423   1.345 -0.0332 -0.8374 -0.0093
 6827TIP3    H142040   5.151   0.416   1.405 -0.8181  1.9042 -0.5150
 6827TIP3    H242041   5.286   0.483   1.390  0.5883 -0.8438 -0.8185
 6828TIP3   OH242042   4.314   1.080   0.808  0.9886 -0.1933 -0.0691
 6828TIP3    H142043   4.280   1.145   0.746  1.7079 -0.5114 -0.8029
 6828TIP3    H242044   4.240   1.021   0.823 -0.3320  1.7818  2.0730
 6829TIP3   OH242045   4.804   0.595   1.021 -0.3960 -0.1753  0.3797
 6829TIP3    H142046   4.850   0.578   1.103  1.0653  1.4148 -0.0730
 6829TIP3    H242047   4.811   0.689   1.008  1.6157 -0.6242 -2.7944
 6830TIP3   OH242048   1.820   2.261   1.580 -0.3649  0.4574  0.2838
 6830TIP3    H142049   1.728   2.253   1.606 -0.9644  0.7704 -1.5903
 6830TIP3    H242050   1.827   2.211   1.499  0.5001  2.3949 -0.9358
 6831TIP3   OH242051   4.628   1.445   1.467 -0.1652  0.3035  0.0151
 6831TIP3    H142052   4.555   1.502   1.443 -1.2784 -1.1610 -0.2539
 6831TIP3    H242053   4.673   1.426   1.384 -0.8117 -0.5209 -0.1610
 6832TIP3   OH242054   1.477   6.177   6.222  0.0099  0.2217  0.1210
 6832TIP3    H142055   1.514   6.089   6.213 -0.9590 -0.2148  0.2173
 6832TIP3    H242056   1.403   6.166   6.282 -0.9899  0.8082 -0.9370
 6833TIP3   OH242057   0.802   3.427   1.175 -0.5600 -0.1054  0.1176
 6833TIP3    H142058   0.734   3.388   1.230  1.0023 -0.8097  1.6683
 6833TIP3    H242059   0.880   3.374   1.194 -0.1387 -1.1561 -3.6835
 6834TIP3   OH242060   3.542   5.394   1.121  0.5120  0.7635  0.1502
 6834TIP3    H142061   3.516   5.458   1.054 -0.3204 -0.8461 -1.1349
 6834TIP3    H242062   3.624   5.358   1.088  0.3826  0.3538  0.2753
 6835TIP3   OH242063   1.020   1.966   0.013 -0.2803  0.3492  0.2389
 6835TIP3    H142064   0.963   2.025   0.061  0.1872  1.5895 -0.6926
 6835TIP3    H242065   1.107   2.005   0.020 -0.1536  0.4022 -1.3287
 6836TIP3   OH242066   2.640   6.789   2.009 -0.3995  0.0237 -0.1830
 6836TIP3    H142067   2.678   6.702   2.020 -0.2920  0.1245  0.2854
 6836TIP3    H242068   2.585   6.800   2.087 -0.2078  0.4757 -0.1112
 6837TIP3   OH242069   4.300   3.176   1.287 -0.2620  0.1852 -0.8392
 6837TIP3    H142070   4.367   3.207   1.347 -0.9624 -0.2066  0.1710
 6837TIP3    H242071   4.241   3.125   1.342 -2.5007  2.1288 -1.2744
 6838TIP3   OH242072   5.606   5.790   7.173 -0.5095  0.3484 -0.5614
 6838TIP3    H142073   5.546   5.863   7.187  0.9658  1.8651 -1.7080
 6838TIP3    H242074   5.674   5.801   7.240 -0.1542  0.1851 -0.8882
 6839TIP3   OH242075   2.296   4.774   7.846 -0.0809 -0.4543  0.1386
 6839TIP3    H142076   2.289   4.844   7.781 -0.9067 -0.2027  0.4947
 6839TIP3    H242077   2.258   4.698   7.803 -0.7710 -0.2485  0.3793
 6840TIP3   OH242078   3.365   2.097   7.938 -0.1764 -0.0654  0.1681
 6840TIP3    H142079   3.348   2.191   7.942 -0.4583 -0.1011 -0.1016
 6840TIP3    H242080   3.310   2.060   8.006  0.7354  0.0644  0.9954
 6841TIP3   OH242081   3.897   0.071   0.875  0.0757  0.0876 -0.6475
 6841TIP3    H142082   3.972   0.012   0.867  1.2287  1.3629  0.2607
 6841TIP3    H242083   3.831   0.034   0.816  1.3234 -1.2067 -1.3017
 6842TIP3   OH242084   3.909   5.258   2.647 -0.0940 -0.2771 -0.1957
 6842TIP3    H142085   3.895   5.348   2.619 -0.8833  0.4319  2.2268
 6842TIP3    H242086   3.979   5.264   2.712 -2.7088 -0.6421  2.9697
 6843TIP3   OH242087   6.080   4.153   0.736  0.7166 -0.2157 -0.0320
 6843TIP3    H142088   6.016   4.223   0.727  0.0615 -0.7231  0.5869
 6843TIP3    H242089   6.046   4.081   0.682  0.8430 -0.4253  0.1634
 6844TIP3   OH242090   5.123   5.696   0.445  0.0449 -0.1800  0.2088
 6844TIP3    H142091   5.168   5.661   0.368  3.4687  0.6066  1.6666
 6844TIP3    H242092   5.076   5.773   0.413  0.5208 -0.4907 -1.3018
 6845TIP3   OH242093   1.375   1.498   1.202  0.1446  0.8826 -0.0926
 6845TIP3    H142094   1.338   1.482   1.115 -1.3673  0.9625  0.5195
 6845TIP3    H242095   1.370   1.413   1.246 -2.9348  1.6489  1.2997
 6846TIP3   OH242096   4.253   0.077   8.259  0.3655 -0.2281  0.1908
 6846TIP3    H142097   4.239   0.073   8.164  1.0634  0.8216  0.0289
 6846TIP3    H242098   4.296   0.161   8.273  1.1230 -0.7950  1.3377
 6847TIP3   OH242099   0.680   5.683   8.341 -0.7797 -0.0191 -0.3527
 6847TIP3    H142100   0.598   5.636   8.326 -0.9218  0.4799 -1.2125
 6847TIP3    H242101   0.671   5.763   8.290  0.7914 -0.5900 -1.6006
 6848TIP3   OH242102   4.760   2.454   0.076  0.7668 -0.3992  0.2301
 6848TIP3    H142103   4.709   2.523   0.034  0.4172 -1.7633 -1.7508
 6848TIP3    H242104   4.827   2.499   0.127  1.3237  1.3958 -1.9633
 6849TIP3   OH242105   0.210   4.833   5.919 -0.7354  0.2402  0.0497
 6849TIP3    H142106   0.180   4.886   5.845 -0.4595 -0.4668 -0.5776
 6849TIP3    H242107   0.153   4.755   5.917 -1.5609  0.7717  1.3400
 6850TIP3   OH242108   1.295   3.647   7.904  0.6991 -0.4673  0.4605
 6850TIP3    H142109   1.309   3.574   7.963  0.8436 -2.3930 -1.8052
 6850TIP3    H242110   1.371   3.704   7.917 -0.2265  0.2603  3.4565
 6851TIP3   OH242111   5.415   6.847   1.754  0.0346  0.5818 -0.0124
 6851TIP3    H142112   5.344   6.909   1.770 -0.6565 -0.1072 -0.3607
 6851TIP3    H242113   5.449   6.827   1.842 -1.3206 -0.3655  0.3239
 6852TIP3   OH242114   6.670   3.050   1.727  0.0673 -0.3535 -0.2044
 6852TIP3    H142115   6.649   3.121   1.667  0.2014  0.5911  0.8337
 6852TIP3    H242116   6.711   2.983   1.672 -2.4178 -0.7903 -1.6708
 6853TIP3   OH242117   5.176   5.124   6.844  0.5690 -0.3144 -0.3653
 6853TIP3    H142118   5.198   5.038   6.880  0.8924 -0.1973 -0.2793
 6853TIP3    H242119   5.229   5.185   6.894  1.1244 -0.1629 -1.1228
 6854TIP3   OH242120   0.420   2.379   0.130 -0.3778 -0.2581  0.1523
 6854TIP3    H142121   0.382   2.466   0.145 -0.4544 -0.3755  0.6697
 6854TIP3    H242122   0.415   2.367   0.035 -3.4751 -1.0845  0.3157
 6855TIP3   OH242123   0.095   4.203   2.138  0.1132 -0.3425 -0.3609
 6855TIP3    H142124   0.130   4.128   2.091 -0.9995 -1.2970  0.2851
 6855TIP3    H242125  -0.000   4.193   2.132 -0.0492  0.3070  0.8331
 6856TIP3   OH242126   1.886   2.740   1.350  0.2926 -0.5801 -0.2281
 6856TIP3    H142127   1.856   2.654   1.323 -1.8438  0.4635 -1.4843
 6856TIP3    H242128   1.872   2.796   1.273  1.0461  1.0086  0.7262
 6857TIP3   OH242129   0.246   2.213   8.126  0.3913  0.8415  0.3027
 6857TIP3    H142130   0.273   2.273   8.195  1.7330  0.3489  0.2248
 6857TIP3    H242131   0.326   2.170   8.098 -0.7738 -3.3951  2.5780
 6858TIP3   OH242132   5.774   2.600   7.674 -0.9291 -0.0298  0.1158
 6858TIP3    H142133   5.773   2.517   7.721  2.7351 -0.1204  0.2875
 6858TIP3    H242134   5.754   2.577   7.583  0.7982 -1.2972  0.0148
 6859TIP3   OH242135   6.352   2.714   2.787  0.2358 -0.1060  0.5841
 6859TIP3    H142136   6.288   2.718   2.716  1.1439  0.1505 -0.2455
 6859TIP3    H242137   6.384   2.624   2.786  3.1174  0.7919 -2.0093
 6860TIP3   OH242138   6.731   6.626   0.778 -0.1824 -0.2945 -0.0568
 6860TIP3    H142139   6.668   6.661   0.841 -0.5496 -1.0265 -0.0012
 6860TIP3    H242140   6.684   6.554   0.735  0.9397 -1.5195  0.6932
 6861TIP3   OH242141   5.841   0.300   0.847  0.0015 -0.4833  0.1105
 6861TIP3    H142142   5.860   0.304   0.941  0.0858  1.0233  0.0526
 6861TIP3    H242143   5.812   0.210   0.832  2.4844 -1.5334  1.0793
 6862TIP3   OH242144   6.437   3.480   1.309 -0.3658 -0.2531  0.2724
 6862TIP3    H142145   6.484   3.563   1.318  0.5412 -0.6130 -0.8294
 6862TIP3    H242146   6.486   3.419   1.364 -1.5960  0.1295  1.8472
 6863TIP3   OH242147   0.775   2.736   0.015  0.0490  0.3139  0.1108
 6863TIP3    H142148   0.723   2.816   0.006 -0.7316  0.0069  1.5489
 6863TIP3    H242149   0.865   2.765   0.009 -0.2293  1.3281  0.6534
 6864TIP3   OH242150   3.760   6.980   0.631  0.4614  0.3361  0.3875
 6864TIP3    H142151   3.779   6.886   0.624  1.0776  0.5523 -1.0781
 6864TIP3    H242152   3.823   7.022   0.572 -0.9446  1.5197 -0.3296
 6865TIP3   OH242153   4.645   5.756   7.532 -0.4465  0.3554  0.4909
 6865TIP3    H142154   4.693   5.839   7.535 -1.3844  1.0400 -1.3514
 6865TIP3    H242155   4.711   5.690   7.512  0.0061  1.0163 -0.2493
 6866TIP3   OH242156   2.703   6.777   2.320 -0.3812  0.0370 -0.4309
 6866TIP3    H142157   2.658   6.712   2.374 -1.6138  1.4455  0.2995
 6866TIP3    H242158   2.635   6.841   2.298  0.9609  1.4866 -0.4830
 6867TIP3   OH242159   3.301   6.537   2.524 -0.2233 -0.2439  0.2296
 6867TIP3    H142160   3.387   6.497   2.536 -1.4113 -2.2469  3.2702
 6867TIP3    H242161   3.311   6.625   2.562  0.7906  0.0943 -0.7497
 6868TIP3   OH242162   4.100   6.181   1.188  0.3019  0.0844 -0.4384
 6868TIP3    H142163   4.044   6.237   1.242  2.8240  0.3638  2.1635
 6868TIP3    H242164   4.045   6.106   1.165 -1.8138  1.4876 -0.1706
 6869TIP3   OH242165   2.462   5.517   0.187 -0.0326 -0.4175  0.1951
 6869TIP3    H142166   2.389   5.486   0.240  1.1177  0.3090  2.3382
 6869TIP3    H242167   2.439   5.607   0.163 -0.0411 -0.3272  0.5322
 6870TIP3   OH242168   1.074   5.944   1.721  0.0434 -0.0406 -0.0133
 6870TIP3    H142169   1.034   5.957   1.635  0.8259  0.1515 -0.3573
 6870TIP3    H242170   1.139   5.875   1.707  1.1637  0.9657  0.0841
 6871TIP3   OH242171   5.900   6.539   8.186  0.3004 -0.0354 -0.2762
 6871TIP3    H142172   5.814   6.542   8.227  0.5399  1.5258  0.1741
 6871TIP3    H242173   5.888   6.578   8.099  0.0377 -2.2742 -1.3311
 6872TIP3   OH242174   0.535   4.198   7.229  0.0595 -0.1485 -0.1504
 6872TIP3    H142175   0.557   4.208   7.136  2.9187  1.0984  0.5552
 6872TIP3    H242176   0.504   4.285   7.255 -0.0550 -0.3047  0.2388
 6873TIP3   OH242177   4.929   1.263   7.319  0.7656 -0.3571 -0.2758
 6873TIP3    H142178   4.878   1.215   7.254 -2.7884  0.5376  1.5683
 6873TIP3    H242179   4.967   1.195   7.375  1.0802 -1.0743 -1.3385
 6874TIP3   OH242180   4.693   2.206   7.452 -0.2221 -0.2220 -0.0278
 6874TIP3    H142181   4.765   2.217   7.514 -1.5332 -0.6911  1.6613
 6874TIP3    H242182   4.620   2.256   7.490 -0.0895  2.6347 -3.0996
 6875TIP3   OH242183   2.572   6.064   0.120 -0.3172 -0.3476 -0.0861
 6875TIP3    H142184   2.541   6.143   0.074 -0.1863  0.0331  0.4612
 6875TIP3    H242185   2.571   5.996   0.054  1.3967  0.5347 -1.0802
 6876TIP3   OH242186   0.205   2.967   0.929 -0.0688  0.4102 -0.5869
 6876TIP3    H142187   0.185   2.875   0.913 -1.1802  0.7613 -1.3058
 6876TIP3    H242188   0.149   3.015   0.869  1.1825  1.5451 -0.8859
 6877TIP3   OH242189   3.610   4.798   8.058  0.2419 -0.2909  0.2614
 6877TIP3    H142190   3.516   4.792   8.073  0.0438 -1.7881 -1.3016
 6877TIP3    H242191   3.619   4.832   7.969  1.1964  0.1294  0.5014
 6878TIP3   OH242192   2.567   0.837   7.609  0.3663  0.2568 -0.8214
 6878TIP3    H142193   2.610   0.903   7.555  1.8985  0.2801  0.3499
 6878TIP3    H242194   2.491   0.882   7.647 -0.9711  0.1268 -3.1583
 6879TIP3   OH242195   3.990   1.201   6.947  0.1365  0.1584 -0.3188
 6879TIP3    H142196   3.910   1.249   6.925 -0.5654  1.6295  4.3199
 6879TIP3    H242197   3.962   1.110   6.952 -1.2817  0.6071  0.9115
 6880TIP3   OH242198   0.620   5.126   0.051  0.4626  0.1807  0.0281
 6880TIP3    H142199   0.598   5.037   0.025  0.0452 -0.0988  1.2453
 6880TIP3    H242200   0.536   5.166   0.075  0.1669  1.9932 -3.4831
 6881TIP3   OH242201   1.087   0.962   0.742 -0.1191  0.5008  0.0487
 6881TIP3    H142202   1.105   0.961   0.836  2.6065 -3.7783 -0.2421
 6881TIP3    H242203   1.171   0.986   0.702 -0.6469  0.1469 -1.3305
 6882TIP3   OH242204   0.490   6.184   0.303  0.2913  0.3313  0.3817
 6882TIP3    H142205   0.422   6.245   0.332 -0.7457  0.0794 -1.3829
 6882TIP3    H242206   0.573   6.229   0.323 -0.4070  1.1041  1.6041
 6883TIP3   OH242207   1.428   3.914   7.192 -0.1596  0.2928 -0.0990
 6883TIP3    H142208   1.452   3.927   7.100 -2.6847 -1.3456 -1.0902
 6883TIP3    H242209   1.453   3.824   7.211  2.8534  1.3744  1.7981
 6884TIP3   OH242210   6.772   2.460   1.246 -0.6421  0.0202  0.4006
 6884TIP3    H142211   6.845   2.439   1.189  2.0355 -1.4422  3.9724
 6884TIP3    H242212   6.777   2.555   1.257  0.9079 -0.0702  0.7175
 6885TIP3   OH242213   1.977   6.718   6.844  0.9320 -0.0598  0.2588
 6885TIP3    H142214   1.928   6.796   6.818 -0.9765 -1.7885 -1.6682
 6885TIP3    H242215   2.047   6.711   6.779 -0.7586 -1.5718 -1.4832
 6886TIP3   OH242216   6.448   5.840   0.934  0.5200 -0.5911 -0.3365
 6886TIP3    H142217   6.367   5.808   0.974  1.0372 -0.4975  0.8281
 6886TIP3    H242218   6.463   5.781   0.859  0.2912 -1.7076  0.4715
 6887TIP3   OH242219   6.278   3.787   1.751  0.1168 -0.1793 -0.6163
 6887TIP3    H142220   6.335   3.813   1.824  0.1617 -1.0728 -0.3204
 6887TIP3    H242221   6.290   3.856   1.685  0.7355  0.1891 -0.1267
 6888TIP3   OH242222   4.647   0.062   7.147  0.4958 -0.0601  0.3547
 6888TIP3    H142223   4.728   0.112   7.137  0.5097 -0.1761 -0.1052
 6888TIP3    H242224   4.594   0.085   7.071 -0.3169  0.7714  1.1423
 6889TIP3   OH242225   4.330   0.960   1.331  0.4614 -0.6134  0.1500
 6889TIP3    H142226   4.267   0.951   1.259 -1.3530 -0.5307  1.6435
 6889TIP3    H242227   4.303   1.040   1.376  2.1638 -0.1341  0.3715
 6890TIP3   OH242228   0.242   3.644   7.572 -0.5903  0.4315 -0.1531
 6890TIP3    H142229   0.216   3.686   7.654  0.7574  2.0143 -0.4661
 6890TIP3    H242230   0.312   3.584   7.598 -1.3415 -0.3491  0.0749
 6891TIP3   OH242231   0.576   6.541   1.740 -0.6923  0.6070  0.3204
 6891TIP3    H142232   0.527   6.618   1.710  0.4472  0.7705 -1.2259
 6891TIP3    H242233   0.660   6.547   1.696  0.1996 -0.4515  1.7905
 6892TIP3   OH242234   4.429   1.353   6.995  0.2804  0.0556  0.0960
 6892TIP3    H142235   4.501   1.392   7.046  0.6237  0.2170 -0.5025
 6892TIP3    H242236   4.462   1.267   6.969 -0.2668 -0.4286  0.9461
 6893TIP3   OH242237   2.290   0.717   1.821 -0.1092 -0.0970  0.0385
 6893TIP3    H142238   2.339   0.644   1.782  1.5790 -0.6811  2.9850
 6893TIP3    H242239   2.327   0.795   1.781 -0.1767 -0.7166 -1.2976
 6894TIP3   OH242240   3.137   1.872   1.755  0.3032 -0.6026 -0.2030
 6894TIP3    H142241   3.208   1.921   1.797  0.7428 -0.5412 -0.9996
 6894TIP3    H242242   3.093   1.937   1.701  0.2809 -0.8733 -0.5095
 6895TIP3   OH242243   1.178   1.424   2.359  0.0717  0.0190 -0.1930
 6895TIP3    H142244   1.190   1.329   2.359  0.7127  0.0896  0.6140
 6895TIP3    H242245   1.264   1.459   2.334  0.1159  0.4056  0.4833
 6896TIP3   OH242246   0.500   4.647   0.419 -0.1628  0.3336 -0.6667
 6896TIP3    H142247   0.432   4.699   0.463 -0.8175  0.7541 -2.1391
 6896TIP3    H242248   0.566   4.711   0.393  1.7144 -0.2259  2.1574
 6897TIP3   OH242249   5.376   2.178   0.716  0.2567 -0.0743 -0.0818
 6897TIP3    H142250   5.304   2.190   0.777 -0.2395 -0.4127 -0.5924
 6897TIP3    H242251   5.423   2.261   0.718 -0.7370  0.5188 -0.4903
 6898TIP3   OH242252   2.050   4.960   0.496  0.4452  0.2656  0.0380
 6898TIP3    H142253   2.005   5.029   0.447 -1.2622  0.6181  1.9790
 6898TIP3    H242254   2.128   4.941   0.444 -0.1761  2.0835 -1.6878
 6899TIP3   OH242255   2.174   2.615   0.884 -0.2181  0.5066  0.4611
 6899TIP3    H142256   2.128   2.582   0.961 -0.2572 -0.4340  0.0458
 6899TIP3    H242257   2.190   2.707   0.904 -1.4275  0.6173  1.0229
 6900TIP3   OH242258   5.412   1.834   1.701 -0.6612  0.5098  0.3347
 6900TIP3    H142259   5.327   1.839   1.657  0.0865  0.8594 -1.1768
 6900TIP3    H242260   5.409   1.753   1.751 -1.5253  0.0082 -0.4920
 6901TIP3   OH242261   0.308   4.150   8.091  0.2524 -0.4824  0.4686
 6901TIP3    H142262   0.355   4.066   8.097 -1.1699 -1.3070  0.4404
 6901TIP3    H242263   0.271   4.150   8.003  3.4217  1.9773 -1.0764
 6902TIP3   OH242264   4.005   5.962   7.921 -0.1446 -0.3889  0.1063
 6902TIP3    H142265   4.037   5.980   7.833  0.7351  0.0861  0.5108
 6902TIP3    H242266   3.917   5.928   7.908 -0.3196  0.4167 -0.9149
 6903TIP3   OH242267   4.288   3.005   7.827 -0.1142 -0.0362 -0.5224
 6903TIP3    H142268   4.289   3.088   7.779  1.9555 -0.4045 -1.2007
 6903TIP3    H242269   4.299   2.938   7.759 -2.3968 -0.9655 -0.0680
 6904TIP3   OH242270   1.138   3.161   2.598  0.3345  0.7522  0.0472
 6904TIP3    H142271   1.071   3.228   2.614  0.2273  1.1084 -1.7285
 6904TIP3    H242272   1.098   3.080   2.629 -0.4183  1.1514  0.1555
 6905TIP3   OH242273   2.813   3.493   8.149  0.0733 -0.1179  0.4672
 6905TIP3    H142274   2.882   3.524   8.091  0.4791  0.9924  1.5074
 6905TIP3    H242275   2.857   3.437   8.212 -0.2350 -0.6789  0.1893
 6906TIP3   OH242276   2.726   6.579   7.389 -0.2048  0.0219  0.1379
 6906TIP3    H142277   2.661   6.509   7.374  0.6846 -0.6529 -0.7207
 6906TIP3    H242278   2.756   6.565   7.479 -1.0730  0.1928  0.4610
 6907TIP3   OH242279   0.963   1.387   8.112 -0.5999  0.5466 -0.3715
 6907TIP3    H142280   0.939   1.357   8.199  3.0620  0.2346  0.6858
 6907TIP3    H242281   0.981   1.480   8.122  0.9333  0.2816 -0.4917
 6908TIP3   OH242282   3.684   6.840   1.617 -0.3196 -1.0665 -0.4514
 6908TIP3    H142283   3.753   6.839   1.550 -2.1984 -0.7607 -2.5348
 6908TIP3    H242284   3.620   6.904   1.584 -0.3568  0.7890  2.8012
 6909TIP3   OH242285   2.618   0.775   1.650 -0.5400  0.3841  0.1625
 6909TIP3    H142286   2.557   0.847   1.633 -1.1246 -0.3557 -0.9209
 6909TIP3    H242287   2.703   0.809   1.621 -0.1159  1.8552  2.7453
 6910TIP3   OH242288   0.719   1.196   1.906  0.5106 -0.1614 -0.2530
 6910TIP3    H142289   0.693   1.265   1.967 -0.4885 -1.3491  0.7437
 6910TIP3    H242290   0.746   1.242   1.827  1.0826  1.4056  0.8005
 6911TIP3   OH242291   2.218   0.395   0.967  0.1581 -0.0784 -0.3071
 6911TIP3    H142292   2.187   0.465   1.025  0.7307  1.0073 -1.2769
 6911TIP3    H242293   2.152   0.326   0.976 -1.0005  1.0072 -0.1343
 6912TIP3   OH242294   6.777   1.285   6.031 -0.2617  0.0215  0.5830
 6912TIP3    H142295   6.864   1.286   6.071  0.3898  0.8273 -0.7841
 6912TIP3    H242296   6.762   1.375   6.003 -0.7461 -0.4688 -0.8194
 6913TIP3   OH242297   5.983   3.286   0.615 -0.1582 -0.4651  0.3565
 6913TIP3    H142298   5.906   3.297   0.671 -0.5927 -1.3562 -0.0404
 6913TIP3    H242299   6.055   3.270   0.676 -0.2112  0.6828  0.7486
 6914TIP3   OH242300   5.337   1.829   2.137  0.4636 -0.2014  0.1363
 6914TIP3    H142301   5.312   1.771   2.065 -1.8358 -0.5354  1.1086
 6914TIP3    H242302   5.268   1.817   2.202  1.0507  2.0548  1.2718
 6915TIP3   OH242303   5.552   4.853   8.346 -0.5463  0.3001 -0.4084
 6915TIP3    H142304   5.575   4.813   8.263  0.1924 -2.2546  0.9190
 6915TIP3    H242305   5.629   4.903   8.372  1.0598 -2.5497  0.7382
 6916TIP3   OH242306   0.082   5.753   7.411 -0.3930  0.4114  0.1260
 6916TIP3    H142307   0.115   5.842   7.401  1.1506  0.3296  3.2772
 6916TIP3    H242308  -0.009   5.764   7.438 -0.0816  1.0857  0.9459
 6917TIP3   OH242309   4.161   3.333   2.157 -0.1418 -0.2484  0.1895
 6917TIP3    H142310   4.162   3.379   2.241  0.5781  1.4179 -0.6674
 6917TIP3    H242311   4.117   3.250   2.175 -1.9917  0.9781  1.7342
 6918TIP3   OH242312   3.968   6.335   0.161 -0.1854 -0.0007 -0.0762
 6918TIP3    H142313   3.977   6.428   0.142 -2.0660  0.1056 -0.5955
 6918TIP3    H242314   3.891   6.328   0.216  0.0105 -1.2468  0.0785
 6919TIP3   OH242315   0.780   0.618   0.506  0.5396  0.2257  0.2439
 6919TIP3    H142316   0.860   0.666   0.526  1.2161  0.4910 -2.6338
 6919TIP3    H242317   0.709   0.675   0.537  1.3761  2.3232 -1.4885
 6920TIP3   OH242318   0.964   6.031   7.367 -0.1871 -0.4899  0.2101
 6920TIP3    H142319   0.999   6.117   7.347  1.4019 -1.3348 -0.8399
 6920TIP3    H242320   0.871   6.047   7.385 -0.0083  1.3824 -0.2951
 6921TIP3   OH242321   3.155   3.686   6.825  0.3679  0.0479  0.0840
 6921TIP3    H142322   3.121   3.692   6.736  0.7757 -1.4061 -0.1979
 6921TIP3    H242323   3.080   3.656   6.877  0.7011 -1.4271 -0.2247
 6922TIP3   OH242324   5.383   0.802   7.081 -0.9077 -0.3322  0.2065
 6922TIP3    H142325   5.438   0.815   7.004 -0.9098  1.7174  0.4967
 6922TIP3    H242326   5.438   0.753   7.142 -0.0116  0.1839 -0.1666
 6923TIP3   OH242327   2.879   5.899   0.654 -0.0686 -0.1037  0.0202
 6923TIP3    H142328   2.885   5.995   0.652  1.4040 -0.1793 -0.0983
 6923TIP3    H242329   2.814   5.881   0.722 -0.7175  0.9810 -0.2750
 6924TIP3   OH242330   4.144   0.839   0.405 -0.0146 -0.0408  0.1536
 6924TIP3    H142331   4.093   0.811   0.482 -0.7487 -0.1979 -0.3753
 6924TIP3    H242332   4.231   0.801   0.420 -0.1500 -0.0937  0.8925
 6925TIP3   OH242333   5.416   5.760   8.253 -0.0285 -0.0498  0.3363
 6925TIP3    H142334   5.346   5.735   8.193 -0.8617  0.6176  1.0164
 6925TIP3    H242335   5.445   5.677   8.292 -0.4322 -0.3276  0.0542
 6926TIP3   OH242336   3.429   5.931   8.248  0.1120  0.3763 -0.7193
 6926TIP3    H142337   3.519   5.923   8.217  0.1650  0.2645 -0.5370
 6926TIP3    H242338   3.385   5.984   8.182  0.0825 -0.3278 -1.2759
 6927TIP3   OH242339   0.629   1.450   7.968 -0.9656 -0.6554 -0.3240
 6927TIP3    H142340   0.552   1.444   8.025 -0.3853  0.4069  0.6126
 6927TIP3    H242341   0.597   1.493   7.888 -1.1764  0.6713  0.4425
 6928TIP3   OH242342   0.154   3.454   6.941  0.6066 -0.0114  0.0288
 6928TIP3    H142343   0.129   3.400   6.866  2.9545 -1.0142 -0.1083
 6928TIP3    H242344   0.129   3.401   7.017 -0.3858  0.3471 -0.0250
 6929TIP3   OH242345   7.002   3.957   2.332  0.1046 -0.1829 -0.0185
 6929TIP3    H142346   7.029   3.870   2.305 -1.9082 -0.8648 -0.0682
 6929TIP3    H242347   6.973   4.000   2.252  0.6539  0.3616  0.0712
 6930TIP3   OH242348   4.991   6.158   1.909  0.3356 -0.5573 -0.4495
 6930TIP3    H142349   4.920   6.114   1.862 -0.1860  0.3338 -0.5115
 6930TIP3    H242350   5.061   6.168   1.844  0.1872 -0.6650 -0.6259
 6931TIP3   OH242351   3.407   4.214   6.582 -0.3639  0.0102  0.1817
 6931TIP3    H142352   3.445   4.192   6.496  0.9614 -0.3841  0.8453
 6931TIP3    H242353   3.323   4.168   6.582 -0.2106 -0.3071 -0.7535
 6932TIP3   OH242354   3.126   6.941   7.186  0.5818  0.0679 -0.2125
 6932TIP3    H142355   3.107   6.968   7.096 -0.6635  0.3712  0.1291
 6932TIP3    H242356   3.150   6.848   7.178 -1.9879 -0.6491 -0.6200
 6933TIP3   OH242357   2.616   6.664   6.815 -0.8254  0.0417  0.5747
 6933TIP3    H142358   2.691   6.716   6.786  1.3649 -1.5081  3.0017
 6933TIP3    H242359   2.572   6.719   6.879 -0.4401  0.1572  0.7437
 6934TIP3   OH242360   0.576   0.027   0.512 -0.8014  0.0876  0.0792
 6934TIP3    H142361   0.671   0.036   0.519 -0.7134 -0.2603 -0.6067
 6934TIP3    H242362   0.542   0.079   0.585 -0.0252 -1.6428  1.7616
 6935TIP3   OH242363   0.990   4.876   0.104 -0.1817 -0.1717 -0.2662
 6935TIP3    H142364   0.935   4.953   0.116  0.0916  0.0482 -0.4180
 6935TIP3    H242365   0.953   4.810   0.163  0.3964  0.5059  0.8749
 6936TIP3   OH242366   0.161   2.423   7.962 -0.7374 -0.4667  0.4702
 6936TIP3    H142367   0.185   2.339   8.001  0.6903 -0.0712  0.4971
 6936TIP3    H242368   0.131   2.476   8.036 -0.4178 -0.5362  0.6517
 6937TIP3   OH242369   5.036   6.425   8.147 -0.0126 -0.3997  0.5454
 6937TIP3    H142370   5.031   6.436   8.052  2.5875 -0.1357  0.3805
 6937TIP3    H242371   4.951   6.386   8.171 -0.5205 -0.9885 -1.9446
 6938TIP3   OH242372   0.287   2.563   2.424 -0.4577  0.3435  0.0873
 6938TIP3    H142373   0.222   2.599   2.363  0.7764  0.4286 -1.2244
 6938TIP3    H242374   0.270   2.469   2.423  2.3620 -0.4006 -4.0925
 6939TIP3   OH242375   0.456   4.876   0.084  0.0057  0.3522  0.2569
 6939TIP3    H142376   0.394   4.847   0.151 -1.3771  0.4752 -0.9334
 6939TIP3    H242377   0.410   4.863   0.001  2.2615 -1.3358 -0.8395
 6940TIP3   OH242378   6.718   0.994   6.672  0.6748  0.0523  0.4746
 6940TIP3    H142379   6.628   0.968   6.688  1.5030 -1.9628  2.2187
 6940TIP3    H242380   6.756   1.007   6.759  2.2469  0.1702 -0.1918
 6941TIP3   OH242381   6.002   1.236   0.427  0.7421 -0.1423  0.7105
 6941TIP3    H142382   6.016   1.270   0.338  2.5288 -0.9492  0.6386
 6941TIP3    H242383   6.034   1.304   0.485  0.0021  0.1930  0.7363
 6942TIP3   OH242384   5.587   6.329   2.727 -0.1865  0.5379 -0.3959
 6942TIP3    H142385   5.509   6.377   2.756  1.4311  1.4258  3.0130
 6942TIP3    H242386   5.660   6.389   2.743  1.2642  0.3093 -4.8577
 6943TIP3   OH242387   2.474   1.921   8.128  0.0176 -0.5705  0.1751
 6943TIP3    H142388   2.486   1.866   8.206 -1.2647 -0.7276  0.2680
 6943TIP3    H242389   2.383   1.948   8.131  0.1895  0.1716 -0.8026
 6944TIP3   OH242390   2.426   4.119   7.364  0.1688 -0.4252 -0.3631
 6944TIP3    H142391   2.423   4.024   7.352  0.6002 -0.3756 -0.9627
 6944TIP3    H242392   2.508   4.145   7.322 -1.5358  0.6334 -3.3232
 6945TIP3   OH242393   6.882   3.480   7.773  0.0592 -0.3776 -0.6114
 6945TIP3    H142394   6.860   3.565   7.809  1.9452 -1.1928  2.9012
 6945TIP3    H242395   6.798   3.435   7.764 -0.6803  0.5566  1.2153
 6946TIP3   OH242396   1.243   3.533   7.227 -0.7711 -0.0715  0.2087
 6946TIP3    H142397   1.149   3.543   7.247 -1.0568 -0.6444 -0.7748
 6946TIP3    H242398   1.272   3.462   7.283 -1.3621 -1.0985 -0.7498
 6947TIP3   OH242399   2.564   5.501   1.880  0.7172  0.8161  0.2719
 6947TIP3    H142400   2.615   5.437   1.931 -0.3116 -0.6809 -0.4951
 6947TIP3    H242401   2.629   5.556   1.837  1.6622 -0.2225  0.3442
 6948TIP3   OH242402   6.439   3.458   8.182 -0.3046 -0.0758 -0.4422
 6948TIP3    H142403   6.389   3.428   8.106  1.1312 -1.8268 -0.7756
 6948TIP3    H242404   6.380   3.443   8.256 -0.9775 -0.2752 -1.0034
 6949TIP3   OH242405   3.138   4.978   0.641  0.9890  0.1397 -0.2216
 6949TIP3    H142406   3.206   4.922   0.604  0.3352 -1.2224  0.5830
 6949TIP3    H242407   3.138   4.958   0.735 -0.4430  0.1839 -0.1895
 6950TIP3   OH242408   0.082   3.756   1.541 -0.4970 -0.2508 -0.7389
 6950TIP3    H142409   0.159   3.710   1.574  0.0354  1.4889  0.5948
 6950TIP3    H242410   0.079   3.734   1.448  1.6376 -0.3503 -0.8342
 6951TIP3   OH242411   3.736   2.616   0.981  0.4303 -0.0210  0.0529
 6951TIP3    H142412   3.737   2.521   0.983  1.1210 -0.0067  1.9450
 6951TIP3    H242413   3.788   2.639   0.904  0.9119 -1.1520  0.0320
 6952TIP3   OH242414   2.500   4.818   0.735  0.3722  0.0843 -0.3157
 6952TIP3    H142415   2.552   4.897   0.754  1.0436 -0.6525  1.1188
 6952TIP3    H242416   2.525   4.794   0.646  1.7794  0.3142 -0.0086
 6953TIP3   OH242417   4.918   4.071   2.375 -0.0036  0.0558 -0.3623
 6953TIP3    H142418   4.928   4.165   2.360  0.1289 -0.0459 -0.9693
 6953TIP3    H242419   4.844   4.064   2.435 -0.3558  0.5264 -0.7325
 6954TIP3   OH242420   5.197   3.319   7.851 -0.6808 -0.4878  0.1286
 6954TIP3    H142421   5.115   3.279   7.878 -0.4584 -0.6300  0.5940
 6954TIP3    H242422   5.219   3.275   7.769 -2.2797  1.1934 -1.2949
 6955TIP3   OH242423   0.900   3.768   0.057  0.4834 -0.2025 -0.1097
 6955TIP3    H142424   0.881   3.855   0.021  1.5744 -0.0877 -0.4350
 6955TIP3    H242425   0.961   3.729  -0.005 -1.6378 -2.1078 -1.1623
 6956TIP3   OH242426   1.255   1.732   1.205  0.3163 -0.4606  0.1564
 6956TIP3    H142427   1.296   1.646   1.212  0.0967 -0.5259  0.7901
 6956TIP3    H242428   1.162   1.713   1.194  0.4463 -0.3174 -1.3706
 6957TIP3   OH242429   6.010   5.276   0.533  0.0204 -0.2384 -0.1172
 6957TIP3    H142430   6.003   5.182   0.549  1.7324 -0.3198  0.3472
 6957TIP3    H242431   6.009   5.284   0.437 -3.2627 -0.3792 -0.2245
 6958TIP3   OH242432   4.103   5.784   7.404 -0.6015 -0.1825 -0.1919
 6958TIP3    H142433   4.089   5.829   7.320  1.8880 -1.7222 -1.5358
 6958TIP3    H242434   4.196   5.765   7.406 -1.0692 -2.8259  1.5827
 6959TIP3   OH242435   2.837   1.943   6.638 -0.4612  0.0925  0.7138
 6959TIP3    H142436   2.832   1.857   6.596 -1.1295 -0.3436  1.6628
 6959TIP3    H242437   2.905   1.933   6.705  0.8474  0.8860 -0.4437
 6960TIP3   OH242438   2.909   2.718   7.278  0.5106 -0.0111 -0.1979
 6960TIP3    H142439   2.879   2.759   7.197  1.4742  1.3127  0.0841
 6960TIP3    H242440   2.876   2.774   7.348 -0.0513 -0.9717  0.3330
 6961TIP3   OH242441   3.320   4.322   1.859  0.2501  0.0262  0.0392
 6961TIP3    H142442   3.400   4.305   1.809  0.0885 -0.6088 -0.0221
 6961TIP3    H242443   3.351   4.332   1.949  0.2630 -2.0472  0.3296
 6962TIP3   OH242444   1.338   2.435   0.957 -0.2223  0.3055  0.0790
 6962TIP3    H142445   1.285   2.485   1.018  0.8832 -0.9426  2.1664
 6962TIP3    H242446   1.311   2.344   0.971  1.1138 -0.1489 -0.1852
 6963TIP3   OH242447   5.767   1.043   0.218 -0.0270 -0.1745  0.2815
 6963TIP3    H142448   5.754   1.095   0.297  0.2758  0.9662 -0.3917
 6963TIP3    H242449   5.856   1.009   0.226  0.1036  0.1671  0.3140
 6964TIP3   OH242450   4.997   6.742   6.808 -0.3424  0.1645  0.0976
 6964TIP3    H142451   5.091   6.735   6.825 -0.3456  1.9822  1.1379
 6964TIP3    H242452   4.962   6.655   6.829  1.0137 -0.3419  0.3385
 6965TIP3   OH242453   1.940   4.893   8.337 -0.1888 -0.3263 -0.4124
 6965TIP3    H142454   1.923   4.881   8.430 -1.1347 -2.4414 -0.8175
 6965TIP3    H242455   1.862   4.936   8.303 -0.3172 -0.5669 -0.4221
 6966TIP3   OH242456   4.678   6.442   0.527  0.2327 -0.3664  0.3428
 6966TIP3    H142457   4.679   6.484   0.613 -2.3827 -1.5532  1.0580
 6966TIP3    H242458   4.672   6.348   0.545  0.0893 -0.6795 -1.1509
 6967TIP3   OH242459   5.300   0.788   1.166  0.1424  0.3030  0.1593
 6967TIP3    H142460   5.224   0.764   1.113  0.4439  0.8093 -0.5195
 6967TIP3    H242461   5.282   0.750   1.252  0.3751 -1.9292 -0.7188
 6968TIP3   OH242462   1.294   4.069   8.192  0.4505  0.0355  0.4073
 6968TIP3    H142463   1.376   4.119   8.196  0.0971  0.5673  1.2247
 6968TIP3    H242464   1.255   4.096   8.109  2.6483 -2.7512 -1.7305
 6969TIP3   OH242465   4.814   5.366   1.138 -0.3871 -0.0860 -0.4153
 6969TIP3    H142466   4.884   5.407   1.087 -0.1194 -0.4560 -0.3501
 6969TIP3    H242467   4.738   5.371   1.081 -0.4014  0.6335 -0.3506
 6970TIP3   OH242468   6.517   2.921   2.826 -0.0736 -0.0652  0.1827
 6970TIP3    H142469   6.575   2.861   2.780 -1.1182 -0.3547 -0.8154
 6970TIP3    H242470   6.440   2.868   2.847 -0.8269  0.7915 -0.3195
 6971TIP3   OH242471   6.043   5.766   2.059 -0.1516  0.0679  0.2747
 6971TIP3    H142472   6.078   5.787   2.145 -1.7967  0.9302  0.7893
 6971TIP3    H242473   6.049   5.848   2.010  0.7088 -0.3989 -0.4286
 6972TIP3   OH242474   2.052   2.790   1.948 -0.4621 -0.6016  0.1082
 6972TIP3    H142475   2.040   2.762   1.857  2.8341  2.1362 -1.3983
 6972TIP3    H242476   2.037   2.884   1.946  1.3753 -0.2043  1.9961
 6973TIP3   OH242477   5.007   6.107   0.718 -0.5382 -0.1617  0.1041
 6973TIP3    H142478   4.985   6.018   0.689  1.5186 -1.0484  0.9789
 6973TIP3    H242479   5.061   6.093   0.797  0.7999  1.8090 -0.3859
 6974TIP3   OH242480   1.849   5.785   2.114  0.1404 -0.3374 -0.2179
 6974TIP3    H142481   1.876   5.829   2.194 -1.5405  0.2450  0.0829
 6974TIP3    H242482   1.871   5.693   2.127 -1.1234 -0.4654  1.4321
 6975TIP3   OH242483   1.900   4.173   1.958 -0.8699 -0.1368 -0.3748
 6975TIP3    H142484   1.879   4.118   1.883 -0.2605  1.1451 -1.5237
 6975TIP3    H242485   1.994   4.190   1.950 -0.8107  0.0678  0.6428
 6976TIP3   OH242486   6.983   6.830   1.616 -0.4251  0.6865 -0.1776
 6976TIP3    H142487   6.925   6.880   1.560 -1.4335  0.2404  0.4456
 6976TIP3    H242488   6.977   6.873   1.702 -0.3343  0.2478  0.0531
 6977TIP3   OH242489   2.487   5.073   7.064 -0.1915  0.3053 -0.1823
 6977TIP3    H142490   2.474   4.998   7.007  1.6647  2.0352 -3.1075
 6977TIP3    H242491   2.572   5.057   7.106  0.4193  0.9113 -1.1501
 6978TIP3   OH242492   1.615   0.998   2.177 -0.0921 -0.2411  0.3485
 6978TIP3    H142493   1.645   1.088   2.182 -0.5150 -0.0534 -0.3624
 6978TIP3    H242494   1.694   0.946   2.194  0.5311  0.2504 -0.8784
 6979TIP3   OH242495   3.817   5.611   1.236  0.2496  0.0583  0.6808
 6979TIP3    H142496   3.819   5.629   1.330 -0.5034 -0.6600  0.8463
 6979TIP3    H242497   3.760   5.679   1.200  0.5177  0.3185  0.7471
 6980TIP3   OH242498   4.100   1.529   7.073  0.0905 -0.0793  0.6164
 6980TIP3    H142499   4.082   1.579   7.152 -0.3700  0.8722 -0.0718
 6980TIP3    H242500   4.053   1.576   7.003  2.3772  0.4749 -0.6425
 6981TIP3   OH242501   2.067   1.101   7.501  0.6837 -0.1551  0.0248
 6981TIP3    H142502   2.061   1.155   7.580 -1.5190 -0.6032  0.2379
 6981TIP3    H242503   1.987   1.049   7.502  0.2721  0.2635 -2.8348
 6982TIP3   OH242504   2.932   4.618   1.512  0.7587  0.2907 -0.2167
 6982TIP3    H142505   2.864   4.561   1.477  0.5631 -0.0706  0.7320
 6982TIP3    H242506   3.004   4.559   1.535  0.7015  0.4677  0.4260
 6983TIP3   OH242507   2.858   3.891   2.569  0.2159  0.6033  0.0239
 6983TIP3    H142508   2.826   3.978   2.544  0.0421  0.9376  1.2947
 6983TIP3    H242509   2.919   3.866   2.499  0.2425  1.7363 -0.3807
 6984TIP3   OH242510   0.283   6.457   7.444  0.2598  0.0617  0.1017
 6984TIP3    H142511   0.262   6.444   7.536  1.3166  1.1892  0.5183
 6984TIP3    H242512   0.221   6.401   7.397 -2.0006  1.3787  1.3706
 6985TIP3   OH242513   1.994   4.002   1.684  0.2759 -0.2399  0.2370
 6985TIP3    H142514   1.935   3.943   1.731  1.0006 -1.6167 -0.5302
 6985TIP3    H242515   2.055   3.944   1.639  1.4320  1.1268 -0.0169
 6986TIP3   OH242516   5.692   4.560   0.497  0.4880  0.4665  0.4205
 6986TIP3    H142517   5.670   4.472   0.466  1.3805 -0.0061  1.0858
 6986TIP3    H242518   5.728   4.604   0.420 -0.6043  0.4909 -0.0906
 6987TIP3   OH242519   1.453   5.440   6.767 -0.4609 -0.2756 -0.3150
 6987TIP3    H142520   1.440   5.505   6.836  0.3583 -0.2280 -0.1938
 6987TIP3    H242521   1.384   5.458   6.703  0.1377  1.1487 -0.6032
 6988TIP3   OH242522   1.666   5.555   1.416  0.3223  0.0595  0.1246
 6988TIP3    H142523   1.728   5.552   1.489  2.5729 -1.1101 -1.6950
 6988TIP3    H242524   1.622   5.470   1.418  1.3522 -0.5168 -0.5991
 6989TIP3   OH242525   3.198   4.829   0.863  0.0760 -0.1137 -0.2598
 6989TIP3    H142526   3.163   4.802   0.948  1.7964  0.5980  0.7180
 6989TIP3    H242527   3.276   4.880   0.884 -0.0328  0.9589 -2.2456
 6990TIP3   OH242528   5.780   3.488   0.226 -0.1464 -0.0183  0.0915
 6990TIP3    H142529   5.823   3.419   0.275 -0.9868 -1.5406 -1.2068
 6990TIP3    H242530   5.846   3.557   0.218  1.4850 -1.5761 -0.4238
 6991TIP3   OH242531   2.376   2.547   7.563 -0.5361 -0.2916 -0.1312
 6991TIP3    H142532   2.390   2.475   7.625  0.4593 -0.0282 -0.0451
 6991TIP3    H242533   2.314   2.605   7.608 -0.2510 -0.3851  0.3920
 6992TIP3   OH242534   0.849   6.998   0.604 -0.1549  0.4019  0.2454
 6992TIP3    H142535   0.843   7.056   0.680 -1.2758  1.0290 -0.3177
 6992TIP3    H242536   0.941   7.003   0.578  0.1770  0.4239  1.3628
 6993TIP3   OH242537   2.773   4.684   0.819 -0.0252  0.5890 -0.0457
 6993TIP3    H142538   2.728   4.760   0.858 -2.0886 -1.0959  1.1037
 6993TIP3    H242539   2.803   4.633   0.894 -0.9633 -0.9805 -0.6839
 6994TIP3   OH242540   1.787   3.661   0.569 -0.2023 -0.0055 -0.0923
 6994TIP3    H142541   1.753   3.673   0.480 -2.1140 -1.3448  0.3943
 6994TIP3    H242542   1.870   3.614   0.558 -0.4368 -0.1789 -1.1688
 6995TIP3   OH242543   0.298   1.064   8.231  0.0818 -0.4481 -0.3724
 6995TIP3    H142544   0.327   0.998   8.295 -0.3335 -1.3575 -1.0917
 6995TIP3    H242545   0.361   1.055   8.159  0.6308  0.6671 -0.0471
 6996TIP3   OH242546   0.757   6.913   8.142 -0.1533 -0.2207  0.0363
 6996TIP3    H142547   0.686   6.948   8.088 -1.3676 -1.2669  0.9093
 6996TIP3    H242548   0.790   6.989   8.190  0.8551  0.7057 -1.9927
 6997TIP3   OH242549   3.823   6.704   0.602  0.6634 -0.1950 -0.3910
 6997TIP3    H142550   3.835   6.712   0.696  1.0499 -1.3824 -0.3195
 6997TIP3    H242551   3.907   6.732   0.565 -0.5249  3.6114 -0.6433
 6998TIP3   OH242552   6.452   2.029   0.357  0.0880 -0.0709  0.0846
 6998TIP3    H142553   6.464   1.960   0.422  0.0777 -1.2785 -1.1475
 6998TIP3    H242554   6.538   2.040   0.317 -0.4501 -1.2537 -1.5042
 6999TIP3   OH242555   3.656   0.162   6.386 -0.4634 -0.2798 -0.5749
 6999TIP3    H142556   3.576   0.109   6.379 -0.6525 -0.0499 -0.2108
 6999TIP3    H242557   3.701   0.148   6.303 -0.0816 -1.6972 -0.1699
 7000TIP3   OH242558   5.232   6.534   6.654  0.6516 -0.4571 -0.1124
 7000TIP3    H142559   5.269   6.446   6.661 -0.0283 -0.7464 -0.0106
 7000TIP3    H242560   5.140   6.519   6.632  0.5488  0.2327 -0.1720
 7001TIP3   OH242561   5.102   1.789   7.594 -0.1064  0.3110 -0.1901
 7001TIP3    H142562   5.126   1.875   7.561 -0.4247  0.4482 -0.0653
 7001TIP3    H242563   5.007   1.791   7.600 -0.0929  0.0618  0.1275
 7002TIP3   OH242564   1.400   1.273   0.479 -0.0553 -0.0984  0.6563
 7002TIP3    H142565   1.384   1.322   0.399 -0.9361  0.3215  1.0820
 7002TIP3    H242566   1.467   1.209   0.454 -1.4215 -1.0295 -0.8333
 7003TIP3   OH242567   3.416   6.634   7.669 -0.2576 -0.0008  0.0142
 7003TIP3    H142568   3.415   6.565   7.735  0.6066 -1.6721 -1.6383
 7003TIP3    H242569   3.342   6.615   7.612 -1.7380  2.1254  1.0776
 7004TIP3   OH242570   2.992   4.254   7.395 -0.3315 -0.2907  0.3064
 7004TIP3    H142571   3.028   4.324   7.341  2.3943 -0.8044  1.2695
 7004TIP3    H242572   2.958   4.299   7.473  0.7980  0.0564  0.6194
 7005TIP3   OH242573   0.235   2.721   7.792 -0.6230 -0.2548  0.2818
 7005TIP3    H142574   0.159   2.775   7.815  0.1595  0.5235  1.0901
 7005TIP3    H242575   0.294   2.729   7.866 -1.4209 -4.0745  1.5347
 7006TIP3   OH242576   0.203   2.643   2.173  0.5335  0.4427  0.1809
 7006TIP3    H142577   0.154   2.722   2.194 -1.1496 -0.2861 -0.8029
 7006TIP3    H242578   0.252   2.664   2.094 -0.9674  0.1462 -0.8767
 7007TIP3   OH242579   2.057   6.637   1.822 -0.0153  0.4353  0.1459
 7007TIP3    H142580   2.118   6.573   1.784 -0.0821 -0.2228  1.1275
 7007TIP3    H242581   2.041   6.606   1.911 -1.3041  0.9463  0.1149
 7008TIP3   OH242582   5.195   1.415   1.754 -0.4219  0.1944 -0.5320
 7008TIP3    H142583   5.215   1.327   1.784  0.2373  0.4448 -0.2121
 7008TIP3    H242584   5.105   1.430   1.782  0.5177  0.8542  2.4542
 7009TIP3   OH242585   6.679   0.696   1.247 -0.0469  0.3506 -0.1974
 7009TIP3    H142586   6.727   0.729   1.324  0.0811  0.9364 -0.5182
 7009TIP3    H242587   6.590   0.730   1.259 -0.3848 -0.6843  0.3662
 7010TIP3   OH242588   4.089   5.342   2.116 -0.2451  0.5147  0.8732
 7010TIP3    H142589   4.022   5.355   2.183 -0.1389  0.2143  1.0353
 7010TIP3    H242590   4.114   5.250   2.123 -0.0437  0.5451  0.5981
 7011TIP3   OH242591   2.111   2.312   1.594  0.1685  0.1196  0.5110
 7011TIP3    H142592   2.017   2.296   1.585  0.5491 -3.1884  1.0819
 7011TIP3    H242593   2.123   2.336   1.685 -0.0730 -0.0849  0.5989
 7012TIP3   OH242594   1.365   2.841   0.237  0.1288 -0.8020  0.3394
 7012TIP3    H142595   1.359   2.747   0.221 -0.2475 -0.7495  0.1390
 7012TIP3    H242596   1.446   2.868   0.195  0.5356 -1.1305  0.8922
 7013TIP3   OH242597   1.726   0.878   1.341  0.3945 -0.2827 -0.8800
 7013TIP3    H142598   1.670   0.814   1.384 -1.3243 -0.1097 -2.7079
 7013TIP3    H242599   1.755   0.834   1.261  1.1674  0.3934 -0.9849
 7014TIP3   OH242600   0.434   3.365   7.915  0.9058  0.4069  0.4330
 7014TIP3    H142601   0.417   3.427   7.844 -0.2375 -1.3347 -0.8954
 7014TIP3    H242602   0.505   3.310   7.882 -0.9397 -1.6679 -0.2859
 7015TIP3   OH242603   4.477   6.115   7.100  0.4458  0.0524  0.4539
 7015TIP3    H142604   4.423   6.099   7.177 -0.5973  0.3980 -0.1951
 7015TIP3    H242605   4.483   6.211   7.095  0.4718  0.0324  0.0759
 7016TIP3   OH242606   6.560   5.527   7.257  0.4882 -0.2252 -0.0982
 7016TIP3    H142607   6.562   5.617   7.225  0.5691 -0.1888  0.0075
 7016TIP3    H242608   6.538   5.474   7.181  1.4087 -0.2152 -0.3853
 7017TIP3   OH242609   6.483   4.837   7.233 -0.1663 -0.2415 -0.6657
 7017TIP3    H142610   6.510   4.754   7.272  0.1944 -0.0098 -0.4141
 7017TIP3    H242611   6.416   4.871   7.292 -1.3832 -1.0307 -1.5238
 7018TIP3   OH242612   2.146   0.707   0.451 -0.8840  0.1965 -0.4347
 7018TIP3    H142613   2.127   0.613   0.446  0.1612 -0.1146  0.8952
 7018TIP3    H242614   2.061   0.749   0.440 -1.2413 -0.8506 -1.9778
 7019TIP3   OH242615   4.969   4.418   7.968 -0.1289  0.4578 -0.2728
 7019TIP3    H142616   5.053   4.410   8.012  0.7325 -0.7854 -2.0182
 7019TIP3    H242617   4.907   4.373   8.026  0.4102  1.2595  0.9551
 7020TIP3   OH242618   5.471   2.822   2.503 -0.3924  0.1399  0.4544
 7020TIP3    H142619   5.479   2.733   2.540  0.2452  0.3808  0.9083
 7020TIP3    H242620   5.379   2.828   2.478 -0.3212 -0.8651 -0.1415
 7021TIP3   OH242621   4.906   1.596   1.553 -0.4420  0.2061  0.8129
 7021TIP3    H142622   4.903   1.648   1.473  1.5773  0.9702  1.1705
 7021TIP3    H242623   4.906   1.505   1.523 -0.3943  0.4688 -0.0147
 7022TIP3   OH242624   5.115   2.820   7.263  0.4137 -0.1104  0.2126
 7022TIP3    H142625   5.199   2.810   7.309  0.0717 -1.5111  0.5982
 7022TIP3    H242626   5.060   2.867   7.326  0.1894 -1.3294  0.9730
 7023TIP3   OH242627   4.132   5.176   0.355 -0.1693 -0.4392  0.1070
 7023TIP3    H142628   4.179   5.147   0.433  0.0083  0.2650  0.2671
 7023TIP3    H242629   4.041   5.185   0.383  0.0849  0.9289  0.5508
 7024TIP3   OH242630   6.668   4.197   2.146 -0.9002  0.0769 -0.0623
 7024TIP3    H142631   6.609   4.224   2.076  0.2390 -1.3448 -1.6578
 7024TIP3    H242632   6.741   4.154   2.101  0.0555 -0.5876  1.9825
 7025TIP3   OH242633   1.809   5.575   1.017  0.2833 -0.2564 -0.0893
 7025TIP3    H142634   1.894   5.559   0.977  0.4329  0.6514 -0.1627
 7025TIP3    H242635   1.829   5.612   1.103 -0.0136  0.8195 -0.4611
 7026TIP3   OH242636   1.991   4.960   1.258 -0.4215 -0.0605  0.0982
 7026TIP3    H142637   2.069   5.010   1.280 -0.2367 -0.6698  0.8557
 7026TIP3    H242638   2.005   4.933   1.167  1.9113 -3.0482  1.1642
 7027TIP3   OH242639   3.935   1.220   2.784 -0.5447 -0.2480 -0.3252
 7027TIP3    H142640   3.851   1.232   2.740 -0.1632 -0.0695 -1.0059
 7027TIP3    H242641   3.996   1.278   2.738 -0.1411 -0.0390  0.4445
 7028TIP3   OH242642   4.506   2.454   2.667  0.2742 -0.3015  0.1942
 7028TIP3    H142643   4.443   2.409   2.611  0.6253  1.2692 -1.5509
 7028TIP3    H242644   4.459   2.468   2.749 -1.3984  0.1699 -0.7920
 7029TIP3   OH242645   3.447   4.838   0.003 -0.3093  0.2935 -0.1167
 7029TIP3    H142646   3.397   4.815   0.082 -0.3823 -0.3342 -0.3405
 7029TIP3    H242647   3.520   4.776   0.002 -1.4603 -1.1123 -1.6585
 7030TIP3   OH242648   0.763   6.170   1.827 -0.2621  0.4985 -0.5506
 7030TIP3    H142649   0.683   6.121   1.805  0.1800  0.2857 -1.6896
 7030TIP3    H242650   0.812   6.110   1.883 -0.9135  0.6589  0.2292
 7031TIP3   OH242651   1.297   3.762   6.900  0.0658  0.5296 -0.4415
 7031TIP3    H142652   1.258   3.821   6.836  0.7725  2.8597  1.1554
 7031TIP3    H242653   1.250   3.780   6.981 -1.4772 -3.0383 -0.3498
 7032TIP3   OH242654   2.935   5.149   0.267 -0.1491  0.5495 -0.2156
 7032TIP3    H142655   3.015   5.171   0.315  0.3424 -0.9828 -0.2562
 7032TIP3    H242656   2.960   5.075   0.212 -2.1827 -1.7546  1.7186
 7033TIP3   OH242657   1.124   6.583   7.401 -0.1003  0.2451  0.0353
 7033TIP3    H142658   1.084   6.545   7.480  0.3837  1.1848  0.7466
 7033TIP3    H242659   1.059   6.645   7.369  0.4145  1.1472  0.7059
 7034TIP3   OH242660   6.003   2.841   2.352 -0.2890 -0.3436 -0.4886
 7034TIP3    H142661   5.961   2.909   2.299 -1.5298 -0.1262  0.7174
 7034TIP3    H242662   6.097   2.856   2.340 -0.5307 -0.1510 -2.3913
 7035TIP3   OH242663   0.607   1.804   7.859  0.1109 -0.3983  0.3059
 7035TIP3    H142664   0.594   1.894   7.828  2.5310  0.0114  0.2795
 7035TIP3    H242665   0.551   1.751   7.802 -1.6339  1.0716  0.5310
 7036TIP3   OH242666   4.774   1.959   6.642 -0.0776  0.5418 -0.1238
 7036TIP3    H142667   4.800   1.961   6.550 -1.6696 -1.4653 -0.6825
 7036TIP3    H242668   4.686   1.997   6.643 -0.1459  0.3808  0.5429
 7037TIP3   OH242669   0.814   2.291   1.538 -0.3343  0.1657 -0.0380
 7037TIP3    H142670   0.859   2.208   1.554 -0.9583 -0.2893 -0.5496
 7037TIP3    H242671   0.737   2.266   1.486 -0.2111  1.1366 -0.7110
 7038TIP3   OH242672   6.284   1.903   6.537 -0.4529  0.2965 -0.1883
 7038TIP3    H142673   6.373   1.867   6.542 -0.6143 -0.1762 -0.6184
 7038TIP3    H242674   6.233   1.847   6.596 -1.1674 -1.6445 -2.4849
 7039TIP3   OH242675   0.324   6.599   8.293 -0.4305  0.5868 -0.2113
 7039TIP3    H142676   0.417   6.596   8.316 -0.1435 -0.0698 -1.3602
 7039TIP3    H242677   0.303   6.510   8.267 -1.8939  0.3011  1.8137
 7040TIP3   OH242678   3.095   0.920   7.106 -0.0755  0.6517 -0.1835
 7040TIP3    H142679   3.048   0.946   7.026  2.1966 -0.2774 -1.9151
 7040TIP3    H242680   3.026   0.903   7.169 -2.0350  0.4984 -2.2278
 7041TIP3   OH242681   6.490   2.494   7.267 -0.4236 -0.0489 -0.4302
 7041TIP3    H142682   6.461   2.410   7.230  0.9324  0.0804 -1.9353
 7041TIP3    H242683   6.571   2.472   7.314 -0.0916  0.3868 -0.7889
 7042TIP3   OH242684   0.008   1.159   1.371  0.3624  0.1621  0.3902
 7042TIP3    H142685   0.053   1.153   1.287  0.6649  2.0941  0.3615
 7042TIP3    H242686   0.062   1.107   1.431  1.8628  1.1952  0.0170
 7043TIP3   OH242687   5.636   6.341   0.454  0.1882  0.4705 -0.1532
 7043TIP3    H142688   5.548   6.313   0.480 -1.1268  3.5049 -0.7698
 7043TIP3    H242689   5.660   6.408   0.518  1.8251  0.1238 -0.3552
 7044TIP3   OH242690   5.535   4.568   0.981 -0.2424 -0.7007 -0.1537
 7044TIP3    H142691   5.602   4.504   1.005 -0.3886 -1.0043 -0.5369
 7044TIP3    H242692   5.476   4.570   1.057  0.1319 -0.5170  0.1376
 7045TIP3   OH242693   3.508   1.524   8.087  0.4160 -0.1719 -0.4499
 7045TIP3    H142694   3.424   1.544   8.128  0.7887 -0.5911  0.5665
 7045TIP3    H242695   3.572   1.571   8.141  1.0907 -2.1916  0.6036
 7046TIP3   OH242696   6.325   5.000   2.479  0.4986  0.4646 -0.3196
 7046TIP3    H142697   6.315   5.079   2.533  1.0077 -0.8774  1.8423
 7046TIP3    H242698   6.241   4.954   2.489  0.8830 -0.1820  0.0364
 7047TIP3   OH242699   5.832   5.467   0.892 -0.6553  0.3293  0.2422
 7047TIP3    H142700   5.881   5.389   0.866 -1.6587 -0.2467  0.0274
 7047TIP3    H242701   5.883   5.540   0.857 -0.3254 -0.2892 -0.6099
 7048TIP3   OH242702   5.854   2.072   0.868 -0.2858  0.0119  0.1062
 7048TIP3    H142703   5.828   2.164   0.881 -1.4055 -0.1878 -0.5367
 7048TIP3    H242704   5.819   2.050   0.781  0.1300 -0.9716  0.1789
 7049TIP3   OH242705   2.245   0.645   8.291  0.2428  0.4070  0.1355
 7049TIP3    H142706   2.272   0.593   8.366  2.1795  1.4229  0.2205
 7049TIP3    H242707   2.290   0.729   8.303  0.1793  0.7809 -1.8709
 7050TIP3   OH242708   3.277   3.559   0.289  0.1447  0.6263 -0.7172
 7050TIP3    H142709   3.256   3.593   0.376 -0.1820 -1.0828 -0.0905
 7050TIP3    H242710   3.340   3.488   0.306 -0.3856 -0.1240 -1.7991
 7051TIP3   OH242711   2.957   6.864   0.407  0.2045  0.6159  0.5250
 7051TIP3    H142712   2.910   6.820   0.336 -0.2045  2.2253 -0.2631
 7051TIP3    H242713   2.936   6.957   0.395  2.1012  1.1880  1.2867
 7052TIP3   OH242714   3.039   3.992   7.353  0.1704  0.2780  0.2055
 7052TIP3    H142715   2.969   3.943   7.395  1.3427  0.2892  2.2988
 7052TIP3    H242716   3.015   4.084   7.365  0.1503  0.2785  0.1667
 7053TIP3   OH242717   5.770   5.357   6.736  0.0555 -0.9293 -0.8169
 7053TIP3    H142718   5.684   5.321   6.759  0.0470  0.6101  2.0724
 7053TIP3    H242719   5.750   5.439   6.691  0.0994 -2.1416 -3.2118
 7054LIG     O142720   5.451   3.702   0.946 -0.0204 -0.5956 -0.8530
 7054LIG     O242721   5.202   3.623   0.865  0.5464  0.0109 -0.6801
 7054LIG     O342722   5.456   3.975   0.820 -0.5938 -0.1738  0.7854
 7054LIG     O442723   5.050   3.613   1.048  0.8636  0.6707  0.5837
 7054LIG     O542724   5.112   3.907   1.072  0.1355 -0.7439  0.6266
 7054LIG     O642725   4.955   3.935   0.793  0.3045  0.1259 -0.2386
 7054LIG     O742726   4.811   3.686   0.760  0.7341 -0.1949 -0.6364
 7054LIG     O842727   5.008   3.352   0.960 -0.1481  0.2809 -0.2599
 7054LIG     O942728   4.890   3.397   0.785  0.2395  0.1976 -0.2982
 7054LIG      N42729   5.745   3.344   0.750 -0.3730 -0.0305  0.0067
 7054LIG     C142730   5.538   3.515   0.855 -0.0248  0.1814  0.4901
 7054LIG     C242731   5.505   3.394   0.762 -0.0081  0.7887  0.1892
 7054LIG     C342732   5.425   3.559   0.943 -0.2513  0.4389 -0.7025
 7054LIG     C442733   5.622   3.371   0.671 -0.1912  0.5024 -0.0319
 7054LIG     C542734   5.674   3.491   0.933  0.2438 -0.4135 -0.5771
 7054LIG     C642735   5.567   3.626   0.763  0.2514  0.0185 -0.5992
 7054LIG     C742736   5.653   3.491   0.576 -0.0097  0.2006  0.6144
 7054LIG     C842737   5.786   3.448   0.839  0.5314 -0.7309 -0.1579
 7054LIG     C942738   5.289   3.520   0.887 -0.2316  0.3864  0.1377
 7054LIG    C1042739   5.604   3.624   0.637 -0.5656  0.4740  0.5461
 7054LIG    C1142740   5.374   3.408   0.681  0.6019 -0.7370  0.2589
 7054LIG    C1242741   5.509   3.738   0.822  0.0175  0.6426  0.0920
 7054LIG    C1342742   5.274   3.468   0.743  0.3911 -0.5305  0.0674
 7054LIG    C1442743   5.742   3.211   0.813  0.7518 -0.7600 -0.0209
 7054LIG    C1542744   5.593   3.744   0.564 -0.5222 -0.6117 -0.5055
 7054LIG    C1642745   5.509   3.859   0.758 -0.6450  0.0484 -0.7621
 7054LIG    C1742746   5.558   3.867   0.629  0.4501 -0.2573  0.2034
 7054LIG    C1842747   5.157   3.684   0.988  0.6424  0.5907  0.4402
 7054LIG    C1942748   5.113   3.826   0.957 -0.3324  0.4310 -0.6186
 7054LIG    C2042749   4.962   3.832   0.894 -0.3003  0.7797 -0.0825
 7054LIG    C2142750   4.928   3.692   0.839  0.1491 -0.1601  0.5192
 7054LIG    C2242751   4.944   3.589   0.948  0.1042 -0.0297  0.3561
 7054LIG    C2342752   4.942   3.441   0.884  0.2382 -0.3608 -0.9570
 7054LIG     H142753   5.480   3.303   0.821 -2.9390  0.8043 -0.8593
 7054LIG     H242754   5.436   3.525   1.048 -1.3063 -0.3906 -0.8326
 7054LIG     H342755   5.602   3.283   0.607  3.0700 -0.6120  0.3105
 7054LIG     H442756   5.653   3.406   1.001 -1.6878  0.5228  0.0783
 7054LIG     H542757   5.703   3.576   0.999  4.1377 -0.9278 -1.3710
 7054LIG     H642758   5.610   3.465   0.477  2.2642 -1.0599 -0.1411
 7054LIG     H742759   5.762   3.493   0.555  0.2311 -0.1174  1.7519
 7054LIG     H842760   5.820   3.537   0.783 -0.2573 -0.5919 -0.4327
 7054LIG     H942761   5.874   3.410   0.894  3.7495  5.6339 -0.0135
 7054LIG    H1042762   5.251   3.430   0.940 -0.7250  1.1128  1.0505
 7054LIG    H1142763   5.379   3.401   0.571  2.1935  2.3539  0.0161
 7054LIG    H1242764   5.175   3.453   0.698  0.1764 -0.6369  0.5646
 7054LIG    H1342765   5.679   3.142   0.752 -0.8830  1.8226 -1.4423
 7054LIG    H1442766   5.709   3.191   0.917  0.5952 -0.5887 -0.0374
 7054LIG    H1542767   5.846   3.174   0.817  1.3897  0.9476 -0.0311
 7054LIG    H1642768   5.620   3.744   0.460  1.5753 -1.5673 -0.0060
 7054LIG    H1742769   5.544   3.957   0.570 -1.2339 -1.6173 -1.6494
 7054LIG    H1842770   5.233   3.693   1.069  0.5269  2.7170  0.3466
 7054LIG    H1942771   5.181   3.861   0.877  1.7494 -0.1240  0.8470
 7054LIG    H2042772   4.891   3.859   0.975  0.3636 -0.6161  0.9956
 7054LIG    H2142773   5.487   4.056   0.778  0.1014 -1.1283 -0.6004
 7054LIG    H2242774   5.005   3.667   0.763  1.5493  0.7364  1.5978
 7054LIG    H2342775   4.846   3.599   0.999 -0.8282  1.2536 -1.5687
 7054LIG    H2442776   5.205   3.921   1.088  0.1487 -2.5051  2.5206
 7054LIG    H2542777   4.967   4.022   0.834  0.9063 -0.1571  0.2016
 7054LIG    H2642778   4.823   3.748   0.688 -0.3942  1.4828  0.5468
 7054LIG    H2742779   4.999   3.266   0.920  0.5916  0.5828 -1.0900
   7.00844   7.00844   8.36271
