Title
82341
    1SAPS     N    1   0.380   3.211  11.295  0.0306  0.0800 -0.4415
    1SAPS   HN1    2   0.424   3.120  11.270 -2.3688 -1.0888 -0.6308
    1SAPS   HN2    3   0.424   3.284  11.236  1.0782 -0.0272  0.1770
    1SAPS   HN3    4   0.416   3.233  11.390 -0.6258  0.5438 -0.2975
    1SAPS   C12    5   0.233   3.208  11.283 -0.0341  0.1076 -1.4652
    1SAPS  H12A    6   0.209   3.152  11.194  1.8424 -0.2669 -1.7831
    1SAPS   C13    7   0.158   3.149  11.398  0.0108  0.1274 -0.7607
    1SAPS  O13A    8   0.212   3.059  11.471 -0.5285  0.1092  0.0102
    1SAPS  O13B    9   0.033   3.148  11.397 -0.2561  0.5697 -0.1710
    1SAPS   C11   10   0.181   3.349  11.253  0.2838 -0.3522  0.5390
    1SAPS  H11A   11   0.200   3.413  11.342 -4.1670  0.5266  1.1117
    1SAPS  H11B   12   0.070   3.347  11.241  0.5151 -0.2626 -2.2021
    1SAPS     P   13   0.360   3.494  11.123  0.0752 -0.5261 -0.1439
    1SAPS   O13   14   0.309   3.623  11.179 -0.3908  0.1509 -0.2747
    1SAPS   O14   15   0.465   3.427  11.192  0.5219  0.8437  0.4419
    1SAPS   O12   16   0.234   3.409  11.134  0.5676  0.1063  0.0674
    1SAPS   O11   17   0.384   3.490  10.972  0.0267  0.7660 -0.2928
    1SAPS    C1   18   0.464   3.384  10.916  0.3863 -0.0472  0.0751
    1SAPS    HA   19   0.566   3.373  10.960 -0.7389 -1.1843  2.5775
    1SAPS    HB   20   0.412   3.287  10.926 -0.7944  0.7166  1.7544
    1SAPS    C2   21   0.484   3.422  10.774 -0.2163 -0.4223  0.7768
    1SAPS    HS   22   0.388   3.445  10.723 -0.1282 -1.6920 -0.0251
    1SAPS   O21   23   0.560   3.317  10.701  0.5911 -0.3577 -0.3988
    1SAPS   C21   24   0.495   3.208  10.659  0.2138  0.3583  0.3703
    1SAPS   O22   25   0.374   3.189  10.670  0.0719 -0.2224 -0.0575
    1SAPS   C22   26   0.588   3.109  10.599  0.0618  0.4032  0.1635
    1SAPS   H2R   27   0.688   3.151  10.574  0.9383 -1.3905  0.4577
    1SAPS   H2S   28   0.596   3.027  10.673  0.2980 -1.1710 -1.5192
    1SAPS    C3   29   0.566   3.551  10.754  0.2348  0.8154  0.5981
    1SAPS    HX   30   0.676   3.555  10.763  0.3237 -0.8241  0.5365
    1SAPS    HY   31   0.540   3.610  10.845 -1.6858  0.8824  0.0500
    1SAPS   O31   32   0.505   3.615  10.633 -0.1849  0.1534 -0.4770
    1SAPS   C31   33   0.585   3.623  10.522  0.9902  0.4443 -0.0692
    1SAPS   O32   34   0.687   3.558  10.506  1.1154  0.5198  0.3928
    1SAPS   C32   35   0.510   3.717  10.422  0.4527  0.4926 -0.1257
    1SAPS   H2X   36   0.567   3.811  10.440  1.3087  0.6106 -2.9339
    1SAPS   H2Y   37   0.404   3.712  10.455  0.0959 -3.6228 -1.3444
    1SAPS   C23   38   0.531   3.035  10.469 -0.1263 -0.4673 -0.5448
    1SAPS   H3R   39   0.425   3.008  10.485 -0.7784  1.6385 -1.0559
    1SAPS   H3S   40   0.590   2.941  10.461 -0.8694 -0.9877 -0.0426
    1SAPS   C24   41   0.531   3.123  10.345  0.0393 -0.0171 -0.7601
    1SAPS   H4R   42   0.634   3.154  10.316 -0.4369 -0.6024 -3.2706
    1SAPS   H4S   43   0.478   3.219  10.361 -0.0610 -0.2230  0.2127
    1SAPS   C25   44   0.461   3.051  10.229 -0.5926  0.3525  0.3197
    1SAPS   H5R   45   0.352   3.038  10.230 -0.4447 -1.1114 -0.0488
    1SAPS   C26   46   0.514   3.033  10.104  0.4267  0.2975  0.3184
    1SAPS   H6R   47   0.457   2.976  10.029  1.2283 -1.2525  0.8301
    1SAPS   C27   48   0.656   3.060  10.069 -0.1832  0.1868  0.0421
    1SAPS   H7R   49   0.733   3.040  10.145  1.9808  0.7176 -1.9078
    1SAPS   H7S   50   0.653   3.170  10.050 -0.6579  0.0698 -0.6262
    1SAPS   C28   51   0.703   3.004   9.939 -0.2770 -0.0031  0.0523
    1SAPS   H8R   52   0.762   2.912   9.949  0.1227  0.2317 -0.1260
    1SAPS   C29   53   0.682   3.050   9.817 -0.0885 -0.4002 -0.5646
    1SAPS   H9R   54   0.736   3.000   9.735  1.0908  0.9166 -0.6472
    1SAPS  C210   55   0.595   3.164   9.772  0.0167 -0.9767  0.3425
    1SAPS  H10R   56   0.644   3.218   9.688  0.3726  0.3876  1.3713
    1SAPS  H10S   57   0.564   3.227   9.859 -1.2305  0.4727 -1.0925
    1SAPS  C211   58   0.461   3.101   9.731  0.2201 -0.4708 -0.2977
    1SAPS  H11R   59   0.417   3.031   9.803 -2.4233  2.1863  0.8700
    1SAPS  C212   60   0.393   3.115   9.612 -0.1970  0.4121  0.0141
    1SAPS  H12R   61   0.291   3.079   9.593 -0.6999  0.4217  2.4581
    1SAPS  C213   62   0.432   3.199   9.493  0.4904  0.4429 -0.2505
    1SAPS  H13R   63   0.538   3.232   9.486  0.6067 -0.2484 -2.1611
    1SAPS  H13S   64   0.371   3.292   9.503 -1.8707 -1.0006 -0.6275
    1SAPS  C214   65   0.387   3.135   9.360 -0.1845  0.5357 -0.3455
    1SAPS  H14R   66   0.333   3.040   9.367 -0.2363  0.6017  0.1484
    1SAPS  C215   67   0.396   3.184   9.235 -0.3906 -0.2030  0.3848
    1SAPS  H15R   68   0.357   3.124   9.151  0.3905 -0.0147 -0.1292
    1SAPS  C216   69   0.454   3.316   9.195  0.2179 -1.0397  1.0727
    1SAPS  H16R   70   0.507   3.372   9.276  0.9794  1.6631 -1.1113
    1SAPS  H16S   71   0.372   3.387   9.171  0.4726 -0.8243  0.8235
    1SAPS  C217   72   0.549   3.313   9.068  0.4549  0.0264 -1.2380
    1SAPS  H17R   73   0.617   3.225   9.077  0.8782  0.3951 -0.8023
    1SAPS  H17S   74   0.611   3.404   9.072 -0.9915  0.9987  0.3813
    1SAPS  C218   75   0.496   3.294   8.926 -0.7201 -0.4639  0.1527
    1SAPS  H18R   76   0.405   3.358   8.919 -0.9320 -0.6846  0.8397
    1SAPS  H18S   77   0.453   3.194   8.904 -0.8311 -0.1170 -1.3619
    1SAPS  C219   78   0.598   3.353   8.830  0.8081  0.4403 -0.6555
    1SAPS  H19R   79   0.691   3.292   8.837  0.8043  0.6416  2.4355
    1SAPS  H19S   80   0.607   3.460   8.857  1.2413  0.4554 -0.8537
    1SAPS  C220   81   0.537   3.353   8.684  0.2116 -0.0019 -0.5454
    1SAPS  H20R   82   0.545   3.256   8.631  1.5215 -0.9660  1.2799
    1SAPS  H20S   83   0.576   3.440   8.627  0.5653  0.7908  0.8384
    1SAPS  H20T   84   0.430   3.379   8.700  0.2950  1.1074 -1.6466
    1SAPS   C33   85   0.534   3.667  10.284 -0.5208 -0.3904  0.3707
    1SAPS   H3X   86   0.643   3.655  10.261  0.2245 -0.1334  3.4179
    1SAPS   H3Y   87   0.496   3.756  10.228 -2.3978 -1.3501  0.0490
    1SAPS   C34   88   0.466   3.537  10.248  0.3611 -0.2206 -0.1422
    1SAPS   H4X   89   0.356   3.554  10.251  0.3420  0.0771 -1.6759
    1SAPS   H4Y   90   0.494   3.458  10.321  0.2215  1.7826  2.2202
    1SAPS   C35   91   0.487   3.490  10.109  0.0789 -0.1720 -0.1624
    1SAPS   H5X   92   0.434   3.397  10.082  0.7056 -0.7481  0.5493
    1SAPS   H5Y   93   0.595   3.469  10.095 -0.0126 -0.9301  0.2257
    1SAPS   C36   94   0.454   3.600  10.003 -0.1604  0.1299 -0.4384
    1SAPS   H6X   95   0.513   3.694  10.009  0.3978 -0.2125 -0.4888
    1SAPS   H6Y   96   0.347   3.625  10.014 -0.2455  0.1846 -1.3167
    1SAPS   C37   97   0.481   3.546   9.862 -0.5318 -0.1262  0.0195
    1SAPS   H7X   98   0.429   3.448   9.859 -1.4865  0.2351  2.2645
    1SAPS   H7Y   99   0.591   3.547   9.848 -0.4833 -0.3741  0.3553
    1SAPS   C38  100   0.436   3.635   9.751 -0.3610 -0.3908  0.0150
    1SAPS   H8X  101   0.497   3.727   9.755  0.0035 -0.4724 -2.2499
    1SAPS   H8Y  102   0.328   3.663   9.757  0.2368  1.8358  2.5091
    1SAPS   C39  103   0.449   3.572   9.614 -0.5033 -0.2919 -0.1576
    1SAPS   H9X  104   0.389   3.478   9.608 -1.1016  0.0271  0.5791
    1SAPS   H9Y  105   0.553   3.534   9.623 -0.0461  0.8468 -0.5400
    1SAPS  C310  106   0.423   3.675   9.505 -0.1942  0.4700  0.2445
    1SAPS  H10X  107   0.485   3.767   9.518  0.0560  0.0163  2.7761
    1SAPS  H10Y  108   0.316   3.706   9.510 -0.4840 -0.6363  1.3105
    1SAPS  C311  109   0.458   3.632   9.367  0.3738  0.4388 -0.5655
    1SAPS  H11X  110   0.388   3.553   9.332  1.1352 -0.1345 -0.8191
    1SAPS  H11Y  111   0.564   3.599   9.363  1.1420  2.5558  0.6670
    1SAPS  C312  112   0.431   3.744   9.267  0.1007 -0.3363 -0.1982
    1SAPS  H12X  113   0.496   3.834   9.270  0.5766 -0.6898  0.1060
    1SAPS  H12Y  114   0.330   3.790   9.277  1.1471  2.0451  0.2270
    1SAPS  C313  115   0.445   3.688   9.127 -0.5867 -0.1362 -0.0917
    1SAPS  H13X  116   0.362   3.616   9.111  0.4845 -1.6889  0.9935
    1SAPS  H13Y  117   0.539   3.628   9.123 -2.1150 -2.7096  0.3822
    1SAPS  C314  118   0.421   3.793   9.020  0.8810 -0.7114  0.4701
    1SAPS  H14X  119   0.493   3.877   9.020 -0.2296  0.3023 -1.3922
    1SAPS  H14Y  120   0.325   3.840   9.050  1.0520 -0.2687  0.3216
    1SAPS  C315  121   0.410   3.748   8.875 -0.3279 -0.0096 -0.5781
    1SAPS  H15X  122   0.315   3.693   8.855 -1.8843  2.3140  0.0581
    1SAPS  H15Y  123   0.497   3.687   8.841  0.8422  1.3172 -0.0400
    1SAPS  C316  124   0.402   3.870   8.780  0.1206  0.0473  0.0699
    1SAPS  H16X  125   0.508   3.901   8.790  1.0781 -2.8084 -0.3212
    1SAPS  H16Y  126   0.342   3.951   8.828 -1.8602 -1.9724  1.1926
    1SAPS  C317  127   0.347   3.839   8.646  0.0777  1.0386  0.3792
    1SAPS  H17X  128   0.359   3.931   8.585  0.5082 -0.4721 -1.9247
    1SAPS  H17Y  129   0.239   3.821   8.661  0.1902 -0.1602 -0.1233
    1SAPS  C318  130   0.396   3.709   8.575  0.1793  0.2844 -0.3364
    1SAPS  H18X  131   0.360   3.622   8.634  0.1182  0.7942  0.3989
    1SAPS  H18Y  132   0.507   3.713   8.587  0.0621  3.3980  0.7813
    1SAPS  H18Z  133   0.370   3.688   8.469  0.9704 -0.7517 -0.3343
    2SAPS     N  134   6.412   3.183  11.296 -0.4096  0.3869  0.1082
    2SAPS   HN1  135   6.461   3.157  11.383 -1.4537 -2.5072 -0.0670
    2SAPS   HN2  136   6.491   3.192  11.229 -0.1567  0.0618  0.3620
    2SAPS   HN3  137   6.369   3.277  11.307  2.0639  1.2770  3.9876
    2SAPS   C12  138   6.310   3.079  11.261 -0.6597  0.2031 -0.4599
    2SAPS  H12A  139   6.355   2.981  11.251  0.7808  0.8217 -0.2504
    2SAPS   C13  140   6.195   3.074  11.363 -0.8737  0.4300 -1.0771
    2SAPS  O13A  141   6.179   3.165  11.449  0.0650 -0.2535 -0.2884
    2SAPS  O13B  142   6.102   2.992  11.355  0.1300 -0.2535 -0.2210
    2SAPS   C11  143   6.248   3.108  11.119 -0.1502  0.1301 -0.4772
    2SAPS  H11A  144   6.169   3.184  11.131  1.0316  1.4461 -0.7256
    2SAPS  H11B  145   6.194   3.019  11.082 -2.4601  0.2465  2.2589
    2SAPS     P  146   6.327   3.277  10.924  0.1828  0.8052 -0.0664
    2SAPS   O13  147   6.271   3.388  10.999 -0.7551 -0.5173 -0.4600
    2SAPS   O14  148   6.455   3.300  10.852  0.2812 -0.0149 -0.1389
    2SAPS   O12  149   6.348   3.152  11.016  0.0222  0.3263 -0.4342
    2SAPS   O11  150   6.225   3.226  10.821  0.5741  0.2971 -0.2798
    2SAPS    C1  151   6.221   3.091  10.768 -0.4401 -0.1860  0.0639
    2SAPS    HA  152   6.233   3.019  10.851  1.1134  0.4588  0.4352
    2SAPS    HB  153   6.117   3.065  10.738  0.0613 -1.7121 -0.4054
    2SAPS    C2  154   6.324   3.074  10.660  0.0475  0.2609  0.3431
    2SAPS    HS  155   6.420   3.101  10.708 -0.6573 -0.4079  2.2493
    2SAPS   O21  156   6.281   3.166  10.551 -0.4243  0.5550 -0.0244
    2SAPS   C21  157   6.376   3.215  10.477  0.6986 -0.8890 -0.1390
    2SAPS   O22  158   6.494   3.194  10.493 -0.4142 -0.1889 -0.1209
    2SAPS   C22  159   6.311   3.304  10.371 -0.0152 -0.4486 -0.4391
    2SAPS   H2R  160   6.234   3.247  10.316  0.0872 -1.5004  0.4612
    2SAPS   H2S  161   6.254   3.383  10.424  0.5891  0.7815 -1.5633
    2SAPS    C3  162   6.332   2.931  10.609 -0.3179  0.8799 -0.2520
    2SAPS    HX  163   6.231   2.914  10.567 -0.7971  0.9542  0.8299
    2SAPS    HY  164   6.357   2.850  10.681 -1.6711  1.0477  0.4446
    2SAPS   O31  165   6.421   2.918  10.486 -0.0246 -0.0424 -0.4381
    2SAPS   C31  166   6.551   2.897  10.514 -0.1807 -0.6895 -0.5723
    2SAPS   O32  167   6.599   2.888  10.626  0.2525  0.4284  0.6763
    2SAPS   C32  168   6.632   2.905  10.385  0.1910  0.0953 -0.5958
    2SAPS   H2X  169   6.722   2.843  10.407  2.4866  2.4465 -2.7042
    2SAPS   H2Y  170   6.675   3.007  10.389  1.2770 -0.3478  3.0188
    2SAPS   C23  171   6.414   3.370  10.282  0.2077  0.4661 -0.0383
    2SAPS   H3R  172   6.494   3.425  10.338 -0.2626  2.4825 -1.2364
    2SAPS   H3S  173   6.344   3.437  10.228 -0.1958 -0.3270 -0.5061
    2SAPS   C24  174   6.476   3.266  10.186  0.1790  0.3583 -0.1123
    2SAPS   H4R  175   6.390   3.201  10.158 -0.1653  1.1635 -0.9870
    2SAPS   H4S  176   6.549   3.198  10.235 -0.6706  0.0899  0.8149
    2SAPS   C25  177   6.552   3.325  10.066  0.2822  0.8828 -0.7438
    2SAPS   H5R  178   6.619   3.407  10.096 -0.4113  1.2798 -0.2286
    2SAPS   C26  179   6.521   3.308   9.937  0.4902  0.1984  0.1613
    2SAPS   H6R  180   6.581   3.345   9.852 -1.5846  0.1462 -1.3868
    2SAPS   C27  181   6.397   3.227   9.893  0.0095  0.2919 -0.2836
    2SAPS   H7R  182   6.323   3.291   9.840 -0.9813  0.4813  1.2729
    2SAPS   H7S  183   6.331   3.212   9.981 -1.9494 -0.0357 -1.7309
    2SAPS   C28  184   6.431   3.099   9.819  0.6236  1.0090  0.3981
    2SAPS   H8R  185   6.437   3.005   9.876 -2.8166  1.2852  1.4120
    2SAPS   C29  186   6.454   3.096   9.687  0.1257  0.8126  0.4648
    2SAPS   H9R  187   6.482   3.000   9.641  0.0585  1.0551 -0.0809
    2SAPS  C210  188   6.440   3.213   9.586  0.2482  0.1319  0.1256
    2SAPS  H10R  189   6.533   3.202   9.525  1.1281 -0.3857  1.5004
    2SAPS  H10S  190   6.461   3.312   9.630 -0.4779  0.0420  0.6934
    2SAPS  C211  191   6.308   3.213   9.511 -0.0022  0.3342  0.3289
    2SAPS  H11R  192   6.222   3.255   9.566 -0.2556  0.2214  0.0192
    2SAPS  C212  193   6.280   3.170   9.387  0.5863 -0.8236  0.2334
    2SAPS  H12R  194   6.177   3.183   9.351  1.0392  0.4186 -0.6630
    2SAPS  C213  195   6.382   3.091   9.303  0.1421 -0.3015  0.2783
    2SAPS  H13R  196   6.469   3.056   9.361 -0.7088 -0.7528  1.3226
    2SAPS  H13S  197   6.416   3.156   9.219  0.6218 -1.9772 -0.8699
    2SAPS  C214  198   6.309   2.966   9.239  0.2318 -1.0734 -0.1681
    2SAPS  H14R  199   6.248   2.910   9.311 -0.8036 -1.3560 -1.2357
    2SAPS  C215  200   6.311   2.927   9.110 -0.0077  0.6939 -0.2454
    2SAPS  H15R  201   6.242   2.847   9.079 -0.1592  0.9361 -0.5385
    2SAPS  C216  202   6.384   3.003   9.000  0.2231  0.1530  0.6447
    2SAPS  H16R  203   6.431   3.101   9.025  1.4632  0.0843 -1.1676
    2SAPS  H16S  204   6.304   3.039   8.932  0.9931  2.3730  0.8265
    2SAPS  C217  205   6.500   2.929   8.917 -0.2324  0.1589 -0.4124
    2SAPS  H17R  206   6.573   2.886   8.989  1.2859 -0.7565 -2.3938
    2SAPS  H17S  207   6.544   3.009   8.855  0.2645  0.1808 -0.0358
    2SAPS  C218  208   6.451   2.820   8.812 -0.4553 -0.2378  0.2773
    2SAPS  H18R  209   6.421   2.726   8.864  0.2412 -1.4019 -1.3189
    2SAPS  H18S  210   6.540   2.789   8.753 -0.1781  0.1918  0.4701
    2SAPS  C219  211   6.351   2.866   8.702  0.7697  0.3432 -0.2860
    2SAPS  H19R  212   6.377   2.955   8.642 -1.3151  1.0044 -0.2854
    2SAPS  H19S  213   6.253   2.892   8.748  1.1244  0.0178  0.6920
    2SAPS  C220  214   6.319   2.761   8.604 -0.3412  0.4599  0.2240
    2SAPS  H20R  215   6.258   2.803   8.521  0.7593 -1.1816 -1.4845
    2SAPS  H20S  216   6.259   2.679   8.650  0.6610  0.2300  1.1800
    2SAPS  H20T  217   6.414   2.720   8.565  0.3477  0.9090  1.3498
    2SAPS   C33  218   6.556   2.865  10.263 -0.4070 -0.2156 -0.0994
    2SAPS   H3X  219   6.477   2.941  10.241 -1.2808 -0.9513  0.4050
    2SAPS   H3Y  220   6.516   2.762  10.273 -0.1243 -0.1920  1.5830
    2SAPS   C34  221   6.646   2.866  10.134  0.0588 -0.1963 -0.3958
    2SAPS   H4X  222   6.599   2.809  10.051  0.2174  0.7925 -1.1728
    2SAPS   H4Y  223   6.738   2.809  10.162 -0.6479 -1.1144  0.1274
    2SAPS   C35  224   6.696   3.001  10.090  0.4336  0.1682  0.8543
    2SAPS   H5X  225   6.719   3.068  10.175 -1.8217  2.0489  0.0946
    2SAPS   H5Y  226   6.611   3.053  10.041  0.7945 -0.5624 -0.6203
    2SAPS   C36  227   6.811   2.999   9.985 -0.0020 -0.2158  0.4724
    2SAPS   H6X  228   6.906   2.980  10.040  0.8767 -0.1449 -0.9746
    2SAPS   H6Y  229   6.811   3.101   9.943 -0.5801 -0.4360 -0.0622
    2SAPS   C37  230   6.780   2.903   9.865  0.4851  0.3315  0.3070
    2SAPS   H7X  231   6.669   2.898   9.861  0.5303  0.0151 -0.9275
    2SAPS   H7Y  232   6.800   2.798   9.894  3.1612  0.8342  0.5314
    2SAPS   C38  233   6.843   2.943   9.729  0.3498  0.3432 -0.1869
    2SAPS   H8X  234   6.952   2.941   9.749  0.5650  2.2145 -1.0137
    2SAPS   H8Y  235   6.825   3.052   9.714 -0.9683 -0.2243 -3.8225
    2SAPS   C39  236   6.799   2.864   9.612  0.2876 -0.3119 -0.0125
    2SAPS   H9X  237   6.689   2.852   9.627  0.1485 -1.0797 -1.4565
    2SAPS   H9Y  238   6.844   2.763   9.621  1.5401  0.3014  0.7047
    2SAPS  C310  239   6.845   2.932   9.479  0.4394 -0.0478 -0.5279
    2SAPS  H10X  240   6.951   2.901   9.465  0.0523 -2.2267  0.8269
    2SAPS  H10Y  241   6.847   3.043   9.484  0.3231 -0.0337 -0.7432
    2SAPS  C311  242   6.754   2.877   9.366 -0.6765  0.5420  0.1837
    2SAPS  H11X  243   6.653   2.894   9.409 -0.7685 -1.6080  0.9897
    2SAPS  H11Y  244   6.776   2.768   9.359 -0.9336  0.5512 -1.0543
    2SAPS  C312  245   6.770   2.952   9.233  0.1395  0.2417 -0.1967
    2SAPS  H12X  246   6.773   3.063   9.240 -1.8312  0.3273 -0.3046
    2SAPS  H12Y  247   6.683   2.932   9.167 -1.3078  2.1050  1.0517
    2SAPS  C313  248   6.894   2.911   9.147  0.7713  0.1793 -0.2637
    2SAPS  H13X  249   6.889   2.802   9.126  1.3194  0.6878 -3.6078
    2SAPS  H13Y  250   6.989   2.945   9.193  0.4544  2.6813 -1.2804
    2SAPS  C314  251   6.889   2.985   9.015  0.5874  0.0571  0.5715
    2SAPS  H14X  252   6.881   3.094   9.032  0.5316  0.2205 -0.4312
    2SAPS  H14Y  253   6.792   2.948   8.974  1.8051 -2.0780 -0.6200
    2SAPS  C315  254   7.021   2.958   8.937 -1.2873 -0.2628  1.1987
    2SAPS  H15X  255   7.033   2.850   8.915 -1.7516  0.4578 -3.8262
    2SAPS  H15Y  256   7.111   2.984   8.996 -1.2999  1.6028  0.4684
    2SAPS  C316  257   7.026   3.026   8.797  0.6471 -0.6109  0.0115
    2SAPS  H16X  258   7.008   3.133   8.819 -1.1199 -1.1447  1.4203
    2SAPS  H16Y  259   6.937   2.984   8.745  0.1356 -1.1238  1.2444
    2SAPS  C317  260   7.157   3.009   8.722 -0.1787  0.0660  0.4441
    2SAPS  H17X  261   7.242   3.047   8.783  0.1696  3.2556 -1.7544
    2SAPS  H17Y  262   7.162   3.093   8.649  1.0072  0.1686  0.6149
    2SAPS  C318  263   7.190   2.880   8.646  0.3506  0.1675 -0.3293
    2SAPS  H18X  264   7.109   2.861   8.573  0.0808 -0.4947  0.1296
    2SAPS  H18Y  265   7.192   2.794   8.716  0.9384  0.5534  0.1399
    2SAPS  H18Z  266   7.284   2.896   8.589 -0.0271  2.8658 -0.3466
    3SAPS     N  267   6.523   6.559  11.014  0.5281 -0.0378  0.6757
    3SAPS   HN1  268   6.462   6.475  11.016 -1.7090  1.5211  1.9006
    3SAPS   HN2  269   6.462   6.621  11.071  1.0724 -0.4259  1.7150
    3SAPS   HN3  270   6.523   6.589  10.915  2.9699 -2.6009 -0.2410
    3SAPS   C12  271   6.658   6.525  11.056  0.4929 -0.6700  0.1531
    3SAPS  H12A  272   6.716   6.520  10.965 -0.6432  1.4092 -0.7632
    3SAPS   C13  273   6.726   6.616  11.163  0.3032 -0.8795 -0.1617
    3SAPS  O13A  274   6.663   6.708  11.222  0.0611  0.0981  0.1876
    3SAPS  O13B  275   6.850   6.623  11.168 -0.1827  0.6267 -0.7318
    3SAPS   C11  276   6.665   6.383  11.109  0.0029  0.7321 -0.3330
    3SAPS  H11A  277   6.596   6.373  11.196  0.2768  2.6277  0.1489
    3SAPS  H11B  278   6.768   6.359  11.143  0.0708 -1.3793 -1.8416
    3SAPS     P  279   6.736   6.209  10.936  0.4306 -0.4994  0.2640
    3SAPS   O13  280   6.818   6.308  10.869  0.8771  0.1027 -0.1874
    3SAPS   O14  281   6.800   6.112  11.026 -0.4319 -0.1023  0.5203
    3SAPS   O12  282   6.622   6.292  11.009 -0.4389  0.1008 -0.4817
    3SAPS   O11  283   6.648   6.131  10.824  0.5265 -0.4665  0.4546
    3SAPS    C1  284   6.557   6.215  10.747 -0.2192  0.7127 -0.0400
    3SAPS    HA  285   6.477   6.250  10.815  1.1186  0.1141  1.9302
    3SAPS    HB  286   6.605   6.309  10.710 -0.9050  0.9707 -0.2922
    3SAPS    C2  287   6.502   6.134  10.629  0.6412  0.2003 -0.0414
    3SAPS    HS  288   6.500   6.027  10.660  1.4544  0.1978  0.0048
    3SAPS   O21  289   6.576   6.157  10.506 -0.3571  0.2846  0.1177
    3SAPS   C21  290   6.687   6.095  10.489  0.0508 -0.1288 -0.1343
    3SAPS   O22  291   6.731   6.010  10.564  0.5070  0.5836  0.2223
    3SAPS   C22  292   6.752   6.121  10.348 -0.4513 -0.7979 -0.4641
    3SAPS   H2R  293   6.687   6.189  10.288  0.9747  0.0062 -1.1475
    3SAPS   H2S  294   6.851   6.167  10.368 -0.1019 -0.6722 -2.3278
    3SAPS    C3  295   6.349   6.176  10.614  0.4648  0.0844  0.1875
    3SAPS    HX  296   6.346   6.281  10.651  1.1812 -0.6992  2.7153
    3SAPS    HY  297   6.288   6.126  10.693  0.1442  0.9851  0.5179
    3SAPS   O31  298   6.308   6.167  10.478 -0.4120  0.1627 -0.1324
    3SAPS   C31  299   6.182   6.125  10.465 -0.3971  0.7583  0.2607
    3SAPS   O32  300   6.112   6.095  10.557  0.5142  1.0059  0.7242
    3SAPS   C32  301   6.149   6.126  10.319 -0.0249  0.4286 -0.6576
    3SAPS   H2X  302   6.102   6.220  10.283 -1.6602 -0.6668 -1.5426
    3SAPS   H2Y  303   6.068   6.051  10.307  0.2051  0.1267 -0.3358
    3SAPS   C23  304   6.781   5.989  10.278 -0.2808  0.1285 -0.6170
    3SAPS   H3R  305   6.840   5.915  10.337  1.9755  1.9444 -0.4330
    3SAPS   H3S  306   6.856   6.009  10.199  0.2422  0.0087 -0.1630
    3SAPS   C24  307   6.653   5.932  10.214 -0.4202  0.2044  0.2080
    3SAPS   H4R  308   6.566   5.960  10.277 -1.0084 -0.2533 -0.3891
    3SAPS   H4S  309   6.662   5.822  10.225 -0.7465  0.2643  1.2442
    3SAPS   C25  310   6.634   5.984  10.072 -0.0839 -0.3414 -0.4077
    3SAPS   H5R  311   6.600   6.088  10.067  1.2110  0.0937 -0.4548
    3SAPS   C26  312   6.644   5.929   9.949 -0.3036 -0.3542 -0.5776
    3SAPS   H6R  313   6.629   5.988   9.857 -0.7777  0.7550  0.1785
    3SAPS   C27  314   6.681   5.789   9.911 -0.3867  0.9829  0.0844
    3SAPS   H7R  315   6.605   5.742   9.845 -0.4655 -0.0392  0.8782
    3SAPS   H7S  316   6.694   5.724  10.000  0.1363  1.2313  0.1933
    3SAPS   C28  317   6.818   5.783   9.856 -0.2921  0.6262  0.3008
    3SAPS   H8R  318   6.896   5.840   9.910  1.7235 -1.5224 -0.1855
    3SAPS   C29  319   6.858   5.720   9.745  0.4412 -0.2784 -0.0408
    3SAPS   H9R  320   6.961   5.723   9.706  0.6126 -1.0931  0.3308
    3SAPS  C210  321   6.778   5.643   9.642  0.5918  0.3874 -0.6733
    3SAPS  H10R  322   6.700   5.595   9.706 -1.5194 -0.8393 -3.9363
    3SAPS  H10S  323   6.840   5.557   9.608 -1.1219 -1.0943 -0.2301
    3SAPS  C211  324   6.730   5.716   9.523  0.2844  0.3556  0.4228
    3SAPS  H11R  325   6.758   5.823   9.519  0.5630  0.2675 -2.5075
    3SAPS  C212  326   6.668   5.655   9.413 -0.2673 -0.2835 -0.4535
    3SAPS  H12R  327   6.620   5.718   9.337  0.4670 -0.5769 -1.1751
    3SAPS  C213  328   6.625   5.507   9.423 -0.4444  0.1641 -0.3836
    3SAPS  H13R  329   6.520   5.504   9.386 -0.3999 -1.6280 -0.4553
    3SAPS  H13S  330   6.600   5.475   9.526 -0.6048 -0.9044 -0.7403
    3SAPS  C214  331   6.711   5.414   9.348  0.1370  0.0356  0.5172
    3SAPS  H14R  332   6.781   5.352   9.406 -1.0849 -1.5193  0.3936
    3SAPS  C215  333   6.726   5.405   9.219 -0.1066  0.2391  0.5633
    3SAPS  H15R  334   6.788   5.322   9.182  0.3474 -0.2697  2.3601
    3SAPS  C216  335   6.643   5.476   9.120  0.5854 -0.5849 -0.5688
    3SAPS  H16R  336   6.572   5.546   9.168 -0.9499 -2.6939  0.3501
    3SAPS  H16S  337   6.583   5.409   9.056  0.1777  0.8881 -1.7874
    3SAPS  C217  338   6.734   5.555   9.018  0.4257 -0.3193  0.1660
    3SAPS  H17R  339   6.793   5.479   8.961  0.5393 -1.8192  2.1742
    3SAPS  H17S  340   6.784   5.624   9.088 -0.3963 -1.3734  1.8594
    3SAPS  C218  341   6.652   5.643   8.923 -0.9168 -0.4337 -0.2169
    3SAPS  H18R  342   6.722   5.699   8.857  0.2839  0.2847  1.5693
    3SAPS  H18S  343   6.587   5.712   8.981  0.3645  1.3992 -0.8645
    3SAPS  C219  344   6.570   5.564   8.824 -0.4632 -0.2811 -0.2350
    3SAPS  H19R  345   6.488   5.508   8.872  0.0622 -0.8864 -0.0385
    3SAPS  H19S  346   6.633   5.482   8.784 -0.6004 -1.0984  1.1704
    3SAPS  C220  347   6.521   5.659   8.710  0.3792  0.6727  0.0300
    3SAPS  H20R  348   6.446   5.734   8.742 -0.1446  0.1258  0.0934
    3SAPS  H20S  349   6.482   5.603   8.623  0.3740 -0.5701  0.8055
    3SAPS  H20T  350   6.605   5.710   8.658  1.5668 -0.1355  1.0727
    3SAPS   C33  351   6.267   6.077  10.227  0.6299 -0.2101  0.5219
    3SAPS   H3X  352   6.336   6.005  10.275  0.7955  0.5749  1.4926
    3SAPS   H3Y  353   6.340   6.158  10.206  2.3614 -1.6980  0.5580
    3SAPS   C34  354   6.216   6.019  10.095 -0.1886  0.1812  0.0720
    3SAPS   H4X  355   6.170   5.923  10.129 -0.8146  1.6132  3.6881
    3SAPS   H4Y  356   6.304   5.988  10.034 -1.5418  1.2639 -2.6206
    3SAPS   C35  357   6.130   6.112  10.019 -0.5545 -0.5527 -0.2622
    3SAPS   H5X  358   6.175   6.204   9.975 -3.4437 -0.0926 -2.5865
    3SAPS   H5Y  359   6.043   6.150  10.078  1.2339 -1.5819  3.2711
    3SAPS   C36  360   6.076   6.038   9.888 -0.6720 -0.2131 -0.5251
    3SAPS   H6X  361   5.994   5.969   9.919 -0.5734  0.1180  0.5298
    3SAPS   H6Y  362   6.166   5.994   9.841  1.7936  1.5466  2.2138
    3SAPS   C37  363   6.015   6.137   9.781  0.1355 -0.3019  0.2944
    3SAPS   H7X  364   6.066   6.236   9.773  0.9662 -0.7730 -0.5547
    3SAPS   H7Y  365   5.912   6.164   9.813  0.6189  2.4308 -0.1719
    3SAPS   C38  366   6.015   6.091   9.637  0.0838 -0.4652  0.5901
    3SAPS   H8X  367   6.120   6.077   9.603  0.1198  1.4599 -0.2895
    3SAPS   H8Y  368   5.980   6.179   9.578 -1.6705 -0.6152  1.3334
    3SAPS   C39  369   5.938   5.963   9.598  0.1029 -0.0446 -0.7608
    3SAPS   H9X  370   5.832   5.976   9.631 -0.3544 -0.9067 -1.7961
    3SAPS   H9Y  371   5.975   5.881   9.662  0.2974 -0.5526 -1.5091
    3SAPS  C310  372   5.938   5.919   9.452 -0.2494  0.1472  0.1736
    3SAPS  H10X  373   5.897   5.816   9.449  2.7343 -1.1311 -0.3475
    3SAPS  H10Y  374   6.042   5.914   9.413  0.5963 -0.3373  2.3366
    3SAPS  C311  375   5.851   6.026   9.377 -0.2337  0.9955 -0.7973
    3SAPS  H11X  376   5.908   6.121   9.367  0.3448  0.9191  1.2897
    3SAPS  H11Y  377   5.754   6.036   9.429 -1.0171  0.7130 -2.1696
    3SAPS  C312  378   5.812   5.980   9.236  0.6727  0.0361  0.3384
    3SAPS  H12X  379   5.715   6.025   9.205  0.9858  0.5631  0.1073
    3SAPS  H12Y  380   5.797   5.870   9.232 -0.0429  0.1062  0.8303
    3SAPS  C313  381   5.912   6.018   9.128  0.0776  0.4655  1.0331
    3SAPS  H13X  382   6.009   5.976   9.162 -0.5718  0.2758  2.7469
    3SAPS  H13Y  383   5.922   6.127   9.107  0.6789  0.4585  1.2481
    3SAPS  C314  384   5.882   5.948   8.991 -0.6698 -0.7577  0.4581
    3SAPS  H14X  385   5.782   5.982   8.957 -0.4545  0.2354  0.7858
    3SAPS  H14Y  386   5.876   5.839   9.009  1.2698 -0.8893  0.6066
    3SAPS  C315  387   5.999   5.967   8.887  0.5407 -0.4318  0.3283
    3SAPS  H15X  388   5.988   5.901   8.797  0.9214  1.6962 -1.3642
    3SAPS  H15Y  389   6.092   5.927   8.932  0.4617 -2.7033 -1.2806
    3SAPS  C316  390   6.000   6.109   8.821  0.7311 -0.0363 -0.4509
    3SAPS  H16X  391   6.032   6.184   8.897  0.8949 -0.8379  0.2837
    3SAPS  H16Y  392   5.892   6.133   8.803 -0.4098 -2.8158  1.8840
    3SAPS  C317  393   6.066   6.119   8.693  0.3247  0.0248  0.2519
    3SAPS  H17X  394   6.007   6.050   8.628  1.4157  0.0943 -0.8453
    3SAPS  H17Y  395   6.173   6.090   8.701  0.3087  0.4944  3.6404
    3SAPS  C318  396   6.060   6.255   8.629 -0.6529 -0.9393  0.7217
    3SAPS  H18X  397   5.959   6.274   8.588 -0.7946  0.1462  1.5168
    3SAPS  H18Y  398   6.126   6.276   8.542 -0.5127  1.1038  1.2748
    3SAPS  H18Z  399   6.079   6.339   8.699 -0.5875 -0.6559  0.3662
    4SAPS     N  400   1.330   0.131  11.317 -0.5792  0.0590 -0.2963
    4SAPS   HN1  401   1.412   0.093  11.368 -0.4543  2.6967  1.6811
    4SAPS   HN2  402   1.360   0.224  11.282  2.2421 -0.5018  0.3441
    4SAPS   HN3  403   1.254   0.140  11.387  0.0199 -0.3594  0.4212
    4SAPS   C12  404   1.284   0.055  11.194 -0.4567  0.5042  0.0836
    4SAPS  H12A  405   1.366   0.054  11.124 -1.1384  1.3096 -0.7513
    4SAPS   C13  406   1.255  -0.097  11.236  0.4316  1.2182 -0.6132
    4SAPS  O13A  407   1.258  -0.126  11.360  0.3869 -0.3764 -0.1971
    4SAPS  O13B  408   1.203  -0.176  11.150 -0.0477  0.3473  0.0307
    4SAPS   C11  409   1.148   0.127  11.134 -0.2411  0.2588  0.0956
    4SAPS  H11A  410   1.085   0.128  11.225  2.4759  2.4362  2.1448
    4SAPS  H11B  411   1.117   0.058  11.052 -0.7633 -0.5278  0.9433
    4SAPS     P  412   1.066   0.365  11.072  0.7226  0.1906  0.0328
    4SAPS   O13  413   0.972   0.351  11.183 -0.0564 -0.4254 -0.3966
    4SAPS   O14  414   1.124   0.498  11.044 -0.0672  0.1087  0.9681
    4SAPS   O12  415   1.184   0.263  11.085  0.1514  0.7278 -0.6048
    4SAPS   O11  416   0.985   0.313  10.944 -0.3410 -0.1828  0.5810
    4SAPS    C1  417   1.064   0.302  10.819 -0.0721 -0.0579  0.4395
    4SAPS    HA  418   1.030   0.389  10.758 -1.6350 -0.3019  0.9085
    4SAPS    HB  419   1.171   0.282  10.842 -0.1977 -1.5102 -0.1269
    4SAPS    C2  420   1.008   0.182  10.737 -0.4494  0.4243 -0.1485
    4SAPS    HS  421   1.024   0.097  10.806 -0.2884  0.8487  0.3507
    4SAPS   O21  422   1.083   0.167  10.613 -0.2259 -0.2110  0.0798
    4SAPS   C21  423   1.080   0.050  10.550  0.6591 -0.3825 -0.6458
    4SAPS   O22  424   1.015  -0.048  10.590 -0.6159 -0.2820  0.1702
    4SAPS   C22  425   1.163   0.055  10.414 -0.1143 -0.6429 -0.7948
    4SAPS   H2R  426   1.158   0.159  10.378  0.1842 -1.0555 -2.0574
    4SAPS   H2S  427   1.268   0.046  10.449  0.4048  3.9994 -0.5967
    4SAPS    C3  428   0.858   0.203  10.699  0.0131  0.5449  0.1406
    4SAPS    HX  429   0.805   0.234  10.791 -2.0122  2.4059 -1.5419
    4SAPS    HY  430   0.811   0.112  10.656  0.8822 -0.0408  0.3927
    4SAPS   O31  431   0.848   0.320  10.617  0.1953  0.2632 -0.1058
    4SAPS   C31  432   0.804   0.305  10.496  0.1595 -0.8969 -0.0029
    4SAPS   O32  433   0.807   0.201  10.433 -0.2151 -0.5632 -0.4887
    4SAPS   C32  434   0.749   0.440  10.447  0.4988 -0.1180  0.3415
    4SAPS   H2X  435   0.824   0.521  10.461  1.4995 -0.9549 -0.0396
    4SAPS   H2Y  436   0.662   0.471  10.509  0.2320  0.2001 -0.1744
    4SAPS   C23  437   1.151  -0.046  10.302 -0.6766 -0.3992 -0.7287
    4SAPS   H3R  438   1.108  -0.141  10.340  1.3783 -1.4275 -0.8495
    4SAPS   H3S  439   1.254  -0.061  10.265 -0.6773 -1.5439 -0.2813
    4SAPS   C24  440   1.064   0.004  10.187  0.4201 -0.1603  0.2398
    4SAPS   H4R  441   1.109   0.098  10.147 -0.5611 -0.8654 -2.7923
    4SAPS   H4S  442   0.968   0.028  10.237  0.2527 -0.2480 -0.0364
    4SAPS   C25  443   1.037  -0.094  10.068  0.4670  0.0990 -0.1916
    4SAPS   H5R  444   0.986  -0.188  10.094  2.5098 -1.0373 -0.0525
    4SAPS   C26  445   1.082  -0.075   9.943  0.3048  0.2720  0.0394
    4SAPS   H6R  446   1.057  -0.155   9.871  1.7252 -0.8134  0.7153
    4SAPS   C27  447   1.161   0.044   9.887  1.0503 -0.5118  0.3449
    4SAPS   H7R  448   1.200   0.112   9.965 -0.5532 -0.1299  0.8513
    4SAPS   H7S  449   1.092   0.123   9.849 -0.3866 -1.4243  0.9505
    4SAPS   C28  450   1.254   0.007   9.781 -0.0715 -0.6076  0.4027
    4SAPS   H8R  451   1.317  -0.077   9.814  0.2123 -0.7051 -0.3739
    4SAPS   C29  452   1.280   0.062   9.666 -0.4456 -0.7353 -0.0506
    4SAPS   H9R  453   1.359   0.020   9.603 -0.2759 -2.6656  1.3456
    4SAPS  C210  454   1.207   0.185   9.610  0.5380 -0.5299 -0.2307
    4SAPS  H10R  455   1.263   0.277   9.638 -0.2463 -0.7401  2.2770
    4SAPS  H10S  456   1.110   0.205   9.660  0.1682  1.6065 -1.6733
    4SAPS  C211  457   1.176   0.171   9.466  0.8972  0.2332  0.2858
    4SAPS  H11R  458   1.171   0.066   9.432 -2.3856 -0.9059  3.6161
    4SAPS  C212  459   1.166   0.267   9.367  0.8670 -0.5293  0.1663
    4SAPS  H12R  460   1.132   0.234   9.268 -0.1778 -1.7889  0.9122
    4SAPS  C213  461   1.190   0.419   9.396  0.7188  0.5877  0.6454
    4SAPS  H13R  462   1.297   0.431   9.420  1.1836 -1.5747 -0.0827
    4SAPS  H13S  463   1.142   0.452   9.490 -1.2437 -0.2676  0.0142
    4SAPS  C214  464   1.147   0.520   9.288 -0.8753 -0.4098 -0.5206
    4SAPS  H14R  465   1.232   0.552   9.226 -0.0956  0.0602  0.7586
    4SAPS  C215  466   1.025   0.566   9.263  0.5334 -0.5450  0.3552
    4SAPS  H15R  467   1.010   0.618   9.167 -1.9878  2.0781  1.9802
    4SAPS  C216  468   0.898   0.523   9.342  0.0552 -0.0348  0.1627
    4SAPS  H16R  469   0.923   0.452   9.424 -0.2961 -0.4759 -0.1089
    4SAPS  H16S  470   0.836   0.464   9.271  1.5111 -0.0728 -1.1319
    4SAPS  C217  471   0.818   0.645   9.396  0.7254 -0.2264  0.3315
    4SAPS  H17R  472   0.887   0.713   9.449  0.9443 -0.2790  0.1124
    4SAPS  H17S  473   0.743   0.599   9.465 -1.7654  0.3628 -1.8133
    4SAPS  C218  474   0.726   0.713   9.290 -0.5852 -0.1767  0.5358
    4SAPS  H18R  475   0.781   0.767   9.210 -0.5576 -0.5468  0.3032
    4SAPS  H18S  476   0.668   0.787   9.350  0.0813  1.5629 -0.9111
    4SAPS  C219  477   0.627   0.618   9.212 -0.7607 -0.3822 -0.6378
    4SAPS  H19R  478   0.585   0.546   9.285  2.9978 -0.3015  1.9146
    4SAPS  H19S  479   0.692   0.549   9.154 -0.5986  0.3165 -1.3053
    4SAPS  C220  480   0.531   0.701   9.127 -0.2747  0.6292  0.0841
    4SAPS  H20R  481   0.598   0.771   9.073  0.1439 -0.1142 -0.3859
    4SAPS  H20S  482   0.452   0.753   9.185  0.3214  0.3287  1.1924
    4SAPS  H20T  483   0.485   0.643   9.044  1.9428 -1.8851  0.4763
    4SAPS   C33  484   0.692   0.438  10.304 -0.0213  0.8693  0.1299
    4SAPS   H3X  485   0.666   0.537  10.262  2.2417  0.1643 -3.3579
    4SAPS   H3Y  486   0.598   0.381  10.311  1.0486 -1.0243 -0.2667
    4SAPS   C34  487   0.780   0.367  10.197  0.0601 -0.5399 -0.5341
    4SAPS   H4X  488   0.761   0.258  10.205 -2.2417 -0.0573  1.8580
    4SAPS   H4Y  489   0.886   0.383  10.228 -0.1070 -1.5454  0.6655
    4SAPS   C35  490   0.751   0.430  10.055 -0.3732 -0.6279  0.1791
    4SAPS   H5X  491   0.812   0.523  10.057  1.8334 -1.9620 -1.1076
    4SAPS   H5Y  492   0.643   0.453  10.052 -0.9670 -3.1910 -0.3907
    4SAPS   C36  493   0.781   0.343   9.926  0.4691  0.2262 -0.2883
    4SAPS   H6X  494   0.725   0.247   9.932  0.1414  0.5000  1.7393
    4SAPS   H6Y  495   0.891   0.331   9.915  0.2944  0.1706 -2.3977
    4SAPS   C37  496   0.727   0.413   9.797 -0.2144 -0.0498 -0.1274
    4SAPS   H7X  497   0.767   0.516   9.786  1.8390 -0.5809  1.6758
    4SAPS   H7Y  498   0.616   0.422   9.807 -0.2695 -0.9414  0.2188
    4SAPS   C38  499   0.761   0.347   9.665  0.9481  0.0190  0.6792
    4SAPS   H8X  500   0.871   0.352   9.648  1.0100 -3.1621 -0.5732
    4SAPS   H8Y  501   0.716   0.404   9.581  1.3669 -3.3164 -2.0595
    4SAPS   C39  502   0.716   0.204   9.641  0.2738 -0.0350  0.2946
    4SAPS   H9X  503   0.609   0.185   9.661  0.6626 -3.5520 -0.1546
    4SAPS   H9Y  504   0.760   0.140   9.721  0.0164  0.4141  0.7947
    4SAPS  C310  505   0.758   0.146   9.503  0.6956 -0.0312 -0.2423
    4SAPS  H10X  506   0.757   0.035   9.517  1.8348  0.0880  0.9181
    4SAPS  H10Y  507   0.865   0.168   9.485  0.1871  2.5439 -0.5147
    4SAPS  C311  508   0.669   0.175   9.376  0.0636 -0.6915 -0.1093
    4SAPS  H11X  509   0.630   0.278   9.393 -2.2570 -1.6840  0.9674
    4SAPS  H11Y  510   0.573   0.121   9.383 -0.4291  0.1968  0.1330
    4SAPS  C312  511   0.741   0.151   9.242  0.5209  0.7228 -0.1704
    4SAPS  H12X  512   0.830   0.217   9.248  1.3465 -0.1527 -1.8703
    4SAPS  H12Y  513   0.680   0.181   9.154 -0.0691  0.6336  0.2042
    4SAPS  C313  514   0.781  -0.003   9.220  0.2604  0.4735  0.1269
    4SAPS  H13X  515   0.683  -0.053   9.230 -0.3208  1.6296  0.3931
    4SAPS  H13Y  516   0.847  -0.039   9.302 -0.0870 -0.0318  0.1902
    4SAPS  C314  517   0.855  -0.027   9.087 -0.0265 -0.2182 -0.4739
    4SAPS  H14X  518   0.913   0.064   9.062 -0.4569  0.5878  1.2992
    4SAPS  H14Y  519   0.781  -0.037   9.004 -1.7020  1.3725  0.7338
    4SAPS  C315  520   0.941  -0.149   9.085 -0.1715 -0.1377 -0.1837
    4SAPS  H15X  521   0.976  -0.180   8.984  1.8981 -3.7524  1.4680
    4SAPS  H15Y  522   0.881  -0.232   9.128 -1.6055  1.0738  0.2426
    4SAPS  C316  523   1.064  -0.133   9.177  0.2278  0.1138 -0.1686
    4SAPS  H16X  524   1.063  -0.190   9.272 -0.3842  0.5323  0.0833
    4SAPS  H16Y  525   1.073  -0.025   9.203  0.1937  0.5548 -1.8770
    4SAPS  C317  526   1.190  -0.178   9.107  0.4780  0.4336  0.1881
    4SAPS  H17X  527   1.198  -0.135   9.004 -1.3941  0.7426  0.1220
    4SAPS  H17Y  528   1.167  -0.285   9.088  1.4892 -0.4660  3.3545
    4SAPS  C318  529   1.317  -0.168   9.182  0.4144  0.6738 -0.4699
    4SAPS  H18X  530   1.322  -0.065   9.224 -1.7410  0.2187  1.0752
    4SAPS  H18Y  531   1.398  -0.192   9.109 -1.1961 -3.0428 -1.2690
    4SAPS  H18Z  532   1.319  -0.240   9.266 -0.0871 -1.2636 -2.0361
    5SAPS     N  533   6.095   3.581  10.965  0.0997 -0.0950  0.1385
    5SAPS   HN1  534   6.168   3.513  10.995 -1.4656 -0.9833  2.2115
    5SAPS   HN2  535   6.028   3.524  10.910  0.3367 -1.9190  1.6406
    5SAPS   HN3  536   6.132   3.657  10.905  0.7872 -0.9206 -0.5085
    5SAPS   C12  537   6.017   3.649  11.074 -0.3913  0.2511  0.2684
    5SAPS  H12A  538   5.974   3.572  11.137  0.2039  0.1615  0.5637
    5SAPS   C13  539   6.107   3.726  11.164  0.0940  0.6864 -0.4531
    5SAPS  O13A  540   6.231   3.721  11.164  0.3194  0.0678  0.0160
    5SAPS  O13B  541   6.052   3.779  11.269 -0.0720 -0.1426 -0.5299
    5SAPS   C11  542   5.905   3.736  11.005 -0.4498 -0.3073  0.1069
    5SAPS  H11A  543   5.945   3.828  10.957  0.1868 -1.4760 -1.7442
    5SAPS  H11B  544   5.847   3.776  11.090 -0.8610  1.7240 -1.0643
    5SAPS     P  545   5.725   3.558  10.954  0.5359 -0.1900  0.3201
    5SAPS   O13  546   5.813   3.445  10.991 -0.2930  0.3605 -0.5991
    5SAPS   O14  547   5.633   3.614  11.057 -0.2571  0.2044 -0.2358
    5SAPS   O12  548   5.822   3.674  10.908  0.4263  0.6392 -0.0039
    5SAPS   O11  549   5.647   3.519  10.823  0.2638  0.6771  0.5357
    5SAPS    C1  550   5.597   3.630  10.746  0.4967  0.2035  0.7399
    5SAPS    HA  551   5.558   3.711  10.811 -1.6727 -0.7581  0.7166
    5SAPS    HB  552   5.682   3.673  10.689  0.0066 -0.5357 -0.5916
    5SAPS    C2  553   5.479   3.589  10.653  0.2874  0.4872 -0.0781
    5SAPS    HS  554   5.518   3.502  10.597 -0.7333  0.0683 -0.1568
    5SAPS   O21  555   5.446   3.703  10.572 -0.3042  0.4987  0.2772
    5SAPS   C21  556   5.504   3.698  10.449  0.0174  0.0570  0.2325
    5SAPS   O22  557   5.575   3.610  10.401 -0.1181  0.3212 -0.5174
    5SAPS   C22  558   5.453   3.823  10.373 -0.0629 -0.2378 -0.1231
    5SAPS   H2R  559   5.348   3.810  10.338  0.1259 -2.1817 -0.0628
    5SAPS   H2S  560   5.477   3.910  10.438  3.8083 -0.4526 -1.0684
    5SAPS    C3  561   5.359   3.551  10.755 -0.1145  0.1702  0.6290
    5SAPS    HX  562   5.345   3.637  10.824  0.0946  1.6515 -1.1158
    5SAPS    HY  563   5.369   3.460  10.818 -0.1412  0.4139  0.9886
    5SAPS   O31  564   5.228   3.543  10.699  0.0114 -0.1744  0.4992
    5SAPS   C31  565   5.204   3.457  10.604 -0.6562  0.1284  0.2975
    5SAPS   O32  566   5.290   3.383  10.556  0.0762 -0.2886  0.2243
    5SAPS   C32  567   5.053   3.469  10.557 -0.1239  0.0469 -0.7985
    5SAPS   H2X  568   5.010   3.543  10.628  1.1290  2.0876 -2.0408
    5SAPS   H2Y  569   5.003   3.370  10.562  1.8386 -0.9795 -0.2818
    5SAPS   C23  570   5.541   3.832  10.249  0.0853 -0.3749 -0.2569
    5SAPS   H3R  571   5.515   3.750  10.178  0.6500 -0.5608 -0.2518
    5SAPS   H3S  572   5.647   3.831  10.280  0.0820 -0.5820 -0.2530
    5SAPS   C24  573   5.529   3.960  10.162 -0.1119 -0.9308 -0.2452
    5SAPS   H4R  574   5.601   3.953  10.078 -0.8447 -1.5236 -0.8488
    5SAPS   H4S  575   5.553   4.045  10.230 -1.5136  0.2330 -1.1158
    5SAPS   C25  576   5.388   3.981  10.108  0.2741 -0.4707  0.1102
    5SAPS   H5R  577   5.318   4.028  10.178  1.6928  0.4350  0.9797
    5SAPS   C26  578   5.352   3.939   9.986  0.0056 -0.5860 -0.4738
    5SAPS   H6R  579   5.251   3.962   9.948  0.1024  1.1166  0.2056
    5SAPS   C27  580   5.439   3.866   9.888 -0.1742 -0.3219  0.0089
    5SAPS   H7R  581   5.528   3.815   9.932 -0.3688 -0.6600  0.0153
    5SAPS   H7S  582   5.478   3.930   9.807 -0.8282 -0.6082 -0.5364
    5SAPS   C28  583   5.354   3.753   9.828  0.2412 -0.0428  0.2405
    5SAPS   H8R  584   5.369   3.659   9.885  0.7069 -1.3349 -1.8901
    5SAPS   C29  585   5.289   3.742   9.707 -0.9496  0.3263 -0.3908
    5SAPS   H9R  586   5.224   3.653   9.698 -0.5708  0.0193 -0.0830
    5SAPS  C210  587   5.272   3.846   9.605  0.7424  0.4532  0.8449
    5SAPS  H10R  588   5.352   3.923   9.602 -0.8372  2.1631  0.6010
    5SAPS  H10S  589   5.187   3.902   9.650 -0.8848 -0.0910 -1.3313
    5SAPS  C211  590   5.240   3.782   9.465 -0.6487  0.6273 -0.0099
    5SAPS  H11R  591   5.321   3.723   9.421  1.0164  1.6063  1.5727
    5SAPS  C212  592   5.124   3.769   9.400  0.5116  0.2965 -0.1144
    5SAPS  H12R  593   5.130   3.730   9.297  1.8736 -1.0131  0.4295
    5SAPS  C213  594   5.004   3.844   9.438  0.1222 -0.8841 -1.1425
    5SAPS  H13R  595   5.008   3.954   9.428 -2.1693 -0.6787 -0.3291
    5SAPS  H13S  596   4.997   3.833   9.548 -0.5275 -0.4419 -1.1392
    5SAPS  C214  597   4.871   3.802   9.381  0.0611 -0.0134  0.6558
    5SAPS  H14R  598   4.810   3.740   9.448 -2.3472 -0.3040 -1.6240
    5SAPS  C215  599   4.826   3.832   9.256 -0.1055  0.3567  0.6308
    5SAPS  H15R  600   4.735   3.781   9.224  0.8874 -0.4393 -1.0802
    5SAPS  C216  601   4.901   3.900   9.151  0.2041  0.3379 -0.2121
    5SAPS  H16R  602   4.915   3.834   9.063 -0.1604 -0.4187  0.2889
    5SAPS  H16S  603   4.997   3.950   9.178  0.6582  1.2706 -3.1801
    5SAPS  C217  604   4.808   4.019   9.111 -0.3196  0.2708 -0.1548
    5SAPS  H17R  605   4.795   4.097   9.189 -1.0311 -0.4097  0.4161
    5SAPS  H17S  606   4.706   3.990   9.077  0.4380 -1.1295 -1.3486
    5SAPS  C218  607   4.865   4.103   8.997  0.2642 -0.0531 -0.3094
    5SAPS  H18R  608   4.951   4.165   9.031 -0.1421  0.0278  0.5739
    5SAPS  H18S  609   4.910   4.038   8.918 -1.0177 -2.0096  0.5136
    5SAPS  C219  610   4.760   4.186   8.918 -0.4773  0.1383  0.4009
    5SAPS  H19R  611   4.822   4.262   8.866 -1.3035  0.0640 -0.7253
    5SAPS  H19S  612   4.694   4.236   8.992  1.7744  0.7547  2.1437
    5SAPS  C220  613   4.677   4.102   8.815 -0.1338  0.6073  0.0306
    5SAPS  H20R  614   4.738   4.054   8.735  0.0488  1.4987 -0.3825
    5SAPS  H20S  615   4.609   4.170   8.759  0.0753  1.0748  0.3404
    5SAPS  H20T  616   4.620   4.020   8.863 -1.3017  0.4759 -1.4792
    5SAPS   C33  617   5.057   3.549  10.421  0.6398 -0.2298 -0.8490
    5SAPS   H3X  618   5.141   3.622  10.418 -1.3647  2.2079 -0.5606
    5SAPS   H3Y  619   4.962   3.606  10.424  2.0264  2.1309  0.8427
    5SAPS   C34  620   5.068   3.457  10.307 -0.5899 -0.2530 -0.0607
    5SAPS   H4X  621   4.979   3.393  10.320 -0.5192 -0.3143  0.1226
    5SAPS   H4Y  622   5.168   3.410  10.323 -0.7488 -0.2113  1.1917
    5SAPS   C35  623   5.051   3.537  10.169 -0.4783  0.5734  0.0223
    5SAPS   H5X  624   5.139   3.603  10.149 -0.5812  0.8327  0.4174
    5SAPS   H5Y  625   4.963   3.603  10.179 -1.7787 -0.6355 -2.5890
    5SAPS   C36  626   5.025   3.445  10.043 -0.4701 -1.1286  0.2181
    5SAPS   H6X  627   4.918   3.418  10.061 -0.4828 -1.7558 -0.7361
    5SAPS   H6Y  628   5.091   3.356  10.048  1.0440 -0.1246 -0.9915
    5SAPS   C37  629   5.028   3.519   9.903 -0.3082 -0.3898  0.0966
    5SAPS   H7X  630   5.124   3.576   9.895 -0.3055  0.0795  2.5850
    5SAPS   H7Y  631   4.947   3.594   9.917 -0.7321 -1.1447  2.0990
    5SAPS   C38  632   4.989   3.427   9.792 -0.0948 -0.4382 -0.3321
    5SAPS   H8X  633   4.903   3.363   9.821  0.1004 -1.3748 -1.7055
    5SAPS   H8Y  634   5.076   3.358   9.789  0.9447  0.8066  0.3770
    5SAPS   C39  635   4.975   3.479   9.649  0.1160  0.4017 -0.6686
    5SAPS   H9X  636   5.052   3.556   9.627 -0.8788  0.4343 -4.8315
    5SAPS   H9Y  637   4.872   3.522   9.648 -0.1738 -0.2733 -0.3386
    5SAPS  C310  638   4.995   3.366   9.546  0.2151 -0.5636 -0.7955
    5SAPS  H10X  639   4.912   3.293   9.560 -1.1283  1.1488  0.6224
    5SAPS  H10Y  640   5.090   3.316   9.573  1.0641  1.3796 -0.0511
    5SAPS  C311  641   4.996   3.423   9.401 -0.7097  0.6035 -0.1622
    5SAPS  H11X  642   5.072   3.503   9.394  0.0212  0.0299  0.8725
    5SAPS  H11Y  643   4.902   3.478   9.379 -0.8834  1.8462  3.0853
    5SAPS  C312  644   5.008   3.320   9.289  0.7891  0.7948 -0.2186
    5SAPS  H12X  645   4.931   3.240   9.291  0.5598  0.9875 -0.9241
    5SAPS  H12Y  646   5.105   3.266   9.300  1.1215  1.6415  1.1565
    5SAPS  C313  647   5.015   3.396   9.155 -0.8670  0.7825 -0.3383
    5SAPS  H13X  648   5.092   3.473   9.177  0.9184 -0.6439 -1.2557
    5SAPS  H13Y  649   4.922   3.447   9.122  0.3761  2.1261 -1.9286
    5SAPS  C314  650   5.050   3.306   9.033 -0.1061 -0.2681 -0.2407
    5SAPS  H14X  651   5.130   3.232   9.056  1.5429  0.9706 -1.7207
    5SAPS  H14Y  652   5.080   3.382   8.958  1.4413  1.1028  1.6290
    5SAPS  C315  653   4.925   3.224   8.996  0.0961 -0.4422  0.1927
    5SAPS  H15X  654   4.860   3.310   8.968  0.3098  0.0154  1.0480
    5SAPS  H15Y  655   4.890   3.174   9.089  1.4415  0.5880  1.2913
    5SAPS  C316  656   4.946   3.122   8.882  0.3307 -0.4793  0.7596
    5SAPS  H16X  657   4.962   3.167   8.781  1.1009  0.7634  1.4001
    5SAPS  H16Y  658   4.856   3.060   8.865  1.0245 -1.2895 -0.0872
    5SAPS  C317  659   5.060   3.028   8.897 -0.3437 -0.2861  0.6477
    5SAPS  H17X  660   5.043   2.995   9.002 -1.9239  2.4281  1.3300
    5SAPS  H17Y  661   5.156   3.083   8.896  1.9119 -3.8324 -1.9493
    5SAPS  C318  662   5.056   2.910   8.799 -0.2930  0.1175  0.3109
    5SAPS  H18X  663   4.973   2.840   8.824  0.4689 -1.9770 -2.5303
    5SAPS  H18Y  664   5.151   2.854   8.799 -1.3086 -1.6951 -0.9385
    5SAPS  H18Z  665   5.028   2.952   8.699  0.1687 -0.0996  0.0873
    6SAPS     N  666   5.543   4.919  11.102 -0.2076 -0.1145 -0.2795
    6SAPS   HN1  667   5.525   4.963  11.195 -0.5288  0.7990 -0.7675
    6SAPS   HN2  668   5.645   4.924  11.081  0.4810 -4.3988  0.9668
    6SAPS   HN3  669   5.485   4.966  11.030 -2.6851 -2.3332  0.1134
    6SAPS   C12  670   5.512   4.777  11.105 -0.8421  0.0879 -0.3339
    6SAPS  H12A  671   5.578   4.745  11.026  2.7256  2.9993  1.1601
    6SAPS   C13  672   5.557   4.709  11.237 -0.3159  0.2005 -0.5091
    6SAPS  O13A  673   5.587   4.783  11.338  0.3467 -0.5262  0.8436
    6SAPS  O13B  674   5.519   4.588  11.255 -0.1816 -0.1476  0.3768
    6SAPS   C11  675   5.356   4.752  11.105 -0.0015 -1.4512 -0.5210
    6SAPS  H11A  676   5.304   4.775  11.200  3.2488 -0.9464  1.2598
    6SAPS  H11B  677   5.353   4.645  11.077 -0.8055 -1.4437 -0.4995
    6SAPS     P  678   5.151   4.811  10.941  0.0300  0.0345  0.0106
    6SAPS   O13  679   5.062   4.841  11.056 -0.2382  0.9388  0.1367
    6SAPS   O14  680   5.131   4.878  10.807  0.3285  0.1747 -0.1977
    6SAPS   O12  681   5.298   4.835  11.000  0.1956 -0.3301 -0.4994
    6SAPS   O11  682   5.168   4.653  10.930 -0.5316 -0.1434 -0.5257
    6SAPS    C1  683   5.260   4.581  10.847  0.1343 -0.2108 -0.7914
    6SAPS    HA  684   5.328   4.660  10.808  1.1577  0.3946  1.9565
    6SAPS    HB  685   5.308   4.513  10.921 -1.1444 -2.2336 -1.7341
    6SAPS    C2  686   5.183   4.500  10.744 -0.6151  0.2845  0.0243
    6SAPS    HS  687   5.074   4.511  10.764 -0.5229 -1.4193  1.7879
    6SAPS   O21  688   5.218   4.367  10.755 -0.0988  0.1865  0.1018
    6SAPS   C21  689   5.124   4.277  10.707 -0.0190 -0.7000  0.7125
    6SAPS   O22  690   5.011   4.309  10.671 -0.0913  0.2504  0.0700
    6SAPS   C22  691   5.177   4.130  10.694 -0.3271 -0.8183  0.2847
    6SAPS   H2R  692   5.284   4.150  10.673 -0.7482  1.6988  0.2507
    6SAPS   H2S  693   5.182   4.097  10.800 -0.9190  1.6668  1.1304
    6SAPS    C3  694   5.209   4.559  10.605  0.3555 -0.7190  0.0521
    6SAPS    HX  695   5.315   4.540  10.580  1.1373  2.8380  0.0957
    6SAPS    HY  696   5.214   4.669  10.621  2.3236 -0.4105 -2.0732
    6SAPS   O31  697   5.116   4.513  10.508 -0.1239  0.5443  0.5708
    6SAPS   C31  698   4.998   4.575  10.512 -0.2455 -0.1706 -0.6680
    6SAPS   O32  699   4.982   4.675  10.575 -0.6755 -0.1745 -0.2381
    6SAPS   C32  700   4.903   4.507  10.415 -0.1007 -0.0500 -0.3619
    6SAPS   H2X  701   4.819   4.471  10.478  0.4098 -0.7668 -0.0796
    6SAPS   H2Y  702   4.951   4.420  10.366  0.7398 -0.2351  0.7434
    6SAPS   C23  703   5.115   4.032  10.589  0.2470  0.1462  0.5759
    6SAPS   H3R  704   5.008   4.020  10.616  0.0741 -0.8739 -0.4691
    6SAPS   H3S  705   5.155   3.929  10.603  0.4598  0.2619  0.8236
    6SAPS   C24  706   5.154   4.055  10.440  0.1486 -0.2807  0.3119
    6SAPS   H4R  707   5.159   3.954  10.396  0.2539 -0.3462  0.4731
    6SAPS   H4S  708   5.256   4.096  10.456 -0.5864  1.3068  1.2965
    6SAPS   C25  709   5.061   4.150  10.375 -0.0396  0.1777  0.3327
    6SAPS   H5R  710   5.070   4.255  10.408  0.3394  0.0250  0.7318
    6SAPS   C26  711   4.964   4.116  10.291 -0.3240 -0.4002  0.3041
    6SAPS   H6R  712   4.909   4.199  10.246 -0.0955 -0.0083  0.7361
    6SAPS   C27  713   4.917   3.978  10.247 -0.4765  0.1265 -0.6281
    6SAPS   H7R  714   4.809   3.984  10.222 -0.8145 -1.4963  0.2641
    6SAPS   H7S  715   4.899   3.917  10.338 -0.9250  1.5998  0.2941
    6SAPS   C28  716   5.008   3.905  10.151  0.7147 -0.7788  0.0673
    6SAPS   H8R  717   5.105   3.870  10.188  1.7678 -1.0275 -2.6579
    6SAPS   C29  718   4.976   3.881  10.023 -0.1206 -1.1704  0.0651
    6SAPS   H9R  719   5.057   3.841   9.961  0.8721 -0.6885  1.0230
    6SAPS  C210  720   4.849   3.923   9.961  0.2506 -0.0649  1.0826
    6SAPS  H10R  721   4.800   4.009  10.011  0.2636  0.7395 -0.2337
    6SAPS  H10S  722   4.779   3.836   9.962 -2.7206  2.1919  0.8631
    6SAPS  C211  723   4.872   3.938   9.815 -0.2274  0.2357 -0.3591
    6SAPS  H11R  724   4.869   3.842   9.762 -0.2220  0.3798 -0.6271
    6SAPS  C212  725   4.885   4.058   9.749 -0.7357 -0.5897 -0.6564
    6SAPS  H12R  726   4.916   4.053   9.644  2.6845  1.4294  0.1155
    6SAPS  C213  727   4.898   4.197   9.795  0.3979  0.0016 -0.4576
    6SAPS  H13R  728   4.978   4.245   9.735 -1.7130  0.6097 -2.9352
    6SAPS  H13S  729   4.936   4.189   9.899  0.7443  1.5573 -0.4377
    6SAPS  C214  730   4.757   4.250   9.790  0.8466 -0.1279 -0.7042
    6SAPS  H14R  731   4.683   4.194   9.850  0.3768  0.0758 -1.0995
    6SAPS  C215  732   4.700   4.341   9.711  0.0043 -0.1092 -0.5706
    6SAPS  H15R  733   4.591   4.351   9.722 -0.3091 -3.0211 -0.3468
    6SAPS  C216  734   4.782   4.414   9.605 -0.1356  0.2924  0.6351
    6SAPS  H16R  735   4.880   4.371   9.576 -0.3393  1.0971 -1.3921
    6SAPS  H16S  736   4.800   4.520   9.633  0.2088  0.5052 -0.3759
    6SAPS  C217  737   4.691   4.424   9.483  0.4908  0.1720 -0.1225
    6SAPS  H17R  738   4.599   4.483   9.506 -0.2308 -0.1928 -1.8767
    6SAPS  H17S  739   4.661   4.323   9.449  1.3554  0.2187 -1.0652
    6SAPS  C218  740   4.764   4.489   9.363  0.2257 -0.3678 -0.4731
    6SAPS  H18R  741   4.865   4.442   9.363  0.6456  0.4717  1.1362
    6SAPS  H18S  742   4.777   4.598   9.377 -0.8783 -0.4851  1.9507
    6SAPS  C219  743   4.697   4.458   9.226 -0.2801 -0.3397 -0.0922
    6SAPS  H19R  744   4.587   4.454   9.244 -0.2771 -0.1875 -0.0415
    6SAPS  H19S  745   4.721   4.355   9.193  2.0964  0.6356 -1.6731
    6SAPS  C220  746   4.739   4.558   9.122 -0.6053 -0.3619  0.4697
    6SAPS  H20R  747   4.670   4.645   9.118  0.6839  0.7792  1.7714
    6SAPS  H20S  748   4.734   4.519   9.018 -1.3997  1.5989 -0.2948
    6SAPS  H20T  749   4.843   4.596   9.137 -0.3638 -1.5536  2.0533
    6SAPS   C33  750   4.857   4.604  10.306 -0.4517  0.7621  0.3039
    6SAPS   H3X  751   4.845   4.709  10.339  2.6815  1.7543 -1.3720
    6SAPS   H3Y  752   4.764   4.566  10.259  0.2630 -1.0383  0.2499
    6SAPS   C34  753   4.953   4.617  10.178 -0.4165  0.9344 -0.9078
    6SAPS   H4X  754   4.995   4.517  10.155 -0.7045  0.2580  1.2868
    6SAPS   H4Y  755   5.036   4.686  10.205 -0.4303  0.8734 -0.7125
    6SAPS   C35  756   4.883   4.685  10.063  0.1227 -0.3214 -0.1335
    6SAPS   H5X  757   4.873   4.790  10.098  1.7282  0.0998 -0.8638
    6SAPS   H5Y  758   4.780   4.657  10.032 -0.5836  1.1174  0.8216
    6SAPS   C36  759   4.970   4.691   9.929  0.4789 -0.0593 -0.3569
    6SAPS   H6X  760   4.961   4.585   9.898 -2.0090  0.0738 -0.2926
    6SAPS   H6Y  761   5.076   4.713   9.956  1.2893 -1.5249 -2.0808
    6SAPS   C37  762   4.917   4.786   9.824  0.3284 -0.6942  0.3498
    6SAPS   H7X  763   4.894   4.876   9.886  2.2095 -1.3771  2.1774
    6SAPS   H7Y  764   4.825   4.758   9.769  0.4346  0.8653 -0.6783
    6SAPS   C38  765   5.013   4.824   9.713  0.4748  0.3766 -0.3480
    6SAPS   H8X  766   5.099   4.880   9.754 -1.3235  3.3706 -0.3884
    6SAPS   H8Y  767   4.958   4.896   9.649 -1.0874 -0.6312 -0.2114
    6SAPS   C39  768   5.053   4.703   9.622 -0.7063 -0.1651  0.0402
    6SAPS   H9X  769   4.955   4.658   9.596 -0.3565 -2.4203  2.2169
    6SAPS   H9Y  770   5.125   4.636   9.674 -2.0434  0.1018  2.3639
    6SAPS  C310  771   5.121   4.749   9.490  0.5144 -0.4362  0.3602
    6SAPS  H10X  772   5.129   4.657   9.429 -0.3762 -1.6304  1.9651
    6SAPS  H10Y  773   5.227   4.782   9.502  0.3460  0.5590 -0.7498
    6SAPS  C311  774   5.057   4.862   9.412  0.2920 -0.0430  0.1585
    6SAPS  H11X  775   5.075   4.960   9.461 -0.9568 -0.6598  1.9438
    6SAPS  H11Y  776   4.948   4.839   9.410 -0.0442  1.0193  2.5853
    6SAPS  C312  777   5.112   4.876   9.269  0.3201 -0.2602  0.5258
    6SAPS  H12X  778   5.106   4.781   9.211  0.3433  1.2089 -2.0400
    6SAPS  H12Y  779   5.219   4.907   9.264  0.4248 -0.8130 -2.4405
    6SAPS  C313  780   5.021   4.972   9.184 -0.1531  0.0460 -0.3233
    6SAPS  H13X  781   5.024   5.069   9.237 -2.5872 -0.5134  0.9730
    6SAPS  H13Y  782   4.915   4.944   9.198 -1.1769  3.8533  0.5758
    6SAPS  C314  783   5.070   4.984   9.040  0.1622 -0.3240  0.1080
    6SAPS  H14X  784   5.055   4.881   9.000 -1.2553 -0.0165 -0.2083
    6SAPS  H14Y  785   5.180   5.001   9.033  0.4602 -1.6071  1.3288
    6SAPS  C315  786   4.982   5.087   8.962  0.7807 -0.4981  0.4176
    6SAPS  H15X  787   4.995   5.182   9.016 -2.3859  0.5731 -0.4396
    6SAPS  H15Y  788   4.874   5.060   8.961  0.6496  0.0217  0.8153
    6SAPS  C316  789   5.039   5.112   8.824  0.2898 -0.0627  0.7438
    6SAPS  H16X  790   5.029   5.010   8.780  1.6604 -0.6726  1.7603
    6SAPS  H16Y  791   5.146   5.141   8.828  0.5139 -0.9428  1.4057
    6SAPS  C317  792   4.954   5.212   8.739 -0.2125 -0.3908 -0.2943
    6SAPS  H17X  793   5.003   5.311   8.725  0.4969 -0.5323  1.0397
    6SAPS  H17Y  794   4.873   5.245   8.807  2.0079  1.6234  1.5283
    6SAPS  C318  795   4.879   5.172   8.606 -0.1854 -0.1086  0.8474
    6SAPS  H18X  796   4.946   5.136   8.524  0.8431 -2.0313  2.4342
    6SAPS  H18Y  797   4.826   5.258   8.560 -0.0659  0.3099  1.4795
    6SAPS  H18Z  798   4.814   5.083   8.622  0.1404 -0.2885  1.1869
    7SAPS     N  799   6.311   0.750  11.166  0.3507 -0.5690  0.1755
    7SAPS   HN1  800   6.382   0.763  11.091  0.5707  4.6157  0.8723
    7SAPS   HN2  801   6.213   0.731  11.137  0.2796 -0.5161  0.3857
    7SAPS   HN3  802   6.310   0.835  11.227  1.7153 -0.8364  0.5921
    7SAPS   C12  803   6.352   0.623  11.231  0.6652 -0.1701  0.1647
    7SAPS  H12A  804   6.425   0.648  11.307  2.7695 -0.9578 -1.4916
    7SAPS   C13  805   6.228   0.534  11.276  0.1759 -0.3050 -0.6215
    7SAPS  O13A  806   6.106   0.574  11.261 -0.0795  0.8405  0.2421
    7SAPS  O13B  807   6.251   0.435  11.347  0.3545 -0.1600  0.2536
    7SAPS   C11  808   6.417   0.540  11.120 -1.3039  0.0006 -1.2346
    7SAPS  H11A  809   6.352   0.464  11.071 -0.3349 -0.5646 -1.6970
    7SAPS  H11B  810   6.489   0.475  11.174  0.4044  0.9198 -2.3048
    7SAPS     P  811   6.569   0.548  10.907 -0.3825 -0.2397 -0.0250
    7SAPS   O13  812   6.611   0.642  10.803  0.1300  0.0778  0.3819
    7SAPS   O14  813   6.677   0.467  10.963 -0.1338  0.3135  0.3534
    7SAPS   O12  814   6.497   0.619  11.026 -0.0900 -0.2463  0.4161
    7SAPS   O11  815   6.455   0.455  10.843  0.8643  0.2218 -0.3051
    7SAPS    C1  816   6.340   0.526  10.797 -0.3780 -0.4237 -0.0557
    7SAPS    HA  817   6.271   0.570  10.872 -1.8169 -0.6283 -1.1920
    7SAPS    HB  818   6.365   0.606  10.725  0.4364 -1.7818 -1.3500
    7SAPS    C2  819   6.247   0.438  10.716  0.0758 -0.2001 -0.7213
    7SAPS    HS  820   6.208   0.353  10.776 -0.7983 -0.2703 -1.3800
    7SAPS   O21  821   6.322   0.384  10.605 -0.2575  0.0138 -0.2371
    7SAPS   C21  822   6.288   0.273  10.556  0.2741 -0.3181 -0.1485
    7SAPS   O22  823   6.221   0.178  10.603  0.3414  0.7709  0.4836
    7SAPS   C22  824   6.364   0.264  10.422  0.1105  0.5761  0.0929
    7SAPS   H2R  825   6.453   0.330  10.429 -0.5325  1.4765  0.0380
    7SAPS   H2S  826   6.423   0.170  10.419  1.2424  1.2502  0.8288
    7SAPS    C3  827   6.122   0.520  10.674 -0.0440 -0.2135 -0.0380
    7SAPS    HX  828   6.148   0.596  10.598 -2.7736 -0.2942 -1.1547
    7SAPS    HY  829   6.088   0.582  10.759  0.1236 -0.0891 -0.0606
    7SAPS   O31  830   6.014   0.442  10.615  0.0930 -0.5146 -0.9870
    7SAPS   C31  831   5.949   0.355  10.688 -0.5891 -0.5634  0.0947
    7SAPS   O32  832   5.955   0.348  10.813  0.3709 -0.2851  0.2339
    7SAPS   C32  833   5.860   0.278  10.595 -0.4669 -0.0039  0.3493
    7SAPS   H2X  834   5.918   0.264  10.502 -2.2956  2.7905 -1.3781
    7SAPS   H2Y  835   5.769   0.332  10.559 -1.7360 -1.3596  1.3747
    7SAPS   C23  836   6.274   0.297  10.298 -0.1737  0.0092 -0.9058
    7SAPS   H3R  837   6.341   0.327  10.215 -0.3985 -0.7582 -1.3706
    7SAPS   H3S  838   6.215   0.387  10.326 -0.2039 -0.0183 -0.8804
    7SAPS   C24  839   6.195   0.175  10.253 -0.0679 -0.0279  0.9585
    7SAPS   H4R  840   6.147   0.120  10.336  0.0159 -1.5508  0.0435
    7SAPS   H4S  841   6.264   0.094  10.221 -1.1549 -1.5710  2.3376
    7SAPS   C25  842   6.083   0.192  10.156 -0.4415 -0.1226 -0.7997
    7SAPS   H5R  843   5.988   0.224  10.204  1.7209  3.4133  1.6192
    7SAPS   C26  844   6.089   0.182  10.024 -0.7082 -0.2864  0.3487
    7SAPS   H6R  845   5.991   0.200   9.978 -0.4374  0.9426  0.2235
    7SAPS   C27  846   6.216   0.151   9.952 -0.6754 -0.2899 -0.4350
    7SAPS   H7R  847   6.240   0.044   9.964  1.5753  0.1980 -0.0648
    7SAPS   H7S  848   6.299   0.201  10.007 -0.4387  1.7510 -2.4553
    7SAPS   C28  849   6.215   0.201   9.814  0.0802  0.3420  0.1306
    7SAPS   H8R  850   6.194   0.309   9.805  1.7441  0.6871  0.1561
    7SAPS   C29  851   6.224   0.131   9.700  0.4863  0.4885 -0.0307
    7SAPS   H9R  852   6.244   0.194   9.612 -3.6502  0.8004 -0.9860
    7SAPS  C210  853   6.260  -0.014   9.690  0.6898  0.0346 -0.2868
    7SAPS  H10R  854   6.348  -0.027   9.756 -0.3493  1.4723  1.4836
    7SAPS  H10S  855   6.293  -0.045   9.589 -0.0199  2.2664 -1.2527
    7SAPS  C211  856   6.151  -0.112   9.733  0.0874 -0.6440  1.2575
    7SAPS  H11R  857   6.093  -0.095   9.824 -1.2258 -2.2774  0.7684
    7SAPS  C212  858   6.109  -0.227   9.668  0.4765 -0.3791 -0.0503
    7SAPS  H12R  859   6.029  -0.284   9.718 -0.0126  0.6946  0.4193
    7SAPS  C213  860   6.156  -0.294   9.544  0.8769  0.3512 -0.1504
    7SAPS  H13R  861   6.227  -0.373   9.575  1.2794  1.3823  1.7223
    7SAPS  H13S  862   6.230  -0.230   9.491  0.9472 -0.3438 -0.9033
    7SAPS  C214  863   6.044  -0.328   9.448  0.1586 -0.6030  0.5698
    7SAPS  H14R  864   5.946  -0.279   9.459  0.4847 -0.0800  1.2448
    7SAPS  C215  865   6.047  -0.403   9.339 -0.6825  1.0845  0.0570
    7SAPS  H15R  866   5.962  -0.419   9.271  0.3657 -0.9218 -0.8523
    7SAPS  C216  867   6.167  -0.487   9.294  0.1196  0.5170 -0.0114
    7SAPS  H16R  868   6.135  -0.568   9.225  1.1166  0.5087 -0.4843
    7SAPS  H16S  869   6.215  -0.537   9.380  0.1219 -1.4171 -1.0868
    7SAPS  C217  870   6.263  -0.395   9.214 -0.1337 -0.7511  0.1483
    7SAPS  H17R  871   6.351  -0.462   9.226 -0.4485 -1.0861  0.6006
    7SAPS  H17S  872   6.292  -0.300   9.265 -1.0798 -0.7035  0.6181
    7SAPS  C218  873   6.217  -0.380   9.069 -0.0126 -0.6953  0.5247
    7SAPS  H18R  874   6.116  -0.337   9.056 -1.2812 -2.9194  2.2542
    7SAPS  H18S  875   6.207  -0.482   9.025  0.9050  0.7142 -3.3219
    7SAPS  C219  876   6.315  -0.290   8.994 -0.2683 -0.3571 -0.3815
    7SAPS  H19R  877   6.407  -0.348   8.972  0.7068  0.5633  1.1440
    7SAPS  H19S  878   6.344  -0.209   9.064 -1.0230 -1.1716  0.9183
    7SAPS  C220  879   6.253  -0.233   8.869 -0.2054 -0.4186  0.3899
    7SAPS  H20R  880   6.213  -0.314   8.803 -0.4100 -0.1995  0.2454
    7SAPS  H20S  881   6.337  -0.186   8.813  0.0405 -0.3306  0.8292
    7SAPS  H20T  882   6.172  -0.161   8.894  0.5125  0.8372 -0.7556
    7SAPS   C33  883   5.814   0.141  10.648  0.5308  0.0637 -0.2125
    7SAPS   H3X  884   5.745   0.152  10.733  0.0496  0.4504 -0.6458
    7SAPS   H3Y  885   5.899   0.087  10.694  0.4988  0.7053  0.6221
    7SAPS   C34  886   5.751   0.056  10.536  0.3370  0.6716 -0.2627
    7SAPS   H4X  887   5.779  -0.050  10.550  0.5702  0.5661 -1.4612
    7SAPS   H4Y  888   5.787   0.090  10.437 -2.1567  0.5843 -1.2779
    7SAPS   C35  889   5.599   0.067  10.529  0.4090  0.3454 -0.2006
    7SAPS   H5X  890   5.580   0.176  10.524 -0.9506  0.1269 -0.1772
    7SAPS   H5Y  891   5.542   0.019  10.611 -1.9538 -1.4296 -2.6724
    7SAPS   C36  892   5.544   0.004  10.396 -0.5852 -0.7428  0.0441
    7SAPS   H6X  893   5.543  -0.107  10.405  0.6607 -1.2075 -3.6770
    7SAPS   H6Y  894   5.607   0.015  10.305  1.0844 -4.4502  0.5663
    7SAPS   C37  895   5.397   0.044  10.363  0.1093  0.4692 -0.0657
    7SAPS   H7X  896   5.331   0.034  10.453 -1.9390 -1.3019 -1.6431
    7SAPS   H7Y  897   5.365  -0.031  10.287 -2.8101  1.6164 -0.0842
    7SAPS   C38  898   5.394   0.170  10.276 -0.4323 -0.0396 -0.1267
    7SAPS   H8X  899   5.470   0.160  10.196 -1.7448  1.4402 -1.6562
    7SAPS   H8Y  900   5.406   0.253  10.349 -1.8270 -1.8908  2.3689
    7SAPS   C39  901   5.256   0.194  10.204  0.2892 -0.3079  0.4808
    7SAPS   H9X  902   5.286   0.268  10.127  0.4108 -2.2303 -1.4281
    7SAPS   H9Y  903   5.193   0.252  10.275  0.4276 -0.6080  0.8545
    7SAPS  C310  904   5.186   0.074  10.143 -0.0804  0.2682  0.3830
    7SAPS  H10X  905   5.164   0.003  10.226 -2.1328 -0.9234 -1.1022
    7SAPS  H10Y  906   5.251   0.024  10.068  0.2655  0.7460  0.3587
    7SAPS  C311  907   5.048   0.097  10.070  0.0613 -0.5200 -0.4777
    7SAPS  H11X  908   4.980   0.138  10.147  0.5592 -0.7973  0.1193
    7SAPS  H11Y  909   4.998   0.005  10.034  1.9892 -1.6422 -0.4316
    7SAPS  C312  910   5.057   0.204   9.955 -0.1298 -0.0988 -0.1108
    7SAPS  H12X  911   5.153   0.191   9.901  1.3420  2.8569  1.5470
    7SAPS  H12Y  912   5.061   0.301  10.009  0.6138 -0.2374  0.0851
    7SAPS  C313  913   4.933   0.201   9.861  0.5393  0.4885 -0.7125
    7SAPS  H13X  914   4.854   0.265   9.905  0.9461  1.4593 -1.3673
    7SAPS  H13Y  915   4.898   0.096   9.848 -0.2229  0.6925 -0.3391
    7SAPS  C314  916   4.945   0.267   9.718 -0.3929 -0.2034 -0.0970
    7SAPS  H14X  917   4.991   0.367   9.735 -1.1452  0.1560 -0.1173
    7SAPS  H14Y  918   4.839   0.265   9.686 -0.7412 -1.6440  1.0283
    7SAPS  C315  919   5.050   0.190   9.636 -0.2964  0.8213  0.4218
    7SAPS  H15X  920   5.047   0.079   9.642 -0.0951  0.7258 -0.9241
    7SAPS  H15Y  921   5.145   0.224   9.682  0.3749  2.5888 -2.0215
    7SAPS  C316  922   5.053   0.232   9.494  0.2055 -0.3557  0.4517
    7SAPS  H16X  923   5.046   0.342   9.482  2.2307 -0.2785 -0.5897
    7SAPS  H16Y  924   4.969   0.184   9.440  0.7308 -0.2977 -0.4530
    7SAPS  C317  925   5.188   0.186   9.430 -0.8182 -0.3053  0.2315
    7SAPS  H17X  926   5.200   0.076   9.436  1.1928 -0.1137  0.1855
    7SAPS  H17Y  927   5.264   0.230   9.497 -2.0683  1.7144  0.4111
    7SAPS  C318  928   5.204   0.231   9.285  0.2663  0.2409  0.7496
    7SAPS  H18X  929   5.112   0.198   9.233  1.1094  0.1341 -0.7219
    7SAPS  H18Y  930   5.281   0.175   9.228 -0.6304  0.2384 -0.4889
    7SAPS  H18Z  931   5.219   0.341   9.271 -0.9723  0.3254 -0.0351
    8SAPS     N  932   4.680   6.466  11.267  0.3694 -0.3303 -0.2475
    8SAPS   HN1  933   4.655   6.479  11.167  2.1344 -0.6355 -0.7696
    8SAPS   HN2  934   4.753   6.538  11.284  0.8179 -0.2407 -2.3167
    8SAPS   HN3  935   4.717   6.371  11.287 -0.7779 -0.7858 -0.2139
    8SAPS   C12  936   4.571   6.482  11.363  0.2947  0.4285 -0.2694
    8SAPS  H12A  937   4.521   6.386  11.362 -0.2655  0.7226 -1.5492
    8SAPS   C13  938   4.627   6.488  11.511 -0.1380  0.5811 -0.7078
    8SAPS  O13A  939   4.725   6.415  11.545  0.4854 -0.1642  0.3020
    8SAPS  O13B  940   4.542   6.508  11.600  0.3480 -0.2332  0.0135
    8SAPS   C11  941   4.485   6.601  11.319  0.1311  0.3199 -0.1737
    8SAPS  H11A  942   4.402   6.617  11.392  0.9548 -0.1785  0.8937
    8SAPS  H11B  943   4.445   6.559  11.224 -0.4462 -0.5919  0.4508
    8SAPS     P  944   4.486   6.849  11.246 -0.1279 -0.4385 -0.0656
    8SAPS   O13  945   4.386   6.901  11.349  0.8092  0.3080  0.4517
    8SAPS   O14  946   4.591   6.943  11.201  0.4084 -0.2039 -0.0883
    8SAPS   O12  947   4.558   6.724  11.312  0.1780 -0.1009 -0.0542
    8SAPS   O11  948   4.416   6.794  11.114  0.2534 -0.1104  0.5391
    8SAPS    C1  949   4.476   6.850  10.993  1.1281 -0.4700 -0.8088
    8SAPS    HA  950   4.475   6.961  10.985 -0.2398 -0.5418 -1.9496
    8SAPS    HB  951   4.581   6.816  10.978  0.8354 -0.6953 -2.5746
    8SAPS    C2  952   4.393   6.806  10.867 -0.2065  0.3113  0.5041
    8SAPS    HS  953   4.452   6.854  10.786 -0.9560 -2.1117 -1.6030
    8SAPS   O21  954   4.258   6.853  10.869 -0.2685 -0.0850  0.8832
    8SAPS   C21  955   4.234   6.982  10.844  0.5403  0.6629 -0.1629
    8SAPS   O22  956   4.316   7.072  10.821  0.2590 -0.8823 -0.5275
    8SAPS   C22  957   4.087   7.011  10.866 -0.1162  0.6849  0.6600
    8SAPS   H2R  958   4.059   6.985  10.970  0.6420  0.3899  0.7923
    8SAPS   H2S  959   4.069   7.118  10.838 -1.5391 -0.2573 -2.5276
    8SAPS    C3  960   4.395   6.654  10.835  0.1482  0.2763  0.3647
    8SAPS    HX  961   4.317   6.595  10.888 -0.8963  0.5536 -0.7988
    8SAPS    HY  962   4.490   6.621  10.881  0.8039  2.5627  0.7956
    8SAPS   O31  963   4.387   6.627  10.698 -0.3519 -0.3023  0.0088
    8SAPS   C31  964   4.501   6.615  10.632  0.0403  0.2674  0.1645
    8SAPS   O32  965   4.610   6.642  10.674 -0.0264 -0.0937 -0.0553
    8SAPS   C32  966   4.472   6.567  10.487 -0.5053 -0.4814 -0.6179
    8SAPS   H2X  967   4.498   6.648  10.416  2.3001 -0.5884  0.1696
    8SAPS   H2Y  968   4.364   6.540  10.482 -0.4462 -1.0389  0.5911
    8SAPS   C23  969   3.982   6.926  10.781 -0.0874 -0.3218 -0.3443
    8SAPS   H3R  970   3.884   6.956  10.824 -0.2953  2.2178 -2.3516
    8SAPS   H3S  971   4.009   6.819  10.795 -0.2894 -0.3949 -0.5157
    8SAPS   C24  972   3.974   6.972  10.637 -0.0049  0.6401  0.6817
    8SAPS   H4R  973   3.909   6.899  10.584  1.8573 -0.0622 -0.7472
    8SAPS   H4S  974   4.066   6.954  10.577 -0.8590  1.3913 -0.9256
    8SAPS   C25  975   3.921   7.109  10.605 -0.2836 -0.0924 -0.3979
    8SAPS   H5R  976   3.831   7.147  10.656  1.0286  1.2443  1.0236
    8SAPS   C26  977   3.984   7.197  10.523  0.3613  0.4319  0.4364
    8SAPS   H6R  978   3.933   7.294  10.511  0.9141  0.5819 -0.8682
    8SAPS   C27  979   4.106   7.168  10.444 -0.5004  0.2277 -0.0258
    8SAPS   H7R  980   4.101   7.076  10.380 -1.6754 -1.6974  2.6391
    8SAPS   H7S  981   4.195   7.148  10.507  1.8303 -1.7841 -3.5655
    8SAPS   C28  982   4.149   7.280  10.352 -0.3857 -0.0037  0.0659
    8SAPS   H8R  983   4.201   7.372  10.383 -2.4308  2.0014 -1.9898
    8SAPS   C29  984   4.112   7.280  10.222 -0.2318 -0.5181  0.0905
    8SAPS   H9R  985   4.144   7.365  10.160  2.4143 -2.2529 -1.0850
    8SAPS  C210  986   4.039   7.171  10.148  0.4063 -0.2425  0.2884
    8SAPS  H10R  987   3.964   7.121  10.213 -1.7724  1.3908 -0.8526
    8SAPS  H10S  988   4.100   7.086  10.108 -0.6762  0.1710 -2.4829
    8SAPS  C211  989   3.962   7.236  10.036 -1.1385  0.9344 -0.1392
    8SAPS  H11R  990   3.885   7.309  10.067 -2.5738 -0.3271 -0.5919
    8SAPS  C212  991   3.980   7.217   9.903 -0.2819 -0.3383 -0.2503
    8SAPS  H12R  992   3.923   7.275   9.829 -0.9208 -0.3419  0.2278
    8SAPS  C213  993   4.083   7.133   9.831 -0.2680  0.1247 -0.0896
    8SAPS  H13R  994   4.130   7.055   9.896 -0.9967 -0.8344 -0.6763
    8SAPS  H13S  995   4.164   7.206   9.809 -0.0841  0.4846  1.6587
    8SAPS  C214  996   4.028   7.074   9.709 -0.1847  0.7779  0.5609
    8SAPS  H14R  997   3.931   7.027   9.730 -0.1971  0.7494  0.4412
    8SAPS  C215  998   4.089   7.067   9.591 -0.5441 -0.2886  0.2504
    8SAPS  H15R  999   4.040   7.009   9.511  0.5214 -0.8875  0.0045
    8SAPS  C216 1000   4.227   7.113   9.562 -0.2802  0.2377 -0.6997
    8SAPS  H16R 1001   4.239   7.223   9.558 -1.8041  0.4063 -1.9191
    8SAPS  H16S 1002   4.255   7.057   9.470 -1.5779 -3.0672  0.7269
    8SAPS  C217 1003   4.350   7.058   9.653 -0.5483  0.2759 -0.4765
    8SAPS  H17R 1004   4.323   6.952   9.670 -0.0896  0.3415  0.7834
    8SAPS  H17S 1005   4.348   7.116   9.747 -2.7957  1.4813 -1.2080
    8SAPS  C218 1006   4.489   7.072   9.596  0.5601  0.6282 -0.2192
    8SAPS  H18R 1007   4.574   7.045   9.661 -0.0356 -1.4682 -0.2300
    8SAPS  H18S 1008   4.506   7.176   9.563  0.4877 -0.3066 -3.5557
    8SAPS  C219 1009   4.504   6.987   9.472  0.1036  0.8373  0.0243
    8SAPS  H19R 1010   4.438   7.013   9.386 -0.2148  3.0089  0.8689
    8SAPS  H19S 1011   4.473   6.882   9.489 -1.8575  1.1074 -1.4680
    8SAPS  C220 1012   4.654   6.993   9.434  0.5636  0.5240 -0.1022
    8SAPS  H20R 1013   4.675   7.094   9.393 -0.8579  0.9892  0.2322
    8SAPS  H20S 1014   4.678   6.917   9.357  0.1288 -0.0048  0.2752
    8SAPS  H20T 1015   4.725   6.982   9.518 -1.1871  1.7606  1.6427
    8SAPS   C33 1016   4.548   6.438  10.447 -0.5383  1.1052 -0.4251
    8SAPS   H3X 1017   4.512   6.353  10.509  1.4798  1.6888  1.7093
    8SAPS   H3Y 1018   4.656   6.454  10.467 -0.0845 -2.3938  0.6938
    8SAPS   C34 1019   4.528   6.405  10.297  0.2224  0.7750 -0.0076
    8SAPS   H4X 1020   4.615   6.338  10.281 -1.2189 -0.6861 -2.3882
    8SAPS   H4Y 1021   4.549   6.489  10.228 -1.4584  1.2672  0.0315
    8SAPS   C35 1022   4.389   6.341  10.278  1.5120 -0.5459  0.4828
    8SAPS   H5X 1023   4.318   6.426  10.273 -0.2701 -1.9158  1.6251
    8SAPS   H5Y 1024   4.358   6.288  10.370 -2.3910 -0.3407 -0.5419
    8SAPS   C36 1025   4.373   6.244  10.152 -0.4338 -0.1284  0.2288
    8SAPS   H6X 1026   4.266   6.217  10.145 -0.1363 -1.1078 -0.8988
    8SAPS   H6Y 1027   4.440   6.156  10.162 -1.8185 -1.2746 -0.2413
    8SAPS   C37 1028   4.402   6.317  10.014 -0.5445  0.6094 -1.1017
    8SAPS   H7X 1029   4.495   6.378  10.009  1.0361 -1.6273 -0.6155
    8SAPS   H7Y 1030   4.315   6.384   9.998 -1.8911 -0.8904 -0.3143
    8SAPS   C38 1031   4.418   6.221   9.898 -0.6088  0.1897  0.6815
    8SAPS   H8X 1032   4.333   6.149   9.906 -0.9576  0.6271  0.9101
    8SAPS   H8Y 1033   4.507   6.156   9.912  0.3898  1.4361  0.2159
    8SAPS   C39 1034   4.430   6.266   9.750  0.5485 -0.2028 -1.0670
    8SAPS   H9X 1035   4.525   6.321   9.739  0.8389 -0.4756 -0.0469
    8SAPS   H9Y 1036   4.362   6.351   9.730 -0.9593 -1.6913 -2.6399
    8SAPS  C310 1037   4.402   6.151   9.649 -0.3020 -0.1243 -0.4549
    8SAPS  H10X 1038   4.342   6.071   9.696  0.2610 -1.4983 -2.0052
    8SAPS  H10Y 1039   4.502   6.111   9.620 -0.3572 -1.3804  0.9821
    8SAPS  C311 1040   4.337   6.197   9.516 -0.2603 -0.0960  0.2271
    8SAPS  H11X 1041   4.401   6.267   9.460 -1.6481 -0.6351 -2.1545
    8SAPS  H11Y 1042   4.243   6.252   9.535  1.3159  2.6069  0.6674
    8SAPS  C312 1043   4.316   6.081   9.420 -0.2295 -0.1319  0.1656
    8SAPS  H12X 1044   4.245   6.001   9.453 -1.2487  0.7549  0.1787
    8SAPS  H12Y 1045   4.409   6.021   9.415  0.1392  0.3821  0.8628
    8SAPS  C313 1046   4.268   6.119   9.279  0.0250 -0.1001  0.1148
    8SAPS  H13X 1047   4.255   6.017   9.236  0.2284 -0.1789  0.2345
    8SAPS  H13Y 1048   4.353   6.168   9.227  2.3269 -3.5168  0.2527
    8SAPS  C314 1049   4.139   6.198   9.280 -0.3484  0.1841 -0.2416
    8SAPS  H14X 1050   4.168   6.299   9.316  0.1645  0.2407 -0.7997
    8SAPS  H14Y 1051   4.077   6.146   9.356 -0.6137  0.2809 -0.3915
    8SAPS  C315 1052   4.050   6.213   9.156 -0.3211  0.1817 -0.0247
    8SAPS  H15X 1053   3.948   6.236   9.193 -0.5310  1.7687 -1.4234
    8SAPS  H15Y 1054   4.039   6.121   9.095 -0.3759  1.0420 -1.3619
    8SAPS  C316 1055   4.079   6.327   9.062 -0.4623  0.2456  0.2805
    8SAPS  H16X 1056   4.103   6.424   9.110 -0.4789  1.1144 -1.3908
    8SAPS  H16Y 1057   3.987   6.329   9.000 -1.6968 -0.3597  2.0050
    8SAPS  C317 1058   4.196   6.300   8.961 -0.3273 -0.6181 -0.1659
    8SAPS  H17X 1059   4.287   6.289   9.024 -0.6689 -2.1755  0.0894
    8SAPS  H17Y 1060   4.215   6.377   8.883  0.0057 -1.0765 -0.5432
    8SAPS  C318 1061   4.189   6.172   8.882  0.7141 -0.3865 -0.1144
    8SAPS  H18X 1062   4.207   6.085   8.949 -0.1043 -0.2593  0.2752
    8SAPS  H18Y 1063   4.272   6.162   8.808 -1.1038 -0.2481 -2.2613
    8SAPS  H18Z 1064   4.093   6.153   8.830  0.5323 -1.9718  0.7389
    9SAPS     N 1065   3.072   5.844   6.343  0.1057  0.5593 -0.3580
    9SAPS   HN1 1066   3.137   5.910   6.392  1.1446  1.7197 -3.1190
    9SAPS   HN2 1067   2.979   5.848   6.389 -0.6920  1.7509 -1.9780
    9SAPS   HN3 1068   3.122   5.754   6.359  1.6568  1.7082  1.8566
    9SAPS   C12 1069   3.073   5.874   6.196 -0.6124  1.3267 -0.0831
    9SAPS  H12A 1070   3.034   5.974   6.192 -0.7234  1.3402  1.0595
    9SAPS   C13 1071   3.216   5.878   6.132 -0.1341  0.2109  0.4931
    9SAPS  O13A 1072   3.315   5.890   6.205 -0.8637  0.1215 -0.6960
    9SAPS  O13B 1073   3.211   5.923   6.009  0.1381  0.2540 -0.0234
    9SAPS   C11 1074   2.983   5.775   6.120  0.2935  0.9138  0.3622
    9SAPS  H11A 1075   3.014   5.670   6.140  0.2359  0.4487 -1.7393
    9SAPS  H11B 1076   2.992   5.777   6.009  0.3034  1.0316  0.3654
    9SAPS     P 1077   2.754   5.698   6.231 -0.1033  0.0271 -0.3283
    9SAPS   O13 1078   2.656   5.789   6.293  0.0323  0.2065  0.2790
    9SAPS   O14 1079   2.704   5.589   6.149  0.1404  0.3125 -0.5283
    9SAPS   O12 1080   2.848   5.800   6.157 -0.4906  0.0684  0.1693
    9SAPS   O11 1081   2.848   5.640   6.343 -0.2324 -0.6932 -0.1047
    9SAPS    C1 1082   2.836   5.513   6.405 -0.0522  0.1081 -0.2925
    9SAPS    HA 1083   2.838   5.436   6.325  0.1978 -1.8835  1.5216
    9SAPS    HB 1084   2.918   5.489   6.476 -1.4409 -1.9329  0.7164
    9SAPS    C2 1085   2.701   5.511   6.487  0.7416 -0.0437 -0.2998
    9SAPS    HS 1086   2.617   5.549   6.424 -0.1945 -2.4750 -0.6246
    9SAPS   O21 1087   2.712   5.604   6.601 -0.1850 -0.4137  0.2313
    9SAPS   C21 1088   2.603   5.668   6.643 -0.4153 -0.3381 -0.1800
    9SAPS   O22 1089   2.488   5.637   6.624  0.6544 -0.7536  0.4230
    9SAPS   C22 1090   2.651   5.777   6.740 -0.5857  0.1013  1.5906
    9SAPS   H2R 1091   2.745   5.741   6.788  1.4815  1.7942 -0.8954
    9SAPS   H2S 1092   2.693   5.858   6.676  0.8590 -0.3184  1.9599
    9SAPS    C3 1093   2.667   5.371   6.534  0.2547 -0.2923 -0.3144
    9SAPS    HX 1094   2.660   5.308   6.443 -5.0102  0.5674 -0.8082
    9SAPS    HY 1095   2.565   5.391   6.572  0.3071  1.5660 -1.0534
    9SAPS   O31 1096   2.759   5.322   6.636  0.2506  0.0369  0.4566
    9SAPS   C31 1097   2.710   5.306   6.757 -0.1828  0.0599  0.2893
    9SAPS   O32 1098   2.608   5.345   6.801  0.1816 -0.2211 -0.0533
    9SAPS   C32 1099   2.816   5.243   6.850 -0.5150 -0.1342  0.3179
    9SAPS   H2X 1100   2.900   5.205   6.788  0.1795  1.7733  0.0230
    9SAPS   H2Y 1101   2.758   5.157   6.889 -0.8107  0.3826  1.0346
    9SAPS   C23 1102   2.538   5.828   6.835 -0.4582 -1.0224  0.0127
    9SAPS   H3R 1103   2.457   5.870   6.773 -1.4149  0.1601  1.9764
    9SAPS   H3S 1104   2.576   5.915   6.894  0.7179  1.0235 -3.4823
    9SAPS   C24 1105   2.491   5.725   6.944 -0.2480  0.0158 -0.5661
    9SAPS   H4R 1106   2.441   5.642   6.890  1.0601  1.5900 -4.6066
    9SAPS   H4S 1107   2.406   5.766   7.002 -0.7285  2.3476 -2.7189
    9SAPS   C25 1108   2.603   5.682   7.038  0.5757 -0.2701  0.1575
    9SAPS   H5R 1109   2.659   5.595   7.001  0.5316  1.4828 -4.8167
    9SAPS   C26 1110   2.634   5.740   7.156 -0.0596 -0.3548  0.1732
    9SAPS   H6R 1111   2.728   5.710   7.205  0.5303  1.6736  0.3691
    9SAPS   C27 1112   2.564   5.847   7.232  0.9182  0.3019  0.1500
    9SAPS   H7R 1113   2.476   5.879   7.173 -0.6181 -1.3709  1.4267
    9SAPS   H7S 1114   2.628   5.935   7.255  1.8752 -0.2668 -0.2715
    9SAPS   C28 1115   2.533   5.784   7.368 -0.2647  0.2313 -0.1768
    9SAPS   H8R 1116   2.450   5.711   7.373 -0.5096  0.5467  0.4712
    9SAPS   C29 1117   2.590   5.807   7.492  0.2024  0.0529 -0.0179
    9SAPS   H9R 1118   2.572   5.734   7.572 -1.0779 -0.4204 -0.7094
    9SAPS  C210 1119   2.691   5.913   7.533 -1.1420  0.2836  0.5151
    9SAPS  H10R 1120   2.651   5.977   7.614 -2.7356  0.6671 -0.5230
    9SAPS  H10S 1121   2.722   5.980   7.449 -1.3391  1.3412  1.2702
    9SAPS  C211 1122   2.814   5.832   7.566  0.4960  0.2167 -0.5579
    9SAPS  H11R 1123   2.830   5.744   7.503 -0.9052  0.1314 -0.8126
    9SAPS  C212 1124   2.881   5.833   7.680  0.5496 -0.3155 -1.0108
    9SAPS  H12R 1125   2.964   5.761   7.693  0.1193 -0.6986 -0.2970
    9SAPS  C213 1126   2.852   5.914   7.803  0.3816  0.4235  0.8578
    9SAPS  H13R 1127   2.830   5.832   7.875 -0.2757 -0.2535 -0.0974
    9SAPS  H13S 1128   2.769   5.987   7.797  1.4081  1.5366 -0.8529
    9SAPS  C214 1129   2.972   5.996   7.845  0.0381 -0.1779 -0.3188
    9SAPS  H14R 1130   3.025   6.048   7.764  0.6681 -0.2206  0.0620
    9SAPS  C215 1131   3.025   5.988   7.967 -0.3101 -0.5971  0.0608
    9SAPS  H15R 1132   3.113   6.050   7.988 -0.2348 -1.0130  1.0226
    9SAPS  C216 1133   2.970   5.897   8.071 -0.4190  0.1546 -0.5258
    9SAPS  H16R 1134   2.987   5.789   8.051 -2.7079 -0.5712  1.0597
    9SAPS  H16S 1135   2.859   5.899   8.063 -0.3445  0.6043 -1.7715
    9SAPS  C217 1136   3.019   5.932   8.213 -0.0732 -0.2267 -0.0308
    9SAPS  H17R 1137   2.982   5.867   8.295  2.8264  1.0219  2.5053
    9SAPS  H17S 1138   2.989   6.034   8.245 -0.8945  0.0796 -1.6940
    9SAPS  C218 1139   3.172   5.923   8.239 -0.2343 -0.5083 -0.0924
    9SAPS  H18R 1140   3.197   5.958   8.342  0.0223  0.0027 -0.3295
    9SAPS  H18S 1141   3.223   5.999   8.176 -1.3049  0.6879  0.4518
    9SAPS  C219 1142   3.228   5.787   8.209 -0.1442  1.0198 -0.2887
    9SAPS  H19R 1143   3.204   5.760   8.104  2.7738 -2.6562 -0.2375
    9SAPS  H19S 1144   3.184   5.714   8.280  2.3286 -0.2972  0.0188
    9SAPS  C220 1145   3.384   5.763   8.217 -0.7282 -0.6924  0.0915
    9SAPS  H20R 1146   3.415   5.732   8.115  1.2155  2.6845 -0.5150
    9SAPS  H20S 1147   3.409   5.680   8.286  2.6610 -0.2424 -0.3981
    9SAPS  H20T 1148   3.436   5.860   8.237  2.2605 -1.6537 -2.2977
    9SAPS   C33 1149   2.869   5.340   6.961 -0.0337  0.3731  0.2633
    9SAPS   H3X 1150   2.846   5.449   6.956 -2.3452 -0.0859 -0.4002
    9SAPS   H3Y 1151   2.979   5.330   6.971 -0.1895 -0.2469  1.4955
    9SAPS   C34 1152   2.812   5.302   7.095 -0.4371  0.7828 -0.1768
    9SAPS   H4X 1153   2.818   5.192   7.098  0.0691  0.8348  1.1722
    9SAPS   H4Y 1154   2.704   5.329   7.101 -0.9144 -1.0807  0.2093
    9SAPS   C35 1155   2.882   5.373   7.212  0.0333  0.0917  0.2496
    9SAPS   H5X 1156   2.910   5.477   7.184  0.6011 -0.0712  0.1952
    9SAPS   H5Y 1157   2.977   5.325   7.241  0.9541  1.7149  0.0617
    9SAPS   C36 1158   2.805   5.383   7.340  0.3304 -0.6541  0.3721
    9SAPS   H6X 1159   2.762   5.283   7.364  1.3526 -0.7898  1.7403
    9SAPS   H6Y 1160   2.724   5.458   7.332  0.5452 -0.5735 -1.4139
    9SAPS   C37 1161   2.901   5.417   7.458 -0.3651  0.3802  0.4626
    9SAPS   H7X 1162   2.954   5.512   7.434  0.6401 -0.3715 -0.3712
    9SAPS   H7Y 1163   2.973   5.332   7.457 -2.2731 -1.3801  2.3573
    9SAPS   C38 1164   2.835   5.417   7.598  0.3127 -0.5665 -0.2428
    9SAPS   H8X 1165   2.761   5.336   7.618 -0.3076 -0.0989 -0.6303
    9SAPS   H8Y 1166   2.784   5.513   7.618 -0.6875 -1.7135  3.4784
    9SAPS   C39 1167   2.937   5.381   7.705 -0.4864  0.0524 -0.2471
    9SAPS   H9X 1168   3.021   5.453   7.717 -1.5233  1.0190  1.6269
    9SAPS   H9Y 1169   2.988   5.286   7.677 -2.6884 -0.8874 -1.3107
    9SAPS  C310 1170   2.882   5.377   7.852  0.1838  0.3008  0.4548
    9SAPS  H10X 1171   2.942   5.300   7.905  1.3407  1.0666  0.2897
    9SAPS  H10Y 1172   2.776   5.343   7.861  0.0031  1.1044  1.5519
    9SAPS  C311 1173   2.884   5.519   7.912  0.3866 -0.0752  0.3136
    9SAPS  H11X 1174   2.843   5.578   7.826  0.3749 -0.7761 -0.1705
    9SAPS  H11Y 1175   2.989   5.549   7.934 -0.0863  1.7716  0.2507
    9SAPS  C312 1176   2.805   5.537   8.040  0.3583  0.4158  0.1801
    9SAPS  H12X 1177   2.715   5.473   8.023  0.4057  1.0159 -2.8498
    9SAPS  H12Y 1178   2.772   5.640   8.063  0.9047  0.4751  0.7220
    9SAPS  C313 1179   2.885   5.482   8.165 -0.7990 -0.3952  0.4281
    9SAPS  H13X 1180   2.974   5.549   8.172  1.6767 -3.1596 -1.8579
    9SAPS  H13Y 1181   2.914   5.377   8.143 -2.3188 -0.6830 -0.2971
    9SAPS  C314 1182   2.801   5.496   8.294 -0.3278 -0.5922  0.0988
    9SAPS  H14X 1183   2.693   5.471   8.282 -0.8053  2.1581 -2.3994
    9SAPS  H14Y 1184   2.787   5.605   8.307 -0.3855 -0.6881  0.9056
    9SAPS  C315 1185   2.855   5.420   8.415  0.0537 -0.1257 -0.4515
    9SAPS  H15X 1186   2.963   5.446   8.423  0.0977 -0.0108 -1.2714
    9SAPS  H15Y 1187   2.852   5.309   8.406  2.1809 -0.1611 -1.3601
    9SAPS  C316 1188   2.778   5.462   8.541 -0.2674  0.2664 -0.1094
    9SAPS  H16X 1189   2.671   5.454   8.514 -0.2669 -0.7209  0.1359
    9SAPS  H16Y 1190   2.788   5.569   8.567  0.2586 -0.1784  1.6187
    9SAPS  C317 1191   2.791   5.379   8.671 -0.5818  0.2344  0.5008
    9SAPS  H17X 1192   2.886   5.402   8.725 -0.8234  0.6126  0.7676
    9SAPS  H17Y 1193   2.777   5.270   8.656 -1.9749  0.3324  0.9748
    9SAPS  C318 1194   2.669   5.404   8.762 -0.4627 -0.0217 -0.2210
    9SAPS  H18X 1195   2.664   5.512   8.788  0.3682  0.1751 -0.8162
    9SAPS  H18Y 1196   2.676   5.345   8.856  0.2956 -1.9517 -1.4177
    9SAPS  H18Z 1197   2.573   5.381   8.711 -0.7119  0.1022  0.1874
   10SAPS     N 1198   1.374   0.376   6.255 -0.1862  0.4815 -0.1020
   10SAPS   HN1 1199   1.353   0.277   6.228 -0.3145  0.4059  0.2732
   10SAPS   HN2 1200   1.324   0.406   6.341  0.7974 -0.3304  0.7891
   10SAPS   HN3 1201   1.367   0.442   6.175  1.0560 -1.0075 -1.5114
   10SAPS   C12 1202   1.518   0.387   6.289  0.0986 -0.3466  0.0714
   10SAPS  H12A 1203   1.525   0.315   6.369 -0.6275 -0.5370 -0.0306
   10SAPS   C13 1204   1.615   0.364   6.171  0.6096 -0.6484 -0.4439
   10SAPS  O13A 1205   1.575   0.303   6.071  0.4695 -0.8524 -0.1618
   10SAPS  O13B 1206   1.735   0.393   6.193 -0.4107  0.1098  0.1320
   10SAPS   C11 1207   1.533   0.521   6.349 -0.1992 -0.0982 -0.8791
   10SAPS  H11A 1208   1.530   0.611   6.284 -0.3732  2.0797  1.9746
   10SAPS  H11B 1209   1.635   0.522   6.393 -1.3025 -0.6370  1.9410
   10SAPS     P 1210   1.452   0.580   6.601  0.4287 -0.2570 -0.4362
   10SAPS   O13 1211   1.528   0.704   6.597 -0.3336 -0.0380 -0.2267
   10SAPS   O14 1212   1.321   0.581   6.670 -0.1547 -0.1772 -0.0527
   10SAPS   O12 1213   1.433   0.542   6.448 -0.0964 -0.8470  0.6627
   10SAPS   O11 1214   1.551   0.462   6.652  0.3890 -0.1636 -0.2286
   10SAPS    C1 1215   1.525   0.325   6.674  0.2013 -0.1951  0.6221
   10SAPS    HA 1216   1.424   0.298   6.637 -0.3760  1.3591  1.0106
   10SAPS    HB 1217   1.585   0.261   6.606 -0.2663  2.3891 -2.4662
   10SAPS    C2 1218   1.555   0.285   6.821 -0.2248 -0.2053  0.0134
   10SAPS    HS 1219   1.475   0.334   6.880 -0.5070 -0.7083  0.0585
   10SAPS   O21 1220   1.690   0.335   6.868  0.1331  1.0746  0.2182
   10SAPS   C21 1221   1.689   0.454   6.929 -0.4310 -0.4401 -0.3018
   10SAPS   O22 1222   1.597   0.525   6.959  0.3874 -0.1985 -0.6491
   10SAPS   C22 1223   1.840   0.502   6.950  0.9162 -0.2447  0.3151
   10SAPS   H2R 1224   1.882   0.464   7.045 -0.8449 -0.8350  0.8831
   10SAPS   H2S 1225   1.911   0.480   6.867  2.2198 -0.0059  1.3316
   10SAPS    C3 1226   1.552   0.136   6.840 -0.3530 -0.7077 -0.4415
   10SAPS    HX 1227   1.630   0.080   6.784  0.5812  1.0001 -0.9281
   10SAPS    HY 1228   1.464   0.099   6.783 -0.6350 -1.2023  0.3058
   10SAPS   O31 1229   1.561   0.110   6.980 -0.2662  0.4199 -0.5121
   10SAPS   C31 1230   1.445   0.098   7.044  0.1404 -0.1196 -0.6272
   10SAPS   O32 1231   1.335   0.124   6.997  0.4583 -0.5556 -0.1459
   10SAPS   C32 1232   1.455   0.034   7.185 -0.1050 -0.6127  0.1690
   10SAPS   H2X 1233   1.548   0.074   7.232 -0.9394  2.1329 -0.2914
   10SAPS   H2Y 1234   1.464  -0.074   7.164  1.8107 -0.5151  0.2972
   10SAPS   C23 1235   1.841   0.652   6.969 -0.0751 -0.2649  0.1187
   10SAPS   H3R 1236   1.780   0.661   7.062  0.4946  0.3940  0.4382
   10SAPS   H3S 1237   1.797   0.688   6.874 -1.3827 -1.3740  0.2826
   10SAPS   C24 1238   1.971   0.708   7.012 -0.9188 -0.5767 -1.4127
   10SAPS   H4R 1239   2.043   0.683   6.931 -0.3865  1.9184 -1.7756
   10SAPS   H4S 1240   1.995   0.643   7.100 -0.4676 -0.4204 -1.4174
   10SAPS   C25 1241   1.957   0.853   7.057  0.4219  0.2756 -0.1332
   10SAPS   H5R 1242   1.955   0.927   6.975 -0.0080  1.2508  0.7300
   10SAPS   C26 1243   1.959   0.909   7.182 -1.0007  0.2490 -0.2761
   10SAPS   H6R 1244   1.960   1.018   7.196  1.4152  0.1520  0.7618
   10SAPS   C27 1245   1.975   0.853   7.319  0.0599  0.3335  0.2741
   10SAPS   H7R 1246   1.926   0.754   7.317  0.4315 -0.1004  4.3291
   10SAPS   H7S 1247   1.928   0.919   7.395 -0.6029 -1.4728  1.5108
   10SAPS   C28 1248   2.113   0.826   7.363 -0.1194 -0.2662 -0.2188
   10SAPS   H8R 1249   2.184   0.814   7.281  0.4809 -0.8594  0.3772
   10SAPS   C29 1250   2.159   0.842   7.489  0.0057  0.5953  0.0612
   10SAPS   H9R 1251   2.266   0.824   7.502 -0.2456 -0.1789  1.1747
   10SAPS  C210 1252   2.069   0.865   7.613 -0.0907 -0.6145  0.3305
   10SAPS  H10R 1253   1.966   0.828   7.597  0.5364 -2.7278  0.8793
   10SAPS  H10S 1254   2.050   0.974   7.620 -1.8718 -0.6489 -2.4280
   10SAPS  C211 1255   2.134   0.813   7.734  0.2668 -0.8113 -0.2228
   10SAPS  H11R 1256   2.244   0.815   7.737  0.2390 -0.2165  1.0111
   10SAPS  C212 1257   2.077   0.743   7.832 -0.9450 -0.0969  0.0520
   10SAPS  H12R 1258   2.140   0.712   7.917  0.0641 -1.6164 -1.1972
   10SAPS  C213 1259   1.930   0.710   7.845 -0.7040 -0.1206  0.1005
   10SAPS  H13R 1260   1.877   0.722   7.748 -0.2410 -0.3642 -0.1845
   10SAPS  H13S 1261   1.897   0.777   7.927 -0.1031 -1.2129  1.2636
   10SAPS  C214 1262   1.922   0.565   7.886  0.6021  0.5364  0.1028
   10SAPS  H14R 1263   2.012   0.503   7.880  1.9208  2.4647 -1.0908
   10SAPS  C215 1264   1.809   0.516   7.935  0.3914 -0.0178  0.9162
   10SAPS  H15R 1265   1.798   0.410   7.963 -0.9678 -0.1843 -0.1606
   10SAPS  C216 1266   1.680   0.585   7.940 -0.2066 -0.0498  0.1364
   10SAPS  H16R 1267   1.629   0.538   7.853  0.3809 -0.7621  0.1697
   10SAPS  H16S 1268   1.679   0.696   7.935  0.7237 -0.0164  0.6440
   10SAPS  C217 1269   1.608   0.549   8.061  0.4218  0.3785  0.5624
   10SAPS  H17R 1270   1.595   0.439   8.071 -0.3786  0.4935  0.8781
   10SAPS  H17S 1271   1.506   0.594   8.057 -0.1833 -0.8987  0.8735
   10SAPS  C218 1272   1.669   0.606   8.188  0.2496 -0.7796  1.2641
   10SAPS  H18R 1273   1.712   0.707   8.169 -0.9020 -0.6030 -0.6024
   10SAPS  H18S 1274   1.753   0.540   8.218  1.0271 -0.5372 -0.2803
   10SAPS  C219 1275   1.570   0.599   8.301 -0.4400 -0.2127 -0.3197
   10SAPS  H19R 1276   1.531   0.495   8.308 -4.1043  1.0183 -0.1364
   10SAPS  H19S 1277   1.489   0.665   8.262 -1.2397 -1.5250 -0.9385
   10SAPS  C220 1278   1.610   0.659   8.431 -0.1007  0.5241  0.1429
   10SAPS  H20R 1279   1.527   0.644   8.503 -1.9255 -0.8919 -2.1268
   10SAPS  H20S 1280   1.628   0.769   8.421  1.0680  0.2682 -0.9253
   10SAPS  H20T 1281   1.706   0.615   8.465  0.1113  0.3220 -0.6785
   10SAPS   C33 1282   1.333   0.067   7.272 -0.9907 -0.8686 -0.1323
   10SAPS   H3X 1283   1.308  -0.017   7.341  0.7035 -2.6127 -1.5375
   10SAPS   H3Y 1284   1.236   0.067   7.219 -1.6741 -0.0885  1.0879
   10SAPS   C34 1285   1.355   0.182   7.369  0.0917 -0.3179 -0.3792
   10SAPS   H4X 1286   1.458   0.173   7.411 -0.2871 -0.5875  0.4938
   10SAPS   H4Y 1287   1.285   0.165   7.453  0.4577  1.2690  0.2846
   10SAPS   C35 1288   1.340   0.323   7.307 -0.4503  0.7209 -0.2028
   10SAPS   H5X 1289   1.233   0.353   7.302 -0.2119  1.3829 -2.1694
   10SAPS   H5Y 1290   1.386   0.325   7.206 -0.2218  0.6047 -0.1016
   10SAPS   C36 1291   1.425   0.426   7.379  0.2930  0.3800  0.1795
   10SAPS   H6X 1292   1.408   0.422   7.489  2.7106 -0.0856  0.6028
   10SAPS   H6Y 1293   1.397   0.529   7.348  2.0369  0.6510 -0.6052
   10SAPS   C37 1294   1.568   0.415   7.330 -1.0224 -0.5472  0.1132
   10SAPS   H7X 1295   1.561   0.454   7.226  1.3826 -0.8602 -0.2200
   10SAPS   H7Y 1296   1.607   0.311   7.332 -0.0191 -0.2343  3.6018
   10SAPS   C38 1297   1.658   0.500   7.415  0.4435  0.2026  0.8568
   10SAPS   H8X 1298   1.634   0.476   7.521 -3.6079  0.2789  0.1252
   10SAPS   H8Y 1299   1.641   0.605   7.382 -0.3012 -0.6775 -1.7929
   10SAPS   C39 1300   1.812   0.473   7.388 -0.0068 -0.1347 -0.1236
   10SAPS   H9X 1301   1.827   0.534   7.296 -2.9759  0.2302 -0.4693
   10SAPS   H9Y 1302   1.831   0.366   7.363 -0.3983  0.1573 -1.8331
   10SAPS  C310 1303   1.907   0.496   7.505 -0.8044  0.3438  0.5336
   10SAPS  H10X 1304   1.861   0.439   7.589 -1.3785  0.5342  0.3513
   10SAPS  H10Y 1305   1.906   0.605   7.527  0.0975  0.4248  0.1822
   10SAPS  C311 1306   2.049   0.434   7.488  0.4507 -0.4227 -0.2053
   10SAPS  H11X 1307   2.105   0.486   7.407  0.9789  0.0476  0.4578
   10SAPS  H11Y 1308   2.035   0.328   7.458 -0.2141 -0.1624 -0.8371
   10SAPS  C312 1309   2.142   0.432   7.609 -0.7998  0.5731  0.5555
   10SAPS  H12X 1310   2.073   0.399   7.690 -1.0700 -2.1039 -0.6623
   10SAPS  H12Y 1311   2.178   0.535   7.630 -1.0935  1.1559 -1.6340
   10SAPS  C313 1312   2.258   0.333   7.593  0.2022 -0.3643 -0.2961
   10SAPS  H13X 1313   2.204   0.238   7.572 -0.9962 -0.1205  1.4946
   10SAPS  H13Y 1314   2.304   0.325   7.694 -3.2302  2.4539  1.7362
   10SAPS  C314 1315   2.369   0.374   7.498 -0.1705  0.2546  0.2880
   10SAPS  H14X 1316   2.378   0.484   7.511  1.0480  0.6093 -2.7623
   10SAPS  H14Y 1317   2.332   0.353   7.396 -3.6317 -2.6315  1.9077
   10SAPS  C315 1318   2.514   0.324   7.525 -0.6904 -0.5664  0.1553
   10SAPS  H15X 1319   2.507   0.214   7.511 -2.8747 -0.3581 -0.7450
   10SAPS  H15Y 1320   2.543   0.347   7.630 -0.5029 -2.3562  0.5333
   10SAPS  C316 1321   2.620   0.383   7.433 -0.0864 -0.2659 -0.4287
   10SAPS  H16X 1322   2.725   0.349   7.446  0.6212  1.9644 -0.0372
   10SAPS  H16Y 1323   2.621   0.492   7.450  0.9216 -0.1904 -0.8713
   10SAPS  C317 1324   2.583   0.354   7.283 -0.1503 -0.2534 -0.6725
   10SAPS  H17X 1325   2.499   0.422   7.258  0.3416  0.7508  0.3176
   10SAPS  H17Y 1326   2.540   0.252   7.273 -0.4174 -0.0914 -1.1956
   10SAPS  C318 1327   2.705   0.372   7.197  0.4481 -0.2836  0.2052
   10SAPS  H18X 1328   2.677   0.343   7.094  2.1157 -1.3270  0.0165
   10SAPS  H18Y 1329   2.792   0.314   7.235  1.9433  2.4463  1.2158
   10SAPS  H18Z 1330   2.740   0.476   7.208 -1.5183  0.2599  1.9094
   11SAPS     N 1331   1.430   3.298   5.942 -0.4951  0.0838 -0.2381
   11SAPS   HN1 1332   1.482   3.361   6.007 -0.5378  1.5339 -1.5490
   11SAPS   HN2 1333   1.375   3.357   5.877 -2.2469  0.1368  1.2130
   11SAPS   HN3 1334   1.367   3.237   5.998  1.3462 -2.4522 -0.7139
   11SAPS   C12 1335   1.528   3.217   5.857 -0.3877 -0.3349  0.6508
   11SAPS  H12A 1336   1.479   3.169   5.774  2.4673 -0.6144 -1.0013
   11SAPS   C13 1337   1.637   3.303   5.784  0.6293 -0.1250  0.4008
   11SAPS  O13A 1338   1.651   3.422   5.814  0.2843 -0.0901  0.4575
   11SAPS  O13B 1339   1.729   3.240   5.723 -0.3145  0.1330 -0.4064
   11SAPS   C11 1340   1.591   3.110   5.949 -0.4356  0.7251  0.0151
   11SAPS  H11A 1341   1.629   3.153   6.044  1.0312  3.1344 -1.5582
   11SAPS  H11B 1342   1.678   3.066   5.895 -0.0276  1.7187 -0.1648
   11SAPS     P 1343   1.536   2.872   6.036  0.4091 -0.0236  0.1944
   11SAPS   O13 1344   1.416   2.780   6.022  0.0665 -0.3493 -0.0795
   11SAPS   O14 1345   1.661   2.821   5.978 -0.3940  0.1610 -0.2123
   11SAPS   O12 1346   1.491   3.008   5.978  0.4249 -0.3895 -0.4686
   11SAPS   O11 1347   1.566   2.896   6.185  0.6458 -0.4599  0.1237
   11SAPS    C1 1348   1.466   2.939   6.280 -0.1041 -0.4702  0.2165
   11SAPS    HA 1349   1.394   3.010   6.234  1.8705  0.2871 -1.8995
   11SAPS    HB 1350   1.398   2.856   6.310  1.1916 -1.5344  0.3148
   11SAPS    C2 1351   1.531   2.991   6.406 -0.3898  0.3660  0.5724
   11SAPS    HS 1352   1.634   3.019   6.375 -0.9793  0.9656 -0.9538
   11SAPS   O21 1353   1.535   2.884   6.502  0.0131 -0.0988  0.4012
   11SAPS   C21 1354   1.634   2.884   6.597  1.6185  0.3585  0.2703
   11SAPS   O22 1355   1.728   2.955   6.601 -0.3079 -0.1718 -0.0072
   11SAPS   C22 1356   1.612   2.760   6.677 -0.1685 -0.1817  0.0358
   11SAPS   H2R 1357   1.510   2.716   6.681  0.5513 -2.0089 -0.8919
   11SAPS   H2S 1358   1.692   2.689   6.648  0.9585  1.0823 -0.0539
   11SAPS    C3 1359   1.446   3.107   6.450 -0.2997  0.3231  0.1405
   11SAPS    HX 1360   1.345   3.069   6.477 -0.3969  1.3746  1.3450
   11SAPS    HY 1361   1.429   3.192   6.381 -0.1478  1.6573  1.6841
   11SAPS   O31 1362   1.496   3.155   6.573 -0.4390  0.4944 -0.4488
   11SAPS   C31 1363   1.589   3.253   6.562 -0.1253  0.3632 -0.7403
   11SAPS   O32 1364   1.634   3.299   6.459 -0.1957  0.0771 -0.3893
   11SAPS   C32 1365   1.617   3.308   6.704 -0.0738 -0.4807  0.6059
   11SAPS   H2X 1366   1.656   3.411   6.691  0.9159 -0.8130  0.8907
   11SAPS   H2Y 1367   1.699   3.245   6.745  2.0971 -0.0895 -2.7376
   11SAPS   C23 1368   1.642   2.768   6.828 -0.5024  0.3311  0.7372
   11SAPS   H3R 1369   1.743   2.814   6.838 -1.0834  1.7085  0.4120
   11SAPS   H3S 1370   1.644   2.663   6.866  1.5593 -0.2694 -0.8284
   11SAPS   C24 1371   1.527   2.822   6.916  0.5828  0.7953 -0.3662
   11SAPS   H4R 1372   1.523   2.930   6.892  0.2139  1.1961  1.3765
   11SAPS   H4S 1373   1.562   2.824   7.021 -0.0452 -2.0950 -0.0162
   11SAPS   C25 1374   1.382   2.765   6.915 -0.6103 -0.4089 -0.9909
   11SAPS   H5R 1375   1.371   2.658   6.896 -0.2481 -0.3201 -1.7330
   11SAPS   C26 1376   1.271   2.837   6.960 -1.0613  0.7874 -0.4433
   11SAPS   H6R 1377   1.180   2.781   6.987 -0.5953  0.8667  1.4488
   11SAPS   C27 1378   1.281   2.980   7.005  0.3783 -0.3297 -0.3116
   11SAPS   H7R 1379   1.269   3.054   6.924  3.5034  0.2409 -0.3534
   11SAPS   H7S 1380   1.384   3.000   7.041 -0.0061  1.0653  0.0727
   11SAPS   C28 1381   1.170   2.989   7.116 -0.4969 -0.1545  0.0182
   11SAPS   H8R 1382   1.071   2.960   7.076 -0.8261  0.3171  0.4776
   11SAPS   C29 1383   1.178   3.015   7.250 -0.1817 -0.1772 -0.3530
   11SAPS   H9R 1384   1.088   3.020   7.313  0.6711  2.4702  0.8228
   11SAPS  C210 1385   1.302   3.027   7.335 -0.0328  0.2793  0.0558
   11SAPS  H10R 1386   1.386   2.970   7.292  1.1297  0.3343  2.1401
   11SAPS  H10S 1387   1.305   2.980   7.435  1.5235 -0.6763 -0.4058
   11SAPS  C211 1388   1.341   3.170   7.356 -0.3771  0.0903  0.2471
   11SAPS  H11R 1389   1.431   3.199   7.300  0.2702 -1.2738  0.5263
   11SAPS  C212 1390   1.282   3.265   7.433  0.4018  0.2440  0.5542
   11SAPS  H12R 1391   1.322   3.367   7.425 -1.6417  1.1472  1.3168
   11SAPS  C213 1392   1.157   3.245   7.512 -0.1341  0.4155 -0.6927
   11SAPS  H13R 1393   1.180   3.267   7.618 -1.8627  1.7908 -0.5571
   11SAPS  H13S 1394   1.133   3.136   7.513  2.6152 -0.2825 -0.3145
   11SAPS  C214 1395   1.041   3.325   7.467  0.2715 -0.1092 -0.0086
   11SAPS  H14R 1396   1.030   3.325   7.357  3.0393  1.5641 -0.3967
   11SAPS  C215 1397   0.962   3.403   7.541 -0.5898 -0.0044  0.0092
   11SAPS  H15R 1398   0.882   3.458   7.489 -0.6727 -0.3737 -0.2551
   11SAPS  C216 1399   0.972   3.423   7.696  0.7181 -0.2927  0.4222
   11SAPS  H16R 1400   1.058   3.366   7.737  1.3728  1.0181  0.9185
   11SAPS  H16S 1401   0.885   3.374   7.744  1.9126 -1.4287  1.5205
   11SAPS  C217 1402   0.992   3.574   7.739  0.2126 -0.0296 -0.0708
   11SAPS  H17R 1403   0.933   3.651   7.685  0.7768  1.4984  1.4052
   11SAPS  H17S 1404   1.101   3.594   7.733  0.8790 -1.2521  4.2215
   11SAPS  C218 1405   0.960   3.595   7.891  0.0024 -0.3435 -0.0860
   11SAPS  H18R 1406   1.010   3.510   7.943  1.8947  1.0186  0.4338
   11SAPS  H18S 1407   0.851   3.594   7.912 -0.0526 -3.7142 -0.0871
   11SAPS  C219 1408   1.026   3.730   7.945  0.5247 -0.1266  0.3551
   11SAPS  H19R 1409   1.129   3.721   7.906  0.2161  0.8507 -0.7446
   11SAPS  H19S 1410   1.027   3.732   8.056  2.0894 -0.0046  0.3547
   11SAPS  C220 1411   0.964   3.869   7.890 -0.5660 -0.6380  0.1307
   11SAPS  H20R 1412   0.994   3.955   7.954 -0.7135 -0.2440 -0.3276
   11SAPS  H20S 1413   0.854   3.872   7.910 -0.2030 -2.3204  3.0830
   11SAPS  H20T 1414   0.995   3.882   7.784  2.3295 -3.5104  0.4486
   11SAPS   C33 1415   1.487   3.310   6.784 -0.0026  0.6397 -0.0167
   11SAPS   H3X 1416   1.458   3.204   6.802 -0.6181  0.7842 -0.1165
   11SAPS   H3Y 1417   1.405   3.367   6.734 -0.8120 -1.3136 -1.0281
   11SAPS   C34 1418   1.509   3.366   6.923  0.3207 -0.1480  0.3608
   11SAPS   H4X 1419   1.575   3.304   6.988  0.5440 -0.1758  0.1095
   11SAPS   H4Y 1420   1.409   3.379   6.970  0.4761 -2.2472  1.4106
   11SAPS   C35 1421   1.571   3.501   6.927 -0.2471  0.2868 -0.0191
   11SAPS   H5X 1422   1.541   3.560   6.837 -2.9814  0.0091  0.6107
   11SAPS   H5Y 1423   1.681   3.489   6.926  0.1651  2.8938 -2.6562
   11SAPS   C36 1424   1.526   3.588   7.049 -0.1639  0.5110  0.3939
   11SAPS   H6X 1425   1.416   3.600   7.061 -0.4474 -0.1667 -1.2760
   11SAPS   H6Y 1426   1.573   3.688   7.058 -1.0536  0.9657  0.1186
   11SAPS   C37 1427   1.565   3.513   7.180  0.3935 -0.6302  0.3511
   11SAPS   H7X 1428   1.675   3.498   7.188  0.6805  0.8091 -0.5909
   11SAPS   H7Y 1429   1.520   3.411   7.181 -2.6812  0.5693 -1.4472
   11SAPS   C38 1430   1.509   3.597   7.299  0.3122  0.0382  0.0585
   11SAPS   H8X 1431   1.398   3.603   7.294  0.3739  2.4868  0.0883
   11SAPS   H8Y 1432   1.567   3.692   7.296  3.2284 -1.5295  1.9481
   11SAPS   C39 1433   1.569   3.529   7.425  0.0428 -0.0844  0.4449
   11SAPS   H9X 1434   1.679   3.534   7.414 -0.0662 -0.0079 -0.7998
   11SAPS   H9Y 1435   1.538   3.423   7.421  1.1477 -0.4187  0.4385
   11SAPS  C310 1436   1.517   3.585   7.558  0.4730 -0.1345  0.7278
   11SAPS  H10X 1437   1.406   3.578   7.565  0.3083  1.9090  0.7948
   11SAPS  H10Y 1438   1.523   3.696   7.565 -0.4724 -0.0875  0.9447
   11SAPS  C311 1439   1.592   3.527   7.679 -0.3928 -0.1231 -0.4758
   11SAPS  H11X 1440   1.557   3.581   7.770 -0.0920  1.4302 -1.2336
   11SAPS  H11Y 1441   1.702   3.539   7.672 -0.1562 -1.9918 -0.4307
   11SAPS  C312 1442   1.558   3.389   7.726 -0.0315 -0.0458 -0.1522
   11SAPS  H12X 1443   1.625   3.363   7.811  0.6281 -0.2926 -0.7360
   11SAPS  H12Y 1444   1.584   3.321   7.642 -0.0157 -0.6536  0.3376
   11SAPS  C313 1445   1.405   3.376   7.758  0.5182  0.4537  0.2568
   11SAPS  H13X 1446   1.348   3.359   7.663 -1.0778  0.5692  1.1635
   11SAPS  H13Y 1447   1.371   3.468   7.810  2.2944  0.3450  1.7117
   11SAPS  C314 1448   1.378   3.255   7.842 -0.2005  0.3161  0.0998
   11SAPS  H14X 1449   1.455   3.178   7.819 -0.7434 -0.5037  0.9517
   11SAPS  H14Y 1450   1.282   3.208   7.816 -1.2361  1.1670  2.1390
   11SAPS  C315 1451   1.387   3.277   7.994 -0.3479 -0.4077 -0.0185
   11SAPS  H15X 1452   1.489   3.318   8.013 -0.0097 -1.3640  0.3335
   11SAPS  H15Y 1453   1.389   3.180   8.049  2.3859 -0.8522 -0.7117
   11SAPS  C316 1454   1.268   3.364   8.048  0.4600 -0.2805  0.1403
   11SAPS  H16X 1455   1.186   3.290   8.056 -1.0611  1.5077  2.4233
   11SAPS  H16Y 1456   1.238   3.438   7.971  2.3511  0.3471 -0.0555
   11SAPS  C317 1457   1.301   3.430   8.177 -0.4943 -0.5302 -0.9850
   11SAPS  H17X 1458   1.340   3.527   8.140 -1.4388 -0.7859 -2.8202
   11SAPS  H17Y 1459   1.388   3.377   8.222 -0.2419 -0.8524 -1.8272
   11SAPS  C318 1460   1.195   3.476   8.275 -0.7744 -0.4870 -0.0015
   11SAPS  H18X 1461   1.134   3.389   8.306  0.8198 -1.3652  0.8236
   11SAPS  H18Y 1462   1.130   3.551   8.226  0.0821  0.5347  0.3672
   11SAPS  H18Z 1463   1.239   3.531   8.362  0.9191 -1.2853 -0.3041
   12SAPS     N 1464   2.183   4.202   6.210 -0.6337  0.5867  0.0004
   12SAPS   HN1 1465   2.239   4.277   6.166  2.3974 -2.0696 -1.0534
   12SAPS   HN2 1466   2.111   4.249   6.268 -1.1254  0.4726 -0.5039
   12SAPS   HN3 1467   2.238   4.153   6.283 -1.2328  0.0508  0.1074
   12SAPS   C12 1468   2.115   4.116   6.108  0.2539  0.7937  0.2451
   12SAPS  H12A 1469   2.047   4.174   6.047  0.0597  0.6195  0.2927
   12SAPS   C13 1470   2.207   4.040   6.006 -0.3163 -0.6348 -0.2526
   12SAPS  O13A 1471   2.331   4.040   6.026  0.1088 -0.0298 -0.3504
   12SAPS  O13B 1472   2.161   4.002   5.900 -0.4265 -0.4974  0.3453
   12SAPS   C11 1473   2.018   4.022   6.185 -0.5105 -0.6273 -0.5201
   12SAPS  H11A 1474   1.987   3.939   6.118 -2.1856 -1.5494  1.2851
   12SAPS  H11B 1475   1.925   4.072   6.219  0.7994  0.2292  2.0732
   12SAPS     P 1476   2.039   3.937   6.443  0.1792  0.2742 -0.3610
   12SAPS   O13 1477   2.149   3.877   6.516 -0.6125  0.1380 -0.3236
   12SAPS   O14 1478   1.980   4.056   6.502  0.2188  0.4637  0.5405
   12SAPS   O12 1479   2.093   3.964   6.297  0.4449 -0.0213  0.5374
   12SAPS   O11 1480   1.927   3.824   6.425 -0.4673  0.1988 -0.0761
   12SAPS    C1 1481   1.961   3.697   6.377 -0.0511 -0.3042 -0.6234
   12SAPS    HA 1482   1.888   3.674   6.296  1.0553 -1.4590 -1.3440
   12SAPS    HB 1483   2.061   3.695   6.328  0.1624  2.1649 -0.4109
   12SAPS    C2 1484   1.933   3.591   6.489 -0.6263  0.9622 -0.1161
   12SAPS    HS 1485   1.826   3.597   6.521 -1.4465 -3.3133 -1.4068
   12SAPS   O21 1486   2.024   3.615   6.595 -0.2434  0.4398 -0.1334
   12SAPS   C21 1487   1.971   3.615   6.714 -0.6974 -0.4012  0.6979
   12SAPS   O22 1488   1.853   3.607   6.749 -0.4914 -0.1198 -0.1230
   12SAPS   C22 1489   2.083   3.663   6.810 -0.4727  0.6553  0.1821
   12SAPS   H2R 1490   2.178   3.616   6.778 -1.0733 -2.0197  1.9672
   12SAPS   H2S 1491   2.088   3.773   6.794  0.4567  0.6481  0.3498
   12SAPS    C3 1492   1.949   3.443   6.430 -0.7475 -0.2304  0.3028
   12SAPS    HX 1493   2.056   3.442   6.397 -0.3158  2.8409  1.2732
   12SAPS    HY 1494   1.878   3.436   6.345 -0.3418  0.8594 -0.1476
   12SAPS   O31 1495   1.925   3.344   6.531 -0.3010 -0.1911 -0.1498
   12SAPS   C31 1496   2.023   3.303   6.606 -0.3772 -0.2342  0.8761
   12SAPS   O32 1497   2.143   3.315   6.573  0.2697  0.3408 -0.7032
   12SAPS   C32 1498   1.964   3.211   6.715 -0.8694 -0.9010  0.6008
   12SAPS   H2X 1499   1.893   3.143   6.664 -0.0766 -0.3414 -1.3379
   12SAPS   H2Y 1500   1.906   3.278   6.783  1.1960 -0.6319  2.2199
   12SAPS   C23 1501   2.064   3.628   6.959  0.0961 -0.0211  0.0156
   12SAPS   H3R 1502   1.960   3.661   6.981 -0.5154 -1.6667 -0.2743
   12SAPS   H3S 1503   2.136   3.689   7.019 -0.9340  1.4598 -0.2072
   12SAPS   C24 1504   2.097   3.479   6.970  0.2634 -0.0004 -0.3283
   12SAPS   H4R 1505   2.194   3.447   6.926 -1.2137 -4.2803 -0.9269
   12SAPS   H4S 1506   2.028   3.430   6.898 -2.6681  1.6639  1.1779
   12SAPS   C25 1507   2.069   3.413   7.107 -0.2782  0.0211  1.5416
   12SAPS   H5R 1508   1.965   3.400   7.140 -0.8104  0.3458  0.0457
   12SAPS   C26 1509   2.174   3.377   7.187 -0.0804 -0.4158  0.0307
   12SAPS   H6R 1510   2.141   3.332   7.281 -1.8195 -0.1521 -0.4249
   12SAPS   C27 1511   2.322   3.408   7.171 -0.4481  0.6518  0.2700
   12SAPS   H7R 1512   2.347   3.497   7.109  1.1994  1.2031  1.6523
   12SAPS   H7S 1513   2.369   3.319   7.123  1.6253  1.0237  1.4959
   12SAPS   C28 1514   2.401   3.417   7.302 -0.5044  0.5901 -0.1900
   12SAPS   H8R 1515   2.342   3.400   7.393 -0.2469  1.8179  0.2332
   12SAPS   C29 1516   2.531   3.425   7.321 -0.9390  0.5150  0.9570
   12SAPS   H9R 1517   2.569   3.413   7.423  0.2541  1.4854  0.6389
   12SAPS  C210 1518   2.643   3.426   7.218 -0.5533  0.2467 -0.1359
   12SAPS  H10R 1519   2.743   3.421   7.268 -0.6714  0.2006  0.1000
   12SAPS  H10S 1520   2.639   3.522   7.164 -1.2105  1.1181  1.3910
   12SAPS  C211 1521   2.638   3.304   7.122  0.1869 -0.5352  0.3219
   12SAPS  H11R 1522   2.595   3.319   7.022 -1.0677 -0.6219  0.8358
   12SAPS  C212 1523   2.701   3.185   7.136  0.6721 -1.2168  0.8510
   12SAPS  H12R 1524   2.681   3.110   7.058 -0.6315  1.6438 -1.7350
   12SAPS  C213 1525   2.791   3.145   7.245  0.7719 -0.4305 -0.1861
   12SAPS  H13R 1526   2.743   3.166   7.342 -1.5697 -1.6448 -1.0158
   12SAPS  H13S 1527   2.891   3.194   7.251  0.8528 -0.2664 -2.0209
   12SAPS  C214 1528   2.831   2.998   7.235 -0.7273 -0.4940  0.1492
   12SAPS  H14R 1529   2.890   2.970   7.147  0.2905 -0.0299  0.6539
   12SAPS  C215 1530   2.787   2.900   7.310  0.2164 -0.2430 -0.3521
   12SAPS  H15R 1531   2.818   2.795   7.298  0.0419 -0.4009  0.5382
   12SAPS  C216 1532   2.691   2.904   7.428  1.3531 -0.1411 -0.8689
   12SAPS  H16R 1533   2.619   2.821   7.411  1.3193 -0.4997  0.8537
   12SAPS  H16S 1534   2.635   3.000   7.439  0.9813 -0.4001 -0.4696
   12SAPS  C217 1535   2.772   2.887   7.555 -0.4861 -0.6444  0.0780
   12SAPS  H17R 1536   2.853   2.962   7.557 -0.3943 -0.5623  5.0707
   12SAPS  H17S 1537   2.815   2.785   7.563  1.7203  0.3275  1.4865
   12SAPS  C218 1538   2.678   2.899   7.682 -0.2744  0.2877  0.0613
   12SAPS  H18R 1539   2.602   2.820   7.663 -0.2772 -0.5742  3.1368
   12SAPS  H18S 1540   2.625   2.996   7.684  3.8193  2.7755 -1.3689
   12SAPS  C219 1541   2.771   2.875   7.799 -0.3633 -0.1399  0.4442
   12SAPS  H19R 1542   2.861   2.940   7.801 -0.7852  0.6078 -1.6834
   12SAPS  H19S 1543   2.822   2.777   7.786 -2.1770 -1.1167  0.4486
   12SAPS  C220 1544   2.705   2.902   7.937 -0.1735 -0.0639 -0.2547
   12SAPS  H20R 1545   2.786   2.888   8.012  1.8455 -0.0320 -2.3192
   12SAPS  H20S 1546   2.626   2.823   7.944  0.2737 -0.8744 -3.0241
   12SAPS  H20T 1547   2.666   3.005   7.940  0.0696  0.1313 -2.3032
   12SAPS   C33 1548   2.061   3.139   6.812  0.1532 -0.0404 -0.4432
   12SAPS   H3X 1549   2.114   3.213   6.875 -1.0899  1.9956 -1.6490
   12SAPS   H3Y 1550   2.133   3.080   6.751  1.0545 -1.3279  1.7416
   12SAPS   C34 1551   1.983   3.037   6.899  0.0857 -0.1378 -0.2934
   12SAPS   H4X 1552   2.039   2.945   6.926 -0.7439  0.0728  2.4026
   12SAPS   H4Y 1553   1.895   3.001   6.841  0.5957 -1.1702 -0.4374
   12SAPS   C35 1554   1.936   3.102   7.032  0.3224 -0.0367 -0.8113
   12SAPS   H5X 1555   1.889   3.199   7.005 -2.8327 -1.2040  0.0938
   12SAPS   H5Y 1556   2.021   3.119   7.102 -1.7379  0.2914  1.7288
   12SAPS   C36 1557   1.837   3.004   7.105 -0.1600  0.3254  0.3213
   12SAPS   H6X 1558   1.883   2.913   7.148 -0.4245 -0.8387 -1.7320
   12SAPS   H6Y 1559   1.758   2.969   7.035  0.0713 -0.2517  0.3522
   12SAPS   C37 1560   1.765   3.078   7.220 -0.2850  0.0680 -0.4200
   12SAPS   H7X 1561   1.678   3.015   7.245  0.7162 -1.7989 -1.4730
   12SAPS   H7Y 1562   1.724   3.175   7.185 -2.2946 -0.6946 -0.2928
   12SAPS   C38 1563   1.858   3.097   7.341 -0.0561  0.0441 -0.4318
   12SAPS   H8X 1564   1.915   3.189   7.316  2.0096 -1.0820 -0.0901
   12SAPS   H8Y 1565   1.930   3.014   7.353 -2.5200 -2.0408  1.0276
   12SAPS   C39 1566   1.772   3.109   7.471  0.3020  0.1250  0.6111
   12SAPS   H9X 1567   1.743   3.006   7.501  1.6172 -0.5438 -0.2800
   12SAPS   H9Y 1568   1.684   3.173   7.450  0.1717  0.3528  1.7902
   12SAPS  C310 1569   1.843   3.168   7.589  1.1767 -0.3660 -0.0096
   12SAPS  H10X 1570   1.929   3.100   7.609 -0.2564 -2.7063 -1.3372
   12SAPS  H10Y 1571   1.782   3.154   7.681  1.6251  0.4301  0.4251
   12SAPS  C311 1572   1.883   3.313   7.586  0.0965 -0.5039 -0.3755
   12SAPS  H11X 1573   1.796   3.378   7.565 -0.0145 -0.4574  0.2111
   12SAPS  H11Y 1574   1.961   3.316   7.507  1.0823 -1.0062  0.5501
   12SAPS  C312 1575   1.962   3.359   7.719 -0.2606 -0.1676  0.2358
   12SAPS  H12X 1576   2.042   3.283   7.735 -0.7341 -1.1391 -1.7611
   12SAPS  H12Y 1577   1.882   3.357   7.796  1.0133  0.2789  1.6217
   12SAPS  C313 1578   2.020   3.495   7.698  0.3897 -0.3963  0.1458
   12SAPS  H13X 1579   1.954   3.579   7.668  2.9112  1.3691 -0.7144
   12SAPS  H13Y 1580   2.092   3.481   7.615  1.0795 -0.4400  0.7426
   12SAPS  C314 1581   2.096   3.546   7.823  0.4859  0.2472 -0.2494
   12SAPS  H14X 1582   2.188   3.587   7.776 -0.9499  1.8388 -1.8289
   12SAPS  H14Y 1583   2.125   3.458   7.885  0.0496 -0.1240 -0.5660
   12SAPS  C315 1584   2.026   3.663   7.901 -0.1457 -0.1029  0.8055
   12SAPS  H15X 1585   2.028   3.749   7.830  0.2723 -0.6122  0.1825
   12SAPS  H15Y 1586   2.093   3.689   7.985 -0.3081  0.4378  0.7751
   12SAPS  C316 1587   1.889   3.625   7.946  0.6658  0.7798  0.3651
   12SAPS  H16X 1588   1.895   3.539   8.017  0.6999 -0.6557 -1.3243
   12SAPS  H16Y 1589   1.815   3.614   7.865 -0.3925  0.9507  1.2825
   12SAPS  C317 1590   1.831   3.735   8.037 -0.1135 -0.0587  0.7125
   12SAPS  H17X 1591   1.837   3.834   7.988 -0.4975 -0.4651 -0.1897
   12SAPS  H17Y 1592   1.886   3.751   8.132  0.2123 -1.4691  0.7831
   12SAPS  C318 1593   1.685   3.717   8.063 -0.1362  0.7918 -0.1857
   12SAPS  H18X 1594   1.638   3.809   8.104  0.9876  0.7825  1.2450
   12SAPS  H18Y 1595   1.657   3.645   8.144 -1.8784  2.2432  0.5733
   12SAPS  H18Z 1596   1.628   3.682   7.975 -1.1536  2.6890 -0.3340
   13SAPS     N 1597   2.354   3.792   6.363  0.3019 -0.2528  0.3197
   13SAPS   HN1 1598   2.292   3.832   6.436  0.9119  1.8507 -0.2402
   13SAPS   HN2 1599   2.308   3.769   6.272  1.1305  0.6248 -0.3379
   13SAPS   HN3 1600   2.377   3.695   6.394 -0.1065 -0.9063 -1.3056
   13SAPS   C12 1601   2.476   3.873   6.345  0.3225  0.1153  0.0818
   13SAPS  H12A 1602   2.501   3.861   6.240 -1.9960 -0.5132 -0.4540
   13SAPS   C13 1603   2.456   4.023   6.376 -0.6229 -0.4264  0.4641
   13SAPS  O13A 1604   2.353   4.070   6.428 -0.0122  0.0551  0.4383
   13SAPS  O13B 1605   2.556   4.100   6.357 -0.1598  0.0475  0.2319
   13SAPS   C11 1606   2.588   3.817   6.430 -0.8365 -0.4004  0.2661
   13SAPS  H11A 1607   2.555   3.813   6.535  1.9701 -0.4479  1.2321
   13SAPS  H11B 1608   2.680   3.880   6.436 -0.4966 -0.5396 -2.1589
   13SAPS     P 1609   2.764   3.633   6.352  0.2159  0.3473 -0.0327
   13SAPS   O13 1610   2.742   3.493   6.329 -0.5319  0.0568 -0.2494
   13SAPS   O14 1611   2.829   3.709   6.247 -0.4969 -0.1853  0.2529
   13SAPS   O12 1612   2.621   3.686   6.386  0.1624 -0.0209  0.4380
   13SAPS   O11 1613   2.844   3.637   6.487 -0.0451 -0.1193 -0.1907
   13SAPS    C1 1614   2.786   3.584   6.607 -0.7081  0.1702  0.5576
   13SAPS    HA 1615   2.682   3.551   6.586 -0.2443 -0.1233 -1.5124
   13SAPS    HB 1616   2.844   3.494   6.634 -0.2080  0.4579  0.4546
   13SAPS    C2 1617   2.767   3.690   6.722  0.1513  0.3111  0.8290
   13SAPS    HS 1618   2.717   3.779   6.678  0.3540  0.7047  1.3847
   13SAPS   O21 1619   2.895   3.714   6.786 -0.3756  0.0459 -0.2511
   13SAPS   C21 1620   2.912   3.825   6.847  0.5432  0.2478  0.1640
   13SAPS   O22 1621   2.850   3.925   6.826  0.2668 -0.6836  0.2035
   13SAPS   C22 1622   3.027   3.809   6.948  0.2195  0.3495 -0.2940
   13SAPS   H2R 1623   3.038   3.707   6.990  1.0912 -0.5953 -2.6450
   13SAPS   H2S 1624   3.114   3.814   6.880 -0.4810 -2.5892 -1.5835
   13SAPS    C3 1625   2.671   3.625   6.835  0.8389  0.5453  0.1128
   13SAPS    HX 1626   2.721   3.533   6.871 -0.6006 -1.3023 -2.2990
   13SAPS    HY 1627   2.583   3.586   6.781  1.8716 -2.2881  0.3066
   13SAPS   O31 1628   2.645   3.726   6.935  0.3167  0.1090 -0.3993
   13SAPS   C31 1629   2.523   3.777   6.943 -0.2370  0.2664  0.1129
   13SAPS   O32 1630   2.424   3.742   6.884  0.5099  0.5852 -0.3698
   13SAPS   C32 1631   2.531   3.906   7.038  0.3554 -0.0361 -0.3784
   13SAPS   H2X 1632   2.524   3.999   6.978 -2.2775  1.0956  1.5117
   13SAPS   H2Y 1633   2.630   3.906   7.088 -0.3958  2.5841  1.2527
   13SAPS   C23 1634   3.026   3.917   7.060 -0.2324 -0.0453 -0.7422
   13SAPS   H3R 1635   2.971   4.004   7.019 -1.0364 -0.0586  0.2886
   13SAPS   H3S 1636   3.131   3.947   7.082 -0.1466  0.2124 -1.4561
   13SAPS   C24 1637   2.941   3.857   7.178  0.0099  0.1063  0.1810
   13SAPS   H4R 1638   2.995   3.777   7.231 -1.8021 -0.5972  1.0546
   13SAPS   H4S 1639   2.857   3.808   7.125 -1.3247  0.5353  1.8150
   13SAPS   C25 1640   2.887   3.965   7.271 -0.4535  0.1837  0.1386
   13SAPS   H5R 1641   2.820   4.040   7.225  1.4698  2.5809  1.0213
   13SAPS   C26 1642   2.917   3.984   7.399 -0.6192  0.1332  0.3960
   13SAPS   H6R 1643   2.869   4.071   7.447 -0.2659  0.6471 -0.1680
   13SAPS   C27 1644   3.012   3.891   7.468 -0.2121 -0.3042 -0.0549
   13SAPS   H7R 1645   3.088   3.841   7.405  0.7091  2.4070 -1.2520
   13SAPS   H7S 1646   2.947   3.820   7.525  0.3291 -1.6363 -1.0447
   13SAPS   C28 1647   3.102   3.960   7.574 -0.0177  0.1059  0.6808
   13SAPS   H8R 1648   3.193   3.991   7.520 -0.9551  1.0598 -0.4400
   13SAPS   C29 1649   3.084   3.978   7.704 -0.8104  0.1212 -0.4781
   13SAPS   H9R 1650   3.160   4.020   7.770 -3.3894  1.0865  2.0871
   13SAPS  C210 1651   2.960   3.937   7.778  0.0686  0.5745 -0.2796
   13SAPS  H10R 1652   2.952   3.826   7.781 -0.0009  0.5992  1.5587
   13SAPS  H10S 1653   2.874   3.963   7.712 -1.0799  0.5185  1.1356
   13SAPS  C211 1654   2.943   3.994   7.917  0.0362  0.2863 -0.1506
   13SAPS  H11R 1655   2.976   4.098   7.917 -0.2931  0.4209 -1.8121
   13SAPS  C212 1656   2.871   3.938   8.019 -0.1394 -0.8030  0.2027
   13SAPS  H12R 1657   2.868   3.993   8.115  0.9097 -0.6715  0.1681
   13SAPS  C213 1658   2.800   3.800   8.015 -0.8207 -0.2666  0.2215
   13SAPS  H13R 1659   2.804   3.755   8.116  0.4043  1.6713  1.1054
   13SAPS  H13S 1660   2.869   3.723   7.977  0.4445 -0.8751  3.4166
   13SAPS  C214 1661   2.661   3.804   7.954 -0.3512  0.2505  0.3993
   13SAPS  H14R 1662   2.655   3.872   7.868 -0.9862 -0.3141 -0.0107
   13SAPS  C215 1663   2.543   3.756   7.985 -1.0805  0.0506  0.1905
   13SAPS  H15R 1664   2.464   3.784   7.914 -1.4866  2.4206  1.4512
   13SAPS  C216 1665   2.511   3.678   8.107  0.7412  0.8306 -0.6342
   13SAPS  H16R 1666   2.427   3.718   8.166  2.0190  0.8298  1.2684
   13SAPS  H16S 1667   2.601   3.679   8.173  0.5404  1.8117 -0.3579
   13SAPS  C217 1668   2.481   3.527   8.062  0.0505 -0.0859  0.3509
   13SAPS  H17R 1669   2.566   3.484   8.004 -2.8797 -2.1899 -2.8135
   13SAPS  H17S 1670   2.390   3.532   7.999 -0.8302 -1.5478  1.4486
   13SAPS  C218 1671   2.452   3.428   8.170  0.5420  0.4689 -0.9484
   13SAPS  H18R 1672   2.419   3.333   8.125 -1.3145  0.5860  0.0456
   13SAPS  H18S 1673   2.374   3.489   8.222  1.4964  0.3608  0.6810
   13SAPS  C219 1674   2.570   3.401   8.253 -0.3198 -0.2993 -0.3143
   13SAPS  H19R 1675   2.606   3.500   8.286 -0.8863 -0.8425  2.1586
   13SAPS  H19S 1676   2.652   3.360   8.190 -0.9095 -1.0237 -0.6400
   13SAPS  C220 1677   2.543   3.321   8.386  0.2739 -0.4043 -0.2240
   13SAPS  H20R 1678   2.480   3.398   8.436  0.1021 -0.7032  0.0194
   13SAPS  H20S 1679   2.638   3.299   8.440  0.0166 -0.0558  0.3889
   13SAPS  H20T 1680   2.470   3.242   8.360 -1.1152  1.1821 -1.3362
   13SAPS   C33 1681   2.427   3.901   7.151  0.0721 -0.3802 -0.6229
   13SAPS   H3X 1682   2.320   3.879   7.130 -0.4270 -2.0982  2.9877
   13SAPS   H3Y 1683   2.436   4.004   7.193  1.8990  0.1922 -2.3079
   13SAPS   C34 1684   2.460   3.797   7.259 -0.3215 -0.1572  0.3010
   13SAPS   H4X 1685   2.566   3.762   7.260 -0.8524 -2.0703 -1.6810
   13SAPS   H4Y 1686   2.429   3.696   7.225  2.2732 -0.6323 -0.8679
   13SAPS   C35 1687   2.379   3.809   7.397 -0.0862 -1.0191  0.4258
   13SAPS   H5X 1688   2.434   3.750   7.474  0.9016 -0.9803 -0.2216
   13SAPS   H5Y 1689   2.279   3.768   7.374  0.1957 -1.3963 -0.1524
   13SAPS   C36 1690   2.371   3.950   7.442  0.4125  0.3237 -0.3414
   13SAPS   H6X 1691   2.295   4.000   7.379 -1.2227 -2.1696 -0.5123
   13SAPS   H6Y 1692   2.465   3.999   7.409 -0.0161  1.5259  0.1814
   13SAPS   C37 1693   2.363   3.981   7.591 -0.0961  0.1660  0.1539
   13SAPS   H7X 1694   2.373   4.091   7.606 -0.3223  0.2232 -0.0983
   13SAPS   H7Y 1695   2.442   3.922   7.641 -1.5867 -4.0687 -2.0198
   13SAPS   C38 1696   2.231   3.948   7.657  0.1109  0.2459 -0.3188
   13SAPS   H8X 1697   2.215   3.839   7.643 -0.3281  0.3858 -0.9499
   13SAPS   H8Y 1698   2.156   4.006   7.600 -0.7291  0.9681  1.4240
   13SAPS   C39 1699   2.235   3.971   7.815  0.3614  0.0676  0.6120
   13SAPS   H9X 1700   2.306   3.896   7.857 -1.2896 -2.2360 -0.4690
   13SAPS   H9Y 1701   2.134   3.944   7.853  0.9045 -2.0383  0.7346
   13SAPS  C310 1702   2.288   4.113   7.861 -0.4566 -0.9908  0.4419
   13SAPS  H10X 1703   2.222   4.196   7.829 -0.0646 -1.5320 -1.9162
   13SAPS  H10Y 1704   2.385   4.135   7.814  0.2969  0.8754  2.6970
   13SAPS  C311 1705   2.313   4.129   8.011  0.5394 -0.2767  0.0966
   13SAPS  H11X 1706   2.375   4.221   8.016 -0.6254  0.5607 -0.5273
   13SAPS  H11Y 1707   2.365   4.036   8.045  1.2485 -0.0207 -0.2725
   13SAPS  C312 1708   2.179   4.151   8.093 -0.4319 -0.0750 -0.4376
   13SAPS  H12X 1709   2.111   4.068   8.063 -1.4260  1.4588 -2.6774
   13SAPS  H12Y 1710   2.123   4.240   8.057  1.1601  1.5001  0.8096
   13SAPS  C313 1711   2.195   4.175   8.243  0.2375 -0.0410 -0.0922
   13SAPS  H13X 1712   2.277   4.249   8.255 -0.0748  0.2728  0.1399
   13SAPS  H13Y 1713   2.231   4.082   8.293 -1.2812 -0.3285  0.5417
   13SAPS  C314 1714   2.071   4.234   8.313 -0.8336 -0.9107  0.3241
   13SAPS  H14X 1715   2.058   4.335   8.266  1.9666 -0.3590  0.5945
   13SAPS  H14Y 1716   2.095   4.248   8.420  1.3321  0.7539 -0.3078
   13SAPS  C315 1717   1.935   4.156   8.305  0.1570 -0.3176 -0.3792
   13SAPS  H15X 1718   1.916   4.116   8.204 -1.3638 -0.5842 -0.0233
   13SAPS  H15Y 1719   1.853   4.232   8.312  0.5842  0.2856 -1.6174
   13SAPS  C316 1720   1.917   4.045   8.414  0.9991 -0.3747  0.5106
   13SAPS  H16X 1721   1.890   4.095   8.509 -2.4736 -0.3575 -0.3661
   13SAPS  H16Y 1722   2.017   3.997   8.420  1.3337  0.3276  0.6776
   13SAPS  C317 1723   1.817   3.938   8.380  0.3231  0.1540  0.2541
   13SAPS  H17X 1724   1.849   3.890   8.285 -0.8523  1.0012 -0.5954
   13SAPS  H17Y 1725   1.720   3.986   8.352 -0.2878 -2.0375 -1.7659
   13SAPS  C318 1726   1.794   3.830   8.482  0.4627  0.5166  0.8901
   13SAPS  H18X 1727   1.895   3.785   8.494  0.8418  1.0232 -0.2142
   13SAPS  H18Y 1728   1.716   3.762   8.440  2.2153 -0.9127 -0.1911
   13SAPS  H18Z 1729   1.752   3.870   8.577 -0.9799 -0.1508  0.5691
   14SAPS     N 1730   1.474   5.202   6.262  0.5172  0.3369 -0.3797
   14SAPS   HN1 1731   1.578   5.203   6.263  0.5334  1.3303 -1.7130
   14SAPS   HN2 1732   1.431   5.289   6.300 -1.5018 -0.4623 -0.6980
   14SAPS   HN3 1733   1.439   5.126   6.325  3.8052  1.6060  3.4148
   14SAPS   C12 1734   1.416   5.176   6.129  0.6784 -0.0868 -0.0712
   14SAPS  H12A 1735   1.437   5.071   6.113  0.9686 -0.0499  0.0496
   14SAPS   C13 1736   1.267   5.177   6.122  0.1781  0.0304 -0.0815
   14SAPS  O13A 1737   1.203   5.194   6.227  0.0106 -0.0167 -0.1831
   14SAPS  O13B 1738   1.208   5.167   6.011  0.0305 -0.0330 -0.4361
   14SAPS   C11 1739   1.484   5.270   6.019  0.3930  0.2606  0.0186
   14SAPS  H11A 1740   1.438   5.370   6.032  0.5325  0.6654 -2.1385
   14SAPS  H11B 1741   1.457   5.230   5.919 -0.5963 -0.8544  0.7074
   14SAPS     P 1742   1.716   5.388   5.955  0.0042  0.0088 -0.3287
   14SAPS   O13 1743   1.852   5.369   6.006 -0.4919  0.3801 -0.8131
   14SAPS   O14 1744   1.701   5.384   5.807  0.3261 -0.0415  0.1519
   14SAPS   O12 1745   1.631   5.279   6.033  0.3859 -0.8120 -0.0086
   14SAPS   O11 1746   1.647   5.523   6.009 -0.3803  0.6672  0.5219
   14SAPS    C1 1747   1.711   5.606   6.106  0.1323 -1.4267  0.7782
   14SAPS    HA 1748   1.821   5.592   6.114  0.2415 -1.1040 -0.0900
   14SAPS    HB 1749   1.697   5.709   6.069 -0.9743 -2.5578 -2.3155
   14SAPS    C2 1750   1.646   5.584   6.249 -0.1969  0.9943  0.2587
   14SAPS    HS 1751   1.695   5.651   6.323  3.8736 -1.7042  0.3210
   14SAPS   O21 1752   1.670   5.451   6.288  0.2995  0.0473 -0.1371
   14SAPS   C21 1753   1.787   5.423   6.334  0.1566  0.9520 -0.9489
   14SAPS   O22 1754   1.881   5.500   6.335  0.2779  0.1445 -0.5656
   14SAPS   C22 1755   1.799   5.270   6.365 -0.5178 -0.0086  0.5210
   14SAPS   H2R 1756   1.699   5.238   6.404 -0.4356 -1.3750 -0.2990
   14SAPS   H2S 1757   1.814   5.206   6.275  0.2433 -1.6282  1.7368
   14SAPS    C3 1758   1.492   5.613   6.266 -0.0582  0.1878  0.3848
   14SAPS    HX 1759   1.452   5.523   6.214  0.8560  0.3208 -0.5733
   14SAPS    HY 1760   1.474   5.710   6.215 -1.8232 -0.5464 -0.4886
   14SAPS   O31 1761   1.453   5.623   6.406 -0.0183 -0.2018 -0.4409
   14SAPS   C31 1762   1.401   5.523   6.464  0.4084  0.2771  0.1612
   14SAPS   O32 1763   1.397   5.408   6.418 -0.2761  0.3960 -0.2906
   14SAPS   C32 1764   1.339   5.569   6.595 -0.4169 -0.5925 -0.0160
   14SAPS   H2X 1765   1.228   5.556   6.600 -0.6553  1.0957 -0.2134
   14SAPS   H2Y 1766   1.371   5.674   6.612  3.5905 -1.4597 -1.3148
   14SAPS   C23 1767   1.916   5.238   6.460  0.1998 -0.5232  0.7516
   14SAPS   H3R 1768   1.896   5.298   6.551 -0.5451 -0.1004  0.3166
   14SAPS   H3S 1769   2.013   5.283   6.428  0.8701 -1.0735  1.9298
   14SAPS   C24 1770   1.920   5.090   6.495  0.0719  0.1366  0.2732
   14SAPS   H4R 1771   2.000   5.085   6.572 -0.7299  1.1626  1.2110
   14SAPS   H4S 1772   1.956   5.043   6.401  2.1734  0.9574  0.5973
   14SAPS   C25 1773   1.788   5.032   6.548  0.5230 -0.2275 -0.6559
   14SAPS   H5R 1774   1.725   4.987   6.471 -0.4989 -3.6518  1.9439
   14SAPS   C26 1775   1.739   5.032   6.679 -0.0219  0.1688  0.6556
   14SAPS   H6R 1776   1.645   4.986   6.714 -0.3892  1.0533  0.8595
   14SAPS   C27 1777   1.833   5.078   6.794  0.0714  0.1812  0.7881
   14SAPS   H7R 1778   1.774   5.113   6.881  0.5557 -3.5752  2.8278
   14SAPS   H7S 1779   1.888   5.166   6.753  1.2584 -1.8042 -2.1985
   14SAPS   C28 1780   1.927   4.965   6.834  0.3977 -0.1120  0.3037
   14SAPS   H8R 1781   1.968   4.913   6.746 -0.5271  0.9032 -0.7650
   14SAPS   C29 1782   1.945   4.908   6.961 -0.5417 -0.4244 -0.6168
   14SAPS   H9R 1783   2.008   4.818   6.966 -1.0949 -0.8850 -1.7125
   14SAPS  C210 1784   1.886   4.959   7.093  0.3409 -0.1165  0.0149
   14SAPS  H10R 1785   1.866   4.867   7.152 -1.2155 -0.8354 -1.5392
   14SAPS  H10S 1786   1.786   5.005   7.079 -0.3491 -1.8113 -0.9865
   14SAPS  C211 1787   1.979   5.049   7.171  0.2965 -0.0796 -0.9091
   14SAPS  H11R 1788   2.043   5.114   7.110  0.7039 -0.4429 -0.8793
   14SAPS  C212 1789   1.980   5.066   7.310 -0.3771  0.0331 -0.1574
   14SAPS  H12R 1790   2.051   5.144   7.342 -1.0741  1.2643 -1.4832
   14SAPS  C213 1791   1.896   4.998   7.414  0.1292 -0.1083 -0.1550
   14SAPS  H13R 1792   1.809   4.944   7.372  0.4931 -0.9154  0.1119
   14SAPS  H13S 1793   1.852   5.081   7.473 -2.6265  1.0153 -3.4618
   14SAPS  C214 1794   1.968   4.899   7.495 -0.3266 -0.3059  0.0394
   14SAPS  H14R 1795   2.021   4.825   7.433  1.0035  0.1105  0.6290
   14SAPS  C215 1796   1.957   4.871   7.628 -0.3610 -0.0681 -0.0720
   14SAPS  H15R 1797   2.016   4.788   7.668 -1.2110  0.4322  2.3896
   14SAPS  C216 1798   1.887   4.943   7.736  0.4590 -0.4107 -0.0091
   14SAPS  H16R 1799   1.838   4.866   7.800 -1.1861 -0.9014 -1.7903
   14SAPS  H16S 1800   1.801   4.990   7.684  0.0925 -1.9420 -0.8385
   14SAPS  C217 1801   1.963   5.035   7.828  0.7797  0.7405  0.2375
   14SAPS  H17R 1802   2.048   4.976   7.869  0.4971  0.5810  0.5994
   14SAPS  H17S 1803   1.902   5.061   7.917 -2.3879 -1.7645 -0.9964
   14SAPS  C218 1804   2.017   5.159   7.758 -0.5624  0.0094  0.1032
   14SAPS  H18R 1805   2.060   5.123   7.662 -1.3439  0.0832 -0.2798
   14SAPS  H18S 1806   2.103   5.198   7.817 -0.6447  2.1052 -1.0450
   14SAPS  C219 1807   1.921   5.279   7.728 -0.0034  0.9739 -0.5508
   14SAPS  H19R 1808   1.871   5.313   7.821  1.8517  3.1485 -0.2430
   14SAPS  H19S 1809   1.848   5.236   7.656 -1.3063  2.2148 -0.0157
   14SAPS  C220 1810   1.995   5.399   7.673  0.0648  0.4215  0.0010
   14SAPS  H20R 1811   2.069   5.447   7.740 -2.2377  4.0152  0.2344
   14SAPS  H20S 1812   1.926   5.481   7.645 -0.0104  1.0004  1.7919
   14SAPS  H20T 1813   2.054   5.375   7.582 -1.5320 -1.0620 -0.7140
   14SAPS   C33 1814   1.398   5.494   6.719  0.2143  0.4974 -0.1175
   14SAPS   H3X 1815   1.503   5.529   6.733 -0.1914  1.4964  0.5199
   14SAPS   H3Y 1816   1.394   5.387   6.688  0.7935  0.1894  0.8342
   14SAPS   C34 1817   1.328   5.546   6.847  0.1397 -0.3870 -0.4134
   14SAPS   H4X 1818   1.224   5.508   6.848  0.0036 -0.0255  0.7293
   14SAPS   H4Y 1819   1.310   5.656   6.844 -0.5682 -0.4787  0.1912
   14SAPS   C35 1820   1.405   5.510   6.973 -0.2261  0.2403  0.1698
   14SAPS   H5X 1821   1.494   5.575   6.982 -0.3951  0.5263 -0.1941
   14SAPS   H5Y 1822   1.444   5.406   6.968  1.7563  0.9021  1.0225
   14SAPS   C36 1823   1.323   5.533   7.095 -0.0038 -0.3147  0.3154
   14SAPS   H6X 1824   1.216   5.527   7.065  0.7808 -0.3924 -2.7535
   14SAPS   H6Y 1825   1.349   5.632   7.138  0.7696 -0.5198  0.3349
   14SAPS   C37 1826   1.360   5.449   7.216  0.6090  0.1588 -0.8787
   14SAPS   H7X 1827   1.469   5.461   7.232  0.3239  0.3379  1.3287
   14SAPS   H7Y 1828   1.346   5.339   7.208  2.5675 -0.6859  3.7126
   14SAPS   C38 1829   1.271   5.495   7.335  0.4739  0.0279 -0.1628
   14SAPS   H8X 1830   1.161   5.484   7.320  0.5862 -0.1915 -0.8600
   14SAPS   H8Y 1831   1.311   5.597   7.350 -0.6031  0.4620 -0.2060
   14SAPS   C39 1832   1.312   5.423   7.463  0.2858  0.5027  0.5724
   14SAPS   H9X 1833   1.423   5.419   7.468  0.2170 -1.7562  1.5173
   14SAPS   H9Y 1834   1.269   5.320   7.466  0.3147  0.4144 -1.1147
   14SAPS  C310 1835   1.258   5.477   7.591  0.6327 -0.1292  0.1035
   14SAPS  H10X 1836   1.155   5.439   7.608  0.1597  1.5164  1.0949
   14SAPS  H10Y 1837   1.249   5.587   7.598 -0.2585 -0.3094  2.3022
   14SAPS  C311 1838   1.323   5.436   7.725 -0.1475 -0.1838 -0.5716
   14SAPS  H11X 1839   1.320   5.326   7.740 -1.5286  0.0470  1.2074
   14SAPS  H11Y 1840   1.264   5.490   7.802  0.3191 -0.5931  0.0820
   14SAPS  C312 1841   1.473   5.467   7.726  0.3984  0.4911 -1.3032
   14SAPS  H12X 1842   1.489   5.572   7.694  0.2570  1.1052  0.5060
   14SAPS  H12Y 1843   1.535   5.396   7.668  2.0941 -0.3128  1.3128
   14SAPS  C313 1844   1.535   5.453   7.867 -0.6407  0.0329 -0.6329
   14SAPS  H13X 1845   1.645   5.452   7.857 -0.3178  2.3058  1.5741
   14SAPS  H13Y 1846   1.514   5.357   7.919  1.2615 -0.1884 -0.2194
   14SAPS  C314 1847   1.489   5.570   7.959  0.1791 -0.2116 -0.7780
   14SAPS  H14X 1848   1.382   5.563   7.987  0.2894  0.0901 -0.2641
   14SAPS  H14Y 1849   1.509   5.670   7.915  1.4038  0.6505  1.5494
   14SAPS  C315 1850   1.562   5.577   8.089  0.4299 -0.3759  0.2710
   14SAPS  H15X 1851   1.670   5.599   8.076  0.5650 -1.9648 -1.7193
   14SAPS  H15Y 1852   1.558   5.478   8.139 -0.5228  0.0346  1.0339
   14SAPS  C316 1853   1.498   5.664   8.195 -0.4613  0.0117 -0.6600
   14SAPS  H16X 1854   1.391   5.636   8.206  0.0928 -1.6429  0.8027
   14SAPS  H16Y 1855   1.515   5.769   8.162  1.2818 -0.3302 -0.9746
   14SAPS  C317 1856   1.544   5.629   8.336 -1.0441  0.0157 -0.7741
   14SAPS  H17X 1857   1.650   5.598   8.349 -0.7123  1.3617 -0.1751
   14SAPS  H17Y 1858   1.480   5.546   8.372 -1.4186  1.0624  1.0909
   14SAPS  C318 1859   1.522   5.743   8.439 -0.1097 -0.3330 -0.0674
   14SAPS  H18X 1860   1.531   5.842   8.390 -0.7706 -0.3729 -0.2874
   14SAPS  H18Y 1861   1.592   5.755   8.524  0.1374 -0.1516 -0.2983
   14SAPS  H18Z 1862   1.423   5.739   8.489  0.4453 -0.3195  1.0516
   15SAPS     N 1863   2.574   4.558   6.102 -0.5031  0.5647  0.0103
   15SAPS   HN1 1864   2.643   4.586   6.029 -0.8711  1.1012 -0.1343
   15SAPS   HN2 1865   2.557   4.641   6.161  1.8660 -0.5432  2.4567
   15SAPS   HN3 1866   2.603   4.474   6.155 -1.5431 -1.4438 -2.3917
   15SAPS   C12 1867   2.446   4.514   6.020 -0.5132  0.7351 -0.4305
   15SAPS  H12A 1868   2.472   4.450   5.937 -0.2194  0.6194 -0.2505
   15SAPS   C13 1869   2.335   4.460   6.111  0.0787 -0.1561 -0.2313
   15SAPS  O13A 1870   2.361   4.430   6.228  0.2007  0.5549 -0.0290
   15SAPS  O13B 1871   2.239   4.414   6.048  0.3489  0.5754 -0.8477
   15SAPS   C11 1872   2.391   4.642   5.949 -0.0720 -0.1370 -0.0494
   15SAPS  H11A 1873   2.313   4.595   5.885  0.4247 -0.5420 -0.3691
   15SAPS  H11B 1874   2.464   4.681   5.876 -0.0516 -2.7618 -1.5510
   15SAPS     P 1875   2.232   4.841   5.984  0.2232  0.1811 -0.4438
   15SAPS   O13 1876   2.299   4.941   5.906 -0.0825  0.3271  0.2743
   15SAPS   O14 1877   2.112   4.770   5.928  0.1010  0.1815 -0.5871
   15SAPS   O12 1878   2.339   4.739   6.039  0.0971 -0.0282 -0.2443
   15SAPS   O11 1879   2.176   4.899   6.122  0.3437 -0.0299  0.0358
   15SAPS    C1 1880   2.209   4.840   6.250  0.2245 -0.1691 -0.5003
   15SAPS    HA 1881   2.319   4.830   6.262  0.1101 -0.3450  0.5262
   15SAPS    HB 1882   2.189   4.901   6.341  1.0013 -3.1269  1.8148
   15SAPS    C2 1883   2.118   4.714   6.277  0.4912 -0.2240  0.1997
   15SAPS    HS 1884   2.122   4.660   6.180 -2.7367  0.4899 -0.4373
   15SAPS   O21 1885   1.987   4.756   6.328 -0.1537 -0.5536 -0.1216
   15SAPS   C21 1886   1.901   4.659   6.343  0.2224 -0.3985  0.2961
   15SAPS   O22 1887   1.915   4.551   6.296  0.4050 -0.5607 -0.0155
   15SAPS   C22 1888   1.782   4.709   6.435  0.3387 -0.1892 -0.5463
   15SAPS   H2R 1889   1.835   4.778   6.504 -0.2964  1.2430 -1.4312
   15SAPS   H2S 1890   1.721   4.778   6.372 -0.3676  0.0458  0.3744
   15SAPS    C3 1891   2.180   4.619   6.390 -0.2043  0.6788 -0.3873
   15SAPS    HX 1892   2.288   4.605   6.368 -0.4192 -3.4108  0.2611
   15SAPS    HY 1893   2.129   4.521   6.376 -0.0901  0.6618 -0.6919
   15SAPS   O31 1894   2.174   4.674   6.526  0.0200 -0.1543 -0.0248
   15SAPS   C31 1895   2.218   4.593   6.617 -0.1960  0.5445 -0.1206
   15SAPS   O32 1896   2.279   4.486   6.596 -0.5886 -0.4123  0.7840
   15SAPS   C32 1897   2.192   4.644   6.761 -0.3433 -0.7999 -0.0281
   15SAPS   H2X 1898   2.083   4.643   6.786 -0.3138  1.1359  0.3494
   15SAPS   H2Y 1899   2.227   4.750   6.763  2.0168 -1.5331  2.1053
   15SAPS   C23 1900   1.702   4.596   6.497  0.5513  0.1576  0.6376
   15SAPS   H3R 1901   1.666   4.528   6.417  2.5933  0.4676 -0.6409
   15SAPS   H3S 1902   1.609   4.641   6.537  0.4437  2.1287 -1.5936
   15SAPS   C24 1903   1.774   4.514   6.602  0.4662 -0.7289 -0.6444
   15SAPS   H4R 1904   1.868   4.471   6.562  1.1882 -0.0152  0.2358
   15SAPS   H4S 1905   1.703   4.436   6.637 -0.3416 -0.7226 -2.1709
   15SAPS   C25 1906   1.797   4.594   6.728 -0.0896 -0.3703 -0.0111
   15SAPS   H5R 1907   1.792   4.703   6.713  1.6186 -0.3108 -0.4304
   15SAPS   C26 1908   1.821   4.549   6.849 -0.0795  1.3549 -1.1016
   15SAPS   H6R 1909   1.834   4.626   6.926  0.0833 -0.1345  0.4089
   15SAPS   C27 1910   1.835   4.408   6.905 -0.6205  0.7115  0.1028
   15SAPS   H7R 1911   1.736   4.369   6.936 -0.2621  0.5151  1.0471
   15SAPS   H7S 1912   1.890   4.422   7.000  0.1628  0.3931 -0.2946
   15SAPS   C28 1913   1.906   4.291   6.833 -1.1832  0.3309 -0.2440
   15SAPS   H8R 1914   1.942   4.322   6.734  0.7716 -1.2161 -0.0777
   15SAPS   C29 1915   1.948   4.173   6.880 -0.2456 -0.4654 -0.1113
   15SAPS   H9R 1916   1.997   4.102   6.811  1.1252  0.7917 -0.4916
   15SAPS  C210 1917   1.926   4.135   7.023 -0.2495  1.4831  0.5454
   15SAPS  H10R 1918   1.825   4.088   7.029  0.4200 -0.2744 -1.0930
   15SAPS  H10S 1919   1.918   4.221   7.093 -0.0659  0.7842  1.4456
   15SAPS  C211 1920   2.028   4.048   7.092 -0.3035  0.4373  0.0186
   15SAPS  H11R 1921   2.132   4.073   7.068 -0.0237 -1.8477 -1.4180
   15SAPS  C212 1922   2.010   3.949   7.184  0.2494 -0.6411  0.0667
   15SAPS  H12R 1923   2.097   3.885   7.206  0.6540 -0.4433 -0.9114
   15SAPS  C213 1924   1.868   3.911   7.220  0.3626 -0.2497 -0.2864
   15SAPS  H13R 1925   1.814   3.867   7.133 -1.0450 -1.0531  0.9339
   15SAPS  H13S 1926   1.821   4.006   7.254  4.2419  0.9012  2.4894
   15SAPS  C214 1927   1.881   3.825   7.347 -0.0547  0.3243 -0.0291
   15SAPS  H14R 1928   1.920   3.724   7.326  1.8945  0.4578  2.5307
   15SAPS  C215 1929   1.855   3.848   7.475 -0.5854 -0.2088  0.0339
   15SAPS  H15R 1930   1.873   3.766   7.545  1.3957 -0.4380 -0.6624
   15SAPS  C216 1931   1.806   3.974   7.535 -0.4354 -0.7444 -0.2852
   15SAPS  H16R 1932   1.695   3.967   7.530 -0.4151 -1.4162  0.0302
   15SAPS  H16S 1933   1.833   4.057   7.466 -0.6820 -1.4364 -1.2298
   15SAPS  C217 1934   1.860   4.007   7.675  0.0777 -0.1909 -0.5621
   15SAPS  H17R 1935   1.970   4.029   7.674 -0.5304  3.7077 -0.3541
   15SAPS  H17S 1936   1.842   3.925   7.747  0.2516 -0.2034 -0.5315
   15SAPS  C218 1937   1.799   4.145   7.720  0.0677 -0.0774  0.5416
   15SAPS  H18R 1938   1.690   4.129   7.706  0.6456 -3.0849 -1.4111
   15SAPS  H18S 1939   1.834   4.226   7.652  0.6692  0.3840  1.3882
   15SAPS  C219 1940   1.823   4.173   7.870  0.5253 -0.4436 -0.1075
   15SAPS  H19R 1941   1.931   4.160   7.893  0.7671  1.5799  0.0739
   15SAPS  H19S 1942   1.764   4.101   7.930  0.3188  1.2235  1.7619
   15SAPS  C220 1943   1.757   4.309   7.901 -0.5420 -0.2061  0.1573
   15SAPS  H20R 1944   1.648   4.294   7.893 -0.4916 -1.1444  1.0549
   15SAPS  H20S 1945   1.792   4.392   7.836 -2.2493  0.7941  0.4536
   15SAPS  H20T 1946   1.776   4.348   8.004 -1.1138 -0.1590  0.2445
   15SAPS   C33 1947   2.262   4.566   6.872  0.1176  0.5020 -0.6847
   15SAPS   H3X 1948   2.372   4.565   6.859  0.1517 -2.4539 -0.7395
   15SAPS   H3Y 1949   2.221   4.463   6.867 -2.6381  1.5590 -2.9242
   15SAPS   C34 1950   2.217   4.611   7.013 -0.1247  0.1097 -0.1916
   15SAPS   H4X 1951   2.110   4.639   7.004 -0.1052 -0.0539 -1.0436
   15SAPS   H4Y 1952   2.276   4.701   7.041 -2.8467  1.8239  0.4305
   15SAPS   C35 1953   2.217   4.501   7.118 -0.3457 -0.7568  0.5944
   15SAPS   H5X 1954   2.308   4.437   7.113  0.2410  0.0575  0.5533
   15SAPS   H5Y 1955   2.138   4.426   7.100 -3.2317  1.5071  2.8822
   15SAPS   C36 1956   2.203   4.548   7.267  0.5582  0.6207 -0.0388
   15SAPS   H6X 1957   2.108   4.605   7.275  0.3109  0.3293 -0.7833
   15SAPS   H6Y 1958   2.275   4.631   7.285 -0.0736  0.5458  3.6636
   15SAPS   C37 1959   2.199   4.438   7.371 -0.4330  0.4508 -0.6068
   15SAPS   H7X 1960   2.292   4.378   7.375 -1.3118 -0.9167  2.9658
   15SAPS   H7Y 1961   2.116   4.371   7.340 -0.1814  0.3393 -1.0498
   15SAPS   C38 1962   2.167   4.502   7.514 -0.2300  0.4325  0.3380
   15SAPS   H8X 1963   2.079   4.569   7.507  0.0422  0.8718  1.0497
   15SAPS   H8Y 1964   2.251   4.572   7.534  0.9377 -1.0267  0.6712
   15SAPS   C39 1965   2.138   4.406   7.631 -0.6316  0.4924 -0.0515
   15SAPS   H9X 1966   2.231   4.347   7.647 -1.0736  0.3291  2.1978
   15SAPS   H9Y 1967   2.060   4.334   7.598 -0.2829  1.4231 -3.2975
   15SAPS  C310 1968   2.092   4.479   7.764 -0.0193  0.2841  0.1997
   15SAPS  H10X 1969   2.050   4.401   7.832 -2.0644  1.2544  0.1092
   15SAPS  H10Y 1970   2.020   4.557   7.734  2.1175  1.6402 -1.7354
   15SAPS  C311 1971   2.204   4.544   7.845 -0.1415 -1.0799 -0.6568
   15SAPS  H11X 1972   2.278   4.598   7.782  0.7255 -1.1240  0.2839
   15SAPS  H11Y 1973   2.256   4.471   7.912  1.2142  1.2750  1.0185
   15SAPS  C312 1974   2.146   4.633   7.955  0.2821 -0.2657 -0.5244
   15SAPS  H12X 1975   2.087   4.584   8.035  0.0743  0.3820 -0.2773
   15SAPS  H12Y 1976   2.076   4.701   7.903  0.0793  0.0973  0.2164
   15SAPS  C313 1977   2.238   4.733   8.019 -0.2262 -0.2241 -0.3751
   15SAPS  H13X 1978   2.263   4.799   7.934 -2.0694 -0.8648 -1.4857
   15SAPS  H13Y 1979   2.327   4.684   8.063 -0.4686  0.5829  1.1028
   15SAPS  C314 1980   2.171   4.820   8.122  0.1295 -0.9288 -0.1588
   15SAPS  H14X 1981   2.067   4.844   8.092  0.9208 -0.6551 -2.9763
   15SAPS  H14Y 1982   2.223   4.917   8.136  2.0361 -1.7327 -1.2037
   15SAPS  C315 1983   2.169   4.745   8.261  0.6380 -0.5324  0.0223
   15SAPS  H15X 1984   2.258   4.680   8.271  0.0488 -1.4961 -0.8628
   15SAPS  H15Y 1985   2.075   4.686   8.258 -0.5755  1.3068 -1.8253
   15SAPS  C316 1986   2.164   4.838   8.384 -0.2903 -0.0624  0.3197
   15SAPS  H16X 1987   2.058   4.871   8.383  0.2003  1.5936  0.1084
   15SAPS  H16Y 1988   2.237   4.919   8.364  2.0171 -2.2848 -0.8016
   15SAPS  C317 1989   2.187   4.767   8.511  0.1426  0.2005 -0.0542
   15SAPS  H17X 1990   2.288   4.720   8.506  0.5517  0.7093  2.2388
   15SAPS  H17Y 1991   2.115   4.682   8.513 -0.0571  0.3105  3.2652
   15SAPS  C318 1992   2.167   4.840   8.645 -0.6680  0.1443 -0.4799
   15SAPS  H18X 1993   2.254   4.905   8.668  0.3234 -1.1143 -0.5301
   15SAPS  H18Y 1994   2.157   4.774   8.734  0.3874 -1.5591 -1.5711
   15SAPS  H18Z 1995   2.075   4.901   8.635 -0.7655  0.2359  0.8034
   16SAPS     N 1996   1.584   1.984   6.281  0.7495 -0.0763 -0.3808
   16SAPS   HN1 1997   1.491   2.025   6.259  0.3530 -0.4426  0.5213
   16SAPS   HN2 1998   1.579   1.929   6.370  0.0151 -2.9138 -2.0580
   16SAPS   HN3 1999   1.641   2.066   6.309 -0.2781  0.3387  0.6011
   16SAPS   C12 2000   1.632   1.895   6.174 -0.5247 -0.6404 -0.2244
   16SAPS  H12A 2001   1.561   1.814   6.169  0.3371 -1.4193 -0.0936
   16SAPS   C13 2002   1.659   1.957   6.035 -0.0498  0.1736  0.2050
   16SAPS  O13A 2003   1.640   2.078   6.011  0.2995 -0.2675  0.7119
   16SAPS  O13B 2004   1.694   1.876   5.943  0.1706  0.0515  0.1781
   16SAPS   C11 2005   1.763   1.819   6.214  0.0354 -0.0947  0.1234
   16SAPS  H11A 2006   1.839   1.900   6.221 -0.6977  0.4400  3.2653
   16SAPS  H11B 2007   1.789   1.752   6.129 -0.5446  1.9576 -1.7817
   16SAPS     P 2008   1.851   1.686   6.420 -0.1352 -0.1693  0.0188
   16SAPS   O13 2009   1.974   1.667   6.336 -0.1222  0.0423  0.2210
   16SAPS   O14 2010   1.862   1.777   6.537 -0.2220 -0.7870  0.2304
   16SAPS   O12 2011   1.740   1.734   6.325 -0.3942  0.1614 -0.0154
   16SAPS   O11 2012   1.809   1.548   6.464 -0.5565 -0.3763  0.0366
   16SAPS    C1 2013   1.693   1.525   6.549 -0.5447 -0.3183 -0.0444
   16SAPS    HA 2014   1.616   1.601   6.523  0.1059  0.3157 -0.1611
   16SAPS    HB 2015   1.652   1.424   6.526  1.3180 -1.6085  1.9467
   16SAPS    C2 2016   1.735   1.531   6.695 -0.1234  0.2311  0.5580
   16SAPS    HS 2017   1.751   1.638   6.720  1.5974  0.3721 -0.8978
   16SAPS   O21 2018   1.855   1.456   6.725 -0.3368 -0.3076  0.2826
   16SAPS   C21 2019   1.956   1.523   6.793  0.8654  0.0871 -0.0433
   16SAPS   O22 2020   1.957   1.643   6.818 -0.5623  0.4584 -0.1416
   16SAPS   C22 2021   2.049   1.417   6.844 -0.5876 -0.9332  0.1415
   16SAPS   H2R 2022   1.997   1.329   6.887 -0.1869  0.1177  2.9487
   16SAPS   H2S 2023   2.116   1.386   6.760  0.6658  1.7050  0.0660
   16SAPS    C3 2024   1.613   1.479   6.776  0.2335 -0.2026  0.2866
   16SAPS    HX 2025   1.594   1.374   6.744 -0.6580  0.1701 -0.4482
   16SAPS    HY 2026   1.521   1.536   6.752 -0.4484 -0.4007  2.2461
   16SAPS   O31 2027   1.642   1.481   6.922  0.4601  0.3074  0.3511
   16SAPS   C31 2028   1.688   1.371   6.972 -0.4865 -0.3877  0.7739
   16SAPS   O32 2029   1.731   1.273   6.905  0.4947  0.5056 -0.6027
   16SAPS   C32 2030   1.690   1.391   7.127 -0.1210 -0.4105 -0.3188
   16SAPS   H2X 2031   1.657   1.297   7.176  1.0040 -0.7822 -0.2382
   16SAPS   H2Y 2032   1.622   1.475   7.154 -1.1748 -0.8269 -1.5918
   16SAPS   C23 2033   2.143   1.474   6.953  0.4887  0.4499 -0.6578
   16SAPS   H3R 2034   2.086   1.503   7.044  1.1670  3.1857 -1.0190
   16SAPS   H3S 2035   2.197   1.566   6.920  0.6076  0.3318 -0.7916
   16SAPS   C24 2036   2.255   1.372   6.992 -0.2395 -0.2974  0.3628
   16SAPS   H4R 2037   2.330   1.422   7.057 -0.8593  0.0780  0.7986
   16SAPS   H4S 2038   2.307   1.340   6.899 -2.2397  0.0573 -0.9313
   16SAPS   C25 2039   2.196   1.247   7.069 -0.6131  0.4662  0.1136
   16SAPS   H5R 2040   2.136   1.175   7.011 -1.5888 -0.3369  2.0407
   16SAPS   C26 2041   2.195   1.227   7.204  0.1218 -0.4874  0.5532
   16SAPS   H6R 2042   2.160   1.131   7.244  1.7871 -1.2737  0.1942
   16SAPS   C27 2043   2.254   1.330   7.302 -0.0940  0.2884  0.3636
   16SAPS   H7R 2044   2.208   1.308   7.401  2.0377 -0.2164  1.3129
   16SAPS   H7S 2045   2.229   1.433   7.269  1.1810  0.1434 -1.1741
   16SAPS   C28 2046   2.405   1.312   7.316 -0.2193  0.3046  0.3615
   16SAPS   H8R 2047   2.459   1.293   7.222  1.9484  1.0314  1.3823
   16SAPS   C29 2048   2.469   1.324   7.432  0.1182 -0.2302 -0.0395
   16SAPS   H9R 2049   2.579   1.325   7.425  0.0984  1.0168 -0.5539
   16SAPS  C210 2050   2.413   1.362   7.575 -0.3697  0.5320 -0.4860
   16SAPS  H10R 2051   2.347   1.450   7.562 -1.2939 -0.0401  0.1662
   16SAPS  H10S 2052   2.493   1.408   7.636 -0.4774 -1.2465  1.1218
   16SAPS  C211 2053   2.333   1.254   7.648 -0.0203 -0.1587 -0.7575
   16SAPS  H11R 2054   2.264   1.198   7.584 -1.5231  0.9838 -0.1964
   16SAPS  C212 2055   2.324   1.231   7.779 -0.8032 -0.0764  0.1083
   16SAPS  H12R 2056   2.267   1.151   7.829  1.1914 -2.0659 -0.6288
   16SAPS  C213 2057   2.408   1.308   7.879 -0.8323 -0.9367  0.3708
   16SAPS  H13R 2058   2.357   1.364   7.960 -2.3172 -0.5855 -0.7638
   16SAPS  H13S 2059   2.457   1.396   7.831  0.4235 -2.1784 -0.7218
   16SAPS  C214 2060   2.510   1.209   7.935  0.6550  0.6603  0.1999
   16SAPS  H14R 2061   2.598   1.195   7.871  1.6515 -2.3650  2.0026
   16SAPS  C215 2062   2.489   1.136   8.045 -0.1475  0.3544 -0.5225
   16SAPS  H15R 2063   2.574   1.074   8.075 -0.1936  0.9650  0.9621
   16SAPS  C216 2064   2.373   1.132   8.140 -0.0574 -0.5190 -0.3597
   16SAPS  H16R 2065   2.303   1.215   8.115  1.4405  0.6097 -1.0011
   16SAPS  H16S 2066   2.408   1.154   8.243  0.0643 -2.1004 -0.0418
   16SAPS  C217 2067   2.294   0.996   8.156  0.1241  0.1154 -0.3639
   16SAPS  H17R 2068   2.367   0.913   8.154 -0.6925 -0.6056 -1.1087
   16SAPS  H17S 2069   2.232   0.983   8.065 -0.8403  1.9928 -0.0363
   16SAPS  C218 2070   2.204   0.994   8.280 -0.8971  0.5299  0.3404
   16SAPS  H18R 2071   2.127   1.074   8.292 -0.0754  1.3441  0.2318
   16SAPS  H18S 2072   2.276   1.013   8.362  0.8844  0.0756 -1.0616
   16SAPS  C219 2073   2.137   0.855   8.299 -0.4488 -0.5142  0.0807
   16SAPS  H19R 2074   2.083   0.844   8.396 -1.5056 -2.2164 -0.6548
   16SAPS  H19S 2075   2.216   0.777   8.295 -1.4012 -1.4494 -1.8052
   16SAPS  C220 2076   2.045   0.829   8.177  0.4065  0.3972  0.3875
   16SAPS  H20R 2077   2.091   0.832   8.076  0.9514 -0.1572  0.6091
   16SAPS  H20S 2078   1.967   0.908   8.178  1.0169  1.0176  1.6608
   16SAPS  H20T 2079   2.007   0.725   8.188 -0.1127  0.6778  1.4201
   16SAPS   C33 2080   1.836   1.409   7.162 -0.3098  0.4252 -0.4718
   16SAPS   H3X 2081   1.877   1.491   7.100 -0.3844  0.2054 -0.8132
   16SAPS   H3Y 2082   1.890   1.314   7.143 -0.1212  0.2512  0.7993
   16SAPS   C34 2083   1.858   1.450   7.310 -1.2391 -0.0143 -0.2685
   16SAPS   H4X 2084   1.829   1.555   7.328  0.9679  0.6417 -0.2826
   16SAPS   H4Y 2085   1.968   1.452   7.316 -1.2131 -1.4549  0.3168
   16SAPS   C35 2086   1.800   1.349   7.407 -0.5232 -0.1132 -0.6303
   16SAPS   H5X 2087   1.846   1.255   7.371  1.5076  0.1387  1.0832
   16SAPS   H5Y 2088   1.690   1.341   7.398 -1.1090  2.1210  2.7499
   16SAPS   C36 2089   1.818   1.392   7.556 -0.2034 -0.3132 -0.1207
   16SAPS   H6X 2090   1.726   1.444   7.588  0.2259 -0.3844  1.2765
   16SAPS   H6Y 2091   1.892   1.475   7.547  0.2783 -0.6310  0.7917
   16SAPS   C37 2092   1.865   1.289   7.656 -0.0938 -0.1432  0.0974
   16SAPS   H7X 2093   1.961   1.258   7.610  0.1557  1.5623 -0.6167
   16SAPS   H7Y 2094   1.801   1.198   7.655  0.7012 -0.7453  1.2384
   16SAPS   C38 2095   1.874   1.348   7.798 -0.0499 -0.3522  0.2882
   16SAPS   H8X 2096   1.773   1.357   7.844  0.1971 -0.6568  0.9030
   16SAPS   H8Y 2097   1.916   1.450   7.783 -1.7853  0.2930 -0.4725
   16SAPS   C39 2098   1.959   1.259   7.885 -0.3343  0.0820 -0.0557
   16SAPS   H9X 2099   2.059   1.267   7.838 -0.0442  0.5834  0.6342
   16SAPS   H9Y 2100   1.941   1.150   7.871  2.1228 -0.0718 -3.2577
   16SAPS  C310 2101   1.964   1.303   8.033 -0.5216  0.0341 -0.3878
   16SAPS  H10X 2102   2.036   1.237   8.086  1.0892  0.6023 -1.7788
   16SAPS  H10Y 2103   1.865   1.278   8.077 -0.7444  1.4724 -0.0093
   16SAPS  C311 2104   2.002   1.450   8.061  0.3305 -0.0796  0.2564
   16SAPS  H11X 2105   1.912   1.499   8.018  0.2490 -1.0227 -0.7023
   16SAPS  H11Y 2106   2.086   1.478   7.994 -1.5018 -1.2703 -2.7339
   16SAPS  C312 2107   2.038   1.483   8.194 -0.2146  0.5523  0.3962
   16SAPS  H12X 2108   2.040   1.594   8.201 -0.7302  0.5366  0.8163
   16SAPS  H12Y 2109   2.142   1.443   8.191 -0.6055 -0.4275 -1.2828
   16SAPS  C313 2110   1.950   1.427   8.299 -0.3837  0.0096 -0.2991
   16SAPS  H13X 2111   1.987   1.323   8.315  0.4279  0.5529  1.6775
   16SAPS  H13Y 2112   1.844   1.430   8.266 -0.7415  1.1497  0.8936
   16SAPS  C314 2113   1.956   1.498   8.437 -1.1486 -0.5273 -0.6437
   16SAPS  H14X 2114   1.868   1.457   8.492 -1.0216 -0.6899 -0.5601
   16SAPS  H14Y 2115   1.927   1.603   8.418 -3.7732 -0.6701  1.9678
   16SAPS  C315 2116   2.087   1.490   8.513 -0.0158 -0.2678 -0.0679
   16SAPS  H15X 2117   2.163   1.554   8.464 -0.5313 -0.1913 -0.7822
   16SAPS  H15Y 2118   2.136   1.390   8.511  0.2391 -0.2678  2.5494
   16SAPS  C316 2119   2.073   1.510   8.664  0.1986 -0.1633  0.3365
   16SAPS  H16X 2120   2.176   1.504   8.704  1.1452 -1.5212 -2.1286
   16SAPS  H16Y 2121   2.007   1.428   8.701 -2.5238  1.9389  0.4539
   16SAPS  C317 2122   2.011   1.649   8.688 -0.2885 -0.0733  0.1616
   16SAPS  H17X 2123   1.919   1.663   8.628 -1.5159 -2.5590  1.3275
   16SAPS  H17Y 2124   2.080   1.732   8.661 -1.7062  1.9623  2.4063
   16SAPS  C318 2125   1.981   1.676   8.830 -0.6313  0.9196 -0.3722
   16SAPS  H18X 2126   2.064   1.633   8.891  0.4396 -0.3680 -2.6328
   16SAPS  H18Y 2127   1.885   1.632   8.863 -0.5354  0.3218 -0.8740
   16SAPS  H18Z 2128   1.976   1.785   8.849  1.0955  0.8871  0.5390
   17SAPC     N 2129   3.739   2.955  10.544  0.0882  0.2949 -0.9721
   17SAPC   C12 2130   3.885   2.966  10.584 -0.1467  0.1736  0.0689
   17SAPC  H12A 2131   3.932   2.875  10.552  0.2354  0.2811  0.3147
   17SAPC  H12B 2132   3.897   2.969  10.692  1.8092  0.3863 -0.1146
   17SAPC   C13 2133   3.655   3.070  10.588  0.4175 -0.3911 -0.2724
   17SAPC  H13A 2134   3.698   3.164  10.558 -0.6974  0.1093 -0.3405
   17SAPC  H13B 2135   3.550   3.058  10.568  0.2908  0.8558 -0.4320
   17SAPC  H13C 2136   3.656   3.066  10.696 -2.2767  1.8144 -0.0864
   17SAPC   C14 2137   3.737   2.937  10.397 -0.3395 -0.0931 -0.4351
   17SAPC  H14A 2138   3.635   2.937  10.362 -0.0084  0.6800 -1.4764
   17SAPC  H14B 2139   3.779   3.025  10.350 -0.2862 -0.3202 -0.8239
   17SAPC  H14C 2140   3.781   2.839  10.387 -3.2146 -1.8416  2.3368
   17SAPC   C15 2141   3.675   2.837  10.610  0.5471 -0.0209  0.2203
   17SAPC  H15A 2142   3.725   2.741  10.605 -0.6527 -0.7264  1.1266
   17SAPC  H15B 2143   3.676   2.859  10.716 -3.4794  1.9434  0.0268
   17SAPC  H15C 2144   3.573   2.828  10.577  0.1431  1.7494  0.8625
   17SAPC   C11 2145   3.968   3.091  10.537  0.5051 -0.6853 -0.1207
   17SAPC  H11A 2146   3.943   3.119  10.432 -0.8172 -1.0411  0.0806
   17SAPC  H11B 2147   4.078   3.076  10.544  0.4633 -0.4843  1.2893
   17SAPC     P 2148   4.009   3.321  10.651  0.0932 -0.3336  0.1009
   17SAPC   O13 2149   3.933   3.418  10.731 -0.0541  0.1868 -0.0558
   17SAPC   O14 2150   4.125   3.271  10.717  0.0325 -0.4543 -0.6851
   17SAPC   O12 2151   3.924   3.204  10.614 -0.5466  0.9085  0.2154
   17SAPC   O11 2152   4.059   3.383  10.516  0.1573 -0.0214 -0.0499
   17SAPC    C1 2153   3.985   3.495  10.452 -0.0215  0.1906 -0.1516
   17SAPC    HA 2154   3.961   3.578  10.522  0.8284 -0.4157  0.8819
   17SAPC    HB 2155   4.049   3.528  10.367  1.0705 -1.2110  0.0806
   17SAPC    C2 2156   3.853   3.448  10.384  0.0784  0.1683 -0.5279
   17SAPC    HS 2157   3.804   3.385  10.462 -0.1140  0.9421 -0.0181
   17SAPC   O21 2158   3.895   3.378  10.262  0.5174  0.1398 -0.6080
   17SAPC   C21 2159   3.826   3.272  10.239 -0.4323 -0.7044  0.7313
   17SAPC   O22 2160   3.736   3.221  10.299 -0.6025  0.1001 -0.7484
   17SAPC   C22 2161   3.873   3.214  10.105  0.0969 -0.1691  0.2919
   17SAPC   H2R 2162   3.927   3.272  10.028  0.6402 -0.9543  0.0693
   17SAPC   H2S 2163   3.946   3.137  10.138  2.6141  1.4065 -1.3604
   17SAPC    C3 2164   3.774   3.579  10.350  0.2341  0.1814  0.1463
   17SAPC    HX 2165   3.842   3.655  10.306 -1.0708  0.3158 -1.7431
   17SAPC    HY 2166   3.722   3.632  10.433  0.4281 -1.1040  1.1155
   17SAPC   O31 2167   3.682   3.558  10.240 -0.1740 -0.5819 -0.4778
   17SAPC   C31 2168   3.556   3.510  10.269 -0.1003  0.0011  0.7138
   17SAPC   O32 2169   3.519   3.470  10.371  0.0029  0.5700  0.4428
   17SAPC   C32 2170   3.469   3.517  10.141 -0.1047  0.0311 -0.8925
   17SAPC   H2X 2171   3.397   3.600  10.154 -0.0342 -0.2055  1.3450
   17SAPC   H2Y 2172   3.418   3.419  10.143  2.2058 -1.2535 -0.8996
   17SAPC   C23 2173   3.749   3.146  10.026 -0.0983  0.1237  0.1748
   17SAPC   H3R 2174   3.752   3.201   9.929  1.6747 -2.3391 -1.2951
   17SAPC   H3S 2175   3.653   3.159  10.079  0.5507 -0.6893  1.6195
   17SAPC   C24 2176   3.775   2.996  10.006  0.1400 -0.3736 -0.0324
   17SAPC   H4R 2177   3.761   2.962  10.111  1.7608  0.0263  0.3409
   17SAPC   H4S 2178   3.880   2.969   9.982  0.7380  1.2853  0.5580
   17SAPC   C25 2179   3.669   2.930   9.920 -0.1015 -0.1069  0.2254
   17SAPC   H5R 2180   3.577   2.887   9.962 -0.0992 -1.4969 -1.0905
   17SAPC   C26 2181   3.670   2.927   9.787 -0.5177 -0.1654 -1.1851
   17SAPC   H6R 2182   3.589   2.880   9.730 -0.2570  0.7086 -2.2982
   17SAPC   C27 2183   3.787   2.989   9.703 -0.4203 -0.2230 -0.4557
   17SAPC   H7R 2184   3.872   2.993   9.774 -0.9924 -1.5982  0.3608
   17SAPC   H7S 2185   3.768   3.097   9.685  2.1375  0.7783  2.2755
   17SAPC   C28 2186   3.807   2.911   9.574 -0.5507  0.3433 -0.5381
   17SAPC   H8R 2187   3.761   2.812   9.561 -0.2516  0.2932 -1.2422
   17SAPC   C29 2188   3.869   2.958   9.462  0.3970 -0.0161 -0.3204
   17SAPC   H9R 2189   3.877   2.901   9.368  1.2196  2.0202 -1.5507
   17SAPC  C210 2190   3.920   3.095   9.441 -0.7481 -0.0193 -0.2416
   17SAPC  H10R 2191   4.001   3.089   9.365 -1.2651 -1.6603 -0.7112
   17SAPC  H10S 2192   3.976   3.123   9.533  1.6598 -1.3538 -1.1996
   17SAPC  C211 2193   3.821   3.203   9.413  0.1834 -0.1674 -0.4054
   17SAPC  H11R 2194   3.736   3.216   9.480  1.0115  1.0623  0.4491
   17SAPC  C212 2195   3.836   3.291   9.309 -0.2479 -0.3048  0.0164
   17SAPC  H12R 2196   3.779   3.383   9.291  2.5328  1.8917  1.6267
   17SAPC  C213 2197   3.957   3.294   9.216 -0.2777  0.5393  1.0544
   17SAPC  H13R 2198   4.020   3.204   9.234 -2.6976 -1.3921  0.3591
   17SAPC  H13S 2199   4.032   3.373   9.240  0.6665 -0.3435  1.0906
   17SAPC  C214 2200   3.939   3.308   9.059 -0.6372 -0.1594 -0.4748
   17SAPC  H14R 2201   3.836   3.327   9.024 -0.7960 -1.4775 -0.7784
   17SAPC  C215 2202   4.035   3.295   8.965 -0.4340  0.3213  0.0764
   17SAPC  H15R 2203   3.995   3.286   8.862 -0.3364 -0.0219  0.0691
   17SAPC  C216 2204   4.172   3.251   8.981 -0.8063 -0.1921 -0.5726
   17SAPC  H16R 2205   4.173   3.141   8.996  0.2125 -0.0656  0.4688
   17SAPC  H16S 2206   4.210   3.306   9.070 -0.5179  2.4749 -2.2561
   17SAPC  C217 2207   4.285   3.284   8.878 -1.0785 -0.4524  0.4139
   17SAPC  H17R 2208   4.374   3.266   8.942 -0.6052 -1.5650 -0.5209
   17SAPC  H17S 2209   4.276   3.389   8.844  0.3912  0.1145  1.6833
   17SAPC  C218 2210   4.301   3.202   8.750  0.4045 -0.1301 -0.5060
   17SAPC  H18R 2211   4.209   3.208   8.688  0.0407  0.8893  0.1138
   17SAPC  H18S 2212   4.313   3.093   8.767  0.6199 -0.2120 -1.1545
   17SAPC  C219 2213   4.402   3.267   8.658 -0.0751 -0.4287 -0.2209
   17SAPC  H19R 2214   4.495   3.293   8.712  0.1883 -0.6751 -0.5528
   17SAPC  H19S 2215   4.361   3.364   8.623 -0.7471 -0.7285 -0.2819
   17SAPC  C220 2216   4.427   3.182   8.537 -0.4033 -0.7201 -0.4676
   17SAPC  H20R 2217   4.490   3.098   8.575 -0.5174 -0.8535 -0.5718
   17SAPC  H20S 2218   4.488   3.236   8.462 -0.9444  0.9230  0.2428
   17SAPC  H20T 2219   4.329   3.154   8.493 -0.6588  1.6507 -1.5530
   17SAPC   C33 2220   3.535   3.545  10.003 -0.6402  0.4455 -0.3012
   17SAPC   H3X 2221   3.646   3.545  10.007 -0.6303 -0.1731 -0.5864
   17SAPC   H3Y 2222   3.501   3.647   9.975  0.8580  1.4558  1.3510
   17SAPC   C34 2223   3.504   3.435   9.895  0.6816 -0.0446 -0.1352
   17SAPC   H4X 2224   3.395   3.412   9.892  1.1243 -2.5848  0.2661
   17SAPC   H4Y 2225   3.552   3.339   9.925  1.4094  0.7134  1.2128
   17SAPC   C35 2226   3.539   3.488   9.751  0.7664 -0.1104  0.2492
   17SAPC   H5X 2227   3.645   3.517   9.730  0.3306  0.6477 -1.0350
   17SAPC   H5Y 2228   3.476   3.574   9.720  0.9796  0.0753  0.3231
   17SAPC   C36 2229   3.498   3.374   9.655 -0.5509 -0.4091 -0.2954
   17SAPC   H6X 2230   3.394   3.342   9.677 -0.6587  0.8916  1.2740
   17SAPC   H6Y 2231   3.571   3.294   9.681  1.1548  1.0548 -0.3926
   17SAPC   C37 2232   3.518   3.399   9.506 -0.2594 -0.1301  0.0134
   17SAPC   H7X 2233   3.492   3.306   9.451 -1.9610 -0.0331  0.6035
   17SAPC   H7Y 2234   3.625   3.417   9.482 -0.1850  0.1104  0.5266
   17SAPC   C38 2235   3.434   3.511   9.444  0.6097 -0.2806 -0.6489
   17SAPC   H8X 2236   3.437   3.602   9.508  1.7313 -0.5802 -0.2551
   17SAPC   H8Y 2237   3.328   3.482   9.425  1.0103 -1.5329 -1.0377
   17SAPC   C39 2238   3.504   3.542   9.310  0.2478 -0.4837  1.0503
   17SAPC   H9X 2239   3.562   3.458   9.267  2.0623  2.5602 -3.0724
   17SAPC   H9Y 2240   3.592   3.604   9.337  0.4689  0.0956 -0.9087
   17SAPC  C310 2241   3.400   3.582   9.207  0.5595 -0.6095  0.1717
   17SAPC  H10X 2242   3.343   3.667   9.251  0.2634 -0.9372  0.4340
   17SAPC  H10Y 2243   3.326   3.500   9.195  1.5914 -2.4322  4.2632
   17SAPC  C311 2244   3.467   3.611   9.079 -0.1479 -0.1942 -0.0493
   17SAPC  H11X 2245   3.487   3.515   9.026  1.2257  0.2463 -0.3706
   17SAPC  H11Y 2246   3.563   3.666   9.095  0.0755 -0.8105  0.7618
   17SAPC  C312 2247   3.384   3.707   8.998 -0.0901 -0.7991 -0.5584
   17SAPC  H12X 2248   3.376   3.806   9.047  0.2537 -0.1322 -1.8019
   17SAPC  H12Y 2249   3.285   3.657   8.992 -1.1467  0.6904  2.3401
   17SAPC  C313 2250   3.414   3.727   8.848  0.1857 -0.3619 -0.0917
   17SAPC  H13X 2251   3.482   3.815   8.844 -0.0825 -0.1383  0.2681
   17SAPC  H13Y 2252   3.327   3.757   8.786 -0.5301 -0.4409  0.8604
   17SAPC  C314 2253   3.471   3.607   8.775 -0.1272  0.0173  0.2992
   17SAPC  H14X 2254   3.421   3.515   8.812 -2.0010  1.2962  1.1057
   17SAPC  H14Y 2255   3.581   3.604   8.790  0.1422  1.7606 -1.0251
   17SAPC  C315 2256   3.434   3.624   8.621 -0.6926  0.5570  0.2127
   17SAPC  H15X 2257   3.452   3.731   8.596 -0.4770  1.2735  3.0806
   17SAPC  H15Y 2258   3.327   3.606   8.594 -0.9150  3.7020 -1.5639
   17SAPC  C316 2259   3.521   3.523   8.545  0.6467 -0.0147  0.5196
   17SAPC  H16X 2260   3.529   3.435   8.613  0.6778  1.3265  2.3294
   17SAPC  H16Y 2261   3.621   3.570   8.538  1.8056 -2.5414 -1.3126
   17SAPC  C317 2262   3.480   3.480   8.404 -1.2294 -0.5610  0.5795
   17SAPC  H17X 2263   3.470   3.565   8.334 -2.6152 -1.0310  0.1680
   17SAPC  H17Y 2264   3.380   3.430   8.410 -1.6775  0.0513 -1.1888
   17SAPC  C318 2265   3.585   3.383   8.329 -0.0418 -0.1561 -0.3173
   17SAPC  H18X 2266   3.607   3.301   8.401 -0.9416  1.9802  2.5722
   17SAPC  H18Y 2267   3.541   3.348   8.233 -1.6702 -0.4040  0.4928
   17SAPC  H18Z 2268   3.678   3.441   8.311 -0.6519  1.6328  1.8404
   18SAPC     N 2269   2.939   0.820  11.151 -0.2554 -0.1398 -0.2108
   18SAPC   C12 2270   2.871   0.859  11.025 -0.1840 -0.2491  0.7580
   18SAPC  H12A 2271   2.785   0.918  11.052 -0.4859  0.1738 -1.0045
   18SAPC  H12B 2272   2.834   0.774  10.970  1.8997 -1.4180  1.0350
   18SAPC   C13 2273   2.989   0.936  11.229 -0.3659  0.4097 -0.0458
   18SAPC  H13A 2274   3.012   0.894  11.326  0.3952  0.9028 -0.0085
   18SAPC  H13B 2275   3.073   0.985  11.183 -0.4824 -2.1597 -3.4275
   18SAPC  H13C 2276   2.909   1.006  11.246 -0.1622  0.5188  0.4923
   18SAPC   C14 2277   2.841   0.743  11.233  0.7442  0.1821  0.3535
   18SAPC  H14A 2278   2.894   0.701  11.317  3.1301  1.4805 -0.4319
   18SAPC  H14B 2279   2.764   0.812  11.263  1.7216  1.9382 -1.0197
   18SAPC  H14C 2280   2.792   0.657  11.188 -1.4701  1.5277  0.0371
   18SAPC   C15 2281   3.056   0.720  11.127  0.2658 -0.1450  0.8281
   18SAPC  H15A 2282   3.104   0.684  11.217  1.3508  0.0664  0.3392
   18SAPC  H15B 2283   3.017   0.631  11.078  2.3139 -0.6862  0.1039
   18SAPC  H15C 2284   3.125   0.768  11.059  0.6917 -1.6876  0.1272
   18SAPC   C11 2285   2.954   0.927  10.910  0.0242 -0.4595  0.6225
   18SAPC  H11A 2286   2.888   0.946  10.822  0.0457 -0.6043  0.5747
   18SAPC  H11B 2287   3.029   0.852  10.875 -1.0639 -1.0736 -0.5050
   18SAPC     P 2288   2.947   1.181  10.966 -0.0428 -0.1814  0.1905
   18SAPC   O13 2289   2.811   1.156  11.012  0.4540  0.2872 -0.3588
   18SAPC   O14 2290   3.042   1.269  11.039 -0.4155 -0.8727 -0.2034
   18SAPC   O12 2291   3.020   1.041  10.957 -0.1558 -0.3645 -0.0021
   18SAPC   O11 2292   2.942   1.225  10.814 -0.4188  0.5253 -0.9064
   18SAPC    C1 2293   3.047   1.301  10.759 -0.1592  0.6748  0.3297
   18SAPC    HA 2294   3.033   1.409  10.785 -0.6734  0.4909  0.8601
   18SAPC    HB 2295   3.149   1.285  10.798 -0.2920 -0.0099  0.4042
   18SAPC    C2 2296   3.042   1.274  10.610  0.8334  0.1135  0.0533
   18SAPC    HS 2297   3.147   1.285  10.574  0.4822  1.2271 -0.6517
   18SAPC   O21 2298   2.940   1.352  10.546  0.5647 -0.0712  0.0060
   18SAPC   C21 2299   2.975   1.476  10.527  0.8623  0.5396  0.7005
   18SAPC   O22 2300   3.072   1.535  10.571  0.6005 -0.0456  0.5112
   18SAPC   C22 2301   2.868   1.544  10.444 -0.5355 -0.3742 -0.1016
   18SAPC   H2R 2302   2.800   1.477  10.388 -1.5853  0.3893  0.2313
   18SAPC   H2S 2303   2.803   1.611  10.504 -2.6840 -1.2627 -1.3481
   18SAPC    C3 2304   3.020   1.127  10.590 -0.1764  0.3344 -0.0782
   18SAPC    HX 2305   2.915   1.098  10.610 -1.3853  1.6881 -3.7192
   18SAPC    HY 2306   3.086   1.080  10.666  0.2940  1.5313  0.2883
   18SAPC   O31 2307   3.056   1.096  10.456 -0.4931 -0.0983  0.7559
   18SAPC   C31 2308   3.066   0.971  10.439 -0.4400  1.0400  1.0753
   18SAPC   O32 2309   3.047   0.879  10.520  0.1364 -0.0476 -0.0137
   18SAPC   C32 2310   3.110   0.944  10.294 -0.1610 -0.6385 -0.2555
   18SAPC   H2X 2311   3.036   0.991  10.225  0.3487 -1.4723 -1.3932
   18SAPC   H2Y 2312   3.086   0.840  10.265  2.2261 -1.4371  0.4361
   18SAPC   C23 2313   2.943   1.637  10.340  0.1367 -0.3885 -0.6141
   18SAPC   H3R 2314   3.034   1.690  10.375 -1.4486  0.2209  3.0829
   18SAPC   H3S 2315   2.877   1.721  10.310  0.0502 -0.8449 -1.7366
   18SAPC   C24 2316   2.963   1.556  10.211 -0.0904 -0.8102  0.1493
   18SAPC   H4R 2317   2.983   1.637  10.138  0.0307 -1.3708 -0.4467
   18SAPC   H4S 2318   2.865   1.510  10.189 -0.1666 -1.2690  1.3607
   18SAPC   C25 2319   3.073   1.450  10.218  0.2947  0.2837  0.4211
   18SAPC   H5R 2320   3.086   1.387  10.307 -0.8063 -1.4862 -0.6132
   18SAPC   C26 2321   3.167   1.427  10.125 -0.6488 -0.1506 -0.4310
   18SAPC   H6R 2322   3.238   1.344  10.143 -1.7323 -0.5095  2.8234
   18SAPC   C27 2323   3.179   1.489   9.992 -0.0753  0.6569  0.4072
   18SAPC   H7R 2324   3.143   1.594  10.001 -2.0284 -0.0708  1.5302
   18SAPC   H7S 2325   3.112   1.434   9.923 -0.1205  1.2993 -0.0812
   18SAPC   C28 2326   3.319   1.495   9.933 -0.3950 -0.0756 -0.1960
   18SAPC   H8R 2327   3.405   1.468   9.997 -1.3126  0.1823  1.1954
   18SAPC   C29 2328   3.342   1.548   9.807 -0.3499  0.1994 -0.3183
   18SAPC   H9R 2329   3.435   1.523   9.752 -0.1353  0.7287 -0.2038
   18SAPC  C210 2330   3.238   1.613   9.726 -0.3206 -0.3138  0.5673
   18SAPC  H10R 2331   3.283   1.687   9.656  0.7624 -0.1208  1.4376
   18SAPC  H10S 2332   3.173   1.669   9.796  0.1702  0.6635  0.2713
   18SAPC  C211 2333   3.174   1.509   9.642  0.3963  0.4878  0.3474
   18SAPC  H11R 2334   3.141   1.420   9.697 -0.5168 -1.0079 -2.4168
   18SAPC  C212 2335   3.170   1.497   9.506 -0.4648  0.2198 -0.0456
   18SAPC  H12R 2336   3.128   1.404   9.464  1.1262  0.6362 -2.8055
   18SAPC  C213 2337   3.234   1.592   9.407 -0.1891 -0.1114 -0.1498
   18SAPC  H13R 2338   3.234   1.693   9.453 -2.3179 -0.9081  1.7707
   18SAPC  H13S 2339   3.157   1.606   9.328 -1.7937  0.1172  1.4079
   18SAPC  C214 2340   3.365   1.536   9.366  0.0753 -0.1341 -0.0387
   18SAPC  H14R 2341   3.430   1.494   9.445  0.2452 -1.5906 -0.9042
   18SAPC  C215 2342   3.407   1.538   9.237 -0.1720  0.3866 -0.5193
   18SAPC  H15R 2343   3.507   1.501   9.210  0.1159  0.3499  0.5379
   18SAPC  C216 2344   3.319   1.576   9.122  0.0923  0.1282  0.2138
   18SAPC  H16R 2345   3.295   1.684   9.130  0.2480  0.1946 -0.2014
   18SAPC  H16S 2346   3.219   1.527   9.125  1.1027 -2.3219 -2.0632
   18SAPC  C217 2347   3.377   1.542   8.980 -0.1887  0.1093 -0.5592
   18SAPC  H17R 2348   3.405   1.435   8.978 -1.2850 -0.2033  0.0205
   18SAPC  H17S 2349   3.471   1.602   8.973  1.0130 -1.3893  1.4352
   18SAPC  C218 2350   3.279   1.563   8.867 -0.3367  0.4353  0.1801
   18SAPC  H18R 2351   3.279   1.668   8.830  1.4469  1.1357  1.9907
   18SAPC  H18S 2352   3.182   1.556   8.920  0.3902  0.7173  1.5768
   18SAPC  C219 2353   3.315   1.470   8.747 -0.1028 -0.0517 -0.1433
   18SAPC  H19R 2354   3.218   1.470   8.692 -0.6331  2.0217  0.6710
   18SAPC  H19S 2355   3.330   1.370   8.793 -0.2784 -0.0168 -0.0048
   18SAPC  C220 2356   3.427   1.515   8.655 -0.8873 -1.0987  0.2021
   18SAPC  H20R 2357   3.455   1.443   8.576  0.1823 -0.5161  0.0395
   18SAPC  H20S 2358   3.509   1.561   8.714 -3.9405  3.0469  1.6679
   18SAPC  H20T 2359   3.386   1.604   8.602 -0.4374  1.4006  3.6858
   18SAPC   C33 2360   3.258   0.976  10.268 -0.3251 -0.0554 -0.1292
   18SAPC   H3X 2361   3.316   0.883  10.283 -0.1058  0.5435  3.5183
   18SAPC   H3Y 2362   3.296   1.045  10.347  1.7602  0.2097 -1.2704
   18SAPC   C34 2363   3.276   1.032  10.128 -1.0302 -0.1850  0.3595
   18SAPC   H4X 2364   3.382   1.064  10.117 -1.3092  0.4750 -0.5175
   18SAPC   H4Y 2365   3.210   1.118  10.105  1.3635  1.6414 -0.1058
   18SAPC   C35 2366   3.271   0.921  10.022  0.6054  0.0260  0.5820
   18SAPC   H5X 2367   3.171   0.874  10.023  1.2343 -1.3641  1.1004
   18SAPC   H5Y 2368   3.338   0.842  10.064 -0.9731 -1.4792  0.3810
   18SAPC   C36 2369   3.305   0.962   9.880  0.1372 -0.4549  0.2665
   18SAPC   H6X 2370   3.332   0.872   9.821  1.4804  0.8771 -1.2283
   18SAPC   H6Y 2371   3.397   1.023   9.889  0.4553 -0.4651 -2.2579
   18SAPC   C37 2372   3.206   1.054   9.814  0.3855 -0.1257  0.1327
   18SAPC   H7X 2373   3.238   1.156   9.843  1.0766 -0.5689  0.9541
   18SAPC   H7Y 2374   3.101   1.032   9.842  0.1955 -1.5260 -1.4565
   18SAPC   C38 2375   3.214   1.044   9.661 -0.0647 -0.4216 -0.1571
   18SAPC   H8X 2376   3.197   0.937   9.637 -0.5436 -0.4037  0.0906
   18SAPC   H8Y 2377   3.310   1.068   9.612 -1.1266 -2.9651 -3.9237
   18SAPC   C39 2378   3.096   1.117   9.597  0.3410  0.0528 -0.0165
   18SAPC   H9X 2379   3.106   1.219   9.640  0.8369 -0.3301  0.8015
   18SAPC   H9Y 2380   3.000   1.072   9.629  0.3103  0.4455  0.4537
   18SAPC  C310 2381   3.106   1.133   9.448 -0.5727 -0.1961 -0.4484
   18SAPC  H10X 2382   3.153   1.038   9.416 -2.5976 -0.7690 -1.8467
   18SAPC  H10Y 2383   3.184   1.210   9.427 -0.2986 -1.0875 -2.9426
   18SAPC  C311 2384   2.983   1.171   9.374  0.0715 -0.4425  0.5082
   18SAPC  H11X 2385   2.936   1.257   9.425  0.5319  0.5048 -0.6307
   18SAPC  H11Y 2386   2.910   1.087   9.373 -1.9795  1.2833  0.1012
   18SAPC  C312 2387   3.010   1.217   9.232  0.0953  0.1182 -0.0584
   18SAPC  H12X 2388   3.066   1.313   9.223  0.7952 -0.4626 -3.1395
   18SAPC  H12Y 2389   2.914   1.246   9.182 -0.1743  3.0498  1.8990
   18SAPC  C313 2390   3.087   1.119   9.141 -0.4875 -0.6379  0.0945
   18SAPC  H13X 2391   3.044   1.018   9.157 -0.0326 -0.8978 -0.3162
   18SAPC  H13Y 2392   3.187   1.114   9.190 -0.6774 -2.3712  0.3574
   18SAPC  C314 2393   3.086   1.156   8.994  0.6514 -0.1189  0.7839
   18SAPC  H14X 2394   3.123   1.260   8.983 -0.8705  0.3676 -0.0690
   18SAPC  H14Y 2395   2.981   1.141   8.959  1.0953  3.4920 -2.7736
   18SAPC  C315 2396   3.180   1.069   8.914  0.5594  0.7962  0.0889
   18SAPC  H15X 2397   3.154   0.966   8.949  2.7096  0.2894  0.3330
   18SAPC  H15Y 2398   3.286   1.090   8.941  0.4538  0.3586  0.8823
   18SAPC  C316 2399   3.161   1.089   8.761 -1.1814 -0.6010  0.0618
   18SAPC  H16X 2400   3.148   1.198   8.742  2.0627 -0.4364 -2.2008
   18SAPC  H16Y 2401   3.086   1.026   8.709 -3.1731  0.9077  0.9843
   18SAPC  C317 2402   3.292   1.056   8.688  0.0586  0.0839 -1.1994
   18SAPC  H17X 2403   3.361   1.126   8.739 -1.1695  0.1754  0.4270
   18SAPC  H17Y 2404   3.286   1.088   8.582  0.4131  2.5835 -0.5350
   18SAPC  C318 2405   3.315   0.903   8.700  0.1473  0.3449  0.4014
   18SAPC  H18X 2406   3.224   0.848   8.671  1.6410 -0.9962 -2.1021
   18SAPC  H18Y 2407   3.328   0.876   8.807 -1.8502  1.1400  0.8863
   18SAPC  H18Z 2408   3.395   0.859   8.637 -0.1951 -0.0426  0.2365
   19SAPC     N 2409   1.171   5.467  11.085  0.1394 -0.3005 -0.0167
   19SAPC   C12 2410   1.026   5.467  11.068 -0.1873  0.3826  0.2437
   19SAPC  H12A 2411   1.000   5.478  10.963  0.8633  0.8989  0.0309
   19SAPC  H12B 2412   0.981   5.546  11.126  0.5623  0.1741  1.1284
   19SAPC   C13 2413   1.225   5.593  11.022  0.0179  0.4159  0.0255
   19SAPC  H13A 2414   1.230   5.599  10.915 -0.0990  0.8756  0.0433
   19SAPC  H13B 2415   1.162   5.674  11.055  0.4217  0.8279 -0.2154
   19SAPC  H13C 2416   1.323   5.608  11.064 -0.0390 -0.4721  0.4998
   19SAPC   C14 2417   1.213   5.477  11.231  0.2379 -0.4674  0.7766
   19SAPC  H14A 2418   1.190   5.576  11.266  2.1972  0.3955 -0.2436
   19SAPC  H14B 2419   1.183   5.397  11.298  2.6932  0.0478  2.6501
   19SAPC  H14C 2420   1.320   5.470  11.237  0.4198  0.5586 -0.7749
   19SAPC   C15 2421   1.242   5.351  11.026  0.3466 -0.2830 -0.0350
   19SAPC  H15A 2422   1.349   5.350  11.038  0.8174 -0.3934 -3.3724
   19SAPC  H15B 2423   1.198   5.257  11.055 -2.3561  0.0928 -2.4789
   19SAPC  H15C 2424   1.229   5.354  10.919  0.9479 -0.3454 -0.1122
   19SAPC   C11 2425   0.951   5.337  11.121 -0.8367 -0.9685  0.9345
   19SAPC  H11A 2426   0.841   5.353  11.110 -0.8039 -0.8773  0.7298
   19SAPC  H11B 2427   0.974   5.336  11.229  1.4221 -0.9451  0.4987
   19SAPC     P 2428   0.948   5.185  10.910  0.5142  0.2682 -0.3574
   19SAPC   O13 2429   1.069   5.145  10.838 -0.1745  0.2360  0.3333
   19SAPC   O14 2430   0.835   5.091  10.909 -0.1437 -0.1498 -0.0373
   19SAPC   O12 2431   0.988   5.211  11.060  0.2503  0.3679  0.2090
   19SAPC   O11 2432   0.894   5.332  10.857 -1.0033 -0.2177  0.5578
   19SAPC    C1 2433   0.756   5.346  10.812  0.0354  0.1870  0.1970
   19SAPC    HA 2434   0.686   5.299  10.883 -0.5935  0.4684 -0.2297
   19SAPC    HB 2435   0.725   5.453  10.806  0.4917  0.2554 -2.3727
   19SAPC    C2 2436   0.744   5.286  10.669 -0.8552 -0.1799  0.1082
   19SAPC    HS 2437   0.785   5.182  10.674 -0.4546 -0.0199  0.1622
   19SAPC   O21 2438   0.815   5.365  10.572 -0.4960  0.0712 -0.2871
   19SAPC   C21 2439   0.876   5.292  10.477  0.1928  0.2161 -0.4365
   19SAPC   O22 2440   0.899   5.172  10.483  0.3116 -0.7322  0.2303
   19SAPC   C22 2441   0.910   5.391  10.361 -0.3180 -0.1385 -0.4760
   19SAPC   H2R 2442   0.958   5.480  10.406 -0.9344 -1.1471  2.3460
   19SAPC   H2S 2443   0.969   5.335  10.285 -0.0498 -1.0643  0.3962
   19SAPC    C3 2444   0.591   5.295  10.636  0.2024 -0.5154  0.6654
   19SAPC    HX 2445   0.568   5.401  10.611 -0.1827 -0.9584 -0.9069
   19SAPC    HY 2446   0.534   5.269  10.728 -0.9737  0.9267  0.3867
   19SAPC   O31 2447   0.551   5.205  10.533  0.3799 -0.2592 -0.2773
   19SAPC   C31 2448   0.414   5.195  10.514 -0.2901  0.8324 -0.0598
   19SAPC   O32 2449   0.331   5.265  10.563  0.3860 -0.0111 -0.7672
   19SAPC   C32 2450   0.368   5.069  10.434 -0.9207 -0.1314  0.0977
   19SAPC   H2X 2451   0.264   5.040  10.457 -0.1671 -2.4625  0.8147
   19SAPC   H2Y 2452   0.428   4.986  10.477  0.4802  2.0744  2.7524
   19SAPC   C23 2453   0.785   5.447  10.284 -0.8829 -0.0777 -0.9940
   19SAPC   H3R 2454   0.828   5.513  10.206  0.1332 -0.0802 -0.4625
   19SAPC   H3S 2455   0.728   5.508  10.357 -1.9722 -1.1462 -0.9246
   19SAPC   C24 2456   0.690   5.341  10.226 -0.0440 -0.6305 -0.0489
   19SAPC   H4R 2457   0.608   5.384  10.164 -1.3211 -0.7517  1.4993
   19SAPC   H4S 2458   0.631   5.300  10.311  0.6016  0.8380  1.1486
   19SAPC   C25 2459   0.756   5.230  10.144 -0.6178 -0.2755  0.0510
   19SAPC   H5R 2460   0.796   5.142  10.196  1.1855  1.3989  1.6417
   19SAPC   C26 2461   0.774   5.235  10.011  1.0084 -0.0625 -0.2436
   19SAPC   H6R 2462   0.826   5.150   9.965 -0.8096 -1.8110  0.7431
   19SAPC   C27 2463   0.729   5.343   9.916  0.6455 -0.3201 -0.1709
   19SAPC   H7R 2464   0.675   5.422   9.972  2.3871  2.2638 -1.9434
   19SAPC   H7S 2465   0.667   5.300   9.835 -1.0277 -0.2789  1.0490
   19SAPC   C28 2466   0.844   5.417   9.855  0.2656 -0.0058 -0.3153
   19SAPC   H8R 2467   0.871   5.505   9.914 -0.4990  1.2537 -1.7902
   19SAPC   C29 2468   0.912   5.396   9.741  0.0065  0.5518  0.2316
   19SAPC   H9R 2469   0.980   5.474   9.703 -0.2063  0.2764 -0.7446
   19SAPC  C210 2470   0.895   5.284   9.638 -0.1436  0.0230  0.3049
   19SAPC  H10R 2471   0.806   5.309   9.576 -0.6800 -1.3252  0.5000
   19SAPC  H10S 2472   0.878   5.187   9.689 -1.8684  0.8966  1.5161
   19SAPC  C211 2473   1.010   5.286   9.542  0.5694  0.0950  0.5613
   19SAPC  H11R 2474   1.104   5.282   9.598  0.1593 -2.9228  1.2286
   19SAPC  C212 2475   1.003   5.273   9.409  0.1594 -0.6573 -0.2539
   19SAPC  H12R 2476   1.098   5.243   9.361  0.5389  0.0502  0.0326
   19SAPC  C213 2477   0.880   5.256   9.324  0.2148  0.5021  0.3512
   19SAPC  H13R 2478   0.865   5.354   9.274  0.5421  1.8363  2.6968
   19SAPC  H13S 2479   0.783   5.241   9.376 -1.1179  0.6404 -1.9904
   19SAPC  C214 2480   0.883   5.135   9.230  0.4338  0.2472  0.3006
   19SAPC  H14R 2481   0.856   5.035   9.268 -0.5619 -0.3500 -1.7805
   19SAPC  C215 2482   0.940   5.142   9.107 -0.5013  0.4983  0.1688
   19SAPC  H15R 2483   0.938   5.057   9.038  1.2933  0.4300  0.1490
   19SAPC  C216 2484   0.994   5.269   9.047  0.7281 -0.3290 -0.0857
   19SAPC  H16R 2485   1.096   5.250   9.008  0.0016  0.0504 -2.2820
   19SAPC  H16S 2486   0.988   5.353   9.121  2.1783 -0.4441  0.1880
   19SAPC  C217 2487   0.905   5.307   8.928  0.0260 -0.6278  0.3410
   19SAPC  H17R 2488   0.940   5.408   8.899  1.2141 -0.8337  0.9935
   19SAPC  H17S 2489   0.797   5.309   8.955  0.0259  0.6032  0.2925
   19SAPC  C218 2490   0.924   5.230   8.802 -0.3910  0.4841  0.2865
   19SAPC  H18R 2491   0.863   5.138   8.794  0.8269 -0.1585 -4.0673
   19SAPC  H18S 2492   1.032   5.205   8.795 -0.4946 -0.1400  0.7400
   19SAPC  C219 2493   0.892   5.329   8.682 -0.1691  0.2252 -0.0420
   19SAPC  H19R 2494   0.961   5.417   8.678 -1.0859  0.9253 -1.1130
   19SAPC  H19S 2495   0.789   5.365   8.702  1.1102  4.3784  0.0958
   19SAPC  C220 2496   0.886   5.262   8.546 -0.1522 -0.6897  0.9556
   19SAPC  H20R 2497   0.964   5.185   8.528 -1.0340 -1.2630 -0.6461
   19SAPC  H20S 2498   0.897   5.333   8.461 -0.7645  0.7063  1.9863
   19SAPC  H20T 2499   0.785   5.217   8.535 -0.1697 -0.5644  0.5798
   19SAPC   C33 2500   0.382   5.086  10.280 -0.6654  0.6967  0.9978
   19SAPC   H3X 2501   0.482   5.111  10.238 -0.9638 -2.4088 -1.9552
   19SAPC   H3Y 2502   0.324   5.171  10.240  0.3657  0.1909 -1.7986
   19SAPC   C34 2503   0.338   4.963  10.194  0.4330  1.1654  0.2625
   19SAPC   H4X 2504   0.232   4.935  10.214  1.1297 -1.4116  0.7839
   19SAPC   H4Y 2505   0.403   4.878  10.225 -0.7993  0.1945  0.2781
   19SAPC   C35 2506   0.345   4.985  10.039  0.5615  0.2379  0.5658
   19SAPC   H5X 2507   0.298   5.084  10.019 -2.3347 -0.9597  0.9257
   19SAPC   H5Y 2508   0.279   4.910   9.991 -0.6078  2.2429 -1.1504
   19SAPC   C36 2509   0.490   4.968   9.990  0.3289 -0.1736  0.2109
   19SAPC   H6X 2510   0.524   4.869  10.025 -2.2599 -0.6513  1.6814
   19SAPC   H6Y 2511   0.551   5.050  10.034  3.3895 -2.6567  0.9800
   19SAPC   C37 2512   0.487   4.981   9.833 -0.3225  0.3262 -0.1558
   19SAPC   H7X 2513   0.450   5.085   9.817  2.4581  1.2863 -1.0636
   19SAPC   H7Y 2514   0.413   4.910   9.792 -0.8775 -0.5082  2.1271
   19SAPC   C38 2515   0.615   4.958   9.759  0.1170  0.1459 -0.1304
   19SAPC   H8X 2516   0.659   4.865   9.801  0.1842  0.7094  1.0719
   19SAPC   H8Y 2517   0.688   5.037   9.784 -0.5761  0.3029  1.4921
   19SAPC   C39 2518   0.606   4.951   9.607  0.6752 -0.4505  0.5200
   19SAPC   H9X 2519   0.549   4.860   9.580  1.1399  0.1633 -2.9941
   19SAPC   H9Y 2520   0.710   4.946   9.567  0.6021  0.5117  0.1723
   19SAPC  C310 2521   0.528   5.066   9.548 -0.4677 -0.3552  0.1707
   19SAPC  H10X 2522   0.577   5.162   9.576 -0.7593  0.7306 -2.6556
   19SAPC  H10Y 2523   0.434   5.065   9.607 -0.2271 -1.7077  0.5673
   19SAPC  C311 2524   0.503   5.053   9.396  0.1310 -0.3134  0.2682
   19SAPC  H11X 2525   0.447   4.958   9.380 -1.2350 -0.3504  4.0532
   19SAPC  H11Y 2526   0.596   5.044   9.337 -0.2505  0.1257 -0.4130
   19SAPC  C312 2527   0.430   5.176   9.337  0.2278  0.2220 -0.1154
   19SAPC  H12X 2528   0.487   5.265   9.370  0.3901  0.4155 -0.9012
   19SAPC  H12Y 2529   0.327   5.179   9.378 -0.2905  2.0206 -1.4265
   19SAPC  C313 2530   0.408   5.172   9.180  0.3199  0.0487  0.2907
   19SAPC  H13X 2531   0.330   5.245   9.151 -1.1036 -1.7625 -0.6489
   19SAPC  H13Y 2532   0.366   5.073   9.153  1.3502 -0.4664  0.5212
   19SAPC  C314 2533   0.537   5.180   9.101 -0.1927 -0.6819  0.5283
   19SAPC  H14X 2534   0.607   5.106   9.145 -2.2257 -1.7651  2.1051
   19SAPC  H14Y 2535   0.577   5.283   9.117  0.1933 -0.7001 -0.2620
   19SAPC  C315 2536   0.511   5.135   8.951  0.4475  0.7071 -0.8163
   19SAPC  H15X 2537   0.472   5.035   8.922 -1.2753  1.7808 -2.4335
   19SAPC  H15Y 2538   0.612   5.133   8.907  1.1952 -0.5995  0.8517
   19SAPC  C316 2539   0.421   5.230   8.881 -0.0814 -0.4554  0.3542
   19SAPC  H16X 2540   0.412   5.327   8.934  0.4193 -1.7289  2.9242
   19SAPC  H16Y 2541   0.320   5.187   8.869 -0.9080  1.0455  1.6201
   19SAPC  C317 2542   0.472   5.261   8.739  0.0628  0.2063  0.2972
   19SAPC  H17X 2543   0.489   5.171   8.676 -1.6684 -0.4771  0.7537
   19SAPC  H17Y 2544   0.567   5.319   8.740  0.8391 -0.8225 -2.5278
   19SAPC  C318 2545   0.387   5.354   8.654  0.2193 -0.2554 -0.5912
   19SAPC  H18X 2546   0.285   5.312   8.641 -0.1798  0.1781  1.0180
   19SAPC  H18Y 2547   0.430   5.376   8.553  1.0844 -0.2334 -0.2283
   19SAPC  H18Z 2548   0.356   5.449   8.701 -1.1401 -0.1198 -1.7161
   20SAPC     N 2549   1.781   0.875  11.021 -0.0222 -0.3738 -0.0693
   20SAPC   C12 2550   1.898   0.929  10.944  0.3169  0.3922 -0.1278
   20SAPC  H12A 2551   1.930   1.018  10.996 -1.7472 -0.8319  3.6305
   20SAPC  H12B 2552   1.858   0.963  10.850 -1.1345 -0.3414  0.2001
   20SAPC   C13 2553   1.683   0.985  11.024  0.4906 -0.3494 -0.2399
   20SAPC  H13A 2554   1.727   1.079  11.053 -2.9032  1.3313 -0.0912
   20SAPC  H13B 2555   1.617   1.003  10.940  1.8348 -1.6563 -1.6507
   20SAPC  H13C 2556   1.620   0.973  11.110 -0.9689  2.2218 -0.8284
   20SAPC   C14 2557   1.719   0.758  10.961 -0.4790  0.4176 -0.1361
   20SAPC  H14A 2558   1.688   0.774  10.859 -0.6366 -1.0285 -0.3370
   20SAPC  H14B 2559   1.781   0.669  10.956  1.9108  1.8898  1.4690
   20SAPC  H14C 2560   1.631   0.735  11.018  1.0944 -3.1370  1.1583
   20SAPC   C15 2561   1.827   0.842  11.153  0.3660 -0.1076  0.5308
   20SAPC  H15A 2562   1.744   0.808  11.214 -0.0671 -1.1395 -0.5978
   20SAPC  H15B 2563   1.902   0.765  11.161 -0.7223 -1.0390  3.0270
   20SAPC  H15C 2564   1.871   0.930  11.198  2.4026 -0.3306 -0.8891
   20SAPC   C11 2565   2.023   0.838  10.915 -0.0691 -0.2392 -0.7738
   20SAPC  H11A 2566   2.081   0.871  10.826 -0.3285  0.1531 -0.8010
   20SAPC  H11B 2567   1.989   0.742  10.872  0.8897 -1.1922  0.5054
   20SAPC     P 2568   2.210   0.916  11.083 -0.0502 -0.1901  0.1568
   20SAPC   O13 2569   2.178   1.053  11.032  0.7742  0.0790  0.0240
   20SAPC   O14 2570   2.218   0.889  11.228  0.3383 -0.2547 -0.0994
   20SAPC   O12 2571   2.102   0.807  11.029 -0.1105  0.2898 -0.4032
   20SAPC   O11 2572   2.346   0.862  11.022  0.0738  0.3743  0.3181
   20SAPC    C1 2573   2.368   0.787  10.904  0.0718  0.0464 -0.2436
   20SAPC    HA 2574   2.461   0.727  10.912 -0.9370 -1.5102  0.4670
   20SAPC    HB 2575   2.277   0.724  10.892 -0.2471 -0.0619  2.1917
   20SAPC    C2 2576   2.401   0.881  10.786  0.0199  0.1918  0.9396
   20SAPC    HS 2577   2.312   0.943  10.760  0.4113  0.4026  0.0802
   20SAPC   O21 2578   2.439   0.793  10.672 -0.7119 -0.1499  0.3157
   20SAPC   C21 2579   2.345   0.756  10.585  0.1216  0.3718  0.2315
   20SAPC   O22 2580   2.231   0.801  10.575  0.1156 -0.1330 -0.1108
   20SAPC   C22 2581   2.403   0.651  10.487  0.1878 -0.4847  0.0826
   20SAPC   H2R 2582   2.419   0.552  10.535 -1.9386 -1.2701 -0.7161
   20SAPC   H2S 2583   2.335   0.658  10.399  1.1665  0.9523 -0.6057
   20SAPC    C3 2584   2.517   0.978  10.815 -0.1779 -0.4933  0.0426
   20SAPC    HX 2585   2.610   0.925  10.844 -0.3652 -2.1179 -2.0874
   20SAPC    HY 2586   2.484   1.027  10.909  0.2787 -2.5335  1.3334
   20SAPC   O31 2587   2.518   1.083  10.719  1.0096  0.0902 -0.2834
   20SAPC   C31 2588   2.614   1.061  10.627 -0.1028 -0.2754  0.2595
   20SAPC   O32 2589   2.706   0.980  10.640  0.6840 -0.5034 -0.0520
   20SAPC   C32 2590   2.599   1.161  10.511 -0.2497 -0.7229 -0.6898
   20SAPC   H2X 2591   2.680   1.237  10.520 -1.4115  0.3407  1.4551
   20SAPC   H2Y 2592   2.503   1.215  10.524 -1.1674 -2.3772 -0.2938
   20SAPC   C23 2593   2.531   0.695  10.412 -0.3006 -0.6396  0.6678
   20SAPC   H3R 2594   2.623   0.705  10.473  0.8060  3.6470 -1.3045
   20SAPC   H3S 2595   2.513   0.796  10.368  2.3998 -0.9102 -1.3397
   20SAPC   C24 2596   2.537   0.607  10.283  0.0859 -0.0381 -0.2197
   20SAPC   H4R 2597   2.454   0.624  10.211 -1.3812 -2.2945  0.8477
   20SAPC   H4S 2598   2.540   0.498  10.303 -2.5547 -0.3593 -1.1819
   20SAPC   C25 2599   2.661   0.641  10.210 -1.0343  0.2702  0.2684
   20SAPC   H5R 2600   2.747   0.650  10.278  1.9100 -1.9505 -2.8113
   20SAPC   C26 2601   2.669   0.666  10.073  0.1208  0.3121 -0.0883
   20SAPC   H6R 2602   2.758   0.702  10.020  0.4511  1.1254  0.9691
   20SAPC   C27 2603   2.554   0.658   9.978  0.2951  0.3648  0.2391
   20SAPC   H7R 2604   2.480   0.740   9.992 -2.3253 -1.8222  0.1678
   20SAPC   H7S 2605   2.493   0.572  10.014  1.2753  0.0824  1.2799
   20SAPC   C28 2606   2.596   0.633   9.836 -0.4856 -1.0616  0.5076
   20SAPC   H8R 2607   2.640   0.532   9.831  2.1099 -0.0259  0.8286
   20SAPC   C29 2608   2.589   0.714   9.726 -0.0615  0.3627  0.1425
   20SAPC   H9R 2609   2.625   0.669   9.633  0.2969 -0.5756  0.7237
   20SAPC  C210 2610   2.551   0.858   9.725  0.4223 -0.2510 -0.1158
   20SAPC  H10R 2611   2.507   0.884   9.824 -0.1880 -2.5226  0.2873
   20SAPC  H10S 2612   2.472   0.864   9.648  0.8918 -0.2979 -0.6074
   20SAPC  C211 2613   2.669   0.946   9.719 -0.6488  0.3238  0.0238
   20SAPC  H11R 2614   2.722   0.954   9.815  1.2729 -0.5373 -0.9197
   20SAPC  C212 2615   2.701   1.025   9.609 -0.6465  0.6438  0.1749
   20SAPC  H12R 2616   2.790   1.089   9.616 -1.2576  1.3713  1.6560
   20SAPC  C213 2617   2.621   1.017   9.480  0.1859 -0.0974 -0.7661
   20SAPC  H13R 2618   2.537   0.945   9.486  1.6713 -1.8413  0.6597
   20SAPC  H13S 2619   2.696   0.986   9.404  2.4326  3.2998 -0.1943
   20SAPC  C214 2620   2.552   1.146   9.440 -0.2891 -0.7752  0.9057
   20SAPC  H14R 2621   2.520   1.215   9.519  2.2131  4.6072 -2.2048
   20SAPC  C215 2622   2.544   1.194   9.314  0.0831  0.0627  0.1270
   20SAPC  H15R 2623   2.483   1.283   9.289  0.1792 -0.2400 -1.2508
   20SAPC  C216 2624   2.602   1.118   9.196 -0.3316 -0.0777 -0.7845
   20SAPC  H16R 2625   2.634   1.014   9.219 -0.2535 -0.3706 -2.1124
   20SAPC  H16S 2626   2.695   1.171   9.165 -0.8998  1.1870 -0.3797
   20SAPC  C217 2627   2.518   1.114   9.074 -0.9341  0.7004 -1.1046
   20SAPC  H17R 2628   2.501   1.222   9.051 -3.5225  0.4853 -0.4802
   20SAPC  H17S 2629   2.417   1.072   9.090 -0.1164 -0.7957  0.4459
   20SAPC  C218 2630   2.586   1.041   8.954  0.2367  0.1840 -0.7857
   20SAPC  H18R 2631   2.691   1.077   8.943  0.1233  1.6649  2.0224
   20SAPC  H18S 2632   2.535   1.070   8.860 -0.9005  2.0032  0.3279
   20SAPC  C219 2633   2.585   0.891   8.977  0.3077 -0.9419  0.1427
   20SAPC  H19R 2634   2.482   0.855   8.996  0.3277 -1.8505 -1.2713
   20SAPC  H19S 2635   2.649   0.862   9.064  0.7685 -3.4842 -0.9526
   20SAPC  C220 2636   2.625   0.820   8.853  0.2047  0.4350 -0.3810
   20SAPC  H20R 2637   2.651   0.713   8.868  0.1619  0.5198  0.3551
   20SAPC  H20S 2638   2.711   0.873   8.808  1.1879  0.2919  1.2410
   20SAPC  H20T 2639   2.545   0.828   8.776 -1.0534 -1.6332  0.6084
   20SAPC   C33 2640   2.608   1.108  10.365 -0.8429  0.2554 -0.5398
   20SAPC   H3X 2641   2.591   1.190  10.292  0.8417 -0.2477 -1.5582
   20SAPC   H3Y 2642   2.540   1.024  10.342  0.4880 -1.1439  0.4573
   20SAPC   C34 2643   2.754   1.068  10.332  0.0538  1.0301  0.4144
   20SAPC   H4X 2644   2.784   0.987  10.402  0.2155  0.5381 -0.2217
   20SAPC   H4Y 2645   2.822   1.155  10.335  0.2272  0.9222 -0.2940
   20SAPC   C35 2646   2.736   1.015  10.185 -0.1403 -0.1087 -0.1310
   20SAPC   H5X 2647   2.631   1.000  10.152 -0.6942 -0.3053  1.6286
   20SAPC   H5Y 2648   2.793   0.920  10.188  1.3121  0.6464 -1.8513
   20SAPC   C36 2649   2.830   1.088  10.075 -0.1619  0.2488  0.0046
   20SAPC   H6X 2650   2.864   1.010  10.004 -4.0125 -1.1388 -0.5432
   20SAPC   H6Y 2651   2.919   1.131  10.125 -0.1850 -1.2244  1.3917
   20SAPC   C37 2652   2.758   1.197  10.003 -0.1120 -0.2797 -0.3691
   20SAPC   H7X 2653   2.701   1.260  10.073 -1.9498 -0.9363 -1.2092
   20SAPC   H7Y 2654   2.690   1.163   9.922  1.1923  1.7382 -2.4457
   20SAPC   C38 2655   2.860   1.283   9.929 -0.0174 -0.2148 -0.1460
   20SAPC   H8X 2656   2.926   1.234   9.854  0.3212  0.1386 -0.0802
   20SAPC   H8Y 2657   2.925   1.329  10.007  0.2957 -0.9649  0.0415
   20SAPC   C39 2658   2.786   1.405   9.864 -0.3485 -0.4919  0.0371
   20SAPC   H9X 2659   2.861   1.483   9.835 -2.0346  0.2282 -2.7421
   20SAPC   H9Y 2660   2.707   1.448   9.929  1.3377 -0.0586  1.9334
   20SAPC  C310 2661   2.722   1.371   9.722 -0.7134 -0.4486  0.0998
   20SAPC  H10X 2662   2.634   1.304   9.732 -1.0851  0.1285  0.8699
   20SAPC  H10Y 2663   2.804   1.307   9.683 -0.8682 -2.0057  2.1089
   20SAPC  C311 2664   2.691   1.497   9.643 -0.1254 -0.5747  0.3078
   20SAPC  H11X 2665   2.779   1.562   9.663 -1.0201  1.2487 -1.3818
   20SAPC  H11Y 2666   2.597   1.543   9.681 -0.0539  0.0557 -0.2467
   20SAPC  C312 2667   2.684   1.489   9.489  0.2527 -0.7996  0.0151
   20SAPC  H12X 2668   2.585   1.454   9.452 -0.5042  0.9955  0.2477
   20SAPC  H12Y 2669   2.753   1.406   9.464 -0.8497 -1.8311  0.2756
   20SAPC  C313 2670   2.714   1.623   9.419 -0.0031 -0.8990 -0.3567
   20SAPC  H13X 2671   2.815   1.658   9.449 -0.3815 -1.4824  1.7560
   20SAPC  H13Y 2672   2.647   1.703   9.457  1.1202 -1.3080  2.7454
   20SAPC  C314 2673   2.699   1.616   9.258  0.4354  1.0386 -0.2604
   20SAPC  H14X 2674   2.739   1.713   9.222  0.2443  1.0912 -0.3309
   20SAPC  H14Y 2675   2.594   1.596   9.226 -0.6301  3.2481  1.5292
   20SAPC  C315 2676   2.798   1.509   9.210 -0.3733 -0.2452  0.3985
   20SAPC  H15X 2677   2.793   1.416   9.271  1.1236  0.6182  1.9514
   20SAPC  H15Y 2678   2.903   1.546   9.216  0.9697 -3.6540  0.0898
   20SAPC  C316 2679   2.777   1.467   9.060 -1.1147 -0.0179  1.1374
   20SAPC  H16X 2680   2.683   1.410   9.045 -0.4002 -1.5307  2.1653
   20SAPC  H16Y 2681   2.849   1.391   9.025 -2.8289  0.2245 -3.5337
   20SAPC  C317 2682   2.771   1.576   8.951  0.0421 -0.0379  0.5200
   20SAPC  H17X 2683   2.869   1.623   8.931 -1.5119  1.9694 -3.6760
   20SAPC  H17Y 2684   2.702   1.658   8.979  0.4545  0.1339  1.0516
   20SAPC  C318 2685   2.713   1.500   8.831 -0.3812 -0.0981  0.0478
   20SAPC  H18X 2686   2.608   1.466   8.847 -0.7367  1.0402  0.2215
   20SAPC  H18Y 2687   2.768   1.409   8.799 -0.4729  0.9451 -3.5077
   20SAPC  H18Z 2688   2.701   1.570   8.746 -1.4241  2.5238  2.2174
   21SAPC     N 2689   2.200   5.827  10.999  0.7091 -0.1548 -0.2571
   21SAPC   C12 2690   2.106   5.708  10.956  0.0723  0.2017  0.3232
   21SAPC  H12A 2691   2.013   5.753  10.927 -0.9537 -0.4892  2.3376
   21SAPC  H12B 2692   2.093   5.640  11.039  1.0011  2.4341  2.4151
   21SAPC   C13 2693   2.144   5.895  11.119  0.7752 -0.7517 -0.1152
   21SAPC  H13A 2694   2.221   5.959  11.160  2.1790 -1.3247 -1.7369
   21SAPC  H13B 2695   2.048   5.940  11.097  0.2461 -2.0830 -0.6066
   21SAPC  H13C 2696   2.134   5.828  11.203  1.0146  2.3947  2.6570
   21SAPC   C14 2697   2.336   5.788  11.044 -0.5911  0.2460 -0.5704
   21SAPC  H14A 2698   2.384   5.875  11.087  1.2802 -1.9437  2.0498
   21SAPC  H14B 2699   2.329   5.706  11.113  0.4724 -0.2398 -1.0026
   21SAPC  H14C 2700   2.397   5.743  10.967  0.5643  0.7656  0.0062
   21SAPC   C15 2701   2.219   5.926  10.886  0.4913 -0.0089 -0.0873
   21SAPC  H15A 2702   2.264   5.865  10.809  0.7840 -0.8130  0.7028
   21SAPC  H15B 2703   2.125   5.965  10.850  1.1624  2.7276  0.8903
   21SAPC  H15C 2704   2.276   6.014  10.913 -0.8921  0.8371  0.1642
   21SAPC   C11 2705   2.153   5.613  10.834  0.0038 -0.1709 -0.7932
   21SAPC  H11A 2706   2.171   5.665  10.738 -0.0621  0.0114 -0.7085
   21SAPC  H11B 2707   2.077   5.534  10.816  1.1037 -1.9405  1.6545
   21SAPC     P 2708   2.273   5.419  10.975  0.3885  0.2167  0.1310
   21SAPC   O13 2709   2.410   5.364  10.974  0.9240  0.0553 -0.2554
   21SAPC   O14 2710   2.206   5.452  11.102  0.0904 -0.0663 -0.0346
   21SAPC   O12 2711   2.271   5.548  10.882 -0.1436 -0.5209  0.1612
   21SAPC   O11 2712   2.178   5.314  10.916 -0.7444 -0.9281 -0.3275
   21SAPC    C1 2713   2.227   5.205  10.834 -0.2782 -0.5379 -0.4615
   21SAPC    HA 2714   2.295   5.142  10.895 -0.7639 -0.0113  0.6604
   21SAPC    HB 2715   2.143   5.136  10.812 -0.6489 -0.1861 -0.1755
   21SAPC    C2 2716   2.284   5.251  10.695  0.0102  0.4828 -0.6582
   21SAPC    HS 2717   2.373   5.316  10.710  1.3045 -1.2691 -0.5067
   21SAPC   O21 2718   2.180   5.307  10.621  0.0394 -0.2650  0.5967
   21SAPC   C21 2719   2.215   5.413  10.548  0.5569  0.0321 -0.1028
   21SAPC   O22 2720   2.326   5.458  10.538  0.2738  0.5432 -0.5193
   21SAPC   C22 2721   2.088   5.469  10.482 -0.7317 -0.2652 -0.6325
   21SAPC   H2R 2722   2.058   5.410  10.394  1.8288  0.7276 -2.2960
   21SAPC   H2S 2723   2.016   5.466  10.567 -0.4419 -0.3752 -0.3881
   21SAPC    C3 2724   2.340   5.122  10.622  0.0738  0.5809  0.0478
   21SAPC    HX 2725   2.252   5.055  10.617 -1.2058  2.1671  0.2812
   21SAPC    HY 2726   2.417   5.069  10.681 -0.3279  0.4306  0.4453
   21SAPC   O31 2727   2.377   5.139  10.488 -0.5261  0.0357 -0.4218
   21SAPC   C31 2728   2.512   5.174  10.470  0.6770 -0.0147 -0.4213
   21SAPC   O32 2729   2.596   5.201  10.555  0.5989  0.0103 -0.1823
   21SAPC   C32 2730   2.539   5.192  10.325 -0.1391 -0.0119  0.4337
   21SAPC   H2X 2731   2.543   5.090  10.281 -0.8432  0.7747 -1.5856
   21SAPC   H2Y 2732   2.646   5.223  10.323  0.2724 -1.3959 -0.1228
   21SAPC   C23 2733   2.098   5.615  10.423  0.7980 -0.2241  0.4551
   21SAPC   H3R 2734   2.180   5.621  10.349 -0.5324  1.2987 -1.0004
   21SAPC   H3S 2735   2.124   5.686  10.504 -1.4409 -0.0131  1.0613
   21SAPC   C24 2736   1.965   5.645  10.359  0.2942  0.2649  0.1166
   21SAPC   H4R 2737   1.875   5.638  10.425  0.0610  0.4900 -0.1723
   21SAPC   H4S 2738   1.952   5.566  10.282  0.5552 -2.7141  2.9153
   21SAPC   C25 2739   1.957   5.785  10.307  0.1421  0.1889 -0.5721
   21SAPC   H5R 2740   1.944   5.864  10.382  1.4812 -0.7516  0.7075
   21SAPC   C26 2741   1.946   5.820  10.177  0.1349  0.0517  0.4432
   21SAPC   H6R 2742   1.932   5.925  10.148  0.9998  0.2812  0.8156
   21SAPC   C27 2743   1.952   5.731  10.061 -0.9176 -0.3354  0.2133
   21SAPC   H7R 2744   1.851   5.721  10.018 -0.4036  1.5367 -1.6255
   21SAPC   H7S 2745   1.986   5.627  10.080 -1.6514 -0.9408 -1.5880
   21SAPC   C28 2746   2.055   5.787   9.960  0.1837 -0.0566 -0.4287
   21SAPC   H8R 2747   2.157   5.803   9.998  0.4290 -0.5982 -0.8450
   21SAPC   C29 2748   2.027   5.820   9.834 -0.1586 -0.1889  0.2444
   21SAPC   H9R 2749   2.109   5.861   9.773 -0.8310  2.1938  0.8428
   21SAPC  C210 2750   1.891   5.819   9.764  0.0831  0.5805  0.1316
   21SAPC  H10R 2751   1.815   5.856   9.837  2.0990  0.1726  2.5741
   21SAPC  H10S 2752   1.861   5.714   9.745 -0.5115  1.2596 -3.4407
   21SAPC  C211 2753   1.893   5.893   9.628 -0.9798  0.0215  0.0457
   21SAPC  H11R 2754   1.957   5.982   9.638  2.4655 -2.5680  3.9679
   21SAPC  C212 2755   1.801   5.885   9.525 -0.2428  0.4176 -0.3479
   21SAPC  H12R 2756   1.815   5.956   9.442  1.8588  1.3959  0.7545
   21SAPC  C213 2757   1.687   5.783   9.521  0.9997  0.0132 -0.1161
   21SAPC  H13R 2758   1.664   5.747   9.624  0.7054  1.9456  0.5376
   21SAPC  H13S 2759   1.710   5.701   9.450 -1.3759 -0.7628 -0.0846
   21SAPC  C214 2760   1.562   5.856   9.471  0.5498 -0.6624  0.5774
   21SAPC  H14R 2761   1.491   5.885   9.551  1.3505  2.3328  0.3160
   21SAPC  C215 2762   1.542   5.875   9.335 -0.2906 -0.0213 -1.1007
   21SAPC  H15R 2763   1.444   5.905   9.295 -0.2460 -0.7174 -1.7624
   21SAPC  C216 2764   1.630   5.834   9.220  0.3588 -0.1747  0.1654
   21SAPC  H16R 2765   1.724   5.780   9.245 -0.5506 -1.7685  0.2413
   21SAPC  H16S 2766   1.654   5.930   9.170  0.9593 -0.3498  0.1088
   21SAPC  C217 2767   1.570   5.736   9.122 -0.4141  0.3129  0.3489
   21SAPC  H17R 2768   1.636   5.733   9.032 -0.1521 -0.7806  0.5620
   21SAPC  H17S 2769   1.470   5.771   9.089 -0.7701 -3.0278 -2.8600
   21SAPC  C218 2770   1.545   5.596   9.183 -0.7340 -0.1927  0.3092
   21SAPC  H18R 2771   1.463   5.605   9.258 -1.6686  1.7699 -0.8903
   21SAPC  H18S 2772   1.634   5.558   9.240 -1.9122 -0.9618  1.7147
   21SAPC  C219 2773   1.510   5.493   9.080 -0.0928 -0.1495 -0.1722
   21SAPC  H19R 2774   1.439   5.523   9.000  0.8015  3.0543  0.1081
   21SAPC  H19S 2775   1.457   5.408   9.129  0.0773 -0.9667 -1.3675
   21SAPC  C220 2776   1.629   5.442   9.001 -0.0739 -0.5197 -0.6556
   21SAPC  H20R 2777   1.714   5.424   9.070  0.6065  2.9410 -0.4150
   21SAPC  H20S 2778   1.656   5.525   8.933  1.6945  0.1684  0.8046
   21SAPC  H20T 2779   1.592   5.353   8.947  0.2654 -0.7821 -0.4585
   21SAPC   C33 2780   2.433   5.279  10.254 -0.0427 -0.4174  0.5216
   21SAPC   H3X 2781   2.420   5.380  10.299 -0.8940 -0.6879  0.8923
   21SAPC   H3Y 2782   2.332   5.235  10.264  0.3117 -1.0313  1.5763
   21SAPC   C34 2783   2.442   5.288  10.100  0.3309  0.1433 -0.4462
   21SAPC   H4X 2784   2.433   5.187  10.055 -2.1784  0.4176 -0.6828
   21SAPC   H4Y 2785   2.545   5.323  10.074 -0.7020  2.4001 -1.8257
   21SAPC   C35 2786   2.346   5.388  10.036 -0.2104  0.4282 -0.0938
   21SAPC   H5X 2787   2.358   5.492  10.073 -2.4285  0.8572 -0.4519
   21SAPC   H5Y 2788   2.246   5.344  10.052  0.7457 -2.0697 -0.4831
   21SAPC   C36 2789   2.351   5.386   9.880  0.3123  0.2703 -0.6777
   21SAPC   H6X 2790   2.329   5.292   9.826 -1.0610  0.3002 -0.1865
   21SAPC   H6Y 2791   2.455   5.414   9.851  0.6061  1.2373  1.1268
   21SAPC   C37 2792   2.258   5.502   9.816 -0.7271  0.5946  0.7684
   21SAPC   H7X 2793   2.302   5.599   9.848  2.9669 -1.5158  2.7609
   21SAPC   H7Y 2794   2.156   5.492   9.859 -0.8452 -1.9942  0.0607
   21SAPC   C38 2795   2.235   5.478   9.665 -0.6966  0.0339 -0.4997
   21SAPC   H8X 2796   2.204   5.373   9.651 -1.2691 -0.0508  1.1896
   21SAPC   H8Y 2797   2.322   5.492   9.597  0.3322  0.0651  0.7875
   21SAPC   C39 2798   2.124   5.566   9.593 -0.3210  0.4997  0.0222
   21SAPC   H9X 2799   2.168   5.664   9.621  2.0235 -1.1947  2.8920
   21SAPC   H9Y 2800   2.032   5.561   9.655 -0.6137 -0.7757 -0.4766
   21SAPC  C310 2801   2.105   5.539   9.441  0.0478  0.2133 -0.0235
   21SAPC  H10X 2802   2.061   5.438   9.427  1.3060 -0.4739  0.7675
   21SAPC  H10Y 2803   2.207   5.540   9.396  0.0837  0.7808  0.0672
   21SAPC  C311 2804   2.019   5.640   9.369 -0.5237 -0.4976 -0.1510
   21SAPC  H11X 2805   2.059   5.743   9.372 -0.1849 -0.5706 -1.4317
   21SAPC  H11Y 2806   1.925   5.649   9.427  0.0566 -1.2997  0.9740
   21SAPC  C312 2807   1.995   5.607   9.221  0.5230 -0.2635  0.7752
   21SAPC  H12X 2808   1.937   5.692   9.179  1.1950 -0.4639 -0.6302
   21SAPC  H12Y 2809   1.929   5.518   9.206 -2.6250  1.8378  1.0713
   21SAPC  C313 2810   2.124   5.589   9.141  0.0852 -0.0094 -0.4266
   21SAPC  H13X 2811   2.171   5.492   9.170  0.5737  0.7812  1.5616
   21SAPC  H13Y 2812   2.195   5.669   9.171  0.4214 -1.4488  3.1166
   21SAPC  C314 2813   2.091   5.599   8.996 -0.1457  0.1203  0.5952
   21SAPC  H14X 2814   2.082   5.704   8.960 -1.7938  0.0994  0.8655
   21SAPC  H14Y 2815   1.990   5.554   8.985 -0.0769 -0.0668  0.7165
   21SAPC  C315 2816   2.175   5.507   8.905 -0.2049  0.3249 -0.1774
   21SAPC  H15X 2817   2.162   5.408   8.953 -0.6031  0.2609 -0.4107
   21SAPC  H15Y 2818   2.282   5.533   8.920 -0.7530  1.2393  2.7254
   21SAPC  C316 2819   2.120   5.494   8.763 -0.0275  0.8057 -0.0136
   21SAPC  H16X 2820   2.017   5.453   8.773  0.4355  0.1095  2.3711
   21SAPC  H16Y 2821   2.174   5.415   8.707 -2.6705 -1.3703  0.2823
   21SAPC  C317 2822   2.106   5.627   8.676 -0.7311  0.0466 -0.3972
   21SAPC  H17X 2823   2.202   5.648   8.624  0.5296 -0.4062  1.6374
   21SAPC  H17Y 2824   2.084   5.717   8.738 -2.1731 -1.9099  2.1432
   21SAPC  C318 2825   1.986   5.602   8.582  0.5998 -1.0668 -0.3311
   21SAPC  H18X 2826   1.904   5.569   8.650  0.9743  0.6169  1.0046
   21SAPC  H18Y 2827   2.000   5.520   8.509  0.8165 -1.2675 -0.0665
   21SAPC  H18Z 2828   1.956   5.699   8.538  2.6646  0.5362  1.5460
   22SAPC     N 2829   2.650   4.500  11.356 -0.1964  0.6584  0.2422
   22SAPC   C12 2830   2.643   4.447  11.214 -0.2263 -0.0776 -0.0164
   22SAPC  H12A 2831   2.557   4.496  11.172 -0.2684 -0.3754 -0.2857
   22SAPC  H12B 2832   2.630   4.340  11.216 -0.7864 -0.0817 -1.7726
   22SAPC   C13 2833   2.549   4.432  11.442 -0.3893  0.5724 -0.2761
   22SAPC  H13A 2834   2.455   4.416  11.392 -1.6867 -0.5327  2.3268
   22SAPC  H13B 2835   2.582   4.331  11.458  1.8801  1.4763  1.4554
   22SAPC  H13C 2836   2.538   4.485  11.536  1.1915  1.2215 -0.4125
   22SAPC   C14 2837   2.782   4.469  11.427  0.0848 -0.3405  0.1503
   22SAPC  H14A 2838   2.783   4.510  11.527 -2.2252  0.8632 -0.2402
   22SAPC  H14B 2839   2.790   4.362  11.443  1.8120 -0.2256  0.1811
   22SAPC  H14C 2840   2.868   4.501  11.370 -0.4909 -0.8676 -1.0440
   22SAPC   C15 2841   2.638   4.644  11.355 -0.1227  0.2164  0.1758
   22SAPC  H15A 2842   2.641   4.679  11.457  2.8913  0.6268  0.0423
   22SAPC  H15B 2843   2.712   4.703  11.302 -1.2768  2.8035  1.2977
   22SAPC  H15C 2844   2.542   4.668  11.312  0.0181 -0.5369 -0.5896
   22SAPC   C11 2845   2.761   4.474  11.115  0.2361  0.5205 -0.4187
   22SAPC  H11A 2846   2.729   4.433  11.017 -1.2695  0.1906  0.1928
   22SAPC  H11B 2847   2.846   4.405  11.137 -1.1639 -1.5623 -1.2438
   22SAPC     P 2848   2.745   4.698  10.976  0.2483  0.5637  0.2146
   22SAPC   O13 2849   2.599   4.689  10.971  0.1326  0.4595 -0.5293
   22SAPC   O14 2850   2.801   4.834  10.979  0.5655 -0.6812 -0.1811
   22SAPC   O12 2851   2.801   4.614  11.104 -0.0206  0.1193  0.3605
   22SAPC   O11 2852   2.799   4.617  10.850 -0.7672 -0.1661 -0.4426
   22SAPC    C1 2853   2.938   4.595  10.824  0.6255 -0.0783 -0.6458
   22SAPC    HA 2854   3.002   4.650  10.896  0.0009 -0.6156  0.3462
   22SAPC    HB 2855   2.966   4.489  10.841  2.8470  0.0955 -2.6819
   22SAPC    C2 2856   2.972   4.628  10.680 -0.3980 -0.3469  0.7743
   22SAPC    HS 2857   3.048   4.709  10.687  0.3064 -0.9589  0.3996
   22SAPC   O21 2858   2.852   4.645  10.598  0.0666 -0.5625  0.0691
   22SAPC   C21 2859   2.804   4.768  10.608  0.0191  0.3939 -0.2606
   22SAPC   O22 2860   2.849   4.860  10.670 -0.5928 -0.3747 -0.2496
   22SAPC   C22 2861   2.676   4.780  10.525 -0.3338 -0.6582  0.4052
   22SAPC   H2R 2862   2.663   4.675  10.491 -0.6756 -0.5928  0.3349
   22SAPC   H2S 2863   2.604   4.817  10.601  2.0452 -0.5877  2.7587
   22SAPC    C3 2864   3.054   4.514  10.604  0.6881 -0.0516  0.0122
   22SAPC    HX 2865   3.006   4.415  10.618 -0.9508  0.2342 -2.7933
   22SAPC    HY 2866   3.153   4.521  10.654 -0.1110  0.4936  1.6040
   22SAPC   O31 2867   3.065   4.552  10.467  0.0714 -0.3518 -0.1156
   22SAPC   C31 2868   3.013   4.474  10.376 -0.1310  0.2212 -0.0695
   22SAPC   O32 2869   2.931   4.379  10.396  0.1647 -0.2668 -0.4333
   22SAPC   C32 2870   3.071   4.500  10.238 -0.9019  0.4856 -0.3307
   22SAPC   H2X 2871   3.178   4.525  10.256 -0.9745  0.1858  0.5551
   22SAPC   H2Y 2872   3.005   4.583  10.204 -1.2180 -0.5407 -2.3880
   22SAPC   C23 2873   2.688   4.866  10.398 -0.1808  0.5973  0.4746
   22SAPC   H3R 2874   2.740   4.962  10.423  1.0388 -0.2989  1.5485
   22SAPC   H3S 2875   2.588   4.881  10.353  0.2394  0.5257 -0.5115
   22SAPC   C24 2876   2.767   4.787  10.293  0.1637  0.3500  0.0779
   22SAPC   H4R 2877   2.715   4.690  10.282  0.0640  0.5281 -1.0665
   22SAPC   H4S 2878   2.872   4.763  10.323 -0.1789 -1.4289 -0.0532
   22SAPC   C25 2879   2.780   4.865  10.163 -0.0232 -0.1514  0.4900
   22SAPC   H5R 2880   2.842   4.956  10.170  0.6151 -0.5682  0.3805
   22SAPC   C26 2881   2.748   4.828  10.042  0.6610  0.0858  0.3486
   22SAPC   H6R 2882   2.775   4.885   9.951  1.0327 -0.3167  0.2036
   22SAPC   C27 2883   2.679   4.703  10.000  0.0799 -0.7971  0.0697
   22SAPC   H7R 2884   2.685   4.628  10.082  0.5718  2.5716  3.3782
   22SAPC   H7S 2885   2.751   4.661   9.927  0.4329  1.2968 -0.8385
   22SAPC   C28 2886   2.542   4.725   9.951 -0.1456  0.3572 -0.0024
   22SAPC   H8R 2887   2.485   4.790  10.018  1.5961  0.6380  1.2741
   22SAPC   C29 2888   2.492   4.675   9.837  0.0505 -0.1453  0.3961
   22SAPC   H9R 2889   2.388   4.688   9.804 -0.6739  0.8866  2.8032
   22SAPC  C210 2890   2.576   4.581   9.747  0.0906  0.3943 -0.5491
   22SAPC  H10R 2891   2.616   4.501   9.812 -0.4300  0.1095 -0.5711
   22SAPC  H10S 2892   2.666   4.632   9.705 -1.0237 -0.2855 -4.1638
   22SAPC  C211 2893   2.487   4.527   9.636  0.0244 -0.7308 -0.7287
   22SAPC  H11R 2894   2.459   4.590   9.550  1.5129 -1.8902 -2.1115
   22SAPC  C212 2895   2.439   4.408   9.626  0.1043  0.1917 -0.0648
   22SAPC  H12R 2896   2.385   4.380   9.535 -1.1568  1.2835  0.3183
   22SAPC  C213 2897   2.469   4.302   9.730 -0.3323  0.2471 -0.2001
   22SAPC  H13R 2898   2.571   4.316   9.772 -0.0678 -0.4663 -0.6020
   22SAPC  H13S 2899   2.472   4.213   9.664  0.4188  0.7413 -0.8451
   22SAPC  C214 2900   2.371   4.293   9.841 -0.0564  0.0659  0.0260
   22SAPC  H14R 2901   2.270   4.266   9.807 -0.0639  0.0405  0.0680
   22SAPC  C215 2902   2.386   4.302   9.971  0.6364 -0.2414 -0.2298
   22SAPC  H15R 2903   2.291   4.288  10.025  0.4561  2.2046  0.1730
   22SAPC  C216 2904   2.511   4.327  10.040 -0.7315  0.5182 -0.3281
   22SAPC  H16R 2905   2.546   4.429  10.017  0.5539 -0.1595 -1.5337
   22SAPC  H16S 2906   2.588   4.256  10.001 -0.9876 -0.0630  0.2060
   22SAPC  C217 2907   2.508   4.320  10.191 -0.4312  0.1937  0.1568
   22SAPC  H17R 2908   2.614   4.342  10.219 -0.8116 -0.1553  1.9962
   22SAPC  H17S 2909   2.499   4.213  10.221 -0.5602  0.1854  0.0859
   22SAPC  C218 2910   2.409   4.421  10.253  0.0790  0.3568  0.3494
   22SAPC  H18R 2911   2.306   4.385  10.234  0.2149  0.2839 -0.2608
   22SAPC  H18S 2912   2.409   4.514  10.192 -1.8656  0.7687  0.8871
   22SAPC  C219 2913   2.427   4.442  10.403 -0.3982 -0.3547  0.3838
   22SAPC  H19R 2914   2.532   4.479  10.406 -0.1071 -0.7645 -2.0918
   22SAPC  H19S 2915   2.424   4.347  10.459  2.0449 -0.3774  0.5723
   22SAPC  C220 2916   2.327   4.541  10.457  0.4809  0.1093  0.1701
   22SAPC  H20R 2917   2.220   4.517  10.439 -0.0226  2.1403  0.2889
   22SAPC  H20S 2918   2.338   4.646  10.423  0.3986  0.7530  2.0095
   22SAPC  H20T 2919   2.339   4.533  10.567 -1.2013 -0.0658  0.3643
   22SAPC   C33 2920   3.065   4.383  10.137  0.3800 -0.5309 -0.5004
   22SAPC   H3X 2921   3.129   4.298  10.167  1.6860  1.0320  1.3623
   22SAPC   H3Y 2922   3.108   4.431  10.047  2.5364 -0.3300  0.5769
   22SAPC   C34 2923   2.921   4.339  10.105  0.5429  0.0865 -0.2826
   22SAPC   H4X 2924   2.846   4.421  10.108  0.8397  0.3840 -0.7954
   22SAPC   H4Y 2925   2.888   4.271  10.186 -1.4602  0.6374 -0.5725
   22SAPC   C35 2926   2.907   4.263   9.969 -0.5569 -0.7081 -0.3486
   22SAPC   H5X 2927   2.807   4.218   9.954 -1.8825  1.8038  0.4457
   22SAPC   H5Y 2928   2.977   4.179   9.949 -0.9144 -1.2017  0.4594
   22SAPC   C36 2929   2.915   4.370   9.844  0.4677  0.2662  0.2742
   22SAPC   H6X 2930   3.008   4.422   9.873  0.2729  0.6204  0.2615
   22SAPC   H6Y 2931   2.824   4.432   9.857 -0.6512 -1.6240  2.1881
   22SAPC   C37 2932   2.928   4.302   9.702  0.2979  0.2075  0.3030
   22SAPC   H7X 2933   2.846   4.228   9.689  1.2469 -1.1216  1.6958
   22SAPC   H7Y 2934   3.034   4.270   9.694  0.0274 -1.0278  1.4626
   22SAPC   C38 2935   2.893   4.393   9.582  0.1361  0.2470  0.3515
   22SAPC   H8X 2936   2.962   4.480   9.582  0.9598 -0.3686  1.5199
   22SAPC   H8Y 2937   2.787   4.427   9.584 -0.0686  0.1247 -3.0501
   22SAPC   C39 2938   2.899   4.337   9.436 -0.0981  0.0327 -0.0215
   22SAPC   H9X 2939   2.861   4.233   9.442  2.1735 -0.8247  0.3897
   22SAPC   H9Y 2940   3.005   4.320   9.408 -0.0593 -3.0657  1.5868
   22SAPC  C310 2941   2.829   4.426   9.332  1.0351  0.5938 -0.1726
   22SAPC  H10X 2942   2.894   4.511   9.301  1.6181  1.3696  2.8590
   22SAPC  H10Y 2943   2.734   4.466   9.373 -1.0914 -1.5344 -2.6592
   22SAPC  C311 2944   2.789   4.344   9.207  0.4162  0.1708 -0.3198
   22SAPC  H11X 2945   2.687   4.302   9.223 -0.2070  1.3842 -1.0428
   22SAPC  H11Y 2946   2.872   4.272   9.190  0.7200  0.1442  1.1455
   22SAPC  C312 2947   2.781   4.434   9.083  0.3026  0.5095  0.3241
   22SAPC  H12X 2948   2.868   4.502   9.081  1.0372 -0.4243 -0.7792
   22SAPC  H12Y 2949   2.696   4.505   9.093 -0.0676  0.5419 -2.2922
   22SAPC  C313 2950   2.790   4.348   8.958  0.1373  0.1577  0.5692
   22SAPC  H13X 2951   2.708   4.273   8.959  1.9551 -1.9721  1.0748
   22SAPC  H13Y 2952   2.889   4.297   8.963  0.4401  0.6542 -0.2521
   22SAPC  C314 2953   2.797   4.425   8.821  0.0921  0.1463  0.1290
   22SAPC  H14X 2954   2.844   4.362   8.743  1.7644 -0.0509  1.2503
   22SAPC  H14Y 2955   2.855   4.519   8.833 -0.0872  1.0267 -4.1904
   22SAPC  C315 2956   2.665   4.483   8.773  0.0798  0.6637 -0.3830
   22SAPC  H15X 2957   2.624   4.520   8.869  0.9208  1.2269 -0.2326
   22SAPC  H15Y 2958   2.600   4.408   8.724  1.0190  0.4341 -1.3192
   22SAPC  C316 2959   2.685   4.601   8.677 -0.4999  0.5951  0.2118
   22SAPC  H16X 2960   2.728   4.560   8.583 -1.1981 -5.5340  2.1249
   22SAPC  H16Y 2961   2.761   4.672   8.718  1.2452 -0.9647 -0.1998
   22SAPC  C317 2962   2.557   4.685   8.654  0.0396 -0.1433  1.0714
   22SAPC  H17X 2963   2.515   4.715   8.753 -0.6908  3.9519 -0.3192
   22SAPC  H17Y 2964   2.466   4.637   8.613 -1.9428  2.8914  1.5889
   22SAPC  C318 2965   2.577   4.814   8.572  0.2775 -0.4321  0.3344
   22SAPC  H18X 2966   2.478   4.864   8.564 -0.1843 -1.5705 -2.3501
   22SAPC  H18Y 2967   2.615   4.787   8.471  1.3916  0.4826  0.4781
   22SAPC  H18Z 2968   2.660   4.876   8.611 -0.1070  1.1930 -1.3259
   23SAPC     N 2969   3.757   4.696  11.218  0.4056  0.5133 -0.5274
   23SAPC   C12 2970   3.677   4.683  11.085 -0.0880 -0.4022 -0.5018
   23SAPC  H12A 2971   3.670   4.783  11.047  0.8716 -0.0010  0.3284
   23SAPC  H12B 2972   3.579   4.644  11.109 -1.2564  1.5873 -1.8119
   23SAPC   C13 2973   3.663   4.762  11.315  0.0657 -0.4038 -0.2380
   23SAPC  H13A 2974   3.634   4.864  11.295 -1.5895 -0.8088 -0.0494
   23SAPC  H13B 2975   3.574   4.702  11.324  0.2813 -0.4628  2.1377
   23SAPC  H13C 2976   3.698   4.747  11.416  2.5429 -1.4556 -1.1784
   23SAPC   C14 2977   3.780   4.559  11.267 -0.2024 -0.0365 -0.0827
   23SAPC  H14A 2978   3.849   4.561  11.350  0.5918 -0.6886 -0.7045
   23SAPC  H14B 2979   3.695   4.504  11.305 -0.3827  0.1228 -0.2496
   23SAPC  H14C 2980   3.835   4.504  11.192 -0.1090 -0.0146 -0.0307
   23SAPC   C15 2981   3.885   4.771  11.212  0.4618  0.0953 -0.4090
   23SAPC  H15A 2982   3.949   4.724  11.138 -0.1449  0.1543 -0.9744
   23SAPC  H15B 2983   3.863   4.871  11.178 -1.6293  0.0932  0.7913
   23SAPC  H15C 2984   3.935   4.767  11.308 -0.2147  1.4880  0.0371
   23SAPC   C11 2985   3.728   4.595  10.966 -0.0956 -0.2725 -0.0258
   23SAPC  H11A 2986   3.655   4.585  10.883 -1.8180 -0.3329  1.4298
   23SAPC  H11B 2987   3.736   4.491  11.004  2.4855 -0.1887 -0.1416
   23SAPC     P 2988   3.882   4.732  10.810  0.3002 -0.0765 -0.1370
   23SAPC   O13 2989   4.011   4.802  10.832  0.4721 -0.6468  0.8651
   23SAPC   O14 2990   3.867   4.655  10.694 -0.3333 -0.0132  0.4016
   23SAPC   O12 2991   3.859   4.621  10.920  0.4836 -0.2958 -0.7673
   23SAPC   O11 2992   3.763   4.833  10.841 -0.6253 -0.5702 -0.0988
   23SAPC    C1 2993   3.683   4.879  10.727 -0.1106  0.3505 -1.0224
   23SAPC    HA 2994   3.629   4.791  10.685 -0.0063 -0.4268  0.3857
   23SAPC    HB 2995   3.601   4.945  10.763 -1.7295 -1.7089 -0.7021
   23SAPC    C2 2996   3.753   4.967  10.619  0.1997 -0.3918 -0.4309
   23SAPC    HS 2997   3.680   5.027  10.562 -0.3886 -0.7869 -0.1045
   23SAPC   O21 2998   3.851   4.899  10.533 -0.1880  0.1444  0.1685
   23SAPC   C21 2999   3.787   4.830  10.437 -0.0143  0.4288 -0.5765
   23SAPC   O22 3000   3.661   4.826  10.423 -0.5555 -0.5675 -0.0098
   23SAPC   C22 3001   3.888   4.743  10.369  0.3927  1.1446  0.1538
   23SAPC   H2R 3002   3.971   4.810  10.339  1.7167  0.6548  2.4362
   23SAPC   H2S 3003   3.933   4.674  10.445  1.0652  2.1520  0.6887
   23SAPC    C3 3004   3.830   5.087  10.684  0.4199 -0.8909 -0.8218
   23SAPC    HX 3005   3.913   5.050  10.748 -0.8320 -3.0581 -0.3702
   23SAPC    HY 3006   3.753   5.139  10.745  2.0106  0.8257 -0.1741
   23SAPC   O31 3007   3.880   5.169  10.574  0.0416 -0.4911  0.6734
   23SAPC   C31 3008   4.008   5.158  10.533 -0.4367  0.4835  0.3727
   23SAPC   O32 3009   4.093   5.080  10.579  0.0269 -0.0926  0.1997
   23SAPC   C32 3010   4.033   5.243  10.416 -0.1343 -0.4802  0.2427
   23SAPC   H2X 3011   4.129   5.204  10.377 -0.2117 -0.0881 -0.3477
   23SAPC   H2Y 3012   4.047   5.351  10.442 -2.0665 -0.0036 -0.5331
   23SAPC   C23 3013   3.833   4.667  10.248  0.2386 -0.0565  0.1481
   23SAPC   H3R 3014   3.728   4.639  10.271  0.4220  0.4023  1.6824
   23SAPC   H3S 3015   3.898   4.579  10.228 -1.9184 -2.2141  2.0330
   23SAPC   C24 3016   3.839   4.758  10.121 -0.1279  0.5589  0.2789
   23SAPC   H4R 3017   3.946   4.786  10.111 -0.4003  2.2004  1.5354
   23SAPC   H4S 3018   3.776   4.842  10.157 -2.3368 -0.4736 -1.0031
   23SAPC   C25 3019   3.794   4.680   9.997  0.0808 -0.3066 -0.6051
   23SAPC   H5R 3020   3.785   4.571  10.005  2.0697 -0.4661  0.2492
   23SAPC   C26 3021   3.764   4.733   9.877  0.6075 -0.1316 -0.3794
   23SAPC   H6R 3022   3.711   4.674   9.801 -0.7368 -0.2179  0.5839
   23SAPC   C27 3023   3.764   4.883   9.841  0.0778 -0.5606 -0.0157
   23SAPC   H7R 3024   3.820   4.893   9.745 -1.2064 -0.2152 -0.7453
   23SAPC   H7S 3025   3.818   4.937   9.922 -0.5255  0.1300 -0.0655
   23SAPC   C28 3026   3.625   4.929   9.828 -0.7687 -0.0725 -0.0348
   23SAPC   H8R 3027   3.567   4.952   9.919  1.7305  2.7275  1.0107
   23SAPC   C29 3028   3.555   4.953   9.706  0.0928 -0.9876 -0.6743
   23SAPC   H9R 3029   3.452   4.990   9.714  0.6657  1.4950 -3.3322
   23SAPC  C210 3030   3.607   4.939   9.571 -0.6137  0.9641 -0.0390
   23SAPC  H10R 3031   3.697   4.873   9.564  0.1481  2.0462 -0.6659
   23SAPC  H10S 3032   3.627   5.040   9.530  0.3185  0.1265 -1.7791
   23SAPC  C211 3033   3.500   4.895   9.482  0.8387  0.8331 -0.0852
   23SAPC  H11R 3034   3.425   4.831   9.531  2.0758  0.0588  0.8712
   23SAPC  C212 3035   3.470   4.941   9.359 -0.2572 -0.1226 -0.8626
   23SAPC  H12R 3036   3.376   4.908   9.312 -0.1925  1.5965 -2.3322
   23SAPC  C213 3037   3.554   5.044   9.277  0.5705  0.3775  0.5080
   23SAPC  H13R 3038   3.549   5.014   9.170  1.9463  2.0745 -0.0715
   23SAPC  H13S 3039   3.662   5.036   9.302  0.9803 -0.1333 -1.3281
   23SAPC  C214 3040   3.512   5.190   9.304 -0.5053 -0.3647  0.2812
   23SAPC  H14R 3041   3.447   5.193   9.393  0.8361 -1.7869  1.3593
   23SAPC  C215 3042   3.540   5.306   9.236 -0.2363  0.8204 -0.0912
   23SAPC  H15R 3043   3.503   5.403   9.272  1.8616  0.9444  1.9467
   23SAPC  C216 3044   3.625   5.318   9.113  0.1446 -0.1688 -0.6362
   23SAPC  H16R 3045   3.698   5.236   9.124  0.3367 -0.0777 -1.2509
   23SAPC  H16S 3046   3.685   5.412   9.117 -0.8302  0.6159 -2.9978
   23SAPC  C217 3047   3.542   5.313   8.985 -0.5986 -0.9493  0.2221
   23SAPC  H17R 3048   3.480   5.404   9.001 -0.0041 -0.6741  1.0258
   23SAPC  H17S 3049   3.478   5.222   8.980  2.3016 -3.0938 -1.0149
   23SAPC  C218 3050   3.617   5.340   8.856  0.1057  0.6452 -0.0765
   23SAPC  H18R 3051   3.671   5.433   8.886 -0.3891  0.3773  1.8021
   23SAPC  H18S 3052   3.548   5.358   8.772 -0.0763  0.6978  0.0829
   23SAPC  C219 3053   3.708   5.226   8.822 -0.8294  0.1496 -0.3100
   23SAPC  H19R 3054   3.662   5.126   8.805  1.8823 -0.8289 -2.6424
   23SAPC  H19S 3055   3.798   5.218   8.887 -0.8330  3.0698  0.1484
   23SAPC  C220 3056   3.772   5.255   8.686  0.4169 -0.4718  0.2121
   23SAPC  H20R 3057   3.700   5.279   8.604 -0.6097 -2.6874  0.4027
   23SAPC  H20S 3058   3.823   5.162   8.653  0.6711  0.2125 -1.4316
   23SAPC  H20T 3059   3.854   5.330   8.693  0.1972 -0.3267  1.3885
   23SAPC   C33 3060   3.940   5.229  10.302  0.4092  0.1405  0.4076
   23SAPC   H3X 3061   3.840   5.272  10.323  0.4522  0.3182  0.2502
   23SAPC   H3Y 3062   3.925   5.121  10.280 -0.4340  0.4217 -0.4547
   23SAPC   C34 3063   3.997   5.285  10.177  0.1904 -0.5460  0.3865
   23SAPC   H4X 3064   4.089   5.236  10.138  0.7795  1.0619 -0.3420
   23SAPC   H4Y 3065   4.027   5.391  10.190  1.0372 -0.6244 -0.7296
   23SAPC   C35 3066   3.901   5.280  10.060  0.2476  0.5542  0.7062
   23SAPC   H5X 3067   3.829   5.364  10.067 -1.6480 -1.0519  1.3469
   23SAPC   H5Y 3068   3.844   5.186  10.071  0.9522  0.1733  1.2187
   23SAPC   C36 3069   3.974   5.287   9.924 -0.0037 -0.2315 -0.7047
   23SAPC   H6X 3070   4.069   5.230   9.937  0.0314  0.4016  2.7245
   23SAPC   H6Y 3071   3.997   5.394   9.905  0.3837 -0.1399  0.2286
   23SAPC   C37 3072   3.887   5.246   9.801 -0.6120 -0.1967 -0.1180
   23SAPC   H7X 3073   3.799   5.313   9.786  0.6943  1.3319 -1.2087
   23SAPC   H7Y 3074   3.843   5.144   9.812 -0.9489 -0.3259 -2.1216
   23SAPC   C38 3075   3.970   5.253   9.670  0.9287 -0.6868 -0.3215
   23SAPC   H8X 3076   4.065   5.197   9.678  0.6247 -1.0456  1.0894
   23SAPC   H8Y 3077   3.985   5.363   9.665 -1.5884 -0.2028  0.9575
   23SAPC   C39 3078   3.899   5.199   9.546 -0.6492 -0.0636  0.1221
   23SAPC   H9X 3079   3.798   5.242   9.529 -1.1578 -1.5035 -0.5951
   23SAPC   H9Y 3080   3.890   5.090   9.563  0.2739 -0.2767 -0.6176
   23SAPC  C310 3081   3.986   5.208   9.413  0.9010  0.4204  0.4276
   23SAPC  H10X 3082   4.082   5.166   9.450  0.6506 -0.4523  0.1021
   23SAPC  H10Y 3083   4.011   5.314   9.394  1.8775  0.2484  0.6695
   23SAPC  C311 3084   3.925   5.142   9.288 -0.6841  0.9584  0.6360
   23SAPC  H11X 3085   3.827   5.192   9.272 -0.3816  0.7471 -2.5938
   23SAPC  H11Y 3086   3.915   5.033   9.305 -2.4196  0.8972 -0.5274
   23SAPC  C312 3087   4.013   5.155   9.162 -0.5322  0.1308 -0.9788
   23SAPC  H12X 3088   3.983   5.079   9.087 -0.3069 -0.8215 -0.1389
   23SAPC  H12Y 3089   4.116   5.122   9.188  0.1600 -0.9573 -4.5727
   23SAPC  C313 3090   4.016   5.290   9.096  0.3815 -0.0071 -0.6234
   23SAPC  H13X 3091   4.064   5.351   9.175 -0.0760 -1.2711  0.6705
   23SAPC  H13Y 3092   3.916   5.323   9.060  0.7467 -0.2125 -1.8921
   23SAPC  C314 3093   4.104   5.287   8.971 -0.1847  0.0533 -0.2339
   23SAPC  H14X 3094   4.082   5.194   8.915 -0.1460 -0.3994  0.4873
   23SAPC  H14Y 3095   4.212   5.281   8.994 -0.1627  2.4973  0.5429
   23SAPC  C315 3096   4.083   5.408   8.884  1.1752  0.0215  0.0571
   23SAPC  H15X 3097   4.091   5.498   8.949  0.9350  0.5488 -0.6340
   23SAPC  H15Y 3098   3.979   5.406   8.847  0.6568  2.0584  1.2075
   23SAPC  C316 3099   4.188   5.425   8.776 -0.7263  0.4464  0.9230
   23SAPC  H16X 3100   4.200   5.332   8.715 -3.5282 -0.3429  1.4428
   23SAPC  H16Y 3101   4.282   5.451   8.829 -0.2048 -0.4408  0.4679
   23SAPC  C317 3102   4.153   5.541   8.680 -0.3876 -0.2935  0.1753
   23SAPC  H17X 3103   4.119   5.629   8.739  4.9078  0.3342  2.8724
   23SAPC  H17Y 3104   4.070   5.525   8.608  0.7252  0.5965 -1.3864
   23SAPC  C318 3105   4.271   5.587   8.589  0.3516 -0.5908 -0.1370
   23SAPC  H18X 3106   4.278   5.533   8.493  2.5087 -1.0797  0.2505
   23SAPC  H18Y 3107   4.372   5.594   8.635 -0.0680 -0.0701  0.7578
   23SAPC  H18Z 3108   4.254   5.688   8.546  1.1033  0.4656  1.8847
   24SAPC     N 3109   4.300   6.046  11.478 -0.6699 -0.2184  0.1481
   24SAPC   C12 3110   4.274   6.126  11.349 -0.5900 -0.9162  0.0369
   24SAPC  H12A 3111   4.265   6.231  11.375  0.8243 -0.4054 -1.3368
   24SAPC  H12B 3112   4.177   6.100  11.310  0.0228 -0.6337 -1.7562
   24SAPC   C13 3113   4.174   6.027  11.546 -0.1552  0.1974  0.0302
   24SAPC  H13A 3114   4.133   6.118  11.588  1.9733  0.2612  2.2124
   24SAPC  H13B 3115   4.104   5.987  11.474 -2.3813  1.7163  1.2446
   24SAPC  H13C 3116   4.171   5.952  11.624 -2.6051 -2.3548 -2.3016
   24SAPC   C14 3117   4.355   5.910  11.427 -0.1705  0.4222 -0.2131
   24SAPC  H14A 3118   4.281   5.861  11.364 -1.3029  1.2089  0.4651
   24SAPC  H14B 3119   4.449   5.930  11.379 -0.8226  4.1966 -0.2050
   24SAPC  H14C 3120   4.373   5.840  11.507  2.6876  1.0402 -0.2359
   24SAPC   C15 3121   4.407   6.112  11.558 -0.4438  0.4063 -0.2984
   24SAPC  H15A 3122   4.411   6.059  11.652  0.1317  1.2590  0.1785
   24SAPC  H15B 3123   4.502   6.111  11.506  0.8285  1.9471  1.8303
   24SAPC  H15C 3124   4.392   6.214  11.588  0.8881  1.3683 -2.6314
   24SAPC   C11 3125   4.389   6.120  11.239 -0.5704  0.1863  0.1336
   24SAPC  H11A 3126   4.363   6.192  11.157  0.8700 -1.7182 -2.1321
   24SAPC  H11B 3127   4.397   6.018  11.197 -0.4940 -0.0018  0.6021
   24SAPC     P 3128   4.653   6.092  11.255 -0.2561 -0.1807  0.2702
   24SAPC   O13 3129   4.757   6.197  11.260 -0.2808 -0.0747  0.0746
   24SAPC   O14 3130   4.679   5.974  11.338  0.2219 -0.9674 -0.3946
   24SAPC   O12 3131   4.517   6.155  11.288  0.0372 -0.5024 -0.4761
   24SAPC   O11 3132   4.645   6.044  11.109  0.2092  0.1642  0.0483
   24SAPC    C1 3133   4.699   6.122  11.006 -0.1131 -0.0027 -0.1607
   24SAPC    HA 3134   4.684   6.228  11.035  0.3957 -0.0099  0.1427
   24SAPC    HB 3135   4.807   6.102  10.993  0.1903  1.0276  0.6136
   24SAPC    C2 3136   4.631   6.108  10.865 -0.2895  0.4044 -0.1383
   24SAPC    HS 3137   4.675   6.177  10.790  0.0798  0.0232 -0.2742
   24SAPC   O21 3138   4.487   6.125  10.872  0.1061  0.4054  0.2981
   24SAPC   C21 3139   4.440   6.249  10.894 -0.9164  0.6894 -0.0905
   24SAPC   O22 3140   4.501   6.352  10.889  0.1975  0.6005  0.1221
   24SAPC   C22 3141   4.294   6.240  10.916 -0.9161 -0.0699  0.2384
   24SAPC   H2R 3142   4.263   6.139  10.952 -4.1725  0.1860 -1.5219
   24SAPC   H2S 3143   4.288   6.314  10.998  3.1565 -0.4012  1.0355
   24SAPC    C3 3144   4.663   5.962  10.811 -0.4274  0.1483 -0.6986
   24SAPC    HX 3145   4.635   5.893  10.894 -2.6103  3.8778  1.9878
   24SAPC    HY 3146   4.769   5.958  10.778 -0.9655  0.4495 -2.5932
   24SAPC   O31 3147   4.588   5.950  10.694  0.4055  0.3918 -0.1959
   24SAPC   C31 3148   4.610   5.836  10.637  0.1971 -0.4370 -0.0433
   24SAPC   O32 3149   4.696   5.756  10.667  0.3004  0.3963 -0.3996
   24SAPC   C32 3150   4.514   5.810  10.525  0.0732  0.0960  0.1574
   24SAPC   H2X 3151   4.487   5.912  10.489 -0.3064  0.6194  1.8109
   24SAPC   H2Y 3152   4.417   5.767  10.558  0.3993  0.2887  1.4222
   24SAPC   C23 3153   4.208   6.288  10.800  0.0179 -0.2369 -0.2951
   24SAPC   H3R 3154   4.239   6.392  10.777 -0.5324  0.0297  0.1658
   24SAPC   H3S 3155   4.103   6.287  10.835  0.6187  2.5846  1.9641
   24SAPC   C24 3156   4.217   6.204  10.673  0.3846 -0.1774 -0.7124
   24SAPC   H4R 3157   4.323   6.199  10.642  0.5477  1.5865 -0.5158
   24SAPC   H4S 3158   4.148   6.259  10.606 -1.6034 -2.8154 -1.0237
   24SAPC   C25 3159   4.170   6.063  10.684  0.1186 -0.1332 -0.3885
   24SAPC   H5R 3160   4.232   5.993  10.743  0.7138  0.1370 -0.6892
   24SAPC   C26 3161   4.059   6.012  10.632  0.1831 -0.2301  0.0007
   24SAPC   H6R 3162   4.038   5.908  10.658  0.7889 -0.2766  0.3290
   24SAPC   C27 3163   3.969   6.089  10.539  0.0564 -0.0156  0.0212
   24SAPC   H7R 3164   4.009   6.079  10.436  0.3872  2.0695 -0.1082
   24SAPC   H7S 3165   3.975   6.197  10.564  1.4031 -0.7237  3.3301
   24SAPC   C28 3166   3.824   6.056  10.522  0.7103  0.3680  0.4359
   24SAPC   H8R 3167   3.779   6.007  10.610  2.3523 -2.8330 -0.3740
   24SAPC   C29 3168   3.745   6.092  10.419 -0.4083 -0.2954 -0.5889
   24SAPC   H9R 3169   3.644   6.049  10.427 -1.3271  1.6244 -1.1378
   24SAPC  C210 3170   3.784   6.175  10.298 -0.5915 -0.0127 -0.2996
   24SAPC  H10R 3171   3.891   6.206  10.299 -0.4872 -0.3587  0.8181
   24SAPC  H10S 3172   3.725   6.269  10.288  1.6174  1.2454 -3.3183
   24SAPC  C211 3173   3.760   6.101  10.167  1.0078 -0.4954  0.1371
   24SAPC  H11R 3174   3.656   6.065  10.166  0.3631  1.2446  0.8423
   24SAPC  C212 3175   3.836   6.091  10.061 -0.3356 -0.5782  0.1048
   24SAPC  H12R 3176   3.809   6.023   9.979 -1.9800 -0.6480  0.6770
   24SAPC  C213 3177   3.974   6.147  10.045 -0.2650 -0.2001 -0.2589
   24SAPC  H13R 3178   4.018   6.072   9.977 -2.9337 -1.7338 -0.4589
   24SAPC  H13S 3179   4.034   6.148  10.139 -0.8719  0.0172  0.1346
   24SAPC  C214 3180   3.979   6.281   9.984  0.2884 -0.3298  0.6221
   24SAPC  H14R 3181   3.957   6.368  10.047 -0.7507  0.2846 -0.5451
   24SAPC  C215 3182   4.010   6.303   9.854 -0.1219  0.5159 -0.2615
   24SAPC  H15R 3183   3.990   6.407   9.822 -0.2506  0.8535  0.8828
   24SAPC  C216 3184   4.033   6.201   9.747  0.1407 -0.2283  0.2136
   24SAPC  H16R 3185   4.012   6.096   9.775  1.9271 -1.1454 -1.5497
   24SAPC  H16S 3186   4.139   6.200   9.711  0.8631 -0.4824  2.2149
   24SAPC  C217 3187   3.925   6.231   9.639 -0.4233 -0.3984  0.0100
   24SAPC  H17R 3188   3.955   6.179   9.546  1.7719 -2.1936  1.6027
   24SAPC  H17S 3189   3.936   6.336   9.606  0.1921 -0.3561  0.3235
   24SAPC  C218 3190   3.783   6.196   9.676 -0.0755  0.5636 -0.4061
   24SAPC  H18R 3191   3.746   6.245   9.769  2.6249  0.3580  0.8589
   24SAPC  H18S 3192   3.772   6.085   9.679 -0.1920  0.5875  0.1286
   24SAPC  C219 3193   3.680   6.251   9.574 -0.7499 -0.1627  0.3742
   24SAPC  H19R 3194   3.686   6.361   9.586  0.3629 -0.4066  2.6406
   24SAPC  H19S 3195   3.580   6.218   9.608 -1.0814  0.8938  0.4546
   24SAPC  C220 3196   3.696   6.213   9.427  0.0935  0.0416 -0.4037
   24SAPC  H20R 3197   3.792   6.251   9.388  1.1364 -1.5513  0.4606
   24SAPC  H20S 3198   3.611   6.263   9.377  0.9681  0.4447 -1.5048
   24SAPC  H20T 3199   3.686   6.102   9.418  0.9124 -0.0143 -0.6721
   24SAPC   C33 3200   4.576   5.732  10.400  0.2978  0.5223  0.1949
   24SAPC   H3X 3201   4.493   5.713  10.328 -1.1607  1.4232  1.5554
   24SAPC   H3Y 3202   4.611   5.634  10.439  0.5554  0.5258 -0.0310
   24SAPC   C34 3203   4.683   5.813  10.328 -0.1980 -0.4551 -0.1599
   24SAPC   H4X 3204   4.732   5.735  10.265  0.0560 -1.4886  1.2740
   24SAPC   H4Y 3205   4.757   5.845  10.405 -1.0040 -2.8187  1.7142
   24SAPC   C35 3206   4.634   5.930  10.250 -0.3662 -0.6602  0.8774
   24SAPC   H5X 3207   4.591   6.003  10.321  1.6292  2.0480 -0.4962
   24SAPC   H5Y 3208   4.549   5.901  10.185  3.4359 -3.9470 -3.4077
   24SAPC   C36 3209   4.747   5.983  10.160 -0.2533  0.5305 -0.1142
   24SAPC   H6X 3210   4.843   5.996  10.213  0.2284  0.7773 -1.0327
   24SAPC   H6Y 3211   4.726   6.087  10.125 -0.7447  0.5771  0.2897
   24SAPC   C37 3212   4.773   5.890  10.037 -0.7068 -0.4477 -0.0588
   24SAPC   H7X 3213   4.810   5.794  10.078 -0.1812 -0.6440 -0.9873
   24SAPC   H7Y 3214   4.858   5.932   9.979 -0.0854 -1.0640  0.3926
   24SAPC   C38 3215   4.656   5.870   9.945  0.1724 -0.1087  1.0007
   24SAPC   H8X 3216   4.631   5.960   9.884  1.5134 -0.6967 -0.4704
   24SAPC   H8Y 3217   4.562   5.855  10.002 -0.3549  1.2866  0.5577
   24SAPC   C39 3218   4.675   5.762   9.832 -0.4894  0.2744 -0.2665
   24SAPC   H9X 3219   4.626   5.667   9.862  1.5598 -1.3356 -1.7577
   24SAPC   H9Y 3220   4.780   5.731   9.811 -1.1646 -0.7405 -2.5010
   24SAPC  C310 3221   4.621   5.803   9.694  0.0505 -0.2090  1.2130
   24SAPC  H10X 3222   4.687   5.877   9.643 -2.0185  0.8084 -0.1399
   24SAPC  H10Y 3223   4.523   5.852   9.708 -0.5483 -1.7600  2.9593
   24SAPC  C311 3224   4.613   5.666   9.612 -0.2994  0.1300 -0.4917
   24SAPC  H11X 3225   4.527   5.602   9.638  0.4229 -2.2936 -3.4271
   24SAPC  H11Y 3226   4.710   5.611   9.620 -0.5280 -0.4311 -1.3628
   24SAPC  C312 3227   4.604   5.707   9.464 -0.0844  0.1036  0.0001
   24SAPC  H12X 3228   4.659   5.638   9.396 -0.6735 -1.3953  1.0049
   24SAPC  H12Y 3229   4.650   5.807   9.448 -2.8905  1.3662 -0.8143
   24SAPC  C313 3230   4.467   5.720   9.401 -0.6968  0.1269 -0.4632
   24SAPC  H13X 3231   4.424   5.819   9.429 -1.6026 -0.2926 -0.3461
   24SAPC  H13Y 3232   4.386   5.649   9.427 -0.6698 -0.9754 -3.0799
   24SAPC  C314 3233   4.486   5.716   9.246  1.1276  0.3674  0.2600
   24SAPC  H14X 3234   4.536   5.623   9.209  1.2214  0.0905  1.0759
   24SAPC  H14Y 3235   4.537   5.811   9.216 -1.1481  1.2667 -0.9891
   24SAPC  C315 3236   4.357   5.727   9.175 -0.3048  0.0954  0.8558
   24SAPC  H15X 3237   4.326   5.834   9.171  3.0409  1.3628  3.7852
   24SAPC  H15Y 3238   4.275   5.665   9.216 -1.3724 -0.0501 -1.3226
   24SAPC  C316 3239   4.370   5.690   9.029  0.5085  0.6088  0.6609
   24SAPC  H16X 3240   4.274   5.699   8.975  0.6656 -1.4001 -0.0289
   24SAPC  H16Y 3241   4.388   5.580   9.025 -1.3284  0.3224 -1.4943
   24SAPC  C317 3242   4.485   5.763   8.960  0.0664 -0.0760 -0.4163
   24SAPC  H17X 3243   4.493   5.720   8.857 -3.8594  2.2392 -1.9289
   24SAPC  H17Y 3244   4.582   5.752   9.012  0.1672  0.4881 -0.4857
   24SAPC  C318 3245   4.466   5.910   8.943  0.1315 -0.4128  0.6777
   24SAPC  H18X 3246   4.558   5.949   8.896 -0.7349 -0.4304 -1.1140
   24SAPC  H18Y 3247   4.453   5.950   9.046  0.3539 -2.8590  1.7165
   24SAPC  H18Z 3248   4.378   5.933   8.880  0.2624 -3.0792 -0.6246
   25SAPC     N 3249   2.147   2.474   5.953  0.8156  0.0563 -0.1843
   25SAPC   C12 3250   2.135   2.458   6.105  0.3282 -1.1409  0.0837
   25SAPC  H12A 3251   2.204   2.380   6.133  0.4296 -0.2187  2.6724
   25SAPC  H12B 3252   2.032   2.445   6.134  0.3959  1.0143  1.4433
   25SAPC   C13 3253   2.058   2.586   5.907 -0.1895 -0.4974  0.1802
   25SAPC  H13A 3254   2.051   2.589   5.800 -1.7861 -0.8238  0.2537
   25SAPC  H13B 3255   1.964   2.592   5.959  0.4417  1.3682  1.2182
   25SAPC  H13C 3256   2.101   2.682   5.933 -3.4088  0.8584  0.8929
   25SAPC   C14 3257   2.289   2.508   5.911 -0.5915 -0.2696  0.2875
   25SAPC  H14A 3258   2.358   2.425   5.922 -0.6760 -0.3571  0.1712
   25SAPC  H14B 3259   2.279   2.527   5.805  1.7673  1.2419  0.2849
   25SAPC  H14C 3260   2.333   2.594   5.959 -0.9211 -0.5428  1.0973
   25SAPC   C15 3261   2.104   2.347   5.890  0.0640 -0.2824 -0.1388
   25SAPC  H15A 3262   2.164   2.263   5.922  0.1457 -0.3655 -0.5075
   25SAPC  H15B 3263   2.004   2.317   5.917 -0.0119 -0.8180 -0.9869
   25SAPC  H15C 3264   2.113   2.355   5.783  0.8842 -1.0912 -0.1484
   25SAPC   C11 3265   2.183   2.574   6.196  0.0873 -0.2529  0.3277
   25SAPC  H11A 3266   2.144   2.565   6.300 -4.2777  0.5066 -1.0392
   25SAPC  H11B 3267   2.139   2.666   6.153 -0.6775 -0.8165 -0.0938
   25SAPC     P 3268   2.420   2.501   6.280  0.2942 -0.4585  0.1850
   25SAPC   O13 3269   2.397   2.360   6.247 -0.2130 -0.0300 -0.3043
   25SAPC   O14 3270   2.561   2.544   6.273 -0.1308 -0.1139 -0.6909
   25SAPC   O12 3271   2.326   2.596   6.184  0.2502  0.0832 -0.0081
   25SAPC   O11 3272   2.352   2.520   6.425 -0.1269 -0.3393 -0.0837
   25SAPC    C1 3273   2.377   2.642   6.502  0.0652 -0.0224 -0.2167
   25SAPC    HA 3274   2.416   2.723   6.437 -1.0653  0.6765 -0.0401
   25SAPC    HB 3275   2.282   2.679   6.545 -0.2388  1.5964 -2.1496
   25SAPC    C2 3276   2.490   2.630   6.605  0.3096 -0.4676  0.3140
   25SAPC    HS 3277   2.583   2.601   6.551  0.4466  1.5835 -0.6544
   25SAPC   O21 3278   2.460   2.536   6.698 -0.2174 -0.0545  0.4014
   25SAPC   C21 3279   2.564   2.498   6.782 -0.6695 -0.2470 -0.0127
   25SAPC   O22 3280   2.684   2.522   6.759  0.6808 -0.1682  0.1328
   25SAPC   C22 3281   2.507   2.446   6.909 -0.2941 -0.6865 -0.7821
   25SAPC   H2R 3282   2.396   2.445   6.901 -0.4396  1.0585  0.5294
   25SAPC   H2S 3283   2.543   2.342   6.925  3.3274  0.8531  2.7876
   25SAPC    C3 3284   2.522   2.768   6.670 -0.6015  0.2688 -0.4022
   25SAPC    HX 3285   2.524   2.838   6.585  2.5753  0.0981 -0.6100
   25SAPC    HY 3286   2.628   2.768   6.705 -0.2120 -3.6650 -1.1258
   25SAPC   O31 3287   2.428   2.811   6.761  0.2801 -0.0187 -0.0240
   25SAPC   C31 3288   2.461   2.911   6.843 -0.1967 -0.5020 -0.0709
   25SAPC   O32 3289   2.572   2.966   6.849  0.0568 -0.0493  0.1375
   25SAPC   C32 3290   2.344   2.937   6.942  0.1794 -0.0498 -0.0441
   25SAPC   H2X 3291   2.288   2.843   6.954  0.6629 -0.7345 -2.4909
   25SAPC   H2Y 3292   2.281   3.010   6.886 -0.5179 -1.6535 -1.4490
   25SAPC   C23 3293   2.540   2.530   7.035  0.3711 -0.0908 -0.3598
   25SAPC   H3R 3294   2.507   2.631   7.002  0.0449 -0.4483 -1.1560
   25SAPC   H3S 3295   2.650   2.521   7.049  0.2471  0.3903  0.9972
   25SAPC   C24 3296   2.469   2.475   7.153  0.1997 -0.7172  0.0156
   25SAPC   H4R 3297   2.500   2.370   7.175  0.5217 -1.1100 -2.0733
   25SAPC   H4S 3298   2.362   2.464   7.123  0.5863  1.4891 -2.4851
   25SAPC   C25 3299   2.469   2.576   7.268  0.3746 -0.1208  0.2831
   25SAPC   H5R 3300   2.555   2.645   7.259 -0.9392  1.4980 -0.2837
   25SAPC   C26 3301   2.390   2.591   7.372  1.2593  0.0709  0.4645
   25SAPC   H6R 3302   2.421   2.664   7.449 -2.3971  0.6166  1.6330
   25SAPC   C27 3303   2.270   2.504   7.415 -0.4267  0.5236  0.4607
   25SAPC   H7R 3304   2.300   2.400   7.440 -1.4530 -0.0661 -0.6305
   25SAPC   H7S 3305   2.193   2.476   7.339 -0.1099 -0.6070  0.5313
   25SAPC   C28 3306   2.201   2.564   7.528 -0.4611 -0.1392 -0.9431
   25SAPC   H8R 3307   2.107   2.618   7.508 -0.3367 -0.9662 -4.3595
   25SAPC   C29 3308   2.234   2.571   7.661  0.7127  0.2255 -0.2796
   25SAPC   H9R 3309   2.165   2.616   7.734 -0.8914  0.0237 -1.6334
   25SAPC  C210 3310   2.354   2.507   7.724 -0.2283 -0.0916  0.3738
   25SAPC  H10R 3311   2.417   2.573   7.787 -2.0215  1.7246  0.3893
   25SAPC  H10S 3312   2.422   2.477   7.641 -0.4606  0.2612  0.0518
   25SAPC  C211 3313   2.300   2.390   7.802  0.0295  0.3285 -0.1208
   25SAPC  H11R 3314   2.262   2.318   7.728 -1.1904  0.9203 -0.1021
   25SAPC  C212 3315   2.292   2.372   7.937  0.5387 -0.0632 -0.3510
   25SAPC  H12R 3316   2.234   2.284   7.967 -0.5909  0.1166 -1.8945
   25SAPC  C213 3317   2.338   2.467   8.044 -0.0104  0.8288  1.0658
   25SAPC  H13R 3318   2.329   2.405   8.136 -0.2260 -0.5572  0.1409
   25SAPC  H13S 3319   2.256   2.541   8.046 -2.0573 -1.3304  0.7945
   25SAPC  C214 3320   2.473   2.527   8.040 -1.4639 -0.4018 -0.8972
   25SAPC  H14R 3321   2.544   2.476   7.973  0.2285  0.1011  0.4374
   25SAPC  C215 3322   2.511   2.620   8.129 -0.5712 -0.1944  0.2676
   25SAPC  H15R 3323   2.612   2.663   8.127  0.1465 -1.7970 -0.7170
   25SAPC  C216 3324   2.424   2.671   8.244 -0.3305  0.1382 -0.2975
   25SAPC  H16R 3325   2.330   2.613   8.256 -0.8276  0.8830 -0.5312
   25SAPC  H16S 3326   2.386   2.773   8.223  0.0270  1.5000  4.5156
   25SAPC  C217 3327   2.474   2.672   8.392 -0.7124 -0.2116  0.0976
   25SAPC  H17R 3328   2.536   2.580   8.402 -0.8752 -0.6296 -2.1297
   25SAPC  H17S 3329   2.383   2.679   8.456 -1.6330  1.0261 -1.2826
   25SAPC  C218 3330   2.568   2.796   8.411  0.3694  0.2622 -0.5344
   25SAPC  H18R 3331   2.500   2.879   8.383 -0.1206  0.5412  1.3271
   25SAPC  H18S 3332   2.656   2.804   8.344  2.1260 -2.7497  1.2058
   25SAPC  C219 3333   2.613   2.815   8.560  0.5775 -0.0689  0.2759
   25SAPC  H19R 3334   2.702   2.880   8.563 -0.2290  1.0278  1.9724
   25SAPC  H19S 3335   2.633   2.718   8.610  2.5354  1.0471  1.7654
   25SAPC  C220 3336   2.507   2.881   8.647  0.4539 -0.6778  0.3010
   25SAPC  H20R 3337   2.550   2.944   8.728 -2.4396  0.1843  1.2895
   25SAPC  H20S 3338   2.435   2.803   8.681 -0.5873  0.6907  1.3655
   25SAPC  H20T 3339   2.442   2.951   8.591  1.4601  1.4046  1.6091
   25SAPC   C33 3340   2.392   2.993   7.080  0.1151 -0.3777  0.5399
   25SAPC   H3X 3341   2.405   3.103   7.088 -0.0336 -0.3170 -0.0412
   25SAPC   H3Y 3342   2.491   2.952   7.107 -0.3332  0.1826  3.3385
   25SAPC   C34 3343   2.285   2.956   7.186 -1.1618 -0.0275  0.0671
   25SAPC   H4X 3344   2.259   2.849   7.199  0.5658 -0.4872 -0.0237
   25SAPC   H4Y 3345   2.194   3.016   7.161 -2.0784 -0.7175  1.6143
   25SAPC   C35 3346   2.326   3.020   7.326  0.1343  0.5373 -0.2972
   25SAPC   H5X 3347   2.362   3.122   7.302  0.2524  0.7275  0.6607
   25SAPC   H5Y 3348   2.402   2.964   7.384  0.1562  2.1469  1.3145
   25SAPC   C36 3349   2.203   3.036   7.419  0.2784 -0.2861 -0.4800
   25SAPC   H6X 3350   2.168   2.932   7.439  0.6650 -0.1898  0.7671
   25SAPC   H6Y 3351   2.131   3.090   7.354  1.5979 -1.8958 -3.5236
   25SAPC   C37 3352   2.230   3.120   7.550  0.0979  0.3623 -0.2938
   25SAPC   H7X 3353   2.160   3.206   7.556 -0.0573  0.2430 -0.3956
   25SAPC   H7Y 3354   2.334   3.159   7.546  0.2194  0.1422 -4.4503
   25SAPC   C38 3355   2.215   3.050   7.684 -0.0262 -0.5043  0.6947
   25SAPC   H8X 3356   2.256   2.948   7.668  1.8212  0.3977 -0.6398
   25SAPC   H8Y 3357   2.110   3.059   7.719  0.6317  0.1719  2.6098
   25SAPC   C39 3358   2.299   3.120   7.793 -0.3746 -0.1857 -0.0876
   25SAPC   H9X 3359   2.270   3.227   7.807 -0.3635 -0.4059  1.9348
   25SAPC   H9Y 3360   2.402   3.122   7.752 -0.0594  3.1079  0.5819
   25SAPC  C310 3361   2.324   3.046   7.923  0.2630 -0.5775  1.2893
   25SAPC  H10X 3362   2.416   3.090   7.967 -0.1001  1.9533 -0.2647
   25SAPC  H10Y 3363   2.322   2.939   7.892 -0.7710  0.0031 -0.8176
   25SAPC  C311 3364   2.200   3.078   8.013 -0.4489  0.0142  0.3490
   25SAPC  H11X 3365   2.115   3.015   7.978  1.3177 -1.3163 -1.8750
   25SAPC  H11Y 3366   2.169   3.183   7.997 -0.4352 -0.3230 -2.1679
   25SAPC  C312 3367   2.226   3.051   8.164 -0.5354 -0.0066  0.3999
   25SAPC  H12X 3368   2.303   3.125   8.193 -1.0313  0.3033  0.9304
   25SAPC  H12Y 3369   2.268   2.948   8.167  0.1363  0.2694  0.7282
   25SAPC  C313 3370   2.098   3.061   8.247 -0.3021  1.0231 -0.2081
   25SAPC  H13X 3371   2.115   3.022   8.350  0.1125  1.5440 -0.0734
   25SAPC  H13Y 3372   2.020   2.998   8.199 -1.5046  2.5132 -0.2549
   25SAPC  C314 3373   2.037   3.195   8.261 -0.2791  0.0966 -0.5579
   25SAPC  H14X 3374   2.034   3.254   8.167  1.0327  2.0765  0.5585
   25SAPC  H14Y 3375   2.105   3.262   8.317 -2.7570  1.1932  1.3545
   25SAPC  C315 3376   1.895   3.198   8.320 -0.4059  0.0528  0.2833
   25SAPC  H15X 3377   1.913   3.144   8.416  3.0906  1.3686  0.5193
   25SAPC  H15Y 3378   1.820   3.151   8.252 -0.7715  0.7280  0.2118
   25SAPC  C316 3379   1.830   3.331   8.359 -0.1263 -0.5827 -0.0420
   25SAPC  H16X 3380   1.823   3.389   8.265 -0.8908 -0.3429  0.1514
   25SAPC  H16Y 3381   1.892   3.394   8.426 -3.5638  4.1668 -0.7897
   25SAPC  C317 3382   1.692   3.319   8.430 -0.5927 -0.3346  0.2165
   25SAPC  H17X 3383   1.714   3.246   8.510 -0.6759  1.3363  1.8281
   25SAPC  H17Y 3384   1.621   3.270   8.360 -0.8634  1.8968 -1.1834
   25SAPC  C318 3385   1.631   3.449   8.486 -0.1702 -0.1283  0.6310
   25SAPC  H18X 3386   1.597   3.511   8.400  0.0962 -1.3830 -0.4211
   25SAPC  H18Y 3387   1.698   3.520   8.538 -1.6811  1.2512  0.7833
   25SAPC  H18Z 3388   1.548   3.426   8.556  0.4480 -1.0382  1.0858
   26SAPC     N 3389   2.047   5.834   6.204  0.0793 -0.2715  0.3146
   26SAPC   C12 3390   1.993   5.787   6.335  0.4750 -0.3556  0.0434
   26SAPC  H12A 3391   2.069   5.728   6.385  0.2936 -0.7640 -0.1554
   26SAPC  H12B 3392   1.919   5.710   6.318 -0.8618  0.6349  1.1287
   26SAPC   C13 3393   2.146   5.948   6.219  0.0616  0.3822  0.1547
   26SAPC  H13A 3394   2.174   5.978   6.118  3.1713 -0.6257  0.6024
   26SAPC  H13B 3395   2.089   6.020   6.276 -0.8618 -0.4939  0.3587
   26SAPC  H13C 3396   2.241   5.918   6.260  0.3768 -0.0439 -0.8487
   26SAPC   C14 3397   2.116   5.725   6.129 -0.1035  0.6423  0.2921
   26SAPC  H14A 3398   2.127   5.757   6.027 -1.8773  0.1178 -0.0951
   26SAPC  H14B 3399   2.212   5.704   6.174  1.1487  3.5472 -0.7733
   26SAPC  H14C 3400   2.048   5.642   6.119  1.2039 -0.6115  1.1789
   26SAPC   C15 3401   1.940   5.885   6.111 -0.1398 -0.0293 -0.2552
   26SAPC  H15A 3402   1.877   5.802   6.084  1.0064 -1.7041  1.8452
   26SAPC  H15B 3403   1.881   5.947   6.177 -0.3519 -1.1194  0.6150
   26SAPC  H15C 3404   1.977   5.947   6.031 -0.3980  1.0311  0.4257
   26SAPC   C11 3405   1.923   5.894   6.425  0.8366  0.8104  0.8691
   26SAPC  H11A 3406   1.993   5.974   6.457  1.7226  0.1209  0.7126
   26SAPC  H11B 3407   1.905   5.849   6.525 -1.0412  0.3025  0.3352
   26SAPC     P 3408   1.749   6.084   6.366  0.0215 -0.0801 -0.3991
   26SAPC   O13 3409   1.840   6.182   6.288 -0.1155 -0.3990 -0.3055
   26SAPC   O14 3410   1.606   6.089   6.331 -0.5270 -0.3498 -0.0806
   26SAPC   O12 3411   1.803   5.937   6.355 -0.1923 -0.2726 -0.4312
   26SAPC   O11 3412   1.768   6.104   6.523  0.2227 -0.6091  0.5099
   26SAPC    C1 3413   1.690   6.035   6.620  0.6955  0.5743  0.0454
   26SAPC    HA 3414   1.643   5.939   6.590  2.4159 -0.0292 -0.8930
   26SAPC    HB 3415   1.760   5.993   6.696  0.7203 -2.3348 -1.4162
   26SAPC    C2 3416   1.588   6.118   6.702 -0.5354 -0.9698  0.4438
   26SAPC    HS 3417   1.544   6.190   6.630  2.6356  1.1721  0.4427
   26SAPC   O21 3418   1.663   6.189   6.802  0.1241  0.2720 -0.0031
   26SAPC   C21 3419   1.604   6.294   6.861  0.1406  0.8087  1.2717
   26SAPC   O22 3420   1.507   6.349   6.814 -0.4315  0.0706 -0.6043
   26SAPC   C22 3421   1.679   6.322   6.993  0.6090 -0.7113  0.2460
   26SAPC   H2R 3422   1.631   6.261   7.072 -0.4110  0.9971  1.0153
   26SAPC   H2S 3423   1.786   6.297   6.978  0.8838 -0.1531  1.1394
   26SAPC    C3 3424   1.471   6.030   6.758  0.6686 -0.4845  0.1489
   26SAPC    HX 3425   1.420   5.993   6.666 -3.2893  1.5308  1.2795
   26SAPC    HY 3426   1.406   6.108   6.804  1.6183 -0.1892  1.0209
   26SAPC   O31 3427   1.511   5.925   6.849  0.2408 -0.2820  0.2259
   26SAPC   C31 3428   1.514   5.954   6.983 -0.7916  0.0482  0.4545
   26SAPC   O32 3429   1.457   6.047   7.035  0.7053  0.1378 -0.3502
   26SAPC   C32 3430   1.621   5.857   7.042 -0.7237 -0.0940 -0.0543
   26SAPC   H2X 3431   1.715   5.872   6.984  0.5714 -1.2382  1.6437
   26SAPC   H2Y 3432   1.588   5.756   7.013  0.4463 -0.6804  0.5696
   26SAPC   C23 3433   1.674   6.473   7.025 -0.1220  0.6948 -0.0359
   26SAPC   H3R 3434   1.570   6.500   7.055 -2.2939 -2.8622 -3.4401
   26SAPC   H3S 3435   1.700   6.537   6.937 -0.3434 -0.2538 -0.8093
   26SAPC   C24 3436   1.767   6.521   7.134 -0.2340 -0.0930 -0.3797
   26SAPC   H4R 3437   1.738   6.460   7.223  1.4591  0.8981  0.9163
   26SAPC   H4S 3438   1.750   6.629   7.152 -1.5162 -0.3337 -0.0405
   26SAPC   C25 3439   1.910   6.508   7.082 -0.4904  0.6870  0.6042
   26SAPC   H5R 3440   1.930   6.544   6.980 -1.1071  0.0303  0.2460
   26SAPC   C26 3441   2.012   6.464   7.159 -1.0295  0.2272 -0.2799
   26SAPC   H6R 3442   2.113   6.457   7.116 -0.8734 -3.2704  0.3455
   26SAPC   C27 3443   2.015   6.415   7.302 -0.0635 -0.2685  0.3913
   26SAPC   H7R 3444   1.963   6.491   7.364  0.9350 -0.3267  1.3350
   26SAPC   H7S 3445   2.120   6.420   7.338  0.7080  3.9165 -1.8450
   26SAPC   C28 3446   1.953   6.278   7.321  0.0799 -0.0167 -0.3883
   26SAPC   H8R 3447   1.997   6.196   7.263 -2.4746 -0.3542 -2.0181
   26SAPC   C29 3448   1.844   6.252   7.404  0.4275 -0.4113  0.2426
   26SAPC   H9R 3449   1.811   6.148   7.392 -0.4776 -0.2474  1.1814
   26SAPC  C210 3450   1.765   6.344   7.488  0.3102  0.1490  0.3748
   26SAPC  H10R 3451   1.691   6.285   7.546  0.1739  0.0718  0.1229
   26SAPC  H10S 3452   1.706   6.408   7.418  0.4631 -1.7401 -1.5704
   26SAPC  C211 3453   1.840   6.415   7.594  0.1930 -0.3490  0.2060
   26SAPC  H11R 3454   1.899   6.502   7.563  0.8919  0.3135  3.0794
   26SAPC  C212 3455   1.832   6.400   7.723  1.1564 -0.4326 -0.2916
   26SAPC  H12R 3456   1.889   6.478   7.775 -1.3689  0.5900  1.1466
   26SAPC  C213 3457   1.769   6.303   7.822 -0.3071 -0.4413  0.1344
   26SAPC  H13R 3458   1.760   6.204   7.773 -0.1437  0.4557 -1.7931
   26SAPC  H13S 3459   1.665   6.338   7.842  0.3502  0.9752  1.1613
   26SAPC  C214 3460   1.849   6.287   7.944  0.1756  0.6026 -0.5175
   26SAPC  H14R 3461   1.954   6.265   7.921  0.9265 -0.0319  2.8676
   26SAPC  C215 3462   1.808   6.309   8.068  0.1921 -0.4999 -0.5118
   26SAPC  H15R 3463   1.881   6.290   8.147 -1.6008 -3.3655  0.6437
   26SAPC  C216 3464   1.673   6.345   8.121  0.5864 -0.2076 -0.3616
   26SAPC  H16R 3465   1.594   6.288   8.069 -0.2648 -0.6531  1.3514
   26SAPC  H16S 3466   1.654   6.452   8.099 -0.7403 -0.3672 -0.0339
   26SAPC  C217 3467   1.654   6.325   8.275  0.4182 -0.1335 -0.8381
   26SAPC  H17R 3468   1.667   6.218   8.302  0.6717  0.3112  0.9200
   26SAPC  H17S 3469   1.560   6.366   8.319  1.0814  0.0514  0.4562
   26SAPC  C218 3470   1.761   6.405   8.358  0.6727 -0.1787 -0.4698
   26SAPC  H18R 3471   1.742   6.513   8.338 -1.5977 -0.7517 -1.6919
   26SAPC  H18S 3472   1.865   6.372   8.340  0.9857  0.7638 -0.4632
   26SAPC  C219 3473   1.749   6.381   8.511  0.7401 -0.6382  0.4737
   26SAPC  H19R 3474   1.754   6.271   8.526  3.1837 -0.7535 -0.6089
   26SAPC  H19S 3475   1.648   6.411   8.544  0.7378 -2.0672  1.9126
   26SAPC  C220 3476   1.846   6.469   8.588  0.3030  0.4590 -0.6211
   26SAPC  H20R 3477   1.782   6.519   8.663  1.1566  0.8293 -0.1196
   26SAPC  H20S 3478   1.889   6.548   8.524  0.9342  2.2039  1.8063
   26SAPC  H20T 3479   1.924   6.406   8.636  0.1363  0.1371 -0.7715
   26SAPC   C33 3480   1.640   5.883   7.193  1.5496 -0.1255 -0.3779
   26SAPC   H3X 3481   1.652   5.990   7.217 -1.4394  0.3611 -0.6860
   26SAPC   H3Y 3482   1.729   5.822   7.223 -0.0396 -2.1944  0.3877
   26SAPC   C34 3483   1.535   5.812   7.287  0.3638  0.1768  0.1352
   26SAPC   H4X 3484   1.527   5.709   7.246 -1.3079  0.2826  0.1114
   26SAPC   H4Y 3485   1.435   5.860   7.277 -0.5302 -1.9636 -2.2916
   26SAPC   C35 3486   1.573   5.792   7.433 -0.5766  0.2567 -0.0997
   26SAPC   H5X 3487   1.648   5.711   7.444  0.7336  1.6129  1.7638
   26SAPC   H5Y 3488   1.483   5.750   7.482  0.4858  0.6323  2.3345
   26SAPC   C36 3489   1.615   5.916   7.505 -0.7790  0.8208  0.1685
   26SAPC   H6X 3490   1.532   5.988   7.485 -2.4144 -0.9294  0.3841
   26SAPC   H6Y 3491   1.710   5.962   7.471 -1.0085  1.1905  0.0181
   26SAPC   C37 3492   1.635   5.890   7.652 -0.2023 -0.0615 -0.1385
   26SAPC   H7X 3493   1.540   5.857   7.700 -0.5400 -0.6675 -1.2045
   26SAPC   H7Y 3494   1.656   5.993   7.690 -0.3300  0.2989 -1.0217
   26SAPC   C38 3495   1.754   5.797   7.692 -0.3018 -0.0494 -0.0151
   26SAPC   H8X 3496   1.840   5.835   7.632 -1.5157  1.7940 -0.6795
   26SAPC   H8Y 3497   1.737   5.693   7.658  1.7292 -0.5121  0.2496
   26SAPC   C39 3498   1.792   5.789   7.839  0.1137  0.1943 -0.2512
   26SAPC   H9X 3499   1.886   5.729   7.842  0.4309  0.6559 -0.7859
   26SAPC   H9Y 3500   1.720   5.727   7.896  1.4465 -0.0831  1.2202
   26SAPC  C310 3501   1.825   5.922   7.906 -0.5886  0.1557  0.3644
   26SAPC  H10X 3502   1.732   5.979   7.925 -0.4209  0.4422  0.3467
   26SAPC  H10Y 3503   1.876   5.989   7.833 -1.1141  1.3979  1.0914
   26SAPC  C311 3504   1.904   5.916   8.036  0.5824 -0.0481 -0.2789
   26SAPC  H11X 3505   1.965   6.009   8.034 -2.7673  2.3550 -2.7555
   26SAPC  H11Y 3506   1.974   5.829   8.027  0.5106 -0.1176 -0.1559
   26SAPC  C312 3507   1.813   5.906   8.168 -1.4228  0.1804 -0.2123
   26SAPC  H12X 3508   1.760   5.809   8.164 -2.8900  0.9619 -0.3366
   26SAPC  H12Y 3509   1.732   5.981   8.156 -1.7041 -0.2018 -0.7274
   26SAPC  C313 3510   1.901   5.931   8.287  0.1210  0.0268 -0.6536
   26SAPC  H13X 3511   1.945   6.033   8.283  0.2220  0.0291  0.2638
   26SAPC  H13Y 3512   1.978   5.851   8.287 -0.1257 -0.2149 -1.3264
   26SAPC  C314 3513   1.813   5.921   8.416  0.5495  0.8989  0.1592
   26SAPC  H14X 3514   1.795   5.811   8.415  1.4719  0.7431 -0.2019
   26SAPC  H14Y 3515   1.723   5.986   8.413 -0.1303 -0.0386 -0.4004
   26SAPC  C315 3516   1.887   5.964   8.545  0.3131  0.3547  0.4677
   26SAPC  H15X 3517   1.914   6.071   8.531 -0.2719  0.5203  0.6060
   26SAPC  H15Y 3518   1.975   5.897   8.556 -2.0576 -3.0152  0.3330
   26SAPC  C316 3519   1.813   5.946   8.679  0.3896  0.7605 -0.3758
   26SAPC  H16X 3520   1.793   5.837   8.693 -2.2447  1.1799 -0.4348
   26SAPC  H16Y 3521   1.711   5.990   8.684  1.0064  2.0625  1.3239
   26SAPC  C317 3522   1.893   5.996   8.803  0.3228  0.7197  0.4974
   26SAPC  H17X 3523   1.917   6.104   8.791  0.8920  0.9456  3.0802
   26SAPC  H17Y 3524   1.985   5.940   8.830  0.7241  1.2309  0.2271
   26SAPC  C318 3525   1.794   6.000   8.917 -0.4685  0.4640 -0.2640
   26SAPC  H18X 3526   1.754   5.903   8.951 -0.2829  0.4335 -0.1299
   26SAPC  H18Y 3527   1.699   6.056   8.901 -0.7268  0.1491  0.1460
   26SAPC  H18Z 3528   1.834   6.048   9.009 -2.3064  0.2712  0.6734
   27SAPC     N 3529   5.205   0.600   6.544  0.0588  0.6235  0.1296
   27SAPC   C12 3530   5.248   0.590   6.686 -0.4199 -0.1546  0.3312
   27SAPC  H12A 3531   5.162   0.573   6.749  0.6693  0.5303  2.0906
   27SAPC  H12B 3532   5.294   0.685   6.711  1.6401 -1.1206  0.4541
   27SAPC   C13 3533   5.157   0.470   6.490 -0.4016 -1.0435 -0.2282
   27SAPC  H13A 3534   5.240   0.401   6.476 -0.4847 -0.7406 -2.5044
   27SAPC  H13B 3535   5.088   0.419   6.555  1.2153  0.0152  2.5013
   27SAPC  H13C 3536   5.111   0.471   6.393  1.0654 -0.6900 -0.9489
   27SAPC   C14 3537   5.086   0.690   6.533  0.2114 -0.4345  0.2802
   27SAPC  H14A 3538   5.109   0.787   6.573  1.4048 -0.8425  0.6392
   27SAPC  H14B 3539   5.053   0.705   6.431  2.0277 -0.7742 -0.3901
   27SAPC  H14C 3540   4.999   0.658   6.588 -0.8903 -1.2314 -1.8003
   27SAPC   C15 3541   5.309   0.671   6.463  0.7414  0.6687 -0.5264
   27SAPC  H15A 3542   5.405   0.623   6.460  2.0801  2.9533  2.0481
   27SAPC  H15B 3543   5.265   0.685   6.364 -0.5384 -0.3871 -0.1400
   27SAPC  H15C 3544   5.330   0.763   6.516  1.6106  0.8432 -1.1444
   27SAPC   C11 3545   5.355   0.490   6.738 -0.3502 -0.6083  0.3304
   27SAPC  H11A 3546   5.379   0.521   6.842  3.5573 -1.7321 -0.1005
   27SAPC  H11B 3547   5.455   0.500   6.692  0.2069 -2.0320  1.1791
   27SAPC     P 3548   5.230   0.290   6.854 -0.5161 -0.1168  0.0329
   27SAPC   O13 3549   5.091   0.277   6.811  0.5167  0.0038 -0.2138
   27SAPC   O14 3550   5.302   0.168   6.900 -0.3048 -0.2808  0.0957
   27SAPC   O12 3551   5.308   0.356   6.739  0.0600 -0.0198  0.8642
   27SAPC   O11 3552   5.242   0.403   6.966  0.6393  0.1567  0.1649
   27SAPC    C1 3553   5.225   0.356   7.105  0.3870  0.4767  0.4696
   27SAPC    HA 3554   5.126   0.393   7.139  0.3583  1.9255 -1.0044
   27SAPC    HB 3555   5.241   0.247   7.114  0.7721  0.4452 -0.4359
   27SAPC    C2 3556   5.313   0.422   7.216 -0.1855 -0.6700  0.5034
   27SAPC    HS 3557   5.295   0.531   7.228 -1.4867 -0.9530  1.2946
   27SAPC   O21 3558   5.449   0.392   7.175 -0.2797  0.5914 -0.2808
   27SAPC   C21 3559   5.504   0.486   7.101 -0.2147  1.4462 -0.1082
   27SAPC   O22 3560   5.468   0.597   7.078  0.1376  0.0107  0.2552
   27SAPC   C22 3561   5.653   0.438   7.071  0.7931  0.7347 -0.3124
   27SAPC   H2R 3562   5.723   0.497   7.134 -0.7425  2.2416  0.0779
   27SAPC   H2S 3563   5.658   0.328   7.088 -1.1997  0.5148 -0.8997
   27SAPC    C3 3564   5.291   0.372   7.361  0.8331  0.3168  0.3595
   27SAPC    HX 3565   5.359   0.432   7.426  0.4789 -0.9289  1.9344
   27SAPC    HY 3566   5.334   0.270   7.366 -0.0554 -0.0265  3.2088
   27SAPC   O31 3567   5.151   0.368   7.401 -0.4060 -0.4176 -0.4259
   27SAPC   C31 3568   5.107   0.471   7.467  0.1009 -0.5535  0.3586
   27SAPC   O32 3569   5.170   0.564   7.513  0.0151 -0.3874  0.6684
   27SAPC   C32 3570   4.960   0.447   7.488  0.6896 -0.1779 -0.4761
   27SAPC   H2X 3571   4.920   0.362   7.428  0.2898 -0.1920 -0.1910
   27SAPC   H2Y 3572   4.905   0.537   7.452  0.7899 -0.7999 -2.2901
   27SAPC   C23 3573   5.678   0.477   6.925  0.2565  0.9344 -0.2204
   27SAPC   H3R 3574   5.647   0.583   6.923 -1.6331  0.4377  0.7406
   27SAPC   H3S 3575   5.615   0.429   6.847 -0.2466  1.9473 -0.4457
   27SAPC   C24 3576   5.821   0.454   6.879  0.2116 -0.1958 -0.6166
   27SAPC   H4R 3577   5.804   0.456   6.769 -2.9534  0.1702 -0.2165
   27SAPC   H4S 3578   5.851   0.348   6.892 -0.5713 -0.4089 -0.4965
   27SAPC   C25 3579   5.910   0.569   6.922 -0.8053 -0.4148 -0.3003
   27SAPC   H5R 3580   5.889   0.668   6.878 -0.5233  0.3664  1.2481
   27SAPC   C26 3581   6.022   0.546   7.005 -0.1116  0.1888  0.2158
   27SAPC   H6R 3582   6.079   0.635   7.039 -0.6160  0.5952  0.0108
   27SAPC   C27 3583   6.055   0.404   7.047 -0.0066  0.0069 -0.0516
   27SAPC   H7R 3584   6.056   0.339   6.957  0.7268 -0.0657  0.0010
   27SAPC   H7S 3585   5.975   0.374   7.116 -1.7901  1.1341 -1.5299
   27SAPC   C28 3586   6.195   0.382   7.100 -0.5603 -0.0170 -0.0627
   27SAPC   H8R 3587   6.276   0.378   7.027 -0.4613  2.5446 -0.1855
   27SAPC   C29 3588   6.230   0.385   7.234  0.3489  0.3159  0.1486
   27SAPC   H9R 3589   6.335   0.371   7.266  0.9396  2.7442 -0.5100
   27SAPC  C210 3590   6.143   0.413   7.354  0.0966  0.2440  0.2610
   27SAPC  H10R 3591   6.037   0.435   7.328  0.3960  0.6367 -0.7020
   27SAPC  H10S 3592   6.173   0.507   7.404 -0.6473  0.7183 -0.1608
   27SAPC  C211 3593   6.135   0.305   7.455  1.0212  0.0061  0.0588
   27SAPC  H11R 3594   6.119   0.209   7.403  1.1178  0.4054 -0.7330
   27SAPC  C212 3595   6.119   0.314   7.588 -1.2077  0.4197  0.3821
   27SAPC  H12R 3596   6.098   0.222   7.646  0.1756  0.6123  1.2229
   27SAPC  C213 3597   6.114   0.441   7.670  0.2123 -0.5426 -0.7260
   27SAPC  H13R 3598   6.029   0.440   7.741  1.0845  2.0799  0.4741
   27SAPC  H13S 3599   6.096   0.532   7.609 -0.0368  0.2348  0.4732
   27SAPC  C214 3600   6.235   0.444   7.758 -0.4006 -0.3029  0.3254
   27SAPC  H14R 3601   6.325   0.479   7.705  0.2606  1.2388  2.3187
   27SAPC  C215 3602   6.257   0.410   7.889  0.9949 -0.3419 -0.0495
   27SAPC  H15R 3603   6.356   0.442   7.924  2.4170  0.1538 -3.9920
   27SAPC  C216 3604   6.158   0.360   7.990  0.3857 -0.1071 -0.5416
   27SAPC  H16R 3605   6.169   0.253   8.016  0.7275  0.8197  4.0958
   27SAPC  H16S 3606   6.061   0.362   7.937 -0.5222  2.4167  1.0131
   27SAPC  C217 3607   6.171   0.461   8.108  0.1272  0.3531  0.1573
   27SAPC  H17R 3608   6.184   0.568   8.080  1.2059 -0.0724 -1.0947
   27SAPC  H17S 3609   6.264   0.435   8.162  1.1636  1.9580 -0.7623
   27SAPC  C218 3610   6.053   0.433   8.199 -0.1863 -0.2101  0.0773
   27SAPC  H18R 3611   6.056   0.338   8.257 -0.9710  2.0444  4.2111
   27SAPC  H18S 3612   5.955   0.435   8.147  0.7406 -2.8436 -2.0017
   27SAPC  C219 3613   6.046   0.536   8.319 -0.5732  0.8476  0.0969
   27SAPC  H19R 3614   6.033   0.640   8.281  0.6997  0.7983 -0.5196
   27SAPC  H19S 3615   6.145   0.535   8.369 -0.1501 -2.2893 -0.5551
   27SAPC  C220 3616   5.923   0.505   8.413  0.3941 -0.4987 -0.1698
   27SAPC  H20R 3617   5.927   0.578   8.497  0.7429  1.8779 -2.1343
   27SAPC  H20S 3618   5.938   0.409   8.466  1.8445  0.8835  2.0520
   27SAPC  H20T 3619   5.826   0.507   8.359  0.0722  0.0473  0.4181
   27SAPC   C33 3620   4.925   0.426   7.637  0.4496 -0.3579 -0.7698
   27SAPC   H3X 3621   4.819   0.399   7.655  0.4620  0.1877  0.1520
   27SAPC   H3Y 3622   4.937   0.521   7.692 -0.5021 -0.9697  0.5588
   27SAPC   C34 3623   5.016   0.314   7.695  0.3463  1.0477 -0.0486
   27SAPC   H4X 3624   5.122   0.347   7.699  0.6008  0.1299  1.6259
   27SAPC   H4Y 3625   5.009   0.223   7.632  1.1265  0.9639 -0.0246
   27SAPC   C35 3626   4.974   0.273   7.837 -0.1679 -0.1284 -0.5033
   27SAPC   H5X 3627   5.045   0.197   7.874  1.3308  0.4455 -2.0713
   27SAPC   H5Y 3628   4.870   0.234   7.844 -0.9393  1.8619 -0.0540
   27SAPC   C36 3629   5.000   0.389   7.938  0.3036  0.2205 -0.4224
   27SAPC   H6X 3630   4.927   0.471   7.921  1.0368  0.7638 -0.9830
   27SAPC   H6Y 3631   5.100   0.422   7.904  1.5559 -0.6272  2.1795
   27SAPC   C37 3632   4.991   0.340   8.083 -0.2327 -0.1450 -0.1728
   27SAPC   H7X 3633   4.916   0.258   8.083 -0.3883 -0.0106 -1.2874
   27SAPC   H7Y 3634   4.953   0.431   8.134  0.1683  1.0211 -1.8884
   27SAPC   C38 3635   5.124   0.293   8.143 -0.4838  0.6051 -0.0592
   27SAPC   H8X 3636   5.198   0.375   8.156 -0.3734  0.6012 -0.6346
   27SAPC   H8Y 3637   5.163   0.229   8.061 -0.1255 -1.1678  1.4108
   27SAPC   C39 3638   5.118   0.218   8.279  0.2294 -0.2809 -0.4417
   27SAPC   H9X 3639   5.217   0.181   8.313 -0.1188  0.4395  1.5208
   27SAPC   H9Y 3640   5.072   0.118   8.265  2.2472 -1.5304  1.2926
   27SAPC  C310 3641   5.050   0.282   8.395 -0.1259  0.5298 -0.4153
   27SAPC  H10X 3642   4.946   0.311   8.366  0.2935  3.0374  0.3906
   27SAPC  H10Y 3643   5.114   0.370   8.414  1.1390 -0.3850 -0.3587
   27SAPC  C311 3644   5.065   0.192   8.520  0.3387 -0.7630  0.2894
   27SAPC  H11X 3645   5.171   0.164   8.534  0.0608 -0.9717  2.1958
   27SAPC  H11Y 3646   5.006   0.099   8.507 -0.6805  0.0500 -1.2183
   27SAPC  C312 3647   5.005   0.250   8.650  0.5486 -0.1327 -0.4089
   27SAPC  H12X 3648   4.894   0.255   8.654  0.6021  2.9638  2.4225
   27SAPC  H12Y 3649   5.040   0.354   8.667  2.4311 -1.0492  1.9371
   27SAPC  C313 3650   5.049   0.164   8.765  0.1560  0.1893 -0.9787
   27SAPC  H13X 3651   5.157   0.142   8.754 -0.0770 -0.7670 -1.4674
   27SAPC  H13Y 3652   4.995   0.068   8.748 -2.1759  0.9359  1.5554
   27SAPC  C314 3653   5.008   0.225   8.906  0.7235 -0.5636  0.2104
   27SAPC  H14X 3654   5.051   0.327   8.907  1.6602 -0.8666 -1.9015
   27SAPC  H14Y 3655   5.062   0.177   8.990  2.0108 -0.2952 -0.4253
   27SAPC  C315 3656   4.861   0.241   8.934  0.1564  0.5100  0.0897
   27SAPC  H15X 3657   4.814   0.140   8.925  1.2220 -0.1371  1.4283
   27SAPC  H15Y 3658   4.808   0.312   8.867 -2.4012  0.4773  1.8985
   27SAPC  C316 3659   4.835   0.280   9.076 -0.0517 -0.5326 -0.5496
   27SAPC  H16X 3660   4.903   0.230   9.148  0.1178  3.0743  2.0371
   27SAPC  H16Y 3661   4.730   0.262   9.109 -0.1087 -2.7111 -1.7285
   27SAPC  C317 3662   4.866   0.434   9.085 -0.5991  0.4496  0.0770
   27SAPC  H17X 3663   4.824   0.474   8.990  1.7769 -1.4691 -1.9031
   27SAPC  H17Y 3664   4.976   0.442   9.078 -0.6571 -0.0639 -3.2010
   27SAPC  C318 3665   4.817   0.506   9.217 -0.7540 -0.2291  0.7949
   27SAPC  H18X 3666   4.854   0.456   9.309 -0.8282  0.2937  1.1130
   27SAPC  H18Y 3667   4.706   0.500   9.211 -0.8262  0.7006  1.0670
   27SAPC  H18Z 3668   4.855   0.610   9.218  1.6363 -0.9710 -1.6649
   28SAPC     N 3669   4.599   5.667   6.359  0.2926 -0.5115 -0.2333
   28SAPC   C12 3670   4.617   5.518   6.356  0.0829 -0.0087  0.3167
   28SAPC  H12A 3671   4.718   5.496   6.327  0.2513  1.5606 -0.4142
   28SAPC  H12B 3672   4.548   5.479   6.283  0.8795 -1.2305  0.1908
   28SAPC   C13 3673   4.685   5.715   6.478 -0.2123 -0.5495  0.0927
   28SAPC  H13A 3674   4.676   5.820   6.501  4.4498  0.0977  0.0688
   28SAPC  H13B 3675   4.650   5.667   6.568 -1.2581 -0.4739 -0.2585
   28SAPC  H13C 3676   4.789   5.697   6.451 -0.1467  0.1715 -0.1584
   28SAPC   C14 3677   4.649   5.740   6.238  0.1281  0.2632  0.3871
   28SAPC  H14A 3678   4.632   5.846   6.253  2.2189  1.0210 -1.8578
   28SAPC  H14B 3679   4.753   5.717   6.225  0.2218  0.2329  1.1431
   28SAPC  H14C 3680   4.587   5.702   6.158  0.2458 -0.0098  0.4262
   28SAPC   C15 3681   4.456   5.706   6.386 -0.9191  0.1823  0.0857
   28SAPC  H15A 3682   4.425   5.652   6.474 -1.1886  0.3113  0.0671
   28SAPC  H15B 3683   4.449   5.813   6.400  1.7107  0.3236  0.9551
   28SAPC  H15C 3684   4.390   5.673   6.307 -0.9097 -1.4288  0.7058
   28SAPC   C11 3685   4.580   5.428   6.475  0.3394  0.0833 -0.1891
   28SAPC  H11A 3686   4.630   5.452   6.571 -0.0458 -0.1842  0.0833
   28SAPC  H11B 3687   4.610   5.325   6.448 -1.7258 -1.4752  2.8824
   28SAPC     P 3688   4.346   5.317   6.439  0.0193  0.1070  0.2621
   28SAPC   O13 3689   4.217   5.323   6.507 -0.4441 -0.3721  0.5909
   28SAPC   O14 3690   4.359   5.338   6.293 -0.2548  0.0962 -0.2456
   28SAPC   O12 3691   4.437   5.433   6.497 -0.0796  0.1884  0.9724
   28SAPC   O11 3692   4.427   5.188   6.466 -0.3119  0.4061  0.2650
   28SAPC    C1 3693   4.389   5.078   6.543 -1.1456  0.4340 -0.2001
   28SAPC    HA 3694   4.281   5.077   6.572 -0.6475  1.1547  1.9020
   28SAPC    HB 3695   4.417   4.982   6.495  0.7979 -0.2140  2.0291
   28SAPC    C2 3696   4.470   5.066   6.678 -1.0721  0.0090  0.0846
   28SAPC    HS 3697   4.435   4.978   6.738  1.2655  0.0866  1.6892
   28SAPC   O21 3698   4.471   5.191   6.756  0.2104  0.0839 -0.3587
   28SAPC   C21 3699   4.382   5.208   6.853  0.1975  0.3827  0.1522
   28SAPC   O22 3700   4.292   5.128   6.885  0.0805  0.1424 -0.3990
   28SAPC   C22 3701   4.415   5.337   6.936 -0.2374 -0.1653  0.7269
   28SAPC   H2R 3702   4.525   5.348   6.946 -0.2958 -1.3537  3.4165
   28SAPC   H2S 3703   4.380   5.425   6.877 -2.3254  1.1731  3.6933
   28SAPC    C3 3704   4.620   5.033   6.644  0.1632  0.1623 -0.0250
   28SAPC    HX 3705   4.658   5.125   6.595  0.7100  1.1844  2.1808
   28SAPC    HY 3706   4.620   4.951   6.570 -0.5650  0.1208  0.0187
   28SAPC   O31 3707   4.694   5.002   6.771  0.3647  0.2610 -0.1771
   28SAPC   C31 3708   4.790   5.086   6.809  0.0473  0.2942 -0.0210
   28SAPC   O32 3709   4.825   5.186   6.753  0.6597  0.0042 -0.5511
   28SAPC   C32 3710   4.831   5.052   6.949  0.0673  0.1473  0.0325
   28SAPC   H2X 3711   4.937   5.083   6.957  0.7927 -2.4112  1.1383
   28SAPC   H2Y 3712   4.811   4.946   6.975 -1.3888  0.0375 -1.3570
   28SAPC   C23 3713   4.341   5.348   7.078  0.0166  0.3195 -0.0563
   28SAPC   H3R 3714   4.350   5.248   7.126 -1.1125 -0.4446 -1.3944
   28SAPC   H3S 3715   4.238   5.382   7.054  0.1672 -0.0233 -1.2331
   28SAPC   C24 3716   4.425   5.436   7.171 -0.3328  0.1319 -0.3343
   28SAPC   H4R 3717   4.388   5.431   7.276  1.3462 -0.1279  0.2901
   28SAPC   H4S 3718   4.531   5.401   7.178 -0.9473 -1.5431  1.6488
   28SAPC   C25 3719   4.419   5.579   7.123 -0.5608  0.1839 -0.2896
   28SAPC   H5R 3720   4.313   5.607   7.109 -1.9053 -3.0225  2.1826
   28SAPC   C26 3721   4.521   5.672   7.114  0.0833  0.2103 -0.1864
   28SAPC   H6R 3722   4.504   5.774   7.074  1.2543  0.8534  0.8862
   28SAPC   C27 3723   4.666   5.639   7.154  0.2704  0.0844 -0.1455
   28SAPC   H7R 3724   4.700   5.558   7.085 -1.4025 -0.6789 -0.1355
   28SAPC   H7S 3725   4.661   5.591   7.254  3.3738  1.0516  0.5708
   28SAPC   C28 3726   4.766   5.749   7.157  0.0274 -0.3313 -0.0033
   28SAPC   H8R 3727   4.807   5.774   7.058 -1.1618  1.9961  0.0188
   28SAPC   C29 3728   4.808   5.816   7.266  0.6495  0.3523  0.3648
   28SAPC   H9R 3729   4.878   5.899   7.247 -0.6017  0.9904 -1.8788
   28SAPC  C210 3730   4.762   5.802   7.413 -0.8125  0.2425 -0.2827
   28SAPC  H10R 3731   4.663   5.752   7.410 -1.3951  1.3442 -0.0167
   28SAPC  H10S 3732   4.742   5.905   7.451 -0.9605 -0.2422  0.9889
   28SAPC  C211 3733   4.863   5.733   7.501 -0.4871  0.0657 -0.3387
   28SAPC  H11R 3734   4.954   5.679   7.473  1.4099  0.5935  3.9842
   28SAPC  C212 3735   4.852   5.765   7.633  0.1330  0.3661 -0.2131
   28SAPC  H12R 3736   4.926   5.727   7.705 -0.5923 -3.2942 -1.1808
   28SAPC  C213 3737   4.742   5.844   7.694  0.1721 -0.2319 -0.4343
   28SAPC  H13R 3738   4.662   5.878   7.625 -2.3327  0.0893  2.4177
   28SAPC  H13S 3739   4.791   5.935   7.735 -2.0520  0.9748 -0.3013
   28SAPC  C214 3740   4.664   5.770   7.795  0.8405 -0.3221  0.0346
   28SAPC  H14R 3741   4.582   5.711   7.750  1.5466 -0.7329 -0.7455
   28SAPC  C215 3742   4.673   5.772   7.932 -0.3305 -0.2564  0.5418
   28SAPC  H15R 3743   4.606   5.706   7.990 -0.0450  0.1055  1.3071
   28SAPC  C216 3744   4.777   5.836   8.015 -0.5353 -0.4962  0.2181
   28SAPC  H16R 3745   4.844   5.897   7.951 -0.5422  0.7585  1.3688
   28SAPC  H16S 3746   4.842   5.760   8.063  0.4408  0.3568  0.2730
   28SAPC  C217 3747   4.730   5.932   8.124 -0.0252  0.2229 -0.2403
   28SAPC  H17R 3748   4.672   5.878   8.202  0.1674  1.0284  0.4763
   28SAPC  H17S 3749   4.662   6.007   8.077 -0.8049 -0.6313 -0.5121
   28SAPC  C218 3750   4.848   5.994   8.202 -0.2969  0.1367 -0.0145
   28SAPC  H18R 3751   4.903   5.914   8.257 -1.0488 -0.2849  0.1420
   28SAPC  H18S 3752   4.799   6.066   8.271 -1.3651  0.6288 -1.2510
   28SAPC  C219 3753   4.952   6.063   8.126  0.2993  0.2303  0.4705
   28SAPC  H19R 3754   4.994   5.986   8.058 -0.3990  0.5273 -0.3190
   28SAPC  H19S 3755   5.029   6.092   8.201  0.4344 -2.0558  1.2993
   28SAPC  C220 3756   4.905   6.183   8.047  0.2555 -0.4708  1.0671
   28SAPC  H20R 3757   4.982   6.216   7.973  0.2132  1.0206  1.6522
   28SAPC  H20S 3758   4.879   6.263   8.119 -0.9954 -1.4548  1.7406
   28SAPC  H20T 3759   4.816   6.152   7.988  0.7940 -0.8235  0.4149
   28SAPC   C33 3760   4.761   5.149   7.042  0.8269 -0.1880  0.1799
   28SAPC   H3X 3761   4.653   5.124   7.045  1.4300 -3.1413  0.1573
   28SAPC   H3Y 3762   4.766   5.257   7.016 -0.5243 -0.3623 -0.8883
   28SAPC   C34 3763   4.816   5.137   7.186  0.0001  0.0281 -0.6173
   28SAPC   H4X 3764   4.927   5.140   7.174  0.3773 -0.2686  2.2329
   28SAPC   H4Y 3765   4.783   5.039   7.226 -0.4476  0.1727 -0.6232
   28SAPC   C35 3766   4.782   5.252   7.278  0.0498 -0.0186  0.0105
   28SAPC   H5X 3767   4.671   5.259   7.278  0.0912  1.4647 -1.6327
   28SAPC   H5Y 3768   4.826   5.342   7.230 -1.1562 -0.3967 -1.9062
   28SAPC   C36 3769   4.830   5.221   7.414 -0.3361 -0.1164  0.4064
   28SAPC   H6X 3770   4.935   5.187   7.424 -0.9040 -1.6371  1.6971
   28SAPC   H6Y 3771   4.781   5.127   7.449  0.7715 -0.9260 -0.1323
   28SAPC   C37 3772   4.804   5.336   7.510  0.4545 -0.2134 -0.1499
   28SAPC   H7X 3773   4.696   5.360   7.514  0.4558 -0.2146 -0.1026
   28SAPC   H7Y 3774   4.855   5.431   7.481  0.0760 -0.1108 -0.4869
   28SAPC   C38 3775   4.845   5.299   7.654 -1.0211  0.2798  0.0074
   28SAPC   H8X 3776   4.956   5.296   7.659 -0.9840 -0.6950 -0.9958
   28SAPC   H8Y 3777   4.810   5.198   7.683 -0.5877  0.3931  0.9593
   28SAPC   C39 3778   4.804   5.400   7.763 -0.3596  0.6711 -0.3427
   28SAPC   H9X 3779   4.693   5.401   7.756 -0.2786  0.9370 -1.8165
   28SAPC   H9Y 3780   4.840   5.500   7.733  0.0125  0.1124 -1.8348
   28SAPC  C310 3781   4.833   5.344   7.901  0.1821  0.3427  1.0210
   28SAPC  H10X 3782   4.942   5.335   7.919  0.0867 -4.1984  0.5071
   28SAPC  H10Y 3783   4.776   5.251   7.921 -1.8108  1.8324  2.6523
   28SAPC  C311 3784   4.794   5.452   7.997 -0.1934 -0.3804 -0.2064
   28SAPC  H11X 3785   4.697   5.500   7.970 -1.5605 -1.5988  2.1311
   28SAPC  H11Y 3786   4.861   5.541   7.991  0.9277 -0.7886  3.6091
   28SAPC  C312 3787   4.786   5.411   8.151  0.2763  0.5639 -1.2791
   28SAPC  H12X 3788   4.878   5.356   8.179 -0.4914 -0.8786 -1.4816
   28SAPC  H12Y 3789   4.697   5.345   8.161  0.3543  0.3808 -1.7454
   28SAPC  C313 3790   4.767   5.537   8.245 -0.3560  0.1875 -0.0986
   28SAPC  H13X 3791   4.671   5.585   8.215 -0.3316 -0.1453 -0.7508
   28SAPC  H13Y 3792   4.848   5.609   8.222  0.7053 -0.4354  1.5263
   28SAPC  C314 3793   4.772   5.494   8.391 -0.5364  0.9169 -0.4101
   28SAPC  H14X 3794   4.874   5.475   8.429 -0.6190  2.6538  0.7794
   28SAPC  H14Y 3795   4.728   5.392   8.393  0.6444  0.3970  0.6999
   28SAPC  C315 3796   4.707   5.603   8.476 -0.3945 -0.0162  0.0362
   28SAPC  H15X 3797   4.681   5.556   8.573  1.5601 -2.5067 -0.5498
   28SAPC  H15Y 3798   4.609   5.632   8.432 -0.6849  2.6058  2.1216
   28SAPC  C316 3799   4.791   5.735   8.490 -0.0817  0.3412  0.0867
   28SAPC  H16X 3800   4.806   5.765   8.384 -1.7323 -0.0956 -0.2996
   28SAPC  H16Y 3801   4.884   5.699   8.540 -0.2448 -0.6202 -0.2693
   28SAPC  C317 3802   4.734   5.855   8.559  0.0399  0.0712  0.0019
   28SAPC  H17X 3803   4.819   5.926   8.552  0.3169 -0.3958 -1.5754
   28SAPC  H17Y 3804   4.717   5.839   8.668  0.2910 -0.5529 -0.0458
   28SAPC  C318 3805   4.598   5.905   8.503  0.8075  0.2080  0.6929
   28SAPC  H18X 3806   4.568   5.995   8.560  0.7766  0.8372 -0.2877
   28SAPC  H18Y 3807   4.515   5.832   8.503 -0.7341  1.8598 -0.6528
   28SAPC  H18Z 3808   4.604   5.942   8.398  1.8516 -1.7783 -0.0043
   29SAPC     N 3809   0.239   5.105   6.489 -0.1214  0.3903 -0.4759
   29SAPC   C12 3810   0.294   5.232   6.539 -0.3276 -0.0387 -0.5258
   29SAPC  H12A 3811   0.221   5.279   6.603  0.7860  0.0644  0.7047
   29SAPC  H12B 3812   0.310   5.294   6.452  3.1469 -0.4744 -0.3605
   29SAPC   C13 3813   0.182   5.019   6.600  0.4345  0.8887  0.2718
   29SAPC  H13A 3814   0.107   5.066   6.663 -0.3695 -1.2002  0.9727
   29SAPC  H13B 3815   0.129   4.930   6.571 -2.3199  1.6126  2.5888
   29SAPC  H13C 3816   0.265   4.981   6.658  0.8909 -1.2896 -1.6589
   29SAPC   C14 3817   0.125   5.132   6.395  0.1514 -0.1115  0.3917
   29SAPC  H14A 3818   0.052   5.183   6.457 -0.2177 -0.6373  0.4003
   29SAPC  H14B 3819   0.159   5.189   6.310  2.2204 -0.8791  0.6591
   29SAPC  H14C 3820   0.078   5.044   6.354 -1.2454  1.2119 -0.9377
   29SAPC   C15 3821   0.343   5.021   6.423 -0.4363  1.0950  0.0292
   29SAPC  H15A 3822   0.366   5.056   6.324  0.1107 -1.0510 -0.6568
   29SAPC  H15B 3823   0.427   5.022   6.491 -0.9436  3.3459  0.7085
   29SAPC  H15C 3824   0.313   4.920   6.399  2.8133 -0.1132  0.5265
   29SAPC   C11 3825   0.423   5.225   6.625 -0.2488 -0.2986 -0.0248
   29SAPC  H11A 3826   0.406   5.155   6.709  0.1290  0.6129  0.8349
   29SAPC  H11B 3827   0.439   5.320   6.681 -0.1680 -0.7585  0.7436
   29SAPC     P 3828   0.657   5.268   6.506  0.1852  0.2817 -0.4604
   29SAPC   O13 3829   0.739   5.200   6.399  0.0442 -0.4499  0.6372
   29SAPC   O14 3830   0.615   5.406   6.474  0.5650 -0.0664  0.1611
   29SAPC   O12 3831   0.526   5.184   6.537  0.3161  0.2178  0.5165
   29SAPC   O11 3832   0.726   5.273   6.645 -0.6297  0.5586 -0.3242
   29SAPC    C1 3833   0.868   5.310   6.647  0.4374 -0.1336  0.4180
   29SAPC    HA 3834   0.920   5.218   6.611 -2.8412 -0.9816 -2.7935
   29SAPC    HB 3835   0.882   5.395   6.577 -0.0109 -0.1076  0.3560
   29SAPC    C2 3836   0.903   5.359   6.786  0.4183  0.0947  0.1008
   29SAPC    HS 3837   1.010   5.388   6.783  0.7831 -0.9472  1.7937
   29SAPC   O21 3838   0.873   5.261   6.897  0.1848  0.6453 -0.2395
   29SAPC   C21 3839   0.967   5.168   6.913  0.2421  0.2575 -0.6672
   29SAPC   O22 3840   1.049   5.129   6.832  0.2757  0.0196  0.6268
   29SAPC   C22 3841   0.937   5.096   7.049 -0.6595 -0.6064  0.8087
   29SAPC   H2R 3842   0.834   5.054   7.051 -1.0172  0.2668  1.2589
   29SAPC   H2S 3843   0.997   5.002   7.044 -1.9211 -1.4353  0.9078
   29SAPC    C3 3844   0.842   5.497   6.822 -0.1315 -0.3984 -0.5932
   29SAPC    HX 3845   0.732   5.479   6.831  0.1247 -0.8294  3.4827
   29SAPC    HY 3846   0.854   5.561   6.732 -2.0863 -0.6077 -1.0558
   29SAPC   O31 3847   0.894   5.562   6.946  0.1858 -0.3430  0.6283
   29SAPC   C31 3848   0.806   5.593   7.039  0.6160 -0.5606  0.5195
   29SAPC   O32 3849   0.685   5.576   7.028 -0.5926  0.3467  0.2372
   29SAPC   C32 3850   0.867   5.635   7.175  0.0396 -0.1191 -0.0557
   29SAPC   H2X 3851   0.816   5.732   7.195 -1.7113 -0.3369 -2.9382
   29SAPC   H2Y 3852   0.976   5.647   7.157 -0.0991  0.1706 -0.7304
   29SAPC   C23 3853   0.985   5.188   7.171  0.6647 -0.1110  0.4951
   29SAPC   H3R 3854   0.931   5.284   7.155 -0.5447 -0.6805  1.0046
   29SAPC   H3S 3855   1.095   5.195   7.181  0.6326  0.6115  0.4020
   29SAPC   C24 3856   0.918   5.118   7.294 -0.5960 -0.0680  0.5169
   29SAPC   H4R 3857   0.814   5.087   7.267 -0.4681  0.1475 -0.2323
   29SAPC   H4S 3858   0.901   5.192   7.375  1.0649 -2.0436  2.8292
   29SAPC   C25 3859   0.989   5.002   7.350 -0.5568 -0.1672 -0.3573
   29SAPC   H5R 3860   1.054   4.946   7.282 -2.0733  0.1785 -2.1695
   29SAPC   C26 3861   0.996   4.968   7.484 -0.2092 -0.4358 -0.2187
   29SAPC   H6R 3862   1.079   4.899   7.507 -0.3304 -0.8742 -1.0443
   29SAPC   C27 3863   0.927   5.031   7.608  0.3881 -0.2273  1.4275
   29SAPC   H7R 3864   0.891   4.946   7.669  0.7710 -0.2379  1.6407
   29SAPC   H7S 3865   0.836   5.084   7.575 -0.2293 -2.0514  0.0599
   29SAPC   C28 3866   1.014   5.129   7.673 -0.2492 -0.0147 -0.2580
   29SAPC   H8R 3867   1.052   5.204   7.603 -2.8951 -0.1435 -1.9861
   29SAPC   C29 3868   1.035   5.134   7.804 -0.0305 -0.2334  0.3712
   29SAPC   H9R 3869   1.094   5.218   7.842  2.0558 -0.0612 -2.8173
   29SAPC  C210 3870   0.988   5.034   7.902 -0.1175 -0.0447 -0.5242
   29SAPC  H10R 3871   1.070   4.959   7.906  0.8947  1.0806  1.8884
   29SAPC  H10S 3872   0.890   4.989   7.876 -0.9405  1.0920  0.4790
   29SAPC  C211 3873   0.980   5.086   8.047 -0.0495  0.3023  1.0020
   29SAPC  H11R 3874   0.956   5.193   8.057 -1.1912  0.1744 -0.1677
   29SAPC  C212 3875   0.982   5.011   8.159 -0.0946  0.5029 -0.5730
   29SAPC  H12R 3876   0.971   5.057   8.259  0.9389 -1.0698  0.3177
   29SAPC  C213 3877   0.991   4.861   8.162  0.5323 -0.2276  0.0448
   29SAPC  H13R 3878   1.093   4.818   8.155 -0.9794 -4.7955  1.7973
   29SAPC  H13S 3879   0.940   4.813   8.076 -1.8610  1.7446  0.2271
   29SAPC  C214 3880   0.921   4.816   8.290 -0.1014 -0.2515  0.4665
   29SAPC  H14R 3881   0.816   4.847   8.293  0.6311  2.4184  0.9224
   29SAPC  C215 3882   0.973   4.750   8.398  0.1694 -0.7686  0.1205
   29SAPC  H15R 3883   0.897   4.719   8.472  0.8155 -1.5172  0.4758
   29SAPC  C216 3884   1.115   4.712   8.423  1.0844  0.0264  0.1025
   29SAPC  H16R 3885   1.154   4.758   8.516  0.3157  1.7983 -0.4123
   29SAPC  H16S 3886   1.185   4.750   8.346  0.3122 -1.0881 -1.2000
   29SAPC  C217 3887   1.128   4.555   8.434  0.2454  0.2592  0.1812
   29SAPC  H17R 3888   1.229   4.514   8.414  1.0217  1.8176  0.7920
   29SAPC  H17S 3889   1.065   4.525   8.347  0.0215 -0.7861  0.6871
   29SAPC  C218 3890   1.081   4.495   8.570  0.7381 -0.1508 -0.3357
   29SAPC  H18R 3891   0.995   4.426   8.560  0.9970 -0.4956 -0.2336
   29SAPC  H18S 3892   1.052   4.588   8.624  1.1385  0.9224 -1.9187
   29SAPC  C219 3893   1.194   4.428   8.652  0.1754  0.2851  0.0051
   29SAPC  H19R 3894   1.251   4.505   8.708  0.6300  0.2338 -0.3756
   29SAPC  H19S 3895   1.255   4.385   8.570 -2.8045  2.3063 -3.5506
   29SAPC  C220 3896   1.145   4.330   8.750  0.4600 -0.5637 -0.0129
   29SAPC  H20R 3897   1.084   4.375   8.831  1.3912 -1.8665  1.4804
   29SAPC  H20S 3898   1.231   4.285   8.805  0.7149  0.0851  0.1279
   29SAPC  H20T 3899   1.095   4.245   8.699 -1.2036 -1.7166  3.2210
   29SAPC   C33 3900   0.839   5.526   7.286 -0.2981 -0.4861  0.5757
   29SAPC   H3X 3901   0.930   5.462   7.278 -1.1680 -1.5031 -2.9031
   29SAPC   H3Y 3902   0.748   5.470   7.258 -1.4023  1.5683 -0.1062
   29SAPC   C34 3903   0.809   5.574   7.426  0.2737 -0.8218 -0.8012
   29SAPC   H4X 3904   0.757   5.484   7.464  0.3581 -0.1820  0.9300
   29SAPC   H4Y 3905   0.732   5.654   7.429 -0.6154 -1.6767  1.3796
   29SAPC   C35 3906   0.927   5.625   7.516  0.2450  0.5044  1.0140
   29SAPC   H5X 3907   0.996   5.696   7.466 -0.8921  0.2589 -1.0309
   29SAPC   H5Y 3908   0.994   5.539   7.535 -0.5362 -0.2388  0.5153
   29SAPC   C36 3909   0.865   5.680   7.647 -0.1564  0.2970  0.5795
   29SAPC   H6X 3910   0.792   5.763   7.632 -1.1841 -0.9872 -2.4700
   29SAPC   H6Y 3911   0.947   5.726   7.705 -0.0738  0.6478  0.1879
   29SAPC   C37 3912   0.802   5.566   7.734 -1.2515  0.2518 -0.1086
   29SAPC   H7X 3913   0.844   5.465   7.714  1.7177  1.1867  0.8878
   29SAPC   H7Y 3914   0.695   5.569   7.702 -1.0934 -1.1474 -0.8175
   29SAPC   C38 3915   0.807   5.597   7.886 -0.7962  0.2353 -0.1466
   29SAPC   H8X 3916   0.754   5.509   7.928  1.8311 -0.7831  1.2170
   29SAPC   H8Y 3917   0.761   5.688   7.928  0.4244  0.3948  0.8835
   29SAPC   C39 3918   0.946   5.586   7.945 -0.4773  0.4035  0.3033
   29SAPC   H9X 3919   1.003   5.677   7.917 -3.6673  1.9428 -1.6453
   29SAPC   H9Y 3920   0.996   5.494   7.907 -3.5060 -1.1620 -0.2238
   29SAPC  C310 3921   0.958   5.571   8.096  0.1960  0.5545  0.0399
   29SAPC  H10X 3922   0.892   5.492   8.138 -0.9621 -0.0455 -2.6687
   29SAPC  H10Y 3923   0.927   5.669   8.139 -3.3657  0.2581 -1.4745
   29SAPC  C311 3924   1.094   5.531   8.153 -0.6314 -0.6894 -0.0519
   29SAPC  H11X 3925   1.171   5.584   8.093 -0.3700  1.6807  2.1584
   29SAPC  H11Y 3926   1.101   5.426   8.120  0.8520 -0.5447 -0.2698
   29SAPC  C312 3927   1.093   5.540   8.311  0.0286  0.5202  0.5068
   29SAPC  H12X 3928   1.187   5.492   8.347  1.0931  1.9941 -0.2305
   29SAPC  H12Y 3929   1.003   5.481   8.340 -0.5112  1.9981  2.0118
   29SAPC  C313 3930   1.073   5.673   8.379 -0.1892 -0.1886 -0.0427
   29SAPC  H13X 3931   0.968   5.709   8.376 -0.5250 -0.5085  3.7501
   29SAPC  H13Y 3932   1.126   5.758   8.332  0.5769 -0.8335 -0.3702
   29SAPC  C314 3933   1.108   5.658   8.523 -0.2133  1.0312 -0.8258
   29SAPC  H14X 3934   1.205   5.603   8.527 -1.2923 -0.9997 -1.3621
   29SAPC  H14Y 3935   1.035   5.602   8.585 -1.1390  0.9695 -1.9486
   29SAPC  C315 3936   1.114   5.801   8.584 -0.0062  0.7459  0.2654
   29SAPC  H15X 3937   1.013   5.845   8.566 -2.2968 -2.8780  2.7152
   29SAPC  H15Y 3938   1.195   5.865   8.544  0.9378  1.1072  2.6024
   29SAPC  C316 3939   1.118   5.814   8.739 -0.6836  1.2889 -0.0051
   29SAPC  H16X 3940   1.034   5.753   8.777 -0.2975  0.2440 -0.7872
   29SAPC  H16Y 3941   1.105   5.915   8.785 -2.9094  0.4003  1.5023
   29SAPC  C317 3942   1.241   5.746   8.802 -0.0537  0.1366 -0.3800
   29SAPC  H17X 3943   1.268   5.657   8.741  2.7490  1.7288 -1.7262
   29SAPC  H17Y 3944   1.224   5.694   8.898 -1.4612 -0.4393 -0.9264
   29SAPC  C318 3945   1.367   5.841   8.794 -0.2117  0.2093 -0.4276
   29SAPC  H18X 3946   1.342   5.944   8.827 -1.2658 -0.2714  0.3272
   29SAPC  H18Y 3947   1.405   5.849   8.690  1.9450  1.8434  0.4060
   29SAPC  H18Z 3948   1.448   5.800   8.859  0.0275 -0.9664 -1.4131
   30SAPC     N 3949   2.761   2.172   6.306 -0.3670 -0.1951  0.1579
   30SAPC   C12 3950   2.866   2.141   6.410 -0.0058  0.1260 -0.1575
   30SAPC  H12A 3951   2.912   2.050   6.374  1.3200  0.8426 -0.3350
   30SAPC  H12B 3952   2.819   2.119   6.505  1.0352 -0.5589  0.2059
   30SAPC   C13 3953   2.684   2.042   6.298  0.4155  0.0279  0.1131
   30SAPC  H13A 3954   2.679   2.002   6.399  1.5545 -1.3844 -0.3719
   30SAPC  H13B 3955   2.579   2.055   6.277  0.4836  1.2607  0.4408
   30SAPC  H13C 3956   2.721   1.967   6.231  0.3777  1.7760 -1.9927
   30SAPC   C14 3957   2.670   2.283   6.356  0.1582  0.3872  0.6516
   30SAPC  H14A 3958   2.619   2.252   6.446 -0.3802 -0.6769 -0.0055
   30SAPC  H14B 3959   2.725   2.373   6.383  0.3636  0.6609 -0.6286
   30SAPC  H14C 3960   2.589   2.319   6.294 -0.7126  1.9107  2.5497
   30SAPC   C15 3961   2.830   2.206   6.175 -0.4862 -0.1422  0.4552
   30SAPC  H15A 3962   2.896   2.125   6.147  0.1072 -0.2108  1.9841
   30SAPC  H15B 3963   2.764   2.232   6.094  0.6642  3.9522  0.6101
   30SAPC  H15C 3964   2.886   2.293   6.204 -0.7930 -0.7363  3.1553
   30SAPC   C11 3965   2.980   2.243   6.437 -0.0842 -0.5409 -0.4480
   30SAPC  H11A 3966   3.028   2.224   6.535 -0.4529  2.4628  0.4210
   30SAPC  H11B 3967   2.945   2.349   6.438  0.4512 -0.3493 -1.0045
   30SAPC     P 3968   3.165   2.111   6.316 -0.3353  0.4579  0.4037
   30SAPC   O13 3969   3.089   2.023   6.221  0.4193  0.1721  0.3574
   30SAPC   O14 3970   3.306   2.140   6.272  0.2014 -0.1070 -0.1230
   30SAPC   O12 3971   3.077   2.237   6.334 -0.4710  0.6081  0.1368
   30SAPC   O11 3972   3.175   2.049   6.462 -0.3212 -0.3063  0.1848
   30SAPC    C1 3973   3.269   2.107   6.551  0.4900 -0.5975 -0.4028
   30SAPC    HA 3974   3.286   2.216   6.533  0.9827 -0.5684  0.2218
   30SAPC    HB 3975   3.226   2.104   6.654  1.9567 -0.1582  0.2554
   30SAPC    C2 3976   3.398   2.023   6.558  0.6134  0.2263 -0.3696
   30SAPC    HS 3977   3.426   2.000   6.453 -0.7226 -1.0936 -0.4805
   30SAPC   O21 3978   3.375   1.909   6.636  0.3502 -0.0155 -0.0541
   30SAPC   C21 3979   3.358   1.807   6.567 -0.2654  1.4087 -0.6959
   30SAPC   O22 3980   3.346   1.797   6.447 -0.1535  0.1748 -0.2629
   30SAPC   C22 3981   3.346   1.686   6.666 -0.4892  0.5728  0.1244
   30SAPC   H2R 3982   3.389   1.724   6.761  0.5362  0.5017 -0.2984
   30SAPC   H2S 3983   3.238   1.670   6.684 -0.7441  1.8000 -0.1816
   30SAPC    C3 3984   3.517   2.100   6.625  0.6871 -0.5646 -0.3573
   30SAPC    HX 3985   3.557   2.173   6.552  0.5218  0.4477  0.5380
   30SAPC    HY 3986   3.589   2.022   6.659 -1.5133 -1.6903  2.0846
   30SAPC   O31 3987   3.464   2.164   6.741 -0.0906 -0.4715 -0.3958
   30SAPC   C31 3988   3.540   2.154   6.858  0.1744 -0.7432 -0.0733
   30SAPC   O32 3989   3.641   2.092   6.865  0.4172 -0.2791 -0.2504
   30SAPC   C32 3990   3.482   2.231   6.979 -0.8145  0.6819 -0.0751
   30SAPC   H2X 3991   3.371   2.223   6.980 -0.9750  0.3594 -4.1612
   30SAPC   H2Y 3992   3.525   2.334   6.974  1.4329 -0.2367 -0.6989
   30SAPC   C23 3993   3.424   1.565   6.613  0.0631 -0.1516  0.3050
   30SAPC   H3R 3994   3.468   1.587   6.513  2.5471 -1.3878  1.0478
   30SAPC   H3S 3995   3.351   1.482   6.604 -1.0409  0.7117  1.1660
   30SAPC   C24 3996   3.538   1.518   6.708 -0.2028  0.7259 -0.4787
   30SAPC   H4R 3997   3.582   1.421   6.677 -3.4076 -1.1529  0.3237
   30SAPC   H4S 3998   3.495   1.485   6.805  1.9619  1.5634  0.8350
   30SAPC   C25 3999   3.651   1.614   6.728 -0.4587  0.0970 -0.4205
   30SAPC   H5R 4000   3.699   1.643   6.634 -0.6004 -1.7237 -1.1078
   30SAPC   C26 4001   3.691   1.659   6.849 -0.7150  0.5210  0.5628
   30SAPC   H6R 4002   3.772   1.733   6.852  0.2986 -0.5636  0.7765
   30SAPC   C27 4003   3.637   1.626   6.986 -0.2321 -0.4486  0.6636
   30SAPC   H7R 4004   3.724   1.630   7.055 -0.1342  1.4368  0.5048
   30SAPC   H7S 4005   3.606   1.520   6.982  1.9543 -1.2055  2.0393
   30SAPC   C28 4006   3.531   1.717   7.028  0.4290 -0.5711 -0.2594
   30SAPC   H8R 4007   3.493   1.784   6.950  0.8004  0.1801  0.1912
   30SAPC   C29 4008   3.490   1.735   7.155 -0.0265  0.2978 -0.2618
   30SAPC   H9R 4009   3.415   1.808   7.186  0.9388  1.2951 -0.1969
   30SAPC  C210 4010   3.538   1.654   7.278  0.1275  0.1446  0.5962
   30SAPC  H10R 4011   3.560   1.548   7.253  1.1788  0.4660  0.1223
   30SAPC  H10S 4012   3.458   1.668   7.354 -1.2857  0.2633 -0.8840
   30SAPC  C211 4013   3.669   1.717   7.329 -0.0766  0.2161  0.1530
   30SAPC  H11R 4014   3.757   1.721   7.263 -0.0084 -0.5146  0.1912
   30SAPC  C212 4015   3.675   1.783   7.445 -0.6523  0.4210  0.1148
   30SAPC  H12R 4016   3.775   1.823   7.468 -0.3570 -0.6255  0.7384
   30SAPC  C213 4017   3.567   1.816   7.547 -0.0666 -0.0097  0.7459
   30SAPC  H13R 4018   3.465   1.811   7.502 -0.9231  0.4623  2.5509
   30SAPC  H13S 4019   3.561   1.918   7.588 -1.8632 -0.0186  0.5815
   30SAPC  C214 4020   3.572   1.714   7.658 -0.7664 -0.0408 -0.2773
   30SAPC  H14R 4021   3.564   1.609   7.624  0.5288 -0.2364 -0.0603
   30SAPC  C215 4022   3.610   1.735   7.784 -0.2277  0.1983 -0.1495
   30SAPC  H15R 4023   3.619   1.644   7.846  0.5966  0.1983 -0.2599
   30SAPC  C216 4024   3.649   1.870   7.841  0.0691  0.3157 -0.4571
   30SAPC  H16R 4025   3.641   1.949   7.763 -0.4428  1.1685  0.4446
   30SAPC  H16S 4026   3.756   1.861   7.870  0.1662 -0.1126 -0.9325
   30SAPC  C217 4027   3.570   1.910   7.965 -0.4604 -0.7720 -0.6396
   30SAPC  H17R 4028   3.465   1.937   7.943  0.2234  1.4394 -1.4740
   30SAPC  H17S 4029   3.613   2.006   8.000 -1.0768 -0.9379  0.6233
   30SAPC  C218 4030   3.599   1.823   8.080 -0.1454  0.7547 -0.7132
   30SAPC  H18R 4031   3.703   1.786   8.070  0.3623  0.3538  3.8051
   30SAPC  H18S 4032   3.535   1.733   8.064 -0.3406  0.1867  2.5619
   30SAPC  C219 4033   3.566   1.866   8.221 -0.0550  0.2263  0.1716
   30SAPC  H19R 4034   3.570   1.772   8.281  0.1049  0.4069  0.4469
   30SAPC  H19S 4035   3.463   1.906   8.219 -1.0237 -2.0927  0.4261
   30SAPC  C220 4036   3.664   1.962   8.283  0.1560  0.0433  0.0931
   30SAPC  H20R 4037   3.768   1.937   8.253 -0.3905 -0.3584 -1.5402
   30SAPC  H20S 4038   3.651   1.954   8.393  0.0863  0.5594  0.1265
   30SAPC  H20T 4039   3.640   2.066   8.252 -0.6529  0.1390  0.9928
   30SAPC   C33 4040   3.532   2.168   7.115 -0.5467  0.4403 -0.0792
   30SAPC   H3X 4041   3.642   2.153   7.110 -0.2532  2.5748 -1.8037
   30SAPC   H3Y 4042   3.477   2.072   7.128 -1.4340  0.8451 -0.7350
   30SAPC   C34 4043   3.497   2.245   7.244  0.4922  0.7071 -0.3726
   30SAPC   H4X 4044   3.401   2.296   7.223  1.9171  3.1032 -1.4532
   30SAPC   H4Y 4045   3.566   2.330   7.261  0.1127  0.6407  1.6531
   30SAPC   C35 4046   3.488   2.153   7.366  0.5823  0.2853  0.1666
   30SAPC   H5X 4047   3.590   2.115   7.389 -0.0196 -1.6928 -0.2173
   30SAPC   H5Y 4048   3.426   2.061   7.365  1.7832 -0.5610  0.9294
   30SAPC   C36 4049   3.450   2.234   7.486 -0.1969 -0.8819 -0.5672
   30SAPC   H6X 4050   3.344   2.268   7.479  0.2902  0.8038 -0.1663
   30SAPC   H6Y 4051   3.512   2.326   7.478  0.5350 -1.1787  1.3662
   30SAPC   C37 4052   3.470   2.178   7.621 -1.0316  0.2746 -0.2455
   30SAPC   H7X 4053   3.578   2.157   7.639 -0.6846  3.1580  1.6962
   30SAPC   H7Y 4054   3.417   2.080   7.621 -1.3983  0.4082  2.2559
   30SAPC   C38 4055   3.414   2.280   7.725 -0.4395  0.4880  0.6141
   30SAPC   H8X 4056   3.310   2.291   7.687  0.9072  0.3927 -3.5809
   30SAPC   H8Y 4057   3.462   2.380   7.720  2.2112 -0.7331 -0.3329
   30SAPC   C39 4058   3.411   2.234   7.863 -0.5709 -0.1862  0.5873
   30SAPC   H9X 4059   3.510   2.211   7.907  0.0015  1.6570  0.3521
   30SAPC   H9Y 4060   3.346   2.144   7.863 -0.4496 -0.2781  1.2648
   30SAPC  C310 4061   3.335   2.345   7.950  0.4452 -0.0642  0.1445
   30SAPC  H10X 4062   3.231   2.364   7.914  0.3870  1.0456  0.8471
   30SAPC  H10Y 4063   3.392   2.440   7.947 -0.1186  0.5522  3.6407
   30SAPC  C311 4064   3.309   2.303   8.095  0.0024  0.1272 -0.0181
   30SAPC  H11X 4065   3.320   2.388   8.165  1.4158 -1.1165  1.3641
   30SAPC  H11Y 4066   3.382   2.234   8.142 -0.9225  0.5861  2.2203
   30SAPC  C312 4067   3.166   2.251   8.123 -0.6199  0.6198 -0.2522
   30SAPC  H12X 4068   3.132   2.181   8.043 -1.5203 -0.8220  1.3098
   30SAPC  H12Y 4069   3.092   2.333   8.129 -0.7071  0.5002  0.5000
   30SAPC  C313 4070   3.143   2.195   8.264 -0.0301 -0.2512 -0.3914
   30SAPC  H13X 4071   3.227   2.130   8.296  1.3791  1.3760 -0.6450
   30SAPC  H13Y 4072   3.048   2.138   8.268  0.5782 -1.2829 -0.2979
   30SAPC  C314 4073   3.115   2.309   8.368  0.2452  0.3804  0.3018
   30SAPC  H14X 4074   3.021   2.355   8.331  0.7130  0.1562 -1.2438
   30SAPC  H14Y 4075   3.190   2.391   8.362 -0.0437  0.5646 -1.7537
   30SAPC  C315 4076   3.107   2.248   8.509 -0.2224  0.6118 -0.8234
   30SAPC  H15X 4077   3.204   2.200   8.533  0.3666  1.8128 -0.7141
   30SAPC  H15Y 4078   3.021   2.179   8.525 -2.1532  2.3580 -2.9155
   30SAPC  C316 4079   3.082   2.361   8.615  0.5378  0.1000 -0.6384
   30SAPC  H16X 4080   3.153   2.444   8.593  0.3532  0.0142 -1.5649
   30SAPC  H16Y 4081   3.096   2.324   8.719  1.1113  0.1037 -0.7112
   30SAPC  C317 4082   2.943   2.414   8.617  0.2038 -0.0640 -0.0551
   30SAPC  H17X 4083   2.876   2.330   8.642  0.8450 -1.3478 -2.3668
   30SAPC  H17Y 4084   2.911   2.453   8.518  0.8318  2.2699  0.6056
   30SAPC  C318 4085   2.928   2.521   8.722  0.0354  0.2260 -0.1825
   30SAPC  H18X 4086   3.014   2.591   8.725 -0.6911  1.1107  1.7196
   30SAPC  H18Y 4087   2.927   2.483   8.827 -0.1598  0.8918  0.0624
   30SAPC  H18Z 4088   2.840   2.589   8.714 -0.1675 -0.0795 -0.5928
   31SAPC     N 4089   4.431   0.399   6.643  0.4154  0.0442 -0.0080
   31SAPC   C12 4090   4.427   0.548   6.607 -0.0350  0.2967 -0.4282
   31SAPC  H12A 4091   4.438   0.558   6.500 -3.8124 -2.9507 -1.4012
   31SAPC  H12B 4092   4.521   0.585   6.646 -0.1540 -0.3463  0.5222
   31SAPC   C13 4093   4.563   0.337   6.611 -0.1589  0.1716 -0.8177
   31SAPC  H13A 4094   4.567   0.231   6.631  1.3661  0.5800  1.3762
   31SAPC  H13B 4095   4.580   0.348   6.505 -2.0230 -1.6984 -1.3738
   31SAPC  H13C 4096   4.649   0.377   6.663  1.0889 -2.4817 -0.6366
   31SAPC   C14 4097   4.401   0.396   6.792  0.2479  0.3564 -0.1225
   31SAPC  H14A 4098   4.334   0.476   6.816 -0.5128  0.3105 -1.9193
   31SAPC  H14B 4099   4.367   0.296   6.815  3.2164 -1.0578 -1.2336
   31SAPC  H14C 4100   4.492   0.415   6.847  0.3745  1.6145 -0.7374
   31SAPC   C15 4101   4.320   0.337   6.576 -0.0030  0.6132 -0.0232
   31SAPC  H15A 4102   4.330   0.231   6.593 -1.3384  0.2075 -1.5324
   31SAPC  H15B 4103   4.224   0.374   6.607 -0.1905 -0.6488  0.9687
   31SAPC  H15C 4104   4.334   0.348   6.469  1.7017 -1.5031 -0.0799
   31SAPC   C11 4105   4.308   0.644   6.647 -0.3735  0.5615  0.5868
   31SAPC  H11A 4106   4.294   0.646   6.757  0.7269  1.9414  0.7303
   31SAPC  H11B 4107   4.220   0.592   6.604  2.0270 -2.6915 -0.8261
   31SAPC     P 4108   4.449   0.862   6.659  0.2145  0.0306  0.3783
   31SAPC   O13 4109   4.570   0.809   6.597 -0.1924  0.6476  0.0771
   31SAPC   O14 4110   4.435   1.003   6.644  0.4035  0.0436  0.4319
   31SAPC   O12 4111   4.326   0.777   6.601  0.9911 -0.2949  0.6818
   31SAPC   O11 4112   4.447   0.830   6.812 -0.3673  0.4559  0.3284
   31SAPC    C1 4113   4.571   0.786   6.873  0.7704 -0.1875 -0.1876
   31SAPC    HA 4114   4.584   0.678   6.852 -2.3364 -0.2782 -2.2796
   31SAPC    HB 4115   4.660   0.841   6.837  1.0964 -1.4038 -1.3184
   31SAPC    C2 4116   4.569   0.821   7.029  0.6110 -0.2573  0.3795
   31SAPC    HS 4117   4.675   0.812   7.060  0.6247  1.6439  0.9830
   31SAPC   O21 4118   4.483   0.733   7.105  0.4032  0.2839 -0.1697
   31SAPC   C21 4119   4.538   0.642   7.179  0.5943  0.1092  0.5253
   31SAPC   O22 4120   4.656   0.612   7.169 -0.2179  1.1723 -0.2744
   31SAPC   C22 4121   4.440   0.606   7.291 -0.7542 -0.1020  0.4464
   31SAPC   H2R 4122   4.381   0.696   7.321 -0.7810  0.6322 -1.6827
   31SAPC   H2S 4123   4.360   0.539   7.253  1.0423 -0.3881 -3.2782
   31SAPC    C3 4124   4.531   0.966   7.040  0.6925  0.5326  0.0815
   31SAPC    HX 4125   4.425   0.985   7.011  0.9786  0.7958 -0.8240
   31SAPC    HY 4126   4.591   1.032   6.974 -0.6248  0.1936 -1.5323
   31SAPC   O31 4127   4.551   0.993   7.177 -0.3680  0.7235  0.5176
   31SAPC   C31 4128   4.447   1.021   7.256 -0.5517 -0.2747  0.7847
   31SAPC   O32 4129   4.339   1.058   7.212 -0.1210 -0.0159 -0.5127
   31SAPC   C32 4130   4.486   1.014   7.402  0.9599  0.2428 -0.0707
   31SAPC   H2X 4131   4.540   1.108   7.425 -2.7330  2.7309 -0.5880
   31SAPC   H2Y 4132   4.537   0.917   7.419  2.2778  1.0324  0.6273
   31SAPC   C23 4133   4.511   0.542   7.415 -0.2552 -0.7043  0.1444
   31SAPC   H3R 4134   4.602   0.485   7.387  1.0366  1.0374  0.6468
   31SAPC   H3S 4135   4.440   0.471   7.462  0.9195  0.3910  3.9657
   31SAPC   C24 4136   4.539   0.654   7.522  0.3033 -0.2757 -0.6974
   31SAPC   H4R 4137   4.443   0.701   7.552  1.2423  3.5839 -2.9927
   31SAPC   H4S 4138   4.597   0.736   7.474  0.2808  0.7415  0.9386
   31SAPC   C25 4139   4.619   0.611   7.644  0.5319 -0.7099 -0.4688
   31SAPC   H5R 4140   4.728   0.613   7.637  0.6453  0.4918  1.1328
   31SAPC   C26 4141   4.563   0.552   7.752 -0.5943 -0.3781  0.2306
   31SAPC   H6R 4142   4.625   0.507   7.830  0.4018  0.4346 -0.0799
   31SAPC   C27 4143   4.415   0.534   7.779 -0.3667  0.1799 -0.1105
   31SAPC   H7R 4144   4.407   0.424   7.794  1.0475 -0.3537 -2.6751
   31SAPC   H7S 4145   4.357   0.542   7.684  1.3307  0.5738 -1.1483
   31SAPC   C28 4146   4.352   0.617   7.882  0.2611 -0.4613 -0.5819
   31SAPC   H8R 4147   4.276   0.678   7.832 -0.5657 -2.1129 -1.4161
   31SAPC   C29 4148   4.372   0.620   8.019 -0.8766  0.0776  1.2466
   31SAPC   H9R 4149   4.310   0.689   8.080 -0.3201  1.1320  0.6480
   31SAPC  C210 4150   4.473   0.533   8.092  0.0692  0.1307 -0.1624
   31SAPC  H10R 4151   4.521   0.455   8.030 -0.4131 -1.8132  1.7644
   31SAPC  H10S 4152   4.434   0.469   8.174  1.0368  0.0999  0.2813
   31SAPC  C211 4153   4.571   0.631   8.157  0.7951 -0.2684 -0.6156
   31SAPC  H11R 4154   4.629   0.692   8.086  0.0768  0.4594 -0.6019
   31SAPC  C212 4155   4.603   0.633   8.287 -0.0300  0.0731 -0.1497
   31SAPC  H12R 4156   4.681   0.705   8.316 -0.6524  0.6773  0.0567
   31SAPC  C213 4157   4.550   0.544   8.400  0.3642 -0.2715 -0.0067
   31SAPC  H13R 4158   4.612   0.559   8.491  0.0010  1.7903 -0.0689
   31SAPC  H13S 4159   4.572   0.445   8.354  0.4289  0.0799 -0.7353
   31SAPC  C214 4160   4.400   0.563   8.426  0.0129  0.3876 -0.1049
   31SAPC  H14R 4161   4.335   0.587   8.340  0.3242  0.0160 -0.4506
   31SAPC  C215 4162   4.345   0.551   8.548 -0.1978 -0.0782 -0.4653
   31SAPC  H15R 4163   4.237   0.572   8.554  0.3339  2.9617  0.0575
   31SAPC  C216 4164   4.423   0.512   8.669  0.8829 -0.2306 -0.4514
   31SAPC  H16R 4165   4.478   0.597   8.716  1.1499 -1.3202  1.2926
   31SAPC  H16S 4166   4.485   0.422   8.650  0.5898 -0.5753  0.1948
   31SAPC  C217 4167   4.311   0.470   8.781 -0.1237  0.3756  0.2532
   31SAPC  H17R 4168   4.358   0.421   8.870  1.0992  0.0887 -0.5303
   31SAPC  H17S 4169   4.248   0.396   8.727  1.0107 -0.6590  0.2998
   31SAPC  C218 4170   4.225   0.580   8.843  0.3924 -0.2571 -0.4398
   31SAPC  H18R 4171   4.164   0.618   8.758 -2.6175 -0.5250  1.4616
   31SAPC  H18S 4172   4.289   0.658   8.889 -1.3788  0.9190  0.1113
   31SAPC  C219 4173   4.127   0.530   8.957  0.6687  0.2720 -0.4509
   31SAPC  H19R 4174   4.066   0.614   8.997 -0.0811 -0.9742  1.1956
   31SAPC  H19S 4175   4.191   0.507   9.045  0.8091 -0.6790 -0.7851
   31SAPC  C220 4176   4.042   0.409   8.925  0.1569  0.0901  0.4716
   31SAPC  H20R 4177   4.101   0.323   8.886  0.8340  1.2515 -1.1704
   31SAPC  H20S 4178   3.960   0.435   8.854 -0.2709 -0.1118  0.8901
   31SAPC  H20T 4179   4.002   0.366   9.019  3.7146  0.9319  2.5408
   31SAPC   C33 4180   4.358   1.017   7.495  0.0335  0.0609 -0.3552
   31SAPC   H3X 4181   4.291   0.931   7.475 -0.3772  0.7327 -2.0070
   31SAPC   H3Y 4182   4.307   1.115   7.480  0.7299  0.3767 -0.7132
   31SAPC   C34 4183   4.416   1.020   7.636  0.0491 -0.0873  0.2986
   31SAPC   H4X 4184   4.493   1.100   7.634  2.2063 -1.9697 -3.4928
   31SAPC   H4Y 4185   4.466   0.924   7.661  0.5960  0.2426  0.4826
   31SAPC   C35 4186   4.306   1.025   7.741 -0.6346  0.2492 -0.0494
   31SAPC   H5X 4187   4.235   0.948   7.704  0.4814 -0.8078 -0.0582
   31SAPC   H5Y 4188   4.253   1.122   7.752  0.3468  0.5985  2.0281
   31SAPC   C36 4189   4.362   0.993   7.876 -0.1151  0.4841 -0.7894
   31SAPC   H6X 4190   4.424   1.077   7.912 -1.2262  1.9557 -2.1612
   31SAPC   H6Y 4191   4.422   0.900   7.888 -1.2239  0.0326  2.4514
   31SAPC   C37 4192   4.247   0.983   7.980 -0.1829  0.2329  0.1451
   31SAPC   H7X 4193   4.183   0.898   7.946 -1.6054  1.3390 -0.0513
   31SAPC   H7Y 4194   4.177   1.069   7.978 -0.4855 -0.0047  0.4471
   31SAPC   C38 4195   4.295   0.978   8.120 -0.1777 -0.3658  0.5306
   31SAPC   H8X 4196   4.357   1.069   8.131 -0.3241 -0.0578 -0.9520
   31SAPC   H8Y 4197   4.366   0.893   8.126 -0.1603 -0.3144  1.0550
   31SAPC   C39 4198   4.195   0.975   8.234  0.8389 -0.0795  0.3446
   31SAPC   H9X 4199   4.121   0.894   8.215  0.2202  0.6347 -0.3540
   31SAPC   H9Y 4200   4.134   1.069   8.238  0.9517  0.1833 -2.2767
   31SAPC  C310 4201   4.264   0.960   8.374  0.0302  0.0766 -0.3714
   31SAPC  H10X 4202   4.370   0.994   8.373  0.0450  0.0539  0.2688
   31SAPC  H10Y 4203   4.276   0.853   8.398 -0.1036  0.3105  0.7961
   31SAPC  C311 4204   4.185   1.021   8.494 -0.4096  0.8823  0.6445
   31SAPC  H11X 4205   4.105   0.950   8.524  0.6504 -0.7662 -0.2390
   31SAPC  H11Y 4206   4.129   1.112   8.463  1.7698  2.2366  0.4798
   31SAPC  C312 4207   4.273   1.042   8.619  0.0158 -0.3629 -0.1386
   31SAPC  H12X 4208   4.201   1.067   8.701 -0.7575 -3.5044  0.2623
   31SAPC  H12Y 4209   4.338   1.131   8.612 -1.1069  0.5947  0.9539
   31SAPC  C313 4210   4.356   0.917   8.667  0.3493 -0.3206 -0.3100
   31SAPC  H13X 4211   4.432   0.888   8.591 -0.0654 -0.9231 -0.5040
   31SAPC  H13Y 4212   4.288   0.832   8.692 -0.4573  0.5093  0.3677
   31SAPC  C314 4213   4.418   0.964   8.794 -1.0154 -0.1360 -0.1407
   31SAPC  H14X 4214   4.338   0.999   8.863 -0.5823  3.1478 -1.1264
   31SAPC  H14Y 4215   4.490   1.046   8.773 -1.1136 -0.1888 -0.6773
   31SAPC  C315 4216   4.514   0.867   8.859 -0.6065  0.4984 -0.9772
   31SAPC  H15X 4217   4.581   0.825   8.781  0.6330  0.1823  0.2259
   31SAPC  H15Y 4218   4.455   0.789   8.912 -2.3507  1.9285 -0.7126
   31SAPC  C316 4219   4.613   0.932   8.946 -0.2784 -0.1896  0.3759
   31SAPC  H16X 4220   4.556   0.973   9.033  0.8807  2.0871  0.1205
   31SAPC  H16Y 4221   4.662   1.022   8.903 -0.4367  1.8850  4.0928
   31SAPC  C317 4222   4.727   0.837   8.997 -0.6510 -0.6543  0.1542
   31SAPC  H17X 4223   4.791   0.825   8.907 -1.9461  2.7772 -1.4032
   31SAPC  H17Y 4224   4.677   0.746   9.038 -3.2979  1.3651  1.7475
   31SAPC  C318 4225   4.814   0.891   9.109  0.3391 -0.1314 -0.1364
   31SAPC  H18X 4226   4.754   0.897   9.202  0.9359 -1.7951  0.3987
   31SAPC  H18Y 4227   4.850   0.996   9.095 -2.8649  1.1838  0.6109
   31SAPC  H18Z 4228   4.896   0.818   9.123  2.5460  2.2987  0.5797
   32SAPC     N 4229   0.615   1.618   6.630  0.0345  0.4392  0.2456
   32SAPC   C12 4230   0.595   1.760   6.672  0.4495  0.5321  0.5016
   32SAPC  H12A 4231   0.640   1.784   6.767 -1.1226 -0.0969  1.4473
   32SAPC  H12B 4232   0.489   1.777   6.686  0.6306  2.3347 -0.0072
   32SAPC   C13 4233   0.765   1.600   6.613 -0.4869  0.1055 -0.4497
   32SAPC  H13A 4234   0.803   1.670   6.540  0.4271 -0.4005 -0.4795
   32SAPC  H13B 4235   0.827   1.622   6.698  0.3197  0.7021 -1.1695
   32SAPC  H13C 4236   0.775   1.501   6.569 -0.7166 -0.5607  0.9445
   32SAPC   C14 4237   0.562   1.512   6.721  0.2037  0.2484  0.4012
   32SAPC  H14A 4238   0.583   1.546   6.821 -0.1003  0.8079  0.2825
   32SAPC  H14B 4239   0.456   1.492   6.711  0.5288 -0.2876 -3.4392
   32SAPC  H14C 4240   0.615   1.420   6.706 -0.9645 -0.3473 -0.2234
   32SAPC   C15 4241   0.551   1.601   6.495  0.0923 -0.0643  0.0014
   32SAPC  H15A 4242   0.578   1.674   6.420 -2.2750 -0.6009 -1.4775
   32SAPC  H15B 4243   0.573   1.505   6.450 -2.2466 -0.7470  0.2223
   32SAPC  H15C 4244   0.444   1.600   6.505 -0.0268 -1.9347 -1.0482
   32SAPC   C11 4245   0.642   1.882   6.572  0.1973 -0.8131 -0.4233
   32SAPC  H11A 4246   0.752   1.870   6.559  0.7516  0.8115  2.0243
   32SAPC  H11B 4247   0.625   1.972   6.635  0.6786 -0.4112 -0.8549
   32SAPC     P 4248   0.428   1.953   6.436 -0.3829  0.3197 -0.0883
   32SAPC   O13 4249   0.441   2.091   6.487  0.1309  0.0585  0.2446
   32SAPC   O14 4250   0.365   1.934   6.305  0.2330  0.0102  0.1807
   32SAPC   O12 4251   0.577   1.893   6.444  0.0616  0.1045  0.4211
   32SAPC   O11 4252   0.362   1.861   6.539  0.0243  0.8151  0.0069
   32SAPC    C1 4253   0.218   1.846   6.551  0.0844  0.4695  0.3538
   32SAPC    HA 4254   0.171   1.921   6.483  1.4903 -1.4590 -3.0314
   32SAPC    HB 4255   0.185   1.742   6.530  2.1023 -0.5520  1.9026
   32SAPC    C2 4256   0.177   1.858   6.696 -0.1222 -0.2540  0.2344
   32SAPC    HS 4257   0.068   1.839   6.711  0.1500 -0.7179  1.8329
   32SAPC   O21 4258   0.214   1.986   6.750 -0.6953  0.2681 -0.4330
   32SAPC   C21 4259   0.174   2.092   6.705  0.0611 -0.1384  0.4988
   32SAPC   O22 4260   0.119   2.114   6.594  0.3006 -0.2387 -0.2720
   32SAPC   C22 4261   0.204   2.204   6.802 -0.0886 -0.6989  0.7265
   32SAPC   H2R 4262   0.292   2.177   6.864  1.3469 -2.9873 -2.0162
   32SAPC   H2S 4263   0.238   2.294   6.747  1.5546 -2.1715 -0.7874
   32SAPC    C3 4264   0.243   1.749   6.789 -0.2578  0.6049 -1.3013
   32SAPC    HX 4265   0.353   1.761   6.780 -0.0807  2.1163  1.7470
   32SAPC    HY 4266   0.213   1.645   6.762  0.0958 -0.0356  0.6519
   32SAPC   O31 4267   0.213   1.765   6.932 -0.3376  0.9561  0.4509
   32SAPC   C31 4268   0.319   1.791   7.009  0.0951  0.4253 -0.8665
   32SAPC   O32 4269   0.437   1.786   6.978 -0.1392  0.0620  0.2823
   32SAPC   C32 4270   0.277   1.803   7.154  0.0554  0.2512 -0.3650
   32SAPC   H2X 4271   0.218   1.713   7.179 -0.4251  0.7599  0.3663
   32SAPC   H2Y 4272   0.218   1.897   7.164  0.6432  0.6058 -0.1523
   32SAPC   C23 4273   0.082   2.254   6.889 -0.3088  0.0630  0.3238
   32SAPC   H3R 4274  -0.006   2.280   6.826  0.3147  1.8570  0.1404
   32SAPC   H3S 4275   0.107   2.349   6.941  0.1261  0.6447 -0.9153
   32SAPC   C24 4276   0.049   2.151   7.003  0.2313  0.4077 -0.4462
   32SAPC   H4R 4277   0.072   2.048   6.965 -0.0855 -0.4174  1.4836
   32SAPC   H4S 4278  -0.060   2.161   7.018 -0.8719 -3.2872 -3.9816
   32SAPC   C25 4279   0.131   2.172   7.124 -0.8354 -0.2088 -0.2604
   32SAPC   H5R 4280   0.240   2.182   7.114 -0.5790  0.3618  2.4467
   32SAPC   C26 4281   0.078   2.203   7.246 -0.5002 -0.0883 -0.2301
   32SAPC   H6R 4282   0.149   2.202   7.330 -1.0237  0.2456  0.2247
   32SAPC   C27 4283  -0.069   2.209   7.290 -0.2092  0.3294 -0.3058
   32SAPC   H7R 4284  -0.086   2.112   7.342 -0.8388  0.6961  0.1971
   32SAPC   H7S 4285  -0.135   2.201   7.201 -2.5044  1.0667  1.2389
   32SAPC   C28 4286  -0.097   2.322   7.385 -0.1009  0.0520  0.5975
   32SAPC   H8R 4287  -0.053   2.412   7.341  1.1026 -1.1664 -0.8103
   32SAPC   C29 4288  -0.159   2.327   7.509  0.5333  0.4071  0.0493
   32SAPC   H9R 4289  -0.181   2.423   7.559 -1.3205 -0.0323  0.1292
   32SAPC  C210 4290  -0.226   2.211   7.578 -1.0067 -0.3431 -0.0436
   32SAPC  H10R 4291  -0.257   2.133   7.505  0.0547 -0.6594 -0.1683
   32SAPC  H10S 4292  -0.321   2.239   7.628 -1.4489 -0.3343 -0.8639
   32SAPC  C211 4293  -0.128   2.144   7.677  0.6252  0.1028  0.0473
   32SAPC  H11R 4294  -0.033   2.108   7.634  0.8703 -0.5944  1.1188
   32SAPC  C212 4295  -0.148   2.104   7.805 -0.0219 -0.2699 -0.2303
   32SAPC  H12R 4296  -0.064   2.053   7.855  0.4875  1.1703  0.4245
   32SAPC  C213 4297  -0.268   2.133   7.886 -0.6977  0.0426  0.3111
   32SAPC  H13R 4298  -0.352   2.159   7.819  0.8497  0.0809 -1.6975
   32SAPC  H13S 4299  -0.250   2.220   7.953 -0.3150 -0.6388  1.1174
   32SAPC  C214 4300  -0.313   2.008   7.951  0.2608 -0.2187 -0.0257
   32SAPC  H14R 4301  -0.363   1.940   7.879  0.1585  0.7897 -0.9409
   32SAPC  C215 4302  -0.287   1.959   8.076  0.0439  0.6074  0.6709
   32SAPC  H15R 4303  -0.324   1.859   8.104  1.7135  0.0531  1.0641
   32SAPC  C216 4304  -0.209   2.034   8.179  0.1049 -0.3832  0.9752
   32SAPC  H16R 4305  -0.263   2.123   8.217 -1.4466 -1.2194  0.8032
   32SAPC  H16S 4306  -0.125   2.080   8.122 -1.7582 -1.6139 -3.1778
   32SAPC  C217 4307  -0.168   1.947   8.298 -0.7361 -0.3705 -0.0113
   32SAPC  H17R 4308  -0.076   1.982   8.350 -2.2604  0.1524  2.4818
   32SAPC  H17S 4309  -0.131   1.848   8.263  1.6459 -0.5907  2.7369
   32SAPC  C218 4310  -0.269   1.928   8.411  0.0509 -0.1886 -0.3009
   32SAPC  H18R 4311  -0.353   1.864   8.378 -1.7772  1.6585  0.5482
   32SAPC  H18S 4312  -0.306   2.032   8.427 -0.8005 -0.7578  1.6073
   32SAPC  C219 4313  -0.206   1.884   8.552 -0.2462 -0.4425 -0.0806
   32SAPC  H19R 4314  -0.124   1.952   8.582 -0.0903 -0.0298 -1.4086
   32SAPC  H19S 4315  -0.161   1.783   8.548  0.1765 -0.2109 -1.8381
   32SAPC  C220 4316  -0.305   1.895   8.671 -0.4055 -0.0982 -0.3849
   32SAPC  H20R 4317  -0.259   1.857   8.765 -1.3710 -1.1639 -0.3290
   32SAPC  H20S 4318  -0.397   1.834   8.664 -0.8514  0.3706  0.9484
   32SAPC  H20T 4319  -0.331   2.002   8.686  3.2200  0.4816  4.3327
   32SAPC   C33 4320   0.401   1.814   7.250  0.3640 -0.2700  0.2686
   32SAPC   H3X 4321   0.438   1.919   7.246 -2.6177  0.8955  0.2724
   32SAPC   H3Y 4322   0.473   1.738   7.214 -1.2833 -1.3425 -0.8677
   32SAPC   C34 4323   0.361   1.799   7.398  0.2482  0.0254  0.2123
   32SAPC   H4X 4324   0.284   1.872   7.428  0.5047 -0.0217  1.0084
   32SAPC   H4Y 4325   0.452   1.827   7.455  1.3648 -1.0794 -0.9515
   32SAPC   C35 4326   0.333   1.655   7.444  0.7962  0.0456 -0.4132
   32SAPC   H5X 4327   0.428   1.599   7.441  0.8576  0.1995 -1.6751
   32SAPC   H5Y 4328   0.255   1.613   7.377  0.2041  2.3701 -1.2837
   32SAPC   C36 4329   0.284   1.655   7.587  0.0305 -0.2900 -0.0107
   32SAPC   H6X 4330   0.222   1.741   7.621 -0.9340 -0.7646 -0.5394
   32SAPC   H6Y 4331   0.370   1.647   7.657  0.0403 -2.2746 -0.2019
   32SAPC   C37 4332   0.198   1.533   7.621  0.3281  0.2373  0.3743
   32SAPC   H7X 4333   0.251   1.437   7.601  0.8332  0.2197  1.6551
   32SAPC   H7Y 4334   0.117   1.548   7.547 -1.3608 -0.6056  1.9686
   32SAPC   C38 4335   0.140   1.530   7.763 -0.0840  0.0225  0.4347
   32SAPC   H8X 4336   0.056   1.459   7.780 -1.5783  1.4632 -0.7247
   32SAPC   H8Y 4337   0.110   1.631   7.799 -1.2260  0.2313 -1.0393
   32SAPC   C39 4338   0.235   1.470   7.865 -0.2514  0.0601  0.1890
   32SAPC   H9X 4339   0.315   1.543   7.886 -0.4364 -0.1464  1.7792
   32SAPC   H9Y 4340   0.282   1.376   7.829 -0.8958  0.1313 -0.8671
   32SAPC  C310 4341   0.160   1.439   7.997 -0.4160  0.2190 -0.5853
   32SAPC  H10X 4342   0.213   1.359   8.053  4.1249  1.7576 -2.2225
   32SAPC  H10Y 4343   0.061   1.394   7.974  0.2261 -0.7791 -1.4763
   32SAPC  C311 4344   0.138   1.563   8.087  0.1795 -0.5841 -0.2130
   32SAPC  H11X 4345   0.068   1.634   8.038 -2.2054 -1.7618  1.3064
   32SAPC  H11Y 4346   0.232   1.620   8.101 -0.5986  0.2867  1.8374
   32SAPC  C312 4347   0.100   1.524   8.230 -0.8164 -0.7210  0.1528
   32SAPC  H12X 4348   0.168   1.447   8.272  0.6986  0.3835 -0.1837
   32SAPC  H12Y 4349  -0.005   1.488   8.227 -1.2659  0.5442  0.1502
   32SAPC  C313 4350   0.114   1.642   8.330 -0.3703  0.3600  0.0603
   32SAPC  H13X 4351   0.062   1.733   8.291  1.7322  0.3031 -3.1998
   32SAPC  H13Y 4352   0.222   1.664   8.329 -0.3219  0.1786  0.6068
   32SAPC  C314 4353   0.058   1.615   8.471  0.7404  0.4116 -0.5301
   32SAPC  H14X 4354   0.094   1.513   8.496  1.1351  1.0436  1.7030
   32SAPC  H14Y 4355  -0.054   1.612   8.470  0.7339  0.6362 -1.3531
   32SAPC  C315 4356   0.127   1.699   8.581 -0.3819  0.4907  0.2668
   32SAPC  H15X 4357   0.071   1.699   8.677 -2.6242  2.0502 -0.9551
   32SAPC  H15Y 4358   0.125   1.805   8.549 -2.1609  0.4558  0.1630
   32SAPC  C316 4359   0.280   1.668   8.615 -0.0178  0.7154 -0.5185
   32SAPC  H16X 4360   0.318   1.748   8.682 -1.2965  1.5911 -0.8153
   32SAPC  H16Y 4361   0.329   1.660   8.515 -0.2687 -0.0377 -0.5904
   32SAPC  C317 4362   0.289   1.534   8.692  0.0527  0.5571  0.2029
   32SAPC  H17X 4363   0.231   1.457   8.638 -0.7905  2.7260 -2.1660
   32SAPC  H17Y 4364   0.248   1.543   8.795 -0.0437 -1.0988  0.3352
   32SAPC  C318 4365   0.435   1.493   8.706  0.2017  0.2396 -0.3109
   32SAPC  H18X 4366   0.482   1.549   8.790  0.5078  1.6497 -1.3987
   32SAPC  H18Y 4367   0.485   1.491   8.607 -0.2708 -2.0765 -0.5674
   32SAPC  H18Z 4368   0.436   1.383   8.721  0.2213  0.5007  2.0805
   33POPC     N 4369   2.681   3.617  10.682  0.1804 -0.4424 -0.0157
   33POPC   C12 4370   2.539   3.624  10.721  0.0281  0.9303 -0.1894
   33POPC  H12A 4371   2.478   3.626  10.632  0.6344 -0.2177 -0.6555
   33POPC  H12B 4372   2.517   3.723  10.758  4.3303  2.6243 -1.5137
   33POPC   C13 4373   2.705   3.503  10.590 -0.3890 -0.7221  0.4556
   33POPC  H13A 4374   2.724   3.411  10.644  1.0913  0.3711  1.8899
   33POPC  H13B 4375   2.625   3.483  10.520  0.7221  0.1634 -1.1263
   33POPC  H13C 4376   2.794   3.526  10.532 -1.8558  1.8492 -0.9375
   33POPC   C14 4377   2.724   3.743  10.611 -0.0819 -0.0122  0.3085
   33POPC  H14A 4378   2.830   3.744  10.591 -0.2647 -4.0141 -1.7818
   33POPC  H14B 4379   2.681   3.741  10.512  0.6204  0.4932 -0.0204
   33POPC  H14C 4380   2.694   3.836  10.657 -0.3529 -0.3167  0.7607
   33POPC   C15 4381   2.778   3.608  10.802  0.5947  0.7167  1.0027
   33POPC  H15A 4382   2.734   3.658  10.888  0.0675 -0.7209  1.5990
   33POPC  H15B 4383   2.879   3.634  10.774  0.9777 -1.4061  0.2764
   33POPC  H15C 4384   2.789   3.506  10.834 -1.2798  0.5461  1.2328
   33POPC   C11 4385   2.488   3.528  10.825 -0.7195 -0.6406  0.1287
   33POPC  H11A 4386   2.521   3.425  10.798 -2.4660 -0.9680 -0.8778
   33POPC  H11B 4387   2.378   3.520  10.834 -0.6440 -0.9957  0.8517
   33POPC     P 4388   2.495   3.689  11.037  0.3196  0.3834 -0.3235
   33POPC   O13 4389   2.623   3.759  11.069  0.2139 -0.1958  0.6259
   33POPC   O14 4390   2.395   3.657  11.139 -0.6412  0.1703  0.3482
   33POPC   O12 4391   2.530   3.559  10.958  0.0806  0.5072 -0.0775
   33POPC   O11 4392   2.421   3.784  10.941 -0.3119 -0.2661  0.1354
   33POPC    C1 4393   2.292   3.841  10.968 -0.0920 -0.4849  0.4859
   33POPC    HA 4394   2.224   3.760  11.003  0.3224 -1.6246 -1.2438
   33POPC    HB 4395   2.295   3.918  11.048  0.4077 -1.3430  1.3133
   33POPC    C2 4396   2.229   3.900  10.838  0.3423  1.0194 -0.5753
   33POPC    HS 4397   2.119   3.910  10.848  0.4926  0.0441  3.2996
   33POPC   O21 4398   2.249   3.805  10.730 -0.2722 -0.3949 -0.6404
   33POPC   C21 4399   2.163   3.704  10.727  0.2664 -0.2084 -0.0638
   33POPC   O22 4400   2.079   3.680  10.813 -0.2657 -0.1442 -0.5672
   33POPC   C22 4401   2.162   3.640  10.589 -0.3685  0.3650 -0.1611
   33POPC   H2R 4402   2.251   3.575  10.580  0.2826  0.6691  2.8942
   33POPC   H2S 4403   2.176   3.722  10.515  3.4096  0.4456  0.4661
   33POPC    C3 4404   2.280   4.036  10.803  0.4747 -0.2534  0.9575
   33POPC    HX 4405   2.388   4.040  10.776  0.1870 -2.2532 -0.7212
   33POPC    HY 4406   2.273   4.098  10.895  0.2497 -0.4561  1.0762
   33POPC   O31 4407   2.198   4.097  10.703  0.5927  0.1979  0.1078
   33POPC   C31 4408   2.233   4.095  10.579 -0.2025 -0.0406  0.4299
   33POPC   O32 4409   2.337   4.044  10.530  0.6745 -0.2080  0.5268
   33POPC   C32 4410   2.109   4.147  10.501  0.6800 -0.1560 -0.0336
   33POPC   H2X 4411   2.079   4.248  10.536  1.9567  0.1379  0.2938
   33POPC   H2Y 4412   2.028   4.076  10.527 -0.0648  0.5461 -0.3875
   33POPC   C23 4413   2.039   3.557  10.568  0.2056  0.4830 -0.2378
   33POPC   H3R 4414   2.013   3.497  10.657  2.7542  0.6323  0.6965
   33POPC   H3S 4415   2.057   3.495  10.478  0.7370 -1.3699  1.0971
   33POPC   C24 4416   1.909   3.634  10.540 -0.0984 -0.5533  0.0128
   33POPC   H4R 4417   1.877   3.705  10.620 -0.4852 -0.0183 -0.6010
   33POPC   H4S 4418   1.825   3.561  10.541  1.0899 -1.9580 -0.1471
   33POPC   C25 4419   1.909   3.706  10.406 -0.1732 -0.1415  0.2744
   33POPC   H5R 4420   1.974   3.796  10.398 -4.0629  3.0482  1.2934
   33POPC   H5S 4421   1.807   3.749  10.405 -0.8979 -1.7912 -0.4903
   33POPC   C26 4422   1.940   3.620  10.280  0.2656 -0.4331  0.0738
   33POPC   H6R 4423   1.879   3.527  10.283 -0.8298  0.2324 -0.9579
   33POPC   H6S 4424   2.047   3.591  10.286  0.4867 -1.4946 -4.7470
   33POPC   C27 4425   1.935   3.699  10.147  0.0077  0.6462  0.1228
   33POPC   H7R 4426   1.934   3.810  10.159 -2.9113  1.0582 -2.6980
   33POPC   H7S 4427   1.833   3.685  10.105 -0.9055  0.7578  2.1549
   33POPC   C28 4428   2.039   3.656  10.050 -0.6812  0.8854  0.9623
   33POPC   H8R 4429   2.135   3.627  10.097  1.0080  2.2626 -1.3758
   33POPC   H8S 4430   2.068   3.737   9.979  1.4264  0.0404  0.8044
   33POPC   C29 4431   1.988   3.543   9.973 -1.0115 -0.6880 -0.3207
   33POPC   H91 4432   2.008   3.444  10.017  0.7905 -0.2095  0.0154
   33POPC  C210 4433   1.923   3.542   9.856 -0.3107  0.0500 -0.3577
   33POPC  H101 4434   1.877   3.447   9.825  1.5867 -1.3574  0.8598
   33POPC  C211 4435   1.899   3.653   9.760 -0.0952  0.2689  0.6421
   33POPC  H11R 4436   1.957   3.745   9.780 -0.1188  0.1483  1.2996
   33POPC  H11S 4437   1.793   3.682   9.774 -0.5225 -0.6288 -0.5328
   33POPC  C212 4438   1.920   3.615   9.615  0.2789  0.3807  0.1596
   33POPC  H12R 4439   1.847   3.539   9.581  0.3451 -0.1107  1.0578
   33POPC  H12S 4440   2.015   3.563   9.591 -0.4172  0.5453 -3.5358
   33POPC  C213 4441   1.908   3.720   9.511  0.1990 -0.0192 -0.4913
   33POPC  H13R 4442   1.970   3.811   9.528 -0.2094  0.6833 -2.4687
   33POPC  H13S 4443   1.805   3.763   9.510  0.5779  1.4255  3.4153
   33POPC  C214 4444   1.939   3.687   9.369 -0.2355  0.0245 -0.2841
   33POPC  H14R 4445   1.881   3.594   9.351 -1.4209  0.9776 -1.7207
   33POPC  H14S 4446   2.046   3.667   9.346 -0.1704  0.3715 -0.2867
   33POPC  C215 4447   1.882   3.792   9.273  0.4154  0.7184  0.4327
   33POPC  H15R 4448   1.930   3.886   9.307 -1.1057  0.5822  3.2173
   33POPC  H15S 4449   1.772   3.792   9.290  0.0776  2.4510 -1.4008
   33POPC  C216 4450   1.927   3.757   9.129  0.5450 -0.0504 -0.0409
   33POPC  H16R 4451   1.889   3.654   9.109  0.5479 -0.4125  1.7082
   33POPC  H16S 4452   2.038   3.760   9.123  0.6774 -3.1030 -0.9666
   33POPC  C217 4453   1.858   3.845   9.024  0.2978 -0.0976 -0.1782
   33POPC  H17R 4454   1.882   3.952   9.038 -0.5136 -0.2076  2.7159
   33POPC  H17S 4455   1.748   3.833   9.037 -0.0418 -1.6727 -3.3806
   33POPC  C218 4456   1.895   3.811   8.879  0.3568 -0.5181  0.4939
   33POPC  H18R 4457   1.891   3.701   8.861 -0.7832 -0.1466 -1.8785
   33POPC  H18S 4458   2.005   3.827   8.878  0.7149 -2.5480  1.6423
   33POPC  H18T 4459   1.825   3.864   8.812  0.2385  1.1506  1.8906
   33POPC   C33 4460   2.134   4.159  10.345  0.4148 -0.4046  0.1751
   33POPC   H3X 4461   2.232   4.203  10.320  0.8828 -1.2390  0.5057
   33POPC   H3Y 4462   2.059   4.230  10.304 -0.1578 -1.3377 -0.4281
   33POPC   C34 4463   2.144   4.019  10.275 -0.4081 -0.9774  0.9503
   33POPC   H4X 4464   2.037   3.989  10.280 -1.2807  1.6657  0.1246
   33POPC   H4Y 4465   2.215   3.960  10.337  0.7716  1.3571  1.9376
   33POPC   C35 4466   2.194   4.029  10.125 -0.1783 -0.1521 -0.5810
   33POPC   H5X 4467   2.211   3.923  10.096 -2.2896 -0.4332 -0.9256
   33POPC   H5Y 4468   2.286   4.090  10.113 -0.3993  0.2170 -0.4247
   33POPC   C36 4469   2.092   4.108  10.042  0.1818  0.7582  0.2694
   33POPC   H6X 4470   2.104   4.219  10.045 -2.3624  1.1464 -1.1214
   33POPC   H6Y 4471   1.988   4.101  10.081  1.2538  1.0907  3.4139
   33POPC   C37 4472   2.091   4.066   9.894  0.1424  0.2891  0.3545
   33POPC   H7X 4473   2.069   3.957   9.895  2.5969 -0.2534  0.5307
   33POPC   H7Y 4474   2.191   4.076   9.847  0.1600 -0.3540  0.2365
   33POPC   C38 4475   2.000   4.149   9.808 -0.9119 -0.3463 -0.6005
   33POPC   H8X 4476   2.031   4.253   9.830 -1.4690 -0.2818 -0.0758
   33POPC   H8Y 4477   1.893   4.142   9.837 -0.8490  1.6035  0.2582
   33POPC   C39 4478   2.017   4.135   9.652  0.6508 -0.3844  0.2610
   33POPC   H9X 4479   1.932   4.193   9.610  1.8175  1.5828  0.4670
   33POPC   H9Y 4480   2.005   4.028   9.624  0.4746  0.2867 -2.5136
   33POPC  C310 4481   2.139   4.189   9.576 -0.9917  0.2199  0.1037
   33POPC  H10X 4482   2.223   4.129   9.617  1.0836  1.2032 -2.4150
   33POPC  H10Y 4483   2.153   4.297   9.600  0.0666  0.2189 -0.4675
   33POPC  C311 4484   2.129   4.149   9.425 -0.1355 -0.2828 -0.2443
   33POPC  H11X 4485   2.102   4.042   9.418 -0.0118 -0.3602  0.4222
   33POPC  H11Y 4486   2.230   4.154   9.378  0.3100 -0.4753  0.6604
   33POPC  C312 4487   2.045   4.242   9.340  0.4136  0.7997  0.4955
   33POPC  H12X 4488   2.052   4.352   9.351 -0.7250  1.0273 -0.7418
   33POPC  H12Y 4489   1.941   4.204   9.348  1.0032 -1.6255 -1.8750
   33POPC  C313 4490   2.060   4.220   9.184  0.5750 -0.1155 -0.9488
   33POPC  H13X 4491   2.021   4.117   9.170 -0.7208 -0.3047  3.0023
   33POPC  H13Y 4492   2.165   4.224   9.149  1.5292  0.2629  1.7642
   33POPC  C314 4493   1.987   4.335   9.102  0.0493 -0.3094  0.3242
   33POPC  H14X 4494   2.041   4.425   9.138 -1.2205 -0.3180  2.3877
   33POPC  H14Y 4495   1.878   4.343   9.122  0.1424 -0.7552  1.0481
   33POPC  C315 4496   2.004   4.326   8.955 -0.0751  0.1993  0.5204
   33POPC  H15X 4497   2.109   4.340   8.923  0.3273 -1.2367  1.1516
   33POPC  H15Y 4498   1.950   4.409   8.905  2.3982  1.6257  0.0813
   33POPC  C316 4499   1.960   4.195   8.890 -0.8636  0.0261  0.3529
   33POPC  H16X 4500   1.851   4.177   8.880 -0.5460 -0.6973 -2.9320
   33POPC  H16Y 4501   2.009   4.108   8.939  2.1726  1.0942 -0.5070
   33POPC  H16Z 4502   2.000   4.189   8.786 -1.1967 -2.1771  0.3178
   34POPC     N 4503   1.534   4.890  11.262 -0.1060 -0.5890 -0.7450
   34POPC   C12 4504   1.523   4.882  11.113  0.5063 -0.1721  0.3642
   34POPC  H12A 4505   1.434   4.934  11.080  0.6590 -1.0738 -1.6492
   34POPC  H12B 4506   1.514   4.778  11.083 -2.5637 -0.3811  1.5691
   34POPC   C13 4507   1.434   4.807  11.327  0.0091 -0.1442  0.0795
   34POPC  H13A 4508   1.334   4.824  11.290  0.1380  0.4713 -0.0078
   34POPC  H13B 4509   1.445   4.702  11.304 -1.0027 -0.6473  1.6902
   34POPC  H13C 4510   1.432   4.821  11.434 -0.5549 -1.0125  0.1912
   34POPC   C14 4511   1.664   4.840  11.312 -0.3568 -0.0220  0.0024
   34POPC  H14A 4512   1.746   4.905  11.283 -0.2370  0.4224  1.2974
   34POPC  H14B 4513   1.658   4.832  11.419 -0.9932  1.2460  0.0795
   34POPC  H14C 4514   1.680   4.740  11.274 -4.9444 -0.0915 -2.4759
   34POPC   C15 4515   1.514   5.025  11.307 -0.3550 -0.0828 -0.3390
   34POPC  H15A 4516   1.528   5.035  11.414 -1.4791  2.6353 -0.3536
   34POPC  H15B 4517   1.416   5.062  11.281 -0.8590  1.8444  3.5216
   34POPC  H15C 4518   1.582   5.094  11.259 -1.3011  1.6936  0.7747
   34POPC   C11 4519   1.638   4.947  11.035  0.4883  0.0362 -0.0008
   34POPC  H11A 4520   1.635   4.925  10.926 -0.5466  0.4173 -0.0615
   34POPC  H11B 4521   1.736   4.901  11.061  2.2527  3.4521 -0.0100
   34POPC     P 4522   1.586   5.186  10.970  0.0778 -0.0561  0.0429
   34POPC   O13 4523   1.555   5.309  11.047 -0.0077  0.3270  0.2963
   34POPC   O14 4524   1.468   5.112  10.918 -0.1257  0.1708  0.1503
   34POPC   O12 4525   1.665   5.086  11.065  0.4199 -0.1866 -0.1994
   34POPC   O11 4526   1.683   5.218  10.857 -0.3115  0.0900  0.2153
   34POPC    C1 4527   1.792   5.138  10.806  0.2125 -0.0053 -0.2464
   34POPC    HA 4528   1.748   5.038  10.786  2.0751 -0.5736 -1.9354
   34POPC    HB 4529   1.875   5.118  10.878  0.0992 -0.7513 -0.3204
   34POPC    C2 4530   1.843   5.187  10.668 -0.2575  0.0304  0.0107
   34POPC    HS 4531   1.928   5.259  10.677  2.8277 -3.1872 -0.8231
   34POPC   O21 4532   1.733   5.240  10.587 -0.4666 -0.2438  0.0947
   34POPC   C21 4533   1.704   5.367  10.602  0.2072  0.1635 -0.7136
   34POPC   O22 4534   1.781   5.451  10.648  0.1110 -0.1293  0.1342
   34POPC   C22 4535   1.569   5.404  10.553  0.6031 -0.2893  0.2476
   34POPC   H2R 4536   1.512   5.457  10.632  0.8659  0.9339 -0.3419
   34POPC   H2S 4537   1.520   5.311  10.518  0.6245 -0.9195  1.8306
   34POPC    C3 4538   1.901   5.068  10.585  0.2834  0.0485  0.3638
   34POPC    HX 4539   1.825   4.987  10.577  0.4151  0.0930 -2.2869
   34POPC    HY 4540   2.000   5.038  10.624  1.7461  0.8788 -2.4652
   34POPC   O31 4541   1.935   5.096  10.446 -0.1258 -0.0205 -0.3564
   34POPC   C31 4542   2.014   4.998  10.383  0.8341  0.0422  0.1115
   34POPC   O32 4543   2.032   4.885  10.429  0.7810 -0.0543 -0.7471
   34POPC   C32 4544   2.077   5.060  10.254  0.6282 -0.4418 -0.0390
   34POPC   H2X 4545   2.164   5.001  10.219  0.9794 -0.1401  0.3231
   34POPC   H2Y 4546   2.108   5.163  10.281  0.0616 -0.0212 -0.9381
   34POPC   C23 4547   1.585   5.501  10.427  0.1270 -0.3475  0.3253
   34POPC   H3R 4548   1.644   5.592  10.451 -2.4339  1.7620 -0.8760
   34POPC   H3S 4549   1.480   5.522  10.396  0.3658 -1.4468 -1.4029
   34POPC   C24 4550   1.651   5.434  10.310 -0.2644  0.2630 -0.6669
   34POPC   H4R 4551   1.600   5.338  10.285 -1.2966  0.9419 -1.2046
   34POPC   H4S 4552   1.759   5.414  10.329 -0.3161 -0.0554 -0.7019
   34POPC   C25 4553   1.655   5.523  10.183 -0.4255 -0.2766 -0.0502
   34POPC   H5R 4554   1.697   5.618  10.223 -2.4822  1.8668 -2.6265
   34POPC   H5S 4555   1.555   5.559  10.150 -0.5565 -0.7326 -0.1619
   34POPC   C26 4556   1.728   5.455  10.069 -0.5000 -0.2926 -0.4257
   34POPC   H6R 4557   1.838   5.459  10.087 -0.6732 -2.0254  1.4461
   34POPC   H6S 4558   1.712   5.513   9.976 -2.0059 -2.9659 -1.9539
   34POPC   C27 4559   1.675   5.314  10.032 -0.3728 -0.1492  0.1516
   34POPC   H7R 4560   1.565   5.310  10.050 -0.3058  1.1000  0.9365
   34POPC   H7S 4561   1.718   5.248  10.110  0.1993 -0.0144 -0.0480
   34POPC   C28 4562   1.712   5.268   9.896 -0.1291 -0.1018  0.1961
   34POPC   H8R 4563   1.818   5.294   9.873 -0.9987  0.6368 -3.6527
   34POPC   H8S 4564   1.654   5.338   9.833 -1.9146  0.1943  2.0510
   34POPC   C29 4565   1.677   5.124   9.866 -0.5716  0.5680 -0.3973
   34POPC   H91 4566   1.760   5.053   9.878 -0.8636  0.5131  1.6140
   34POPC  C210 4567   1.556   5.081   9.826 -0.2081  0.0065  0.2130
   34POPC  H101 4568   1.538   4.973   9.817 -1.7388  0.1387  1.3753
   34POPC  C211 4569   1.434   5.161   9.803  0.0036 -0.1001  0.0808
   34POPC  H11R 4570   1.417   5.149   9.694 -0.1403 -2.1524  0.2951
   34POPC  H11S 4571   1.455   5.268   9.827  2.4953 -0.5449  0.1755
   34POPC  C212 4572   1.312   5.111   9.880 -0.0449 -0.6303  0.6122
   34POPC  H12R 4573   1.320   5.098   9.990 -2.7648 -2.4380  0.7015
   34POPC  H12S 4574   1.282   5.013   9.836 -0.7784  0.0440 -0.4296
   34POPC  C213 4575   1.196   5.200   9.864  0.2760  0.0890  0.5934
   34POPC  H13R 4576   1.110   5.131   9.852 -0.0317  0.5061  0.3696
   34POPC  H13S 4577   1.206   5.270   9.778 -0.2591 -0.6316 -0.0686
   34POPC  C214 4578   1.158   5.273   9.995 -0.0289 -0.6335  0.2494
   34POPC  H14R 4579   1.177   5.201  10.077  0.5902 -1.7090 -0.8009
   34POPC  H14S 4580   1.048   5.289   9.993  0.2760  1.7152 -0.2669
   34POPC  C215 4581   1.229   5.409  10.017  0.2398  0.7391 -0.0334
   34POPC  H15R 4582   1.206   5.466   9.925 -2.2437  1.7103  1.0999
   34POPC  H15S 4583   1.337   5.384  10.007 -0.2003 -1.3956 -0.0416
   34POPC  C216 4584   1.185   5.476  10.144  0.1604 -0.4064 -0.3598
   34POPC  H16R 4585   1.207   5.406  10.227 -0.1269  0.0039  0.0730
   34POPC  H16S 4586   1.075   5.485  10.131  0.1092 -0.4111  0.0434
   34POPC  C217 4587   1.232   5.616  10.167 -0.8947  0.1612  0.5799
   34POPC  H17R 4588   1.205   5.678  10.078 -1.4118 -1.3349 -0.3488
   34POPC  H17S 4589   1.343   5.613  10.179 -0.9103 -0.3312  0.5806
   34POPC  C218 4590   1.168   5.680  10.293 -0.1523  0.2819 -0.4905
   34POPC  H18R 4591   1.181   5.611  10.378 -1.7906  0.5435  0.0071
   34POPC  H18S 4592   1.059   5.701  10.288  0.0223  1.7893  1.0971
   34POPC  H18T 4593   1.215   5.778  10.317  0.5206 -0.0614 -0.3905
   34POPC   C33 4594   1.971   5.070  10.128 -0.1031  0.0680  0.1394
   34POPC   H3X 4595   1.909   5.158  10.154 -0.6043 -0.0199 -0.7140
   34POPC   H3Y 4596   1.911   4.976  10.125 -0.8965  0.5669  0.1405
   34POPC   C34 4597   2.046   5.103   9.995  0.1549  0.4440  0.8309
   34POPC   H4X 4598   2.131   5.173  10.014 -0.8335  2.2749 -1.1622
   34POPC   H4Y 4599   1.968   5.154   9.936 -0.7850 -0.5919  1.1308
   34POPC   C35 4600   2.099   4.975   9.923  0.1763 -0.6554  0.0401
   34POPC   H5X 4601   2.006   4.916   9.910 -1.6715  1.6495  1.9274
   34POPC   H5Y 4602   2.177   4.919   9.979  1.4537  1.2828  0.3113
   34POPC   C36 4603   2.164   5.010   9.784  0.5054 -0.0358  0.1721
   34POPC   H6X 4604   2.198   4.911   9.746 -0.1174 -0.7430  1.4118
   34POPC   H6Y 4605   2.261   5.064   9.790  0.2779  0.2953  1.0918
   34POPC   C37 4606   2.061   5.070   9.687 -0.4562 -0.7202 -0.7244
   34POPC   H7X 4607   2.034   5.173   9.720  1.8431 -0.0851 -0.6517
   34POPC   H7Y 4608   1.977   4.999   9.678  0.3276 -1.6342 -1.0286
   34POPC   C38 4609   2.135   5.084   9.556  0.7946 -0.4029 -0.7500
   34POPC   H8X 4610   2.185   4.989   9.528  2.5198 -0.2893  1.6159
   34POPC   H8Y 4611   2.217   5.159   9.565  0.8058 -0.3790 -1.0599
   34POPC   C39 4612   2.044   5.128   9.441  0.2421  0.6708 -0.0873
   34POPC   H9X 4613   2.017   5.236   9.446  0.4057  0.7294 -0.4446
   34POPC   H9Y 4614   1.949   5.071   9.445  0.5920  0.1584  1.6185
   34POPC  C310 4615   2.105   5.082   9.307  0.0440  0.8694 -0.2441
   34POPC  H10X 4616   2.115   4.971   9.318  2.2945  0.9357 -1.1439
   34POPC  H10Y 4617   2.203   5.129   9.283  0.5659 -1.0062 -2.0761
   34POPC  C311 4618   2.012   5.121   9.188 -0.0275 -0.1621  0.2137
   34POPC  H11X 4619   1.984   5.227   9.202  1.5109 -0.0509  3.0684
   34POPC  H11Y 4620   1.928   5.048   9.197 -0.8968  0.6738 -0.7838
   34POPC  C312 4621   2.067   5.096   9.044 -0.8951 -0.1816 -0.2570
   34POPC  H12X 4622   2.099   4.990   9.043 -1.0308 -0.2786  1.5107
   34POPC  H12Y 4623   2.153   5.167   9.035  0.3431 -1.8321 -2.1361
   34POPC  C313 4624   1.959   5.138   8.943 -0.2399  0.4306 -0.1449
   34POPC  H13X 4625   1.935   5.246   8.958 -1.5916 -0.0344  1.2149
   34POPC  H13Y 4626   1.865   5.082   8.962  1.3602 -2.6766 -0.7868
   34POPC  C314 4627   1.992   5.095   8.798  0.1474 -0.4686  0.3936
   34POPC  H14X 4628   1.988   4.985   8.781  0.5875 -0.2294 -1.5219
   34POPC  H14Y 4629   2.093   5.132   8.772 -0.6576  2.0489  0.6209
   34POPC  C315 4630   1.891   5.174   8.717  0.1607 -0.4434 -0.2347
   34POPC  H15X 4631   1.899   5.279   8.752 -1.6537 -0.3634  0.0401
   34POPC  H15Y 4632   1.788   5.142   8.743 -0.2586 -0.9205 -2.2892
   34POPC  C316 4633   1.898   5.167   8.563 -0.1759 -0.0238  0.1913
   34POPC  H16X 4634   1.977   5.238   8.531  0.8155 -0.3001  1.9044
   34POPC  H16Y 4635   1.808   5.198   8.504  0.7094 -1.8629 -2.3107
   34POPC  H16Z 4636   1.929   5.063   8.540 -1.7229 -0.2391 -1.1596
   35POPC     N 4637   0.875   5.017  11.415  0.5594 -0.9807  0.1333
   35POPC   C12 4638   0.801   5.036  11.281  0.0206 -0.1566 -0.0190
   35POPC  H12A 4639   0.756   4.942  11.252 -0.4804  0.1863 -0.3611
   35POPC  H12B 4640   0.878   5.065  11.212  0.0928 -0.9791 -0.2907
   35POPC   C13 4641   0.932   5.144  11.464 -0.3733 -0.4635 -0.1425
   35POPC  H13A 4642   0.864   5.228  11.464  0.0382 -0.1285 -0.0651
   35POPC  H13B 4643   0.972   5.128  11.563  1.7359  1.3303 -0.6308
   35POPC  H13C 4644   1.018   5.174  11.406  0.2181 -2.1029 -0.1800
   35POPC   C14 4645   0.768   4.976  11.519  0.5663  0.5737  1.4899
   35POPC  H14A 4646   0.715   4.883  11.502  1.2001  0.3487  0.6635
   35POPC  H14B 4647   0.819   4.973  11.615  0.9180  1.6705  1.3529
   35POPC  H14C 4648   0.683   5.042  11.528  0.6861  0.5007  3.9569
   35POPC   C15 4649   0.981   4.911  11.394 -0.1864 -0.4577 -0.4095
   35POPC  H15A 4650   0.960   4.806  11.404 -0.0786 -0.4624 -0.2311
   35POPC  H15B 4651   1.052   4.915  11.476  1.2854 -4.0118 -1.3024
   35POPC  H15C 4652   1.042   4.935  11.307 -0.8090 -0.1724 -0.7712
   35POPC   C11 4653   0.692   5.143  11.260  0.3196 -0.4256 -0.6065
   35POPC  H11A 4654   0.669   5.157  11.152  0.3278 -2.1912 -0.8567
   35POPC  H11B 4655   0.727   5.242  11.296  0.3336  0.3367 -2.6169
   35POPC     P 4656   0.444   5.204  11.331  0.0660  0.4347  0.4016
   35POPC   O13 4657   0.463   5.294  11.446  0.1722  0.2111  0.0434
   35POPC   O14 4658   0.323   5.123  11.327  0.1840  0.2140 -1.0125
   35POPC   O12 4659   0.571   5.101  11.326  0.3475 -0.3203 -0.5374
   35POPC   O11 4660   0.454   5.279  11.193 -0.1346  0.3539 -0.0703
   35POPC    C1 4661   0.335   5.349  11.136 -1.4055  0.4422 -0.8603
   35POPC    HA 4662   0.336   5.450  11.183  1.8864  0.7668 -1.4327
   35POPC    HB 4663   0.242   5.291  11.156  0.8461 -3.9017 -1.7155
   35POPC    C2 4664   0.342   5.353  10.980  0.0137  0.7079  0.3062
   35POPC    HS 4665   0.239   5.373  10.944 -1.0926 -2.6703  1.1689
   35POPC   O21 4666   0.391   5.234  10.922 -0.0880 -0.0191  0.2100
   35POPC   C21 4667   0.333   5.125  10.947  0.7911 -0.7788 -0.3180
   35POPC   O22 4668   0.222   5.111  11.002 -0.0333 -0.1978 -0.1875
   35POPC   C22 4669   0.421   5.004  10.900  0.1551 -0.3072  0.2086
   35POPC   H2R 4670   0.502   4.999  10.975  1.0977  0.3136 -0.7310
   35POPC   H2S 4671   0.457   5.038  10.800  0.3740 -2.2360 -0.3945
   35POPC    C3 4672   0.430   5.480  10.949 -0.3661  0.2677 -0.4238
   35POPC    HX 4673   0.535   5.447  10.960 -0.2153  0.0406 -2.2767
   35POPC    HY 4674   0.414   5.558  11.026  0.7803 -1.4229  1.6267
   35POPC   O31 4675   0.400   5.530  10.824 -0.1188 -0.0733  0.9860
   35POPC   C31 4676   0.497   5.617  10.774 -0.8259 -0.3789 -0.6716
   35POPC   O32 4677   0.583   5.664  10.843 -0.2382  0.2037  0.2500
   35POPC   C32 4678   0.471   5.656  10.628  0.1712  0.1726 -0.3673
   35POPC   H2X 4679   0.383   5.725  10.623  0.1499  0.2310  0.7329
   35POPC   H2Y 4680   0.444   5.561  10.576 -2.7599  1.5040 -1.4953
   35POPC   C23 4681   0.337   4.867  10.882 -0.1928  1.3484 -0.0824
   35POPC   H3R 4682   0.306   4.837  10.985 -1.7094  2.0165 -0.3066
   35POPC   H3S 4683   0.399   4.789  10.834  0.6784  0.2890  2.5737
   35POPC   C24 4684   0.219   4.896  10.791 -0.1137 -0.7852 -0.4741
   35POPC   H4R 4685   0.236   4.963  10.705  1.0789 -1.9464 -1.1828
   35POPC   H4S 4686   0.134   4.944  10.844  0.1622  0.6333 -1.2763
   35POPC   C25 4687   0.154   4.771  10.724 -0.6093 -0.0560 -0.2797
   35POPC   H5R 4688   0.129   4.695  10.802  0.9547  1.0778  1.4207
   35POPC   H5S 4689   0.234   4.725  10.662  0.6764  0.8905  0.6439
   35POPC   C26 4690   0.030   4.812  10.647 -0.4946  0.2993  0.7438
   35POPC   H6R 4691   0.040   4.909  10.593 -0.9323 -0.0535  0.0209
   35POPC   H6S 4692  -0.051   4.827  10.722 -0.1239 -1.9541  1.6695
   35POPC   C27 4693  -0.019   4.707  10.547 -0.5762  0.3299  0.1699
   35POPC   H7R 4694  -0.039   4.609  10.594 -1.8849  0.3717 -0.2562
   35POPC   H7S 4695   0.067   4.693  10.479 -0.7025  2.3732 -0.4848
   35POPC   C28 4696  -0.140   4.757  10.466 -0.0522  0.3207 -0.5615
   35POPC   H8R 4697  -0.100   4.853  10.426 -0.9619  0.6541 -0.7023
   35POPC   H8S 4698  -0.218   4.786  10.540  1.3977  0.7737  0.8509
   35POPC   C29 4699  -0.192   4.669  10.353  0.0132 -0.1878 -0.6380
   35POPC   H91 4700  -0.219   4.565  10.374  0.2373 -0.1844 -0.3383
   35POPC  C210 4701  -0.204   4.708  10.224 -0.5898 -0.0132  0.5376
   35POPC  H101 4702  -0.243   4.639  10.148  0.4280  0.6845 -0.6556
   35POPC  C211 4703  -0.167   4.851  10.165 -0.3894  0.2257  0.3227
   35POPC  H11R 4704  -0.082   4.908  10.209  0.9575 -0.9560 -0.6441
   35POPC  H11S 4705  -0.256   4.916  10.152 -0.2291  0.8008  1.8660
   35POPC  C212 4706  -0.112   4.815  10.026  0.4351  0.5468  0.2006
   35POPC  H12R 4707  -0.035   4.735  10.038  0.4539  0.2640 -1.5693
   35POPC  H12S 4708  -0.066   4.913  10.000 -1.9678  1.4430 -0.9860
   35POPC  C213 4709  -0.215   4.778   9.916 -0.0486 -0.3051 -0.4584
   35POPC  H13R 4710  -0.280   4.868   9.907 -0.0355 -0.2272  0.1958
   35POPC  H13S 4711  -0.276   4.689   9.940  0.8189 -1.9903 -3.9386
   35POPC  C214 4712  -0.152   4.745   9.777  0.6272 -0.4279 -0.1132
   35POPC  H14R 4713  -0.117   4.640   9.786 -0.8191 -0.8997  0.4759
   35POPC  H14S 4714  -0.061   4.807   9.767  2.2184 -2.3341  1.7861
   35POPC  C215 4715  -0.249   4.762   9.662 -0.2860 -1.0177 -1.0124
   35POPC  H15R 4716  -0.248   4.869   9.634 -1.0769 -0.4428  0.9509
   35POPC  H15S 4717  -0.352   4.731   9.691 -0.3770 -1.3727 -1.7198
   35POPC  C216 4718  -0.221   4.687   9.531 -0.2128  0.6634 -0.2036
   35POPC  H16R 4719  -0.221   4.581   9.563  1.8705  0.8002  0.3951
   35POPC  H16S 4720  -0.117   4.708   9.498  1.0056  0.0028  2.9011
   35POPC  C217 4721  -0.326   4.701   9.428  0.3557  0.2337  0.7823
   35POPC  H17R 4722  -0.306   4.783   9.355 -2.4608 -0.4375 -0.8910
   35POPC  H17S 4723  -0.421   4.738   9.474 -0.6037 -1.4582  0.2397
   35POPC  C218 4724  -0.353   4.570   9.350  0.0918 -0.4112  0.0745
   35POPC  H18R 4725  -0.258   4.536   9.303  0.4449 -1.0650  1.2282
   35POPC  H18S 4726  -0.431   4.591   9.273  0.7953  0.6798 -0.3668
   35POPC  H18T 4727  -0.392   4.493   9.420 -1.5642  0.1762 -0.1563
   35POPC   C33 4728   0.607   5.721  10.563 -0.5631 -0.6612 -0.0903
   35POPC   H3X 4729   0.695   5.656  10.581 -0.0513  0.6036  2.3734
   35POPC   H3Y 4730   0.633   5.812  10.622 -2.6906  0.3408 -0.5864
   35POPC   C34 4731   0.599   5.771  10.418  0.5245 -0.2720  0.1717
   35POPC   H4X 4732   0.523   5.851  10.406  0.4432 -0.4395 -0.4414
   35POPC   H4Y 4733   0.560   5.698  10.343  1.1442 -1.1770  0.7055
   35POPC   C35 4734   0.735   5.826  10.371  0.5726  0.2291 -0.0179
   35POPC   H5X 4735   0.809   5.743  10.382  1.0680  0.0440 -3.6954
   35POPC   H5Y 4736   0.778   5.910  10.430  0.4851  0.6392 -0.5353
   35POPC   C36 4737   0.728   5.872  10.226  0.5332  0.3559 -0.8006
   35POPC   H6X 4738   0.635   5.931  10.215 -0.5896 -0.8821  1.3117
   35POPC   H6Y 4739   0.716   5.784  10.159  0.0306 -1.9858  2.1538
   35POPC   C37 4740   0.850   5.941  10.187 -0.1912 -0.3190  0.5032
   35POPC   H7X 4741   0.934   5.869  10.197  0.5361  0.4922  0.3579
   35POPC   H7Y 4742   0.870   6.033  10.245 -1.5429  1.3078 -1.4615
   35POPC   C38 4743   0.839   6.003  10.044 -0.3015 -0.0795  0.2561
   35POPC   H8X 4744   0.929   6.068  10.042  1.4184 -2.2698  0.9816
   35POPC   H8Y 4745   0.744   6.060  10.036  0.5282  1.2995 -0.0105
   35POPC   C39 4746   0.843   5.914   9.916  1.1321 -0.1076 -0.3307
   35POPC   H9X 4747   0.865   5.981   9.831 -0.8617 -1.1827 -1.7764
   35POPC   H9Y 4748   0.747   5.866   9.888  2.3181 -1.1951 -2.7842
   35POPC  C310 4749   0.943   5.802   9.924 -0.0898 -0.1566 -0.4871
   35POPC  H10X 4750   0.898   5.728   9.994 -0.4601  0.9613  0.4727
   35POPC  H10Y 4751   1.035   5.838   9.974 -0.3184  1.6359 -1.2853
   35POPC  C311 4752   0.961   5.755   9.779 -0.5352 -0.5236 -0.1913
   35POPC  H11X 4753   0.873   5.719   9.720 -0.5187 -1.7882  0.5071
   35POPC  H11Y 4754   1.022   5.664   9.799 -1.6038 -0.7312  2.4758
   35POPC  C312 4755   1.050   5.850   9.699 -0.0728 -0.7160  0.0795
   35POPC  H12X 4756   1.142   5.862   9.759  0.5401 -0.1696 -0.9486
   35POPC  H12Y 4757   0.993   5.943   9.679 -0.5163 -1.3071 -1.5875
   35POPC  C313 4758   1.092   5.799   9.562 -0.2997  0.4385 -0.0763
   35POPC  H13X 4759   1.159   5.711   9.574  1.6548  1.6926 -1.2262
   35POPC  H13Y 4760   1.159   5.872   9.512  0.4043 -0.6034 -0.6878
   35POPC  C314 4761   0.978   5.762   9.472  0.1552 -0.3154 -0.0106
   35POPC  H14X 4762   0.906   5.847   9.475 -1.0474 -1.2877 -0.4523
   35POPC  H14Y 4763   0.926   5.675   9.517  2.2783 -1.0180  1.1864
   35POPC  C315 4764   1.020   5.734   9.326  0.2930 -0.6435  0.0023
   35POPC  H15X 4765   1.087   5.648   9.309 -1.0205 -1.2850 -2.3886
   35POPC  H15Y 4766   1.068   5.824   9.283 -1.6811 -0.0333 -1.0416
   35POPC  C316 4767   0.898   5.702   9.236  0.1920  0.2281  0.2429
   35POPC  H16X 4768   0.862   5.600   9.262 -0.8310 -0.2412 -2.5832
   35POPC  H16Y 4769   0.933   5.686   9.131  0.4963  1.1935  0.1929
   35POPC  H16Z 4770   0.814   5.775   9.241  0.0048  0.1885 -1.5260
   36POPC     N 4771   1.201   1.153  10.807 -0.1889 -0.0366  0.1312
   36POPC   C12 4772   1.140   1.293  10.791 -0.4366 -0.4688  0.5497
   36POPC  H12A 4773   1.048   1.275  10.739  1.4423 -2.3395 -2.4451
   36POPC  H12B 4774   1.196   1.344  10.714 -1.4793  0.4207  0.3654
   36POPC   C13 4775   1.255   1.110  10.672 -0.3895 -0.4921  0.3344
   36POPC  H13A 4776   1.316   1.021  10.669 -1.8666 -1.5321 -0.3651
   36POPC  H13B 4777   1.178   1.088  10.599 -0.7053 -2.8610  1.3038
   36POPC  H13C 4778   1.319   1.187  10.632  0.2103 -2.1296 -2.1038
   36POPC   C14 4779   1.313   1.168  10.907  0.0320  0.2446 -0.7868
   36POPC  H14A 4780   1.384   1.239  10.866  1.2012 -0.1866  0.4253
   36POPC  H14B 4781   1.283   1.196  11.006  0.5733 -1.1339 -0.1986
   36POPC  H14C 4782   1.372   1.078  10.919  2.5579  1.8013 -0.9166
   36POPC   C15 4783   1.104   1.060  10.858 -0.6755  0.4426  0.2139
   36POPC  H15A 4784   1.063   1.089  10.954 -2.1237  0.8493 -0.4919
   36POPC  H15B 4785   1.155   0.966  10.874 -0.6961  0.4787  0.4885
   36POPC  H15C 4786   1.021   1.022  10.801 -0.0460 -1.1714  0.3419
   36POPC   C11 4787   1.132   1.377  10.914  0.3444  0.6563 -0.1101
   36POPC  H11A 4788   1.087   1.477  10.895 -0.5501  0.3973  0.5859
   36POPC  H11B 4789   1.231   1.392  10.961 -0.5338  0.8569  1.7803
   36POPC     P 4790   0.894   1.321  11.021  0.0684  0.1785  0.1025
   36POPC   O13 4791   0.861   1.375  11.159 -0.3168  0.1763  0.5540
   36POPC   O14 4792   0.837   1.191  10.990 -0.3112  0.0810  0.4686
   36POPC   O12 4793   1.051   1.307  11.011  0.1267 -0.9155  0.7384
   36POPC   O11 4794   0.862   1.418  10.904 -0.2720 -0.8905 -0.7027
   36POPC    C1 4795   0.767   1.527  10.928  0.1751  0.1415  0.0591
   36POPC    HA 4796   0.779   1.593  10.839  0.5380  0.2273  0.1681
   36POPC    HB 4797   0.802   1.599  11.004  1.2957 -0.6854  0.3498
   36POPC    C2 4798   0.614   1.486  10.940  0.4661  0.0626 -0.2260
   36POPC    HS 4799   0.607   1.413  11.024 -0.4020 -2.4651 -2.3780
   36POPC   O21 4800   0.579   1.419  10.813  0.1205 -0.1863 -0.3474
   36POPC   C21 4801   0.466   1.351  10.815 -1.1723  0.2662  0.3936
   36POPC   O22 4802   0.401   1.338  10.919  0.5318 -0.1688 -0.1603
   36POPC   C22 4803   0.433   1.282  10.688  0.1716  0.1237 -0.1981
   36POPC   H2R 4804   0.512   1.205  10.674  0.6612  0.7227 -0.7998
   36POPC   H2S 4805   0.433   1.346  10.597  1.3838  0.2739 -0.1144
   36POPC    C3 4806   0.511   1.599  10.982 -1.1233  0.4799  0.0931
   36POPC    HX 4807   0.554   1.637  11.078 -0.3554 -0.7182  0.2454
   36POPC    HY 4808   0.411   1.560  11.009 -0.5822 -0.8322  0.2734
   36POPC   O31 4809   0.508   1.692  10.876 -0.1472 -0.3490 -0.0557
   36POPC   C31 4810   0.392   1.700  10.805 -0.4923 -0.7413  0.3851
   36POPC   O32 4811   0.295   1.628  10.816 -0.2821 -0.6788  0.1165
   36POPC   C32 4812   0.409   1.795  10.686 -0.2413  0.1223  0.3755
   36POPC   H2X 4813   0.514   1.783  10.650  0.0417  0.8309  0.9451
   36POPC   H2Y 4814   0.405   1.893  10.739  1.6269 -0.2146  1.2381
   36POPC   C23 4815   0.289   1.223  10.681  0.3151 -0.1051  0.2211
   36POPC   H3R 4816   0.235   1.276  10.763  1.6963 -1.1292  1.8423
   36POPC   H3S 4817   0.293   1.115  10.706 -0.2290 -0.9147 -2.6960
   36POPC   C24 4818   0.201   1.252  10.546  0.7656 -0.8040  0.2656
   36POPC   H4R 4819   0.196   1.360  10.522 -2.6282 -0.8430  0.2949
   36POPC   H4S 4820   0.095   1.223  10.563  0.7718  0.2688  2.4796
   36POPC   C25 4821   0.256   1.169  10.425  0.4031 -0.2934  0.1918
   36POPC   H5R 4822   0.255   1.065  10.465  0.2204 -0.0677  0.7766
   36POPC   H5S 4823   0.364   1.196  10.419  0.2441  0.8197  1.7355
   36POPC   C26 4824   0.167   1.173  10.296  0.2061 -0.3671 -0.6146
   36POPC   H6R 4825   0.211   1.103  10.222 -1.4378 -0.3749 -1.6336
   36POPC   H6S 4826   0.167   1.278  10.260 -2.1614  0.4142  1.3182
   36POPC   C27 4827   0.014   1.155  10.316 -0.7766  1.0230  0.0650
   36POPC   H7R 4828  -0.021   1.245  10.371  1.3105  0.8208  1.8375
   36POPC   H7S 4829  -0.004   1.063  10.376  0.5897  1.0067  0.4862
   36POPC   C28 4830  -0.071   1.143  10.188 -0.1352  0.7257 -0.1153
   36POPC   H8R 4831  -0.041   1.224  10.118 -1.7472 -0.2918 -2.0759
   36POPC   H8S 4832  -0.175   1.168  10.217 -0.1043  0.2936  0.3855
   36POPC   C29 4833  -0.065   1.009  10.120  0.4241 -0.2036  0.1844
   36POPC   H91 4834  -0.042   0.931  10.195  1.9633  1.8401  1.9489
   36POPC  C210 4835  -0.071   0.979   9.986  0.0720 -0.0404  0.0495
   36POPC  H101 4836  -0.053   0.876   9.951  1.3602  0.7449 -1.7271
   36POPC  C211 4837  -0.075   1.086   9.884  0.3295  0.4464  0.1840
   36POPC  H11R 4838  -0.115   1.183   9.922  0.4933  0.7757 -0.4735
   36POPC  H11S 4839  -0.123   1.059   9.788  0.2063  1.2086  0.0183
   36POPC  C212 4840   0.062   1.119   9.834 -0.4063 -0.3234 -0.0855
   36POPC  H12R 4841   0.111   1.030   9.789  0.0179  1.1261 -2.6828
   36POPC  H12S 4842   0.115   1.158   9.924 -1.4397 -0.5272  0.6330
   36POPC  C213 4843   0.062   1.231   9.733  0.3938  0.3648 -0.3823
   36POPC  H13R 4844   0.018   1.317   9.787  1.2315  0.4943  0.1090
   36POPC  H13S 4845   0.007   1.199   9.641  0.3010 -0.0809 -0.1734
   36POPC  C214 4846   0.207   1.255   9.688  0.0827  0.3262  0.0504
   36POPC  H14R 4847   0.254   1.289   9.782 -3.1632 -0.7378  2.2077
   36POPC  H14S 4848   0.207   1.337   9.612 -2.0859 -0.5331 -0.9495
   36POPC  C215 4849   0.277   1.144   9.607  0.1151 -0.7731 -0.2605
   36POPC  H15R 4850   0.307   1.069   9.684  1.3297  0.6178  0.6703
   36POPC  H15S 4851   0.371   1.177   9.557 -0.4595 -0.9575 -1.5030
   36POPC  C216 4852   0.193   1.073   9.507 -0.3683  0.1128 -0.7077
   36POPC  H16R 4853   0.101   1.036   9.558  0.0274  0.9030  0.6198
   36POPC  H16S 4854   0.252   0.983   9.478  1.1616  0.4183  1.2701
   36POPC  C217 4855   0.167   1.158   9.386 -0.3918  0.2207 -0.0814
   36POPC  H17R 4856   0.260   1.170   9.326  0.3889 -1.5929  0.6952
   36POPC  H17S 4857   0.128   1.258   9.414 -1.1569 -0.6113  2.0227
   36POPC  C218 4858   0.060   1.100   9.285 -0.7199  0.5381 -0.2681
   36POPC  H18R 4859   0.082   1.003   9.236 -0.5919  1.5413 -2.2770
   36POPC  H18S 4860   0.079   1.163   9.196  1.0902 -2.8493 -2.4616
   36POPC  H18T 4861  -0.044   1.108   9.324 -1.3230 -1.8490 -1.2258
   36POPC   C33 4862   0.304   1.774  10.579  0.7172 -0.4604  0.8744
   36POPC   H3X 4863   0.293   1.854  10.503  0.5819  0.1037  1.4775
   36POPC   H3Y 4864   0.199   1.771  10.616  0.1727 -0.8865 -0.6267
   36POPC   C34 4865   0.328   1.648  10.496 -0.3515 -0.4336  0.2750
   36POPC   H4X 4866   0.243   1.585  10.527  0.0819 -1.3339 -0.3197
   36POPC   H4Y 4867   0.417   1.592  10.533  1.0952  0.7058 -1.3083
   36POPC   C35 4868   0.328   1.662  10.342 -0.1727 -0.2262 -0.0443
   36POPC   H5X 4869   0.431   1.694  10.314  1.5073 -1.5909  3.7960
   36POPC   H5Y 4870   0.254   1.738  10.310  0.6153 -0.0069 -1.4483
   36POPC   C36 4871   0.271   1.527  10.277 -0.3541  0.2734  0.0253
   36POPC   H6X 4872   0.182   1.508  10.342  0.0676  2.4605  1.3681
   36POPC   H6Y 4873   0.346   1.448  10.299 -0.9057 -0.3607 -0.3439
   36POPC   C37 4874   0.237   1.554  10.131  0.7608 -0.2043  0.1910
   36POPC   H7X 4875   0.153   1.626  10.128  0.3368 -0.7219 -1.1622
   36POPC   H7Y 4876   0.208   1.462  10.077  1.1101  1.8240 -3.8510
   36POPC   C38 4877   0.352   1.609  10.041  0.5308 -0.2577 -0.3338
   36POPC   H8X 4878   0.446   1.563  10.077  0.8709  1.6225  1.3724
   36POPC   H8Y 4879   0.351   1.720  10.039 -1.6319 -0.2510 -1.5349
   36POPC   C39 4880   0.317   1.570   9.897  0.2391  0.3482 -0.2241
   36POPC   H9X 4881   0.214   1.600   9.867 -1.0455 -4.1332 -1.1441
   36POPC   H9Y 4882   0.320   1.459   9.899 -1.1794  0.2737 -1.2353
   36POPC  C310 4883   0.422   1.617   9.802 -0.3306 -0.4811 -0.8242
   36POPC  H10X 4884   0.528   1.609   9.833 -0.3313  1.1188 -0.3235
   36POPC  H10Y 4885   0.407   1.726   9.784 -0.2688 -0.5104 -1.0556
   36POPC  C311 4886   0.419   1.540   9.671  0.0889 -0.6103  0.6267
   36POPC  H11X 4887   0.314   1.532   9.634 -0.6577 -4.1743  2.9873
   36POPC  H11Y 4888   0.442   1.434   9.695  2.4911 -0.3665 -0.3137
   36POPC  C312 4889   0.504   1.590   9.564 -0.6178 -0.3113  0.4833
   36POPC  H12X 4890   0.485   1.698   9.542 -0.7663 -0.2258  1.0247
   36POPC  H12Y 4891   0.488   1.536   9.468  2.6353 -0.3789 -0.1321
   36POPC  C313 4892   0.649   1.562   9.600 -1.6946 -0.3217 -0.4549
   36POPC  H13X 4893   0.656   1.462   9.649  0.8349  0.9949  2.2122
   36POPC  H13Y 4894   0.692   1.645   9.659  0.2896 -1.7882  0.2777
   36POPC  C314 4895   0.744   1.537   9.472 -0.0594  0.5043 -0.5689
   36POPC  H14X 4896   0.688   1.470   9.402  1.5920 -0.4356 -1.0336
   36POPC  H14Y 4897   0.833   1.485   9.514  1.7094  2.1785 -2.0605
   36POPC  C315 4898   0.805   1.664   9.412  0.3246  0.2408 -0.3245
   36POPC  H15X 4899   0.857   1.719   9.493  0.9771  1.2339 -1.3896
   36POPC  H15Y 4900   0.721   1.727   9.375  0.3908 -0.5424 -1.8935
   36POPC  C316 4901   0.886   1.622   9.288 -0.2080 -0.4487 -0.6616
   36POPC  H16X 4902   0.970   1.554   9.312 -0.7576 -0.2971  1.9848
   36POPC  H16Y 4903   0.918   1.711   9.229 -2.5075 -0.7589 -2.5315
   36POPC  H16Z 4904   0.814   1.573   9.219 -1.8530 -0.4660  0.9830
   37POPC     N 4905   5.728   3.905   6.284  0.4814 -0.2014  0.5357
   37POPC   C12 4906   5.792   3.998   6.385  0.2913 -0.0117  1.3064
   37POPC  H12A 4907   5.748   4.094   6.364 -0.2001 -0.6089 -0.7006
   37POPC  H12B 4908   5.894   4.001   6.351 -0.6506 -0.8457 -2.0950
   37POPC   C13 4909   5.707   3.961   6.145 -0.2125 -0.3645  0.4222
   37POPC  H13A 4910   5.667   3.883   6.081  0.1746  0.1575 -0.4744
   37POPC  H13B 4911   5.637   4.043   6.146  0.1525 -0.0415 -0.1805
   37POPC  H13C 4912   5.792   4.002   6.092  0.1864 -0.2210  1.1694
   37POPC   C14 4913   5.815   3.787   6.264 -0.1474  0.0086  0.1091
   37POPC  H14A 4914   5.916   3.809   6.231 -0.0502 -0.4784  0.0715
   37POPC  H14B 4915   5.832   3.735   6.357 -3.2566 -0.5723  0.4657
   37POPC  H14C 4916   5.777   3.719   6.189 -0.9867 -0.7461  1.1880
   37POPC   C15 4917   5.599   3.855   6.330  0.3261  0.3005 -0.0018
   37POPC  H15A 4918   5.560   3.773   6.272  0.7053 -1.6204  2.2792
   37POPC  H15B 4919   5.521   3.929   6.323 -2.7566 -2.8054 -2.4720
   37POPC  H15C 4920   5.595   3.815   6.431 -0.4294  0.4603  0.0435
   37POPC   C11 4921   5.783   3.958   6.534 -0.0120 -0.3287 -0.0680
   37POPC  H11A 4922   5.678   3.940   6.568 -0.5005 -0.3346 -1.5090
   37POPC  H11B 4923   5.819   4.045   6.592 -0.4259 -0.1956 -0.0089
   37POPC     P 4924   6.007   3.849   6.624 -0.0410  0.1833 -0.3355
   37POPC   O13 4925   6.082   3.950   6.549 -0.3035 -0.0394 -0.2937
   37POPC   O14 4926   6.072   3.713   6.620 -0.5336 -0.0936  0.5829
   37POPC   O12 4927   5.862   3.840   6.563 -0.7295  0.3334 -0.0109
   37POPC   O11 4928   5.991   3.891   6.775 -0.4217 -0.2414  0.3560
   37POPC    C1 4929   5.900   3.837   6.870  0.7199  0.1556  0.2258
   37POPC    HA 4930   5.958   3.831   6.965  0.6460  1.7574  0.4050
   37POPC    HB 4931   5.860   3.738   6.841  2.0060 -0.0002 -1.1879
   37POPC    C2 4932   5.780   3.932   6.893 -0.1213  0.0236  0.6705
   37POPC    HS 4933   5.716   3.921   6.803 -0.7784  0.1006  1.1249
   37POPC   O21 4934   5.818   4.067   6.922 -0.1166  0.3482  0.1199
   37POPC   C21 4935   5.721   4.155   6.930  0.3963  0.5818 -0.2659
   37POPC   O22 4936   5.607   4.136   6.896 -0.7680  0.1433 -0.3961
   37POPC   C22 4937   5.775   4.278   7.002  0.0366 -0.1186  0.3746
   37POPC   H2R 4938   5.884   4.289   6.980  0.2316 -0.5675  1.0869
   37POPC   H2S 4939   5.764   4.266   7.112 -1.0370  2.1035  0.5745
   37POPC    C3 4940   5.702   3.870   7.012  0.4460 -0.0612 -0.4000
   37POPC    HX 4941   5.658   3.775   6.975  3.0014 -1.0058 -1.2670
   37POPC    HY 4942   5.614   3.932   7.038  0.0534 -1.1603  1.0361
   37POPC   O31 4943   5.786   3.857   7.126  0.3145 -0.2030  0.3361
   37POPC   C31 4944   5.773   3.957   7.212 -0.2365 -0.0540 -0.3958
   37POPC   O32 4945   5.685   4.042   7.208 -0.2962 -0.1178  0.7797
   37POPC   C32 4946   5.876   3.940   7.320  0.4600  0.2668  0.8183
   37POPC   H2X 4947   5.952   4.019   7.305  1.6734 -1.1619 -1.0995
   37POPC   H2Y 4948   5.923   3.839   7.315 -0.5820 -0.1932 -0.4513
   37POPC   C23 4949   5.700   4.403   6.958 -0.5706  0.1135 -0.0170
   37POPC   H3R 4950   5.591   4.383   6.954 -0.6554  0.6748 -0.5677
   37POPC   H3S 4951   5.742   4.425   6.858 -2.4240 -0.2469 -0.9099
   37POPC   C24 4952   5.728   4.527   7.041  0.4192  0.3773  0.5731
   37POPC   H4R 4953   5.679   4.606   6.980 -0.3055 -2.3973 -2.7665
   37POPC   H4S 4954   5.833   4.563   7.053  0.0109  1.9885 -0.3306
   37POPC   C25 4955   5.671   4.518   7.183 -0.9585  0.5172  0.2222
   37POPC   H5R 4956   5.714   4.437   7.246  0.3667  0.4231 -0.7586
   37POPC   H5S 4957   5.562   4.499   7.170 -0.8464  0.7977 -1.3258
   37POPC   C26 4958   5.694   4.656   7.247  0.2392 -0.0178  0.5507
   37POPC   H6R 4959   5.659   4.737   7.179  5.0186  1.9486  0.0685
   37POPC   H6S 4960   5.801   4.683   7.250  0.6946 -1.0657 -2.5405
   37POPC   C27 4961   5.628   4.645   7.386 -0.0306 -0.8235  0.1134
   37POPC   H7R 4962   5.659   4.551   7.437 -2.4024 -0.8764  1.6286
   37POPC   H7S 4963   5.522   4.618   7.362 -0.7493 -0.5488  2.6521
   37POPC   C28 4964   5.627   4.768   7.473 -0.0375 -0.3186 -0.0659
   37POPC   H8R 4965   5.527   4.752   7.518 -0.4146 -3.0356 -1.6720
   37POPC   H8S 4966   5.632   4.861   7.411  1.7614  0.1466  0.6996
   37POPC   C29 4967   5.739   4.779   7.575 -0.5853  0.5807 -0.2470
   37POPC   H91 4968   5.841   4.782   7.536 -0.2705 -3.2405 -0.0278
   37POPC  C210 4969   5.732   4.767   7.705 -0.0642 -0.5859  0.1964
   37POPC  H101 4970   5.827   4.766   7.760  1.1554 -1.7324 -1.8024
   37POPC  C211 4971   5.609   4.751   7.792  0.7705 -0.1795 -0.3101
   37POPC  H11R 4972   5.609   4.659   7.855 -0.0406  0.5358  0.7719
   37POPC  H11S 4973   5.512   4.754   7.739 -0.2431  0.7911  1.4997
   37POPC  C212 4974   5.608   4.876   7.881 -0.0122  0.4309  0.3400
   37POPC  H12R 4975   5.513   4.879   7.938  1.3740  0.9101  2.7800
   37POPC  H12S 4976   5.614   4.968   7.819  1.3969  1.0492  1.3322
   37POPC  C213 4977   5.716   4.882   7.985  0.3298  0.4142 -0.6307
   37POPC  H13R 4978   5.810   4.900   7.929  1.6851  0.2141  1.4741
   37POPC  H13S 4979   5.716   4.786   8.042 -0.5753  1.0647  0.5093
   37POPC  C214 4980   5.682   4.996   8.084  0.0057 -0.2378 -0.2472
   37POPC  H14R 4981   5.573   4.996   8.109 -0.0751 -1.3750 -0.5332
   37POPC  H14S 4982   5.723   5.089   8.041  1.6432 -0.2646  1.1688
   37POPC  C215 4983   5.764   4.975   8.215  0.3911  0.1298 -0.3538
   37POPC  H15R 4984   5.872   4.989   8.193  0.3704  0.2616 -0.3699
   37POPC  H15S 4985   5.750   4.870   8.249 -0.7262  1.0470  2.2188
   37POPC  C216 4986   5.721   5.071   8.323  0.3743 -0.3104 -0.9185
   37POPC  H16R 4987   5.631   5.037   8.377  0.5520  2.9307  1.7321
   37POPC  H16S 4988   5.691   5.171   8.284 -1.2556 -0.0467  0.8637
   37POPC  C217 4989   5.839   5.094   8.420  0.4247 -0.1934  0.1412
   37POPC  H17R 4990   5.921   5.143   8.362 -0.5847 -0.3865 -1.4988
   37POPC  H17S 4991   5.879   4.997   8.456 -0.8748 -0.8601 -0.1495
   37POPC  C218 4992   5.802   5.179   8.540 -0.0568  0.1224 -0.8767
   37POPC  H18R 4993   5.888   5.204   8.605 -1.9024  4.2168  0.3381
   37POPC  H18S 4994   5.723   5.133   8.603  0.3032 -1.6514 -1.6492
   37POPC  H18T 4995   5.765   5.279   8.507 -1.2484  0.8249  2.2552
   37POPC   C33 4996   5.809   3.956   7.456  0.2571  0.3115 -0.5175
   37POPC   H3X 4997   5.723   3.886   7.465  0.1013  0.3153 -1.7956
   37POPC   H3Y 4998   5.766   4.058   7.449 -1.0323 -0.2815 -1.6177
   37POPC   C34 4999   5.898   3.947   7.589  0.2799 -0.3680  0.9240
   37POPC   H4X 5000   5.968   4.032   7.573 -1.2666  0.8455  0.3068
   37POPC   H4Y 5001   5.951   3.850   7.582  2.3704  0.8406 -2.0339
   37POPC   C35 5002   5.810   3.970   7.713 -0.1296 -0.4605 -0.1308
   37POPC   H5X 5003   5.715   3.914   7.703 -0.5222 -0.1708  1.5670
   37POPC   H5Y 5004   5.791   4.079   7.718 -1.3213 -0.6801  0.5019
   37POPC   C36 5005   5.863   3.915   7.848 -0.4297  0.4972  0.0251
   37POPC   H6X 5006   5.973   3.932   7.851  0.1387 -2.4032 -1.5558
   37POPC   H6Y 5007   5.852   3.805   7.853 -0.5526  0.5561  2.0156
   37POPC   C37 5008   5.812   3.993   7.975  0.0121 -0.2167 -0.4135
   37POPC   H7X 5009   5.702   3.975   7.986 -0.0575 -1.1014 -2.0699
   37POPC   H7Y 5010   5.830   4.098   7.945 -0.5126  0.5199  1.6919
   37POPC   C38 5011   5.888   3.953   8.106 -0.4442  0.3046  0.2203
   37POPC   H8X 5012   5.988   4.001   8.102 -0.5011  0.4187  0.1607
   37POPC   H8Y 5013   5.907   3.844   8.108  1.3245  0.5419 -1.1087
   37POPC   C39 5014   5.813   3.997   8.234 -0.5248 -0.7057 -0.7877
   37POPC   H9X 5015   5.879   3.962   8.316  0.8600 -0.3117 -1.6903
   37POPC   H9Y 5016   5.716   3.943   8.244 -0.8674  0.1792  0.9350
   37POPC  C310 5017   5.778   4.149   8.242  0.3985  0.2556  1.3353
   37POPC  H10X 5018   5.715   4.170   8.153  1.9739  0.9401  0.3354
   37POPC  H10Y 5019   5.873   4.195   8.207 -0.3425 -0.4114 -1.8344
   37POPC  C311 5020   5.717   4.196   8.375 -0.1726  0.4151 -0.2800
   37POPC  H11X 5021   5.662   4.108   8.413 -1.2033  1.7890  1.5847
   37POPC  H11Y 5022   5.642   4.278   8.369  2.5871  3.1142 -0.8669
   37POPC  C312 5023   5.820   4.244   8.479  0.3080 -0.6275  0.5279
   37POPC  H12X 5024   5.861   4.346   8.467  0.4369 -0.7726 -0.3428
   37POPC  H12Y 5025   5.900   4.168   8.465  3.0433  2.2395 -0.6401
   37POPC  C313 5026   5.773   4.220   8.622  0.2518  0.4191 -0.6431
   37POPC  H13X 5027   5.739   4.115   8.636 -0.4460  0.9032  1.7465
   37POPC  H13Y 5028   5.682   4.281   8.640 -0.1620 -1.0403  3.0198
   37POPC  C314 5029   5.889   4.247   8.719  0.0921 -0.4177  0.6143
   37POPC  H14X 5030   5.909   4.356   8.716 -0.8157 -0.2532 -1.8163
   37POPC  H14Y 5031   5.978   4.194   8.679  1.0446  0.6863  1.2136
   37POPC  C315 5032   5.850   4.213   8.857 -0.0103 -0.0005 -0.1023
   37POPC  H15X 5033   5.869   4.105   8.874  1.3603 -0.0321 -1.5810
   37POPC  H15Y 5034   5.743   4.235   8.880 -0.2400 -0.4532 -0.6829
   37POPC  C316 5035   5.943   4.294   8.953  0.5378 -1.0576  0.1210
   37POPC  H16X 5036   6.045   4.251   8.955  1.2621  0.4441  3.5821
   37POPC  H16Y 5037   5.903   4.295   9.057  0.5675  2.1935  0.2038
   37POPC  H16Z 5038   5.937   4.403   8.933 -0.2210 -0.8073  1.5238
   38POPC     N 5039   5.993   6.417   6.714  0.2821  0.2537  0.0188
   38POPC   C12 5040   5.973   6.434   6.567 -0.2284 -0.4118  0.5240
   38POPC  H12A 5041   5.996   6.538   6.549 -0.1989 -0.4591  0.2817
   38POPC  H12B 5042   5.874   6.421   6.527  0.2043  0.9998 -1.1217
   38POPC   C13 5043   5.875   6.464   6.784 -0.4362 -0.0096 -0.6836
   38POPC  H13A 5044   5.788   6.405   6.763  1.2122 -1.9110 -2.6743
   38POPC  H13B 5045   5.886   6.470   6.891 -0.1247 -0.4814 -0.6898
   38POPC  H13C 5046   5.859   6.565   6.747  1.1611  0.2698 -0.6949
   38POPC   C14 5047   6.024   6.279   6.765  0.6580 -0.6714 -0.6040
   38POPC  H14A 5048   6.023   6.283   6.873  0.8348 -0.0979 -0.6234
   38POPC  H14B 5049   5.948   6.206   6.741  0.0793 -1.0441  2.0674
   38POPC  H14C 5050   6.121   6.251   6.725  0.4543 -0.4210 -1.2806
   38POPC   C15 5051   6.096   6.505   6.764  0.0074  0.0370  0.2848
   38POPC  H15A 5052   6.110   6.477   6.867  0.0136  1.3095  0.6521
   38POPC  H15B 5053   6.078   6.611   6.753 -1.7347 -0.3376 -0.8612
   38POPC  H15C 5054   6.191   6.486   6.716  0.2152 -0.0780  0.7347
   38POPC   C11 5055   6.066   6.355   6.472  0.9546  0.4176 -0.2629
   38POPC  H11A 5056   6.049   6.390   6.367  1.3076  0.8118 -0.1903
   38POPC  H11B 5057   6.034   6.249   6.481  1.5664  0.3570  1.3454
   38POPC     P 5058   6.312   6.264   6.496  0.2921  0.0767  0.2853
   38POPC   O13 5059   6.446   6.327   6.522  0.4206 -0.4107 -0.1567
   38POPC   O14 5060   6.293   6.174   6.379  0.0656 -0.5019  0.5406
   38POPC   O12 5061   6.204   6.376   6.494 -0.4160 -0.2678 -0.5498
   38POPC   O11 5062   6.282   6.189   6.631 -0.4995  0.4237  0.4907
   38POPC    C1 5063   6.255   6.049   6.649  0.1781 -0.2746  0.0706
   38POPC    HA 5064   6.331   5.998   6.586 -1.3420 -1.0236 -1.2239
   38POPC    HB 5065   6.152   6.022   6.618  0.5519 -0.4012 -1.1245
   38POPC    C2 5066   6.267   6.016   6.803  0.4765  0.2344  1.1239
   38POPC    HS 5067   6.300   5.910   6.797 -0.8824 -0.1287 -0.6538
   38POPC   O21 5068   6.138   6.024   6.868 -0.3705 -0.7969  0.1860
   38POPC   C21 5069   6.056   5.924   6.861 -0.3606 -0.1015 -0.1699
   38POPC   O22 5070   6.052   5.836   6.777 -0.1139  0.6640 -0.0673
   38POPC   C22 5071   5.939   5.933   6.966 -0.5069  0.1304 -0.0576
   38POPC   H2R 5072   5.858   5.872   6.919 -0.5921  0.3273 -0.1659
   38POPC   H2S 5073   5.903   6.034   6.994 -1.0206 -0.4762  1.6055
   38POPC    C3 5074   6.377   6.098   6.875 -0.8964  0.3422 -0.0894
   38POPC    HX 5075   6.343   6.203   6.886  1.0941  0.7626  3.5856
   38POPC    HY 5076   6.469   6.122   6.816 -0.2121  1.7275  1.4631
   38POPC   O31 5077   6.404   6.037   7.005 -0.0996 -0.4693 -0.0284
   38POPC   C31 5078   6.505   5.956   7.001  0.6286 -0.5215  0.4537
   38POPC   O32 5079   6.555   5.909   6.902 -0.0188 -0.1545 -0.2718
   38POPC   C32 5080   6.544   5.918   7.144  0.2560  0.2382 -0.0303
   38POPC   H2X 5081   6.469   5.849   7.189  2.0061 -1.1938  0.8115
   38POPC   H2Y 5082   6.546   6.010   7.207  2.0252 -0.0536  0.3851
   38POPC   C23 5083   5.971   5.866   7.102  0.2339  0.0709  0.6946
   38POPC   H3R 5084   6.037   5.778   7.090 -0.5162 -0.7505  2.1714
   38POPC   H3S 5085   5.878   5.837   7.156  0.1657 -0.6675  0.1922
   38POPC   C24 5086   6.056   5.955   7.200  0.1921 -0.1167 -0.4106
   38POPC   H4R 5087   6.000   6.036   7.251 -0.4038  0.0391 -1.3013
   38POPC   H4S 5088   6.131   6.012   7.141  0.5707 -1.4900 -1.3059
   38POPC   C25 5089   6.134   5.874   7.309 -0.3280  0.1384 -1.0070
   38POPC   H5R 5090   6.195   5.800   7.253 -0.3613 -0.2874 -0.4851
   38POPC   H5S 5091   6.055   5.822   7.368 -0.9350  1.3299 -0.7261
   38POPC   C26 5092   6.216   5.972   7.390  0.0706 -0.0487 -0.5007
   38POPC   H6R 5093   6.148   6.045   7.439 -0.6733 -0.4442 -0.9160
   38POPC   H6S 5094   6.284   6.018   7.316  0.7266  1.0338  0.7312
   38POPC   C27 5095   6.295   5.891   7.496  0.0282 -0.1579  0.0293
   38POPC   H7R 5096   6.387   5.861   7.442 -0.2487  0.0029 -0.5309
   38POPC   H7S 5097   6.231   5.804   7.521  0.5472 -0.8184 -0.9164
   38POPC   C28 5098   6.339   5.963   7.621  0.7135 -0.4971 -0.2793
   38POPC   H8R 5099   6.381   6.060   7.584  0.1713 -0.4545 -0.8024
   38POPC   H8S 5100   6.420   5.898   7.662 -1.7245 -2.9388  0.9648
   38POPC   C29 5101   6.235   6.004   7.726  0.8539 -0.3607  0.8064
   38POPC   H91 5102   6.131   5.996   7.693  1.0954  0.6826 -0.2855
   38POPC  C210 5103   6.246   6.028   7.855 -0.5517 -0.0096  0.4125
   38POPC  H101 5104   6.155   6.019   7.915 -1.2193  2.4876 -0.1228
   38POPC  C211 5105   6.377   6.026   7.935  0.4194  0.4407  0.0779
   38POPC  H11R 5106   6.454   6.008   7.857 -1.3176  2.0318 -2.1739
   38POPC  H11S 5107   6.371   5.937   8.001 -1.2089  0.2837 -0.2166
   38POPC  C212 5108   6.422   6.156   8.004  0.2734  0.8649 -0.8046
   38POPC  H12R 5109   6.341   6.198   8.066  0.8477 -0.0007  0.5677
   38POPC  H12S 5110   6.452   6.232   7.929  0.1661 -0.0838 -1.8397
   38POPC  C213 5111   6.551   6.128   8.084  0.7284 -0.5429  0.5001
   38POPC  H13R 5112   6.621   6.214   8.083  1.2803 -0.9725  0.9374
   38POPC  H13S 5113   6.597   6.052   8.017  0.9812 -0.0131  0.0739
   38POPC  C214 5114   6.527   6.073   8.224 -0.2129  0.2119  0.4054
   38POPC  H14R 5115   6.622   6.022   8.250 -0.5080 -0.6588 -0.1791
   38POPC  H14S 5116   6.448   5.996   8.212 -0.3678  0.6736 -2.1537
   38POPC  C215 5117   6.496   6.188   8.321 -0.2725 -0.5312 -0.7813
   38POPC  H15R 5118   6.398   6.233   8.294 -0.8131 -1.2513 -0.0728
   38POPC  H15S 5119   6.576   6.264   8.311  0.4670 -1.1238  0.4756
   38POPC  C216 5120   6.490   6.130   8.462 -0.0624 -0.0681 -0.2954
   38POPC  H16R 5121   6.595   6.099   8.479  0.3044  0.4078 -1.5865
   38POPC  H16S 5122   6.427   6.038   8.461  0.6596 -0.5996  0.7768
   38POPC  C217 5123   6.441   6.232   8.568 -0.7271 -1.1809  0.0635
   38POPC  H17R 5124   6.443   6.184   8.668 -0.9655 -1.3001  0.0116
   38POPC  H17S 5125   6.337   6.253   8.535  0.1031  1.4077 -1.2060
   38POPC  C218 5126   6.514   6.365   8.575 -0.0011  0.3506 -0.1471
   38POPC  H18R 5127   6.624   6.354   8.583 -0.1626 -1.0226  0.6936
   38POPC  H18S 5128   6.471   6.426   8.657 -0.6611  2.0631 -1.6962
   38POPC  H18T 5129   6.495   6.426   8.485 -0.7740  0.0200 -0.2232
   38POPC   C33 5130   6.676   5.837   7.160 -0.5579  0.2065  1.3901
   38POPC   H3X 5131   6.762   5.903   7.134  0.1282 -0.3153  2.2453
   38POPC   H3Y 5132   6.666   5.752   7.089  0.3190  1.0066  0.2718
   38POPC   C34 5133   6.696   5.780   7.305  0.5928 -0.3897 -0.8677
   38POPC   H4X 5134   6.796   5.733   7.297 -0.4690 -2.5788 -2.3852
   38POPC   H4Y 5135   6.618   5.706   7.335  1.7116 -0.9494  0.8152
   38POPC   C35 5136   6.700   5.891   7.411 -0.4877 -0.2683 -0.3422
   38POPC   H5X 5137   6.601   5.940   7.415 -0.3387 -0.0113  0.1657
   38POPC   H5Y 5138   6.772   5.974   7.395 -1.1299  0.2417 -0.6393
   38POPC   C36 5139   6.733   5.839   7.552  0.5568  0.6459 -0.0857
   38POPC   H6X 5140   6.710   5.919   7.626 -1.4673  0.9755 -0.9868
   38POPC   H6Y 5141   6.841   5.818   7.562  0.5222  1.3165  2.4027
   38POPC   C37 5142   6.667   5.705   7.590 -0.1186  0.5259  0.4183
   38POPC   H7X 5143   6.726   5.619   7.552 -0.5108 -0.3788  1.7572
   38POPC   H7Y 5144   6.564   5.689   7.553 -0.6812 -1.1785  2.5102
   38POPC   C38 5145   6.650   5.685   7.742 -0.2204  1.2166  0.2644
   38POPC   H8X 5146   6.573   5.608   7.766  1.6800 -1.2650 -1.0971
   38POPC   H8Y 5147   6.620   5.786   7.776  1.5781  1.8308  0.1446
   38POPC   C39 5148   6.784   5.656   7.813  0.2550 -0.2061  0.0093
   38POPC   H9X 5149   6.842   5.749   7.796 -0.8929  0.6945  0.8695
   38POPC   H9Y 5150   6.826   5.565   7.766  0.9108  0.6863 -1.2087
   38POPC  C310 5151   6.764   5.637   7.967  0.2519 -0.9140  0.1145
   38POPC  H10X 5152   6.855   5.672   8.020 -2.0097  2.8331  2.0094
   38POPC  H10Y 5153   6.757   5.528   7.984  2.3495 -0.8565  1.6862
   38POPC  C311 5154   6.654   5.715   8.021  0.7175  0.4270  0.2429
   38POPC  H11X 5155   6.557   5.673   7.986  0.1159  1.8685  0.0731
   38POPC  H11Y 5156   6.658   5.820   7.984 -1.4757  1.2684  2.1171
   38POPC  C312 5157   6.651   5.707   8.172 -0.0294 -0.0752 -0.2891
   38POPC  H12X 5158   6.605   5.610   8.203  0.1975 -0.8251 -2.1536
   38POPC  H12Y 5159   6.569   5.775   8.202  0.5808  0.2923  0.5768
   38POPC  C313 5160   6.780   5.739   8.256  0.0128  0.5069 -0.0937
   38POPC  H13X 5161   6.821   5.837   8.221 -2.5767  1.2967 -1.1883
   38POPC  H13Y 5162   6.850   5.657   8.232  0.0633  0.7702 -0.9083
   38POPC  C314 5163   6.763   5.748   8.406 -0.1627 -0.2426  0.1350
   38POPC  H14X 5164   6.712   5.659   8.448  1.8844 -1.1383  0.8582
   38POPC  H14Y 5165   6.714   5.845   8.429  2.4788  0.9930  0.8879
   38POPC  C315 5166   6.896   5.734   8.487  0.0230  0.2645 -0.7154
   38POPC  H15X 5167   6.960   5.671   8.421 -0.4527  0.7946 -1.7092
   38POPC  H15Y 5168   6.881   5.690   8.588  1.1336  2.3259  0.4179
   38POPC  C316 5169   6.975   5.867   8.519 -0.3152  0.4675  0.7623
   38POPC  H16X 5170   7.013   5.921   8.430 -1.8784 -1.0792 -0.9338
   38POPC  H16Y 5171   7.057   5.853   8.593 -0.4035 -0.5115  0.6926
   38POPC  H16Z 5172   6.909   5.932   8.581  0.2176  1.1950  0.5731
   39POPC     N 5173   5.816   2.776   6.472 -0.2298  0.5529  0.0113
   39POPC   C12 5174   5.968   2.766   6.490 -0.0513 -0.3802  0.1871
   39POPC  H12A 5175   5.993   2.688   6.560  1.1749 -1.1578 -1.0707
   39POPC  H12B 5176   6.005   2.857   6.534  3.4182 -1.9614  0.8314
   39POPC   C13 5177   5.758   2.800   6.606  0.4110 -0.4665 -1.2766
   39POPC  H13A 5178   5.753   2.905   6.631  0.3883 -0.8186  0.3050
   39POPC  H13B 5179   5.657   2.763   6.611  0.7987 -1.3726  0.4828
   39POPC  H13C 5180   5.819   2.761   6.686 -1.0199  1.3120  0.7920
   39POPC   C14 5181   5.773   2.889   6.384 -0.6136 -0.3697 -0.1379
   39POPC  H14A 5182   5.831   2.978   6.405 -0.3275 -0.8705  1.2621
   39POPC  H14B 5183   5.797   2.881   6.279 -0.8587  1.3792 -0.3551
   39POPC  H14C 5184   5.669   2.911   6.399 -0.7145  0.6121 -1.9233
   39POPC   C15 5185   5.756   2.648   6.432 -0.2770  0.7118  0.0040
   39POPC  H15A 5186   5.805   2.610   6.343  2.2224  3.0322  0.2740
   39POPC  H15B 5187   5.649   2.651   6.416 -0.2055  1.5422 -0.3725
   39POPC  H15C 5188   5.766   2.569   6.505 -1.5532 -1.3858 -1.9234
   39POPC   C11 5189   6.058   2.735   6.373 -0.0168 -0.0706  0.5055
   39POPC  H11A 5190   6.160   2.765   6.405 -0.1248  0.3204  0.4915
   39POPC  H11B 5191   6.031   2.810   6.295 -1.3266  1.1335  2.0365
   39POPC     P 5192   6.132   2.492   6.411 -0.0780  0.4321 -0.5860
   39POPC   O13 5193   6.274   2.522   6.392 -0.3696 -0.0899 -0.1274
   39POPC   O14 5194   6.085   2.352   6.380  1.0513 -0.3003  0.0397
   39POPC   O12 5195   6.053   2.600   6.329 -0.3098  0.6834 -0.0130
   39POPC   O11 5196   6.099   2.520   6.568 -0.1544  0.1881  0.3460
   39POPC    C1 5197   6.113   2.414   6.661 -0.2804 -0.4423 -0.5975
   39POPC    HA 5198   6.133   2.465   6.757  1.0216  2.3170 -2.2087
   39POPC    HB 5199   6.196   2.344   6.636  1.0544 -0.5305  3.4056
   39POPC    C2 5200   5.985   2.331   6.683  0.4628 -0.1774  0.3306
   39POPC    HS 5201   5.951   2.308   6.580  3.6626 -2.0932 -0.4585
   39POPC   O21 5202   5.893   2.400   6.766  0.1271 -0.5535 -0.3142
   39POPC   C21 5203   5.771   2.350   6.763 -0.5075 -0.5016  0.9632
   39POPC   O22 5204   5.742   2.252   6.691  0.7695 -0.5301  0.0986
   39POPC   C22 5205   5.688   2.424   6.860  1.3215  0.1334 -1.2719
   39POPC   H2R 5206   5.590   2.372   6.859  1.0178  0.6370  0.0300
   39POPC   H2S 5207   5.675   2.530   6.828 -0.0433  0.7096  0.9435
   39POPC    C3 5208   6.027   2.197   6.747 -0.6108  0.5539  0.0888
   39POPC    HX 5209   6.085   2.146   6.667 -0.1988 -0.8180  1.2148
   39POPC    HY 5210   5.935   2.135   6.759 -2.0800  2.5814 -0.1075
   39POPC   O31 5211   6.110   2.214   6.867  0.0152 -0.2280  0.4044
   39POPC   C31 5212   6.044   2.202   6.981 -0.4047 -0.0725  1.0253
   39POPC   O32 5213   5.930   2.159   6.997 -0.5273  0.1273  0.1207
   39POPC   C32 5214   6.144   2.239   7.094  0.1250 -0.2174  0.3652
   39POPC   H2X 5215   6.194   2.147   7.130 -0.7513 -1.0889 -0.6003
   39POPC   H2Y 5216   6.212   2.308   7.039 -0.3993 -0.8347 -1.1203
   39POPC   C23 5217   5.733   2.424   7.010  0.5760  0.7776  0.3866
   39POPC   H3R 5218   5.834   2.471   7.017  0.0141  2.3362 -1.2291
   39POPC   H3S 5219   5.732   2.323   7.058  0.0811  0.6516  0.1206
   39POPC   C24 5220   5.648   2.510   7.098 -0.6513 -0.5247  0.1202
   39POPC   H4R 5221   5.545   2.470   7.105 -0.5252 -0.6362  1.7772
   39POPC   H4S 5222   5.631   2.612   7.058  0.7311 -0.0950  0.5732
   39POPC   C25 5223   5.714   2.523   7.239 -0.3481 -0.2951 -0.3591
   39POPC   H5R 5224   5.809   2.581   7.237 -0.7111  0.3792  0.7922
   39POPC   H5S 5225   5.722   2.419   7.278 -2.8780  0.5255  2.8271
   39POPC   C26 5226   5.641   2.612   7.346 -0.0727  0.5186 -0.1294
   39POPC   H6R 5227   5.533   2.591   7.333 -0.1101  1.3902 -1.3592
   39POPC   H6S 5228   5.652   2.717   7.311 -0.0213  0.4680 -0.2644
   39POPC   C27 5229   5.672   2.583   7.499 -0.1405  0.5664  0.2533
   39POPC   H7R 5230   5.775   2.611   7.530  0.0814 -2.2003  2.3432
   39POPC   H7S 5231   5.669   2.473   7.513  2.0691  0.4939  0.4874
   39POPC   C28 5232   5.579   2.632   7.605  0.5530 -0.3529  0.0504
   39POPC   H8R 5233   5.474   2.609   7.577  1.0446 -0.1743 -2.2065
   39POPC   H8S 5234   5.576   2.743   7.615 -0.6551 -0.3370 -0.2588
   39POPC   C29 5235   5.632   2.574   7.736  0.4392 -0.2557  0.9549
   39POPC   H91 5236   5.741   2.560   7.740  0.5818 -0.2216 -1.5043
   39POPC  C210 5237   5.557   2.524   7.832 -0.5346  0.0216 -0.2101
   39POPC  H101 5238   5.610   2.474   7.915  0.4426  0.5912 -0.4789
   39POPC  C211 5239   5.411   2.513   7.840  1.2440 -0.3269 -0.0762
   39POPC  H11R 5240   5.362   2.468   7.751 -0.5449  2.4094 -0.6036
   39POPC  H11S 5241   5.373   2.617   7.853  0.3936 -0.6949  0.5361
   39POPC  C212 5242   5.374   2.432   7.965  0.0943  0.4646  0.4057
   39POPC  H12R 5243   5.429   2.458   8.058  0.5046 -0.0498  0.3157
   39POPC  H12S 5244   5.395   2.325   7.942 -3.2977 -0.5812  1.5437
   39POPC  C213 5245   5.220   2.447   7.994 -0.6381  0.2090  0.0755
   39POPC  H13R 5246   5.165   2.420   7.901  1.4233 -0.2947 -1.0622
   39POPC  H13S 5247   5.201   2.556   7.999 -1.3623  0.0945  0.0452
   39POPC  C214 5248   5.185   2.370   8.125  0.4363  0.9989 -0.6848
   39POPC  H14R 5249   5.092   2.416   8.164 -0.2953  0.1686 -1.4153
   39POPC  H14S 5250   5.264   2.393   8.200  0.4395 -1.2078  0.0566
   39POPC  C215 5251   5.176   2.214   8.117 -0.3291  0.2640  0.8518
   39POPC  H15R 5252   5.277   2.192   8.076  0.0582 -0.4621  2.1401
   39POPC  H15S 5253   5.101   2.186   8.039 -0.8628 -0.2352  1.5241
   39POPC  C216 5254   5.152   2.140   8.245  0.7847  0.2941  0.1974
   39POPC  H16R 5255   5.153   2.032   8.221  2.4554  0.6840 -1.6363
   39POPC  H16S 5256   5.054   2.165   8.292  2.2839  1.0164  3.1954
   39POPC  C217 5257   5.267   2.143   8.352 -0.4164 -0.2802  0.0636
   39POPC  H17R 5258   5.263   2.247   8.392 -1.4171 -0.5487  0.6990
   39POPC  H17S 5259   5.356   2.129   8.287 -1.7322 -1.7375 -1.5360
   39POPC  C218 5260   5.271   2.038   8.457  0.0216 -0.5402 -0.0850
   39POPC  H18R 5261   5.362   2.026   8.519 -0.5661 -1.0516  0.6998
   39POPC  H18S 5262   5.242   1.938   8.418  1.1210  0.9079 -5.4468
   39POPC  H18T 5263   5.192   2.068   8.529  1.1627  1.1982  0.4910
   39POPC   C33 5264   6.080   2.310   7.220 -0.5894  0.2862  0.0700
   39POPC   H3X 5265   6.025   2.402   7.193 -1.5578 -0.4609 -0.5552
   39POPC   H3Y 5266   6.164   2.326   7.292 -0.0141 -3.2677  0.3870
   39POPC   C34 5267   5.978   2.221   7.292 -0.7012  0.4298 -0.1126
   39POPC   H4X 5268   6.021   2.119   7.300  1.5434  1.3039 -0.1796
   39POPC   H4Y 5269   5.894   2.204   7.221  1.3467 -3.2517 -1.9046
   39POPC   C35 5270   5.943   2.266   7.434  0.5205  0.0509  0.0401
   39POPC   H5X 5271   5.910   2.372   7.428 -1.5486 -0.4903  0.7782
   39POPC   H5Y 5272   6.034   2.266   7.498 -0.6623  0.1392  1.8078
   39POPC   C36 5273   5.840   2.170   7.504  0.1912 -0.4895  0.0478
   39POPC   H6X 5274   5.871   2.065   7.486 -1.5394 -0.7386 -1.9300
   39POPC   H6Y 5275   5.739   2.180   7.458  0.0641  2.6152  0.7497
   39POPC   C37 5276   5.835   2.196   7.654  0.4491 -0.9190  0.0416
   39POPC   H7X 5277   5.816   2.304   7.674 -0.8191 -0.9661 -0.8008
   39POPC   H7Y 5278   5.929   2.168   7.706  0.8268  1.1126  0.5655
   39POPC   C38 5279   5.721   2.124   7.726  0.2799  0.8232  0.2294
   39POPC   H8X 5280   5.741   2.016   7.708  0.7004  0.6265  1.7170
   39POPC   H8Y 5281   5.621   2.151   7.684  0.2418  1.7441  0.8950
   39POPC   C39 5282   5.706   2.137   7.879 -0.4967  0.3009 -0.0495
   39POPC   H9X 5283   5.702   2.245   7.906 -0.1032  0.2230  0.3191
   39POPC   H9Y 5284   5.803   2.103   7.921 -0.2737 -1.1958 -1.6467
   39POPC  C310 5285   5.597   2.060   7.947  0.4460 -0.0578 -0.0264
   39POPC  H10X 5286   5.602   1.955   7.910  1.0731 -0.4439  1.1131
   39POPC  H10Y 5287   5.498   2.099   7.916  1.8149  3.4796 -0.3473
   39POPC  C311 5288   5.610   2.073   8.104  0.6031  0.1033 -1.2668
   39POPC  H11X 5289   5.714   2.047   8.133 -0.2085 -0.7176  1.1186
   39POPC  H11Y 5290   5.539   2.005   8.154  2.4668 -2.9941 -2.5582
   39POPC  C312 5291   5.600   2.210   8.162  0.0652 -0.8674 -0.1684
   39POPC  H12X 5292   5.495   2.244   8.156  0.0871 -0.6617  0.6062
   39POPC  H12Y 5293   5.667   2.287   8.116 -3.8414  2.4611 -0.9103
   39POPC  C313 5294   5.643   2.208   8.312  0.6321 -0.4433  0.7619
   39POPC  H13X 5295   5.753   2.189   8.310  0.8570  0.8944 -0.4114
   39POPC  H13Y 5296   5.595   2.123   8.366  1.4001 -0.0775  2.0670
   39POPC  C314 5297   5.597   2.333   8.393 -0.0599  0.9257  0.1006
   39POPC  H14X 5298   5.615   2.318   8.502  2.1588  1.2027 -0.1818
   39POPC  H14Y 5299   5.487   2.350   8.384  0.1889  2.1620 -0.8548
   39POPC  C315 5300   5.664   2.457   8.346 -0.0032 -0.0230  0.2103
   39POPC  H15X 5301   5.623   2.479   8.245 -0.1399 -1.8571 -0.1683
   39POPC  H15Y 5302   5.773   2.436   8.348  0.4726  2.2324  1.7704
   39POPC  C316 5303   5.639   2.579   8.432  0.4653 -0.5815 -0.5455
   39POPC  H16X 5304   5.708   2.660   8.399 -1.5740  0.8267 -1.5518
   39POPC  H16Y 5305   5.676   2.549   8.532  0.7443  0.6034 -0.2747
   39POPC  H16Z 5306   5.535   2.617   8.427 -0.4972 -3.0201 -0.4064
   40POPC     N 5307   3.252   0.443   6.413 -0.3689  0.2196 -0.4707
   40POPC   C12 5308   3.332   0.549   6.484 -0.2793  0.1275  0.1899
   40POPC  H12A 5309   3.263   0.631   6.499 -1.1526  0.2555 -3.4905
   40POPC  H12B 5310   3.409   0.598   6.426 -0.9392  0.8065 -0.1392
   40POPC   C13 5311   3.146   0.388   6.499  0.3064  0.7299  0.4972
   40POPC  H13A 5312   3.093   0.307   6.451 -0.3402  1.9541 -0.9480
   40POPC  H13B 5313   3.193   0.339   6.583  0.8202  1.7886  0.8475
   40POPC  H13C 5314   3.082   0.469   6.531 -1.1874  0.6058 -1.8920
   40POPC   C14 5315   3.199   0.506   6.290  0.6670 -0.6464 -0.2276
   40POPC  H14A 5316   3.134   0.590   6.313  0.6877 -0.5484 -0.5240
   40POPC  H14B 5317   3.278   0.555   6.235 -1.0376  0.6498 -1.6472
   40POPC  H14C 5318   3.146   0.438   6.225  0.6124  0.8465 -1.8318
   40POPC   C15 5319   3.345   0.330   6.376  0.2281  0.0370  0.2436
   40POPC  H15A 5320   3.370   0.290   6.473  0.0463 -0.0911  0.2373
   40POPC  H15B 5321   3.434   0.375   6.334 -1.2636  1.9701 -1.0372
   40POPC  H15C 5322   3.292   0.267   6.306  0.8677  0.1406 -0.3542
   40POPC   C11 5323   3.394   0.511   6.626 -0.4522  0.3222 -0.0783
   40POPC  H11A 5324   3.312   0.457   6.678 -0.7456  0.2303 -0.6341
   40POPC  H11B 5325   3.415   0.607   6.679 -2.1489  0.4470  0.4206
   40POPC     P 5326   3.644   0.526   6.572 -0.3458  0.1104 -0.4547
   40POPC   O13 5327   3.607   0.588   6.441 -0.0173  0.0938 -0.1098
   40POPC   O14 5328   3.768   0.441   6.577  0.2063 -0.1033 -0.1796
   40POPC   O12 5329   3.518   0.437   6.611  0.4827 -0.4958 -0.0906
   40POPC   O11 5330   3.659   0.637   6.685  0.1892  0.2957 -0.1433
   40POPC    C1 5331   3.637   0.605   6.818 -0.2812  0.6337 -0.0562
   40POPC    HA 5332   3.580   0.511   6.834  0.9077 -0.4259 -1.7241
   40POPC    HB 5333   3.573   0.675   6.874  0.2829  0.4561  0.8403
   40POPC    C2 5334   3.773   0.585   6.893  0.5656 -0.3438  0.5584
   40POPC    HS 5335   3.801   0.481   6.866 -1.3592 -0.6741 -0.3166
   40POPC   O21 5336   3.762   0.613   7.031  0.1202  0.7251  0.8880
   40POPC   C21 5337   3.720   0.515   7.111 -0.5791  0.1441 -0.7134
   40POPC   O22 5338   3.705   0.397   7.082 -0.7279  0.2498 -0.5318
   40POPC   C22 5339   3.669   0.569   7.251  1.1665  0.6462  0.9291
   40POPC   H2R 5340   3.574   0.619   7.222  1.5764  1.3957  0.8417
   40POPC   H2S 5341   3.738   0.643   7.297 -0.6459  1.3186  2.7120
   40POPC    C3 5342   3.878   0.678   6.836  0.0067 -0.2442  1.2244
   40POPC    HX 5343   3.842   0.783   6.846  2.3808  0.5176  2.7530
   40POPC    HY 5344   3.907   0.670   6.729  1.1090 -1.8570  1.6026
   40POPC   O31 5345   4.000   0.667   6.912 -0.0130 -0.4128  0.3988
   40POPC   C31 5346   4.081   0.775   6.910  0.3332  0.5967 -0.0183
   40POPC   O32 5347   4.073   0.866   6.834 -0.0904 -0.0298 -0.3801
   40POPC   C32 5348   4.171   0.767   7.033 -0.1001  0.3370 -0.4431
   40POPC   H2X 5349   4.273   0.799   7.001  0.3649 -1.6046 -1.0040
   40POPC   H2Y 5350   4.177   0.662   7.069 -1.4757  0.2392 -0.4706
   40POPC   C23 5351   3.639   0.456   7.348  0.3107 -0.4355 -0.6645
   40POPC   H3R 5352   3.723   0.394   7.386  0.8339  0.5945 -0.0654
   40POPC   H3S 5353   3.567   0.385   7.305  0.1516 -0.5043 -0.2899
   40POPC   C24 5354   3.561   0.509   7.470  0.6950  0.1580 -0.3288
   40POPC   H4R 5355   3.473   0.565   7.432  0.4690 -0.8355 -1.3006
   40POPC   H4S 5356   3.634   0.577   7.520 -0.8068  0.4831  1.5467
   40POPC   C25 5357   3.521   0.396   7.565 -0.1136  0.4424  0.0031
   40POPC   H5R 5358   3.610   0.339   7.600 -1.1080 -2.7395 -2.1782
   40POPC   H5S 5359   3.455   0.317   7.522  0.7626 -0.1281 -0.3250
   40POPC   C26 5360   3.447   0.450   7.688 -0.2060  0.2828  0.6472
   40POPC   H6R 5361   3.370   0.522   7.653 -0.6048  1.3037  3.3324
   40POPC   H6S 5362   3.518   0.506   7.753  0.5825  0.5458 -0.4216
   40POPC   C27 5363   3.381   0.340   7.774  0.9585 -0.3078 -0.3476
   40POPC   H7R 5364   3.343   0.259   7.708 -1.1607  0.9521 -0.7514
   40POPC   H7S 5365   3.287   0.386   7.809  0.7666 -1.5471  0.8671
   40POPC   C28 5366   3.455   0.286   7.891  0.5317  0.4128 -0.3237
   40POPC   H8R 5367   3.507   0.360   7.956 -2.1531  0.6054  1.7895
   40POPC   H8S 5368   3.534   0.223   7.844 -0.3340 -1.4439  0.5873
   40POPC   C29 5369   3.368   0.200   7.984  0.0834 -0.7570  0.4237
   40POPC   H91 5370   3.281   0.149   7.940 -0.5513  0.8697 -0.2906
   40POPC  C210 5371   3.400   0.187   8.117 -0.1412  0.3173  0.6079
   40POPC  H101 5372   3.326   0.123   8.168  0.1437 -0.3580  0.1916
   40POPC  C211 5373   3.516   0.255   8.194 -0.0134  0.4014  0.3350
   40POPC  H11R 5374   3.571   0.325   8.128 -0.5467 -0.3596 -0.9463
   40POPC  H11S 5375   3.586   0.181   8.239 -1.7919 -2.0784 -0.7492
   40POPC  C212 5376   3.447   0.337   8.310 -0.1323 -0.0222  0.0715
   40POPC  H12R 5377   3.361   0.400   8.278 -0.1609  1.2991  2.5665
   40POPC  H12S 5378   3.518   0.388   8.377  0.2836  0.9525 -1.0700
   40POPC  C213 5379   3.364   0.238   8.403 -0.0268  0.4922 -0.4014
   40POPC  H13R 5380   3.425   0.150   8.434 -0.4788  0.7004  1.1554
   40POPC  H13S 5381   3.275   0.194   8.354 -1.5525  1.1426  1.6786
   40POPC  C214 5382   3.316   0.304   8.535  0.3521  0.8279 -0.0850
   40POPC  H14R 5383   3.391   0.374   8.577  0.3442  2.4222 -2.5284
   40POPC  H14S 5384   3.307   0.218   8.605  0.0838 -0.8107 -2.0468
   40POPC  C215 5385   3.187   0.384   8.521 -0.4618  0.4456 -0.4307
   40POPC  H15R 5386   3.110   0.310   8.490 -1.1226  0.1514  1.7070
   40POPC  H15S 5387   3.206   0.462   8.444  0.8800 -0.1027 -0.6932
   40POPC  C216 5388   3.139   0.422   8.665 -0.2014 -0.6162  0.3651
   40POPC  H16R 5389   3.213   0.495   8.704  0.9173 -1.4441 -0.1376
   40POPC  H16S 5390   3.138   0.331   8.729  4.1544  0.0868  1.7734
   40POPC  C217 5391   3.010   0.501   8.664  0.4218  0.8336 -0.2726
   40POPC  H17R 5392   2.963   0.506   8.764 -2.0681 -0.4009 -1.2846
   40POPC  H17S 5393   2.938   0.436   8.609 -0.2462 -2.0949  3.6162
   40POPC  C218 5394   3.017   0.633   8.590  0.2368  0.0325  0.4600
   40POPC  H18R 5395   3.007   0.611   8.482  2.3928  0.0721  0.2026
   40POPC  H18S 5396   3.114   0.684   8.608  0.0079  0.1944  1.2810
   40POPC  H18T 5397   2.929   0.698   8.611  0.9948  1.3770 -0.3746
   40POPC   C33 5398   4.117   0.851   7.152 -0.0406 -0.1086  0.5273
   40POPC   H3X 5399   4.119   0.959   7.129  0.7005 -0.3495 -0.6210
   40POPC   H3Y 5400   4.189   0.828   7.234 -1.3301 -3.2134  0.9250
   40POPC   C34 5401   3.983   0.799   7.201  0.2767 -0.5216 -0.4956
   40POPC   H4X 5402   3.990   0.690   7.221 -0.4501 -0.5958 -0.6096
   40POPC   H4Y 5403   3.908   0.814   7.120 -1.3594  0.0421  1.0630
   40POPC   C35 5404   3.929   0.872   7.324  0.9014 -0.1957 -0.4318
   40POPC   H5X 5405   3.837   0.815   7.349 -0.1885  1.6338 -0.1113
   40POPC   H5Y 5406   3.903   0.977   7.301  2.1900  0.4991  1.1019
   40POPC   C36 5407   4.023   0.880   7.445  0.1703  0.1253 -0.8132
   40POPC   H6X 5408   3.975   0.940   7.525 -0.4351  0.7915 -1.6587
   40POPC   H6Y 5409   4.111   0.939   7.413 -0.3546  0.5807 -1.4711
   40POPC   C37 5410   4.070   0.742   7.496 -0.8129 -0.0967 -0.9425
   40POPC   H7X 5411   4.152   0.752   7.570 -1.5942  1.9671 -0.2716
   40POPC   H7Y 5412   4.105   0.676   7.413 -0.3601  0.3024 -1.0714
   40POPC   C38 5413   3.950   0.668   7.555 -0.0145 -0.2495  0.8515
   40POPC   H8X 5414   3.984   0.563   7.572 -0.7015 -0.5231  0.5314
   40POPC   H8Y 5415   3.870   0.669   7.479  2.4722  1.6732 -1.9805
   40POPC   C39 5416   3.878   0.727   7.682 -0.5673  0.1844 -0.0951
   40POPC   H9X 5417   3.788   0.667   7.704 -0.7186 -0.1343 -1.4673
   40POPC   H9Y 5418   3.849   0.834   7.668  0.5488  0.8889  2.4079
   40POPC  C310 5419   3.975   0.730   7.806 -0.1495 -0.2554 -0.3471
   40POPC  H10X 5420   4.052   0.808   7.787 -2.3625  1.8430 -1.2441
   40POPC  H10Y 5421   4.022   0.632   7.825  2.1394  0.9995  0.8507
   40POPC  C311 5422   3.898   0.766   7.936  0.8050  0.1296 -0.5707
   40POPC  H11X 5423   3.818   0.839   7.908  0.7714  0.7619  1.0658
   40POPC  H11Y 5424   3.964   0.823   8.005 -1.8901 -0.0939  2.3942
   40POPC  C312 5425   3.843   0.637   8.011  0.1846 -0.4570 -0.5039
   40POPC  H12X 5426   3.930   0.587   8.058 -0.0924 -0.4496  0.0185
   40POPC  H12Y 5427   3.787   0.565   7.947  0.5710 -0.8490 -0.4071
   40POPC  C313 5428   3.738   0.684   8.113 -0.4148 -0.2666  0.1495
   40POPC  H13X 5429   3.661   0.609   8.138 -2.8504  2.4250  1.2505
   40POPC  H13Y 5430   3.679   0.768   8.070 -1.8566 -1.1426  0.3739
   40POPC  C314 5431   3.806   0.725   8.249 -0.8175 -0.7621 -0.4418
   40POPC  H14X 5432   3.724   0.777   8.303 -0.7241 -1.2454  0.1755
   40POPC  H14Y 5433   3.890   0.795   8.231  0.1602 -1.7128  0.2994
   40POPC  C315 5434   3.853   0.607   8.334  0.0104  0.1980 -0.6390
   40POPC  H15X 5435   3.917   0.535   8.278  0.0307  0.9540 -1.6250
   40POPC  H15Y 5436   3.764   0.545   8.359 -0.0771 -0.1452 -1.7573
   40POPC  C316 5437   3.936   0.656   8.452 -0.1195 -0.4392 -0.0096
   40POPC  H16X 5438   3.870   0.729   8.503  1.2102  1.3900 -0.8268
   40POPC  H16Y 5439   4.034   0.694   8.417  0.1652 -1.7672 -0.7403
   40POPC  H16Z 5440   3.943   0.573   8.526 -2.6850 -0.4107  0.3647
   41CHL1    C3 5441   6.061   5.288  10.382  0.3375 -0.2591 -1.0399
   41CHL1    H3 5442   6.061   5.391  10.341 -2.6441  0.1945 -0.1343
   41CHL1    O3 5443   6.036   5.286  10.521  0.3419  0.5226  0.0186
   41CHL1   H3' 5444   6.086   5.214  10.560  1.0628 -0.3232 -2.3347
   41CHL1    C4 5445   5.958   5.203  10.312  0.0086  0.2388  0.0799
   41CHL1   H4A 5446   5.950   5.098  10.345 -0.2674  0.8054  1.9406
   41CHL1   H4B 5447   5.858   5.249  10.330  0.2778  1.7036 -1.7431
   41CHL1    C5 5448   5.986   5.209  10.167 -0.2254  0.3974 -0.2932
   41CHL1    C6 5449   5.895   5.243  10.081 -0.7286 -0.2216  0.0464
   41CHL1    H6 5450   5.802   5.291  10.115  0.1284  0.7401  1.1136
   41CHL1    C7 5451   5.912   5.220   9.931  0.0296  0.1758 -0.4594
   41CHL1   H7A 5452   5.828   5.168   9.880  2.6238 -4.2028 -0.7245
   41CHL1   H7B 5453   5.928   5.318   9.882 -0.4867  0.3155 -0.3565
   41CHL1    C8 5454   6.036   5.134   9.891  0.2208 -0.1160  0.3494
   41CHL1    H8 5455   6.008   5.026   9.898  1.2991 -0.4250  0.0787
   41CHL1   C14 5456   6.069   5.159   9.744  0.2127 -0.7204 -0.3211
   41CHL1   H14 5457   6.102   5.265   9.744  3.0730 -1.5020  0.9876
   41CHL1   C15 5458   5.960   5.159   9.637 -0.3281 -0.1061  0.2955
   41CHL1  H15A 5459   5.893   5.072   9.648  1.7359 -1.9324 -0.8971
   41CHL1  H15B 5460   5.908   5.258   9.639 -0.0898  0.2890 -3.8685
   41CHL1   C16 5461   6.037   5.134   9.501  0.1480 -0.2303  0.1018
   41CHL1  H16A 5462   6.017   5.033   9.459 -0.0216  0.6816 -2.1604
   41CHL1  H16B 5463   6.009   5.208   9.423 -0.4573  1.5566  1.9502
   41CHL1   C17 5464   6.186   5.143   9.538  0.3859  0.4786  0.1922
   41CHL1   H17 5465   6.210   5.251   9.546  2.3432  0.1394 -0.4511
   41CHL1   C13 5466   6.187   5.088   9.691  0.1514  0.0325  0.9003
   41CHL1   C18 5467   6.157   4.928   9.679  0.1259 -1.4281  0.1194
   41CHL1  H18A 5468   6.138   4.893   9.783  0.3508  2.3126  1.5734
   41CHL1  H18B 5469   6.061   4.907   9.626  0.4129 -1.8112 -0.2514
   41CHL1  H18C 5470   6.238   4.868   9.632  0.0033 -1.5862  0.1082
   41CHL1   C12 5471   6.317   5.123   9.779  0.9150  0.0180 -0.1313
   41CHL1  H12A 5472   6.397   5.054   9.745 -0.1420 -1.1150 -0.3853
   41CHL1  H12B 5473   6.344   5.230   9.767 -1.9544  0.9723  1.1544
   41CHL1   C11 5474   6.290   5.093   9.930 -0.0257 -0.2089  0.9366
   41CHL1  H11A 5475   6.287   4.985   9.956  1.7928 -0.0923  1.8379
   41CHL1  H11B 5476   6.383   5.120   9.985  0.8990 -0.4400 -0.4535
   41CHL1    C9 5477   6.157   5.160   9.976 -0.2246  0.6749 -0.1409
   41CHL1    H9 5478   6.177   5.269   9.963  0.6953  0.3104 -2.3200
   41CHL1   C10 5479   6.126   5.153  10.128 -0.1835 -0.4281 -0.8553
   41CHL1   C19 5480   6.118   4.995  10.161 -0.0062  0.3552 -0.6771
   41CHL1  H19A 5481   6.211   4.936  10.148 -0.4643 -0.5300  0.0038
   41CHL1  H19B 5482   6.081   4.973  10.264  2.8166  1.5343  0.6970
   41CHL1  H19C 5483   6.047   4.948  10.090 -1.0382  0.8041  0.0358
   41CHL1    C1 5484   6.239   5.224  10.212  0.6143  0.6721 -0.0308
   41CHL1   H1A 5485   6.333   5.168  10.194  0.2198  0.0713 -0.2466
   41CHL1   H1B 5486   6.240   5.325  10.165 -0.6239  0.0789 -1.4153
   41CHL1    C2 5487   6.205   5.235  10.358 -0.1442 -0.2221  0.4024
   41CHL1   H2A 5488   6.285   5.302  10.396  1.1082 -0.1429 -2.1649
   41CHL1   H2B 5489   6.207   5.135  10.408 -4.1978 -1.3163 -1.2101
   41CHL1   C20 5490   6.268   5.079   9.432 -0.3209 -0.1588 -0.6501
   41CHL1   H20 5491   6.256   4.968   9.439  0.7072 -0.2044  0.8350
   41CHL1   C21 5492   6.412   5.125   9.454 -0.0832  0.1075  0.4525
   41CHL1  H21A 5493   6.488   5.084   9.383  1.1227  3.1838 -0.2045
   41CHL1  H21B 5494   6.447   5.097   9.555 -0.0320 -0.0063  0.4036
   41CHL1  H21C 5495   6.426   5.235   9.442  0.7023 -0.2484 -3.0099
   41CHL1   C22 5496   6.213   5.126   9.292  0.7626 -0.4625  0.4394
   41CHL1  H22A 5497   6.109   5.090   9.279 -0.1862  1.2386  2.5471
   41CHL1  H22B 5498   6.202   5.237   9.289 -0.5440 -0.5284  1.6966
   41CHL1   C23 5499   6.299   5.073   9.181 -0.1120 -0.0690 -1.1838
   41CHL1  H23A 5500   6.398   5.123   9.179 -0.0563 -0.0498  0.5264
   41CHL1  H23B 5501   6.313   4.965   9.199  1.3003  0.4666  1.3707
   41CHL1   C24 5502   6.219   5.097   9.052 -0.2771 -0.1910  0.4164
   41CHL1  H24A 5503   6.117   5.056   9.062  0.5773 -2.1249  1.9940
   41CHL1  H24B 5504   6.200   5.206   9.043  1.7664  0.2108  0.3510
   41CHL1   C25 5505   6.281   5.035   8.922 -0.2356  0.0838 -0.0869
   41CHL1   H25 5506   6.298   4.927   8.942 -1.2839  0.2909  2.3116
   41CHL1   C26 5507   6.195   5.067   8.797  0.4390  0.2502  0.3958
   41CHL1  H26A 5508   6.241   5.016   8.709  1.0819  2.5806 -0.7048
   41CHL1  H26B 5509   6.092   5.025   8.797  0.1016  0.9708 -1.2180
   41CHL1  H26C 5510   6.184   5.175   8.773  0.4586  0.0842 -0.3935
   41CHL1   C27 5511   6.420   5.097   8.900 -0.2014 -0.6411  0.2670
   41CHL1  H27A 5512   6.394   5.204   8.918  0.2341 -0.2680 -1.1690
   41CHL1  H27B 5513   6.505   5.056   8.959  0.0521 -0.5819 -0.0542
   41CHL1  H27C 5514   6.442   5.079   8.793  1.0383 -1.6508  0.6716
   42CHL1    C3 5515   1.520   2.448   9.937 -0.3882  0.2190  0.2033
   42CHL1    H3 5516   1.557   2.351   9.897 -2.1339  0.1646 -1.3839
   42CHL1    O3 5517   1.531   2.476  10.080  0.1973  0.0140  0.5314
   42CHL1   H3' 5518   1.503   2.567  10.095 -0.4950 -0.3765  1.6450
   42CHL1    C4 5519   1.590   2.558   9.858 -0.1935 -0.0470 -0.3857
   42CHL1   H4A 5520   1.553   2.645   9.916 -1.4836 -1.1326  0.4981
   42CHL1   H4B 5521   1.699   2.542   9.871 -0.0966 -0.7910 -1.9011
   42CHL1    C5 5522   1.553   2.566   9.712  0.5793  0.0243 -0.2147
   42CHL1    C6 5523   1.650   2.571   9.621 -0.8713  0.0225 -0.0941
   42CHL1    H6 5524   1.755   2.580   9.652 -0.6973  0.2735 -0.7396
   42CHL1    C7 5525   1.638   2.582   9.476  0.1378 -0.4892  0.8532
   42CHL1   H7A 5526   1.699   2.662   9.428 -1.9333  0.6497 -0.0207
   42CHL1   H7B 5527   1.657   2.487   9.421  2.3093 -0.6613  1.8107
   42CHL1    C8 5528   1.497   2.615   9.437 -0.0129  0.4672 -0.0136
   42CHL1    H8 5529   1.488   2.721   9.472  0.4369  0.1130  1.2237
   42CHL1   C14 5530   1.469   2.589   9.287 -0.4425  0.4889 -0.2443
   42CHL1   H14 5531   1.492   2.483   9.266  1.4717  1.4777 -3.9517
   42CHL1   C15 5532   1.551   2.677   9.191  0.2967 -0.0788 -0.4027
   42CHL1  H15A 5533   1.586   2.774   9.230  2.6404 -1.7915  2.0752
   42CHL1  H15B 5534   1.648   2.623   9.179  0.4726  0.6815 -3.3293
   42CHL1   C16 5535   1.469   2.691   9.057 -0.0769  0.0080 -0.4553
   42CHL1  H16A 5536   1.452   2.799   9.034  1.3831  0.8119  1.8614
   42CHL1  H16B 5537   1.517   2.648   8.967  2.4883  1.0224  0.3221
   42CHL1   C17 5538   1.342   2.615   9.101  0.3533 -0.6225 -0.1033
   42CHL1   H17 5539   1.359   2.506   9.086 -0.0772 -0.4634 -1.9668
   42CHL1   C13 5540   1.331   2.622   9.253 -0.0158 -0.4123  0.1086
   42CHL1   C18 5541   1.281   2.767   9.282 -0.2870  0.6430  0.4530
   42CHL1  H18A 5542   1.328   2.801   9.377  1.1430  0.6752 -0.2303
   42CHL1  H18B 5543   1.320   2.839   9.206 -0.4408 -2.1838 -2.5146
   42CHL1  H18C 5544   1.170   2.773   9.287 -0.4211 -0.5451 -0.6451
   42CHL1   C12 5545   1.236   2.518   9.312  0.2494  0.5301 -1.0254
   42CHL1  H12A 5546   1.127   2.517   9.289  0.5500 -1.2401 -2.5677
   42CHL1  H12B 5547   1.268   2.414   9.287  0.5842  0.4517 -0.2836
   42CHL1   C11 5548   1.249   2.526   9.466 -0.2619  0.6369  1.1218
   42CHL1  H11A 5549   1.196   2.620   9.493 -3.1398 -0.0704 -1.4435
   42CHL1  H11B 5550   1.199   2.438   9.511  2.2925 -1.0696  0.8422
   42CHL1    C9 5551   1.398   2.532   9.516 -0.3503  0.3532 -0.2471
   42CHL1    H9 5552   1.435   2.428   9.501 -0.3783  0.4874 -1.3731
   42CHL1   C10 5553   1.405   2.562   9.672 -0.2026  0.4311 -0.1644
   42CHL1   C19 5554   1.339   2.701   9.707 -0.5083  0.0082  0.0299
   42CHL1  H19A 5555   1.241   2.716   9.656 -1.0726 -2.0114  0.4352
   42CHL1  H19B 5556   1.328   2.708   9.817  0.9372  2.8083  0.0818
   42CHL1  H19C 5557   1.397   2.792   9.682 -0.7948 -0.1402 -1.3059
   42CHL1    C1 5558   1.349   2.441   9.753  0.3098  0.1629 -0.4284
   42CHL1   H1A 5559   1.243   2.425   9.725  0.1562 -1.0529  0.6959
   42CHL1   H1B 5560   1.405   2.349   9.724  0.9772 -0.0980  1.5273
   42CHL1    C2 5561   1.365   2.448   9.907 -0.2718 -0.4870  0.0206
   42CHL1   H2A 5562   1.322   2.364   9.966 -0.0523  0.6935  1.9676
   42CHL1   H2B 5563   1.318   2.545   9.933  3.3881  1.2479  0.8083
   42CHL1   C20 5564   1.217   2.632   9.020 -0.2258  0.0380 -0.5667
   42CHL1   H20 5565   1.132   2.623   9.091  1.0241  1.4082  1.1931
   42CHL1   C21 5566   1.205   2.506   8.930 -0.2744 -0.6634  0.0986
   42CHL1  H21A 5567   1.292   2.490   8.862  0.2200  0.6489  0.3742
   42CHL1  H21B 5568   1.114   2.503   8.866 -2.0614  2.0428  2.2672
   42CHL1  H21C 5569   1.201   2.416   8.994 -0.5074 -0.3779  0.4903
   42CHL1   C22 5570   1.193   2.766   8.943  0.0517  0.1585 -0.6342
   42CHL1  H22A 5571   1.183   2.853   9.012  0.8348 -1.3182  1.4422
   42CHL1  H22B 5572   1.287   2.786   8.887  1.8804 -1.7283  1.5320
   42CHL1   C23 5573   1.065   2.756   8.856 -0.3752 -0.1661  0.7177
   42CHL1  H23A 5574   1.086   2.681   8.777  0.6772 -0.4965  1.2890
   42CHL1  H23B 5575   0.978   2.720   8.914 -1.8035  2.3511  0.2834
   42CHL1   C24 5576   1.024   2.896   8.805  0.2781  0.1987  0.0153
   42CHL1  H24A 5577   1.042   2.970   8.885  0.8144  0.6736 -0.5411
   42CHL1  H24B 5578   1.090   2.911   8.717  0.6476 -1.5767 -0.0553
   42CHL1   C25 5579   0.882   2.907   8.750  0.3060  0.0463 -0.1116
   42CHL1   H25 5580   0.858   2.808   8.706  0.2307  0.1105 -0.2138
   42CHL1   C26 5581   0.773   2.937   8.863 -0.8924 -0.0573  0.7919
   42CHL1  H26A 5582   0.786   2.865   8.946  3.3323 -1.6584 -0.9929
   42CHL1  H26B 5583   0.776   3.040   8.905  0.4064  0.1490  0.2272
   42CHL1  H26C 5584   0.669   2.915   8.831 -0.3537 -0.7281 -0.5983
   42CHL1   C27 5585   0.876   3.023   8.650  0.4529  0.4700 -1.1239
   42CHL1  H27A 5586   0.885   3.118   8.707 -1.5960 -0.6214  1.2838
   42CHL1  H27B 5587   0.951   3.010   8.570  0.6643 -2.4130 -0.5708
   42CHL1  H27C 5588   0.771   3.025   8.613 -0.1130 -0.0649  0.3521
   43CHL1    C3 5589   6.544   6.562  10.398  0.0853  0.6785 -0.0508
   43CHL1    H3 5590   6.578   6.468  10.445 -0.1861  1.2990  1.4584
   43CHL1    O3 5591   6.514   6.655  10.501 -0.1190 -0.2689 -0.4273
   43CHL1   H3' 5592   6.596   6.696  10.528 -1.1816  1.8979 -0.2741
   43CHL1    C4 5593   6.634   6.627  10.296 -0.4266  0.0210 -0.4492
   43CHL1   H4A 5594   6.601   6.733  10.289  0.4292  0.6673  3.2117
   43CHL1   H4B 5595   6.731   6.627  10.350  0.0413  1.5334 -1.2364
   43CHL1    C5 5596   6.644   6.553  10.157 -0.0740 -0.3232 -0.0120
   43CHL1    C6 5597   6.768   6.512  10.117 -0.1575 -0.9464 -0.3973
   43CHL1    H6 5598   6.852   6.536  10.183 -1.1412 -2.3514  1.4762
   43CHL1    C7 5599   6.796   6.429   9.992 -0.3863  0.5820 -0.4901
   43CHL1   H7A 5600   6.885   6.455   9.930 -0.8115  1.0932 -0.8991
   43CHL1   H7B 5601   6.805   6.323  10.024  0.6191  1.1014  1.0835
   43CHL1    C8 5602   6.669   6.425   9.898  0.2897  0.1873  0.4746
   43CHL1    H8 5603   6.668   6.516   9.833 -4.2169 -1.2776 -1.8967
   43CHL1   C14 5604   6.683   6.302   9.802 -0.8773 -0.3655 -0.0953
   43CHL1   H14 5605   6.684   6.214   9.870  0.1256  0.2543  0.7226
   43CHL1   C15 5606   6.801   6.294   9.711  0.1290  0.2250  0.0771
   43CHL1  H15A 5607   6.851   6.386   9.675  0.8303  0.7358  2.2121
   43CHL1  H15B 5608   6.876   6.238   9.771 -0.1030 -0.6671 -0.4392
   43CHL1   C16 5609   6.752   6.207   9.589 -0.1273  0.5449 -0.3939
   43CHL1  H16A 5610   6.749   6.280   9.505 -1.3218  0.1245 -0.7381
   43CHL1  H16B 5611   6.814   6.125   9.547 -1.3684 -1.4711  1.5081
   43CHL1   C17 5612   6.606   6.169   9.620 -0.1748  1.2414  0.2809
   43CHL1   H17 5613   6.618   6.081   9.687  2.7002  2.7832  2.0145
   43CHL1   C13 5614   6.564   6.282   9.712  0.0475  0.2572  0.3832
   43CHL1   C18 5615   6.547   6.411   9.621  0.3967  0.0233  0.1863
   43CHL1  H18A 5616   6.506   6.502   9.671  0.1530  2.5018 -4.0543
   43CHL1  H18B 5617   6.637   6.442   9.564  0.0989  0.8663  0.1583
   43CHL1  H18C 5618   6.472   6.381   9.545  2.0824  1.2711 -2.0885
   43CHL1   C12 5619   6.442   6.249   9.788  0.6435  0.1591  0.5542
   43CHL1  H12A 5620   6.358   6.261   9.715  1.2209  0.4997 -0.0641
   43CHL1  H12B 5621   6.437   6.142   9.814 -0.1928 -0.5839 -2.2760
   43CHL1   C11 5622   6.416   6.359   9.891 -0.4294 -0.4965  0.1183
   43CHL1  H11A 5623   6.383   6.449   9.835 -0.5448 -1.2513 -1.0501
   43CHL1  H11B 5624   6.326   6.335   9.951 -0.7725 -2.5213 -1.1091
   43CHL1    C9 5625   6.537   6.403   9.978 -0.0474  0.1512 -0.6684
   43CHL1    H9 5626   6.555   6.314  10.042 -0.3318  1.5393  1.4724
   43CHL1   C10 5627   6.514   6.514  10.087 -0.1039 -0.0533  0.3835
   43CHL1   C19 5628   6.449   6.628  10.018 -0.1132 -0.0394 -0.7174
   43CHL1  H19A 5629   6.511   6.665   9.933  0.6692  1.5301  0.4867
   43CHL1  H19B 5630   6.350   6.604   9.972  0.1035 -0.1330 -1.1417
   43CHL1  H19C 5631   6.435   6.719  10.080 -0.4601 -0.2898 -0.4237
   43CHL1    C1 5632   6.436   6.448  10.201 -0.2011 -0.3561 -0.4998
   43CHL1   H1A 5633   6.336   6.421  10.160  0.1611 -0.1797 -1.5206
   43CHL1   H1B 5634   6.490   6.359  10.240  0.5388  0.9635  1.6579
   43CHL1    C2 5635   6.414   6.532  10.320 -0.4848  0.2476  0.1046
   43CHL1   H2A 5636   6.342   6.476  10.384  0.6120 -1.8408 -0.3649
   43CHL1   H2B 5637   6.373   6.631  10.293  1.0624  0.0973 -3.2240
   43CHL1   C20 5638   6.515   6.124   9.504 -0.1779 -0.5850  0.5874
   43CHL1   H20 5639   6.447   6.201   9.463  1.8836 -1.0371 -4.2548
   43CHL1   C21 5640   6.416   6.020   9.547  0.0000  0.1372  0.8217
   43CHL1  H21A 5641   6.331   6.027   9.476 -0.8796 -0.3505  1.8077
   43CHL1  H21B 5642   6.367   6.035   9.645 -3.6206  3.5052 -1.1924
   43CHL1  H21C 5643   6.464   5.920   9.547 -0.0999  0.0888  1.1479
   43CHL1   C22 5644   6.583   6.074   9.375  0.0069 -0.2724  0.5862
   43CHL1  H22A 5645   6.661   6.147   9.344  0.8378 -0.9538  1.0146
   43CHL1  H22B 5646   6.647   5.986   9.398  1.7931  1.3120  2.1005
   43CHL1   C23 5647   6.491   6.040   9.258 -0.0597  0.5982  0.3447
   43CHL1  H23A 5648   6.449   5.937   9.267 -0.0101  0.6399  1.0911
   43CHL1  H23B 5649   6.418   6.120   9.235  1.0695  1.9292  1.2470
   43CHL1   C24 5650   6.577   6.026   9.132  0.3741  0.1105 -0.0723
   43CHL1  H24A 5651   6.664   6.096   9.137 -0.0122  0.5547  0.4945
   43CHL1  H24B 5652   6.630   5.929   9.126  2.2905  1.0922 -0.0186
   43CHL1   C25 5653   6.494   6.051   9.006  0.6190 -0.4233  0.5965
   43CHL1   H25 5654   6.443   6.150   9.008  0.0525 -0.5675 -2.1237
   43CHL1   C26 5655   6.597   6.058   8.889  0.3649 -0.3354 -0.1828
   43CHL1  H26A 5656   6.637   5.958   8.860 -1.3731 -1.0842 -0.1054
   43CHL1  H26B 5657   6.550   6.101   8.799  2.8781 -0.1723 -1.4975
   43CHL1  H26C 5658   6.688   6.120   8.909  0.8763 -1.4142  1.0174
   43CHL1   C27 5659   6.384   5.940   8.972  0.0592 -0.8711 -0.0195
   43CHL1  H27A 5660   6.310   5.942   9.054 -0.5964  2.4746 -0.5532
   43CHL1  H27B 5661   6.329   5.965   8.879 -1.6185 -2.0505  0.6197
   43CHL1  H27C 5662   6.428   5.838   8.961  0.5113 -0.7083  0.2314
   44CHL1    C3 5663   1.870   2.675  10.419  0.8563 -0.4217 -0.5958
   44CHL1    H3 5664   1.960   2.628  10.464  0.0228 -2.8700 -1.3575
   44CHL1    O3 5665   1.784   2.687  10.532 -0.3239  0.0163  0.2118
   44CHL1   H3' 5666   1.695   2.703  10.501 -0.8929 -3.6346 -0.4521
   44CHL1    C4 5667   1.907   2.817  10.371  0.0274 -0.7698  0.3415
   44CHL1   H4A 5668   1.812   2.875  10.364  0.2195 -0.3255  1.2389
   44CHL1   H4B 5669   1.967   2.870  10.448 -3.1768 -0.0813  2.6031
   44CHL1    C5 5670   1.981   2.817  10.242  0.0426  0.1053 -0.3854
   44CHL1    C6 5671   2.103   2.879  10.223  0.7769  0.6111 -0.3544
   44CHL1    H6 5672   2.153   2.941  10.299 -0.8700  1.7332 -0.1183
   44CHL1    C7 5673   2.179   2.880  10.095 -0.9238 -0.9021 -0.8393
   44CHL1   H7A 5674   2.193   2.989  10.084  1.6091 -1.0532  0.0494
   44CHL1   H7B 5675   2.277   2.831  10.117 -1.2355 -1.3323 -0.3806
   44CHL1    C8 5676   2.103   2.835   9.980 -0.2627  0.2065 -0.1323
   44CHL1    H8 5677   2.025   2.912   9.958 -1.9756 -1.6502 -0.8210
   44CHL1   C14 5678   2.202   2.809   9.875 -0.4554 -0.1047 -0.7769
   44CHL1   H14 5679   2.268   2.725   9.906 -0.0892  0.9690  1.5868
   44CHL1   C15 5680   2.304   2.922   9.842  0.3574  0.8411 -0.4592
   44CHL1  H15A 5681   2.251   3.019   9.849  2.0180  1.7873 -0.4473
   44CHL1  H15B 5682   2.386   2.919   9.917 -0.7628  2.0167  0.8593
   44CHL1   C16 5683   2.341   2.892   9.693 -0.1858 -0.8537 -0.0046
   44CHL1  H16A 5684   2.311   2.976   9.626 -0.5900 -0.0651  1.1291
   44CHL1  H16B 5685   2.450   2.886   9.674 -0.6299  0.0696 -3.4276
   44CHL1   C17 5686   2.278   2.754   9.660  0.4675 -0.4132  0.1082
   44CHL1   H17 5687   2.338   2.673   9.706  0.4138 -0.5823 -0.1239
   44CHL1   C13 5688   2.146   2.760   9.736 -0.4956  0.5334 -0.5197
   44CHL1   C18 5689   2.050   2.855   9.677  0.4580  0.9261 -0.0138
   44CHL1  H18A 5690   2.010   2.820   9.579  2.3362 -0.5898 -0.2897
   44CHL1  H18B 5691   1.968   2.887   9.745 -1.4567  0.8436 -2.1294
   44CHL1  H18C 5692   2.082   2.957   9.646 -1.0453  1.7558  1.0259
   44CHL1   C12 5693   2.081   2.621   9.761  0.9717  0.6889 -0.8020
   44CHL1  H12A 5694   2.031   2.575   9.673 -1.3263 -0.1619  0.8597
   44CHL1  H12B 5695   2.158   2.548   9.794 -0.0852 -0.6810 -1.2667
   44CHL1   C11 5696   1.972   2.643   9.867 -0.8980  0.1559  0.4802
   44CHL1  H11A 5697   1.889   2.701   9.824 -0.5359  1.5169  1.5404
   44CHL1  H11B 5698   1.935   2.544   9.902 -1.0175 -0.2053 -0.6465
   44CHL1    C9 5699   2.028   2.701  10.005  0.5256 -0.0020  0.2155
   44CHL1    H9 5700   2.105   2.633  10.048 -0.9066  0.1742  3.3691
   44CHL1   C10 5701   1.927   2.724  10.128  0.1263  0.1349 -0.2073
   44CHL1   C19 5702   1.800   2.782  10.068  0.4758  0.0821  0.1335
   44CHL1  H19A 5703   1.731   2.711  10.018 -2.5259  2.3309  0.8038
   44CHL1  H19B 5704   1.733   2.827  10.145 -1.8616  3.3814 -3.4966
   44CHL1  H19C 5705   1.832   2.862   9.999  0.3045  2.6503  2.8324
   44CHL1    C1 5706   1.889   2.587  10.185  0.2630  0.0863 -0.4826
   44CHL1   H1A 5707   1.832   2.530  10.108 -2.0801 -0.1873  1.3422
   44CHL1   H1B 5708   1.976   2.529  10.224  0.4498  1.6836  1.6649
   44CHL1    C2 5709   1.798   2.589  10.314 -0.3783  0.0142  0.3833
   44CHL1   H2A 5710   1.778   2.489  10.357  2.0003 -1.4818 -1.6930
   44CHL1   H2B 5711   1.705   2.644  10.287  0.2618  1.1434  0.4203
   44CHL1   C20 5712   2.269   2.735   9.504  0.4778 -0.7927  0.5816
   44CHL1   H20 5713   2.172   2.683   9.488 -0.3634  0.8945  0.0566
   44CHL1   C21 5714   2.385   2.642   9.458  0.5652 -0.4313  0.1668
   44CHL1  H21A 5715   2.421   2.577   9.541 -0.2861 -2.0688 -0.6847
   44CHL1  H21B 5716   2.471   2.697   9.415  0.9431 -0.8272  0.4055
   44CHL1  H21C 5717   2.359   2.568   9.379  0.2710  2.4815 -2.6715
   44CHL1   C22 5718   2.265   2.862   9.412 -0.1001 -0.0535 -0.3841
   44CHL1  H22A 5719   2.185   2.933   9.441 -0.7562 -0.8284 -0.2652
   44CHL1  H22B 5720   2.362   2.914   9.426 -0.9603  1.1741  1.4981
   44CHL1   C23 5721   2.247   2.826   9.265 -0.1687 -0.3315 -0.1493
   44CHL1  H23A 5722   2.332   2.766   9.224 -0.4979 -1.4599  0.7784
   44CHL1  H23B 5723   2.157   2.762   9.264  1.5379 -2.8414 -0.9572
   44CHL1   C24 5724   2.229   2.946   9.170  0.3347  0.0622 -0.1475
   44CHL1  H24A 5725   2.144   3.006   9.211  1.1364  1.1117  0.0327
   44CHL1  H24B 5726   2.319   3.011   9.176  0.7504 -0.6378  1.6425
   44CHL1   C25 5727   2.202   2.908   9.024  0.0646  0.2090 -0.2557
   44CHL1   H25 5728   2.126   2.826   9.021 -0.3148  0.5165  0.5567
   44CHL1   C26 5729   2.155   3.030   8.939 -0.4838  0.4908 -0.1571
   44CHL1  H26A 5730   2.106   2.999   8.845 -0.9298  3.9274 -1.2068
   44CHL1  H26B 5731   2.075   3.091   8.988 -2.9993 -3.9205  1.8220
   44CHL1  H26C 5732   2.242   3.093   8.909  1.4799 -0.1593  3.5290
   44CHL1   C27 5733   2.324   2.843   8.956  0.2548  0.0619 -0.6846
   44CHL1  H27A 5734   2.298   2.797   8.858  1.0293 -0.7491 -0.5286
   44CHL1  H27B 5735   2.404   2.917   8.938  1.6968 -0.7934  1.6889
   44CHL1  H27C 5736   2.374   2.762   9.013  0.9577 -0.4131 -1.9287
   45CHL1    C3 5737   5.914   6.489  10.309  0.3128  0.4393  0.7613
   45CHL1    H3 5738   5.867   6.578  10.356  1.3535  0.8318  1.0868
   45CHL1    O3 5739   5.998   6.435  10.410  0.2524  0.6456  0.2094
   45CHL1   H3' 5740   6.066   6.502  10.418 -0.6575  1.8634 -1.6837
   45CHL1    C4 5741   5.813   6.384  10.262  0.5972 -1.0139  0.3569
   45CHL1   H4A 5742   5.862   6.290  10.230  1.9484  0.1782 -1.2817
   45CHL1   H4B 5743   5.762   6.353  10.356  0.6898  1.1794  1.1918
   45CHL1    C5 5744   5.729   6.432  10.150  0.4453 -0.0745 -0.0895
   45CHL1    C6 5745   5.595   6.431  10.166  0.9614 -0.3207  1.3901
   45CHL1    H6 5746   5.548   6.383  10.253  1.7399 -0.0970  1.9470
   45CHL1    C7 5747   5.502   6.485  10.060  0.5007 -0.2333  0.4018
   45CHL1   H7A 5748   5.420   6.410  10.055  1.2724 -1.2025  1.5132
   45CHL1   H7B 5749   5.455   6.581  10.091  0.4390 -0.3623  0.7158
   45CHL1    C8 5750   5.558   6.516   9.926  0.1682  0.9974  0.4817
   45CHL1    H8 5751   5.498   6.599   9.883 -1.4343 -0.6141 -0.5541
   45CHL1   C14 5752   5.540   6.401   9.819  0.0539  0.9831  0.2143
   45CHL1   H14 5753   5.579   6.308   9.866  0.3711 -0.5357 -2.8653
   45CHL1   C15 5754   5.390   6.365   9.780  0.3391 -0.3361 -0.7016
   45CHL1  H15A 5755   5.372   6.256   9.769  1.4458 -1.2512  4.1631
   45CHL1  H15B 5756   5.330   6.404   9.865 -0.4117 -0.5864 -1.1115
   45CHL1   C16 5757   5.354   6.437   9.650  0.0545 -0.3487  0.0983
   45CHL1  H16A 5758   5.316   6.369   9.572 -0.7613  0.0143  0.1687
   45CHL1  H16B 5759   5.294   6.529   9.669  2.9829  1.6334  0.4034
   45CHL1   C17 5760   5.489   6.503   9.602  0.0661  0.3435 -0.1581
   45CHL1   H17 5761   5.489   6.606   9.644 -0.8913  1.4011 -2.5584
   45CHL1   C13 5762   5.598   6.432   9.677 -1.1128 -0.3564 -0.5660
   45CHL1   C18 5763   5.631   6.292   9.626 -0.2665  0.3426  0.0671
   45CHL1  H18A 5764   5.712   6.252   9.692 -0.5177 -2.7623 -1.3335
   45CHL1  H18B 5765   5.552   6.220   9.656  0.6255  0.2335  2.4030
   45CHL1  H18C 5766   5.662   6.281   9.520 -2.9994  0.7776 -0.8637
   45CHL1   C12 5767   5.737   6.510   9.684  0.2614 -0.0754  0.4912
   45CHL1  H12A 5768   5.817   6.433   9.679 -0.2856 -0.5800 -1.0725
   45CHL1  H12B 5769   5.739   6.561   9.586 -1.5926 -1.6932 -0.4744
   45CHL1   C11 5770   5.750   6.615   9.793  0.0709 -0.0596 -0.7029
   45CHL1  H11A 5771   5.852   6.658   9.798  0.1484 -0.3892  2.1344
   45CHL1  H11B 5772   5.687   6.702   9.764 -0.5379 -0.4869 -0.6849
   45CHL1    C9 5773   5.697   6.582   9.933 -0.1514  0.0074  0.8234
   45CHL1    H9 5774   5.684   6.679   9.984  1.2233 -0.0665  1.3564
   45CHL1   C10 5775   5.798   6.499  10.032  0.3348  0.1970  0.2449
   45CHL1   C19 5776   5.864   6.392   9.950  0.8772  0.0902  1.3583
   45CHL1  H19A 5777   5.943   6.336  10.005  0.4347 -0.2102  1.7024
   45CHL1  H19B 5778   5.795   6.314   9.911  0.9885  0.4045  0.5293
   45CHL1  H19C 5779   5.923   6.437   9.868 -0.9235  0.5367  0.2571
   45CHL1    C1 5780   5.908   6.594  10.085  1.0836 -0.0501 -0.3187
   45CHL1   H1A 5781   5.960   6.631   9.994 -1.6466  1.5776 -1.3312
   45CHL1   H1B 5782   5.852   6.680  10.128 -0.1736  0.1156 -2.1877
   45CHL1    C2 5783   6.001   6.534  10.192 -0.1880  0.3231  0.2374
   45CHL1   H2A 5784   6.078   6.608  10.221  2.3572 -1.7252 -0.8788
   45CHL1   H2B 5785   6.044   6.437  10.158 -2.4370 -1.0140  0.9777
   45CHL1   C20 5786   5.498   6.529   9.448 -0.0446  0.5019  1.0543
   45CHL1   H20 5787   5.604   6.555   9.428  0.1617 -0.4675  0.8017
   45CHL1   C21 5788   5.405   6.650   9.419 -0.4750 -0.4351 -0.5276
   45CHL1  H21A 5789   5.309   6.626   9.469 -1.1935 -1.8081 -2.4691
   45CHL1  H21B 5790   5.390   6.673   9.312  2.8788 -0.9730 -1.2145
   45CHL1  H21C 5791   5.435   6.745   9.469 -1.1407 -0.9997  1.0289
   45CHL1   C22 5792   5.455   6.413   9.352  0.3511 -0.0499 -0.4618
   45CHL1  H22A 5793   5.466   6.318   9.409  0.3566  0.8299  1.0668
   45CHL1  H22B 5794   5.350   6.431   9.322  0.4620 -0.9071 -1.4178
   45CHL1   C23 5795   5.551   6.398   9.233  0.1042  0.5372  0.3778
   45CHL1  H23A 5796   5.558   6.497   9.183 -2.4936  0.7542  0.2851
   45CHL1  H23B 5797   5.646   6.371   9.283 -0.1550  0.1598  0.6810
   45CHL1   C24 5798   5.522   6.301   9.118 -0.1582 -0.4257 -0.7966
   45CHL1  H24A 5799   5.616   6.318   9.062  0.1078 -1.7329 -0.7710
   45CHL1  H24B 5800   5.522   6.194   9.149 -0.6222  0.2589  1.7786
   45CHL1   C25 5801   5.402   6.347   9.035 -0.3547  0.0758 -0.3577
   45CHL1   H25 5802   5.396   6.458   9.025 -2.5817  0.2178  1.8040
   45CHL1   C26 5803   5.433   6.299   8.890 -0.0740 -0.5479  0.4232
   45CHL1  H26A 5804   5.513   6.365   8.850  0.6298 -0.0143  2.5585
   45CHL1  H26B 5805   5.475   6.196   8.894  1.8777  0.2343  1.6198
   45CHL1  H26C 5806   5.348   6.305   8.820 -2.1091  0.6067  2.8407
   45CHL1   C27 5807   5.275   6.271   9.077  0.4108 -0.2381  0.5823
   45CHL1  H27A 5808   5.194   6.278   9.001  0.8408 -0.4915  0.0911
   45CHL1  H27B 5809   5.303   6.164   9.069  2.6724  0.3989 -0.7766
   45CHL1  H27C 5810   5.234   6.296   9.178  0.1484 -0.1314  0.4516
   46CHL1    C3 5811   3.608   5.758  10.167 -0.4973  0.0989 -0.7965
   46CHL1    H3 5812   3.702   5.810  10.141 -1.5930  1.0890 -3.1108
   46CHL1    O3 5813   3.607   5.724  10.304 -0.4761  0.1941 -0.6472
   46CHL1   H3' 5814   3.568   5.801  10.347  3.1615  2.6857 -1.3651
   46CHL1    C4 5815   3.490   5.846  10.136  0.0104 -0.4892  0.3208
   46CHL1   H4A 5816   3.389   5.805  10.158 -0.7287  0.8925 -0.3307
   46CHL1   H4B 5817   3.491   5.940  10.197 -0.3615 -1.7023  2.2874
   46CHL1    C5 5818   3.486   5.886   9.987  0.4453 -1.1721 -1.0434
   46CHL1    C6 5819   3.484   6.011   9.942 -0.3925 -0.6243 -0.1144
   46CHL1    H6 5820   3.484   6.095  10.013 -2.8960 -0.5358 -0.1089
   46CHL1    C7 5821   3.469   6.048   9.803 -0.1860 -0.1438 -0.0718
   46CHL1   H7A 5822   3.399   6.132   9.782 -0.8168 -0.9497 -1.2382
   46CHL1   H7B 5823   3.564   6.085   9.759  0.1758  0.2550  1.0030
   46CHL1    C8 5824   3.415   5.927   9.716  0.3034 -0.2064 -0.5393
   46CHL1    H8 5825   3.308   5.911   9.744  0.0827 -0.3841 -1.4534
   46CHL1   C14 5826   3.421   5.960   9.571 -0.4361 -0.2096 -0.2884
   46CHL1   H14 5827   3.528   5.970   9.542 -0.2031 -2.8924 -0.5913
   46CHL1   C15 5828   3.354   6.085   9.508  0.1955  0.3987 -0.3046
   46CHL1  H15A 5829   3.252   6.095   9.550 -1.1982  2.8475 -3.8115
   46CHL1  H15B 5830   3.409   6.181   9.502  0.7064  0.0330 -2.0818
   46CHL1   C16 5831   3.315   6.048   9.362 -0.7434 -0.2627 -0.1940
   46CHL1  H16A 5832   3.204   6.042   9.365 -0.7477 -0.0428  1.7476
   46CHL1  H16B 5833   3.340   6.121   9.282  1.1534  0.4927  1.0099
   46CHL1   C17 5834   3.384   5.908   9.337 -0.5748  0.2980  0.6222
   46CHL1   H17 5835   3.489   5.931   9.308 -0.6487  0.9394  0.8364
   46CHL1   C13 5836   3.384   5.844   9.483 -0.2535  0.0409 -0.2116
   46CHL1   C18 5837   3.235   5.799   9.514 -0.6227  0.5487 -0.1281
   46CHL1  H18A 5838   3.217   5.803   9.624  1.1966 -1.2060  0.2945
   46CHL1  H18B 5839   3.153   5.858   9.468 -1.0870 -0.1097 -0.1609
   46CHL1  H18C 5840   3.211   5.695   9.484  0.5241  0.3173 -0.2987
   46CHL1   C12 5841   3.475   5.718   9.503 -0.2334 -0.6642  0.0712
   46CHL1  H12A 5842   3.438   5.634   9.440 -1.0224  1.4476 -2.4583
   46CHL1  H12B 5843   3.576   5.746   9.466  0.2576 -2.2842  0.0844
   46CHL1   C11 5844   3.476   5.675   9.648 -0.4764 -0.1316 -0.0856
   46CHL1  H11A 5845   3.375   5.631   9.659 -0.6375  0.1390 -0.4532
   46CHL1  H11B 5846   3.551   5.594   9.664  2.0338  2.1175  0.1382
   46CHL1    C9 5847   3.499   5.793   9.748 -0.0997 -0.4023  0.3207
   46CHL1    H9 5848   3.605   5.824   9.738 -0.1215  0.1621  1.6908
   46CHL1   C10 5849   3.485   5.765   9.897  0.2492  0.2426  0.3984
   46CHL1   C19 5850   3.346   5.696   9.915  0.2815 -0.2627 -0.4465
   46CHL1  H19A 5851   3.328   5.599   9.864 -3.2078  0.3336 -0.5864
   46CHL1  H19B 5852   3.327   5.672  10.022  2.2909  1.5433  0.3816
   46CHL1  H19C 5853   3.262   5.762   9.886 -0.8577 -0.0749  2.8101
   46CHL1    C1 5854   3.600   5.658   9.948  0.4079  0.0246  0.0807
   46CHL1   H1A 5855   3.583   5.567   9.887 -1.3290  2.2612 -3.0476
   46CHL1   H1B 5856   3.706   5.689   9.936  0.4574  0.1518  0.7708
   46CHL1    C2 5857   3.588   5.634  10.098  0.2261  0.3263  0.3178
   46CHL1   H2A 5858   3.673   5.565  10.120  0.6277  0.8668  0.4864
   46CHL1   H2B 5859   3.494   5.582  10.127  0.3399  0.8992  1.7707
   46CHL1   C20 5860   3.323   5.823   9.221  1.4565  0.5292  0.1873
   46CHL1   H20 5861   3.237   5.765   9.260  1.9491  0.0954  0.6540
   46CHL1   C21 5862   3.414   5.699   9.186 -0.7663  0.2971 -0.2028
   46CHL1  H21A 5863   3.522   5.727   9.181  0.2552 -2.1039  4.0084
   46CHL1  H21B 5864   3.395   5.639   9.094 -0.3267 -0.1896  0.0169
   46CHL1  H21C 5865   3.409   5.615   9.258  1.6770  0.8871  0.7503
   46CHL1   C22 5866   3.281   5.903   9.093 -0.7335  0.1510  0.9769
   46CHL1  H22A 5867   3.220   5.989   9.128  0.2169  0.9832  0.6456
   46CHL1  H22B 5868   3.376   5.936   9.045 -1.2889 -0.3992 -0.5512
   46CHL1   C23 5869   3.216   5.826   8.983  0.0434 -0.2338 -0.4430
   46CHL1  H23A 5870   3.284   5.761   8.923 -2.5785 -1.0214 -2.8053
   46CHL1  H23B 5871   3.151   5.754   9.038 -0.2683  0.0544 -0.4327
   46CHL1   C24 5872   3.136   5.894   8.875  0.0251  0.5737  0.4904
   46CHL1  H24A 5873   3.050   5.941   8.928 -0.7641 -1.2150  0.8399
   46CHL1  H24B 5874   3.193   5.984   8.843 -0.2898 -0.2607 -2.7655
   46CHL1   C25 5875   3.089   5.812   8.750 -0.0551  0.6767  0.3169
   46CHL1   H25 5876   3.169   5.739   8.725  0.2866  1.2758 -0.3772
   46CHL1   C26 5877   2.965   5.737   8.795 -0.1661  0.6492  0.9960
   46CHL1  H26A 5878   2.932   5.669   8.714  1.0609  0.6045  0.5062
   46CHL1  H26B 5879   3.000   5.683   8.886  3.1415  0.5113 -0.2091
   46CHL1  H26C 5880   2.895   5.816   8.830 -1.7285 -0.6841  0.9809
   46CHL1   C27 5881   3.075   5.904   8.623  0.4354 -0.1047 -0.5482
   46CHL1  H27A 5882   2.996   5.976   8.650  0.3402 -0.6220  0.5819
   46CHL1  H27B 5883   3.170   5.954   8.594  0.6211 -1.1554 -1.8515
   46CHL1  H27C 5884   3.025   5.847   8.542 -3.4103  0.8045  0.9861
   47CHL1    C3 5885   2.902   3.122  10.298 -0.3030  0.5507  0.0394
   47CHL1    H3 5886   2.982   3.048  10.277 -0.5413  0.5668 -0.9487
   47CHL1    O3 5887   2.869   3.142  10.434  0.1573 -0.8204  0.2348
   47CHL1   H3' 5888   2.852   3.053  10.466 -0.1430 -0.2110  1.8884
   47CHL1    C4 5889   2.969   3.255  10.248  0.0635  0.5235  0.1869
   47CHL1   H4A 5890   2.909   3.344  10.279  0.7859  1.2742 -0.5047
   47CHL1   H4B 5891   3.069   3.239  10.294  0.5065 -0.4534 -1.0564
   47CHL1    C5 5892   2.987   3.264  10.095 -0.5153 -0.3710 -0.5846
   47CHL1    C6 5893   3.101   3.302  10.040 -0.0797  0.0341  0.1174
   47CHL1    H6 5894   3.187   3.319  10.106 -1.0685 -0.2534  1.5260
   47CHL1    C7 5895   3.115   3.337   9.893  0.1891 -0.2273  0.4575
   47CHL1   H7A 5896   3.164   3.436   9.879  0.5682  0.1153  3.4676
   47CHL1   H7B 5897   3.184   3.259   9.855 -0.8754 -0.7826 -0.3630
   47CHL1    C8 5898   2.983   3.328   9.810  0.0961 -0.4817  0.2188
   47CHL1    H8 5899   2.924   3.417   9.841  0.9925 -0.4937  2.1058
   47CHL1   C14 5900   3.009   3.326   9.661 -0.0470  0.6039 -0.6541
   47CHL1   H14 5901   3.066   3.232   9.644  1.6959  1.5473 -0.1947
   47CHL1   C15 5902   3.093   3.441   9.600 -0.0549  0.4675  0.0788
   47CHL1  H15A 5903   3.073   3.544   9.634 -1.2240  0.2250  0.1495
   47CHL1  H15B 5904   3.196   3.404   9.623 -0.3331 -1.2171 -1.2239
   47CHL1   C16 5905   3.059   3.422   9.449  0.3246  0.0995 -0.1081
   47CHL1  H16A 5906   3.045   3.526   9.411  0.6314  0.0248 -0.4361
   47CHL1  H16B 5907   3.146   3.379   9.395  0.2473 -1.0568  0.6665
   47CHL1   C17 5908   2.939   3.325   9.434 -0.3227 -0.6056 -0.4114
   47CHL1   H17 5909   2.982   3.226   9.409  2.6574  0.3522  0.4014
   47CHL1   C13 5910   2.876   3.328   9.580  0.0482 -0.2109  0.2457
   47CHL1   C18 5911   2.802   3.468   9.599  0.8826 -0.0673 -0.6443
   47CHL1  H18A 5912   2.856   3.553   9.550  1.8111  0.7515  1.6830
   47CHL1  H18B 5913   2.703   3.459   9.549  1.0918  1.6084 -1.4513
   47CHL1  H18C 5914   2.798   3.486   9.708  4.2127 -0.0364 -0.4269
   47CHL1   C12 5915   2.787   3.213   9.623  0.6608 -0.1869  0.4508
   47CHL1  H12A 5916   2.694   3.220   9.563  1.1437  0.7141 -0.2318
   47CHL1  H12B 5917   2.846   3.122   9.599  0.4639 -0.4822  1.0649
   47CHL1   C11 5918   2.757   3.200   9.773  0.2859  0.7105  0.0918
   47CHL1  H11A 5919   2.668   3.260   9.801 -0.5990  0.3204 -1.7046
   47CHL1  H11B 5920   2.705   3.102   9.783 -1.0292  1.2995 -0.7109
   47CHL1    C9 5921   2.885   3.221   9.859 -0.1236  0.4097 -0.4006
   47CHL1    H9 5922   2.941   3.126   9.845 -0.8579 -0.2320  0.7962
   47CHL1   C10 5923   2.854   3.229  10.016 -0.3169  0.4337 -0.3172
   47CHL1   C19 5924   2.743   3.332  10.035 -0.3187 -1.0359 -0.1252
   47CHL1  H19A 5925   2.713   3.356  10.139 -0.0024 -0.9236 -0.0605
   47CHL1  H19B 5926   2.777   3.426   9.987  1.0079 -1.0296  0.7999
   47CHL1  H19C 5927   2.648   3.297   9.989  0.2392 -1.0023 -1.3492
   47CHL1    C1 5928   2.804   3.088  10.063  0.2468  0.3382  0.1725
   47CHL1   H1A 5929   2.710   3.064  10.010  1.4457  0.0704 -1.9715
   47CHL1   H1B 5930   2.874   3.007  10.032  0.0365  0.2724 -0.1412
   47CHL1    C2 5931   2.783   3.079  10.210 -0.3370  0.0089 -0.4548
   47CHL1   H2A 5932   2.746   2.982  10.250  0.3982 -0.7843 -1.6163
   47CHL1   H2B 5933   2.706   3.154  10.237  0.4113  1.2662 -1.6641
   47CHL1   C20 5934   2.855   3.366   9.311  0.5820  0.3490 -0.2274
   47CHL1   H20 5935   2.844   3.477   9.312 -0.3299  0.2715 -0.7057
   47CHL1   C21 5936   2.716   3.307   9.293  0.1406 -0.3132  1.1063
   47CHL1  H21A 5937   2.711   3.200   9.322 -0.7830 -0.5884 -0.0167
   47CHL1  H21B 5938   2.696   3.326   9.186  0.5480  2.2273  1.4201
   47CHL1  H21C 5939   2.655   3.373   9.358 -1.2400  0.5381 -0.9515
   47CHL1   C22 5940   2.932   3.328   9.178 -0.1712 -0.5065  0.2857
   47CHL1  H22A 5941   3.041   3.329   9.198  0.2429  1.5874 -1.6905
   47CHL1  H22B 5942   2.900   3.230   9.137  1.6026 -1.0572  0.1300
   47CHL1   C23 5943   2.921   3.437   9.066 -0.0810  0.0598 -0.2173
   47CHL1  H23A 5944   2.821   3.441   9.019  0.6900 -0.7688 -2.0093
   47CHL1  H23B 5945   2.932   3.535   9.117 -2.3168  0.2233  0.0365
   47CHL1   C24 5946   3.019   3.411   8.949  0.2794  0.4300 -0.2438
   47CHL1  H24A 5947   3.123   3.426   8.985  0.6988 -0.1137 -1.1780
   47CHL1  H24B 5948   3.016   3.308   8.906  0.9095  1.2491 -2.3605
   47CHL1   C25 5949   2.994   3.503   8.828  0.5540  0.7907  1.3259
   47CHL1   H25 5950   2.900   3.472   8.777  0.1830 -2.1397  3.5103
   47CHL1   C26 5951   2.970   3.647   8.870  0.3246  0.1798 -0.2957
   47CHL1  H26A 5952   2.956   3.702   8.774 -1.8757 -2.5409 -1.6985
   47CHL1  H26B 5953   3.046   3.696   8.934 -0.5080  0.5271  0.4528
   47CHL1  H26C 5954   2.873   3.656   8.924 -0.3260 -2.4788 -0.8392
   47CHL1   C27 5955   3.109   3.488   8.721  0.5877  0.0855 -0.1952
   47CHL1  H27A 5956   3.092   3.550   8.630  2.6596 -1.4994 -1.7540
   47CHL1  H27B 5957   3.201   3.530   8.766  1.6336 -2.0965 -0.1831
   47CHL1  H27C 5958   3.139   3.384   8.694  2.4889  0.4867  0.2411
   48CHL1    C3 5959   4.410   4.889  10.313 -0.1085  0.2459 -0.4268
   48CHL1    H3 5960   4.457   4.973  10.258 -0.6095  2.3347  2.1209
   48CHL1    O3 5961   4.440   4.903  10.451  0.0782 -0.1598  0.5965
   48CHL1   H3' 5962   4.355   4.883  10.491 -0.5306 -0.9350 -1.0220
   48CHL1    C4 5963   4.252   4.889  10.295 -0.9249  0.0367  0.3633
   48CHL1   H4A 5964   4.212   4.800  10.348 -0.4667  0.1033  0.8284
   48CHL1   H4B 5965   4.212   4.981  10.342  2.4590  2.7039 -1.4975
   48CHL1    C5 5966   4.228   4.872  10.145 -0.0879 -0.3090  0.1238
   48CHL1    C6 5967   4.169   4.963  10.071  0.1821  0.3440  0.8796
   48CHL1    H6 5968   4.125   5.051  10.119  2.1345  0.3002  2.8908
   48CHL1    C7 5969   4.159   4.961   9.917  0.0409  0.2590  0.7971
   48CHL1   H7A 5970   4.058   4.997   9.888  1.1265  0.6897 -3.0720
   48CHL1   H7B 5971   4.230   5.033   9.871 -0.8973  0.0339 -1.0757
   48CHL1    C8 5972   4.171   4.816   9.857 -0.1157  0.2653  0.0313
   48CHL1    H8 5973   4.081   4.759   9.887 -0.1555 -0.3002 -1.1258
   48CHL1   C14 5974   4.194   4.814   9.708 -0.1816  0.4649  0.3959
   48CHL1   H14 5975   4.291   4.868   9.699 -0.3223  0.4824 -1.6229
   48CHL1   C15 5976   4.107   4.892   9.614 -0.6421 -0.0221 -0.2227
   48CHL1  H15A 5977   4.002   4.857   9.616 -0.7368  0.2297 -0.6896
   48CHL1  H15B 5978   4.097   5.002   9.626 -1.2575 -0.2509  1.7476
   48CHL1   C16 5979   4.158   4.843   9.474 -0.5979 -0.1693 -0.3319
   48CHL1  H16A 5980   4.080   4.843   9.395 -1.1616 -0.0893  0.2221
   48CHL1  H16B 5981   4.241   4.907   9.436 -0.4307  0.3495  0.8497
   48CHL1   C17 5982   4.226   4.703   9.494  0.0892 -0.6562 -0.7755
   48CHL1   H17 5983   4.335   4.719   9.486  0.0921 -0.0378  0.2766
   48CHL1   C13 5984   4.207   4.673   9.648 -0.0280  0.0580  0.4405
   48CHL1   C18 5985   4.082   4.590   9.662  0.6383 -0.2985  0.1584
   48CHL1  H18A 5986   3.995   4.603   9.594 -1.0688 -2.2569  1.8275
   48CHL1  H18B 5987   4.114   4.485   9.646 -0.1343 -0.2978 -1.7105
   48CHL1  H18C 5988   4.037   4.605   9.762  0.3019 -0.6290  0.0606
   48CHL1   C12 5989   4.329   4.608   9.714  0.2266 -0.8477  0.7137
   48CHL1  H12A 5990   4.339   4.502   9.682  1.1543 -0.3925 -0.5960
   48CHL1  H12B 5991   4.421   4.660   9.680 -0.2604  0.1061  0.8157
   48CHL1   C11 5992   4.326   4.613   9.867 -0.5179 -0.2975 -0.0188
   48CHL1  H11A 5993   4.253   4.536   9.899  0.7379 -2.0632 -1.2550
   48CHL1  H11B 5994   4.425   4.586   9.910 -0.6008  1.0930  1.1390
   48CHL1    C9 5995   4.292   4.753   9.930 -0.2709  0.3443  0.7434
   48CHL1    H9 5996   4.374   4.826   9.910  1.6216 -1.9498 -0.3068
   48CHL1   C10 5997   4.295   4.740  10.087  0.1252  0.3478 -0.5519
   48CHL1   C19 5998   4.205   4.624  10.128  0.2746 -0.2079 -0.0563
   48CHL1  H19A 5999   4.158   4.624  10.228 -0.4081 -1.4010 -0.3512
   48CHL1  H19B 6000   4.124   4.618  10.052  1.7412  1.1116 -1.8026
   48CHL1  H19C 6001   4.247   4.522  10.114  0.0459 -0.0801 -1.9697
   48CHL1    C1 6002   4.437   4.716  10.132 -0.4293 -0.3062 -0.6791
   48CHL1   H1A 6003   4.490   4.624  10.100  1.1065  0.2439  0.1895
   48CHL1   H1B 6004   4.507   4.791  10.091  0.4017 -0.6317  0.1113
   48CHL1    C2 6005   4.454   4.740  10.282 -0.0858  0.0445 -0.1659
   48CHL1   H2A 6006   4.560   4.739  10.313 -0.4046  1.1637  1.0694
   48CHL1   H2B 6007   4.389   4.671  10.340  0.5283 -0.0992  0.3559
   48CHL1   C20 6008   4.193   4.598   9.386 -0.0854  0.3763 -0.0588
   48CHL1   H20 6009   4.087   4.566   9.401  0.2363 -0.6575  0.0874
   48CHL1   C21 6010   4.281   4.467   9.415  0.0313  0.0281  0.0539
   48CHL1  H21A 6011   4.252   4.385   9.346  2.4009  0.3462 -1.4577
   48CHL1  H21B 6012   4.283   4.425   9.518 -1.1580  1.3715  0.6516
   48CHL1  H21C 6013   4.385   4.498   9.389  0.7553 -0.7541  1.8132
   48CHL1   C22 6014   4.234   4.658   9.254 -0.5394 -0.8292  0.0413
   48CHL1  H22A 6015   4.173   4.746   9.226 -0.1395 -1.0152 -1.5151
   48CHL1  H22B 6016   4.339   4.693   9.262 -1.2188  1.7061 -1.2215
   48CHL1   C23 6017   4.231   4.565   9.136  0.1121  0.1252  0.4745
   48CHL1  H23A 6018   4.255   4.459   9.156 -1.4499 -0.3823 -0.1563
   48CHL1  H23B 6019   4.125   4.557   9.103 -0.1155  1.7293  0.7392
   48CHL1   C24 6020   4.328   4.622   9.026 -0.3908  0.4475 -0.5249
   48CHL1  H24A 6021   4.287   4.721   8.998 -2.5171 -0.1048  0.4231
   48CHL1  H24B 6022   4.430   4.630   9.068 -1.1658  1.2240  1.2947
   48CHL1   C25 6023   4.339   4.530   8.901 -0.1064 -0.2544 -0.2050
   48CHL1   H25 6024   4.399   4.593   8.833  0.6692  2.6595  2.9079
   48CHL1   C26 6025   4.417   4.400   8.933 -0.2156 -0.8165 -0.4625
   48CHL1  H26A 6026   4.521   4.417   8.967  1.2333 -3.5980 -2.9735
   48CHL1  H26B 6027   4.367   4.350   9.018 -2.2785  2.0320  0.1766
   48CHL1  H26C 6028   4.401   4.328   8.850 -0.4943 -0.5243 -0.6706
   48CHL1   C27 6029   4.211   4.505   8.815  0.2027  0.0208 -0.5547
   48CHL1  H27A 6030   4.249   4.449   8.727  0.7150 -2.5864  1.1911
   48CHL1  H27B 6031   4.151   4.435   8.877 -0.7658  0.0917 -1.3931
   48CHL1  H27C 6032   4.148   4.592   8.790 -0.7298 -1.3404 -3.3097
   49CHL1    C3 6033   1.933   4.479  10.161 -0.8313  0.5090 -0.1309
   49CHL1    H3 6034   1.983   4.385  10.129 -0.6999 -0.1436  1.8240
   49CHL1    O3 6035   1.950   4.486  10.300 -0.4932  0.3732 -0.1217
   49CHL1   H3' 6036   1.866   4.471  10.344 -0.2798 -1.0442 -0.1416
   49CHL1    C4 6037   2.001   4.599  10.095 -0.7348 -0.4002  0.4251
   49CHL1   H4A 6038   1.940   4.687  10.121  0.0288  0.4819 -0.6614
   49CHL1   H4B 6039   2.107   4.612  10.128 -0.7472  1.7129 -0.2224
   49CHL1    C5 6040   1.988   4.591   9.945  0.1227  0.2534  0.5456
   49CHL1    C6 6041   2.091   4.589   9.857  0.1388 -1.0168 -0.2089
   49CHL1    H6 6042   2.188   4.595   9.909 -1.3060 -0.7367  2.6397
   49CHL1    C7 6043   2.083   4.595   9.707 -0.5698  0.7555 -0.5427
   49CHL1   H7A 6044   2.158   4.662   9.658 -0.0275  1.0679  0.6546
   49CHL1   H7B 6045   2.104   4.491   9.674  0.1320  1.7003 -3.3266
   49CHL1    C8 6046   1.946   4.647   9.662  0.9071  0.3836 -0.3918
   49CHL1    H8 6047   1.932   4.751   9.697  0.0615 -0.8257  3.4089
   49CHL1   C14 6048   1.934   4.624   9.515  0.1514 -0.3608 -0.2771
   49CHL1   H14 6049   1.972   4.522   9.491  0.5005 -0.6998  1.5388
   49CHL1   C15 6050   2.023   4.701   9.418 -0.1495  0.3564 -0.1437
   49CHL1  H15A 6051   2.037   4.806   9.451 -2.5337  0.8523 -0.4615
   49CHL1  H15B 6052   2.125   4.659   9.411 -0.3215 -0.5677  2.1319
   49CHL1   C16 6053   1.953   4.692   9.279 -0.2425 -0.4707 -0.5781
   49CHL1  H16A 6054   1.944   4.795   9.241  2.2182 -0.7145 -2.0007
   49CHL1  H16B 6055   2.009   4.631   9.205  2.2707  0.7120  0.2368
   49CHL1   C17 6056   1.815   4.632   9.306 -0.6657  0.0947 -0.0207
   49CHL1   H17 6057   1.830   4.525   9.283  3.7458  0.5386 -0.1638
   49CHL1   C13 6058   1.792   4.642   9.457  0.1319  0.1860  0.8247
   49CHL1   C18 6059   1.744   4.783   9.478  0.5920 -0.3321 -0.4146
   49CHL1  H18A 6060   1.723   4.805   9.585  2.0327 -2.2042  0.3044
   49CHL1  H18B 6061   1.794   4.866   9.424 -0.6309  0.7220  0.0185
   49CHL1  H18C 6062   1.640   4.793   9.441  0.3208 -1.0647  0.1168
   49CHL1   C12 6063   1.718   4.528   9.521 -0.2825 -0.1298  0.3215
   49CHL1  H12A 6064   1.615   4.516   9.480  0.1555 -0.5721 -0.7092
   49CHL1  H12B 6065   1.769   4.431   9.499 -0.7713 -0.1464 -0.8232
   49CHL1   C11 6066   1.709   4.544   9.671  0.1084 -0.7429  0.0193
   49CHL1  H11A 6067   1.651   4.638   9.686  1.0650 -0.1227 -0.1241
   49CHL1  H11B 6068   1.649   4.463   9.717  0.4267 -1.0337 -0.0732
   49CHL1    C9 6069   1.844   4.559   9.740  0.1845  0.7381  0.2222
   49CHL1    H9 6070   1.880   4.454   9.728  1.5911  1.1462  0.6744
   49CHL1   C10 6071   1.845   4.585   9.891  0.1980  0.0509  0.0628
   49CHL1   C19 6072   1.770   4.720   9.913  0.4201  0.1732 -0.9288
   49CHL1  H19A 6073   1.837   4.801   9.878  1.6447 -0.4268 -0.0848
   49CHL1  H19B 6074   1.665   4.731   9.879 -0.6237 -1.0076  1.6453
   49CHL1  H19C 6075   1.760   4.736  10.022  0.7221  1.0112 -1.0183
   49CHL1    C1 6076   1.771   4.477   9.970 -0.1897 -0.4302  1.0851
   49CHL1   H1A 6077   1.664   4.490   9.943  0.0293 -0.7173  0.0259
   49CHL1   H1B 6078   1.817   4.387   9.921  0.4867  1.2764 -1.6624
   49CHL1    C2 6079   1.790   4.473  10.125  0.4350 -0.0749  0.2072
   49CHL1   H2A 6080   1.731   4.396  10.179  0.8110 -0.7898 -0.3875
   49CHL1   H2B 6081   1.749   4.565  10.173 -1.2554  1.1349 -3.1934
   49CHL1   C20 6082   1.714   4.677   9.208 -0.1424  0.3179 -0.3054
   49CHL1   H20 6083   1.703   4.787   9.210  0.1507  0.3450  1.4655
   49CHL1   C21 6084   1.572   4.611   9.224 -0.5948 -0.5694 -0.4494
   49CHL1  H21A 6085   1.497   4.672   9.168 -0.7882 -0.5841 -0.2113
   49CHL1  H21B 6086   1.530   4.605   9.327 -0.6164  0.6406 -0.3715
   49CHL1  H21C 6087   1.567   4.509   9.182  0.9905 -0.0215 -2.0318
   49CHL1   C22 6088   1.760   4.650   9.061  0.0115  0.6679 -0.0251
   49CHL1  H22A 6089   1.862   4.688   9.038  1.3461 -1.7497  1.5356
   49CHL1  H22B 6090   1.773   4.541   9.045  2.6603  1.1678 -1.8769
   49CHL1   C23 6091   1.670   4.713   8.956  0.0307  0.2197  0.3192
   49CHL1  H23A 6092   1.574   4.658   8.966  0.6956 -0.7208  1.7894
   49CHL1  H23B 6093   1.662   4.821   8.982  2.4082 -0.0885  2.7743
   49CHL1   C24 6094   1.724   4.690   8.818  0.2452 -0.4540  0.0534
   49CHL1  H24A 6095   1.818   4.747   8.805  1.0982 -1.0115  2.9632
   49CHL1  H24B 6096   1.758   4.584   8.815  2.0015  0.1047 -1.1883
   49CHL1   C25 6097   1.634   4.725   8.703  0.2082  0.3888 -0.6602
   49CHL1   H25 6098   1.542   4.666   8.722  0.3731  1.1112  3.2296
   49CHL1   C26 6099   1.582   4.870   8.691  0.0919  0.1979  0.0026
   49CHL1  H26A 6100   1.666   4.934   8.725  1.6698 -1.7913 -0.0081
   49CHL1  H26B 6101   1.529   4.894   8.596 -2.1742 -2.5454  0.4395
   49CHL1  H26C 6102   1.499   4.878   8.765 -0.6976 -0.8683 -0.7334
   49CHL1   C27 6103   1.706   4.671   8.583  0.1359  0.8761 -0.1549
   49CHL1  H27A 6104   1.641   4.695   8.496 -0.4812  1.9699  0.5807
   49CHL1  H27B 6105   1.808   4.712   8.568  0.9781 -1.1112 -0.1473
   49CHL1  H27C 6106   1.715   4.561   8.596  1.1263  1.0620  0.8961
   50CHL1    C3 6107   4.990   1.818  10.204  0.0199 -0.2045  0.8480
   50CHL1    H3 6108   4.960   1.872  10.112 -1.1038 -0.8878  0.7868
   50CHL1    O3 6109   5.040   1.895  10.314 -0.2656 -0.3872 -0.1941
   50CHL1   H3' 6110   4.976   1.966  10.329  1.8373  1.8765 -1.1823
   50CHL1    C4 6111   4.863   1.749  10.256  0.3755  0.6221 -0.0932
   50CHL1   H4A 6112   4.883   1.700  10.354  0.0090  0.2180 -0.2187
   50CHL1   H4B 6113   4.781   1.821  10.279 -0.8488 -0.8768  0.3856
   50CHL1    C5 6114   4.814   1.652  10.149 -0.2655  0.6601 -0.0246
   50CHL1    C6 6115   4.690   1.649  10.099  0.5308 -0.6539  1.1599
   50CHL1    H6 6116   4.614   1.726  10.117 -0.2977 -0.9486 -0.8663
   50CHL1    C7 6117   4.630   1.545  10.012 -0.5368 -1.0308  0.2905
   50CHL1   H7A 6118   4.521   1.530  10.032 -1.3501  2.5752 -0.6276
   50CHL1   H7B 6119   4.629   1.589   9.910 -2.9086  0.9300  1.0500
   50CHL1    C8 6120   4.711   1.412  10.008  0.1331  0.2826  0.5460
   50CHL1    H8 6121   4.689   1.345  10.094 -0.6192  1.1637  1.0541
   50CHL1   C14 6122   4.670   1.333   9.878 -0.5114  0.4482 -0.0332
   50CHL1   H14 6123   4.706   1.396   9.795  1.3190 -2.3387 -1.5229
   50CHL1   C15 6124   4.517   1.305   9.859 -0.2111 -0.7224 -0.2792
   50CHL1  H15A 6125   4.472   1.278   9.957  0.3242  2.4793  0.9428
   50CHL1  H15B 6126   4.482   1.401   9.818  1.4967 -0.0420 -0.2393
   50CHL1   C16 6127   4.519   1.187   9.772  0.5924 -0.2620  0.6742
   50CHL1  H16A 6128   4.451   1.112   9.817 -2.5443  1.2726 -1.1208
   50CHL1  H16B 6129   4.478   1.213   9.672 -1.3421  1.8076  1.8901
   50CHL1   C17 6130   4.665   1.141   9.749  0.0394 -0.1812 -0.4068
   50CHL1   H17 6131   4.701   1.198   9.661 -0.8334  0.5362 -0.3149
   50CHL1   C13 6132   4.743   1.196   9.866 -0.2203  0.5587 -0.2274
   50CHL1   C18 6133   4.719   1.102   9.987 -0.5179 -0.5121 -0.5670
   50CHL1  H18A 6134   4.758   1.149  10.080 -1.6698  0.0271 -0.3466
   50CHL1  H18B 6135   4.611   1.081   9.997 -0.7283  0.6694 -0.1765
   50CHL1  H18C 6136   4.781   1.010   9.979  0.9132  0.4148 -0.4186
   50CHL1   C12 6137   4.892   1.224   9.845  0.1605  0.6948  0.4770
   50CHL1  H12A 6138   4.951   1.130   9.854 -0.1051  0.2821 -1.6292
   50CHL1  H12B 6139   4.902   1.264   9.742  2.4868 -2.4910 -0.7164
   50CHL1   C11 6140   4.944   1.314   9.960  0.0808 -0.0719  0.4542
   50CHL1  H11A 6141   4.927   1.246  10.047  1.3444 -1.6926 -0.5138
   50CHL1  H11B 6142   5.051   1.346   9.955  0.1404  0.1387  2.1559
   50CHL1    C9 6143   4.861   1.441  10.004  0.1842  0.2522 -0.1557
   50CHL1    H9 6144   4.884   1.505   9.916  2.0481 -0.1620 -0.0199
   50CHL1   C10 6145   4.914   1.534  10.127  0.2174 -0.1604  0.3210
   50CHL1   C19 6146   4.938   1.439  10.246  0.9021 -0.0261  0.2530
   50CHL1  H19A 6147   4.840   1.391  10.267 -0.4057  2.0454 -0.8112
   50CHL1  H19B 6148   5.015   1.363  10.220  0.5961  0.2841 -1.7663
   50CHL1  H19C 6149   4.972   1.498  10.333 -1.3987  1.9984 -0.1178
   50CHL1    C1 6150   5.049   1.595  10.082  0.3120 -0.0165  0.6326
   50CHL1   H1A 6151   5.127   1.517  10.093  0.8884  0.7068  1.8911
   50CHL1   H1B 6152   5.038   1.633   9.978 -0.6193 -0.5257  0.5312
   50CHL1    C2 6153   5.096   1.711  10.167  0.5360  0.2313  0.5100
   50CHL1   H2A 6154   5.178   1.750  10.104 -1.1478  1.7157 -0.8761
   50CHL1   H2B 6155   5.138   1.667  10.261 -0.8060 -0.3862  0.8526
   50CHL1   C20 6156   4.680   0.996   9.709  0.7072  0.0387  0.0352
   50CHL1   H20 6157   4.668   0.932   9.800  2.0339  2.0857  1.7420
   50CHL1   C21 6158   4.819   0.975   9.656 -0.1164  0.6636  0.7452
   50CHL1  H21A 6159   4.839   0.877   9.609  0.3179  0.7580  0.7308
   50CHL1  H21B 6160   4.888   0.969   9.743  1.3166 -0.6203 -0.4416
   50CHL1  H21C 6161   4.857   1.058   9.592  2.3844  0.5742  1.9813
   50CHL1   C22 6162   4.574   0.940   9.607  0.6809 -0.7221 -0.1586
   50CHL1  H22A 6163   4.598   0.833   9.592  1.7984 -0.3452 -1.2261
   50CHL1  H22B 6164   4.473   0.946   9.653  0.0762  0.9261 -1.5844
   50CHL1   C23 6165   4.563   1.007   9.467  0.8684  0.1665 -0.1024
   50CHL1  H23A 6166   4.567   1.118   9.470 -1.1686  0.3024 -0.8237
   50CHL1  H23B 6167   4.652   0.970   9.411  0.0947 -2.2869  0.1853
   50CHL1   C24 6168   4.429   0.967   9.395 -0.4277 -0.3537  0.2808
   50CHL1  H24A 6169   4.351   1.006   9.464  0.9859  1.9595  0.7020
   50CHL1  H24B 6170   4.420   1.020   9.298 -2.0436  1.0859  1.1489
   50CHL1   C25 6171   4.417   0.813   9.369  1.1918 -0.0652 -0.2089
   50CHL1   H25 6172   4.434   0.772   9.471  1.8844 -0.6571 -0.5592
   50CHL1   C26 6173   4.273   0.788   9.317 -0.5600  0.0358  0.6351
   50CHL1  H26A 6174   4.260   0.851   9.227  0.4426 -0.0994  0.3777
   50CHL1  H26B 6175   4.271   0.678   9.300 -1.2377 -0.3565  2.8490
   50CHL1  H26C 6176   4.191   0.815   9.387  0.0958  0.0403  1.4158
   50CHL1   C27 6177   4.516   0.771   9.271  0.0870 -0.4581  0.4456
   50CHL1  H27A 6178   4.506   0.666   9.234 -0.4758  0.2017 -1.4177
   50CHL1  H27B 6179   4.506   0.844   9.189 -0.1116 -0.5686  0.3689
   50CHL1  H27C 6180   4.621   0.776   9.307  0.2609  1.2040 -0.2226
   51CHL1    C3 6181   1.517   3.612  10.209  0.3451 -0.1757  0.3598
   51CHL1    H3 6182   1.565   3.712  10.200 -2.0394  1.0911  0.8347
   51CHL1    O3 6183   1.521   3.584  10.347 -0.3176  0.2552 -0.0392
   51CHL1   H3' 6184   1.464   3.510  10.369  0.6029 -0.0516  1.4725
   51CHL1    C4 6185   1.375   3.618  10.157  0.4660 -0.1442  0.0463
   51CHL1   H4A 6186   1.328   3.520  10.180  0.3788 -0.1865 -0.3034
   51CHL1   H4B 6187   1.302   3.676  10.218 -0.6407 -1.9800  0.5711
   51CHL1    C5 6188   1.367   3.644  10.002  0.1819 -0.2764 -0.2197
   51CHL1    C6 6189   1.301   3.748   9.953 -0.0406 -0.2213  0.0630
   51CHL1    H6 6190   1.254   3.824  10.017  1.0373  1.9282 -1.5327
   51CHL1    C7 6191   1.289   3.782   9.804 -0.5036  0.1802  0.3091
   51CHL1   H7A 6192   1.183   3.810   9.793 -0.0226  1.3360 -1.9003
   51CHL1   H7B 6193   1.355   3.867   9.779 -1.3243  1.0010  0.8806
   51CHL1    C8 6194   1.336   3.663   9.718  0.2376 -0.2487  0.3531
   51CHL1    H8 6195   1.247   3.597   9.719  0.3279 -0.3874 -0.3415
   51CHL1   C14 6196   1.356   3.710   9.572 -0.2873 -0.1692  0.4275
   51CHL1   H14 6197   1.432   3.791   9.567 -0.3208 -0.1640 -0.0707
   51CHL1   C15 6198   1.239   3.783   9.502  0.0697 -0.3168  0.2863
   51CHL1  H15A 6199   1.140   3.737   9.523  0.4025 -1.9018 -1.4440
   51CHL1  H15B 6200   1.224   3.892   9.522 -1.4976 -0.8056  2.0880
   51CHL1   C16 6201   1.271   3.767   9.354  0.3353 -0.1467 -0.4827
   51CHL1  H16A 6202   1.193   3.710   9.299  0.3509  0.4571 -1.1496
   51CHL1  H16B 6203   1.292   3.860   9.297 -4.1833  2.4001  1.4704
   51CHL1   C17 6204   1.399   3.674   9.342 -0.1319 -0.0430 -0.1229
   51CHL1   H17 6205   1.484   3.745   9.341 -0.1248 -0.0508 -1.1601
   51CHL1   C13 6206   1.398   3.593   9.481  0.1527 -1.1148 -0.2755
   51CHL1   C18 6207   1.281   3.489   9.468 -0.1460  0.2923 -0.1704
   51CHL1  H18A 6208   1.186   3.540   9.440  0.9390  0.9559 -2.9714
   51CHL1  H18B 6209   1.310   3.415   9.391 -0.8988  1.0879 -1.2592
   51CHL1  H18C 6210   1.280   3.427   9.561  1.4407 -2.0921 -1.6376
   51CHL1   C12 6211   1.533   3.552   9.522 -0.2352  0.2407 -0.4011
   51CHL1  H12A 6212   1.564   3.460   9.467 -0.3750  0.4884 -0.8953
   51CHL1  H12B 6213   1.609   3.632   9.514  1.4700 -1.2895 -0.1406
   51CHL1   C11 6214   1.530   3.504   9.676 -0.4071 -0.2382  0.3682
   51CHL1  H11A 6215   1.477   3.406   9.679  0.2656 -0.7868 -2.6127
   51CHL1  H11B 6216   1.634   3.482   9.706  0.4477 -0.2629 -2.3344
   51CHL1    C9 6217   1.464   3.605   9.775  0.1725  0.1047 -0.0483
   51CHL1    H9 6218   1.530   3.695   9.771  2.1898 -1.3426 -1.5221
   51CHL1   C10 6219   1.452   3.551   9.916  0.3750  0.4173  0.2137
   51CHL1   C19 6220   1.378   3.410   9.917 -0.1846 -0.4767  0.1040
   51CHL1  H19A 6221   1.358   3.380  10.022  1.5737  0.3600  0.7117
   51CHL1  H19B 6222   1.282   3.410   9.860 -0.8333 -1.8852  1.1207
   51CHL1  H19C 6223   1.432   3.324   9.872 -1.7282 -1.0694 -0.7019
   51CHL1    C1 6224   1.590   3.533   9.975  0.0903 -1.2418  0.0729
   51CHL1   H1A 6225   1.635   3.449   9.918 -1.3957 -0.3284 -2.6713
   51CHL1   H1B 6226   1.645   3.630   9.970 -1.0907 -0.2931  3.2102
   51CHL1    C2 6227   1.585   3.500  10.130  0.2261 -0.2478  0.0253
   51CHL1   H2A 6228   1.689   3.495  10.168  1.1254  0.0964 -2.2321
   51CHL1   H2B 6229   1.538   3.400  10.143  0.7622 -1.3414 -4.6927
   51CHL1   C20 6230   1.422   3.593   9.210 -0.2756  0.4284 -0.0306
   51CHL1   H20 6231   1.348   3.510   9.212  0.1563 -0.1295 -2.7838
   51CHL1   C21 6232   1.562   3.526   9.204  0.0088 -0.0880  0.2043
   51CHL1  H21A 6233   1.646   3.587   9.244 -0.5279 -1.1441  3.2790
   51CHL1  H21B 6234   1.594   3.495   9.103  3.6832 -0.4839  1.3527
   51CHL1  H21C 6235   1.563   3.440   9.275  0.8194  0.0637  0.3811
   51CHL1   C22 6236   1.385   3.679   9.082 -0.3377  0.0883  0.2948
   51CHL1  H22A 6237   1.281   3.716   9.090 -1.5504 -2.2399 -2.4982
   51CHL1  H22B 6238   1.455   3.763   9.063 -0.2828  0.1491  0.7575
   51CHL1   C23 6239   1.377   3.601   8.945 -0.9160 -1.0135 -0.7438
   51CHL1  H23A 6240   1.475   3.554   8.921 -0.1686  1.4042 -2.8369
   51CHL1  H23B 6241   1.299   3.523   8.939  0.1509 -2.1470 -0.4525
   51CHL1   C24 6242   1.346   3.688   8.819 -0.4491  0.9236  0.2175
   51CHL1  H24A 6243   1.247   3.738   8.824 -0.9293  0.4291 -2.7149
   51CHL1  H24B 6244   1.425   3.765   8.830 -1.6773  2.3969 -0.8146
   51CHL1   C25 6245   1.343   3.605   8.692 -0.0633 -0.6879 -0.1764
   51CHL1   H25 6246   1.401   3.510   8.697  1.5235  0.2653  0.2773
   51CHL1   C26 6247   1.197   3.567   8.672  0.4920 -0.2103 -0.0302
   51CHL1  H26A 6248   1.169   3.491   8.748 -3.2083 -0.8006 -1.7825
   51CHL1  H26B 6249   1.128   3.654   8.673  0.5189 -0.1852  1.4554
   51CHL1  H26C 6250   1.173   3.517   8.576 -1.5615 -0.5079  0.5952
   51CHL1   C27 6251   1.391   3.684   8.569  1.0975  0.1333  0.1629
   51CHL1  H27A 6252   1.402   3.608   8.490  1.1454 -1.2359  1.4456
   51CHL1  H27B 6253   1.319   3.767   8.551  1.8681  1.2112  1.7611
   51CHL1  H27C 6254   1.494   3.722   8.586  2.3881 -1.8088 -2.6571
   52CHL1    C3 6255   5.717   3.387  10.152  0.2745 -0.1761  0.2621
   52CHL1    H3 6256   5.824   3.383  10.122  0.2359 -0.2491  0.1351
   52CHL1    O3 6257   5.718   3.399  10.296 -0.1143 -0.3151 -0.1103
   52CHL1   H3' 6258   5.670   3.478  10.320  0.6713  0.6044 -1.4242
   52CHL1    C4 6259   5.653   3.513  10.086  0.2814 -0.0404  0.0540
   52CHL1   H4A 6260   5.557   3.522  10.141  0.6734 -1.1598  0.9577
   52CHL1   H4B 6261   5.720   3.598  10.109  0.4099  0.0532 -0.6431
   52CHL1    C5 6262   5.646   3.478   9.938  0.9178  0.0307 -0.0476
   52CHL1    C6 6263   5.713   3.552   9.848  0.0441 -0.7492  0.1546
   52CHL1    H6 6264   5.772   3.635   9.889 -0.2760 -0.7386  0.5992
   52CHL1    C7 6265   5.703   3.536   9.698  0.3835 -0.8236 -0.1711
   52CHL1   H7A 6266   5.716   3.630   9.640  1.6533 -2.1098 -2.1097
   52CHL1   H7B 6267   5.791   3.476   9.666  0.7571 -0.8136  0.7977
   52CHL1    C8 6268   5.587   3.453   9.656  0.5180  0.7312  0.7348
   52CHL1    H8 6269   5.497   3.519   9.655  1.4001  1.9564 -0.3171
   52CHL1   C14 6270   5.602   3.404   9.513  0.1625  0.5157 -0.2817
   52CHL1   H14 6271   5.701   3.353   9.510  1.1788  2.4004 -0.9042
   52CHL1   C15 6272   5.632   3.508   9.409 -0.2517 -1.0583 -0.0140
   52CHL1  H15A 6273   5.566   3.597   9.409  1.2758  0.1358  0.9551
   52CHL1  H15B 6274   5.729   3.562   9.422 -0.7500 -0.1200 -0.0902
   52CHL1   C16 6275   5.623   3.434   9.272  0.6470  0.1649 -0.2256
   52CHL1  H16A 6276   5.583   3.497   9.190  2.3991 -0.2150 -1.4429
   52CHL1  H16B 6277   5.724   3.404   9.235  1.9037  1.2119  2.1895
   52CHL1   C17 6278   5.550   3.297   9.307  0.2559  1.0177  0.2926
   52CHL1   H17 6279   5.625   3.216   9.324 -0.9840  0.1274  1.8518
   52CHL1   C13 6280   5.487   3.321   9.448  0.7232 -0.0706  0.6518
   52CHL1   C18 6281   5.362   3.401   9.429 -0.1332  0.6790 -0.0653
   52CHL1  H18A 6282   5.339   3.473   9.511 -0.2647  1.2491 -0.5917
   52CHL1  H18B 6283   5.372   3.470   9.341  1.3297  1.7964  0.9257
   52CHL1  H18C 6284   5.280   3.327   9.416  1.5335 -1.1433 -0.5273
   52CHL1   C12 6285   5.469   3.205   9.548 -0.2024 -0.2622 -0.1991
   52CHL1  H12A 6286   5.381   3.143   9.519 -0.0990 -1.0529  1.1279
   52CHL1  H12B 6287   5.547   3.126   9.548 -1.3950 -1.5296  1.7553
   52CHL1   C11 6288   5.436   3.253   9.695  0.6361 -0.6055 -0.0212
   52CHL1  H11A 6289   5.334   3.297   9.701 -0.2095 -2.5413  0.2769
   52CHL1  H11B 6290   5.426   3.161   9.756 -1.5941 -0.4358 -0.0639
   52CHL1    C9 6291   5.559   3.334   9.748  0.7158  0.7031  0.4380
   52CHL1    H9 6292   5.651   3.274   9.730  0.1115 -0.9039  2.3195
   52CHL1   C10 6293   5.553   3.369   9.898  0.1375  0.0890  0.3604
   52CHL1   C19 6294   5.403   3.379   9.938 -0.2999 -0.0788 -0.1795
   52CHL1  H19A 6295   5.349   3.429   9.854  2.2600 -2.3895 -3.4490
   52CHL1  H19B 6296   5.359   3.279   9.954  2.0680 -0.8670  2.1838
   52CHL1  H19C 6297   5.403   3.439  10.032  0.7933 -1.3169  0.6451
   52CHL1    C1 6298   5.614   3.246   9.965  0.2829 -1.2841  0.7737
   52CHL1   H1A 6299   5.540   3.168   9.935 -1.7693  1.1073 -0.8322
   52CHL1   H1B 6300   5.714   3.228   9.921 -0.1351 -4.0305  0.7462
   52CHL1    C2 6301   5.636   3.262  10.117 -0.2160 -0.3169  1.1977
   52CHL1   H2A 6302   5.670   3.172  10.173 -1.5843 -1.1788  0.6933
   52CHL1   H2B 6303   5.538   3.272  10.169 -1.1553  1.4840 -0.7447
   52CHL1   C20 6304   5.461   3.257   9.187  0.4861  0.3648  0.2601
   52CHL1   H20 6305   5.394   3.341   9.161  1.1550 -0.1129 -3.7467
   52CHL1   C21 6306   5.376   3.134   9.230 -0.4066 -0.6192 -0.0719
   52CHL1  H21A 6307   5.447   3.051   9.250  3.8512  2.2945 -1.6178
   52CHL1  H21B 6308   5.302   3.110   9.151  1.2544 -0.1162 -1.8828
   52CHL1  H21C 6309   5.321   3.173   9.318 -0.3578 -2.5912  0.8757
   52CHL1   C22 6310   5.524   3.230   9.045  0.0205  1.3161 -0.0400
   52CHL1  H22A 6311   5.627   3.272   9.045  1.3819 -1.7889  0.4293
   52CHL1  H22B 6312   5.539   3.120   9.047 -1.0992  1.0797 -1.7798
   52CHL1   C23 6313   5.434   3.272   8.936  0.0605  0.6062 -0.4586
   52CHL1  H23A 6314   5.335   3.224   8.945  1.6177 -2.5075  1.8760
   52CHL1  H23B 6315   5.421   3.382   8.947  4.1144  1.2723 -0.7290
   52CHL1   C24 6316   5.498   3.243   8.797  0.0217 -0.2213 -0.0405
   52CHL1  H24A 6317   5.601   3.286   8.796  1.1299 -2.6736  0.5276
   52CHL1  H24B 6318   5.498   3.133   8.784 -1.6350 -0.3595  0.8522
   52CHL1   C25 6319   5.429   3.299   8.672  0.5874  0.2066 -0.5200
   52CHL1   H25 6320   5.446   3.409   8.672 -1.6449  0.6284  1.0885
   52CHL1   C26 6321   5.477   3.235   8.537 -0.2212  0.4933  0.5613
   52CHL1  H26A 6322   5.588   3.229   8.527 -0.3263 -1.9461  0.2818
   52CHL1  H26B 6323   5.449   3.128   8.546 -1.4534  0.8000  0.4617
   52CHL1  H26C 6324   5.429   3.278   8.447 -1.2926 -0.7019  0.5396
   52CHL1   C27 6325   5.268   3.286   8.674 -0.3645  0.2091  0.0449
   52CHL1  H27A 6326   5.254   3.178   8.655  1.9370 -0.6084  2.3517
   52CHL1  H27B 6327   5.223   3.307   8.773 -0.4536 -0.0787  0.0675
   52CHL1  H27C 6328   5.226   3.352   8.595 -0.4956 -0.6662 -0.6244
   53CHL1    C3 6329   4.625   3.170  10.240  0.2761  0.4349  0.5646
   53CHL1    H3 6330   4.618   3.280  10.226 -0.4079  0.5214  1.4955
   53CHL1    O3 6331   4.632   3.170  10.378 -0.0802 -0.7290  0.4683
   53CHL1   H3' 6332   4.636   3.076  10.400 -0.7129 -1.3613 -1.8131
   53CHL1    C4 6333   4.501   3.087  10.197  0.3333  0.3592  0.6373
   53CHL1   H4A 6334   4.518   2.981  10.226  2.3384  0.1181 -1.1739
   53CHL1   H4B 6335   4.404   3.119  10.241  1.0522  2.6264  0.7396
   53CHL1    C5 6336   4.493   3.091  10.045 -1.1701 -0.0336  0.0417
   53CHL1    C6 6337   4.377   3.128   9.993  0.2906 -0.1359  0.2539
   53CHL1    H6 6338   4.285   3.148  10.049 -0.7648 -2.2300 -0.6307
   53CHL1    C7 6339   4.351   3.148   9.848 -0.6462  0.4020 -0.2014
   53CHL1   H7A 6340   4.254   3.104   9.818 -0.3407 -1.2412  1.0867
   53CHL1   H7B 6341   4.348   3.255   9.818  0.1166  1.0841  1.9898
   53CHL1    C8 6342   4.466   3.091   9.759  0.7121  0.4375 -0.3737
   53CHL1    H8 6343   4.446   2.982   9.755 -3.4101  0.9922  0.1408
   53CHL1   C14 6344   4.452   3.141   9.613 -0.0474 -0.3497 -0.6004
   53CHL1   H14 6345   4.465   3.251   9.614  5.6109 -0.6964 -0.9631
   53CHL1   C15 6346   4.322   3.120   9.543  0.0676  0.4004  0.5460
   53CHL1  H15A 6347   4.294   3.016   9.568 -1.2129  0.4225 -0.6416
   53CHL1  H15B 6348   4.239   3.184   9.579 -1.0107 -0.5006 -0.2559
   53CHL1   C16 6349   4.353   3.141   9.396  0.4522  0.0466  0.2920
   53CHL1  H16A 6350   4.329   3.043   9.351  1.8795  0.5820 -1.7823
   53CHL1  H16B 6351   4.298   3.230   9.359  0.5907 -0.2572 -0.6480
   53CHL1   C17 6352   4.503   3.158   9.392 -0.1567  0.1953  0.2760
   53CHL1   H17 6353   4.516   3.267   9.409 -1.1409  0.5483 -1.0629
   53CHL1   C13 6354   4.559   3.093   9.517  0.1503 -0.8715  0.1839
   53CHL1   C18 6355   4.567   2.940   9.503  0.3926  0.3613 -0.6477
   53CHL1  H18A 6356   4.610   2.896   9.410  0.7337 -0.4929 -0.0991
   53CHL1  H18B 6357   4.616   2.892   9.590  0.3060  0.5817 -0.4747
   53CHL1  H18C 6358   4.469   2.889   9.504  1.3153 -1.5221  1.4616
   53CHL1   C12 6359   4.697   3.149   9.565  0.0709 -0.1740 -0.3868
   53CHL1  H12A 6360   4.784   3.114   9.505  0.4581  1.3398 -0.7451
   53CHL1  H12B 6361   4.701   3.260   9.563  0.2127 -0.1767 -0.2688
   53CHL1   C11 6362   4.724   3.113   9.719  0.4046 -0.4513 -0.1030
   53CHL1  H11A 6363   4.748   3.005   9.709 -0.3235 -0.8707  2.1899
   53CHL1  H11B 6364   4.815   3.157   9.765  0.2155  1.6712 -1.6321
   53CHL1    C9 6365   4.601   3.132   9.813  0.1322 -0.2277  0.1206
   53CHL1    H9 6366   4.606   3.242   9.820  0.6732 -0.2974  0.9696
   53CHL1   C10 6367   4.625   3.079   9.956  0.3496  0.0774 -1.1304
   53CHL1   C19 6368   4.659   2.932   9.958  0.1204  0.2503  0.5243
   53CHL1  H19A 6369   4.686   2.902  10.062  0.2567  1.3808  0.8246
   53CHL1  H19B 6370   4.571   2.865   9.942  0.8046 -1.2526  2.6089
   53CHL1  H19C 6371   4.742   2.902   9.890 -0.9987 -1.9251  0.0145
   53CHL1    C1 6372   4.754   3.153  10.020  0.2554  0.3906 -0.1889
   53CHL1   H1A 6373   4.841   3.106   9.969 -0.8802 -3.3396  0.9064
   53CHL1   H1B 6374   4.742   3.259   9.992 -0.6163  0.6706  1.1339
   53CHL1    C2 6375   4.752   3.140  10.173 -0.5882  0.1982 -0.0995
   53CHL1   H2A 6376   4.832   3.210  10.207 -0.3377 -0.4946  0.7851
   53CHL1   H2B 6377   4.788   3.039  10.202  1.2917 -0.1369 -3.1556
   53CHL1   C20 6378   4.571   3.114   9.257 -0.3954 -0.9111 -0.0586
   53CHL1   H20 6379   4.676   3.085   9.280  1.3683  2.6149 -2.7397
   53CHL1   C21 6380   4.583   3.244   9.169  0.4496 -0.5017 -0.4743
   53CHL1  H21A 6381   4.620   3.326   9.234  0.2076 -0.0447 -0.9100
   53CHL1  H21B 6382   4.492   3.273   9.113  1.3384  1.2482 -1.0921
   53CHL1  H21C 6383   4.658   3.222   9.090 -0.1626 -1.2308 -0.8646
   53CHL1   C22 6384   4.504   3.002   9.163  0.0523  0.2520 -0.1041
   53CHL1  H22A 6385   4.510   2.914   9.231  1.8331 -0.4918 -1.1449
   53CHL1  H22B 6386   4.401   3.036   9.141 -0.4591 -0.8363  0.5586
   53CHL1   C23 6387   4.575   2.966   9.030  0.1642 -0.3309 -0.3099
   53CHL1  H23A 6388   4.559   3.040   8.949 -0.6989 -2.3157 -2.0377
   53CHL1  H23B 6389   4.684   2.958   9.046  0.0331  0.7424  1.4532
   53CHL1   C24 6390   4.536   2.825   8.962 -0.1839 -0.7786 -0.5939
   53CHL1  H24A 6391   4.541   2.757   9.050  1.3325 -1.5138 -1.2279
   53CHL1  H24B 6392   4.432   2.830   8.922 -0.5014  3.1957  0.2554
   53CHL1   C25 6393   4.636   2.789   8.853  0.0480  0.3763  1.0323
   53CHL1   H25 6394   4.740   2.787   8.891  0.4706 -0.4798 -0.1148
   53CHL1   C26 6395   4.610   2.644   8.796  0.4226  0.1514  0.2515
   53CHL1  H26A 6396   4.630   2.566   8.872  0.7189  0.6061  0.6453
   53CHL1  H26B 6397   4.500   2.639   8.779  0.8638 -2.5282 -2.5627
   53CHL1  H26C 6398   4.657   2.627   8.697  0.4378 -0.1644  0.3105
   53CHL1   C27 6399   4.635   2.872   8.723 -0.3836  0.1596  0.2312
   53CHL1  H27A 6400   4.740   2.871   8.686  0.1855 -0.4033  1.7880
   53CHL1  H27B 6401   4.565   2.846   8.641 -2.5456 -0.2445  2.0961
   53CHL1  H27C 6402   4.612   2.980   8.734 -0.9893  0.1823 -1.0727
   54CHL1    C3 6403   2.581   3.861  10.170 -0.4350 -0.2826  0.8626
   54CHL1    H3 6404   2.499   3.932  10.196 -0.9155  0.7337 -2.8642
   54CHL1    O3 6405   2.633   3.828  10.294 -0.4091 -0.1011 -0.1083
   54CHL1   H3' 6406   2.706   3.771  10.271  1.2522  2.1720 -0.8246
   54CHL1    C4 6407   2.539   3.740  10.084  0.3584 -0.3383 -0.1186
   54CHL1   H4A 6408   2.621   3.665  10.092 -0.9243 -1.8004 -0.1319
   54CHL1   H4B 6409   2.458   3.701  10.150  1.6648 -2.3681  0.3646
   54CHL1    C5 6410   2.500   3.777   9.941 -0.7725  0.0798 -0.6222
   54CHL1    C6 6411   2.380   3.746   9.896 -0.2118  0.4903  0.0285
   54CHL1    H6 6412   2.320   3.678   9.957  0.3268  0.9461  1.0833
   54CHL1    C7 6413   2.331   3.764   9.757  0.1844  0.4402 -0.1204
   54CHL1   H7A 6414   2.291   3.668   9.718 -0.4828  0.6879 -0.0571
   54CHL1   H7B 6415   2.252   3.842   9.759  0.5349  0.9223 -2.3488
   54CHL1    C8 6416   2.452   3.796   9.662 -1.3033  0.1846  0.8842
   54CHL1    H8 6417   2.518   3.708   9.652  0.7975  1.7743  0.0088
   54CHL1   C14 6418   2.403   3.849   9.521 -1.3779  0.2840 -0.8588
   54CHL1   H14 6419   2.345   3.939   9.548  0.1231  0.7021  1.3139
   54CHL1   C15 6420   2.307   3.763   9.444  0.6157  0.3052  0.0494
   54CHL1  H15A 6421   2.338   3.656   9.449 -0.8003 -0.1648 -0.7268
   54CHL1  H15B 6422   2.210   3.774   9.497  1.2954  0.8539  1.2088
   54CHL1   C16 6423   2.311   3.821   9.306 -0.5484 -0.0929 -0.9490
   54CHL1  H16A 6424   2.323   3.739   9.232 -1.5557  1.2219 -2.6646
   54CHL1  H16B 6425   2.214   3.876   9.298 -2.2910 -2.8048  0.2817
   54CHL1   C17 6426   2.440   3.915   9.301 -0.4748  0.0674  0.5783
   54CHL1   H17 6427   2.402   4.018   9.317 -0.6046  0.3846 -1.5101
   54CHL1   C13 6428   2.514   3.882   9.429 -0.2938 -0.0746 -0.5499
   54CHL1   C18 6429   2.604   3.760   9.416  0.3920  0.6685  0.0138
   54CHL1  H18A 6430   2.676   3.789   9.336 -0.6893 -0.6701 -1.5077
   54CHL1  H18B 6431   2.657   3.724   9.507 -0.2395 -1.5865 -0.4491
   54CHL1  H18C 6432   2.555   3.677   9.362  0.9167  1.0083 -1.0209
   54CHL1   C12 6433   2.588   3.999   9.490  1.3481 -0.3406  0.4476
   54CHL1  H12A 6434   2.667   4.032   9.418  1.9986 -1.4258  0.6481
   54CHL1  H12B 6435   2.508   4.076   9.502  0.5030 -0.9745 -0.8958
   54CHL1   C11 6436   2.646   3.965   9.627  0.3380  0.4341  0.3331
   54CHL1  H11A 6437   2.727   3.891   9.609 -0.1461 -0.5202  1.8626
   54CHL1  H11B 6438   2.682   4.057   9.677 -0.9942  0.2411  1.7502
   54CHL1    C9 6439   2.538   3.908   9.723 -0.6043  0.1417  0.1281
   54CHL1    H9 6440   2.465   3.988   9.745  1.5821  1.5110  3.1818
   54CHL1   C10 6441   2.599   3.852   9.856  0.1413 -0.6182 -0.3100
   54CHL1   C19 6442   2.733   3.765   9.832  0.1467  0.6605  0.2668
   54CHL1  H19A 6443   2.819   3.831   9.808  0.4758 -0.0607 -0.5936
   54CHL1  H19B 6444   2.759   3.707   9.923 -3.1123  3.7137  3.4742
   54CHL1  H19C 6445   2.709   3.689   9.753  0.0365 -0.0066  0.9326
   54CHL1    C1 6446   2.643   3.974   9.946  0.0446 -0.1181  0.1217
   54CHL1   H1A 6447   2.734   4.018   9.900  0.5727  0.1870  1.3979
   54CHL1   H1B 6448   2.555   4.041   9.944 -0.8564 -1.2411  1.0641
   54CHL1    C2 6449   2.688   3.948  10.093  0.0449  0.7823  0.5022
   54CHL1   H2A 6450   2.716   4.043  10.143  1.2156 -0.5464  2.5196
   54CHL1   H2B 6451   2.776   3.879  10.098 -0.2162  0.5557  3.3022
   54CHL1   C20 6452   2.505   3.910   9.157 -0.2881  0.5175 -0.4989
   54CHL1   H20 6453   2.550   3.809   9.151  0.2882  0.7140  0.2183
   54CHL1   C21 6454   2.620   4.009   9.162  1.1624 -0.5073  0.4749
   54CHL1  H21A 6455   2.670   4.035   9.066  1.8839  1.2667  1.2874
   54CHL1  H21B 6456   2.705   3.966   9.220  2.9137  2.0260 -0.0645
   54CHL1  H21C 6457   2.598   4.101   9.221 -1.8286 -1.2354  0.6157
   54CHL1   C22 6458   2.409   3.926   9.034  1.0520  0.3102 -1.3977
   54CHL1  H22A 6459   2.319   3.864   9.053  1.3411  0.7782  2.3561
   54CHL1  H22B 6460   2.396   4.037   9.038  1.0913  0.3092  2.0268
   54CHL1   C23 6461   2.465   3.874   8.900  0.5524  0.5213  0.0353
   54CHL1  H23A 6462   2.554   3.930   8.864  1.9450  0.9345  3.6756
   54CHL1  H23B 6463   2.488   3.767   8.920 -1.6614 -0.5437 -2.5185
   54CHL1   C24 6464   2.369   3.894   8.779 -0.5647  0.0454 -0.6290
   54CHL1  H24A 6465   2.282   3.828   8.801 -0.9290  0.9104  0.6855
   54CHL1  H24B 6466   2.336   4.000   8.778 -1.7387 -0.3048 -0.3249
   54CHL1   C25 6467   2.430   3.860   8.649 -0.0985 -0.6315  0.4554
   54CHL1   H25 6468   2.516   3.929   8.638  0.0149 -0.4460  2.2464
   54CHL1   C26 6469   2.489   3.715   8.637  0.7813 -0.2535  0.5429
   54CHL1  H26A 6470   2.528   3.714   8.532 -0.5522  2.1686 -0.0435
   54CHL1  H26B 6471   2.572   3.696   8.709  0.7502 -1.2483  0.3360
   54CHL1  H26C 6472   2.405   3.643   8.646 -3.1043  3.7990 -0.0864
   54CHL1   C27 6473   2.345   3.890   8.527 -0.2392  0.1902  0.2606
   54CHL1  H27A 6474   2.342   4.001   8.520  0.6589  0.1949 -5.5158
   54CHL1  H27B 6475   2.403   3.864   8.436  1.2843  1.6827  0.7505
   54CHL1  H27C 6476   2.250   3.834   8.521  1.0328 -1.9988 -0.4505
   55CHL1    C3 6477   5.748   2.269  10.333 -0.2256  0.2948 -0.5206
   55CHL1    H3 6478   5.848   2.305  10.363  0.4880 -0.4822 -1.8938
   55CHL1    O3 6479   5.670   2.217  10.447 -0.5894  0.2691  0.2509
   55CHL1   H3' 6480   5.702   2.265  10.524  2.9010 -0.7575 -0.3815
   55CHL1    C4 6481   5.675   2.390  10.263 -0.0630  1.0151 -0.3797
   55CHL1   H4A 6482   5.568   2.360  10.261  0.3924 -0.8864  0.6900
   55CHL1   H4B 6483   5.681   2.479  10.329 -0.4417 -0.1301  1.2514
   55CHL1    C5 6484   5.728   2.420  10.125  0.1713  0.0158  0.5722
   55CHL1    C6 6485   5.762   2.550  10.091  0.2389 -0.1825  0.2876
   55CHL1    H6 6486   5.749   2.630  10.166 -2.4023 -0.7488  0.5300
   55CHL1    C7 6487   5.808   2.588   9.955  0.4123  0.4586  0.3683
   55CHL1   H7A 6488   5.749   2.677   9.926  1.7173  1.3422  0.3462
   55CHL1   H7B 6489   5.915   2.619   9.960  0.7976 -0.8577  1.1029
   55CHL1    C8 6490   5.799   2.474   9.844 -0.1225  0.3674  0.0470
   55CHL1    H8 6491   5.691   2.468   9.822 -0.2588 -1.3284  1.0044
   55CHL1   C14 6492   5.885   2.509   9.725  0.3753  0.0022 -0.2763
   55CHL1   H14 6493   5.987   2.496   9.766 -0.3841 -0.3148  1.5974
   55CHL1   C15 6494   5.870   2.656   9.675 -0.0062  0.0347 -0.5643
   55CHL1  H15A 6495   5.762   2.681   9.680  0.0395  0.3586 -1.0925
   55CHL1  H15B 6496   5.937   2.719   9.737  1.0174 -0.9805 -0.6021
   55CHL1   C16 6497   5.914   2.645   9.530 -0.8883 -0.3225 -0.2333
   55CHL1  H16A 6498   5.843   2.697   9.462 -0.4205 -0.7192 -1.0320
   55CHL1  H16B 6499   6.012   2.695   9.532 -0.1008 -1.7875  2.0959
   55CHL1   C17 6500   5.943   2.492   9.505 -0.5172 -0.1061 -0.0973
   55CHL1   H17 6501   6.049   2.481   9.536 -0.0331  1.7890 -0.9241
   55CHL1   C13 6502   5.853   2.421   9.613  0.2929  0.2990  0.6735
   55CHL1   C18 6503   5.705   2.429   9.566  0.0701  0.1958 -0.5001
   55CHL1  H18A 6504   5.691   2.381   9.467 -1.5392  0.1898 -0.2967
   55CHL1  H18B 6505   5.648   2.387   9.652  1.7089 -0.0807  0.4900
   55CHL1  H18C 6506   5.667   2.533   9.556 -0.4402 -0.0742 -1.5589
   55CHL1   C12 6507   5.896   2.278   9.652  0.2902 -0.8977  0.4037
   55CHL1  H12A 6508   5.890   2.207   9.566  1.5143  0.1186 -0.5477
   55CHL1  H12B 6509   6.004   2.272   9.677  0.5434  2.0273  0.3529
   55CHL1   C11 6510   5.831   2.231   9.782  0.6662  0.0352  0.4095
   55CHL1  H11A 6511   5.727   2.204   9.757  0.7684  0.9263 -1.0782
   55CHL1  H11B 6512   5.878   2.133   9.807 -0.6200 -0.6007  0.4177
   55CHL1    C9 6513   5.835   2.336   9.898 -0.2419  0.1001  0.5972
   55CHL1    H9 6514   5.942   2.350   9.925 -0.4804 -1.5720  2.6064
   55CHL1   C10 6515   5.753   2.300  10.025 -0.0379 -0.9868 -0.0495
   55CHL1   C19 6516   5.609   2.243   9.985 -0.1713  0.0168  0.0618
   55CHL1  H19A 6517   5.548   2.216  10.074  0.0679  1.9903  0.8736
   55CHL1  H19B 6518   5.550   2.321   9.932 -0.1429  0.0425  0.0685
   55CHL1  H19C 6519   5.607   2.150   9.924  4.0130  0.9341 -1.8506
   55CHL1    C1 6520   5.832   2.190  10.109  1.2522  0.8908 -0.3722
   55CHL1   H1A 6521   5.835   2.104  10.038  2.5237  0.8738 -0.3193
   55CHL1   H1B 6522   5.938   2.214  10.129  0.7186  1.8743  1.5447
   55CHL1    C2 6523   5.754   2.150  10.235  0.3855 -0.2471  0.3482
   55CHL1   H2A 6524   5.801   2.062  10.285 -4.1081 -2.0499  1.9213
   55CHL1   H2B 6525   5.653   2.112  10.211  0.5219  0.7359 -2.1051
   55CHL1   C20 6526   5.934   2.441   9.361 -0.8244 -0.0835  0.2273
   55CHL1   H20 6527   5.888   2.340   9.368  2.1047 -1.4251  1.6940
   55CHL1   C21 6528   6.080   2.428   9.310 -0.4798 -0.0672  0.1948
   55CHL1  H21A 6529   6.155   2.429   9.391 -1.0327  3.2224  0.8150
   55CHL1  H21B 6530   6.091   2.522   9.252 -1.4593  0.8477  1.4269
   55CHL1  H21C 6531   6.093   2.335   9.251 -1.1182 -2.2210  3.2203
   55CHL1   C22 6532   5.842   2.523   9.265 -0.0323 -0.0957 -0.2823
   55CHL1  H22A 6533   5.755   2.568   9.318 -0.4731  0.4053 -1.4151
   55CHL1  H22B 6534   5.893   2.616   9.232  0.4950  0.5819  2.1982
   55CHL1   C23 6535   5.802   2.450   9.143 -0.6382  1.7985 -0.7376
   55CHL1  H23A 6536   5.863   2.358   9.131 -2.4076  0.6943 -1.6935
   55CHL1  H23B 6537   5.701   2.419   9.179  1.3808 -0.4175  3.8357
   55CHL1   C24 6538   5.799   2.536   9.021 -0.4985  0.0790  0.1692
   55CHL1  H24A 6539   5.731   2.489   8.946 -1.5853 -0.3022  1.3478
   55CHL1  H24B 6540   5.753   2.636   9.037 -2.5038 -0.7487 -0.0476
   55CHL1   C25 6541   5.939   2.552   8.948 -0.1136  0.3418  0.1146
   55CHL1   H25 6542   5.994   2.456   8.957  1.1555  1.0895  0.5289
   55CHL1   C26 6543   5.922   2.572   8.800  0.3775  0.6277  0.5429
   55CHL1  H26A 6544   5.853   2.490   8.768 -0.0540  1.4903 -0.8368
   55CHL1  H26B 6545   5.877   2.671   8.779 -0.1132  0.5732  1.2931
   55CHL1  H26C 6546   6.018   2.566   8.744 -0.7087 -2.7433 -1.3062
   55CHL1   C27 6547   6.020   2.670   9.004 -0.3573  0.3448  0.4929
   55CHL1  H27A 6548   6.064   2.643   9.102 -1.8453 -0.9467  0.8526
   55CHL1  H27B 6549   6.102   2.677   8.930 -1.0572  0.5228 -0.2894
   55CHL1  H27C 6550   5.955   2.757   9.027  0.4397  1.3830 -1.0098
   56CHL1    C3 6551   2.607   6.746  10.337 -0.4379  1.2457 -0.2545
   56CHL1    H3 6552   2.655   6.650  10.306 -2.7787 -0.3819  0.8694
   56CHL1    O3 6553   2.617   6.729  10.476 -0.0331 -0.2088 -0.1153
   56CHL1   H3' 6554   2.539   6.684  10.509 -0.8040  0.5658 -0.8181
   56CHL1    C4 6555   2.687   6.867  10.299 -0.6339 -0.6531  0.3652
   56CHL1   H4A 6556   2.647   6.963  10.340 -1.0724 -0.3665 -0.7155
   56CHL1   H4B 6557   2.787   6.860  10.348 -0.3272 -0.4929 -0.2249
   56CHL1    C5 6558   2.689   6.871  10.149 -0.5090 -0.2106  0.1068
   56CHL1    C6 6559   2.811   6.875  10.093 -0.0648 -0.1208  0.3053
   56CHL1    H6 6560   2.899   6.863  10.158 -1.2333 -0.0510  1.9775
   56CHL1    C7 6561   2.832   6.886   9.945  0.1419  0.1771 -0.3618
   56CHL1   H7A 6562   2.893   6.977   9.926 -2.4699  1.7416 -1.9033
   56CHL1   H7B 6563   2.877   6.791   9.909  0.4093 -0.0851  0.6399
   56CHL1    C8 6564   2.701   6.920   9.863 -0.5490 -0.1841 -0.4664
   56CHL1    H8 6565   2.679   7.027   9.884  2.0157  0.0875  1.3747
   56CHL1   C14 6566   2.727   6.893   9.721  0.1881 -0.3440  0.1358
   56CHL1   H14 6567   2.747   6.785   9.703  2.3379  0.0270 -0.0262
   56CHL1   C15 6568   2.858   6.939   9.648 -0.5869  0.1453  0.4575
   56CHL1  H15A 6569   2.881   7.047   9.661 -1.2588  0.5464 -1.2939
   56CHL1  H15B 6570   2.946   6.879   9.679 -0.0274  1.0022  0.5844
   56CHL1   C16 6571   2.821   6.914   9.504 -0.2068  0.2392 -0.2682
   56CHL1  H16A 6572   2.826   7.014   9.457 -0.9379  1.4270  2.0492
   56CHL1  H16B 6573   2.895   6.850   9.451  0.0836  1.3326 -1.2128
   56CHL1   C17 6574   2.674   6.863   9.495  0.8170 -0.6017  0.8345
   56CHL1   H17 6575   2.684   6.753   9.510 -1.2632 -0.5723  3.2545
   56CHL1   C13 6576   2.608   6.907   9.630 -0.4136 -1.0057 -0.3876
   56CHL1   C18 6577   2.579   7.062   9.627  0.0172  0.4542 -0.1268
   56CHL1  H18A 6578   2.534   7.101   9.721  1.2156  1.5364  0.0335
   56CHL1  H18B 6579   2.672   7.121   9.613 -0.3772  1.7871  2.3018
   56CHL1  H18C 6580   2.502   7.080   9.549 -0.3617  0.3342  0.2164
   56CHL1   C12 6581   2.487   6.829   9.684 -0.5765 -0.3967 -0.5598
   56CHL1  H12A 6582   2.396   6.832   9.620 -1.1695  3.1155  0.2237
   56CHL1  H12B 6583   2.535   6.729   9.682  2.0856  0.7347 -3.9291
   56CHL1   C11 6584   2.448   6.855   9.829 -0.1776 -1.0466  0.3348
   56CHL1  H11A 6585   2.398   6.953   9.841 -0.8228 -1.0982 -1.5426
   56CHL1  H11B 6586   2.379   6.776   9.867  1.5159 -1.8210  1.9240
   56CHL1    C9 6587   2.573   6.849   9.921 -0.3357 -0.1651  0.5883
   56CHL1    H9 6588   2.609   6.744   9.915  0.0590 -0.0143  0.2981
   56CHL1   C10 6589   2.549   6.880  10.073 -0.0284  0.3761 -0.0220
   56CHL1   C19 6590   2.482   7.016  10.111 -0.3019 -0.2263  0.7618
   56CHL1  H19A 6591   2.484   7.014  10.222  1.3402 -1.3569  0.7544
   56CHL1  H19B 6592   2.536   7.107  10.076 -0.0806 -0.6621 -0.0576
   56CHL1  H19C 6593   2.378   7.014  10.072  0.5707 -1.6523 -1.7168
   56CHL1    C1 6594   2.462   6.759  10.127 -0.2277  0.5261 -0.0680
   56CHL1   H1A 6595   2.360   6.778  10.087  0.0108 -1.4912 -1.8256
   56CHL1   H1B 6596   2.483   6.662  10.077  1.8543  0.7609  0.2809
   56CHL1    C2 6597   2.462   6.745  10.285  0.4191  0.2114  0.0717
   56CHL1   H2A 6598   2.417   6.652  10.327  0.7435  1.4755  3.5341
   56CHL1   H2B 6599   2.411   6.835  10.326 -1.1912  0.3004 -1.9338
   56CHL1   C20 6600   2.608   6.888   9.360  0.2194  0.2902  0.6096
   56CHL1   H20 6601   2.602   6.998   9.354  2.9101  0.5302  1.0543
   56CHL1   C21 6602   2.478   6.814   9.358 -0.3006  0.6207  0.3967
   56CHL1  H21A 6603   2.400   6.851   9.428 -0.0514  2.2477 -0.1248
   56CHL1  H21B 6604   2.502   6.707   9.372  0.9429  0.9417  0.8692
   56CHL1  H21C 6605   2.430   6.832   9.260  0.8068  2.7919  0.1798
   56CHL1   C22 6606   2.699   6.826   9.241  0.2007  0.1795  0.5019
   56CHL1  H22A 6607   2.801   6.867   9.254  0.9363 -1.1618 -0.7295
   56CHL1  H22B 6608   2.699   6.716   9.253 -1.6925  0.3273  2.5168
   56CHL1   C23 6609   2.662   6.869   9.104  0.7132  0.2236 -1.5894
   56CHL1  H23A 6610   2.715   6.808   9.027  0.3323 -1.0813 -0.8370
   56CHL1  H23B 6611   2.555   6.848   9.087  0.9383 -1.2612 -1.3438
   56CHL1   C24 6612   2.673   7.025   9.091 -0.2996  0.0305  0.1335
   56CHL1  H24A 6613   2.613   7.074   9.170  0.8029  0.3944  0.7515
   56CHL1  H24B 6614   2.776   7.059   9.116  0.3245 -2.9111  2.0650
   56CHL1   C25 6615   2.628   7.072   8.949  0.3889  0.0261 -0.1832
   56CHL1   H25 6616   2.525   7.035   8.932  0.6308 -0.5145 -0.4958
   56CHL1   C26 6617   2.608   7.226   8.946 -0.4390  0.2843 -0.6616
   56CHL1  H26A 6618   2.540   7.243   9.033 -0.5930  0.7888 -0.8801
   56CHL1  H26B 6619   2.709   7.273   8.949  0.0145 -0.6707 -0.1471
   56CHL1  H26C 6620   2.554   7.263   8.857  1.1146  0.3034 -1.6261
   56CHL1   C27 6621   2.722   7.021   8.840 -0.7588  0.2961 -0.2302
   56CHL1  H27A 6622   2.677   7.060   8.746 -1.4795  0.8774  0.3431
   56CHL1  H27B 6623   2.828   7.053   8.844 -0.9234  0.9545  4.3392
   56CHL1  H27C 6624   2.719   6.910   8.829  1.4185  0.0586  0.9915
   57CHL1    C3 6625   6.138   4.170  10.431 -0.2329  0.6891  0.2355
   57CHL1    H3 6626   6.148   4.276  10.400 -1.0754  0.1800 -1.9420
   57CHL1    O3 6627   6.188   4.149  10.565  0.2063  0.0170 -0.5127
   57CHL1   H3' 6628   6.203   4.054  10.570  1.3806  0.1535 -1.2001
   57CHL1    C4 6629   5.991   4.114  10.420 -0.1369  0.7525  0.4477
   57CHL1   H4A 6630   5.992   4.013  10.467  0.8168  1.5055  2.1133
   57CHL1   H4B 6631   5.939   4.175  10.497  0.3483  2.3225 -0.4243
   57CHL1    C5 6632   5.954   4.135  10.274  0.3080 -0.1533  0.0059
   57CHL1    C6 6633   5.847   4.215  10.249 -0.1794  0.1096 -0.2778
   57CHL1    H6 6634   5.787   4.258  10.330  0.6630  1.6192 -0.4277
   57CHL1    C7 6635   5.798   4.240  10.109  0.3938  0.6924 -0.4297
   57CHL1   H7A 6636   5.687   4.234  10.107  0.4635 -0.7357 -0.6693
   57CHL1   H7B 6637   5.831   4.342  10.078  2.8161 -0.2597 -1.2653
   57CHL1    C8 6638   5.859   4.133  10.011 -0.0997 -0.5834  0.0630
   57CHL1    H8 6639   5.817   4.036  10.044  0.1312 -0.8016 -0.2783
   57CHL1   C14 6640   5.821   4.165   9.869 -0.7803  0.0525 -0.3081
   57CHL1   H14 6641   5.875   4.254   9.832  2.2695 -2.5216 -2.6270
   57CHL1   C15 6642   5.678   4.207   9.842 -0.7094 -0.6131 -0.4337
   57CHL1  H15A 6643   5.610   4.133   9.890 -1.1412 -1.0842 -1.7143
   57CHL1  H15B 6644   5.644   4.304   9.883 -1.7659 -0.6597 -1.1768
   57CHL1   C16 6645   5.663   4.193   9.687 -0.1531 -0.7310 -0.3233
   57CHL1  H16A 6646   5.580   4.121   9.669 -1.8842  1.0450  0.2471
   57CHL1  H16B 6647   5.640   4.294   9.648  2.1482  0.1740  0.5179
   57CHL1   C17 6648   5.799   4.142   9.634  0.4444  0.0342 -0.5424
   57CHL1   H17 6649   5.858   4.234   9.616 -0.9875  0.9537 -0.6966
   57CHL1   C13 6650   5.867   4.074   9.760  0.2438  0.0353  0.7495
   57CHL1   C18 6651   5.807   3.929   9.780  0.2615 -1.1179 -0.1243
   57CHL1  H18A 6652   5.838   3.894   9.880  0.8209  1.4691  0.6762
   57CHL1  H18B 6653   5.696   3.929   9.785  0.1173  2.6036  0.1056
   57CHL1  H18C 6654   5.841   3.856   9.704  4.6045  0.0422  0.4448
   57CHL1   C12 6655   6.022   4.065   9.772  0.1960  0.5421 -0.4519
   57CHL1  H12A 6656   6.078   4.003   9.698  2.1287  1.1384  0.4462
   57CHL1  H12B 6657   6.065   4.165   9.748  2.7250 -0.4509 -0.4093
   57CHL1   C11 6658   6.066   4.022   9.910  0.1867  0.4351  1.0352
   57CHL1  H11A 6659   6.056   3.913   9.925  0.7638  0.4315  1.4525
   57CHL1  H11B 6660   6.177   4.030   9.916  0.4764 -2.2080  0.4525
   57CHL1    C9 6661   6.011   4.112  10.018  0.3241  0.0321  0.0960
   57CHL1    H9 6662   6.066   4.207  10.000  2.3619 -0.8960  1.1143
   57CHL1   C10 6663   6.045   4.072  10.167 -0.4360 -0.2461 -0.1886
   57CHL1   C19 6664   6.018   3.917  10.183 -0.4957  0.0787  0.3344
   57CHL1  H19A 6665   6.041   3.888  10.287 -1.0173 -0.1054  0.3990
   57CHL1  H19B 6666   5.912   3.886  10.177 -0.2171 -0.6661 -1.0659
   57CHL1  H19C 6667   6.076   3.843  10.124  0.2059 -0.3615  1.5505
   57CHL1    C1 6668   6.188   4.118  10.191 -0.3073  0.2400  0.1668
   57CHL1   H1A 6669   6.260   4.066  10.124 -1.4213  0.9818 -1.6757
   57CHL1   H1B 6670   6.187   4.222  10.153 -0.5700  0.1286 -0.1385
   57CHL1    C2 6671   6.228   4.097  10.338 -0.0404 -0.1975 -0.2489
   57CHL1   H2A 6672   6.331   4.139  10.344 -0.3953  0.6428  0.1282
   57CHL1   H2B 6673   6.236   3.989  10.361 -1.2974  0.0933  1.7925
   57CHL1   C20 6674   5.797   4.067   9.498  0.3439  0.0481  0.2059
   57CHL1   H20 6675   5.748   3.968   9.513 -1.0913  0.9269  1.7467
   57CHL1   C21 6676   5.941   4.046   9.460 -0.5432  0.1114 -0.3145
   57CHL1  H21A 6677   5.985   3.970   9.527 -0.1673  1.8672  1.5357
   57CHL1  H21B 6678   5.996   4.140   9.484 -1.3350  0.7771 -1.0049
   57CHL1  H21C 6679   5.961   4.013   9.356  0.3238 -0.5009  0.0410
   57CHL1   C22 6680   5.724   4.136   9.384  0.0689 -0.0045  0.5428
   57CHL1  H22A 6681   5.622   4.172   9.410 -0.1259 -0.0667 -0.1243
   57CHL1  H22B 6682   5.789   4.221   9.357  0.7010 -0.7808 -0.4273
   57CHL1   C23 6683   5.722   4.040   9.259 -0.8055 -0.5231 -0.0052
   57CHL1  H23A 6684   5.704   4.115   9.179  0.5161 -1.1008 -0.8696
   57CHL1  H23B 6685   5.815   3.983   9.239 -0.5263  0.1638 -0.7080
   57CHL1   C24 6686   5.593   3.954   9.264  0.5871 -0.0962 -0.2056
   57CHL1  H24A 6687   5.600   3.883   9.350 -0.1466 -0.0521 -0.1074
   57CHL1  H24B 6688   5.512   4.030   9.269  0.7698  0.1073 -0.3234
   57CHL1   C25 6689   5.563   3.871   9.137 -0.5626 -0.5627 -0.3380
   57CHL1   H25 6690   5.496   3.789   9.168 -0.5447 -0.4426  0.0259
   57CHL1   C26 6691   5.511   3.959   9.033  0.2629 -0.6671  0.1230
   57CHL1  H26A 6692   5.447   4.041   9.072  0.6137  0.4944 -1.6426
   57CHL1  H26B 6693   5.600   4.015   8.998  0.5551 -0.6637  0.8576
   57CHL1  H26C 6694   5.472   3.901   8.947  1.3043  0.7687 -1.3649
   57CHL1   C27 6695   5.686   3.790   9.086  0.1179  1.2063 -0.2690
   57CHL1  H27A 6696   5.650   3.728   9.000 -0.2553 -1.3157  1.5917
   57CHL1  H27B 6697   5.767   3.859   9.054  2.2368 -2.0301 -2.5704
   57CHL1  H27C 6698   5.717   3.712   9.158  0.9488  0.3256 -1.5223
   58CHL1    C3 6699   1.277   1.295  10.265 -0.1966  0.5493  0.9974
   58CHL1    H3 6700   1.351   1.376  10.283  1.8308 -0.5729 -1.5959
   58CHL1    O3 6701   1.241   1.241  10.391 -0.2771 -0.3080  0.3536
   58CHL1   H3' 6702   1.148   1.263  10.402 -0.2010 -0.6992  2.0518
   58CHL1    C4 6703   1.148   1.332  10.187 -0.1646 -0.3956 -0.0778
   58CHL1   H4A 6704   1.084   1.242  10.187  0.3662 -0.8223 -2.1350
   58CHL1   H4B 6705   1.092   1.407  10.248 -1.2256 -1.0672 -0.2132
   58CHL1    C5 6706   1.164   1.397  10.056 -0.2095  0.0795 -0.2278
   58CHL1    C6 6707   1.115   1.520  10.024 -0.4624 -0.0030 -0.6091
   58CHL1    H6 6708   1.044   1.566  10.095 -1.2215  0.2579 -1.5208
   58CHL1    C7 6709   1.127   1.583   9.892 -0.5593  0.4547  0.0054
   58CHL1   H7A 6710   1.033   1.635   9.866  0.4052  2.3689  0.1974
   58CHL1   H7B 6711   1.206   1.661   9.901 -0.0582  0.0808 -0.9827
   58CHL1    C8 6712   1.165   1.474   9.784 -0.3360  0.4847  0.2209
   58CHL1    H8 6713   1.077   1.411   9.757  0.6595 -0.2420 -1.4944
   58CHL1   C14 6714   1.215   1.560   9.668 -0.1208 -0.1555 -0.6572
   58CHL1   H14 6715   1.301   1.616   9.711 -0.1919 -0.4891 -0.0640
   58CHL1   C15 6716   1.137   1.671   9.611 -0.0701  0.4950 -0.3195
   58CHL1  H15A 6717   1.043   1.619   9.583 -0.1494 -0.6944  1.9725
   58CHL1  H15B 6718   1.117   1.751   9.685 -0.2827 -0.7986  1.0697
   58CHL1   C16 6719   1.205   1.705   9.473 -0.3035 -0.1914 -0.0462
   58CHL1  H16A 6720   1.121   1.724   9.402 -1.6091  1.0340  1.7442
   58CHL1  H16B 6721   1.275   1.790   9.487  0.0555 -0.3873 -0.6144
   58CHL1   C17 6722   1.302   1.584   9.443 -1.3440  0.0911 -0.3879
   58CHL1   H17 6723   1.400   1.622   9.479 -0.0323 -1.6183 -1.9666
   58CHL1   C13 6724   1.263   1.475   9.554  0.2430 -0.4718 -0.1213
   58CHL1   C18 6725   1.160   1.390   9.481  0.1495  0.2468  0.0287
   58CHL1  H18A 6726   1.079   1.439   9.422  0.6264  1.0379  0.0151
   58CHL1  H18B 6727   1.208   1.317   9.413 -2.8402  0.4132 -2.5036
   58CHL1  H18C 6728   1.105   1.326   9.553 -1.6076 -1.4615 -2.6433
   58CHL1   C12 6729   1.384   1.389   9.601  0.8695 -0.6149  0.2486
   58CHL1  H12A 6730   1.415   1.318   9.521 -1.0674  0.2849 -1.3879
   58CHL1  H12B 6731   1.466   1.456   9.633  0.8846 -0.4766 -0.0837
   58CHL1   C11 6732   1.342   1.305   9.722 -0.3826 -0.1092 -0.2832
   58CHL1  H11A 6733   1.265   1.236   9.684  0.9598 -0.7591 -1.9370
   58CHL1  H11B 6734   1.435   1.252   9.754  0.4077  0.2885 -1.8098
   58CHL1    C9 6735   1.288   1.388   9.835  0.1538  0.6842 -0.0906
   58CHL1    H9 6736   1.363   1.461   9.872  2.1048  0.0697 -2.5117
   58CHL1   C10 6737   1.246   1.310   9.960  0.3050  0.2776 -0.0382
   58CHL1   C19 6738   1.161   1.192   9.916 -0.4348 -0.0055  0.2818
   58CHL1  H19A 6739   1.067   1.224   9.866 -0.0517 -0.7264 -0.9340
   58CHL1  H19B 6740   1.218   1.122   9.850  0.0023 -0.5648  1.2305
   58CHL1  H19C 6741   1.133   1.125  10.001 -1.7775 -1.3107 -1.1181
   58CHL1    C1 6742   1.368   1.266  10.036 -0.1050 -0.4891 -0.1446
   58CHL1   H1A 6743   1.411   1.177   9.984  1.9532 -0.0305  0.6532
   58CHL1   H1B 6744   1.448   1.343  10.043  1.7188 -2.3883  0.8624
   58CHL1    C2 6745   1.346   1.193  10.171 -0.4687  0.2884  0.1098
   58CHL1   H2A 6746   1.453   1.175  10.196 -0.3722 -2.0476 -1.6389
   58CHL1   H2B 6747   1.285   1.100  10.167 -0.7400  0.4871 -3.5176
   58CHL1   C20 6748   1.328   1.546   9.291 -0.6040 -0.4368  0.7779
   58CHL1   H20 6749   1.247   1.472   9.272 -0.3534 -1.0080  1.8304
   58CHL1   C21 6750   1.468   1.485   9.280  1.0646  1.1807  0.2025
   58CHL1  H21A 6751   1.489   1.398   9.347 -1.7263  0.6876  0.5297
   58CHL1  H21B 6752   1.547   1.559   9.306  1.7955  0.7038 -0.6101
   58CHL1  H21C 6753   1.495   1.458   9.176 -0.9695  2.2010 -0.6397
   58CHL1   C22 6754   1.313   1.656   9.188  0.1556  0.1341 -0.4437
   58CHL1  H22A 6755   1.208   1.693   9.195 -0.1899 -0.6594 -1.2665
   58CHL1  H22B 6756   1.383   1.732   9.227 -0.9836  0.1896  1.6825
   58CHL1   C23 6757   1.337   1.621   9.041  0.1922 -0.7040 -0.0190
   58CHL1  H23A 6758   1.441   1.584   9.028  0.5793  0.4773 -0.4480
   58CHL1  H23B 6759   1.269   1.540   9.008  0.8104 -0.9261 -0.7924
   58CHL1   C24 6760   1.315   1.743   8.965  0.0662 -0.2991 -0.0128
   58CHL1  H24A 6761   1.214   1.779   8.993 -0.3142  0.0393 -1.6815
   58CHL1  H24B 6762   1.386   1.820   9.002 -2.3122  2.2383 -0.4109
   58CHL1   C25 6763   1.332   1.731   8.807  0.0555  0.5598  0.3612
   58CHL1   H25 6764   1.317   1.833   8.767 -0.3334  0.3762  0.0254
   58CHL1   C26 6765   1.469   1.669   8.769 -0.8221 -0.1268 -0.3523
   58CHL1  H26A 6766   1.483   1.662   8.659  3.3060 -0.4448  0.0333
   58CHL1  H26B 6767   1.544   1.739   8.813 -1.2117  0.9365 -1.3345
   58CHL1  H26C 6768   1.478   1.567   8.813 -0.8042 -0.1611 -0.4355
   58CHL1   C27 6769   1.223   1.642   8.744 -0.9108  0.1861 -0.2176
   58CHL1  H27A 6770   1.230   1.535   8.775 -2.7433  0.5236  1.5252
   58CHL1  H27B 6771   1.127   1.689   8.773 -0.4524  2.4309 -2.0282
   58CHL1  H27C 6772   1.230   1.643   8.633 -0.7220 -1.6083 -0.2569
   59CHL1    C3 6773   0.408   0.721  10.372 -0.1601 -0.0689 -0.2684
   59CHL1    H3 6774   0.507   0.703  10.323 -0.4265  1.5765 -1.5264
   59CHL1    O3 6775   0.419   0.762  10.510 -0.3175  0.1296  0.5336
   59CHL1   H3' 6776   0.340   0.811  10.533  1.6508  3.9452  0.0170
   59CHL1    C4 6777   0.336   0.833  10.294  0.1585 -0.7997  0.4292
   59CHL1   H4A 6778   0.233   0.841  10.335  0.4132  2.9832  0.6713
   59CHL1   H4B 6779   0.361   0.941  10.297 -2.2820 -0.1942  3.0670
   59CHL1    C5 6780   0.318   0.789  10.146 -0.8098  0.5761 -0.0900
   59CHL1    C6 6781   0.380   0.860  10.050  0.0144 -0.1704  0.9330
   59CHL1    H6 6782   0.417   0.956  10.089 -1.4640  2.1926 -2.8762
   59CHL1    C7 6783   0.380   0.828   9.902  0.1072 -0.0872 -0.1911
   59CHL1   H7A 6784   0.333   0.920   9.860  0.5079  0.3949  0.4044
   59CHL1   H7B 6785   0.481   0.807   9.861 -0.9804  0.1292 -3.2997
   59CHL1    C8 6786   0.292   0.701   9.873 -1.0258 -0.4107 -0.5995
   59CHL1    H8 6787   0.186   0.735   9.872 -1.1310 -0.5615  1.3272
   59CHL1   C14 6788   0.330   0.633   9.739  0.0298  0.1691 -0.9287
   59CHL1   H14 6789   0.428   0.588   9.764 -1.1591 -1.2988  1.5843
   59CHL1   C15 6790   0.350   0.730   9.617  0.5352  0.3194 -1.2260
   59CHL1  H15A 6791   0.256   0.784   9.594  0.0936 -0.6036 -1.6775
   59CHL1  H15B 6792   0.437   0.798   9.628 -1.0565  2.1443  1.3375
   59CHL1   C16 6793   0.366   0.627   9.502 -0.5021 -0.7835 -0.2718
   59CHL1  H16A 6794   0.302   0.658   9.417  1.4853 -0.8559 -1.8865
   59CHL1  H16B 6795   0.466   0.636   9.454 -1.0612  2.2799 -1.0536
   59CHL1   C17 6796   0.316   0.489   9.555  0.3778 -0.2574  1.1220
   59CHL1   H17 6797   0.396   0.417   9.585 -0.0933 -1.7450 -0.9662
   59CHL1   C13 6798   0.247   0.513   9.693  0.8953 -0.0980  0.6784
   59CHL1   C18 6799   0.093   0.562   9.680 -0.1341  0.4297  0.2593
   59CHL1  H18A 6800   0.058   0.605   9.776 -1.5909 -3.7462  1.8374
   59CHL1  H18B 6801   0.092   0.648   9.611 -3.1102 -0.4073 -0.8891
   59CHL1  H18C 6802   0.024   0.483   9.644 -1.1310  0.2387  2.4004
   59CHL1   C12 6803   0.264   0.409   9.804 -0.3231 -0.3159  0.3289
   59CHL1  H12A 6804   0.201   0.324   9.772 -1.2610  0.5565 -0.2183
   59CHL1  H12B 6805   0.369   0.374   9.804 -0.4986 -0.8631 -0.2812
   59CHL1   C11 6806   0.221   0.467   9.944 -0.3471 -0.5331 -0.1591
   59CHL1  H11A 6807   0.114   0.496   9.938 -0.6154 -1.6131 -0.9101
   59CHL1  H11B 6808   0.238   0.387  10.018 -0.4682 -0.2881  0.1330
   59CHL1    C9 6809   0.304   0.596   9.987 -0.6124  0.7770 -0.1596
   59CHL1    H9 6810   0.411   0.568   9.991 -0.8986 -0.5102 -0.9684
   59CHL1   C10 6811   0.264   0.648  10.127 -0.0306  0.1656 -0.3982
   59CHL1   C19 6812   0.105   0.653  10.134 -0.3151  0.1832  0.5186
   59CHL1  H19A 6813   0.078   0.715  10.222 -2.2998  1.9721 -1.2550
   59CHL1  H19B 6814   0.057   0.704  10.048 -1.5440  0.0154  1.0783
   59CHL1  H19C 6815   0.062   0.551  10.142  1.0505 -0.4165  0.4519
   59CHL1    C1 6816   0.309   0.538  10.226 -0.9181  0.5005 -0.9659
   59CHL1   H1A 6817   0.247   0.446  10.225  0.8313 -0.7324 -1.6759
   59CHL1   H1B 6818   0.416   0.510  10.211 -1.0307  0.2173 -1.2361
   59CHL1    C2 6819   0.323   0.591  10.367 -0.5052  0.4981 -0.1133
   59CHL1   H2A 6820   0.363   0.507  10.428  0.2935  0.5317 -0.5804
   59CHL1   H2B 6821   0.223   0.618  10.406 -0.4435  2.1979 -1.0318
   59CHL1   C20 6822   0.239   0.408   9.437  0.3455 -0.1657  0.4749
   59CHL1   H20 6823   0.137   0.451   9.429  0.7547  0.7432  0.0277
   59CHL1   C21 6824   0.227   0.266   9.486 -0.1209  0.0552 -0.3127
   59CHL1  H21A 6825   0.171   0.197   9.419  1.7688 -3.8948  1.7983
   59CHL1  H21B 6826   0.168   0.272   9.580  1.7645 -1.3790  1.0552
   59CHL1  H21C 6827   0.329   0.226   9.506 -0.2633  0.8254  2.3270
   59CHL1   C22 6828   0.319   0.410   9.308 -0.4316 -0.1920 -0.0002
   59CHL1  H22A 6829   0.324   0.515   9.271 -0.2356 -0.4866 -0.8321
   59CHL1  H22B 6830   0.420   0.381   9.343 -0.3778 -0.8836 -0.7004
   59CHL1   C23 6831   0.284   0.306   9.200 -0.2588  0.3469  0.2206
   59CHL1  H23A 6832   0.292   0.201   9.237  2.7763 -0.2989 -1.8095
   59CHL1  H23B 6833   0.178   0.328   9.179 -0.2793  1.1968  1.1346
   59CHL1   C24 6834   0.379   0.319   9.073  0.1616  0.5110 -0.4505
   59CHL1  H24A 6835   0.351   0.421   9.039 -0.6652  0.0995 -1.0495
   59CHL1  H24B 6836   0.483   0.324   9.112 -0.1312 -1.1538  0.6620
   59CHL1   C25 6837   0.372   0.204   8.975  0.4392  0.3092  0.3973
   59CHL1   H25 6838   0.389   0.111   9.032  0.7219  0.6589  0.8871
   59CHL1   C26 6839   0.230   0.187   8.910 -0.7737 -0.0290  0.6374
   59CHL1  H26A 6840   0.240   0.116   8.825  1.4415  0.7135  0.2199
   59CHL1  H26B 6841   0.148   0.160   8.980 -3.8078  0.2137 -2.5182
   59CHL1  H26C 6842   0.206   0.290   8.875  0.2741  0.3526  0.9930
   59CHL1   C27 6843   0.483   0.217   8.871  0.0730  0.1672 -0.6201
   59CHL1  H27A 6844   0.579   0.218   8.927  1.2002  0.2906 -2.4706
   59CHL1  H27B 6845   0.484   0.130   8.802 -0.9258 -0.1590 -0.2364
   59CHL1  H27C 6846   0.470   0.317   8.823  0.8309  0.0047 -1.1945
   60CHL1    C3 6847   5.876   0.766  10.360  0.2567 -0.9134  0.0943
   60CHL1    H3 6848   5.772   0.798  10.385  1.0949  1.4438  0.8619
   60CHL1    O3 6849   5.963   0.814  10.462 -0.0778  0.0472  0.2329
   60CHL1   H3' 6850   6.047   0.835  10.421  0.5631  1.9845  2.3834
   60CHL1    C4 6851   5.878   0.614  10.360  0.8228 -0.1236  0.0195
   60CHL1   H4A 6852   5.979   0.570  10.370  0.0819 -1.7203  0.9279
   60CHL1   H4B 6853   5.822   0.579  10.449  0.8460  0.7035  0.3695
   60CHL1    C5 6854   5.811   0.545  10.235 -0.2980 -0.0454 -0.7036
   60CHL1    C6 6855   5.722   0.453  10.245 -0.5957 -0.0297 -0.2754
   60CHL1    H6 6856   5.703   0.410  10.345 -3.4878 -1.0594 -1.1459
   60CHL1    C7 6857   5.665   0.372  10.140  0.2972  0.2823 -1.2062
   60CHL1   H7A 6858   5.682   0.265  10.166  0.2024  0.6676  0.5853
   60CHL1   H7B 6859   5.556   0.391  10.138  0.2772  2.2215  3.8724
   60CHL1    C8 6860   5.738   0.404  10.003  0.4416 -0.4149 -0.0718
   60CHL1    H8 6861   5.831   0.344  10.000  0.5482 -0.2192 -2.5019
   60CHL1   C14 6862   5.652   0.362   9.882  0.6100  0.0071 -0.1287
   60CHL1   H14 6863   5.568   0.434   9.879 -1.4226 -2.2297 -2.6940
   60CHL1   C15 6864   5.587   0.224   9.882 -0.1043 -0.1113  0.1117
   60CHL1  H15A 6865   5.647   0.144   9.931 -0.1437  0.0506  0.4274
   60CHL1  H15B 6866   5.485   0.225   9.925 -0.4600  1.1143 -0.7236
   60CHL1   C16 6867   5.567   0.190   9.735 -0.2398 -0.1278  0.1717
   60CHL1  H16A 6868   5.604   0.091   9.701 -3.0862 -1.7499  1.4577
   60CHL1  H16B 6869   5.461   0.183   9.705  0.3198 -0.1906 -1.9217
   60CHL1   C17 6870   5.628   0.308   9.657 -0.9718  0.0526  0.4595
   60CHL1   H17 6871   5.543   0.379   9.650 -1.6797 -0.8256 -0.0848
   60CHL1   C13 6872   5.728   0.373   9.752  0.8309  0.2991 -0.0488
   60CHL1   C18 6873   5.855   0.291   9.747 -0.6447 -0.8925  0.1497
   60CHL1  H18A 6874   5.843   0.186   9.782 -0.7624 -1.3533 -1.2027
   60CHL1  H18B 6875   5.915   0.302   9.653  0.5642  2.3497  1.1498
   60CHL1  H18C 6876   5.927   0.325   9.824 -0.0045 -2.7469  0.4273
   60CHL1   C12 6877   5.754   0.522   9.726  0.4684 -1.0969  0.3153
   60CHL1  H12A 6878   5.801   0.524   9.626  0.3537 -1.0483  0.2619
   60CHL1  H12B 6879   5.656   0.574   9.719  1.2877  0.3328 -1.3017
   60CHL1   C11 6880   5.840   0.578   9.846  0.2490 -0.2030 -0.6051
   60CHL1  H11A 6881   5.942   0.533   9.842  0.7882  0.5105  2.5723
   60CHL1  H11B 6882   5.839   0.686   9.822  2.6069  0.3893  1.5929
   60CHL1    C9 6883   5.768   0.553   9.978 -0.4257  0.1684 -0.0689
   60CHL1    H9 6884   5.673   0.611   9.977 -0.6344 -0.1747 -0.2808
   60CHL1   C10 6885   5.854   0.608  10.096 -0.7306 -0.1523 -0.0509
   60CHL1   C19 6886   6.004   0.564  10.088  0.2297 -0.6337 -0.4857
   60CHL1  H19A 6887   6.067   0.599  10.172 -1.5047  1.5854  0.0082
   60CHL1  H19B 6888   6.009   0.454  10.084  2.5749 -0.7034  1.7649
   60CHL1  H19C 6889   6.059   0.607  10.002  1.1785  2.9984  1.6718
   60CHL1    C1 6890   5.850   0.766  10.099 -0.4189 -0.1995 -0.2573
   60CHL1   H1A 6891   5.908   0.805  10.013  0.1486 -0.0949  0.1661
   60CHL1   H1B 6892   5.743   0.793  10.091 -1.1487 -2.2053  1.5909
   60CHL1    C2 6893   5.929   0.824  10.223  0.1238  0.0406  0.1476
   60CHL1   H2A 6894   5.912   0.933  10.223  1.2033  0.2563  1.8556
   60CHL1   H2B 6895   6.035   0.801  10.201  0.1836  1.2029 -0.8592
   60CHL1   C20 6896   5.671   0.278   9.510 -0.1391  0.2604  0.5713
   60CHL1   H20 6897   5.735   0.365   9.483 -0.9286  1.0067  1.0426
   60CHL1   C21 6898   5.541   0.285   9.428  0.1982  0.5714  0.1211
   60CHL1  H21A 6899   5.486   0.380   9.443 -2.9670 -1.2744  1.3023
   60CHL1  H21B 6900   5.480   0.197   9.458  2.7902 -1.4923 -0.2448
   60CHL1  H21C 6901   5.560   0.285   9.319  0.0371 -1.0084  0.0691
   60CHL1   C22 6902   5.746   0.149   9.480 -0.8326 -0.0855 -0.5106
   60CHL1  H22A 6903   5.822   0.134   9.560 -1.1653  2.1178  0.2809
   60CHL1  H22B 6904   5.671   0.069   9.497 -2.7728  1.4580 -1.3299
   60CHL1   C23 6905   5.819   0.144   9.347 -0.7288 -0.1418 -0.2252
   60CHL1  H23A 6906   5.740   0.149   9.268 -1.4536  4.0745  0.5160
   60CHL1  H23B 6907   5.875   0.238   9.330  0.1031 -0.2296  1.7578
   60CHL1   C24 6908   5.894   0.012   9.334 -0.1338  0.8182 -0.3228
   60CHL1  H24A 6909   5.944  -0.009   9.431 -0.0800  0.0751 -0.5085
   60CHL1  H24B 6910   5.810  -0.060   9.322 -0.7059  1.5543 -0.8414
   60CHL1   C25 6911   5.988   0.025   9.220  0.4237 -0.6061 -0.1092
   60CHL1   H25 6912   5.937   0.097   9.153  0.2302  0.1636  0.8427
   60CHL1   C26 6913   6.129   0.077   9.263 -0.0517 -0.2766 -0.9084
   60CHL1  H26A 6914   6.194   0.075   9.173  2.4534 -0.3709  0.8150
   60CHL1  H26B 6915   6.122   0.185   9.287  2.1715 -0.0028 -1.3291
   60CHL1  H26C 6916   6.162   0.007   9.343  1.3714 -1.1354 -2.1944
   60CHL1   C27 6917   5.998  -0.103   9.142 -0.6492  0.8520  0.1173
   60CHL1  H27A 6918   5.901  -0.148   9.110  0.7446 -1.9479 -0.4150
   60CHL1  H27B 6919   6.055  -0.073   9.051  0.7802  0.7951  0.9678
   60CHL1  H27C 6920   6.051  -0.178   9.204 -1.6795  2.6779  3.4925
   61CHL1    C3 6921   4.942   5.190  10.376  0.7206  0.4979  1.0467
   61CHL1    H3 6922   4.849   5.142  10.338 -0.5488  2.8876  0.8857
   61CHL1    O3 6923   4.947   5.164  10.516  0.0935  0.9288  0.0059
   61CHL1   H3' 6924   4.977   5.074  10.527  0.3056  0.9133 -0.6571
   61CHL1    C4 6925   5.076   5.145  10.311 -0.0634 -0.0417 -0.6926
   61CHL1   H4A 6926   5.154   5.207  10.360 -1.6968  0.0387  2.0193
   61CHL1   H4B 6927   5.112   5.043  10.337 -0.8497 -0.0521  0.4011
   61CHL1    C5 6928   5.064   5.188  10.164  0.4149  0.1096 -0.3092
   61CHL1    C6 6929   5.078   5.093  10.067  0.7108  0.6728  0.0267
   61CHL1    H6 6930   5.111   4.992  10.095  0.2746  0.6000  0.2816
   61CHL1    C7 6931   5.063   5.122   9.928  0.6892 -0.3544  0.5332
   61CHL1   H7A 6932   5.122   5.055   9.861  0.1048  2.1415 -2.7511
   61CHL1   H7B 6933   4.955   5.120   9.901  1.0136  1.9465 -1.1974
   61CHL1    C8 6934   5.102   5.274   9.896 -0.9310  0.4382  0.0405
   61CHL1    H8 6935   5.211   5.277   9.913 -0.9611 -0.2516  0.3997
   61CHL1   C14 6936   5.060   5.295   9.750  0.0874 -0.7830 -0.0453
   61CHL1   H14 6937   4.953   5.268   9.747 -0.0407 -0.2783 -0.0535
   61CHL1   C15 6938   5.122   5.201   9.641 -0.1413  0.0948  0.4475
   61CHL1  H15A 6939   5.231   5.184   9.654 -0.0678 -0.5160 -0.8134
   61CHL1  H15B 6940   5.076   5.101   9.633  0.1631 -0.1413  1.4670
   61CHL1   C16 6941   5.090   5.288   9.508 -0.1308  0.5847 -0.1100
   61CHL1  H16A 6942   5.192   5.312   9.469  0.5547  0.5117  1.5470
   61CHL1  H16B 6943   5.014   5.233   9.448 -0.0127  0.5165 -0.1989
   61CHL1   C17 6944   5.044   5.432   9.553  0.8023  0.2828  0.0693
   61CHL1   H17 6945   4.934   5.418   9.558  0.9294 -0.6869  0.4233
   61CHL1   C13 6946   5.081   5.436   9.705 -0.2382 -0.3321  0.1036
   61CHL1   C18 6947   5.229   5.474   9.707 -0.5567 -0.0693  0.1295
   61CHL1  H18A 6948   5.240   5.583   9.690 -0.6775 -0.1774 -0.6842
   61CHL1  H18B 6949   5.276   5.447   9.804 -0.5145 -1.9514 -0.3880
   61CHL1  H18C 6950   5.280   5.424   9.622  0.2050  1.2125 -0.1957
   61CHL1   C12 6951   4.994   5.529   9.799  0.5023  0.0806  0.1691
   61CHL1  H12A 6952   5.002   5.631   9.758  0.6585  0.1838  0.4550
   61CHL1  H12B 6953   4.890   5.491   9.785  0.2532  0.8981 -0.2700
   61CHL1   C11 6954   5.028   5.517   9.947  0.0899  0.4475  0.2363
   61CHL1  H11A 6955   5.132   5.550   9.964  0.6935 -0.4097 -1.5376
   61CHL1  H11B 6956   4.955   5.571  10.011 -3.3303 -1.0893 -2.0464
   61CHL1    C9 6957   5.018   5.370   9.988  0.3266  0.3558 -0.2281
   61CHL1    H9 6958   4.914   5.339   9.963  1.0673 -2.9742  0.3035
   61CHL1   C10 6959   5.033   5.336  10.141 -0.2977 -0.0632 -0.4005
   61CHL1   C19 6960   5.137   5.426  10.206 -0.2126  0.3153  0.4469
   61CHL1  H19A 6961   5.229   5.417  10.146 -0.2698  0.7832  0.2825
   61CHL1  H19B 6962   5.106   5.533  10.211  0.7629  0.9350 -3.3700
   61CHL1  H19C 6963   5.165   5.403  10.311  0.9359  1.9418  0.5406
   61CHL1    C1 6964   4.899   5.371  10.215 -0.6527  0.9153  0.6308
   61CHL1   H1A 6965   4.875   5.479  10.209  1.0661  1.3498  0.8547
   61CHL1   H1B 6966   4.824   5.303  10.170  2.3688 -2.1423 -0.1777
   61CHL1    C2 6967   4.915   5.330  10.361 -0.2728  0.2137  0.3641
   61CHL1   H2A 6968   4.814   5.348  10.404 -0.2461  0.9578  0.1225
   61CHL1   H2B 6969   4.989   5.391  10.416  0.4939  0.4193 -0.8442
   61CHL1   C20 6970   5.092   5.544   9.461 -0.9296  0.9148  0.7846
   61CHL1   H20 6971   5.203   5.535   9.459 -0.9302  0.9058 -0.5355
   61CHL1   C21 6972   5.040   5.677   9.514 -0.2009 -0.1162 -0.0242
   61CHL1  H21A 6973   5.060   5.761   9.445  0.5583  0.4746  0.8925
   61CHL1  H21B 6974   5.105   5.706   9.599 -0.3029  1.1424 -0.3519
   61CHL1  H21C 6975   4.932   5.684   9.539  0.0014  1.2253  0.5457
   61CHL1   C22 6976   5.057   5.521   9.308  0.1131  0.3782 -0.7770
   61CHL1  H22A 6977   5.108   5.599   9.248 -0.1146  0.8958 -0.3093
   61CHL1  H22B 6978   5.095   5.420   9.282 -0.7697 -0.3072  0.4938
   61CHL1   C23 6979   4.908   5.535   9.266 -0.0422 -0.0949  0.1540
   61CHL1  H23A 6980   4.846   5.468   9.329 -0.8135 -2.3692 -2.7725
   61CHL1  H23B 6981   4.869   5.637   9.284  0.4416 -0.0104  0.7919
   61CHL1   C24 6982   4.893   5.480   9.121  0.2025  0.0435  1.1457
   61CHL1  H24A 6983   4.981   5.521   9.068 -0.2715  4.4031  3.3203
   61CHL1  H24B 6984   4.904   5.369   9.120 -0.2765 -0.0979 -2.7359
   61CHL1   C25 6985   4.761   5.499   9.044  0.1548  1.0252  0.6581
   61CHL1   H25 6986   4.711   5.594   9.074  1.5407  2.1324 -0.4358
   61CHL1   C26 6987   4.795   5.523   8.900  0.1187 -0.2703  0.1593
   61CHL1  H26A 6988   4.851   5.619   8.893 -0.9181  0.4139  0.9084
   61CHL1  H26B 6989   4.866   5.446   8.863  1.6204  0.8481  0.6199
   61CHL1  H26C 6990   4.704   5.543   8.839 -0.8700  1.4742  2.0564
   61CHL1   C27 6991   4.666   5.374   9.067 -0.4290 -0.4516 -0.3132
   61CHL1  H27A 6992   4.701   5.293   9.000  1.4059  0.1903 -0.1803
   61CHL1  H27B 6993   4.670   5.328   9.168 -1.3160  1.8219  0.8397
   61CHL1  H27C 6994   4.566   5.420   9.048  0.1043  0.3993 -1.2038
   62CHL1    C3 6995   5.001   2.560  10.240 -0.0682 -0.1243  0.4796
   62CHL1    H3 6996   4.922   2.487  10.267 -0.1472 -0.2252 -0.0288
   62CHL1    O3 6997   5.021   2.652  10.346  0.1112  0.3047  0.3486
   62CHL1   H3' 6998   5.113   2.640  10.369  0.4536  0.2544 -0.9488
   62CHL1    C4 6999   5.135   2.475  10.224 -0.4507  0.1291  0.0837
   62CHL1   H4A 7000   5.219   2.547  10.216  0.2306 -0.5275  1.1064
   62CHL1   H4B 7001   5.143   2.420  10.320  1.4602  1.5463  0.7955
   62CHL1    C5 7002   5.140   2.380  10.108  0.5137  0.4966  0.1318
   62CHL1    C6 7003   5.165   2.250  10.113 -0.3650  0.1579  0.4990
   62CHL1    H6 7004   5.191   2.200  10.207  0.4704 -1.8335 -0.7231
   62CHL1    C7 7005   5.187   2.163   9.991 -0.8578  0.8742 -0.2803
   62CHL1   H7A 7006   5.274   2.101  10.021 -1.3148  0.5502  0.4121
   62CHL1   H7B 7007   5.114   2.079   9.981  0.7063 -0.4318 -1.2545
   62CHL1    C8 7008   5.209   2.240   9.863 -0.0643 -0.9123  0.4713
   62CHL1    H8 7009   5.313   2.281   9.865 -0.7637  1.4224 -2.9087
   62CHL1   C14 7010   5.190   2.147   9.753 -0.3208 -0.1557  0.1940
   62CHL1   H14 7011   5.086   2.108   9.751 -0.3252 -0.1273 -1.6655
   62CHL1   C15 7012   5.280   2.023   9.750 -0.3741  0.5166  0.9176
   62CHL1  H15A 7013   5.379   2.054   9.790 -1.6955  0.7868  4.2911
   62CHL1  H15B 7014   5.234   1.937   9.803  1.0127 -0.5890  0.3840
   62CHL1   C16 7015   5.291   1.993   9.596  0.5676  0.2059 -0.9480
   62CHL1  H16A 7016   5.399   2.005   9.574  1.0694 -0.0961  1.1567
   62CHL1  H16B 7017   5.253   1.891   9.574  1.7232 -0.2892 -0.6853
   62CHL1   C17 7018   5.201   2.094   9.523  0.6493 -0.0654 -0.1748
   62CHL1   H17 7019   5.094   2.064   9.530 -0.1271  2.0796 -1.5796
   62CHL1   C13 7020   5.196   2.214   9.617  0.0453 -0.7391  0.1643
   62CHL1   C18 7021   5.332   2.295   9.594  0.0578  0.8610 -0.6249
   62CHL1  H18A 7022   5.332   2.336   9.490  0.9182  0.9688 -0.5884
   62CHL1  H18B 7023   5.332   2.377   9.669 -1.6484 -1.4651  2.1277
   62CHL1  H18C 7024   5.428   2.239   9.597 -0.1412  0.5550  1.6913
   62CHL1   C12 7025   5.082   2.306   9.596 -0.4851  1.0033 -0.3768
   62CHL1  H12A 7026   5.086   2.356   9.497  1.5690 -3.1159 -2.6307
   62CHL1  H12B 7027   4.993   2.240   9.599  1.8890 -2.4555  0.2884
   62CHL1   C11 7028   5.071   2.409   9.710  0.0096 -0.1441  0.2377
   62CHL1  H11A 7029   5.143   2.492   9.690 -1.6785  1.0181 -1.3456
   62CHL1  H11B 7030   4.971   2.458   9.705 -0.5588 -1.3908 -1.7432
   62CHL1    C9 7031   5.101   2.350   9.859 -0.1529 -0.5490 -0.4905
   62CHL1    H9 7032   5.009   2.300   9.896  0.6254  0.6684  3.5642
   62CHL1   C10 7033   5.122   2.455   9.973  0.3725 -0.0700  0.5102
   62CHL1   C19 7034   5.233   2.556   9.932  0.2670 -0.6918 -0.2951
   62CHL1  H19A 7035   5.245   2.626  10.018  0.7955  0.7214 -1.4764
   62CHL1  H19B 7036   5.336   2.518   9.914  0.2487 -0.1552 -1.6346
   62CHL1  H19C 7037   5.205   2.618   9.845 -1.1104 -0.8355  0.0223
   62CHL1    C1 7038   4.984   2.535   9.983  0.1989 -0.4824 -0.6830
   62CHL1   H1A 7039   4.968   2.595   9.891 -0.6899  0.0684 -0.1921
   62CHL1   H1B 7040   4.898   2.464   9.984  1.4134 -1.9915 -0.5700
   62CHL1    C2 7041   4.976   2.629  10.105 -0.1840  0.0013 -1.0058
   62CHL1   H2A 7042   4.886   2.693  10.094 -0.0616  0.1791 -0.9783
   62CHL1   H2B 7043   5.065   2.697  10.100 -0.1644  0.2134  1.2963
   62CHL1   C20 7044   5.220   2.103   9.375  0.3222 -0.5669  0.0535
   62CHL1   H20 7045   5.180   2.200   9.338  2.6527  0.8772  1.1341
   62CHL1   C21 7046   5.148   1.988   9.311 -0.3938  0.0674  0.2075
   62CHL1  H21A 7047   5.171   1.980   9.202  2.2942  3.3964  0.3674
   62CHL1  H21B 7048   5.040   2.014   9.315 -0.7168 -1.1254 -0.2749
   62CHL1  H21C 7049   5.163   1.889   9.359  0.6348  0.8165  1.4748
   62CHL1   C22 7050   5.373   2.104   9.332  0.3403 -0.5529 -0.9552
   62CHL1  H22A 7051   5.431   2.186   9.378 -1.4719 -0.3259  1.0659
   62CHL1  H22B 7052   5.414   2.008   9.371 -1.8865 -1.1385  0.1279
   62CHL1   C23 7053   5.401   2.108   9.181 -0.0977  0.2940  0.3778
   62CHL1  H23A 7054   5.359   2.018   9.131  0.9356  0.0578 -0.0904
   62CHL1  H23B 7055   5.355   2.203   9.145  0.5240  1.0798  1.5897
   62CHL1   C24 7056   5.551   2.107   9.147  0.2562 -0.0635  0.5561
   62CHL1  H24A 7057   5.599   2.203   9.178 -0.4159  0.3452  0.3545
   62CHL1  H24B 7058   5.612   2.029   9.195  1.4200  1.0600  0.9565
   62CHL1   C25 7059   5.578   2.092   8.996 -0.0006 -0.5262  0.3828
   62CHL1   H25 7060   5.523   2.001   8.962 -0.6772  0.3405 -0.9449
   62CHL1   C26 7061   5.528   2.218   8.919 -0.2927  0.7059 -1.5003
   62CHL1  H26A 7062   5.595   2.302   8.950  1.4942 -0.9621 -0.5463
   62CHL1  H26B 7063   5.533   2.220   8.808 -2.8938  1.5777 -1.6676
   62CHL1  H26C 7064   5.422   2.247   8.934 -0.4588 -0.5870  0.0895
   62CHL1   C27 7065   5.732   2.077   8.973 -0.1750 -0.2902  0.1015
   62CHL1  H27A 7066   5.772   2.178   8.994  0.1792 -0.5111  0.5030
   62CHL1  H27B 7067   5.782   2.011   9.047 -2.9594  0.2416  2.6276
   62CHL1  H27C 7068   5.756   2.035   8.873 -1.6968  1.2749 -0.9779
   63CHL1    C3 7069   5.644   4.941  10.654 -0.2649 -0.2683  0.4377
   63CHL1    H3 7070   5.633   5.046  10.619  1.2588  0.0091  0.6842
   63CHL1    O3 7071   5.648   4.945  10.796 -0.3050  0.0945 -0.0613
   63CHL1   H3' 7072   5.674   4.858  10.829  2.0938  1.3177  1.6428
   63CHL1    C4 7073   5.524   4.849  10.614 -0.3551 -0.6977  0.0520
   63CHL1   H4A 7074   5.530   4.758  10.677  1.6956 -1.5012 -1.2274
   63CHL1   H4B 7075   5.438   4.911  10.649  0.6283  1.9117 -1.7933
   63CHL1    C5 7076   5.513   4.831  10.463 -0.3187  0.7042  0.7044
   63CHL1    C6 7077   5.397   4.846  10.400  0.4220  0.0577 -0.5136
   63CHL1    H6 7078   5.307   4.872  10.458  0.2308 -1.8795  0.1159
   63CHL1    C7 7079   5.379   4.845  10.248 -0.3353 -0.9505 -0.4646
   63CHL1   H7A 7080   5.279   4.806  10.219 -1.5473  1.4631  0.2078
   63CHL1   H7B 7081   5.385   4.952  10.219 -2.6196 -0.9888 -1.2861
   63CHL1    C8 7082   5.490   4.770  10.172 -0.3995 -0.4847  0.6072
   63CHL1    H8 7083   5.493   4.664  10.204  2.7402 -0.0004  2.4105
   63CHL1   C14 7084   5.488   4.797  10.027  0.3149 -0.2988 -0.2051
   63CHL1   H14 7085   5.505   4.905  10.009  1.7784 -0.4807 -0.0521
   63CHL1   C15 7086   5.354   4.759   9.950 -0.6078 -0.3779  0.0153
   63CHL1  H15A 7087   5.319   4.658   9.980  1.8068 -0.6410  2.3670
   63CHL1  H15B 7088   5.277   4.834   9.979 -1.6495 -0.4753 -2.2576
   63CHL1   C16 7089   5.399   4.761   9.804 -0.1291  0.4164 -0.5339
   63CHL1  H16A 7090   5.382   4.663   9.755  2.5787 -0.7968  0.7267
   63CHL1  H16B 7091   5.350   4.846   9.752  0.1178  1.3743  0.7347
   63CHL1   C17 7092   5.559   4.776   9.801 -0.9995  0.0679  0.3448
   63CHL1   H17 7093   5.574   4.886   9.792 -2.8564  0.5336  2.1811
   63CHL1   C13 7094   5.603   4.737   9.945  0.4181  0.7743  0.0864
   63CHL1   C18 7095   5.600   4.577   9.953  0.0149  0.4154 -0.2713
   63CHL1  H18A 7096   5.679   4.538   9.886 -0.2489 -0.2842 -0.1770
   63CHL1  H18B 7097   5.616   4.543  10.057  3.9686 -0.0652 -0.8965
   63CHL1  H18C 7098   5.499   4.547   9.917 -1.1483  3.6528 -0.0503
   63CHL1   C12 7099   5.735   4.791   9.996 -0.6640  0.2660 -0.8548
   63CHL1  H12A 7100   5.822   4.741   9.949 -0.4470 -1.9193  1.6564
   63CHL1  H12B 7101   5.739   4.900   9.976  4.2515  0.2599 -0.9482
   63CHL1   C11 7102   5.745   4.765  10.150 -0.2681  0.1566 -0.6487
   63CHL1  H11A 7103   5.758   4.655  10.162  0.8435  0.3010 -0.3665
   63CHL1  H11B 7104   5.835   4.823  10.178 -2.4588  4.1035 -1.0580
   63CHL1    C9 7105   5.628   4.827  10.230 -0.9659 -0.1214 -0.2397
   63CHL1    H9 7106   5.621   4.936  10.209 -0.6523  0.2605  1.4786
   63CHL1   C10 7107   5.643   4.801  10.386  1.0931 -0.0888  0.2154
   63CHL1   C19 7108   5.666   4.649  10.404  0.9753  0.3816  0.0518
   63CHL1  H19A 7109   5.756   4.609  10.354  0.6451 -0.8377  0.3917
   63CHL1  H19B 7110   5.672   4.626  10.513  1.2118  2.0600  0.4225
   63CHL1  H19C 7111   5.583   4.587  10.363  0.1524  0.3265  1.6850
   63CHL1    C1 7112   5.761   4.882  10.441 -0.1063  0.9488  0.6674
   63CHL1   H1A 7113   5.847   4.832  10.392 -0.5540  0.5753  0.2574
   63CHL1   H1B 7114   5.752   4.983  10.394 -1.5773  0.8409  0.6752
   63CHL1    C2 7115   5.781   4.902  10.590  0.1792  0.1072  0.1827
   63CHL1   H2A 7116   5.845   4.991  10.607 -0.5460  0.2582  2.5220
   63CHL1   H2B 7117   5.815   4.805  10.632  2.1184  0.7059  0.0932
   63CHL1   C20 7118   5.631   4.722   9.672  0.4684 -0.2014 -0.8057
   63CHL1   H20 7119   5.648   4.614   9.694  0.7176  0.4216  2.5447
   63CHL1   C21 7120   5.765   4.792   9.656 -0.7816  0.0774 -0.1862
   63CHL1  H21A 7121   5.817   4.747   9.569  1.7187 -0.7656  1.6120
   63CHL1  H21B 7122   5.832   4.775   9.743  0.0173  1.6015 -0.4750
   63CHL1  H21C 7123   5.756   4.902   9.661  2.5381  0.5143 -1.2317
   63CHL1   C22 7124   5.544   4.746   9.546  1.1173 -0.2502  0.2085
   63CHL1  H22A 7125   5.452   4.685   9.554  1.8339 -1.2265  1.2961
   63CHL1  H22B 7126   5.514   4.853   9.538  1.1050 -0.3001 -0.4269
   63CHL1   C23 7127   5.604   4.723   9.412 -0.2909  0.4076 -0.0245
   63CHL1  H23A 7128   5.682   4.794   9.376  1.4029 -1.2855  0.1687
   63CHL1  H23B 7129   5.646   4.621   9.424  0.4965  0.6491 -0.6603
   63CHL1   C24 7130   5.492   4.706   9.296 -0.1649  0.1018 -0.9037
   63CHL1  H24A 7131   5.416   4.631   9.327 -0.8019  1.5510  1.2068
   63CHL1  H24B 7132   5.444   4.806   9.291  2.3338  1.5677  1.4881
   63CHL1   C25 7133   5.556   4.669   9.168  0.6193 -0.2469  0.0303
   63CHL1   H25 7134   5.652   4.721   9.150  0.9457 -1.0598 -0.6489
   63CHL1   C26 7135   5.592   4.520   9.160  0.5276  0.3272 -0.2745
   63CHL1  H26A 7136   5.513   4.455   9.203 -0.0357  0.0914 -1.6115
   63CHL1  H26B 7137   5.598   4.488   9.054 -1.9335 -3.0355  0.4477
   63CHL1  H26C 7138   5.690   4.503   9.210 -0.8954 -3.8196  1.5492
   63CHL1   C27 7139   5.452   4.706   9.055  0.2693  0.2243  0.0576
   63CHL1  H27A 7140   5.354   4.656   9.073  1.9447 -3.4362 -0.0420
   63CHL1  H27B 7141   5.447   4.817   9.059 -0.8298  0.1895  3.3653
   63CHL1  H27C 7142   5.474   4.674   8.951  1.4366  2.3928 -0.4065
   64CHL1    C3 7143   6.643   3.706  10.130 -0.2520  0.2451 -0.1148
   64CHL1    H3 7144   6.593   3.607  10.126 -2.0042  1.0246  1.2285
   64CHL1    O3 7145   6.631   3.755  10.263  0.0331 -0.5180 -0.3519
   64CHL1   H3' 7146   6.539   3.739  10.286 -0.4999 -0.0250 -2.0412
   64CHL1    C4 7147   6.788   3.708  10.084 -0.4824 -0.7047  0.4162
   64CHL1   H4A 7148   6.839   3.806  10.092 -1.2156 -0.2851  0.0378
   64CHL1   H4B 7149   6.853   3.642  10.146  0.7637  0.7740  0.7476
   64CHL1    C5 7150   6.795   3.659   9.936  0.4613 -0.0304  0.0345
   64CHL1    C6 7151   6.865   3.549   9.911  0.0882 -0.4196 -0.6614
   64CHL1    H6 7152   6.920   3.501   9.993 -1.5668 -0.6828  0.3502
   64CHL1    C7 7153   6.877   3.485   9.775 -0.0897  0.2492  0.0227
   64CHL1   H7A 7154   6.977   3.448   9.746 -0.5891 -1.3481  0.2483
   64CHL1   H7B 7155   6.826   3.386   9.777  1.8710 -0.8269 -0.7468
   64CHL1    C8 7156   6.809   3.570   9.661 -0.2416 -0.0861  0.7337
   64CHL1    H8 7157   6.877   3.648   9.623 -0.2663 -0.4671 -0.1273
   64CHL1   C14 7158   6.775   3.495   9.535  0.0851  0.2060 -0.3661
   64CHL1   H14 7159   6.700   3.421   9.569  0.8139  1.1165  3.7846
   64CHL1   C15 7160   6.895   3.414   9.486  0.0325  0.2646  0.4153
   64CHL1  H15A 7161   6.986   3.475   9.473 -0.0719  0.5143  0.8230
   64CHL1  H15B 7162   6.909   3.319   9.543  0.1628 -0.1838 -0.3553
   64CHL1   C16 7163   6.839   3.372   9.348  0.5078 -0.4470 -0.2101
   64CHL1  H16A 7164   6.912   3.385   9.266  0.2221 -0.5201 -0.4801
   64CHL1  H16B 7165   6.819   3.263   9.340 -1.7940 -0.0376 -0.7208
   64CHL1   C17 7166   6.709   3.453   9.316 -0.5465  0.7463 -0.1001
   64CHL1   H17 7167   6.615   3.396   9.334  0.4242 -0.6187  0.8720
   64CHL1   C13 7168   6.708   3.570   9.422  0.4317  0.2427 -0.0017
   64CHL1   C18 7169   6.803   3.679   9.367 -0.3603 -0.4450 -0.8016
   64CHL1  H18A 7170   6.898   3.635   9.329  0.8508  1.6728 -0.3846
   64CHL1  H18B 7171   6.749   3.742   9.293  0.3429  1.3415  0.1653
   64CHL1  H18C 7172   6.834   3.747   9.449 -1.0420  1.1989 -1.8559
   64CHL1   C12 7173   6.569   3.628   9.470 -0.6015  0.5741 -0.0287
   64CHL1  H12A 7174   6.522   3.692   9.392 -0.3747 -1.3553 -1.8209
   64CHL1  H12B 7175   6.501   3.544   9.494  1.1422 -0.8326  0.1639
   64CHL1   C11 7176   6.601   3.709   9.600  0.0709  0.0022 -0.0359
   64CHL1  H11A 7177   6.633   3.808   9.561 -0.6419  0.1252 -0.3242
   64CHL1  H11B 7178   6.506   3.735   9.651 -1.1378 -1.6010 -1.3914
   64CHL1    C9 7179   6.679   3.635   9.713 -0.7942  0.4401 -0.0642
   64CHL1    H9 7180   6.617   3.549   9.746  0.6691 -0.3955  0.6668
   64CHL1   C10 7181   6.706   3.736   9.833  0.0631  0.2133 -0.6660
   64CHL1   C19 7182   6.783   3.862   9.788 -0.4871 -0.0177 -0.7026
   64CHL1  H19A 7183   6.744   3.914   9.698 -0.0760  0.6192 -0.5163
   64CHL1  H19B 7184   6.796   3.931   9.874  0.3614 -0.5653 -0.3765
   64CHL1  H19C 7185   6.885   3.828   9.761 -0.4530  0.5402 -1.2913
   64CHL1    C1 7186   6.568   3.768   9.890 -0.0065 -0.1851 -0.8738
   64CHL1   H1A 7187   6.523   3.852   9.833  1.4757  1.4464  0.2517
   64CHL1   H1B 7188   6.507   3.674   9.887 -2.6693  1.4405 -0.8750
   64CHL1    C2 7189   6.571   3.813  10.038 -0.2068  0.5193  0.0696
   64CHL1   H2A 7190   6.464   3.823  10.066 -0.5032 -3.6461  0.9928
   64CHL1   H2B 7191   6.629   3.908  10.041 -0.1510  0.4685  0.7480
   64CHL1   C20 7192   6.696   3.483   9.168  0.0429  0.8888  0.2296
   64CHL1   H20 7193   6.779   3.549   9.138  0.0310  0.7550 -0.0971
   64CHL1   C21 7194   6.557   3.551   9.142  0.1079  0.3981 -0.4507
   64CHL1  H21A 7195   6.482   3.473   9.167  1.6871 -0.8372  0.6926
   64CHL1  H21B 7196   6.530   3.576   9.037  0.3929 -0.0569 -0.6380
   64CHL1  H21C 7197   6.549   3.643   9.203 -0.9926 -0.3172  0.5088
   64CHL1   C22 7198   6.701   3.358   9.080  0.6303  0.8193  0.2844
   64CHL1  H22A 7199   6.787   3.293   9.107 -0.7070 -1.6975 -1.1799
   64CHL1  H22B 7200   6.618   3.285   9.093  0.7317  0.5274 -0.6198
   64CHL1   C23 7201   6.714   3.397   8.931 -0.4073  0.0891 -0.2838
   64CHL1  H23A 7202   6.632   3.467   8.906 -0.3425  0.1435 -0.3443
   64CHL1  H23B 7203   6.816   3.442   8.921  0.2785 -1.1112  0.9288
   64CHL1   C24 7204   6.704   3.278   8.837  0.2215 -0.5030  0.5620
   64CHL1  H24A 7205   6.783   3.209   8.873 -0.3275  0.2422  3.4388
   64CHL1  H24B 7206   6.609   3.220   8.839  1.5022 -2.9088 -1.6275
   64CHL1   C25 7207   6.730   3.311   8.685 -0.5638  0.5831 -0.3413
   64CHL1   H25 7208   6.735   3.219   8.624  0.2665 -0.4693  1.2410
   64CHL1   C26 7209   6.625   3.413   8.625  0.3324  0.4379  1.1190
   64CHL1  H26A 7210   6.622   3.513   8.675 -0.5548  0.1841  1.5986
   64CHL1  H26B 7211   6.661   3.423   8.521  0.3052 -1.5676  0.8755
   64CHL1  H26C 7212   6.523   3.370   8.628  0.5246  0.0224  2.0774
   64CHL1   C27 7213   6.871   3.354   8.667  0.6368 -0.0625  0.0765
   64CHL1  H27A 7214   6.945   3.283   8.708 -1.5082 -1.8019  1.1187
   64CHL1  H27B 7215   6.898   3.372   8.561  0.4927  2.7998  0.4366
   64CHL1  H27C 7216   6.895   3.457   8.702  0.7574  0.8102 -2.3873
   65CHL1    C3 7217   1.607   0.890  10.588 -0.2046 -0.0857  0.7208
   65CHL1    H3 7218   1.523   0.874  10.518  1.4949 -0.0160 -1.4268
   65CHL1    O3 7219   1.558   0.940  10.711 -0.3807  0.2939  0.6292
   65CHL1   H3' 7220   1.503   0.875  10.756 -1.9531  1.5096  0.5514
   65CHL1    C4 7221   1.680   0.756  10.595 -0.7637 -0.3064  0.1291
   65CHL1   H4A 7222   1.767   0.756  10.664 -0.4429  1.4493 -0.2258
   65CHL1   H4B 7223   1.609   0.684  10.640 -0.3184 -0.0684  1.2527
   65CHL1    C5 7224   1.727   0.713  10.460 -0.1373 -0.2885  0.1069
   65CHL1    C6 7225   1.705   0.593  10.422 -0.7549  0.8761  0.3405
   65CHL1    H6 7226   1.651   0.530  10.495  2.1248  0.1150  1.9887
   65CHL1    C7 7227   1.764   0.532  10.295 -0.1954  0.4591 -0.2482
   65CHL1   H7A 7228   1.803   0.430  10.316 -0.8412 -0.2728 -2.3207
   65CHL1   H7B 7229   1.682   0.513  10.224  0.4853  0.7236 -1.1215
   65CHL1    C8 7230   1.884   0.615  10.246 -0.2495  0.2774  0.0399
   65CHL1    H8 7231   1.969   0.612  10.317 -0.5623  0.3140  0.4223
   65CHL1   C14 7232   1.931   0.556  10.112 -0.2353  0.8678 -0.1831
   65CHL1   H14 7233   1.847   0.561  10.039 -0.4172  2.2810  0.0986
   65CHL1   C15 7234   1.990   0.414  10.119 -0.0698  0.0360  0.9833
   65CHL1  H15A 7235   2.050   0.413  10.213  1.0978  1.7593  0.3121
   65CHL1  H15B 7236   1.916   0.332  10.127  0.4706 -0.6152 -0.4187
   65CHL1   C16 7237   2.071   0.413   9.985 -0.2977  1.2824  0.3197
   65CHL1  H16A 7238   2.168   0.360   9.996  0.1357  1.8378 -0.6959
   65CHL1  H16B 7239   2.009   0.339   9.931  4.0245 -2.8630  0.3713
   65CHL1   C17 7240   2.077   0.550   9.923 -0.1134 -0.4365 -0.1931
   65CHL1   H17 7241   1.994   0.560   9.849  1.4386  0.2000 -1.9246
   65CHL1   C13 7242   2.033   0.636  10.043 -0.5080 -0.1336  0.1160
   65CHL1   C18 7243   2.165   0.644  10.127  0.2075  0.5062 -0.3502
   65CHL1  H18A 7244   2.221   0.548  10.123  2.3214  1.6751 -0.3136
   65CHL1  H18B 7245   2.241   0.713  10.083 -1.0956  0.3180 -3.1586
   65CHL1  H18C 7246   2.154   0.656  10.236  0.7797  1.3896 -0.3713
   65CHL1   C12 7247   1.979   0.774  10.019 -0.4716  0.1326 -0.1060
   65CHL1  H12A 7248   2.046   0.855   9.983 -0.4520  0.6786  1.1148
   65CHL1  H12B 7249   1.888   0.777   9.955  0.1816  0.7133 -1.0350
   65CHL1   C11 7250   1.939   0.846  10.153  1.0448  0.0283  0.8340
   65CHL1  H11A 7251   2.028   0.882  10.209  1.3993  1.6208 -0.6668
   65CHL1  H11B 7252   1.887   0.939  10.120 -1.7400 -1.1385  1.6291
   65CHL1    C9 7253   1.841   0.759  10.234 -0.4508  0.0844  0.0685
   65CHL1    H9 7254   1.744   0.753  10.181 -1.3467 -1.7772  1.8360
   65CHL1   C10 7255   1.812   0.817  10.375  0.1395 -0.2460 -0.7432
   65CHL1   C19 7256   1.944   0.839  10.448  0.4719 -0.0447  0.2113
   65CHL1  H19A 7257   2.008   0.922  10.410  1.4496 -0.4329  0.9457
   65CHL1  H19B 7258   1.920   0.866  10.552 -1.7248 -0.2817 -0.1965
   65CHL1  H19C 7259   2.025   0.762  10.454  1.2559  0.8183  1.0719
   65CHL1    C1 7260   1.734   0.950  10.374  0.6665  0.3884 -0.1865
   65CHL1   H1A 7261   1.794   1.037  10.340  0.1057  0.5681 -0.7218
   65CHL1   H1B 7262   1.642   0.934  10.314 -0.5464  0.2649  1.6210
   65CHL1    C2 7263   1.691   0.995  10.513 -0.1182 -0.1046 -0.6628
   65CHL1   H2A 7264   1.630   1.087  10.507 -0.2373 -0.0982  0.4676
   65CHL1   H2B 7265   1.782   1.011  10.575  1.0222 -0.4286 -2.1872
   65CHL1   C20 7266   2.204   0.579   9.841 -0.4223 -0.8498  0.2114
   65CHL1   H20 7267   2.293   0.604   9.903  0.3391  0.3751 -1.2762
   65CHL1   C21 7268   2.180   0.703   9.757 -0.0341 -0.0773  0.1836
   65CHL1  H21A 7269   2.153   0.788   9.824 -2.6029  2.1444 -3.3279
   65CHL1  H21B 7270   2.092   0.680   9.694  0.1817 -0.7341  0.1111
   65CHL1  H21C 7271   2.260   0.730   9.685 -2.2198  1.1919 -1.9165
   65CHL1   C22 7272   2.262   0.459   9.750  0.3341 -0.6344 -0.7979
   65CHL1  H22A 7273   2.354   0.498   9.702  0.4717 -0.2942 -0.2739
   65CHL1  H22B 7274   2.295   0.383   9.825  0.9737 -0.2016 -0.6347
   65CHL1   C23 7275   2.160   0.393   9.655 -0.0027  0.0534 -0.4981
   65CHL1  H23A 7276   2.084   0.345   9.720 -0.3606 -0.1766 -1.0758
   65CHL1  H23B 7277   2.103   0.468   9.596  1.2983  0.1165 -1.7364
   65CHL1   C24 7278   2.200   0.283   9.551  0.4457 -0.8606  0.3291
   65CHL1  H24A 7279   2.281   0.331   9.492 -0.8740  2.3126  0.8705
   65CHL1  H24B 7280   2.241   0.205   9.619  1.1816 -0.7742 -0.0044
   65CHL1   C25 7281   2.075   0.236   9.473  0.1472  0.8308  0.5391
   65CHL1   H25 7282   2.003   0.320   9.465  0.0541  0.7889  0.9096
   65CHL1   C26 7283   2.118   0.199   9.326  0.1431 -0.2679  0.2163
   65CHL1  H26A 7284   2.034   0.166   9.261  0.4061 -1.9390  0.6642
   65CHL1  H26B 7285   2.152   0.290   9.273  0.5668 -0.4905  0.1042
   65CHL1  H26C 7286   2.202   0.127   9.326  2.1447  1.9666  0.3631
   65CHL1   C27 7287   2.009   0.118   9.543 -0.1491  0.2051 -0.6301
   65CHL1  H27A 7288   1.906   0.097   9.507 -1.5127  3.1570  1.1779
   65CHL1  H27B 7289   2.071   0.027   9.530  2.3753  2.0478 -2.5145
   65CHL1  H27C 7290   1.984   0.140   9.649  1.6344  2.7765 -0.6360
   66CHL1    C3 7291   6.001   5.779  10.642 -0.8961 -0.0384 -0.3369
   66CHL1    H3 7292   6.085   5.829  10.589  0.5405 -0.9754  0.9454
   66CHL1    O3 7293   6.038   5.762  10.779  0.0896  0.5543  0.1986
   66CHL1   H3' 7294   6.099   5.689  10.765 -2.5682 -1.6822 -0.5353
   66CHL1    C4 7295   5.866   5.856  10.631 -0.6070  0.3081 -0.0264
   66CHL1   H4A 7296   5.788   5.812  10.696 -0.5016  1.4659  0.9224
   66CHL1   H4B 7297   5.893   5.955  10.674  0.8046 -0.3265  0.6233
   66CHL1    C5 7298   5.813   5.879  10.493  0.0987 -0.1611 -0.1181
   66CHL1    C6 7299   5.801   5.997  10.434  0.2457 -0.2849  0.2095
   66CHL1    H6 7300   5.812   6.087  10.496 -0.4886 -0.9008  1.2742
   66CHL1    C7 7301   5.750   6.020  10.293  0.1816 -0.1633  0.2706
   66CHL1   H7A 7302   5.662   6.088  10.301 -1.9964 -2.7544 -0.3493
   66CHL1   H7B 7303   5.834   6.066  10.237 -1.2631  1.5698 -0.5847
   66CHL1    C8 7304   5.700   5.888  10.218  0.6684 -0.1329  0.3887
   66CHL1    H8 7305   5.595   5.869  10.250  1.0570  2.2120  3.5236
   66CHL1   C14 7306   5.702   5.904  10.066 -0.4095  0.5457  0.0878
   66CHL1   H14 7307   5.805   5.923  10.028 -0.9261 -0.0971 -1.7306
   66CHL1   C15 7308   5.614   6.023  10.015 -0.2504 -0.4145  0.4566
   66CHL1  H15A 7309   5.512   6.012  10.059 -0.0205 -0.3682  0.9973
   66CHL1  H15B 7310   5.662   6.123  10.020  0.6901 -0.8022 -0.5085
   66CHL1   C16 7311   5.583   5.990   9.868 -0.7620 -0.2096 -0.1928
   66CHL1  H16A 7312   5.476   6.001   9.840 -0.4608  3.1672 -0.4383
   66CHL1  H16B 7313   5.647   6.058   9.807  1.1806 -0.6377  1.2540
   66CHL1   C17 7314   5.641   5.842   9.847  0.2061  0.5396 -0.1028
   66CHL1   H17 7315   5.743   5.860   9.807  0.1331  0.5662 -0.2788
   66CHL1   C13 7316   5.662   5.778   9.988  0.2507 -0.3712 -0.0978
   66CHL1   C18 7317   5.522   5.728  10.032  0.5368  0.0196 -0.2794
   66CHL1  H18A 7318   5.436   5.787   9.994  0.9987  1.4389  0.8015
   66CHL1  H18B 7319   5.506   5.626   9.991 -2.0224  1.0014 -1.9843
   66CHL1  H18C 7320   5.525   5.727  10.143 -0.4076  2.4917 -0.1703
   66CHL1   C12 7321   5.767   5.668  10.016 -0.5895 -0.6605  0.6052
   66CHL1  H12A 7322   5.761   5.573   9.959  3.1302  0.8008 -2.6604
   66CHL1  H12B 7323   5.858   5.722   9.983 -1.1901 -0.4739 -0.8409
   66CHL1   C11 7324   5.769   5.647  10.166  0.3420 -0.1239 -0.2491
   66CHL1  H11A 7325   5.670   5.606  10.194 -0.2190  2.0688  1.2221
   66CHL1  H11B 7326   5.847   5.571  10.188  1.0143  0.4696 -0.5186
   66CHL1    C9 7327   5.791   5.773  10.251 -0.7567 -0.1217  0.6632
   66CHL1    H9 7328   5.896   5.798  10.224 -0.0585 -2.5979  0.8318
   66CHL1   C10 7329   5.800   5.743  10.406 -0.2060  0.1744  0.3557
   66CHL1   C19 7330   5.678   5.665  10.447  0.0347  0.9621 -0.7933
   66CHL1  H19A 7331   5.682   5.563  10.404 -1.3228  0.8344 -0.6555
   66CHL1  H19B 7332   5.667   5.639  10.555  2.3892  0.0728 -0.7045
   66CHL1  H19C 7333   5.585   5.718  10.419 -1.0580 -0.3010  0.2794
   66CHL1    C1 7334   5.924   5.651  10.429  0.1654 -0.6896 -0.2736
   66CHL1   H1A 7335   5.897   5.549  10.394 -0.5753 -0.9606  1.0399
   66CHL1   H1B 7336   6.008   5.700  10.374  2.4049 -1.9778  1.7940
   66CHL1    C2 7337   5.979   5.645  10.576  0.9925  0.3094  0.0155
   66CHL1   H2A 7338   6.082   5.605  10.566  0.8280  0.3774 -2.6982
   66CHL1   H2B 7339   5.911   5.584  10.639 -0.3440  0.6900 -1.0186
   66CHL1   C20 7340   5.570   5.764   9.736  0.0862 -0.2522 -0.7615
   66CHL1   H20 7341   5.471   5.733   9.777  0.4240 -1.6858 -0.9777
   66CHL1   C21 7342   5.652   5.641   9.696 -0.3566  0.5395 -0.0683
   66CHL1  H21A 7343   5.651   5.574   9.784  2.9557  0.1804 -0.1881
   66CHL1  H21B 7344   5.756   5.673   9.672 -0.1231 -0.4776 -0.4756
   66CHL1  H21C 7345   5.612   5.587   9.608 -0.5552 -0.3106  0.5253
   66CHL1   C22 7346   5.546   5.849   9.603 -0.9642  0.2646  0.6131
   66CHL1  H22A 7347   5.496   5.943   9.633 -1.0132  0.9026 -1.3721
   66CHL1  H22B 7348   5.645   5.874   9.558 -0.1303 -0.4602  1.9419
   66CHL1   C23 7349   5.458   5.788   9.494 -0.1533  0.0969 -0.1348
   66CHL1  H23A 7350   5.511   5.695   9.462 -1.3359 -0.7944  0.4229
   66CHL1  H23B 7351   5.359   5.776   9.542  0.3270 -0.2742  0.8139
   66CHL1   C24 7352   5.439   5.881   9.374  0.3343  0.1257 -0.2391
   66CHL1  H24A 7353   5.387   5.968   9.419  1.5663 -0.3136  2.2231
   66CHL1  H24B 7354   5.539   5.911   9.335  0.2713 -0.3896 -0.8214
   66CHL1   C25 7355   5.363   5.808   9.263 -0.5926 -0.1667  0.0378
   66CHL1   H25 7356   5.261   5.780   9.297 -0.4424  1.7451  2.2650
   66CHL1   C26 7357   5.341   5.901   9.139 -0.1800  0.5994 -0.0463
   66CHL1  H26A 7358   5.419   5.980   9.133 -1.2907  1.7994  0.7285
   66CHL1  H26B 7359   5.358   5.849   9.043 -0.7920  1.9468 -0.9115
   66CHL1  H26C 7360   5.242   5.951   9.142 -1.3516 -1.6245  1.7802
   66CHL1   C27 7361   5.433   5.677   9.218 -0.5143  0.3181 -0.0066
   66CHL1  H27A 7362   5.416   5.601   9.297 -1.4979 -0.9768 -1.4147
   66CHL1  H27B 7363   5.386   5.632   9.127  1.9559  0.4701 -1.4466
   66CHL1  H27C 7364   5.539   5.685   9.186 -0.9745  1.3821 -1.3729
   67CHL1    C3 7365   4.414   5.259  10.341 -0.2369 -0.1394 -0.2429
   67CHL1    H3 7366   4.345   5.175  10.314 -1.5975  0.4019  1.3885
   67CHL1    O3 7367   4.408   5.291  10.483 -0.3210 -0.3495  0.5504
   67CHL1   H3' 7368   4.453   5.219  10.527  0.2096  0.7753  1.9185
   67CHL1    C4 7369   4.554   5.230  10.291 -0.1767 -0.1077 -0.2407
   67CHL1   H4A 7370   4.614   5.321  10.315 -1.5171  0.3618  1.6058
   67CHL1   H4B 7371   4.587   5.146  10.356  0.5775  0.3047 -0.0848
   67CHL1    C5 7372   4.566   5.212  10.145 -0.7804  0.3710 -0.2877
   67CHL1    C6 7373   4.630   5.101  10.100  0.1422 -0.5320 -0.2082
   67CHL1    H6 7374   4.667   5.024  10.169 -1.6982 -1.9182 -0.6868
   67CHL1    C7 7375   4.640   5.068   9.961  0.0020  0.4222  0.6072
   67CHL1   H7A 7376   4.745   5.039   9.937 -0.5863  0.2939 -2.1564
   67CHL1   H7B 7377   4.587   4.973   9.937  2.8625 -1.3750  0.9227
   67CHL1    C8 7378   4.602   5.175   9.861 -0.0330 -0.1384 -0.2012
   67CHL1    H8 7379   4.692   5.240   9.853  0.9489 -1.5251 -1.0406
   67CHL1   C14 7380   4.573   5.114   9.722  0.3440 -0.6474  0.4202
   67CHL1   H14 7381   4.488   5.046   9.744  0.8356 -1.0541  1.0716
   67CHL1   C15 7382   4.677   5.017   9.659 -0.1108 -0.2408  0.1568
   67CHL1  H15A 7383   4.775   5.065   9.676 -0.6872  1.0027  0.1224
   67CHL1  H15B 7384   4.699   4.920   9.709  1.1803  1.4526  3.0631
   67CHL1   C16 7385   4.631   5.009   9.517  0.4358  0.6397 -0.4759
   67CHL1  H16A 7386   4.711   5.048   9.450 -1.4392 -0.4905 -3.5969
   67CHL1  H16B 7387   4.596   4.911   9.477 -0.9794  0.7059  0.5561
   67CHL1   C17 7388   4.503   5.109   9.501 -0.2572  0.1315 -0.7266
   67CHL1   H17 7389   4.410   5.050   9.521  0.7180 -1.3997 -0.5611
   67CHL1   C13 7390   4.520   5.215   9.614  0.1104  0.3561  0.5950
   67CHL1   C18 7391   4.634   5.309   9.593  0.0755 -0.2661  0.1280
   67CHL1  H18A 7392   4.603   5.380   9.513 -0.2059  0.5113  0.9199
   67CHL1  H18B 7393   4.669   5.369   9.679 -0.8633 -2.1061  1.8990
   67CHL1  H18C 7394   4.729   5.265   9.555 -1.8029 -1.5763 -3.6643
   67CHL1   C12 7395   4.392   5.285   9.665 -0.0319 -0.6982  0.6209
   67CHL1  H12A 7396   4.360   5.362   9.592  1.9432  1.0071  1.4555
   67CHL1  H12B 7397   4.313   5.209   9.685  0.2912 -1.0761  0.4787
   67CHL1   C11 7398   4.427   5.348   9.796 -0.1613  0.2060 -0.3798
   67CHL1  H11A 7399   4.500   5.431   9.787  0.9223 -0.2210  3.0600
   67CHL1  H11B 7400   4.334   5.395   9.835 -0.2534 -0.2971  0.0131
   67CHL1    C9 7401   4.478   5.251   9.908 -1.0803 -0.0206  0.2754
   67CHL1    H9 7402   4.403   5.170   9.921 -0.6648 -0.1466  2.2148
   67CHL1   C10 7403   4.496   5.310  10.053 -0.0963 -0.2997  0.4090
   67CHL1   C19 7404   4.595   5.434  10.050 -0.0506 -0.2225  0.2331
   67CHL1  H19A 7405   4.619   5.485  10.146 -0.2720 -1.3918  0.9204
   67CHL1  H19B 7406   4.684   5.394   9.997  0.1927 -1.0595  1.2496
   67CHL1  H19C 7407   4.557   5.509   9.977 -0.8690  0.0735  0.9534
   67CHL1    C1 7408   4.362   5.361  10.112 -0.2770  0.0081  0.0747
   67CHL1   H1A 7409   4.316   5.444  10.054 -0.7914  0.6158  1.3171
   67CHL1   H1B 7410   4.294   5.276  10.090  1.2718 -1.1372 -0.4418
   67CHL1    C2 7411   4.366   5.377  10.265  0.4252 -0.9758  0.2039
   67CHL1   H2A 7412   4.265   5.404  10.305  1.0749 -0.1578  1.3694
   67CHL1   H2B 7413   4.431   5.463  10.291 -1.6462  0.3893  1.1539
   67CHL1   C20 7414   4.502   5.170   9.351  0.2238  0.8552  0.2616
   67CHL1   H20 7415   4.598   5.212   9.315 -1.0914  3.4416 -0.4564
   67CHL1   C21 7416   4.388   5.273   9.331 -0.1896 -0.0608  0.0329
   67CHL1  H21A 7417   4.426   5.359   9.390  0.6079 -1.0169  0.9324
   67CHL1  H21B 7418   4.290   5.239   9.369 -0.7861 -0.0552 -1.4347
   67CHL1  H21C 7419   4.377   5.315   9.228  0.3655  0.5978  0.2346
   67CHL1   C22 7420   4.466   5.049   9.253 -0.1441  0.3999  0.5443
   67CHL1  H22A 7421   4.488   4.954   9.306 -0.7787 -1.6431 -2.6037
   67CHL1  H22B 7422   4.356   5.058   9.241  0.0025  2.6462  0.5009
   67CHL1   C23 7423   4.518   5.067   9.106 -0.0188 -0.6550 -1.0160
   67CHL1  H23A 7424   4.496   5.170   9.071  1.6091 -0.7101 -2.3789
   67CHL1  H23B 7425   4.629   5.063   9.104 -0.0064 -0.2822 -1.1387
   67CHL1   C24 7426   4.469   4.957   9.015  0.4720  0.0440  0.5299
   67CHL1  H24A 7427   4.517   4.861   9.045 -1.6142 -1.1247  0.3276
   67CHL1  H24B 7428   4.358   4.956   9.028 -0.1624 -0.5592 -3.6315
   67CHL1   C25 7429   4.510   4.993   8.866 -0.5052  0.3328  0.2206
   67CHL1   H25 7430   4.619   5.011   8.863 -0.6705  1.2291 -2.9914
   67CHL1   C26 7431   4.485   4.871   8.776  0.8089 -0.4226  0.2390
   67CHL1  H26A 7432   4.449   4.920   8.682 -0.6742 -1.0004  0.4743
   67CHL1  H26B 7433   4.574   4.809   8.753  2.7933  2.5663 -0.7411
   67CHL1  H26C 7434   4.400   4.810   8.813  0.5904 -0.6059 -0.5423
   67CHL1   C27 7435   4.437   5.108   8.809  0.4940 -0.4380 -0.1624
   67CHL1  H27A 7436   4.458   5.141   8.705 -2.5477  0.2697 -0.6626
   67CHL1  H27B 7437   4.329   5.083   8.813  0.5081 -0.3876  0.7526
   67CHL1  H27C 7438   4.462   5.200   8.866 -0.6739  0.4084 -0.9625
   68CHL1    C3 7439   0.659   2.157  10.536  0.1612 -0.4261 -0.4435
   68CHL1    H3 7440   0.629   2.264  10.529  3.2104  0.5239 -0.4146
   68CHL1    O3 7441   0.679   2.119  10.670 -0.0463  1.0015 -0.2682
   68CHL1   H3' 7442   0.753   2.165  10.710  0.9072 -1.1568  0.6012
   68CHL1    C4 7443   0.549   2.071  10.486  0.3325  0.8379  0.0029
   68CHL1   H4A 7444   0.584   1.966  10.492  0.6980  0.8403 -1.6034
   68CHL1   H4B 7445   0.455   2.089  10.541 -0.5786 -1.4999 -0.6750
   68CHL1    C5 7446   0.527   2.089  10.333  0.5277  0.3117 -0.0230
   68CHL1    C6 7447   0.399   2.110  10.294 -0.7985  0.9590  0.6231
   68CHL1    H6 7448   0.319   2.116  10.369 -1.1107  1.9902  0.2207
   68CHL1    C7 7449   0.370   2.136  10.146 -0.6609  0.0850 -0.0430
   68CHL1   H7A 7450   0.290   2.068  10.110 -0.2430 -0.8853  0.7801
   68CHL1   H7B 7451   0.341   2.242  10.136  1.1747  0.6704  0.4428
   68CHL1    C8 7452   0.485   2.099  10.049  0.8249 -0.1599  0.1029
   68CHL1    H8 7453   0.488   1.989  10.041 -1.1478 -0.2507  0.1843
   68CHL1   C14 7454   0.467   2.168   9.911  0.1236  0.6765  0.2323
   68CHL1   H14 7455   0.467   2.276   9.934 -2.9551  0.5605  1.2765
   68CHL1   C15 7456   0.342   2.120   9.832 -0.0588 -0.1349  0.5203
   68CHL1  H15A 7457   0.324   2.014   9.861  2.1348 -0.0913  2.3015
   68CHL1  H15B 7458   0.249   2.175   9.856 -0.3370  1.0513 -2.7007
   68CHL1   C16 7459   0.371   2.141   9.686  0.7065 -0.0131  0.1106
   68CHL1  H16A 7460   0.377   2.039   9.641  1.4609  1.2659 -2.9446
   68CHL1  H16B 7461   0.296   2.207   9.638  1.2302  0.0465 -0.6401
   68CHL1   C17 7462   0.510   2.206   9.686  0.2650 -1.1253  0.8849
   68CHL1   H17 7463   0.496   2.315   9.700  1.8815 -0.7907  0.1246
   68CHL1   C13 7464   0.576   2.148   9.808  0.2813 -0.8800 -0.0328
   68CHL1   C18 7465   0.610   1.992   9.785 -0.0182  0.0745  0.1130
   68CHL1  H18A 7466   0.531   1.943   9.725 -0.3938  0.2100  0.4881
   68CHL1  H18B 7467   0.702   1.989   9.722 -0.6609  0.1594 -0.8492
   68CHL1  H18C 7468   0.621   1.943   9.884 -1.7170  0.9245  0.7633
   68CHL1   C12 7469   0.705   2.210   9.869  0.4882 -0.3062 -0.0471
   68CHL1  H12A 7470   0.797   2.213   9.807  0.8069 -1.7930  0.3351
   68CHL1  H12B 7471   0.692   2.318   9.893  1.8730  0.1437 -1.1832
   68CHL1   C11 7472   0.741   2.149  10.006  0.4052 -0.4507 -0.2277
   68CHL1  H11A 7473   0.774   2.044   9.991 -0.6967 -1.3273  2.7243
   68CHL1  H11B 7474   0.821   2.219  10.039  0.3655  0.0682 -1.1992
   68CHL1    C9 7475   0.617   2.154  10.105 -0.9763  0.1916  0.0718
   68CHL1    H9 7476   0.609   2.264  10.115  3.1603  0.7163 -0.6451
   68CHL1   C10 7477   0.651   2.092  10.239  0.4145  0.1006 -0.8836
   68CHL1   C19 7478   0.689   1.938  10.220 -0.4818  0.3802 -0.7987
   68CHL1  H19A 7479   0.610   1.887  10.161 -0.9647  1.2508 -0.9231
   68CHL1  H19B 7480   0.781   1.923  10.160  0.9602  0.7095  1.2283
   68CHL1  H19C 7481   0.703   1.887  10.317 -2.3317  1.7847  0.2804
   68CHL1    C1 7482   0.767   2.163  10.308 -0.1054  0.2686  0.4264
   68CHL1   H1A 7483   0.862   2.144  10.253 -0.7588 -2.7750  0.1746
   68CHL1   H1B 7484   0.752   2.273  10.305  0.3931  0.3161 -1.1970
   68CHL1    C2 7485   0.784   2.132  10.458  0.1087  0.5819  0.4836
   68CHL1   H2A 7486   0.866   2.196  10.497  0.5541  2.8013 -3.6258
   68CHL1   H2B 7487   0.823   2.029  10.474  0.4869  0.4149 -1.3815
   68CHL1   C20 7488   0.596   2.187   9.557  0.6356  0.4660  0.7248
   68CHL1   H20 7489   0.663   2.099   9.563  1.3067  0.9860  0.9376
   68CHL1   C21 7490   0.682   2.316   9.541  0.5044 -0.7938 -0.1402
   68CHL1  H21A 7491   0.611   2.398   9.512  0.6192 -0.7960 -0.4273
   68CHL1  H21B 7492   0.742   2.316   9.448  1.0925  0.2158  0.2236
   68CHL1  H21C 7493   0.737   2.347   9.632 -0.7657  1.0665  0.0667
   68CHL1   C22 7494   0.520   2.158   9.427  0.5275 -0.2646  0.3982
   68CHL1  H22A 7495   0.447   2.076   9.442  1.3901 -0.7596  2.2442
   68CHL1  H22B 7496   0.474   2.257   9.406  0.4235 -0.5461 -0.7380
   68CHL1   C23 7497   0.603   2.107   9.310  0.6180 -0.6469 -0.5366
   68CHL1  H23A 7498   0.651   2.202   9.279  0.8148 -0.7697 -0.6071
   68CHL1  H23B 7499   0.674   2.031   9.349  2.5909  1.0968 -0.5479
   68CHL1   C24 7500   0.522   2.055   9.191 -0.3353  0.0164  0.0327
   68CHL1  H24A 7501   0.458   1.976   9.236 -1.5315  1.6489  1.3286
   68CHL1  H24B 7502   0.446   2.131   9.164  0.0554  0.4827  0.2316
   68CHL1   C25 7503   0.600   1.997   9.071  0.8131 -0.1278 -0.1802
   68CHL1   H25 7504   0.669   2.072   9.026  1.3782 -0.3534  0.3075
   68CHL1   C26 7505   0.682   1.876   9.118  0.2084 -0.3830  1.0229
   68CHL1  H26A 7506   0.753   1.892   9.203 -0.8685 -0.0725  1.8926
   68CHL1  H26B 7507   0.613   1.793   9.144 -2.4325  1.8082  1.4468
   68CHL1  H26C 7508   0.740   1.840   9.031  1.4088  1.9886  0.7396
   68CHL1   C27 7509   0.502   1.957   8.955 -0.2265  0.9175  0.5176
   68CHL1  H27A 7510   0.425   1.882   8.985  1.1221 -1.7741 -2.3292
   68CHL1  H27B 7511   0.452   2.047   8.912 -0.1377  1.5400  1.6794
   68CHL1  H27C 7512   0.555   1.915   8.868  0.4955  1.6328  0.5952
   69CHL1    C3 7513   6.320   4.255   7.109 -0.4306 -0.5980 -0.1605
   69CHL1    H3 7514   6.410   4.238   7.172 -1.4797 -1.9814  1.0586
   69CHL1    O3 7515   6.344   4.202   6.979  0.3244  0.4024  0.2927
   69CHL1   H3' 7516   6.258   4.199   6.936 -0.3324 -3.1002  1.5575
   69CHL1    C4 7517   6.211   4.169   7.172 -0.1715 -0.0391  0.3068
   69CHL1   H4A 7518   6.110   4.176   7.126  0.0746 -0.3764 -0.2965
   69CHL1   H4B 7519   6.245   4.064   7.157 -0.4590  0.1587 -2.3306
   69CHL1    C5 7520   6.188   4.208   7.320 -0.6294  0.7259  0.0672
   69CHL1    C6 7521   6.216   4.118   7.421  0.1614 -0.3622  0.4823
   69CHL1    H6 7522   6.242   4.016   7.391 -0.3628 -0.3397 -0.0686
   69CHL1    C7 7523   6.212   4.148   7.565  0.2241  0.1818  0.0695
   69CHL1   H7A 7524   6.160   4.058   7.604  0.1041 -0.1621 -0.8605
   69CHL1   H7B 7525   6.313   4.139   7.612  0.4113 -1.9054 -0.6137
   69CHL1    C8 7526   6.139   4.282   7.592  0.2533  0.3700 -0.4147
   69CHL1    H8 7527   6.032   4.263   7.572  0.2418  0.4281 -0.4082
   69CHL1   C14 7528   6.154   4.324   7.739  0.4841 -0.0707  0.6205
   69CHL1   H14 7529   6.264   4.321   7.751  0.8362 -1.9641 -2.1636
   69CHL1   C15 7530   6.106   4.228   7.848 -0.3914 -0.1285  0.0213
   69CHL1  H15A 7531   6.009   4.181   7.822 -0.9402  1.6112 -1.1921
   69CHL1  H15B 7532   6.184   4.150   7.861  1.6102  1.7252 -0.3918
   69CHL1   C16 7533   6.110   4.319   7.974  0.0521 -0.2511  0.2010
   69CHL1  H16A 7534   6.008   4.315   8.018  0.1823 -1.3434  0.4353
   69CHL1  H16B 7535   6.186   4.276   8.043  0.0178  0.3204  0.6029
   69CHL1   C17 7536   6.144   4.470   7.926 -0.4717 -0.5027  0.4504
   69CHL1   H17 7537   6.253   4.479   7.942 -0.8463  4.5670  1.6692
   69CHL1   C13 7538   6.117   4.465   7.773 -0.0321 -0.3936 -0.1484
   69CHL1   C18 7539   5.960   4.468   7.769  0.4381 -0.2114 -0.5706
   69CHL1  H18A 7540   5.910   4.408   7.849  1.9218 -0.2080  0.4084
   69CHL1  H18B 7541   5.928   4.573   7.784  2.1017  0.0651  1.6109
   69CHL1  H18C 7542   5.917   4.444   7.670 -1.1962  2.8104 -0.6977
   69CHL1   C12 7543   6.195   4.572   7.685 -0.2283 -0.1153  0.4227
   69CHL1  H12A 7544   6.152   4.673   7.697 -2.1649 -0.4726 -2.4408
   69CHL1  H12B 7545   6.304   4.567   7.706 -0.5952 -0.6513  2.3470
   69CHL1   C11 7546   6.177   4.536   7.532  0.2482  0.0471  0.3450
   69CHL1  H11A 7547   6.081   4.577   7.493  1.2534  1.6775 -0.5170
   69CHL1  H11B 7548   6.240   4.603   7.470 -1.6224  1.1134 -0.4964
   69CHL1    C9 7549   6.193   4.390   7.497 -0.2566  0.6266  0.5738
   69CHL1    H9 7550   6.303   4.390   7.516 -0.2068  0.9741  0.3045
   69CHL1   C10 7551   6.165   4.358   7.344  0.0336 -0.3822 -0.4065
   69CHL1   C19 7552   6.021   4.383   7.297 -0.2997 -0.2121  0.3529
   69CHL1  H19A 7553   5.994   4.324   7.207 -1.0535  0.7998 -0.0931
   69CHL1  H19B 7554   5.940   4.355   7.369  0.1076 -1.4318  0.3623
   69CHL1  H19C 7555   5.998   4.488   7.273 -1.9562 -0.2565  1.5601
   69CHL1    C1 7556   6.265   4.442   7.257  0.4483  0.0447 -0.5533
   69CHL1   H1A 7557   6.243   4.551   7.257  1.2227  0.2196 -1.5508
   69CHL1   H1B 7558   6.365   4.429   7.303 -0.0835 -0.4214  0.4855
   69CHL1    C2 7559   6.285   4.401   7.108 -0.0185  0.0638 -0.6997
   69CHL1   H2A 7560   6.377   4.449   7.067  1.0222 -1.6978 -0.5620
   69CHL1   H2B 7561   6.194   4.413   7.045  0.0370 -0.3418 -0.8623
   69CHL1   C20 7562   6.085   4.573   8.020  0.7351 -0.6799  0.2815
   69CHL1   H20 7563   5.974   4.572   8.015  0.7565  0.1610 -0.6530
   69CHL1   C21 7564   6.122   4.715   7.967 -0.3619 -0.0010 -0.0343
   69CHL1  H21A 7565   6.229   4.716   7.936  0.0450 -0.1279  1.2987
   69CHL1  H21B 7566   6.100   4.807   8.023 -0.2317  1.2371 -1.9161
   69CHL1  H21C 7567   6.057   4.731   7.879 -0.7551  1.0814  0.4451
   69CHL1   C22 7568   6.123   4.557   8.173  0.0677 -0.2140  0.7012
   69CHL1  H22A 7569   6.084   4.462   8.214  0.8328 -0.6410  0.4491
   69CHL1  H22B 7570   6.234   4.562   8.170  0.2022  4.0950  3.5247
   69CHL1   C23 7571   6.053   4.664   8.263 -0.2003  0.2996 -0.5038
   69CHL1  H23A 7572   6.096   4.765   8.247  0.5336 -0.1495 -1.5067
   69CHL1  H23B 7573   5.945   4.669   8.238 -0.0359 -1.5141 -1.8268
   69CHL1   C24 7574   6.058   4.615   8.411  0.6510  0.4143 -0.7976
   69CHL1  H24A 7575   6.041   4.505   8.408  5.2588 -0.4650 -0.5996
   69CHL1  H24B 7576   6.161   4.627   8.450 -0.4973 -1.4370  3.3954
   69CHL1   C25 7577   5.968   4.692   8.509 -0.7508  0.5244  0.3183
   69CHL1   H25 7578   5.979   4.799   8.482 -2.5307  1.2909  2.3084
   69CHL1   C26 7579   5.819   4.647   8.484 -0.6625  0.2960  0.4105
   69CHL1  H26A 7580   5.802   4.671   8.377  3.8763  2.8854 -0.0016
   69CHL1  H26B 7581   5.791   4.540   8.493 -2.4094  0.3494 -2.8890
   69CHL1  H26C 7582   5.754   4.703   8.555 -0.7691 -0.7847  1.1950
   69CHL1   C27 7583   5.998   4.690   8.659  0.6502 -0.1914  0.3449
   69CHL1  H27A 7584   6.104   4.716   8.680  0.7339 -0.1815 -0.0895
   69CHL1  H27B 7585   5.937   4.767   8.712  2.8877  1.3520  0.8037
   69CHL1  H27C 7586   5.978   4.596   8.715 -0.6602 -0.6658 -0.8502
   70CHL1    C3 7587   0.965   0.601   7.124 -0.3439  0.1407  0.2529
   70CHL1    H3 7588   0.857   0.582   7.143 -0.5350 -0.9884 -1.6779
   70CHL1    O3 7589   1.011   0.554   6.997  0.0611 -0.2116 -0.6173
   70CHL1   H3' 7590   1.055   0.470   7.013 -0.7722 -0.8907 -1.7160
   70CHL1    C4 7591   0.989   0.750   7.140  0.0669 -0.3220  0.0799
   70CHL1   H4A 7592   1.090   0.787   7.113 -0.1566  1.4929  1.4994
   70CHL1   H4B 7593   0.923   0.800   7.066 -0.3699 -3.5415 -1.8684
   70CHL1    C5 7594   0.963   0.813   7.279  0.1630 -0.2766  0.2049
   70CHL1    C6 7595   0.881   0.917   7.299 -0.0832  0.4169 -0.0230
   70CHL1    H6 7596   0.840   0.964   7.208  1.0106 -1.0910 -1.3277
   70CHL1    C7 7597   0.853   0.981   7.429  0.6820  0.7763  0.3751
   70CHL1   H7A 7598   0.854   1.091   7.421  1.3350  0.7183 -0.5715
   70CHL1   H7B 7599   0.745   0.962   7.449  0.1030  1.6022 -1.7353
   70CHL1    C8 7600   0.944   0.929   7.538 -0.3299 -0.5942  0.2224
   70CHL1    H8 7601   1.030   0.997   7.523  0.0233 -1.1076 -0.1113
   70CHL1   C14 7602   0.874   0.956   7.672 -0.1041 -0.0991 -0.5317
   70CHL1   H14 7603   0.786   0.889   7.677 -1.1604  1.2981  0.6844
   70CHL1   C15 7604   0.810   1.087   7.705 -0.3050  0.0430 -0.3546
   70CHL1  H15A 7605   0.874   1.164   7.657 -0.3296  0.2200 -0.1044
   70CHL1  H15B 7606   0.711   1.096   7.656 -0.6746  0.3164  0.4334
   70CHL1   C16 7607   0.810   1.109   7.858 -0.1000 -0.0656 -0.0659
   70CHL1  H16A 7608   0.878   1.195   7.879  0.6917 -0.4360 -1.0247
   70CHL1  H16B 7609   0.710   1.142   7.891  0.3655  3.0765 -1.4111
   70CHL1   C17 7610   0.880   0.980   7.914 -0.3417  0.1005 -0.4744
   70CHL1   H17 7611   0.793   0.911   7.922  0.0920 -0.4878 -0.7309
   70CHL1   C13 7612   0.967   0.919   7.793 -0.0722 -0.5773  0.5690
   70CHL1   C18 7613   1.095   1.003   7.784 -0.2080  0.0618 -0.1166
   70CHL1  H18A 7614   1.165   0.987   7.869 -0.1088 -0.0523 -0.2214
   70CHL1  H18B 7615   1.155   0.966   7.698  1.9324 -1.3464  1.8557
   70CHL1  H18C 7616   1.067   1.110   7.767 -2.3030 -0.4454 -0.1672
   70CHL1   C12 7617   0.985   0.770   7.796 -0.0046  0.2590  0.0516
   70CHL1  H12A 7618   1.056   0.730   7.872  1.3007 -0.0101 -1.2587
   70CHL1  H12B 7619   0.890   0.713   7.798  0.6881 -0.9336  0.2796
   70CHL1   C11 7620   1.039   0.726   7.652  0.2723 -0.3141  0.1543
   70CHL1  H11A 7621   1.146   0.757   7.661  0.5207 -1.2764  0.6432
   70CHL1  H11B 7622   1.041   0.616   7.639  0.3458 -0.4408  1.1407
   70CHL1    C9 7623   0.971   0.782   7.528 -0.4225  0.4390  0.8776
   70CHL1    H9 7624   0.869   0.739   7.536  0.0231 -0.5499  1.4972
   70CHL1   C10 7625   1.032   0.745   7.393 -0.0530 -0.1372 -0.5020
   70CHL1   C19 7626   1.176   0.790   7.392 -0.2460 -0.2390 -0.6140
   70CHL1  H19A 7627   1.230   0.725   7.464 -1.7319  0.1684  0.9419
   70CHL1  H19B 7628   1.219   0.775   7.291 -2.1511 -1.6325 -1.2683
   70CHL1  H19C 7629   1.192   0.898   7.413 -1.2075 -0.4483  1.4707
   70CHL1    C1 7630   1.019   0.587   7.374  0.4157 -0.3802 -0.0374
   70CHL1   H1A 7631   1.072   0.523   7.447  0.7327 -0.6240 -0.4711
   70CHL1   H1B 7632   0.914   0.556   7.390  0.3869  0.3211  1.1951
   70CHL1    C2 7633   1.045   0.538   7.235 -0.1297  0.5472 -0.4873
   70CHL1   H2A 7634   1.018   0.433   7.212 -1.4605  0.7292  0.1125
   70CHL1   H2B 7635   1.153   0.558   7.217 -0.4375  1.1469 -1.7661
   70CHL1   C20 7636   0.947   0.997   8.050  0.7141 -0.0783  0.4978
   70CHL1   H20 7637   1.028   1.071   8.033 -0.6855  0.9566 -2.3619
   70CHL1   C21 7638   0.979   0.857   8.111  0.3174  0.1229 -0.0679
   70CHL1  H21A 7639   0.887   0.797   8.129  0.9561 -0.5824  0.9472
   70CHL1  H21B 7640   1.039   0.866   8.204 -1.9228 -1.5545  1.6547
   70CHL1  H21C 7641   1.053   0.807   8.046  0.3299  0.0014  0.0406
   70CHL1   C22 7642   0.848   1.069   8.147 -0.7562  0.4156  0.3842
   70CHL1  H22A 7643   0.829   1.171   8.109 -0.1061  0.6179  0.5991
   70CHL1  H22B 7644   0.750   1.016   8.144 -0.0515 -0.9849  0.8739
   70CHL1   C23 7645   0.893   1.109   8.284 -0.8640  0.5320 -0.3606
   70CHL1  H23A 7646   0.937   1.019   8.333 -0.7018 -0.9983 -3.1401
   70CHL1  H23B 7647   0.972   1.185   8.267  0.3148 -0.8185 -1.0932
   70CHL1   C24 7648   0.781   1.169   8.375  0.4852  0.7573  0.3536
   70CHL1  H24A 7649   0.761   1.274   8.345  0.3420  0.7180  0.3128
   70CHL1  H24B 7650   0.687   1.110   8.377  2.0034 -1.8843  2.6539
   70CHL1   C25 7651   0.817   1.192   8.526  0.4692  0.5422 -0.6589
   70CHL1   H25 7652   0.842   1.095   8.575  0.1657 -0.0226 -1.5999
   70CHL1   C26 7653   0.939   1.285   8.549  1.0264  1.0659 -0.5595
   70CHL1  H26A 7654   0.925   1.393   8.529  0.6282  1.3813  1.2565
   70CHL1  H26B 7655   0.975   1.279   8.653 -1.7572  0.2748  0.4515
   70CHL1  H26C 7656   1.030   1.238   8.506  0.8490  0.6159 -0.4527
   70CHL1   C27 7657   0.693   1.238   8.596 -0.2020 -0.4477 -0.2411
   70CHL1  H27A 7658   0.699   1.230   8.707  1.9657 -0.6869 -0.3322
   70CHL1  H27B 7659   0.687   1.348   8.581 -1.4077 -0.7288 -2.1423
   70CHL1  H27C 7660   0.601   1.186   8.563 -0.0172 -1.2114  0.4044
   71CHL1    C3 7661   0.810   4.618   6.892  0.4357 -0.4496  0.2885
   71CHL1    H3 7662   0.895   4.549   6.912 -0.9821 -1.5668  2.9728
   71CHL1    O3 7663   0.805   4.623   6.750 -0.4492  0.5918  0.4355
   71CHL1   H3' 7664   0.755   4.704   6.740  0.2102  0.9766  0.1807
   71CHL1    C4 7665   0.675   4.553   6.946 -0.2969  0.0548 -1.4710
   71CHL1   H4A 7666   0.599   4.617   6.896 -0.3478  0.9102 -0.3256
   71CHL1   H4B 7667   0.672   4.449   6.907 -0.2379  0.1970 -1.8575
   71CHL1    C5 7668   0.664   4.552   7.100 -0.6117 -0.8275 -0.1723
   71CHL1    C6 7669   0.660   4.439   7.159  0.8465 -0.1272 -0.2984
   71CHL1    H6 7670   0.661   4.346   7.101  1.2908 -0.0145 -0.4729
   71CHL1    C7 7671   0.629   4.422   7.305 -0.2227 -0.5258  0.0377
   71CHL1   H7A 7672   0.544   4.353   7.323 -1.1959  1.0272  1.6787
   71CHL1   H7B 7673   0.720   4.374   7.348  0.1624 -0.4782 -0.7184
   71CHL1    C8 7674   0.592   4.560   7.373 -0.2863  1.1188 -0.0286
   71CHL1    H8 7675   0.488   4.588   7.343 -0.3945 -1.7557 -2.8273
   71CHL1   C14 7676   0.605   4.548   7.521 -0.2091 -0.3786  0.1868
   71CHL1   H14 7677   0.714   4.534   7.537 -0.1473 -0.6443 -0.4345
   71CHL1   C15 7678   0.543   4.428   7.591 -0.5632 -0.2254 -0.3374
   71CHL1  H15A 7679   0.450   4.387   7.545  0.0816 -2.1034 -0.0566
   71CHL1  H15B 7680   0.624   4.352   7.584  1.2673  1.7693 -1.8666
   71CHL1   C16 7681   0.528   4.471   7.736  0.0320 -0.0591  0.7635
   71CHL1  H16A 7682   0.418   4.484   7.739 -0.1301 -1.2039 -0.0699
   71CHL1  H16B 7683   0.561   4.404   7.819  0.1655  0.9202  1.5286
   71CHL1   C17 7684   0.589   4.616   7.741 -0.3814  0.5842  0.4052
   71CHL1   H17 7685   0.698   4.599   7.746 -0.1730  1.5472 -0.4767
   71CHL1   C13 7686   0.570   4.669   7.601 -0.5962  0.4130  0.3330
   71CHL1   C18 7687   0.430   4.721   7.585  0.4222  0.5034 -0.2677
   71CHL1  H18A 7688   0.422   4.759   7.481 -0.4962 -0.6602 -0.6446
   71CHL1  H18B 7689   0.357   4.638   7.596  1.7534 -0.6076  0.4625
   71CHL1  H18C 7690   0.401   4.801   7.656 -0.7812  0.0441 -0.2238
   71CHL1   C12 7691   0.672   4.776   7.556 -0.7338  0.2385  0.4787
   71CHL1  H12A 7692   0.653   4.872   7.609  0.8155  0.8358 -0.0180
   71CHL1  H12B 7693   0.772   4.743   7.590  0.3072  1.6899 -1.0477
   71CHL1   C11 7694   0.678   4.798   7.404 -0.1681  0.1421  0.2185
   71CHL1  H11A 7695   0.587   4.852   7.369 -0.4768 -1.6384 -2.0019
   71CHL1  H11B 7696   0.768   4.859   7.384  0.0776 -0.5389 -0.8430
   71CHL1    C9 7697   0.688   4.668   7.323 -0.2080 -0.0423 -0.6509
   71CHL1    H9 7698   0.787   4.623   7.341 -0.4318  0.7632  3.8201
   71CHL1   C10 7699   0.682   4.690   7.165  0.6131  0.1566 -0.1341
   71CHL1   C19 7700   0.567   4.785   7.128 -0.2432 -0.0555 -0.0433
   71CHL1  H19A 7701   0.549   4.793   7.019 -0.6935 -0.2636  0.0138
   71CHL1  H19B 7702   0.472   4.761   7.180 -0.3578 -0.4982 -0.4549
   71CHL1  H19C 7703   0.580   4.892   7.157 -0.5148 -0.3183  1.1036
   71CHL1    C1 7704   0.815   4.742   7.110 -0.0336 -0.1663 -0.4167
   71CHL1   H1A 7705   0.839   4.835   7.166 -1.0159 -0.4822  0.5704
   71CHL1   H1B 7706   0.892   4.672   7.148 -1.8241 -1.1571  1.5878
   71CHL1    C2 7707   0.829   4.759   6.956  0.3953  0.0237  0.3001
   71CHL1   H2A 7708   0.922   4.810   6.925  1.2784 -0.3950  2.1439
   71CHL1   H2B 7709   0.749   4.828   6.920  1.9184  0.5732 -2.3303
   71CHL1   C20 7710   0.562   4.715   7.857  0.5675  0.8406 -0.0117
   71CHL1   H20 7711   0.496   4.796   7.818  1.5578  2.0958  0.8460
   71CHL1   C21 7712   0.694   4.787   7.902 -0.2287  0.6811  0.4211
   71CHL1  H21A 7713   0.673   4.878   7.962  0.7420 -0.1621  2.1093
   71CHL1  H21B 7714   0.754   4.815   7.813  0.7775 -1.6045  0.3167
   71CHL1  H21C 7715   0.762   4.721   7.960  2.7310  1.9976 -1.3294
   71CHL1   C22 7716   0.503   4.647   7.982  0.0412 -0.1151 -0.8718
   71CHL1  H22A 7717   0.535   4.541   7.991 -2.1860 -0.7353  0.5024
   71CHL1  H22B 7718   0.524   4.698   8.079 -1.1041  1.3883 -1.3611
   71CHL1   C23 7719   0.348   4.639   7.965 -0.1019 -0.6310  0.2659
   71CHL1  H23A 7720   0.315   4.734   7.918  0.1029 -0.6349  0.1123
   71CHL1  H23B 7721   0.324   4.560   7.892  1.5246 -0.9143 -0.0045
   71CHL1   C24 7722   0.270   4.621   8.097  0.0360 -0.8534  0.0401
   71CHL1  H24A 7723   0.317   4.527   8.131  1.1417 -0.6916 -0.9634
   71CHL1  H24B 7724   0.283   4.710   8.163 -2.0063  0.1339 -0.8047
   71CHL1   C25 7725   0.118   4.619   8.084  0.2433 -0.0330 -0.0243
   71CHL1   H25 7726   0.094   4.717   8.037 -0.1987 -0.4501 -0.6879
   71CHL1   C26 7727   0.071   4.504   7.994 -0.2094  0.0122 -0.5333
   71CHL1  H26A 7728  -0.037   4.517   7.970 -0.2616 -0.1297 -0.3834
   71CHL1  H26B 7729   0.127   4.495   7.898 -2.4885 -1.6253 -1.8238
   71CHL1  H26C 7730   0.079   4.399   8.029  1.6547  0.1227 -0.5562
   71CHL1   C27 7731   0.051   4.604   8.224 -0.1161 -0.1574 -0.0378
   71CHL1  H27A 7732  -0.058   4.625   8.222 -0.0936 -0.0440 -0.1025
   71CHL1  H27B 7733   0.063   4.503   8.267 -1.6205 -0.2660  0.1616
   71CHL1  H27C 7734   0.099   4.678   8.293 -0.6448  1.5889 -1.4566
   72CHL1    C3 7735   0.879   1.662   7.327 -0.0801 -0.1251  0.0805
   72CHL1    H3 7736   0.942   1.748   7.358 -1.4154  1.0075 -0.2041
   72CHL1    O3 7737   0.901   1.661   7.186  0.2096 -0.2533 -0.1853
   72CHL1   H3' 7738   0.821   1.705   7.157  2.3879  3.3754 -1.3089
   72CHL1    C4 7739   0.947   1.542   7.400 -0.0031 -0.3576  0.8208
   72CHL1   H4A 7740   0.904   1.446   7.363  0.8156 -1.1180  1.7779
   72CHL1   H4B 7741   1.053   1.549   7.368 -0.3308  1.3094  0.0310
   72CHL1    C5 7742   0.925   1.549   7.546 -0.0288 -0.1457  0.3100
   72CHL1    C6 7743   1.029   1.532   7.631  0.5621  0.3008 -0.3954
   72CHL1    H6 7744   1.133   1.511   7.604  0.1901 -0.9303 -0.9173
   72CHL1    C7 7745   1.015   1.544   7.779  0.1938 -0.3824 -0.5899
   72CHL1   H7A 7746   1.058   1.452   7.824 -2.4916 -0.6851  1.6395
   72CHL1   H7B 7747   1.071   1.632   7.817 -0.2763 -1.4280  2.7966
   72CHL1    C8 7748   0.863   1.546   7.825 -0.1107  0.1247  0.1042
   72CHL1    H8 7749   0.828   1.441   7.831 -0.2084  0.1857  0.5916
   72CHL1   C14 7750   0.851   1.592   7.972 -0.6866 -0.1076 -0.2180
   72CHL1   H14 7751   0.854   1.703   7.971 -2.2473 -0.0427 -1.6944
   72CHL1   C15 7752   0.965   1.546   8.067  0.1872 -0.2382 -0.3508
   72CHL1  H15A 7753   0.982   1.437   8.048  0.8566  0.2810 -3.2580
   72CHL1  H15B 7754   1.063   1.596   8.056 -0.4396  1.0869 -0.0665
   72CHL1   C16 7755   0.902   1.569   8.205  0.2711  0.0399 -0.6818
   72CHL1  H16A 7756   0.898   1.475   8.266  0.8489 -1.0958 -2.3365
   72CHL1  H16B 7757   0.952   1.651   8.261 -0.3348  0.8405 -1.2874
   72CHL1   C17 7758   0.758   1.624   8.179  0.3617 -0.1228  0.8565
   72CHL1   H17 7759   0.770   1.735   8.174 -0.1184  0.0219  2.4318
   72CHL1   C13 7760   0.718   1.576   8.035  0.0667  0.2606 -1.2448
   72CHL1   C18 7761   0.672   1.425   8.054 -0.5708  0.0291 -1.1770
   72CHL1  H18A 7762   0.737   1.354   8.110 -2.6551 -0.6771  0.4536
   72CHL1  H18B 7763   0.568   1.419   8.091 -1.3137 -0.3605 -3.1721
   72CHL1  H18C 7764   0.655   1.372   7.958 -1.5975 -0.5020 -0.7084
   72CHL1   C12 7765   0.613   1.647   7.956  0.4941  0.2062  0.5036
   72CHL1  H12A 7766   0.508   1.616   7.979  0.0603  0.9987 -0.3363
   72CHL1  H12B 7767   0.619   1.754   7.983 -1.0626  0.1694  1.1142
   72CHL1   C11 7768   0.627   1.616   7.799  0.3994 -0.5436 -0.3099
   72CHL1  H11A 7769   0.606   1.507   7.789  1.1466 -0.6616 -0.6616
   72CHL1  H11B 7770   0.556   1.680   7.743  1.2576 -0.0507 -0.8623
   72CHL1    C9 7771   0.769   1.637   7.739 -0.1524  0.2584  0.1094
   72CHL1    H9 7772   0.781   1.746   7.755  0.9519  0.1402  0.1806
   72CHL1   C10 7773   0.781   1.596   7.591  0.8713  0.0761  0.3902
   72CHL1   C19 7774   0.703   1.461   7.561  0.2975 -0.3038 -0.3247
   72CHL1  H19A 7775   0.595   1.490   7.565  0.5345  0.9757 -1.8068
   72CHL1  H19B 7776   0.726   1.424   7.459 -0.3262 -0.5489 -0.3839
   72CHL1  H19C 7777   0.732   1.380   7.631  0.1633 -1.8140 -1.9407
   72CHL1    C1 7778   0.713   1.709   7.515 -0.0730  0.7078  0.5457
   72CHL1   H1A 7779   0.605   1.715   7.541  0.3395  1.9611  2.0925
   72CHL1   H1B 7780   0.760   1.807   7.537  2.1608 -0.2865  0.5594
   72CHL1    C2 7781   0.730   1.682   7.360  0.0190 -0.7010 -0.3865
   72CHL1   H2A 7782   0.689   1.773   7.312  0.4785 -0.2020  0.1461
   72CHL1   H2B 7783   0.686   1.587   7.324  0.6854 -0.4632 -1.9083
   72CHL1   C20 7784   0.656   1.600   8.290 -0.4976  0.1833  0.1123
   72CHL1   H20 7785   0.633   1.492   8.286 -0.2568  0.1411 -3.8155
   72CHL1   C21 7786   0.524   1.685   8.268 -0.2794  0.6401  0.0739
   72CHL1  H21A 7787   0.489   1.741   8.358 -3.6836  0.2495 -0.8770
   72CHL1  H21B 7788   0.443   1.615   8.238 -0.8158  0.5559  1.6095
   72CHL1  H21C 7789   0.539   1.762   8.190 -1.0207  0.3311 -0.3786
   72CHL1   C22 7790   0.718   1.634   8.426  0.2693 -0.1309  0.3917
   72CHL1  H22A 7791   0.641   1.618   8.505  0.0332 -0.1923  0.1480
   72CHL1  H22B 7792   0.803   1.564   8.446  1.0654  0.5325 -0.5484
   72CHL1   C23 7793   0.763   1.783   8.442 -0.0877 -0.0630  0.8058
   72CHL1  H23A 7794   0.837   1.805   8.362 -1.9072 -0.4569 -1.0584
   72CHL1  H23B 7795   0.676   1.847   8.418  1.8300  2.3734 -0.0974
   72CHL1   C24 7796   0.831   1.790   8.575  0.0085 -0.0897  0.2986
   72CHL1  H24A 7797   0.756   1.752   8.648 -1.2229  1.6302 -0.0012
   72CHL1  H24B 7798   0.917   1.720   8.572 -0.0864 -0.1789 -0.4521
   72CHL1   C25 7799   0.863   1.925   8.633 -0.2479  0.6573 -0.5748
   72CHL1   H25 7800   0.946   1.971   8.575 -0.5052  1.5857 -0.2279
   72CHL1   C26 7801   0.749   2.026   8.636  0.1917  0.8302  0.3130
   72CHL1  H26A 7802   0.731   2.060   8.531  1.0700 -1.3334 -0.6012
   72CHL1  H26B 7803   0.654   1.978   8.668  0.5376 -2.4139 -2.8792
   72CHL1  H26C 7804   0.768   2.124   8.685  1.7048  1.5833 -1.6124
   72CHL1   C27 7805   0.911   1.911   8.783  0.4224 -0.7136 -0.1300
   72CHL1  H27A 7806   0.826   1.887   8.850  2.0081  0.3886  2.4259
   72CHL1  H27B 7807   0.990   1.835   8.801  0.4923 -0.7552 -0.5792
   72CHL1  H27C 7808   0.954   2.011   8.804 -0.4806  0.0542 -1.7063
   73CHL1    C3 7809   4.969   3.885   7.337 -0.1486  0.5870 -0.2014
   73CHL1    H3 7810   4.863   3.919   7.329 -1.1054 -2.2908 -0.8648
   73CHL1    O3 7811   5.007   3.834   7.220  0.6948 -0.3003 -0.2666
   73CHL1   H3' 7812   5.014   3.739   7.233  1.3387 -0.2177  0.0309
   73CHL1    C4 7813   5.074   3.996   7.369 -0.5144 -0.5033  1.0139
   73CHL1   H4A 7814   5.178   3.957   7.366 -0.1730  0.3908 -2.1146
   73CHL1   H4B 7815   5.066   4.069   7.286  0.1993 -2.4847 -0.8987
   73CHL1    C5 7816   5.028   4.062   7.497  0.0615 -0.0321  0.6909
   73CHL1    C6 7817   4.990   4.189   7.506 -0.1457 -0.2945  0.5548
   73CHL1    H6 7818   4.997   4.252   7.415 -0.5092 -2.1567 -0.8257
   73CHL1    C7 7819   4.958   4.248   7.636 -0.1134 -0.4512 -0.4057
   73CHL1   H7A 7820   5.021   4.339   7.641  0.0426 -0.6104  0.7616
   73CHL1   H7B 7821   4.852   4.283   7.643  0.7440  1.9558  3.5828
   73CHL1    C8 7822   4.996   4.166   7.762 -0.0215  0.6755  0.4918
   73CHL1    H8 7823   5.106   4.174   7.770  0.3812 -0.3959 -2.6259
   73CHL1   C14 7824   4.933   4.231   7.885 -0.4690  0.1872  0.2531
   73CHL1   H14 7825   4.823   4.228   7.871 -0.0398 -0.8480 -4.3061
   73CHL1   C15 7826   4.971   4.375   7.920 -0.6987 -0.2632 -0.2009
   73CHL1  H15A 7827   5.081   4.385   7.904 -0.6919 -0.3714 -0.2250
   73CHL1  H15B 7828   4.914   4.452   7.864  0.6377 -0.2206 -1.5654
   73CHL1   C16 7829   4.942   4.389   8.075  0.6061 -0.3673 -0.2452
   73CHL1  H16A 7830   5.030   4.444   8.114 -0.9326  2.3636 -0.3714
   73CHL1  H16B 7831   4.859   4.463   8.084  2.4992  1.5720  3.5683
   73CHL1   C17 7832   4.918   4.245   8.122 -0.1915  0.6358  0.5466
   73CHL1   H17 7833   4.809   4.228   8.112 -0.0124 -1.1706  1.2453
   73CHL1   C13 7834   4.971   4.151   8.008 -0.0960 -0.9439 -0.8255
   73CHL1   C18 7835   5.122   4.130   8.020 -0.9736  0.9604  0.7562
   73CHL1  H18A 7836   5.140   4.065   8.108  0.3724  0.0803 -0.1415
   73CHL1  H18B 7837   5.166   4.066   7.940 -0.4167 -0.7187  2.3407
   73CHL1  H18C 7838   5.174   4.228   8.021 -1.4436  1.2705 -0.8693
   73CHL1   C12 7839   4.906   4.015   7.999  0.2085 -0.4512 -0.3326
   73CHL1  H12A 7840   4.933   3.955   8.088 -0.1270  0.1709  0.1988
   73CHL1  H12B 7841   4.796   4.023   8.012  0.0717 -3.0754  0.6948
   73CHL1   C11 7842   4.958   3.935   7.874 -0.5037 -0.5360  0.1234
   73CHL1  H11A 7843   5.058   3.890   7.891  0.1955 -0.5248 -3.2282
   73CHL1  H11B 7844   4.886   3.851   7.871 -2.4494  1.0585 -0.1320
   73CHL1    C9 7845   4.948   4.023   7.742  0.0484  0.7242 -0.3897
   73CHL1    H9 7846   4.838   4.031   7.733 -0.3335 -0.1358  2.5147
   73CHL1   C10 7847   5.019   3.962   7.622  0.8615  0.6031  0.8108
   73CHL1   C19 7848   5.164   3.917   7.659  0.1483  0.3629 -0.1646
   73CHL1  H19A 7849   5.218   3.860   7.580  0.6325 -0.8661  1.0092
   73CHL1  H19B 7850   5.223   4.004   7.696 -0.2535 -0.0274  1.4748
   73CHL1  H19C 7851   5.165   3.856   7.752  1.2894  3.2129  1.8371
   73CHL1    C1 7852   4.950   3.831   7.584  0.2637  0.6365  0.6379
   73CHL1   H1A 7853   4.967   3.751   7.660  0.6034 -1.6639 -1.7357
   73CHL1   H1B 7854   4.842   3.855   7.593 -0.3501 -1.9277  0.7936
   73CHL1    C2 7855   4.966   3.773   7.447 -0.5739  0.2414 -0.5730
   73CHL1   H2A 7856   4.879   3.708   7.424  1.1316 -3.7368  2.8909
   73CHL1   H2B 7857   5.052   3.704   7.449 -0.0794  0.8632  0.5282
   73CHL1   C20 7858   4.946   4.193   8.269  0.4351 -0.0536 -0.4504
   73CHL1   H20 7859   4.957   4.083   8.263 -4.7483 -0.8404 -0.1837
   73CHL1   C21 7860   4.821   4.225   8.348  0.5691  0.0400 -0.1708
   73CHL1  H21A 7861   4.733   4.179   8.298  1.0501 -0.6692 -0.3855
   73CHL1  H21B 7862   4.807   4.335   8.354  0.4092  0.0309 -0.3573
   73CHL1  H21C 7863   4.815   4.177   8.448  0.4165  0.6207  0.0970
   73CHL1   C22 7864   5.072   4.256   8.332  0.6631  0.0679 -0.2013
   73CHL1  H22A 7865   5.160   4.230   8.269  1.3317 -2.6038  1.6706
   73CHL1  H22B 7866   5.062   4.366   8.341  0.3314 -0.0976  1.9387
   73CHL1   C23 7867   5.104   4.197   8.472 -0.9672  0.1524 -0.2784
   73CHL1  H23A 7868   5.022   4.200   8.547 -1.0588 -2.2849 -0.1991
   73CHL1  H23B 7869   5.132   4.092   8.446  0.3482  0.4298 -0.0464
   73CHL1   C24 7870   5.222   4.260   8.549 -0.5516 -0.3121  0.3829
   73CHL1  H24A 7871   5.298   4.292   8.474  0.6330 -2.5083  0.5665
   73CHL1  H24B 7872   5.190   4.359   8.590  1.7087  0.8546 -0.4934
   73CHL1   C25 7873   5.304   4.179   8.649 -0.2124 -0.1018 -0.9856
   73CHL1   H25 7874   5.232   4.122   8.710  0.6983  1.9080  2.1979
   73CHL1   C26 7875   5.396   4.074   8.582 -0.1062 -0.5308  0.0049
   73CHL1  H26A 7876   5.442   4.009   8.659  2.3505  0.1021 -0.8510
   73CHL1  H26B 7877   5.337   4.015   8.508 -0.2178  2.8029 -2.8765
   73CHL1  H26C 7878   5.480   4.134   8.541 -0.7440  0.4080  0.0256
   73CHL1   C27 7879   5.372   4.276   8.749  0.2619 -0.0815 -0.2855
   73CHL1  H27A 7880   5.475   4.312   8.730  0.0904  1.1473  0.8898
   73CHL1  H27B 7881   5.305   4.362   8.771 -0.4398 -0.7637  0.3340
   73CHL1  H27C 7882   5.386   4.227   8.848 -0.8452 -0.4978 -0.3151
   74CHL1    C3 7883   5.295   4.726   7.126 -0.3680 -0.4123  0.3882
   74CHL1    H3 7884   5.396   4.689   7.154  0.4738 -0.7606 -2.6967
   74CHL1    O3 7885   5.291   4.701   6.987  0.2401  0.3164  0.2042
   74CHL1   H3' 7886   5.215   4.753   6.962 -0.8511 -0.4445  1.7642
   74CHL1    C4 7887   5.179   4.658   7.204  0.2900  0.3343 -0.5554
   74CHL1   H4A 7888   5.080   4.684   7.161  0.7566  2.9852 -0.2182
   74CHL1   H4B 7889   5.196   4.549   7.190  2.2096  0.4402  0.7017
   74CHL1    C5 7890   5.184   4.697   7.349  0.5386 -0.5249  0.1453
   74CHL1    C6 7891   5.194   4.610   7.454  0.3236 -1.1902 -0.0177
   74CHL1    H6 7892   5.204   4.502   7.433 -1.4719 -1.3864  0.0054
   74CHL1    C7 7893   5.199   4.653   7.598  0.0220  0.1563 -0.2943
   74CHL1   H7A 7894   5.125   4.589   7.651  1.4310  0.1265  1.7848
   74CHL1   H7B 7895   5.301   4.653   7.642 -0.0933  0.5504 -0.0157
   74CHL1    C8 7896   5.149   4.797   7.621 -0.2909 -0.1490 -0.4894
   74CHL1    H8 7897   5.037   4.797   7.620 -0.3255  1.9244 -0.1438
   74CHL1   C14 7898   5.183   4.840   7.768 -0.4936  0.3361  0.7914
   74CHL1   H14 7899   5.294   4.849   7.773 -0.1318  1.3212 -3.8271
   74CHL1   C15 7900   5.145   4.746   7.881  0.0969  0.6229 -0.2620
   74CHL1  H15A 7901   5.047   4.699   7.859 -0.0901  1.2132 -0.7082
   74CHL1  H15B 7902   5.211   4.657   7.883 -0.3269  0.3053 -0.3365
   74CHL1   C16 7903   5.156   4.837   8.006 -0.0732  0.8208  0.8327
   74CHL1  H16A 7904   5.056   4.827   8.055 -0.9483 -0.1156 -1.0411
   74CHL1  H16B 7905   5.238   4.797   8.068 -0.1391  0.6841  0.8309
   74CHL1   C17 7906   5.192   4.984   7.949 -0.3541 -0.3890 -0.1044
   74CHL1   H17 7907   5.302   4.991   7.942 -0.4982  0.3021 -2.8280
   74CHL1   C13 7908   5.135   4.982   7.811 -0.0787 -0.1693  0.2391
   74CHL1   C18 7909   4.988   4.986   7.818  0.3778 -0.0521  0.0441
   74CHL1  H18A 7910   4.952   5.081   7.863  0.2253 -0.5325  0.9662
   74CHL1  H18B 7911   4.940   4.976   7.718 -1.0024  0.3337  0.6456
   74CHL1  H18C 7912   4.949   4.896   7.870 -0.1923 -0.3000 -0.7938
   74CHL1   C12 7913   5.198   5.083   7.706  0.3958  0.6005  0.0437
   74CHL1  H12A 7914   5.140   5.176   7.718 -0.6484 -0.0093 -0.1877
   74CHL1  H12B 7915   5.309   5.088   7.719  0.2744 -0.3242  1.8009
   74CHL1   C11 7916   5.175   5.038   7.559 -0.2016  1.2049  1.3539
   74CHL1  H11A 7917   5.066   5.055   7.542  0.0032  1.4140  0.1629
   74CHL1  H11B 7918   5.226   5.106   7.487 -0.8471  0.4965  0.2010
   74CHL1    C9 7919   5.213   4.892   7.526  0.3147 -0.6964  0.0502
   74CHL1    H9 7920   5.324   4.883   7.528  0.4161 -0.0922 -1.4077
   74CHL1   C10 7921   5.181   4.853   7.375  0.4190 -0.1251 -0.7238
   74CHL1   C19 7922   5.037   4.912   7.338 -0.2411  0.3213 -0.1975
   74CHL1  H19A 7923   5.038   5.023   7.339 -1.0432  0.3361 -0.0763
   74CHL1  H19B 7924   5.024   4.885   7.231  0.6388 -1.9899  0.2175
   74CHL1  H19C 7925   4.955   4.879   7.405 -1.5408 -1.6426 -2.5442
   74CHL1    C1 7926   5.287   4.921   7.282  0.4668 -0.1468 -0.7556
   74CHL1   H1A 7927   5.284   5.031   7.300  3.6948 -0.1762  0.7597
   74CHL1   H1B 7928   5.383   4.897   7.333 -0.0935  1.5168  1.1970
   74CHL1    C2 7929   5.281   4.874   7.138 -0.2528 -0.4083 -0.3647
   74CHL1   H2A 7930   5.371   4.913   7.086 -0.6203 -0.1143 -0.7857
   74CHL1   H2B 7931   5.189   4.915   7.093 -0.4891 -0.4819  0.0447
   74CHL1   C20 7932   5.159   5.092   8.046  0.7708  0.8724 -0.2306
   74CHL1   H20 7933   5.049   5.110   8.055  0.3789  0.5656 -3.2552
   74CHL1   C21 7934   5.222   5.220   8.000  0.2223 -0.1464 -1.2317
   74CHL1  H21A 7935   5.218   5.248   7.893 -2.7419  2.8742 -0.5079
   74CHL1  H21B 7936   5.329   5.210   8.027 -0.6040  0.1061  2.8675
   74CHL1  H21C 7937   5.181   5.309   8.053  0.7485 -0.7435  0.2473
   74CHL1   C22 7938   5.193   5.057   8.190  0.4404  0.4688  0.0168
   74CHL1  H22A 7939   5.122   4.975   8.215  1.6261 -0.4084  0.5649
   74CHL1  H22B 7940   5.301   5.032   8.189 -0.2624 -3.0387  0.6043
   74CHL1   C23 7941   5.152   5.171   8.289  0.3966  0.3138 -0.2979
   74CHL1  H23A 7942   5.202   5.266   8.259  1.7433 -0.8122 -1.7621
   74CHL1  H23B 7943   5.041   5.184   8.292  0.4793  1.0686 -0.2368
   74CHL1   C24 7944   5.179   5.126   8.438 -0.2908  0.1008 -0.2092
   74CHL1  H24A 7945   5.145   5.206   8.507 -0.2718 -0.2556  0.2166
   74CHL1  H24B 7946   5.128   5.031   8.467  0.3364 -0.1632  0.0286
   74CHL1   C25 7947   5.329   5.117   8.474 -0.1803 -0.2218  0.0329
   74CHL1   H25 7948   5.382   5.037   8.418 -1.0679 -0.0287 -1.1060
   74CHL1   C26 7949   5.406   5.252   8.448 -0.2470 -0.2171 -1.1658
   74CHL1  H26A 7950   5.509   5.246   8.489 -1.1065  0.9691  1.3764
   74CHL1  H26B 7951   5.393   5.276   8.341 -0.8523 -1.9427 -1.5032
   74CHL1  H26C 7952   5.347   5.331   8.500  1.8817  0.6267  0.0938
   74CHL1   C27 7953   5.351   5.106   8.622 -0.4185  0.1245 -0.7899
   74CHL1  H27A 7954   5.296   5.024   8.673  0.5195 -0.7995 -1.2218
   74CHL1  H27B 7955   5.460   5.090   8.640 -0.5710  1.8983  2.6284
   74CHL1  H27C 7956   5.324   5.205   8.664  3.8977  2.0844 -2.0809
   75CHL1    C3 7957   0.555   3.551   6.803 -0.3210 -0.4541  0.0388
   75CHL1    H3 7958   0.467   3.482   6.800 -1.3673  0.8336  0.1506
   75CHL1    O3 7959   0.595   3.591   6.670 -0.2295 -0.5507 -0.2151
   75CHL1   H3' 7960   0.635   3.510   6.638 -0.9307 -0.7383 -0.6417
   75CHL1    C4 7961   0.511   3.679   6.878  0.6804  0.5252  0.3655
   75CHL1   H4A 7962   0.591   3.755   6.870 -0.3300  1.4873 -1.0154
   75CHL1   H4B 7963   0.431   3.721   6.813  0.8349 -1.9056 -1.5866
   75CHL1    C5 7964   0.466   3.642   7.020 -0.2069  0.0303  0.4588
   75CHL1    C6 7965   0.343   3.649   7.064  0.1462 -0.4685  0.2439
   75CHL1    H6 7966   0.263   3.695   7.004 -0.7683  0.3612  2.0303
   75CHL1    C7 7967   0.300   3.617   7.197  0.1452  0.1466  0.1020
   75CHL1   H7A 7968   0.227   3.693   7.232 -1.8359 -0.6972 -1.9591
   75CHL1   H7B 7969   0.256   3.515   7.206 -1.1650  0.6310 -0.5880
   75CHL1    C8 7970   0.423   3.601   7.292  0.3739 -0.2693  0.2784
   75CHL1    H8 7971   0.467   3.700   7.315 -0.2494  0.1695 -0.3588
   75CHL1   C14 7972   0.379   3.533   7.420  0.1481 -0.6275  0.3438
   75CHL1   H14 7973   0.342   3.430   7.404 -0.4334 -0.3213 -0.2823
   75CHL1   C15 7974   0.263   3.599   7.494  0.4584 -0.1672  0.3212
   75CHL1  H15A 7975   0.293   3.706   7.496  0.9998 -0.2845  3.2549
   75CHL1  H15B 7976   0.163   3.603   7.446  0.4427  1.3861  0.4371
   75CHL1   C16 7977   0.263   3.542   7.634 -0.2882 -0.9508  0.0654
   75CHL1  H16A 7978   0.284   3.628   7.701  2.0387 -0.3778 -1.2699
   75CHL1  H16B 7979   0.172   3.484   7.658 -0.0503 -0.9692  0.9738
   75CHL1   C17 7980   0.393   3.448   7.642 -0.6828 -0.9533  0.2087
   75CHL1   H17 7981   0.352   3.352   7.604  1.1320 -1.3524 -0.8569
   75CHL1   C13 7982   0.487   3.506   7.527 -0.4857 -0.0499  0.5643
   75CHL1   C18 7983   0.560   3.631   7.582  0.0141 -0.0792  0.3764
   75CHL1  H18A 7984   0.491   3.687   7.648  0.5391  2.5504 -1.1937
   75CHL1  H18B 7985   0.654   3.600   7.631  1.2433  1.4274 -0.9375
   75CHL1  H18C 7986   0.592   3.704   7.505 -2.4189  1.3762  0.6242
   75CHL1   C12 7987   0.576   3.399   7.463 -0.4725  0.3700  0.5246
   75CHL1  H12A 7988   0.651   3.359   7.534 -1.6965  0.9434  2.2090
   75CHL1  H12B 7989   0.513   3.311   7.436  1.1814 -0.1866 -1.8442
   75CHL1   C11 7990   0.631   3.463   7.336  0.7214  0.2662 -0.1961
   75CHL1  H11A 7991   0.693   3.550   7.368  0.3640 -0.3932  2.5684
   75CHL1  H11B 7992   0.707   3.394   7.292 -0.2901 -0.6195 -0.5918
   75CHL1    C9 7993   0.525   3.505   7.229 -1.1857  0.5145 -0.5998
   75CHL1    H9 7994   0.474   3.408   7.208 -0.2560 -0.4543  1.3430
   75CHL1   C10 7995   0.577   3.569   7.098 -0.7330  0.3181  0.4000
   75CHL1   C19 7996   0.683   3.681   7.123 -0.0475  0.3810 -1.0142
   75CHL1  H19A 7997   0.725   3.736   7.036  1.8428  0.8482  0.1322
   75CHL1  H19B 7998   0.654   3.759   7.196  4.3889  0.8820  0.5216
   75CHL1  H19C 7999   0.766   3.630   7.176 -1.1680  0.0039  0.4424
   75CHL1    C1 8000   0.639   3.451   7.019  0.2315 -0.0278 -0.2068
   75CHL1   H1A 8001   0.734   3.411   7.061 -0.7706 -1.7967  0.4929
   75CHL1   H1B 8002   0.563   3.370   7.015 -1.2276  1.3005 -0.2278
   75CHL1    C2 8003   0.665   3.489   6.875 -1.1125  0.0409 -0.5048
   75CHL1   H2A 8004   0.706   3.401   6.821 -0.1798 -0.2251  0.5884
   75CHL1   H2B 8005   0.746   3.564   6.884 -1.1667 -0.0382  1.0020
   75CHL1   C20 8006   0.434   3.438   7.790  0.0892 -0.2598 -0.4444
   75CHL1   H20 8007   0.441   3.538   7.838  1.4211 -0.5554  0.0128
   75CHL1   C21 8008   0.573   3.379   7.800  0.5097 -0.3905  0.3389
   75CHL1  H21A 8009   0.593   3.300   7.725 -2.1399 -1.2794  0.4696
   75CHL1  H21B 8010   0.603   3.335   7.897  1.4088 -1.6036 -0.4603
   75CHL1  H21C 8011   0.643   3.462   7.775  1.5979 -1.7008 -1.1627
   75CHL1   C22 8012   0.332   3.365   7.870  0.6903 -0.1057 -0.0819
   75CHL1  H22A 8013   0.235   3.419   7.864 -1.4358 -3.7725 -2.4733
   75CHL1  H22B 8014   0.317   3.267   7.821  0.5277  0.7482 -1.7796
   75CHL1   C23 8015   0.359   3.352   8.021  0.2548  0.0454 -1.0736
   75CHL1  H23A 8016   0.452   3.291   8.024  0.6339  0.6624  0.1790
   75CHL1  H23B 8017   0.385   3.453   8.058 -1.3147 -0.6640  2.3694
   75CHL1   C24 8018   0.242   3.287   8.102  0.1367  0.1625  0.1908
   75CHL1  H24A 8019   0.149   3.340   8.070  0.3448 -0.4398 -1.5368
   75CHL1  H24B 8020   0.251   3.180   8.076  1.8192  0.3008  0.1067
   75CHL1   C25 8021   0.248   3.304   8.254  0.9085 -0.3259 -0.0584
   75CHL1   H25 8022   0.151   3.264   8.293  0.4509 -0.2365 -1.0820
   75CHL1   C26 8023   0.372   3.226   8.301  0.8605 -0.3937 -1.1625
   75CHL1  H26A 8024   0.463   3.274   8.258  0.7577 -0.5314 -1.5272
   75CHL1  H26B 8025   0.378   3.215   8.412 -0.8200  2.5394 -0.6842
   75CHL1  H26C 8026   0.366   3.126   8.254  0.0162 -1.1765  0.5337
   75CHL1   C27 8027   0.269   3.453   8.283  0.0957 -0.1398 -0.7597
   75CHL1  H27A 8028   0.378   3.475   8.276  0.5964 -1.6290  1.3093
   75CHL1  H27B 8029   0.211   3.514   8.211  1.4593  0.9069 -1.0208
   75CHL1  H27C 8030   0.223   3.467   8.383 -0.1296 -1.9492 -0.5794
   76CHL1    C3 8031   5.528   1.243   7.394  0.2817  0.8403  0.4512
   76CHL1    H3 8032   5.589   1.332   7.420  3.9627 -1.0451 -0.9505
   76CHL1    O3 8033   5.551   1.220   7.253  1.0068  0.0868  0.2234
   76CHL1   H3' 8034   5.472   1.170   7.230  0.9357 -0.1536  0.9438
   76CHL1    C4 8035   5.580   1.129   7.474  0.1829 -0.1713 -0.1789
   76CHL1   H4A 8036   5.545   1.031   7.436 -0.8212  1.5280 -4.1603
   76CHL1   H4B 8037   5.691   1.135   7.464  0.3197 -2.3676 -0.3571
   76CHL1    C5 8038   5.542   1.139   7.627 -0.4951 -0.3299 -0.8151
   76CHL1    C6 8039   5.642   1.145   7.719  0.7927 -0.2527  0.1508
   76CHL1    H6 8040   5.746   1.130   7.684  0.1772 -1.8616 -1.1301
   76CHL1    C7 8041   5.621   1.140   7.865 -0.3844  0.4306 -0.2036
   76CHL1   H7A 8042   5.674   1.058   7.918 -1.0620  1.8599  2.8826
   76CHL1   H7B 8043   5.669   1.227   7.913 -0.8247  0.1347  0.8091
   76CHL1    C8 8044   5.470   1.132   7.909 -0.1120  0.2947 -0.5585
   76CHL1    H8 8045   5.434   1.027   7.909 -1.1818  0.6409 -1.4948
   76CHL1   C14 8046   5.455   1.191   8.048  0.1232 -0.7616 -0.5636
   76CHL1   H14 8047   5.470   1.300   8.033 -2.1674 -0.1295  1.0418
   76CHL1   C15 8048   5.545   1.148   8.164  0.2897 -0.4500  0.3603
   76CHL1  H15A 8049   5.543   1.037   8.153  0.2655 -0.4162  0.0144
   76CHL1  H15B 8050   5.647   1.194   8.163 -0.5086  1.4780  1.5202
   76CHL1   C16 8051   5.474   1.196   8.290 -0.4732  0.1452  0.8412
   76CHL1  H16A 8052   5.474   1.105   8.354  2.0144  0.2122  1.0245
   76CHL1  H16B 8053   5.530   1.277   8.342  3.5827 -1.8579 -0.0238
   76CHL1   C17 8054   5.333   1.254   8.246  0.1781 -0.4169 -0.4436
   76CHL1   H17 8055   5.359   1.361   8.227  2.0099 -0.9161 -0.9642
   76CHL1   C13 8056   5.312   1.191   8.104 -0.9149  0.0086 -0.3234
   76CHL1   C18 8057   5.258   1.043   8.117 -0.0483  0.3911  0.5478
   76CHL1  H18A 8058   5.284   0.989   8.023  0.9088  3.2955 -0.9872
   76CHL1  H18B 8059   5.307   1.004   8.208  1.0463  1.4134  0.4335
   76CHL1  H18C 8060   5.149   1.029   8.128  0.0940 -2.9229 -1.1023
   76CHL1   C12 8061   5.232   1.276   8.005 -0.0583  0.3438 -0.5366
   76CHL1  H12A 8062   5.128   1.285   8.041  0.3580  1.6221  0.4499
   76CHL1  H12B 8063   5.273   1.380   8.007 -0.0489  0.3333  1.4455
   76CHL1   C11 8064   5.237   1.233   7.861  0.0655 -0.0379  0.0424
   76CHL1  H11A 8065   5.191   1.132   7.859 -1.1022  0.4743 -2.1579
   76CHL1  H11B 8066   5.174   1.296   7.795 -1.2358  0.4074  1.6418
   76CHL1    C9 8067   5.382   1.211   7.808 -0.1477 -0.2271 -0.3564
   76CHL1    H9 8068   5.420   1.315   7.815 -0.1906 -0.3280  3.2455
   76CHL1   C10 8069   5.401   1.164   7.661  0.1445 -0.1471  0.1570
   76CHL1   C19 8070   5.322   1.035   7.632 -0.0205 -0.5566 -0.5443
   76CHL1  H19A 8071   5.221   1.045   7.677  0.7024 -1.2927  1.3337
   76CHL1  H19B 8072   5.311   1.006   7.526 -0.8425 -0.7609 -0.4085
   76CHL1  H19C 8073   5.374   0.948   7.678  0.0539  0.5102  1.5170
   76CHL1    C1 8074   5.355   1.286   7.574  0.0225 -0.1230  0.8524
   76CHL1   H1A 8075   5.245   1.302   7.584 -0.2206 -0.0335 -1.4183
   76CHL1   H1B 8076   5.410   1.376   7.611 -1.4758  1.2218 -0.0544
   76CHL1    C2 8077   5.374   1.269   7.418 -0.2592  0.5844 -0.6038
   76CHL1   H2A 8078   5.338   1.361   7.368 -1.1447  1.6719  1.8742
   76CHL1   H2B 8079   5.313   1.185   7.381 -0.1348  0.2191  0.0008
   76CHL1   C20 8080   5.219   1.244   8.349 -0.4209  0.5699  0.4082
   76CHL1   H20 8081   5.181   1.140   8.347  1.7227 -0.2750 -2.3265
   76CHL1   C21 8082   5.100   1.337   8.307  0.7337  1.2581  0.1523
   76CHL1  H21A 8083   5.031   1.359   8.391  1.4225  0.4870  0.9275
   76CHL1  H21B 8084   5.043   1.288   8.225  1.3499 -1.4402  1.2548
   76CHL1  H21C 8085   5.141   1.434   8.272 -1.1486  1.9788 -0.1916
   76CHL1   C22 8086   5.267   1.267   8.499  0.1480 -0.0587 -0.5772
   76CHL1  H22A 8087   5.354   1.199   8.504  0.4890  0.2967 -1.4713
   76CHL1  H22B 8088   5.304   1.372   8.508 -0.3451  0.0070  1.0951
   76CHL1   C23 8089   5.163   1.247   8.608  0.2321 -0.4063 -0.4300
   76CHL1  H23A 8090   5.094   1.332   8.589 -2.1493 -1.9600  0.7439
   76CHL1  H23B 8091   5.110   1.150   8.594  0.6882 -0.7247  0.0308
   76CHL1   C24 8092   5.223   1.261   8.744 -0.8217 -0.1063 -0.1255
   76CHL1  H24A 8093   5.313   1.197   8.754 -0.7946 -0.0205  0.1912
   76CHL1  H24B 8094   5.248   1.367   8.765 -0.3968  0.0157 -1.1780
   76CHL1   C25 8095   5.136   1.200   8.861 -1.4284 -0.1532  0.3389
   76CHL1   H25 8096   5.178   1.222   8.962  0.2622 -2.8164  0.3023
   76CHL1   C26 8097   4.997   1.264   8.876  0.6144  0.4112  0.1208
   76CHL1  H26A 8098   4.929   1.219   8.952 -0.7790  1.1884 -0.6449
   76CHL1  H26B 8099   5.018   1.368   8.907  0.9339  0.8380 -1.4545
   76CHL1  H26C 8100   4.933   1.269   8.786 -2.0260 -0.3909  1.8363
   76CHL1   C27 8101   5.114   1.050   8.853  0.4363 -0.1134 -0.3730
   76CHL1  H27A 8102   5.030   1.032   8.782 -2.5139  2.3956  2.1822
   76CHL1  H27B 8103   5.211   1.001   8.833  1.1568  0.4725  1.5126
   76CHL1  H27C 8104   5.071   1.028   8.953 -0.4081  1.0746 -0.4432
   77CHL1    C3 8105   5.750   6.724   7.170 -0.5238 -0.0057  0.5795
   77CHL1    H3 8106   5.764   6.623   7.214 -0.4965 -0.0990  0.3587
   77CHL1    O3 8107   5.765   6.715   7.026  0.3968  0.0822 -0.7127
   77CHL1   H3' 8108   5.688   6.761   6.992 -0.0636 -1.2027 -1.4767
   77CHL1    C4 8109   5.622   6.791   7.204  0.2893  0.1555 -0.1302
   77CHL1   H4A 8110   5.620   6.898   7.174 -0.3444  0.9312  2.4744
   77CHL1   H4B 8111   5.547   6.731   7.149  0.9398 -3.1164  2.2670
   77CHL1    C5 8112   5.595   6.808   7.355 -0.7711  0.2925  0.1026
   77CHL1    C6 8113   5.477   6.769   7.405  0.0718 -0.3011  0.4893
   77CHL1    H6 8114   5.403   6.734   7.331  1.4101  2.2119 -2.2628
   77CHL1    C7 8115   5.439   6.775   7.555 -0.5433 -0.4874 -0.0912
   77CHL1   H7A 8116   5.339   6.820   7.573 -1.0537 -0.4014 -2.7050
   77CHL1   H7B 8117   5.449   6.676   7.605  1.3135  0.6856  2.0784
   77CHL1    C8 8118   5.543   6.860   7.635  0.4099  1.0160 -0.2564
   77CHL1    H8 8119   5.535   6.966   7.601  1.0076  0.4779 -2.1620
   77CHL1   C14 8120   5.522   6.859   7.783 -0.6364 -0.4866 -1.1688
   77CHL1   H14 8121   5.526   6.753   7.817 -1.5867 -0.2681 -0.3108
   77CHL1   C15 8122   5.391   6.918   7.835 -0.3578  0.5748  0.1534
   77CHL1  H15A 8123   5.369   7.008   7.774 -0.9200  0.5612  0.3264
   77CHL1  H15B 8124   5.315   6.839   7.820  1.5297 -1.7101  1.9487
   77CHL1   C16 8125   5.417   6.934   7.988  0.5557  0.8285  0.5315
   77CHL1  H16A 8126   5.385   7.038   8.011  0.1141  1.0436 -0.9096
   77CHL1  H16B 8127   5.362   6.858   8.047  1.0068 -0.4185 -0.6038
   77CHL1   C17 8128   5.573   6.916   8.007  0.0555  0.8041 -0.0850
   77CHL1   H17 8129   5.589   6.809   8.034  1.3224  0.4892 -1.9788
   77CHL1   C13 8130   5.631   6.931   7.868  0.4411  0.1088 -0.6437
   77CHL1   C18 8131   5.625   7.086   7.847  0.0161  0.1629  0.0644
   77CHL1  H18A 8132   5.628   7.125   7.743  1.1361 -1.3012 -0.4829
   77CHL1  H18B 8133   5.540   7.136   7.898  1.4193  2.4172  0.3141
   77CHL1  H18C 8134   5.715   7.138   7.888  0.4044 -0.7458  0.3963
   77CHL1   C12 8135   5.760   6.868   7.831  0.2020 -0.0268 -0.2947
   77CHL1  H12A 8136   5.841   6.911   7.894  2.2388 -1.3009 -1.9507
   77CHL1  H12B 8137   5.761   6.757   7.839  0.4189 -0.0125 -0.1058
   77CHL1   C11 8138   5.800   6.889   7.691 -0.4888 -0.0015 -0.6718
   77CHL1  H11A 8139   5.814   6.997   7.673  1.3499  0.5422  3.0482
   77CHL1  H11B 8140   5.898   6.838   7.678 -1.2992 -1.3125 -1.8235
   77CHL1    C9 8141   5.690   6.828   7.598 -0.7820 -0.1105  0.3120
   77CHL1    H9 8142   5.702   6.720   7.620 -0.3891  0.1295  1.3026
   77CHL1   C10 8143   5.709   6.862   7.442 -0.0222  0.9769 -0.9477
   77CHL1   C19 8144   5.703   7.010   7.418  0.1631  0.0837  0.0099
   77CHL1  H19A 8145   5.731   7.036   7.314 -0.0832 -1.1875 -0.3825
   77CHL1  H19B 8146   5.602   7.056   7.424 -0.0100 -0.0636 -1.4404
   77CHL1  H19C 8147   5.776   7.065   7.481  1.2030 -0.6399 -0.5263
   77CHL1    C1 8148   5.841   6.803   7.394  0.0568  0.0459  0.1538
   77CHL1   H1A 8149   5.919   6.861   7.447  1.6098 -0.0208 -1.9604
   77CHL1   H1B 8150   5.856   6.699   7.431 -1.1138 -0.1607  0.0961
   77CHL1    C2 8151   5.865   6.802   7.236  0.6323  0.3497  0.5883
   77CHL1   H2A 8152   5.962   6.748   7.226  0.1744 -0.1770 -1.4345
   77CHL1   H2B 8153   5.856   6.906   7.199  1.1740 -0.0307 -0.6714
   77CHL1   C20 8154   5.632   6.991   8.126 -0.7372 -0.2104  0.2989
   77CHL1   H20 8155   5.610   7.099   8.116  0.2597  0.1389  1.5432
   77CHL1   C21 8156   5.790   6.992   8.132 -0.3596 -0.5547  0.1137
   77CHL1  H21A 8157   5.841   7.056   8.056 -0.2199 -0.9858 -0.1616
   77CHL1  H21B 8158   5.827   6.888   8.129  0.1436 -0.4932  2.5832
   77CHL1  H21C 8159   5.823   7.027   8.232 -1.0946 -0.1529  0.2256
   77CHL1   C22 8160   5.565   6.954   8.263 -0.4890  0.6239  0.1768
   77CHL1  H22A 8161   5.454   6.951   8.251 -0.4166 -0.9398 -0.2716
   77CHL1  H22B 8162   5.601   6.852   8.287  4.0359  1.6574 -1.3306
   77CHL1   C23 8163   5.595   7.054   8.379  0.5564 -0.0642 -0.0902
   77CHL1  H23A 8164   5.699   7.048   8.416  0.3112  0.6927  0.7652
   77CHL1  H23B 8165   5.578   7.158   8.345 -0.2598  0.2242  1.1065
   77CHL1   C24 8166   5.501   7.035   8.497  0.4958 -0.3670 -0.3058
   77CHL1  H24A 8167   5.400   7.036   8.450  1.1615  0.0607 -1.7917
   77CHL1  H24B 8168   5.510   6.937   8.548 -1.9335  0.0074  0.9893
   77CHL1   C25 8169   5.503   7.153   8.604  0.2475  0.2139 -0.1361
   77CHL1   H25 8170   5.486   7.253   8.558  0.7924 -0.4416 -1.8277
   77CHL1   C26 8171   5.377   7.132   8.694 -0.7887  0.2638 -0.1326
   77CHL1  H26A 8172   5.392   7.030   8.736  1.2944 -0.4239 -2.3262
   77CHL1  H26B 8173   5.367   7.201   8.781  2.1088  0.7684 -0.0907
   77CHL1  H26C 8174   5.280   7.141   8.640 -1.3263  0.1206  0.7876
   77CHL1   C27 8175   5.635   7.159   8.675 -0.3588 -0.1453 -0.9110
   77CHL1  H27A 8176   5.629   7.219   8.769 -1.8592 -0.9727 -0.4592
   77CHL1  H27B 8177   5.669   7.060   8.712  1.2504  0.8148  0.3418
   77CHL1  H27C 8178   5.725   7.196   8.620  0.0254 -0.7903 -0.7308
   78CHL1    C3 8179   2.267   1.890   6.924  0.5391 -0.1068  0.9841
   78CHL1    H3 8180   2.332   1.800   6.926 -0.3272 -0.7749 -0.0599
   78CHL1    O3 8181   2.228   1.905   6.787  0.0577 -0.5320  0.0167
   78CHL1   H3' 8182   2.274   1.980   6.748 -0.8205 -0.6925 -1.4020
   78CHL1    C4 8183   2.145   1.851   7.009  0.0243 -0.3667 -0.1398
   78CHL1   H4A 8184   2.062   1.925   7.002 -0.4088 -0.7007  1.1415
   78CHL1   H4B 8185   2.088   1.771   6.958  0.2210 -1.3858  1.1840
   78CHL1    C5 8186   2.176   1.836   7.152 -0.6448 -0.1360 -0.1326
   78CHL1    C6 8187   2.151   1.723   7.216  0.0381  0.3444  0.1114
   78CHL1    H6 8188   2.101   1.644   7.159  2.1313 -1.3970  0.5700
   78CHL1    C7 8189   2.178   1.695   7.355  0.1846  0.2318 -0.9385
   78CHL1   H7A 8190   2.112   1.620   7.402  2.9457 -1.9001 -0.2086
   78CHL1   H7B 8191   2.278   1.647   7.347  0.4687  0.8041 -0.8845
   78CHL1    C8 8192   2.203   1.837   7.435  0.2695  0.4253 -0.7379
   78CHL1    H8 8193   2.108   1.895   7.435  0.7307  1.2121 -1.0336
   78CHL1   C14 8194   2.249   1.803   7.578  0.9124  0.5186 -0.0576
   78CHL1   H14 8195   2.347   1.753   7.565  1.9848  2.6619 -0.6163
   78CHL1   C15 8196   2.166   1.702   7.662  0.0027  1.0377  0.1606
   78CHL1  H15A 8197   2.057   1.722   7.654 -0.4883 -1.8249 -1.9487
   78CHL1  H15B 8198   2.173   1.596   7.628  1.7774  1.7586 -1.9676
   78CHL1   C16 8199   2.211   1.716   7.806  0.1557  0.5507  0.6070
   78CHL1  H16A 8200   2.118   1.719   7.866 -0.4208  0.1310 -0.2505
   78CHL1  H16B 8201   2.285   1.635   7.828  0.3390 -0.0675 -1.9209
   78CHL1   C17 8202   2.301   1.844   7.805  0.0316  0.1424 -0.0484
   78CHL1   H17 8203   2.402   1.799   7.799  0.7567  1.2740  2.1806
   78CHL1   C13 8204   2.271   1.925   7.674  0.0234  0.4155 -0.3524
   78CHL1   C18 8205   2.137   1.998   7.696  0.3142 -0.1407  0.2782
   78CHL1  H18A 8206   2.064   1.934   7.750 -0.8085  0.4797 -0.4546
   78CHL1  H18B 8207   2.158   2.094   7.748  0.2455  0.3275 -0.5473
   78CHL1  H18C 8208   2.096   2.035   7.600  1.3636 -0.0218 -0.1385
   78CHL1   C12 8209   2.388   1.996   7.604  0.1651  0.2207  0.1890
   78CHL1  H12A 8210   2.413   2.086   7.663 -0.2834 -0.4067  1.3571
   78CHL1  H12B 8211   2.476   1.927   7.604  0.8019  0.9824 -1.1843
   78CHL1   C11 8212   2.347   2.035   7.457 -0.3493 -0.1709 -0.3890
   78CHL1  H11A 8213   2.263   2.107   7.450  0.3651  0.5366 -3.1577
   78CHL1  H11B 8214   2.439   2.079   7.415 -1.5952  1.3405 -1.6577
   78CHL1    C9 8215   2.301   1.923   7.366 -0.1894 -0.5220  0.1093
   78CHL1    H9 8216   2.388   1.857   7.350  1.8987  2.1925 -0.5203
   78CHL1   C10 8217   2.255   1.954   7.220  0.0966 -0.0527 -0.2062
   78CHL1   C19 8218   2.155   2.072   7.218  0.4052 -0.9392 -0.4012
   78CHL1  H19A 8219   2.192   2.172   7.251 -0.2941 -0.7760 -0.0888
   78CHL1  H19B 8220   2.102   2.095   7.123  1.9118 -1.1669 -1.3296
   78CHL1  H19C 8221   2.071   2.045   7.286  0.8801 -1.6525 -0.0771
   78CHL1    C1 8222   2.379   1.984   7.131  0.3968 -0.3512  0.1558
   78CHL1   H1A 8223   2.424   2.082   7.160  2.1812 -0.8452 -0.8300
   78CHL1   H1B 8224   2.455   1.907   7.151 -0.0785 -0.4723  1.5977
   78CHL1    C2 8225   2.350   2.000   6.983  0.1444 -0.6417  0.2685
   78CHL1   H2A 8226   2.438   2.005   6.915  0.4719  0.5220  0.7588
   78CHL1   H2B 8227   2.299   2.098   6.971  0.7223 -0.2396  1.0200
   78CHL1   C20 8228   2.298   1.919   7.941  0.3500  0.4537  0.3168
   78CHL1   H20 8229   2.206   1.982   7.945 -0.3229 -0.5425  1.4738
   78CHL1   C21 8230   2.428   2.000   7.953 -0.5249 -0.1763 -0.4146
   78CHL1  H21A 8231   2.519   1.937   7.959 -1.1262 -1.0549 -0.2723
   78CHL1  H21B 8232   2.422   2.078   8.033 -0.6399  1.8525 -2.3046
   78CHL1  H21C 8233   2.438   2.062   7.861  0.2292  1.0642  0.4697
   78CHL1   C22 8234   2.269   1.828   8.065  0.1992  0.1629  0.3151
   78CHL1  H22A 8235   2.248   1.896   8.150 -0.4091 -1.7323  1.7492
   78CHL1  H22B 8236   2.192   1.749   8.053  0.1796  0.2408 -0.0823
   78CHL1   C23 8237   2.398   1.770   8.137  0.8572 -0.3201  0.7779
   78CHL1  H23A 8238   2.448   1.717   8.053 -0.3433 -0.5073  0.1634
   78CHL1  H23B 8239   2.470   1.848   8.169  0.7931 -0.2947  0.8607
   78CHL1   C24 8240   2.364   1.683   8.252 -0.0507 -0.2047  0.2884
   78CHL1  H24A 8241   2.330   1.761   8.322 -1.5996 -1.5499  1.1149
   78CHL1  H24B 8242   2.281   1.611   8.235 -1.1307  0.1475  3.4432
   78CHL1   C25 8243   2.480   1.607   8.329  0.5320 -0.1599 -0.5413
   78CHL1   H25 8244   2.541   1.561   8.249 -1.1220 -0.7181 -1.5214
   78CHL1   C26 8245   2.580   1.700   8.413 -0.1302 -0.1290 -0.7681
   78CHL1  H26A 8246   2.653   1.633   8.463 -0.0303 -0.4705 -1.3633
   78CHL1  H26B 8247   2.633   1.769   8.343  0.7116 -0.9777 -0.9826
   78CHL1  H26C 8248   2.530   1.763   8.490 -0.8482 -0.3244 -1.0625
   78CHL1   C27 8249   2.432   1.484   8.416 -0.2321 -0.3572  0.3893
   78CHL1  H27A 8250   2.355   1.417   8.371 -2.7220  2.3343  0.4013
   78CHL1  H27B 8251   2.521   1.427   8.451 -0.9848 -0.1046  2.8833
   78CHL1  H27C 8252   2.376   1.525   8.502  0.2585  0.8838  0.1394
   79CHL1    C3 8253   6.112   6.448   7.172 -0.1529 -0.3422  0.2360
   79CHL1    H3 8254   6.027   6.519   7.169  0.9360  1.0249  0.4565
   79CHL1    O3 8255   6.157   6.414   7.046  0.4345  0.2542 -0.3997
   79CHL1   H3' 8256   6.237   6.464   7.028  0.6650 -0.5821 -1.7618
   79CHL1    C4 8257   6.231   6.514   7.244  0.5752 -0.2445  0.5314
   79CHL1   H4A 8258   6.313   6.440   7.239  1.0318  0.3286 -1.1610
   79CHL1   H4B 8259   6.271   6.597   7.182 -2.6422 -0.9409 -2.8097
   79CHL1    C5 8260   6.189   6.550   7.389  0.8616  0.3688  0.4306
   79CHL1    C6 8261   6.186   6.680   7.429  0.2105  0.7853  0.1030
   79CHL1    H6 8262   6.226   6.756   7.360 -1.4595  1.5694 -0.0366
   79CHL1    C7 8263   6.161   6.713   7.574 -0.3444  0.2294  0.2553
   79CHL1   H7A 8264   6.237   6.785   7.611  1.1331 -0.3735 -1.4432
   79CHL1   H7B 8265   6.068   6.774   7.583 -0.9215  0.2646 -3.9122
   79CHL1    C8 8266   6.163   6.587   7.674  0.1038  0.0993 -0.5870
   79CHL1    H8 8267   6.267   6.554   7.697 -1.1404 -2.6069  1.6830
   79CHL1   C14 8268   6.099   6.633   7.803  0.2701 -0.0464  0.0845
   79CHL1   H14 8269   5.993   6.646   7.774  0.1909  0.6584  0.6611
   79CHL1   C15 8270   6.136   6.773   7.867 -0.2954  0.0037  0.3430
   79CHL1  H15A 8271   6.246   6.783   7.878 -0.3186 -0.5399  1.2017
   79CHL1  H15B 8272   6.099   6.866   7.819  0.3914  0.3648  0.5093
   79CHL1   C16 8273   6.083   6.756   8.014 -0.0741  0.2700  0.7118
   79CHL1  H16A 8274   6.165   6.764   8.088  0.8997  1.9836 -0.4870
   79CHL1  H16B 8275   6.018   6.842   8.038 -2.3233 -0.7881 -1.1707
   79CHL1   C17 8276   6.020   6.613   8.025 -0.4219 -0.1613 -0.3049
   79CHL1   H17 8277   5.913   6.626   7.999 -0.6989  0.3524  1.0229
   79CHL1   C13 8278   6.092   6.527   7.915  0.4149 -0.4820  0.3336
   79CHL1   C18 8279   6.233   6.492   7.975 -0.0130  0.0882 -1.2106
   79CHL1  H18A 8280   6.233   6.407   8.046 -0.8810  0.5092 -0.6976
   79CHL1  H18B 8281   6.315   6.477   7.902  0.2067  1.8909 -1.3935
   79CHL1  H18C 8282   6.275   6.575   8.037  2.3352 -2.4568  0.8922
   79CHL1   C12 8283   6.013   6.404   7.859 -0.0914  0.2202  0.5295
   79CHL1  H12A 8284   6.004   6.317   7.927  1.7000 -1.1650 -0.8805
   79CHL1  H12B 8285   5.909   6.436   7.837 -0.3913 -0.1345  1.3881
   79CHL1   C11 8286   6.069   6.358   7.726 -0.1820 -0.7170  0.4048
   79CHL1  H11A 8287   6.173   6.319   7.737  0.4493  0.4872 -0.9723
   79CHL1  H11B 8288   6.004   6.272   7.701 -0.2127 -0.4711 -0.4126
   79CHL1    C9 8289   6.079   6.472   7.619  0.1856  0.6754  0.5951
   79CHL1    H9 8290   5.972   6.497   7.602  0.3067  1.0098  0.3163
   79CHL1   C10 8291   6.139   6.434   7.479  0.3244 -0.2855 -0.2967
   79CHL1   C19 8292   6.251   6.332   7.497  0.5538 -0.6736 -0.7171
   79CHL1  H19A 8293   6.329   6.374   7.564  1.1100  0.8575 -2.2257
   79CHL1  H19B 8294   6.213   6.235   7.533 -0.6951  0.3661  0.9075
   79CHL1  H19C 8295   6.310   6.306   7.407  1.2807 -0.3671 -0.3367
   79CHL1    C1 8296   6.031   6.355   7.396 -0.6187  0.0130  0.5361
   79CHL1   H1A 8297   6.003   6.260   7.448  0.5708 -0.4712  0.3392
   79CHL1   H1B 8298   5.940   6.416   7.382 -0.8668 -0.1909  1.2531
   79CHL1    C2 8299   6.078   6.323   7.254 -0.1071 -0.4249 -0.0426
   79CHL1   H2A 8300   6.005   6.260   7.198  0.6975 -1.5800  0.1901
   79CHL1   H2B 8301   6.177   6.273   7.258  0.5854  0.9889  0.9410
   79CHL1   C20 8302   6.028   6.558   8.169  0.4514 -0.2228  0.4857
   79CHL1   H20 8303   6.134   6.558   8.203  0.5193  1.4373  0.3653
   79CHL1   C21 8304   5.974   6.410   8.172  0.8323 -0.0098 -0.2425
   79CHL1  H21A 8305   5.868   6.393   8.144  0.2134  0.2310  1.7788
   79CHL1  H21B 8306   5.978   6.380   8.279 -1.4515 -2.7585 -0.7909
   79CHL1  H21C 8307   6.040   6.344   8.111  1.0277 -1.0933  1.0875
   79CHL1   C22 8308   5.940   6.646   8.267 -0.1930 -0.0768  0.0024
   79CHL1  H22A 8309   5.970   6.753   8.266  1.6577 -0.4542  3.0067
   79CHL1  H22B 8310   5.837   6.647   8.224 -0.2874 -0.6906  0.2048
   79CHL1   C23 8311   5.951   6.614   8.415 -0.5347 -0.0523  0.4215
   79CHL1  H23A 8312   5.881   6.532   8.442 -0.7740 -0.4428 -1.2786
   79CHL1  H23B 8313   6.059   6.599   8.437 -0.3358  0.6513 -0.0201
   79CHL1   C24 8314   5.918   6.734   8.500  0.1375 -0.0064  0.7279
   79CHL1  H24A 8315   5.990   6.815   8.476 -0.7370  0.8471  0.8947
   79CHL1  H24B 8316   5.814   6.772   8.488  0.7425  0.9771 -2.7534
   79CHL1   C25 8317   5.918   6.699   8.651  0.0064  0.9200 -0.4623
   79CHL1   H25 8318   6.013   6.645   8.669 -0.9831 -0.7567 -0.0908
   79CHL1   C26 8319   5.932   6.825   8.741 -0.3733  0.5919 -0.3950
   79CHL1  H26A 8320   6.025   6.881   8.718 -1.0818  2.4379  0.8847
   79CHL1  H26B 8321   5.848   6.894   8.716  0.8885  1.8282 -1.3541
   79CHL1  H26C 8322   5.926   6.811   8.851 -0.5140  1.4170 -0.2854
   79CHL1   C27 8323   5.802   6.599   8.702  0.0353 -0.0138  0.3650
   79CHL1  H27A 8324   5.791   6.515   8.630  0.1903  0.0489  0.2682
   79CHL1  H27B 8325   5.822   6.551   8.800 -0.0739 -1.9463 -0.5187
   79CHL1  H27C 8326   5.707   6.655   8.713  1.2668  2.3824 -0.5661
   80CHL1    C3 8327   3.565   5.308   7.115 -0.1809 -0.3378  0.3825
   80CHL1    H3 8328   3.666   5.350   7.133 -1.1244  2.0153  0.6036
   80CHL1    O3 8329   3.548   5.291   6.973 -0.1956 -0.6012 -0.6163
   80CHL1   H3' 8330   3.566   5.378   6.938 -1.2938 -1.4565 -3.6291
   80CHL1    C4 8331   3.546   5.177   7.190 -0.1792  0.0658  0.2429
   80CHL1   H4A 8332   3.451   5.129   7.156  1.0223 -2.2937  0.0397
   80CHL1   H4B 8333   3.626   5.107   7.158 -2.5803 -4.1727  2.5722
   80CHL1    C5 8334   3.553   5.194   7.340  0.5138 -0.0599  0.1393
   80CHL1    C6 8335   3.633   5.124   7.415  0.3683  0.3019 -0.6911
   80CHL1    H6 8336   3.705   5.059   7.363  1.3771 -1.4917  2.6830
   80CHL1    C7 8337   3.629   5.128   7.566 -0.3991 -0.3498 -0.0711
   80CHL1   H7A 8338   3.639   5.021   7.594  3.4420 -0.5955 -1.7902
   80CHL1   H7B 8339   3.714   5.182   7.614  1.2000 -1.3532 -1.6320
   80CHL1    C8 8340   3.497   5.183   7.624  0.1635 -0.4014  0.9051
   80CHL1    H8 8341   3.416   5.109   7.606 -0.7369  0.8254 -0.3281
   80CHL1   C14 8342   3.511   5.213   7.769  0.2453 -0.4392 -0.0049
   80CHL1   H14 8343   3.598   5.282   7.770 -1.3223  1.6878  1.9047
   80CHL1   C15 8344   3.564   5.099   7.862 -0.2532  0.7689 -0.2088
   80CHL1  H15A 8345   3.516   5.002   7.835  2.1688 -0.6111  0.1391
   80CHL1  H15B 8346   3.674   5.086   7.851 -0.6997 -2.3598 -2.7253
   80CHL1   C16 8347   3.511   5.139   8.002 -0.9455 -0.1405  0.1556
   80CHL1  H16A 8348   3.430   5.067   8.027 -1.0203 -0.4809 -0.9727
   80CHL1  H16B 8349   3.588   5.149   8.081  1.2523  0.9068 -1.9865
   80CHL1   C17 8350   3.437   5.271   7.986 -0.0153 -0.7385 -0.2379
   80CHL1   H17 8351   3.506   5.358   7.987 -0.0339 -0.7032 -0.9436
   80CHL1   C13 8352   3.391   5.276   7.843  0.2439  0.0968  0.3978
   80CHL1   C18 8353   3.270   5.181   7.819  0.2334  0.2851  0.0169
   80CHL1  H18A 8354   3.299   5.076   7.842  0.3511  0.6340  1.6180
   80CHL1  H18B 8355   3.188   5.211   7.888 -1.0228 -0.0140 -1.3051
   80CHL1  H18C 8356   3.219   5.180   7.721 -1.5694 -2.3164  0.8701
   80CHL1   C12 8357   3.373   5.414   7.765  0.4199  0.1264 -0.8455
   80CHL1  H12A 8358   3.292   5.466   7.821 -1.4949 -3.5786  0.2032
   80CHL1  H12B 8359   3.467   5.471   7.782  0.4523  0.2351 -1.3599
   80CHL1   C11 8360   3.345   5.392   7.616  0.1027  0.2624 -1.0228
   80CHL1  H11A 8361   3.246   5.344   7.601 -0.1294  0.1920  0.5597
   80CHL1  H11B 8362   3.333   5.490   7.567  1.7658  0.5219 -0.9705
   80CHL1    C9 8363   3.464   5.312   7.551 -0.1204  0.4662  0.1199
   80CHL1    H9 8364   3.554   5.376   7.561 -0.4828  1.0019 -0.0139
   80CHL1   C10 8365   3.446   5.286   7.394  0.5247 -0.1719 -0.3316
   80CHL1   C19 8366   3.297   5.225   7.375 -0.1353  0.4218  0.8813
   80CHL1  H19A 8367   3.281   5.205   7.267 -2.0649  1.0181  1.0180
   80CHL1  H19B 8368   3.291   5.129   7.432 -0.8592  1.1459  2.0813
   80CHL1  H19C 8369   3.212   5.290   7.404 -5.2077 -4.3478 -1.3760
   80CHL1    C1 8370   3.454   5.425   7.316  0.1169 -0.5434 -0.8844
   80CHL1   H1A 8371   3.363   5.487   7.328  1.3464  1.6001 -1.9842
   80CHL1   H1B 8372   3.533   5.491   7.358 -0.6328 -0.4571  0.4700
   80CHL1    C2 8373   3.463   5.407   7.168  0.0782  0.0434  0.0118
   80CHL1   H2A 8374   3.496   5.503   7.122  0.7766 -0.7410 -1.1703
   80CHL1   H2B 8375   3.368   5.374   7.122  1.4185  0.5819 -3.4692
   80CHL1   C20 8376   3.331   5.292   8.098 -0.3942  0.4065 -0.0837
   80CHL1   H20 8377   3.254   5.212   8.091 -0.8727  0.5784  2.2524
   80CHL1   C21 8378   3.261   5.425   8.084 -0.2378  0.4056  0.5498
   80CHL1  H21A 8379   3.327   5.514   8.078  0.7844 -0.2905  1.1633
   80CHL1  H21B 8380   3.191   5.452   8.166  1.2831 -0.6353  2.2641
   80CHL1  H21C 8381   3.196   5.414   7.995  0.3612  0.2063  0.1357
   80CHL1   C22 8382   3.400   5.292   8.233  0.9333 -0.0799 -1.3081
   80CHL1  H22A 8383   3.476   5.212   8.248  1.2977 -0.2010 -3.5634
   80CHL1  H22B 8384   3.464   5.383   8.240  0.8567  0.0464 -2.1384
   80CHL1   C23 8385   3.308   5.288   8.360 -0.1013  0.2631  0.3468
   80CHL1  H23A 8386   3.244   5.379   8.368  0.6920  0.9438 -0.8149
   80CHL1  H23B 8387   3.234   5.207   8.341  1.9909 -1.9056  0.9455
   80CHL1   C24 8388   3.387   5.253   8.488 -0.8311  0.2089 -0.0537
   80CHL1  H24A 8389   3.437   5.155   8.487  1.6178  1.3528  1.2619
   80CHL1  H24B 8390   3.454   5.340   8.504  0.8247 -0.7551 -1.4907
   80CHL1   C25 8391   3.297   5.258   8.617  0.7189 -0.4268 -0.5751
   80CHL1   H25 8392   3.360   5.212   8.696 -1.6585 -0.2629  1.5510
   80CHL1   C26 8393   3.260   5.406   8.651 -0.8531  0.8466 -0.2001
   80CHL1  H26A 8394   3.197   5.443   8.568 -0.2353  0.7982 -0.6964
   80CHL1  H26B 8395   3.196   5.413   8.742  0.6308  1.9331  0.8260
   80CHL1  H26C 8396   3.355   5.461   8.666  0.5822 -1.6381  0.4085
   80CHL1   C27 8397   3.172   5.172   8.615 -0.1703 -0.3344 -1.0471
   80CHL1  H27A 8398   3.198   5.067   8.590  3.9529  0.2273  0.1576
   80CHL1  H27B 8399   3.119   5.162   8.712 -0.6849 -0.6705 -1.3577
   80CHL1  H27C 8400   3.097   5.218   8.546 -2.3809 -0.4441  1.1413
   81CHL1    C3 8401   0.443   5.180   7.161  0.4335  0.5470 -0.2175
   81CHL1    H3 8402   0.454   5.071   7.178  0.4264  0.3282 -1.4792
   81CHL1    O3 8403   0.452   5.215   7.024 -0.5245 -0.4907 -0.0753
   81CHL1   H3' 8404   0.374   5.175   6.985 -1.0827  0.7195 -0.2333
   81CHL1    C4 8405   0.311   5.225   7.228  0.4319  0.2417  0.0952
   81CHL1   H4A 8406   0.300   5.334   7.211  1.9243  0.2695 -0.8590
   81CHL1   H4B 8407   0.226   5.177   7.174 -0.7571  3.3997 -1.0342
   81CHL1    C5 8408   0.321   5.187   7.370 -0.1479 -0.3664 -0.1460
   81CHL1    C6 8409   0.237   5.101   7.429 -0.9037  0.4909 -0.5507
   81CHL1    H6 8410   0.165   5.043   7.370 -1.7347 -1.4276  2.1459
   81CHL1    C7 8411   0.245   5.065   7.575  0.5610 -0.5991  0.8612
   81CHL1   H7A 8412   0.145   5.057   7.623 -0.3602 -0.5484 -0.9751
   81CHL1   H7B 8413   0.284   4.961   7.582 -0.4537 -1.2035 -1.5157
   81CHL1    C8 8414   0.328   5.162   7.657  0.1777  0.3034  0.2263
   81CHL1    H8 8415   0.258   5.248   7.665 -1.0004 -0.6687  0.7694
   81CHL1   C14 8416   0.355   5.101   7.793  0.3198  0.0245  0.3295
   81CHL1   H14 8417   0.423   5.013   7.786 -1.2610 -1.2155 -0.1568
   81CHL1   C15 8418   0.238   5.047   7.876  0.0372 -0.3183  0.6961
   81CHL1  H15A 8419   0.142   5.100   7.858  0.9520  0.8826 -0.7902
   81CHL1  H15B 8420   0.224   4.940   7.848 -0.0490 -0.8027  2.4747
   81CHL1   C16 8421   0.285   5.062   8.024  0.3456 -0.2429  0.3641
   81CHL1  H16A 8422   0.210   5.121   8.081  0.2438  0.6139 -0.6499
   81CHL1  H16B 8423   0.297   4.961   8.069 -0.8326 -0.5058  0.0968
   81CHL1   C17 8424   0.430   5.124   8.023 -0.6504 -0.6246 -0.0314
   81CHL1   H17 8425   0.511   5.050   8.012  1.2519  1.3453  0.0995
   81CHL1   C13 8426   0.425   5.199   7.888  0.7748  0.0902 -0.1727
   81CHL1   C18 8427   0.339   5.330   7.906 -0.5230  0.1826 -0.3611
   81CHL1  H18A 8428   0.235   5.303   7.935 -0.2625  0.7824  1.2307
   81CHL1  H18B 8429   0.381   5.406   7.976  0.8221  1.8438 -2.8220
   81CHL1  H18C 8430   0.319   5.385   7.812  1.9270 -0.1610 -1.1425
   81CHL1   C12 8431   0.564   5.222   7.825 -0.3956 -0.5842  0.5763
   81CHL1  H12A 8432   0.632   5.288   7.883  1.0272 -2.8067  1.6000
   81CHL1  H12B 8433   0.626   5.130   7.812  1.5523  0.8790 -1.0472
   81CHL1   C11 8434   0.547   5.286   7.681  0.2722  0.4523 -0.1072
   81CHL1  H11A 8435   0.513   5.390   7.700 -0.3940 -0.1179  2.1205
   81CHL1  H11B 8436   0.648   5.295   7.636  0.7374  0.7811  0.9804
   81CHL1    C9 8437   0.453   5.200   7.592  1.0888  0.0025 -0.8618
   81CHL1    H9 8438   0.490   5.096   7.584  0.3605 -0.3020 -0.3756
   81CHL1   C10 8439   0.440   5.260   7.450 -0.3954  1.0807 -0.4539
   81CHL1   C19 8440   0.421   5.411   7.456 -0.0403  0.4847  0.8296
   81CHL1  H19A 8441   0.503   5.477   7.493  1.8753 -0.6814 -1.1025
   81CHL1  H19B 8442   0.392   5.440   7.352 -1.9894  0.6100  1.3774
   81CHL1  H19C 8443   0.324   5.432   7.507  0.5596 -1.6322  3.0141
   81CHL1    C1 8444   0.573   5.215   7.372 -0.5842  0.0988 -0.3176
   81CHL1   H1A 8445   0.665   5.251   7.421 -0.2270 -0.3924 -0.6198
   81CHL1   H1B 8446   0.572   5.104   7.381 -0.3852  0.0434 -0.9325
   81CHL1    C2 8447   0.560   5.256   7.222  0.1069 -0.1526 -0.2743
   81CHL1   H2A 8448   0.656   5.219   7.180  0.1029 -1.0944  0.5138
   81CHL1   H2B 8449   0.563   5.367   7.214 -1.0194 -0.2195 -2.0923
   81CHL1   C20 8450   0.462   5.201   8.159  0.2046 -0.0735  0.3688
   81CHL1   H20 8451   0.395   5.289   8.160  1.3208  0.8518 -1.3733
   81CHL1   C21 8452   0.609   5.253   8.178 -0.4459 -1.0338  0.0510
   81CHL1  H21A 8453   0.647   5.318   8.096 -1.2474  1.0832  1.2816
   81CHL1  H21B 8454   0.683   5.170   8.180  0.1631 -0.5940 -1.7825
   81CHL1  H21C 8455   0.628   5.311   8.272 -1.6265 -0.8998  0.2152
   81CHL1   C22 8456   0.419   5.121   8.286  0.7697  0.2234 -0.4838
   81CHL1  H22A 8457   0.412   5.193   8.370  1.7869 -0.7404  0.4442
   81CHL1  H22B 8458   0.313   5.088   8.271  1.0293 -0.4845 -0.7946
   81CHL1   C23 8459   0.501   4.998   8.329 -0.4161 -0.0772  0.2470
   81CHL1  H23A 8460   0.517   4.933   8.240  1.0965  1.1910 -0.4491
   81CHL1  H23B 8461   0.598   5.033   8.369 -0.2540 -0.6456  0.3680
   81CHL1   C24 8462   0.430   4.926   8.449 -0.0370  0.0426 -0.0415
   81CHL1  H24A 8463   0.389   4.992   8.527 -0.6385 -2.3521  1.7778
   81CHL1  H24B 8464   0.350   4.863   8.404  1.6056 -1.2051 -1.3512
   81CHL1   C25 8465   0.526   4.820   8.511 -0.0956  0.3963  0.1870
   81CHL1   H25 8466   0.630   4.858   8.516  0.4224 -0.9363 -0.0919
   81CHL1   C26 8467   0.484   4.789   8.655 -0.0019 -0.4213  0.6222
   81CHL1  H26A 8468   0.478   4.886   8.709  3.7805  0.4473 -0.2132
   81CHL1  H26B 8469   0.385   4.740   8.644 -1.8594  3.2091 -0.4122
   81CHL1  H26C 8470   0.557   4.716   8.695  1.2150 -1.0195 -2.3852
   81CHL1   C27 8471   0.534   4.703   8.416 -0.5272  0.4338  0.2507
   81CHL1  H27A 8472   0.437   4.651   8.399 -1.0409  1.6139 -0.5895
   81CHL1  H27B 8473   0.573   4.732   8.316  1.8454  1.4315  1.3903
   81CHL1  H27C 8474   0.599   4.621   8.453 -0.1057  1.9699  3.2077
   82CHL1    C3 8475   3.901   5.562   7.112  0.6813  0.1297 -0.1051
   82CHL1    H3 8476   3.801   5.515   7.121  0.0278  1.7946  3.5421
   82CHL1    O3 8477   3.946   5.593   6.984 -0.2862  0.6403  0.4101
   82CHL1   H3' 8478   3.871   5.636   6.941 -0.3990  1.4932  1.4234
   82CHL1    C4 8479   3.887   5.694   7.192 -0.0753  0.3048 -0.1953
   82CHL1   H4A 8480   3.991   5.734   7.187 -0.2599  1.2407  2.0948
   82CHL1   H4B 8481   3.818   5.770   7.150  0.2723 -0.5363 -2.4026
   82CHL1    C5 8482   3.862   5.673   7.341 -0.8208 -0.1984 -0.6622
   82CHL1    C6 8483   3.749   5.720   7.395  0.2326 -0.3129  0.1310
   82CHL1    H6 8484   3.690   5.797   7.342  0.4458 -0.4479 -0.3099
   82CHL1    C7 8485   3.704   5.711   7.539  0.2704  0.2192  0.1054
   82CHL1   H7A 8486   3.685   5.813   7.578 -3.9170 -0.0706 -0.7505
   82CHL1   H7B 8487   3.604   5.665   7.557  0.8406 -1.1740 -0.1371
   82CHL1    C8 8488   3.814   5.645   7.615 -0.2377 -0.5726 -0.5290
   82CHL1    H8 8489   3.879   5.731   7.643 -1.1137  0.2010 -0.8163
   82CHL1   C14 8490   3.752   5.593   7.746  0.4661  0.3260  0.4504
   82CHL1   H14 8491   3.687   5.507   7.717 -0.0123  1.1331 -0.9555
   82CHL1   C15 8492   3.659   5.688   7.828 -0.5828 -0.2540 -0.2145
   82CHL1  H15A 8493   3.708   5.787   7.814 -1.1955  0.1453  0.3485
   82CHL1  H15B 8494   3.557   5.698   7.785 -0.4236  0.0013 -0.5397
   82CHL1   C16 8495   3.679   5.642   7.977  0.0478  0.3880  0.5194
   82CHL1  H16A 8496   3.726   5.718   8.042  2.8406 -0.6617 -0.1306
   82CHL1  H16B 8497   3.580   5.615   8.019 -0.3422 -3.1505 -2.1604
   82CHL1   C17 8498   3.772   5.520   7.973  0.0243 -0.2130 -0.8493
   82CHL1   H17 8499   3.709   5.432   7.948  2.0292 -2.0887  0.3191
   82CHL1   C13 8500   3.857   5.550   7.848  0.1754  0.0356  0.4892
   82CHL1   C18 8501   3.957   5.657   7.890 -0.0440  0.1465  0.1573
   82CHL1  H18A 8502   4.027   5.624   7.969  0.7575  1.4113  0.0015
   82CHL1  H18B 8503   4.024   5.693   7.809 -2.2848  3.6934 -0.3276
   82CHL1  H18C 8504   3.901   5.740   7.938 -0.1964 -0.7133  1.5163
   82CHL1   C12 8505   3.926   5.429   7.781 -0.5411  0.2312 -0.3702
   82CHL1  H12A 8506   4.004   5.407   7.856 -1.4073  1.4436  0.9366
   82CHL1  H12B 8507   3.865   5.338   7.765  1.0106 -0.7931 -0.6148
   82CHL1   C11 8508   3.999   5.471   7.654 -0.4049 -0.8816  0.6442
   82CHL1  H11A 8509   4.086   5.535   7.677  0.5170 -1.4373 -1.1000
   82CHL1  H11B 8510   4.039   5.380   7.604 -0.3294  0.2315 -1.3988
   82CHL1    C9 8511   3.896   5.533   7.551  0.3832  0.0402  0.6824
   82CHL1    H9 8512   3.825   5.451   7.530  2.0539 -1.3388  0.1890
   82CHL1   C10 8513   3.956   5.565   7.410 -0.0666 -0.0407 -0.7691
   82CHL1   C19 8514   4.098   5.625   7.437 -0.0460  0.7154 -0.0852
   82CHL1  H19A 8515   4.092   5.712   7.505  1.5357 -1.4089  3.0223
   82CHL1  H19B 8516   4.171   5.550   7.474 -1.1949 -0.4410 -0.1119
   82CHL1  H19C 8517   4.136   5.649   7.335 -0.5505  0.3593 -0.3612
   82CHL1    C1 8518   3.971   5.432   7.327 -0.4998  0.4436  0.3373
   82CHL1   H1A 8519   4.044   5.367   7.381 -1.6496 -0.4112  0.9091
   82CHL1   H1B 8520   3.875   5.377   7.323 -0.6063  0.5173  1.5501
   82CHL1    C2 8521   4.005   5.464   7.181  0.8210 -0.3516 -0.4006
   82CHL1   H2A 8522   3.993   5.375   7.115  0.8076 -2.3558  2.1552
   82CHL1   H2B 8523   4.106   5.510   7.175  0.7870  0.0390  1.4886
   82CHL1   C20 8524   3.833   5.489   8.115 -0.1436 -0.2198 -0.2635
   82CHL1   H20 8525   3.922   5.554   8.132 -0.3714  0.0898 -0.2550
   82CHL1   C21 8526   3.873   5.347   8.118 -0.2038  0.2553  0.3409
   82CHL1  H21A 8527   3.780   5.286   8.112 -1.1528  1.7589 -2.0689
   82CHL1  H21B 8528   3.935   5.315   8.204  2.5423  0.4937 -1.4077
   82CHL1  H21C 8529   3.949   5.329   8.038  0.4175  0.2239  0.9332
   82CHL1   C22 8530   3.739   5.511   8.237 -0.8573  0.1539 -0.5729
   82CHL1  H22A 8531   3.637   5.509   8.192 -1.0391 -0.6007 -0.1370
   82CHL1  H22B 8532   3.731   5.420   8.300 -0.4990  0.3072 -0.3056
   82CHL1   C23 8533   3.779   5.613   8.338  0.2889 -0.6945 -0.6987
   82CHL1  H23A 8534   3.885   5.592   8.364  0.0374  1.2496  2.3434
   82CHL1  H23B 8535   3.779   5.719   8.303  0.1567 -0.1032  1.0122
   82CHL1   C24 8536   3.680   5.626   8.454 -0.3781 -0.2608 -0.0097
   82CHL1  H24A 8537   3.579   5.629   8.407  0.5020  2.3187 -1.9967
   82CHL1  H24B 8538   3.688   5.536   8.519 -2.1074 -0.2227  0.3069
   82CHL1   C25 8539   3.703   5.757   8.530 -0.2050 -0.2780 -0.1406
   82CHL1   H25 8540   3.679   5.838   8.458  0.8464 -1.1555 -1.5518
   82CHL1   C26 8541   3.597   5.760   8.637 -0.1718  0.3287 -0.8456
   82CHL1  H26A 8542   3.585   5.866   8.668 -0.9883  0.4287 -1.4727
   82CHL1  H26B 8543   3.497   5.725   8.605  0.4213 -1.5849 -0.7694
   82CHL1  H26C 8544   3.629   5.693   8.720 -1.8085  0.5214 -0.0171
   82CHL1   C27 8545   3.848   5.777   8.581  0.1842  0.1973  0.2396
   82CHL1  H27A 8546   3.849   5.834   8.676  2.3261 -1.1433  1.1095
   82CHL1  H27B 8547   3.891   5.676   8.598 -0.7606  0.2784  4.0559
   82CHL1  H27C 8548   3.911   5.830   8.506  0.4555  0.2829  0.5226
   83CHL1    C3 8549   5.178   6.675   7.066 -0.1623 -1.0412 -1.1951
   83CHL1    H3 8550   5.262   6.734   7.107 -0.2650 -2.5357  1.3509
   83CHL1    O3 8551   5.183   6.682   6.924  0.5335  0.1875  0.0045
   83CHL1   H3' 8552   5.238   6.758   6.906  0.5584 -0.1606 -1.5845
   83CHL1    C4 8553   5.186   6.527   7.121 -0.2728  0.4875 -0.0165
   83CHL1   H4A 8554   5.100   6.467   7.083  0.1297 -1.7723  2.3680
   83CHL1   H4B 8555   5.272   6.473   7.076 -0.8927  1.2615 -2.2869
   83CHL1    C5 8556   5.182   6.519   7.271 -0.3876 -0.9822 -0.1250
   83CHL1    C6 8557   5.274   6.449   7.336 -0.2464  0.0384  0.2127
   83CHL1    H6 8558   5.347   6.392   7.277 -1.3555  1.5116 -2.7833
   83CHL1    C7 8559   5.267   6.427   7.483  0.0811 -0.0365  0.2209
   83CHL1   H7A 8560   5.255   6.320   7.510 -2.4339 -0.0577 -0.7364
   83CHL1   H7B 8561   5.354   6.475   7.532 -1.8771  0.3310  3.6764
   83CHL1    C8 8562   5.142   6.484   7.554 -0.2857 -0.6425 -0.1573
   83CHL1    H8 8563   5.060   6.409   7.547  1.6590 -2.8073 -1.3425
   83CHL1   C14 8564   5.176   6.513   7.703  0.5060 -0.3768 -0.1835
   83CHL1   H14 8565   5.259   6.585   7.713  0.1626 -0.2763  2.7587
   83CHL1   C15 8566   5.231   6.390   7.785  1.1203 -0.0210  0.1233
   83CHL1  H15A 8567   5.169   6.298   7.772 -1.7904  1.7007  0.9900
   83CHL1  H15B 8568   5.335   6.353   7.768  0.0682 -2.5416 -1.4848
   83CHL1   C16 8569   5.211   6.432   7.934  0.1314  0.1558 -0.6001
   83CHL1  H16A 8570   5.170   6.350   7.998  0.4829  0.3041 -0.1812
   83CHL1  H16B 8571   5.312   6.464   7.966 -0.6741  0.7568  1.5098
   83CHL1   C17 8572   5.116   6.567   7.933 -0.5050 -0.4043  0.7778
   83CHL1   H17 8573   5.191   6.649   7.932 -2.1729  1.1920  0.7808
   83CHL1   C13 8574   5.054   6.568   7.782 -0.6354  0.1323 -0.3067
   83CHL1   C18 8575   4.940   6.459   7.786 -0.4089  0.1260  0.5983
   83CHL1  H18A 8576   4.898   6.447   7.684  2.9319 -1.5193 -0.7531
   83CHL1  H18B 8577   4.975   6.357   7.814  2.4081  0.6459 -0.7151
   83CHL1  H18C 8578   4.849   6.488   7.843 -1.6576  1.5786 -1.9498
   83CHL1   C12 8579   5.019   6.702   7.720  0.4375  0.6996 -0.9124
   83CHL1  H12A 8580   4.931   6.746   7.773  0.3507 -1.1088  0.5748
   83CHL1  H12B 8581   5.099   6.776   7.740  0.2589  0.2974  1.7711
   83CHL1   C11 8582   4.991   6.691   7.571 -0.0213  0.0752  0.1302
   83CHL1  H11A 8583   4.904   6.622   7.563  0.5576 -0.6508  0.0649
   83CHL1  H11B 8584   4.963   6.791   7.531  0.5780  1.2322  2.4840
   83CHL1    C9 8585   5.102   6.618   7.487 -0.4788 -0.7929 -0.0807
   83CHL1    H9 8586   5.192   6.683   7.482 -0.5462 -0.7054 -0.1664
   83CHL1   C10 8587   5.063   6.598   7.340 -0.3638 -0.8215  0.0933
   83CHL1   C19 8588   4.928   6.520   7.335 -0.2723 -0.5055 -0.5433
   83CHL1  H19A 8589   4.942   6.426   7.391  0.4757  0.2909  0.6529
   83CHL1  H19B 8590   4.839   6.582   7.359  0.0952 -0.6841  1.3943
   83CHL1  H19C 8591   4.910   6.503   7.226  1.8230 -2.2788 -0.6738
   83CHL1    C1 8592   5.047   6.737   7.270 -0.1646  0.5770 -0.4325
   83CHL1   H1A 8593   4.954   6.785   7.308 -0.9314 -0.3914 -1.0278
   83CHL1   H1B 8594   5.128   6.804   7.306  0.4370  0.0309 -0.7577
   83CHL1    C2 8595   5.045   6.737   7.114  0.1160  0.3612 -0.4734
   83CHL1   H2A 8596   5.040   6.841   7.076  0.6923 -0.1696 -2.0866
   83CHL1   H2B 8597   4.960   6.674   7.080  0.5282 -1.0438  0.9726
   83CHL1   C20 8598   5.021   6.569   8.052 -0.0612  0.1084 -0.6443
   83CHL1   H20 8599   4.972   6.469   8.052  0.9897 -0.5279  2.5701
   83CHL1   C21 8600   4.920   6.690   8.040 -0.0633  0.1707 -0.0507
   83CHL1  H21A 8601   4.975   6.781   8.007 -1.1525  0.4719 -1.0559
   83CHL1  H21B 8602   4.882   6.726   8.139  1.7401 -0.5586  0.9709
   83CHL1  H21C 8603   4.845   6.666   7.962 -1.3503 -0.3583  1.2935
   83CHL1   C22 8604   5.077   6.561   8.191  0.1241 -0.9057 -0.4910
   83CHL1  H22A 8605   5.166   6.495   8.189  0.8581  0.0958 -2.2007
   83CHL1  H22B 8606   5.103   6.667   8.213 -0.8216 -0.9970  1.2873
   83CHL1   C23 8607   4.989   6.507   8.307 -0.5029  0.5563 -0.0523
   83CHL1  H23A 8608   4.907   6.578   8.333 -2.1260 -1.4792  0.6657
   83CHL1  H23B 8609   4.936   6.413   8.278 -0.3442 -0.4662  2.7264
   83CHL1   C24 8610   5.070   6.484   8.433  0.3502 -0.6194 -1.0212
   83CHL1  H24A 8611   5.129   6.391   8.416 -1.9392 -2.2644 -0.4278
   83CHL1  H24B 8612   5.138   6.569   8.453 -2.0170  1.3480 -0.8462
   83CHL1   C25 8613   4.981   6.456   8.560 -0.0809 -0.4986  0.7099
   83CHL1   H25 8614   4.926   6.365   8.529 -0.2171  0.5252 -2.3418
   83CHL1   C26 8615   5.071   6.418   8.679 -0.0715 -0.6794  0.1051
   83CHL1  H26A 8616   5.136   6.333   8.650  2.3674  0.5241  1.6935
   83CHL1  H26B 8617   5.141   6.498   8.712  1.5508 -1.7772 -0.5664
   83CHL1  H26C 8618   5.003   6.385   8.760  0.3742 -0.9282  0.3843
   83CHL1   C27 8619   4.888   6.575   8.584  0.6905  0.2427  0.5244
   83CHL1  H27A 8620   4.940   6.672   8.567 -0.5082  0.5562 -1.6426
   83CHL1  H27B 8621   4.798   6.577   8.519  1.6647 -1.6698 -0.9669
   83CHL1  H27C 8622   4.845   6.579   8.687  1.5538  0.3959  0.8880
   84CHL1    C3 8623   3.604   2.895   6.868 -0.5520  0.2590  0.1463
   84CHL1    H3 8624   3.699   2.890   6.925  0.3598  2.3006 -1.0828
   84CHL1    O3 8625   3.649   2.905   6.732  0.9717  0.1708  0.1064
   84CHL1   H3' 8626   3.575   2.923   6.674 -0.0438 -1.8235  0.6722
   84CHL1    C4 8627   3.529   2.762   6.891  0.0102  0.2223 -0.6408
   84CHL1   H4A 8628   3.439   2.760   6.826  0.2403 -1.1281 -0.9440
   84CHL1   H4B 8629   3.594   2.680   6.856 -0.5891 -0.9301  0.8180
   84CHL1    C5 8630   3.483   2.750   7.034  0.1555 -0.1882 -0.5385
   84CHL1    C6 8631   3.521   2.647   7.113  0.0882 -0.5479 -0.3912
   84CHL1    H6 8632   3.572   2.562   7.065 -2.4501 -2.5291  0.1823
   84CHL1    C7 8633   3.475   2.628   7.254  0.0525  0.2182  0.9911
   84CHL1   H7A 8634   3.437   2.524   7.269 -3.8561  1.4419  0.7330
   84CHL1   H7B 8635   3.570   2.646   7.308  1.0369  0.1028 -0.6383
   84CHL1    C8 8636   3.364   2.722   7.300  0.0271  0.1881  0.0718
   84CHL1    H8 8637   3.272   2.684   7.251  0.3811 -0.4529 -0.1073
   84CHL1   C14 8638   3.361   2.724   7.453  0.6533 -0.8484  0.0138
   84CHL1   H14 8639   3.458   2.770   7.481 -1.0786  2.0988  1.6763
   84CHL1   C15 8640   3.346   2.590   7.529  0.0020  0.0804  0.3275
   84CHL1  H15A 8641   3.258   2.536   7.488 -1.6347  3.9065 -1.6834
   84CHL1  H15B 8642   3.434   2.523   7.518 -0.4401 -0.2597 -1.3270
   84CHL1   C16 8643   3.304   2.633   7.672 -0.6336 -0.1323  0.3423
   84CHL1  H16A 8644   3.212   2.577   7.698  1.1052 -1.2062  5.3141
   84CHL1  H16B 8645   3.382   2.613   7.749 -0.4610  0.0963  0.2246
   84CHL1   C17 8646   3.283   2.786   7.666  0.0705  0.3173 -0.1915
   84CHL1   H17 8647   3.378   2.835   7.694  0.2543  0.7399 -1.4710
   84CHL1   C13 8648   3.266   2.822   7.513  0.8482 -1.0491  0.2825
   84CHL1   C18 8649   3.120   2.789   7.467  0.7074 -0.0600  0.0828
   84CHL1  H18A 8650   3.107   2.783   7.357 -0.3134 -0.5877  0.2163
   84CHL1  H18B 8651   3.088   2.692   7.511  1.3596 -0.8520 -1.1513
   84CHL1  H18C 8652   3.053   2.872   7.497 -0.6013 -0.4734 -1.5784
   84CHL1   C12 8653   3.295   2.970   7.467  0.9896  0.1441 -0.8588
   84CHL1  H12A 8654   3.236   3.057   7.504  0.0310 -0.5296 -0.7783
   84CHL1  H12B 8655   3.400   2.991   7.497  0.5204  1.1477  0.1525
   84CHL1   C11 8656   3.298   2.977   7.309 -0.5859 -0.1315  0.0626
   84CHL1  H11A 8657   3.198   2.952   7.268  0.3198 -1.7323 -1.2913
   84CHL1  H11B 8658   3.335   3.081   7.291  0.9964  0.1753  3.9746
   84CHL1    C9 8659   3.381   2.863   7.245 -0.5336 -0.2018  0.6988
   84CHL1    H9 8660   3.482   2.875   7.289 -0.3115  0.6619 -0.0147
   84CHL1   C10 8661   3.401   2.864   7.088 -0.4707 -0.7682  0.4877
   84CHL1   C19 8662   3.259   2.861   7.023 -0.0717  0.4049 -0.6865
   84CHL1  H19A 8663   3.208   2.764   7.038  1.7127 -0.3711  0.7480
   84CHL1  H19B 8664   3.190   2.940   7.060 -0.1746 -0.1231  0.2804
   84CHL1  H19C 8665   3.269   2.865   6.912 -1.7210  4.5432 -0.8601
   84CHL1    C1 8666   3.469   3.002   7.051  0.9119 -0.1303 -0.2114
   84CHL1   H1A 8667   3.398   3.082   7.083 -0.3350 -1.2073 -0.1889
   84CHL1   H1B 8668   3.562   3.014   7.110  1.2524 -1.1750 -0.5199
   84CHL1    C2 8669   3.507   3.007   6.899  0.0543 -0.4356 -0.5038
   84CHL1   H2A 8670   3.557   3.098   6.860 -4.4185  1.8795 -1.4307
   84CHL1   H2B 8671   3.414   3.000   6.839  1.4693 -0.1399 -2.8372
   84CHL1   C20 8672   3.172   2.840   7.774 -0.0553  0.5203  0.4130
   84CHL1   H20 8673   3.078   2.794   7.737 -0.0214  1.4266 -0.8424
   84CHL1   C21 8674   3.161   2.985   7.757  0.2496  0.0957  0.4137
   84CHL1  H21A 8675   3.105   3.038   7.836  0.5909  0.2524  0.5565
   84CHL1  H21B 8676   3.109   3.005   7.661 -0.3607 -1.7498  0.3286
   84CHL1  H21C 8677   3.265   3.025   7.761  0.3478  0.3223 -2.2056
   84CHL1   C22 8678   3.198   2.798   7.921  0.1829  0.1588  0.0101
   84CHL1  H22A 8679   3.231   2.692   7.925 -1.9699 -0.6022 -1.1821
   84CHL1  H22B 8680   3.276   2.871   7.952  0.3629  0.3969 -0.9616
   84CHL1   C23 8681   3.070   2.801   7.998  0.2215 -0.7463  0.5761
   84CHL1  H23A 8682   3.027   2.903   7.996  0.6405 -0.5766 -0.0909
   84CHL1  H23B 8683   3.007   2.727   7.944  0.9823 -0.0099 -1.4252
   84CHL1   C24 8684   3.105   2.769   8.145  0.1461 -0.0724 -0.0910
   84CHL1  H24A 8685   3.180   2.688   8.148  0.9514  0.6875  1.1108
   84CHL1  H24B 8686   3.157   2.852   8.199  1.5713 -0.0442 -1.4477
   84CHL1   C25 8687   2.982   2.735   8.228  0.0405 -0.2903 -0.0223
   84CHL1   H25 8688   2.907   2.817   8.224 -1.7983 -1.9226 -0.5823
   84CHL1   C26 8689   2.903   2.606   8.187 -0.4545  0.0132  0.7328
   84CHL1  H26A 8690   2.979   2.530   8.160  1.3712  2.0691 -0.2188
   84CHL1  H26B 8691   2.838   2.567   8.268 -2.2895  1.5530  0.0884
   84CHL1  H26C 8692   2.848   2.627   8.092  1.1989  1.4246  0.0197
   84CHL1   C27 8693   3.035   2.720   8.380  0.1981  0.0463 -0.2749
   84CHL1  H27A 8694   2.960   2.679   8.451  1.3919 -1.5154  0.1734
   84CHL1  H27B 8695   3.121   2.649   8.380  0.2745  0.1142  1.0282
   84CHL1  H27C 8696   3.061   2.819   8.424 -1.3136  0.1319  0.4777
   85CHL1    C3 8697   3.085   2.397   6.827 -0.4962  0.3706  0.2375
   85CHL1    H3 8698   3.124   2.293   6.824  0.7468  0.8095  0.6431
   85CHL1    O3 8699   3.098   2.459   6.697 -0.3576  0.3244 -1.3027
   85CHL1   H3' 8700   3.192   2.452   6.680 -0.2223  0.0878 -0.4958
   85CHL1    C4 8701   2.939   2.388   6.861  0.1366  0.2744  0.3241
   85CHL1   H4A 8702   2.892   2.485   6.834  2.0951  0.7344 -1.7654
   85CHL1   H4B 8703   2.890   2.324   6.785  1.6256 -1.0260  0.4086
   85CHL1    C5 8704   2.910   2.355   7.003 -0.5587 -0.4823  0.1760
   85CHL1    C6 8705   2.821   2.257   7.030 -0.5577  0.1968 -0.6899
   85CHL1    H6 8706   2.775   2.210   6.941  0.9064 -0.3426 -1.1904
   85CHL1    C7 8707   2.790   2.209   7.172  0.4007  0.9059  0.1223
   85CHL1   H7A 8708   2.682   2.188   7.184  0.2975  1.7249  0.7317
   85CHL1   H7B 8709   2.844   2.112   7.176 -1.2504 -0.0096  1.7848
   85CHL1    C8 8710   2.827   2.313   7.277  0.4798 -0.0636 -0.6789
   85CHL1    H8 8711   2.751   2.390   7.252  0.0528 -0.0504  0.5806
   85CHL1   C14 8712   2.809   2.256   7.420  0.3904 -0.0128  0.2544
   85CHL1   H14 8713   2.881   2.172   7.429 -1.4628 -1.8217 -0.8469
   85CHL1   C15 8714   2.681   2.190   7.467  0.4326  0.7363 -0.0134
   85CHL1  H15A 8715   2.594   2.248   7.430 -0.3528 -0.4005  0.0096
   85CHL1  H15B 8716   2.685   2.093   7.412  2.0914  0.9862 -0.3866
   85CHL1   C16 8717   2.696   2.181   7.615  0.6839 -0.2961 -0.0701
   85CHL1  H16A 8718   2.609   2.236   7.659  1.9032  2.5650 -0.9710
   85CHL1  H16B 8719   2.704   2.078   7.655  1.2157 -0.3484 -0.2992
   85CHL1   C17 8720   2.816   2.273   7.654  0.4047 -0.2516 -0.5923
   85CHL1   H17 8721   2.906   2.209   7.669  1.0194  0.8695  0.7254
   85CHL1   C13 8722   2.843   2.360   7.529  0.9072 -0.0008 -0.4088
   85CHL1   C18 8723   2.742   2.485   7.518 -0.9343 -0.2400 -0.0380
   85CHL1  H18A 8724   2.727   2.523   7.415  1.4953  0.3034 -0.2555
   85CHL1  H18B 8725   2.638   2.475   7.554 -1.1876  0.0868 -0.6633
   85CHL1  H18C 8726   2.772   2.569   7.583  0.4596 -0.1455 -0.7546
   85CHL1   C12 8727   2.984   2.392   7.509  0.2014  0.3327 -0.5472
   85CHL1  H12A 8728   3.018   2.463   7.587 -0.9494 -0.5141  0.7718
   85CHL1  H12B 8729   3.049   2.302   7.507  1.9097  1.5265  0.0791
   85CHL1   C11 8730   3.010   2.460   7.371  0.7201 -0.5545 -0.9740
   85CHL1  H11A 8731   2.958   2.558   7.376 -1.2287 -1.5626 -0.4251
   85CHL1  H11B 8732   3.117   2.488   7.359 -0.2272  2.8993 -2.7615
   85CHL1    C9 8733   2.965   2.375   7.252 -0.6210  0.2138  0.1179
   85CHL1    H9 8734   3.029   2.284   7.256 -1.6117 -0.6268 -1.7730
   85CHL1   C10 8735   2.983   2.435   7.109  0.5341  0.3950 -0.4949
   85CHL1   C19 8736   2.923   2.577   7.125  0.0330 -0.3362  0.2674
   85CHL1  H19A 8737   2.823   2.576   7.172 -0.8534  4.8457 -0.8436
   85CHL1  H19B 8738   2.989   2.634   7.194 -2.7587  1.1643  1.8628
   85CHL1  H19C 8739   2.917   2.634   7.029  0.3251  0.2777  0.6070
   85CHL1    C1 8740   3.132   2.437   7.074 -0.3800 -0.6001  0.2146
   85CHL1   H1A 8741   3.179   2.502   7.151  1.1686 -2.6038  1.0674
   85CHL1   H1B 8742   3.172   2.333   7.081  0.1552 -0.3273  1.5261
   85CHL1    C2 8743   3.161   2.481   6.931 -0.4306 -0.1589 -0.5572
   85CHL1   H2A 8744   3.269   2.478   6.906  0.1341  0.6075  1.5759
   85CHL1   H2B 8745   3.147   2.591   6.925  4.4107  0.7431  0.1200
   85CHL1   C20 8746   2.797   2.333   7.799 -0.2263  0.2666  0.5271
   85CHL1   H20 8747   2.702   2.392   7.800 -2.3224 -2.7818 -1.6643
   85CHL1   C21 8748   2.916   2.430   7.836 -0.3416  0.2188  0.0515
   85CHL1  H21A 8749   2.887   2.465   7.937 -1.5633 -1.2689  0.2519
   85CHL1  H21B 8750   2.932   2.518   7.770  1.7147 -0.6928 -0.7620
   85CHL1  H21C 8751   3.011   2.374   7.855 -1.4269 -2.1475 -1.0770
   85CHL1   C22 8752   2.787   2.216   7.908  0.4311 -0.1242  0.1525
   85CHL1  H22A 8753   2.722   2.129   7.882  1.8471 -1.3052  0.3861
   85CHL1  H22B 8754   2.892   2.185   7.930  0.1982  0.7060  2.6924
   85CHL1   C23 8755   2.722   2.269   8.039  0.3416 -0.2897  0.4303
   85CHL1  H23A 8756   2.792   2.347   8.077  0.4130 -0.0926 -0.1050
   85CHL1  H23B 8757   2.625   2.319   8.020  1.1624  1.1499 -0.1286
   85CHL1   C24 8758   2.713   2.148   8.136 -0.2033 -0.7961  0.3404
   85CHL1  H24A 8759   2.673   2.059   8.082 -1.6617 -0.2012  0.4042
   85CHL1  H24B 8760   2.819   2.126   8.162 -0.2523 -2.3694 -0.6295
   85CHL1   C25 8761   2.633   2.186   8.266 -0.4814 -0.2721  0.2935
   85CHL1   H25 8762   2.525   2.197   8.242 -0.3537  0.1228 -0.1085
   85CHL1   C26 8763   2.640   2.070   8.374 -0.0359  0.5033  1.1140
   85CHL1  H26A 8764   2.607   2.121   8.467 -0.7024 -1.8958  2.2814
   85CHL1  H26B 8765   2.572   1.988   8.343 -0.7552  2.4093 -2.9356
   85CHL1  H26C 8766   2.742   2.036   8.405  0.3362  1.8853  1.4876
   85CHL1   C27 8767   2.692   2.317   8.331 -0.1191 -0.5258  0.2665
   85CHL1  H27A 8768   2.686   2.397   8.254 -1.0534  0.0515  0.9205
   85CHL1  H27B 8769   2.632   2.338   8.422 -0.8609  0.0548 -0.3434
   85CHL1  H27C 8770   2.795   2.296   8.366 -0.5492 -1.1970  1.1865
   86CHL1    C3 8771   5.882   3.521   7.116 -0.1948  0.3547 -0.7100
   86CHL1    H3 8772   5.827   3.617   7.122 -0.9063 -0.1356  1.0063
   86CHL1    O3 8773   5.869   3.473   6.984 -0.7493 -0.0739  0.1402
   86CHL1   H3' 8774   5.945   3.510   6.940 -0.5543  0.0161  0.5511
   86CHL1    C4 8775   6.022   3.528   7.156  0.1887  0.0297  0.8093
   86CHL1   H4A 8776   6.077   3.433   7.135  0.2283  0.5105 -1.5773
   86CHL1   H4B 8777   6.071   3.606   7.094  0.2407  0.5862  1.5461
   86CHL1    C5 8778   6.059   3.568   7.295 -0.0757 -0.0179 -0.6096
   86CHL1    C6 8779   6.149   3.662   7.334  0.5969 -0.6022  0.2914
   86CHL1    H6 8780   6.197   3.724   7.256 -0.3611 -0.1304  0.0585
   86CHL1    C7 8781   6.193   3.683   7.469  0.2247  0.8498  0.8420
   86CHL1   H7A 8782   6.304   3.688   7.473  0.4041 -1.0948 -0.4465
   86CHL1   H7B 8783   6.148   3.778   7.505 -0.2973  0.8493  0.2011
   86CHL1    C8 8784   6.146   3.576   7.575 -0.2522 -0.3432 -0.0332
   86CHL1    H8 8785   6.205   3.484   7.555 -0.9395 -0.4904 -1.5453
   86CHL1   C14 8786   6.157   3.620   7.721  0.2176  0.2190  0.1330
   86CHL1   H14 8787   6.090   3.708   7.734  0.2639  0.2135  0.4006
   86CHL1   C15 8788   6.295   3.658   7.773  0.6671 -0.9346 -0.3023
   86CHL1  H15A 8789   6.381   3.603   7.729  2.8796  0.7673  1.6042
   86CHL1  H15B 8790   6.309   3.764   7.741  0.0088 -1.0041 -0.8470
   86CHL1   C16 8791   6.286   3.651   7.931 -1.3737 -0.5858  0.9150
   86CHL1  H16A 8792   6.372   3.588   7.963 -1.0090 -1.2169 -1.1704
   86CHL1  H16B 8793   6.308   3.752   7.973  2.4616 -1.3723  1.2327
   86CHL1   C17 8794   6.144   3.587   7.959 -0.4622 -0.1063  0.4631
   86CHL1   H17 8795   6.068   3.665   7.980  1.5870  1.6097  1.7878
   86CHL1   C13 8796   6.106   3.515   7.824 -0.4222  0.1451 -0.5647
   86CHL1   C18 8797   6.190   3.386   7.812  0.8637 -0.2917 -0.5834
   86CHL1  H18A 8798   6.187   3.340   7.711  2.1608 -0.5129 -0.5336
   86CHL1  H18B 8799   6.297   3.396   7.838  0.5149 -1.7643  1.7217
   86CHL1  H18C 8800   6.151   3.308   7.880 -0.0897 -1.9516 -2.8759
   86CHL1   C12 8801   5.963   3.487   7.801  0.3552 -0.0441  0.2104
   86CHL1  H12A 8802   5.911   3.414   7.867 -0.0999  1.6046  1.7521
   86CHL1  H12B 8803   5.916   3.586   7.820  1.8154  0.4987  1.0849
   86CHL1   C11 8804   5.932   3.439   7.656 -0.1942  0.0996 -0.4619
   86CHL1  H11A 8805   5.963   3.333   7.647 -1.8367 -0.6941  2.2173
   86CHL1  H11B 8806   5.822   3.433   7.642 -0.3576  0.5223  0.5556
   86CHL1    C9 8807   6.000   3.530   7.544 -0.0430  0.2882 -0.2691
   86CHL1    H9 8808   5.939   3.622   7.558 -0.4136 -0.1753  1.2608
   86CHL1   C10 8809   5.990   3.470   7.391 -0.4801  0.0444 -0.3001
   86CHL1   C19 8810   6.057   3.331   7.382  0.4695 -0.1006  0.4729
   86CHL1  H19A 8811   6.053   3.280   7.283  0.9177 -2.9995  1.8488
   86CHL1  H19B 8812   6.162   3.334   7.417 -0.3631 -0.5316  3.2415
   86CHL1  H19C 8813   6.008   3.260   7.451  1.9564 -0.8765  0.7650
   86CHL1    C1 8814   5.839   3.457   7.355  0.7497 -0.0804  0.1730
   86CHL1   H1A 8815   5.790   3.377   7.414 -0.9805  1.5720  1.0649
   86CHL1   H1B 8816   5.793   3.556   7.372 -0.2856 -0.3193 -1.0996
   86CHL1    C2 8817   5.822   3.418   7.207  0.5455  0.0461 -0.2449
   86CHL1   H2A 8818   5.712   3.412   7.195  0.3662 -1.2060  1.5461
   86CHL1   H2B 8819   5.868   3.318   7.190 -1.6652 -1.0536 -0.1768
   86CHL1   C20 8820   6.140   3.509   8.095  0.0046  0.1346 -0.0964
   86CHL1   H20 8821   6.182   3.407   8.084 -0.3626  0.0968 -1.3094
   86CHL1   C21 8822   6.000   3.488   8.145 -0.1580 -0.1968 -0.5461
   86CHL1  H21A 8823   5.943   3.427   8.072 -0.7590 -0.0383 -0.2198
   86CHL1  H21B 8824   5.948   3.586   8.148 -1.5196 -0.8688 -1.0886
   86CHL1  H21C 8825   5.996   3.444   8.247  1.2578  0.0434 -0.3677
   86CHL1   C22 8826   6.213   3.584   8.205 -0.0877 -0.1530  0.2792
   86CHL1  H22A 8827   6.191   3.531   8.300  3.2013  1.5333  2.1672
   86CHL1  H22B 8828   6.322   3.594   8.187 -0.7130  0.1990 -4.5941
   86CHL1   C23 8829   6.164   3.720   8.251 -0.2980  1.3809  0.0989
   86CHL1  H23A 8830   6.155   3.787   8.163  2.7194  1.2339 -0.4310
   86CHL1  H23B 8831   6.063   3.704   8.293  0.7799 -0.6027  2.1593
   86CHL1   C24 8832   6.253   3.778   8.363 -0.5140 -0.0111  0.4913
   86CHL1  H24A 8833   6.231   3.712   8.449  0.0249 -0.2381  0.4547
   86CHL1  H24B 8834   6.363   3.782   8.346 -0.8870  2.0050 -2.1006
   86CHL1   C25 8835   6.199   3.921   8.408 -0.0923  0.0929 -0.1310
   86CHL1   H25 8836   6.089   3.915   8.420 -0.0316 -1.0344  0.0249
   86CHL1   C26 8837   6.256   3.975   8.543  0.0689 -0.2686  0.4617
   86CHL1  H26A 8838   6.244   4.086   8.545 -1.5990 -0.4029 -0.4837
   86CHL1  H26B 8839   6.197   3.935   8.629 -1.4116  0.7309 -0.0460
   86CHL1  H26C 8840   6.359   3.941   8.568 -0.9377 -0.3409  5.4480
   86CHL1   C27 8841   6.246   4.020   8.295 -0.2472 -0.6406 -0.0829
   86CHL1  H27A 8842   6.241   3.972   8.195  2.6844 -0.2722 -0.4842
   86CHL1  H27B 8843   6.187   4.114   8.296  0.1268 -0.4086  0.3477
   86CHL1  H27C 8844   6.352   4.046   8.317 -0.0632  0.0679 -1.6828
   87CHL1    C3 8845   4.652   1.576   6.819  0.1899 -1.2030 -0.0173
   87CHL1    H3 8846   4.646   1.687   6.830  0.5244 -0.9464 -2.0590
   87CHL1    O3 8847   4.675   1.534   6.684 -0.1659  0.4618  0.4433
   87CHL1   H3' 8848   4.735   1.459   6.691  1.3425  1.6280  0.5587
   87CHL1    C4 8849   4.765   1.523   6.907  0.0911 -0.4058 -0.3995
   87CHL1   H4A 8850   4.783   1.414   6.891 -2.0784 -1.2271  2.0028
   87CHL1   H4B 8851   4.859   1.574   6.878  0.7084 -1.9191 -1.1410
   87CHL1    C5 8852   4.746   1.542   7.054 -0.4221  0.2870  0.5888
   87CHL1    C6 8853   4.829   1.618   7.131 -0.7416 -0.3783 -0.2383
   87CHL1    H6 8854   4.918   1.667   7.088 -1.9866  1.4084 -0.9024
   87CHL1    C7 8855   4.824   1.635   7.281  0.6203  0.6127 -0.1591
   87CHL1   H7A 8856   4.923   1.628   7.332  0.4142 -1.0275  0.0588
   87CHL1   H7B 8857   4.767   1.728   7.305  0.4094  0.2233  0.8978
   87CHL1    C8 8858   4.727   1.526   7.345 -1.0218  0.0313 -0.0304
   87CHL1    H8 8859   4.784   1.431   7.344  0.5758  0.9426  1.0348
   87CHL1   C14 8860   4.698   1.561   7.485  0.3873 -0.4432  0.0080
   87CHL1   H14 8861   4.650   1.660   7.475 -1.4444 -1.4306 -1.7287
   87CHL1   C15 8862   4.813   1.588   7.585  0.2521 -0.3317  0.0807
   87CHL1  H15A 8863   4.879   1.498   7.586  1.6208  0.5478 -2.3649
   87CHL1  H15B 8864   4.879   1.674   7.564  0.8843 -1.3982 -2.7549
   87CHL1   C16 8865   4.744   1.592   7.722 -0.0197  0.5851  0.0160
   87CHL1  H16A 8866   4.793   1.515   7.785 -1.5626  0.5145  1.2118
   87CHL1  H16B 8867   4.747   1.687   7.780  1.2697 -0.0454  1.0195
   87CHL1   C17 8868   4.598   1.534   7.700  0.8764 -0.7173 -0.3661
   87CHL1   H17 8869   4.539   1.629   7.695  1.1853 -0.3784  1.5235
   87CHL1   C13 8870   4.594   1.473   7.556  0.4405  0.3181 -0.0190
   87CHL1   C18 8871   4.662   1.334   7.568 -0.4766  0.5563 -0.0716
   87CHL1  H18A 8872   4.705   1.291   7.475 -0.5720 -0.9114  0.5347
   87CHL1  H18B 8873   4.745   1.334   7.642  2.2631  2.0492 -2.9076
   87CHL1  H18C 8874   4.588   1.263   7.611  0.7557 -0.5589  0.2907
   87CHL1   C12 8875   4.463   1.468   7.471  0.6462  0.1607  0.7763
   87CHL1  H12A 8876   4.387   1.401   7.518  2.3798 -1.5568  1.2699
   87CHL1  H12B 8877   4.418   1.569   7.460  2.5092  0.9069 -0.4494
   87CHL1   C11 8878   4.490   1.425   7.325  0.1223  0.5457 -0.5255
   87CHL1  H11A 8879   4.507   1.315   7.325  0.7975  0.6447 -0.0621
   87CHL1  H11B 8880   4.401   1.426   7.258  0.9676  0.3469 -1.6860
   87CHL1    C9 8881   4.600   1.512   7.259  0.6514 -0.0870 -0.4291
   87CHL1    H9 8882   4.557   1.614   7.259 -0.2300 -0.4320  0.7244
   87CHL1   C10 8883   4.615   1.477   7.109  0.2196 -0.1874  0.8900
   87CHL1   C19 8884   4.612   1.323   7.098 -0.1384 -0.3047 -0.0155
   87CHL1  H19A 8885   4.663   1.281   7.008 -1.8714  0.6992 -1.5576
   87CHL1  H19B 8886   4.670   1.273   7.177 -0.4598 -0.5292  0.0809
   87CHL1  H19C 8887   4.506   1.288   7.091 -0.3371  0.5467 -2.3696
   87CHL1    C1 8888   4.505   1.543   7.020 -0.3866  0.9255 -0.4130
   87CHL1   H1A 8889   4.408   1.493   7.039  1.0575 -1.6075  0.8922
   87CHL1   H1B 8890   4.499   1.650   7.048 -0.3474  0.2891  2.2490
   87CHL1    C2 8891   4.520   1.523   6.868 -0.6267 -0.9419 -0.4616
   87CHL1   H2A 8892   4.448   1.577   6.803 -1.0812  2.1757  2.3673
   87CHL1   H2B 8893   4.517   1.413   6.851 -1.9601 -0.7572 -1.6444
   87CHL1   C20 8894   4.542   1.461   7.823  0.3092  0.0239 -0.4496
   87CHL1   H20 8895   4.588   1.361   7.841 -2.9189 -1.6937 -1.0386
   87CHL1   C21 8896   4.388   1.434   7.808  0.0609  0.3919 -0.3929
   87CHL1  H21A 8897   4.365   1.376   7.716  1.7183 -0.3861 -0.3702
   87CHL1  H21B 8898   4.341   1.534   7.813  2.0116  1.3127  0.9026
   87CHL1  H21C 8899   4.360   1.370   7.895  0.9033  0.5635  0.0167
   87CHL1   C22 8900   4.576   1.544   7.948 -0.1392 -0.2645 -0.3952
   87CHL1  H22A 8901   4.683   1.537   7.976 -0.4130  4.6009  3.2262
   87CHL1  H22B 8902   4.561   1.653   7.935 -0.3748 -0.3597 -0.9439
   87CHL1   C23 8903   4.500   1.497   8.078  0.4725  0.1272 -0.0136
   87CHL1  H23A 8904   4.393   1.516   8.057  0.9158  0.7319 -1.9391
   87CHL1  H23B 8905   4.521   1.389   8.095 -0.7763 -0.1370 -0.0529
   87CHL1   C24 8906   4.540   1.578   8.205  0.1861 -0.8669  0.0785
   87CHL1  H24A 8907   4.649   1.562   8.219  0.2716 -1.6760 -1.3621
   87CHL1  H24B 8908   4.523   1.683   8.173  1.2071 -1.1625 -1.5121
   87CHL1   C25 8909   4.471   1.538   8.340  0.3412 -0.5807  0.2035
   87CHL1   H25 8910   4.519   1.441   8.363 -1.3638 -1.8124 -1.1907
   87CHL1   C26 8911   4.489   1.642   8.442 -0.2491  0.2896 -0.1705
   87CHL1  H26A 8912   4.456   1.607   8.542 -2.0173  1.3414 -0.3338
   87CHL1  H26B 8913   4.595   1.673   8.452  0.1275 -1.2382  0.9187
   87CHL1  H26C 8914   4.427   1.731   8.416 -1.0528 -0.2408 -0.1087
   87CHL1   C27 8915   4.323   1.516   8.328  0.0390 -0.0673  0.9476
   87CHL1  H27A 8916   4.289   1.434   8.261  0.3303  1.5206 -1.2542
   87CHL1  H27B 8917   4.267   1.510   8.424 -3.1955  0.3901 -0.7872
   87CHL1  H27C 8918   4.280   1.612   8.296  0.3158 -0.4092 -0.5290
   88CHL1    C3 8919   1.311   6.331   7.234 -0.3526 -0.5845  0.7745
   88CHL1    H3 8920   1.228   6.259   7.251 -0.4507 -0.3996  1.0994
   88CHL1    O3 8921   1.363   6.320   7.105  0.2685  0.0257 -0.4324
   88CHL1   H3' 8922   1.385   6.227   7.100 -1.3585 -0.3762 -0.9147
   88CHL1    C4 8923   1.262   6.477   7.262 -1.0869 -1.0096 -0.0885
   88CHL1   H4A 8924   1.347   6.543   7.233 -0.7823 -0.9249  0.9776
   88CHL1   H4B 8925   1.179   6.501   7.192  0.0068  1.2917 -0.6785
   88CHL1    C5 8926   1.227   6.498   7.406  0.4455  0.7644 -0.1550
   88CHL1    C6 8927   1.113   6.561   7.442 -0.0725  0.4277 -0.1141
   88CHL1    H6 8928   1.050   6.605   7.363  1.4872  0.5933 -1.3038
   88CHL1    C7 8929   1.072   6.589   7.576 -0.3917 -0.3010  0.1294
   88CHL1   H7A 8930   1.047   6.697   7.582 -1.8526 -0.5109 -1.4654
   88CHL1   H7B 8931   0.980   6.528   7.587  0.6572 -1.8562  0.7081
   88CHL1    C8 8932   1.182   6.566   7.679  0.0749 -0.0802  0.1348
   88CHL1    H8 8933   1.255   6.649   7.672  1.8408 -1.1831  3.6265
   88CHL1   C14 8934   1.134   6.567   7.821 -0.5003 -0.2086 -0.1096
   88CHL1   H14 8935   1.056   6.488   7.826  0.5076 -1.1765  1.7485
   88CHL1   C15 8936   1.061   6.687   7.879  0.3879 -0.2213  0.4289
   88CHL1  H15A 8937   1.118   6.779   7.855  0.6379 -0.2768  0.7946
   88CHL1  H15B 8938   0.957   6.708   7.845  1.0331  1.8568 -0.4056
   88CHL1   C16 8939   1.063   6.674   8.032 -0.0075 -0.2487 -0.5112
   88CHL1  H16A 8940   1.115   6.764   8.072 -2.0800  1.2518 -1.0104
   88CHL1  H16B 8941   0.964   6.665   8.082  1.1692 -1.6934  1.7178
   88CHL1   C17 8942   1.147   6.544   8.056  0.8931 -0.1891 -0.1589
   88CHL1   H17 8943   1.071   6.464   8.043 -0.1737  0.7288  0.1549
   88CHL1   C13 8944   1.227   6.522   7.931  0.1608  0.1627  0.2492
   88CHL1   C18 8945   1.347   6.619   7.943  0.3494  0.0178 -0.4941
   88CHL1  H18A 8946   1.371   6.655   7.840 -2.1866  0.1485 -1.1160
   88CHL1  H18B 8947   1.317   6.706   8.005  1.9818  0.5097 -0.3459
   88CHL1  H18C 8948   1.430   6.569   7.996  0.9332  0.0629 -1.3444
   88CHL1   C12 8949   1.278   6.379   7.903  0.7432 -0.3902 -0.3421
   88CHL1  H12A 8950   1.343   6.334   7.981 -0.0470 -0.5312  0.2420
   88CHL1  H12B 8951   1.189   6.313   7.894 -0.5432  1.4543 -1.9523
   88CHL1   C11 8952   1.343   6.380   7.766  0.3492 -0.4112 -0.1236
   88CHL1  H11A 8953   1.435   6.438   7.786 -0.5200  0.3210  2.0213
   88CHL1  H11B 8954   1.369   6.275   7.742  1.3601  0.0887 -1.3336
   88CHL1    C9 8955   1.259   6.440   7.649 -0.5240 -0.1742 -0.1510
   88CHL1    H9 8956   1.181   6.361   7.636  0.3477 -1.4244  1.7426
   88CHL1   C10 8957   1.333   6.447   7.511  0.3706 -0.8236  0.2951
   88CHL1   C19 8958   1.457   6.533   7.522 -0.9274  0.0200  0.3431
   88CHL1  H19A 8959   1.504   6.530   7.421 -0.7825 -0.8363  0.4248
   88CHL1  H19B 8960   1.426   6.637   7.543  0.1316  0.8206 -1.7455
   88CHL1  H19C 8961   1.543   6.496   7.582  0.6961  1.7715 -0.7964
   88CHL1    C1 8962   1.372   6.304   7.471 -0.4916  0.1050  0.2727
   88CHL1   H1A 8963   1.458   6.270   7.533 -0.5339 -3.6297 -1.4368
   88CHL1   H1B 8964   1.289   6.234   7.494  0.3323 -0.1950  2.5620
   88CHL1    C2 8965   1.421   6.283   7.328  0.1183  0.0069 -0.3121
   88CHL1   H2A 8966   1.458   6.180   7.309  0.2639  0.0526 -0.2752
   88CHL1   H2B 8967   1.505   6.353   7.309 -1.2853  1.5009 -1.3372
   88CHL1   C20 8968   1.214   6.518   8.193  0.3694  0.6731  0.8565
   88CHL1   H20 8969   1.295   6.445   8.171 -1.8866 -2.1043  1.2013
   88CHL1   C21 8970   1.104   6.446   8.277  0.2606  0.1662  0.4383
   88CHL1  H21A 8971   1.067   6.355   8.226 -1.9340  0.7900  0.7893
   88CHL1  H21B 8972   1.012   6.508   8.285 -0.3330 -0.3894 -1.4658
   88CHL1  H21C 8973   1.148   6.436   8.379  2.3613 -1.3966 -0.5520
   88CHL1   C22 8974   1.275   6.643   8.274  0.1403 -0.7589 -0.3270
   88CHL1  H22A 8975   1.326   6.725   8.219  1.7872 -0.5886  1.3409
   88CHL1  H22B 8976   1.187   6.684   8.328  0.3218 -3.0417  1.8974
   88CHL1   C23 8977   1.369   6.598   8.387 -1.1470 -0.4977  0.2229
   88CHL1  H23A 8978   1.324   6.527   8.460  1.5942 -2.1293  0.4387
   88CHL1  H23B 8979   1.462   6.549   8.350 -0.1610  1.1101  0.4947
   88CHL1   C24 8980   1.419   6.705   8.482 -0.0129 -0.1636 -1.1268
   88CHL1  H24A 8981   1.329   6.731   8.542  0.9906 -2.4237  1.6098
   88CHL1  H24B 8982   1.483   6.660   8.561 -1.2939  1.6079  1.0360
   88CHL1   C25 8983   1.485   6.832   8.424  0.6124 -0.0856 -0.4933
   88CHL1   H25 8984   1.420   6.865   8.340  1.6840  2.5449 -0.3939
   88CHL1   C26 8985   1.502   6.928   8.543 -0.0929  0.3082  0.4517
   88CHL1  H26A 8986   1.408   6.980   8.570  0.0746  0.7918  0.1280
   88CHL1  H26B 8987   1.546   6.861   8.619 -1.8677 -3.5216 -1.6037
   88CHL1  H26C 8988   1.579   7.004   8.517 -2.9043  2.3475 -2.9712
   88CHL1   C27 8989   1.623   6.787   8.379  0.2149  0.0734  1.0725
   88CHL1  H27A 8990   1.677   6.874   8.337 -1.7604  1.3772  1.1454
   88CHL1  H27B 8991   1.681   6.754   8.468  1.0197  0.8068  0.8392
   88CHL1  H27C 8992   1.603   6.703   8.309 -0.3897 -0.2912  1.6748
   89CHL1    C3 8993   4.387   2.062   7.103  0.2631  0.0564 -0.1015
   89CHL1    H3 8994   4.284   2.098   7.119  0.9958  1.8057  0.9318
   89CHL1    O3 8995   4.416   2.081   6.963  0.1830 -0.2565 -0.0108
   89CHL1   H3' 8996   4.502   2.039   6.952  0.9655  0.6212  2.2398
   89CHL1    C4 8997   4.497   2.139   7.186  0.2837  0.0443 -0.2549
   89CHL1   H4A 8998   4.587   2.080   7.159 -0.0061  0.1064 -1.4576
   89CHL1   H4B 8999   4.507   2.238   7.136 -1.2410  0.8149  0.8716
   89CHL1    C5 9000   4.457   2.132   7.331  0.2435  0.1984 -0.5905
   89CHL1    C6 9001   4.453   2.235   7.411 -0.4646 -0.1104 -0.3728
   89CHL1    H6 9002   4.478   2.332   7.365 -1.9284 -0.5097 -2.0861
   89CHL1    C7 9003   4.424   2.237   7.559 -0.1016  0.1631 -0.1612
   89CHL1   H7A 9004   4.507   2.274   7.623 -0.0733 -0.0622 -0.0642
   89CHL1   H7B 9005   4.337   2.302   7.578 -0.5365  0.0868 -1.7106
   89CHL1    C8 9006   4.410   2.094   7.623  0.1264  0.2125 -0.3178
   89CHL1    H8 9007   4.515   2.064   7.644  0.5530  2.5796  1.3782
   89CHL1   C14 9008   4.326   2.104   7.751  0.1605  0.2906 -0.0060
   89CHL1   H14 9009   4.228   2.144   7.716 -0.2636  0.1205  0.9528
   89CHL1   C15 9010   4.357   2.213   7.861  0.1555  0.9234 -0.2702
   89CHL1  H15A 9011   4.465   2.236   7.866  0.4813 -0.5905  0.1603
   89CHL1  H15B 9012   4.299   2.306   7.844  0.5076  1.2432  0.2813
   89CHL1   C16 9013   4.298   2.146   7.991  0.2689  0.1403 -0.0788
   89CHL1  H16A 9014   4.385   2.124   8.056  0.8701 -0.1612 -0.9636
   89CHL1  H16B 9015   4.227   2.214   8.044  0.1978 -0.7691  1.0256
   89CHL1   C17 9016   4.235   2.015   7.946 -0.3629  0.7508  0.3112
   89CHL1   H17 9017   4.130   2.031   7.913 -0.3314  2.1377  0.8178
   89CHL1   C13 9018   4.310   1.970   7.822 -0.3891 -0.3344  0.6251
   89CHL1   C18 9019   4.449   1.917   7.863 -0.1651 -0.5601  0.5654
   89CHL1  H18A 9020   4.515   1.909   7.774 -0.8593  0.8243 -0.1080
   89CHL1  H18B 9021   4.492   1.989   7.936  0.5377 -0.2801 -0.1154
   89CHL1  H18C 9022   4.446   1.815   7.907  1.4882 -0.0749  1.9070
   89CHL1   C12 9023   4.240   1.876   7.722  0.3692  0.2938 -0.1424
   89CHL1  H12A 9024   4.203   1.783   7.770  0.5579  0.2182 -0.1430
   89CHL1  H12B 9025   4.149   1.934   7.700 -0.4400 -0.8091  0.2014
   89CHL1   C11 9026   4.311   1.863   7.592  0.0346  0.4447 -0.2231
   89CHL1  H11A 9027   4.411   1.815   7.607 -0.5293 -0.5760  0.3767
   89CHL1  H11B 9028   4.249   1.799   7.526 -1.8378  0.5408  1.3676
   89CHL1    C9 9029   4.339   1.998   7.522 -0.0632 -0.3800 -0.1439
   89CHL1    H9 9030   4.238   2.044   7.519  0.5101  1.3770  2.7856
   89CHL1   C10 9031   4.415   1.991   7.385 -0.1681 -0.3260  0.0999
   89CHL1   C19 9032   4.551   1.920   7.388  0.0728 -1.1151 -0.4163
   89CHL1  H19A 9033   4.553   1.817   7.429  0.6235 -2.0051 -2.5349
   89CHL1  H19B 9034   4.592   1.907   7.285 -0.3093  0.1610 -0.7444
   89CHL1  H19C 9035   4.629   1.972   7.448  0.5724 -1.7346 -0.5149
   89CHL1    C1 9036   4.330   1.905   7.285  0.4766  0.5498  0.0380
   89CHL1   H1A 9037   4.340   1.799   7.318 -0.4376  0.4426  0.0014
   89CHL1   H1B 9038   4.225   1.940   7.300  0.5258  1.0597 -0.7917
   89CHL1    C2 9039   4.371   1.918   7.142  0.4453 -0.2687  0.3690
   89CHL1   H2A 9040   4.298   1.870   7.073  0.6654  0.1096 -0.1381
   89CHL1   H2B 9041   4.466   1.866   7.117  0.4423 -0.3775  0.5808
   89CHL1   C20 9042   4.230   1.922   8.073 -0.6311  0.6041  0.6380
   89CHL1   H20 9043   4.336   1.903   8.099 -0.2082  0.4072 -1.1299
   89CHL1   C21 9044   4.158   1.784   8.022 -0.3964 -0.3740 -0.4368
   89CHL1  H21A 9045   4.124   1.738   8.118  0.6513  2.4562  1.4158
   89CHL1  H21B 9046   4.223   1.713   7.966  0.0449 -1.2889  1.1506
   89CHL1  H21C 9047   4.068   1.809   7.963 -0.2766  0.4476 -0.2856
   89CHL1   C22 9048   4.154   1.979   8.198 -0.0504  0.5501  0.4189
   89CHL1  H22A 9049   4.199   2.079   8.217 -3.0112  2.3544 -1.3706
   89CHL1  H22B 9050   4.052   2.012   8.170  1.0530  3.3100 -0.7232
   89CHL1   C23 9051   4.167   1.895   8.331  0.3748  0.0306  0.6952
   89CHL1  H23A 9052   4.120   1.795   8.325  1.1600 -0.3283  0.3332
   89CHL1  H23B 9053   4.278   1.885   8.338  0.7433  0.6262 -2.5752
   89CHL1   C24 9054   4.120   1.961   8.458 -0.2771 -1.2750  0.2877
   89CHL1  H24A 9055   4.190   2.043   8.487  2.3711 -2.8987 -1.0879
   89CHL1  H24B 9056   4.021   2.007   8.436  0.7606  0.1995 -1.5844
   89CHL1   C25 9057   4.108   1.872   8.583  0.5312 -0.0387  0.3782
   89CHL1   H25 9058   4.209   1.828   8.589  1.3451  1.6725  0.0387
   89CHL1   C26 9059   4.071   1.944   8.718  0.0896  0.5502  0.7651
   89CHL1  H26A 9060   3.961   1.955   8.722 -0.0206  0.4810 -1.0829
   89CHL1  H26B 9061   4.095   1.871   8.798  2.7865 -1.0965 -1.3280
   89CHL1  H26C 9062   4.130   2.038   8.731  0.5913  0.7804 -2.2485
   89CHL1   C27 9063   4.007   1.765   8.565  0.5572  0.7493 -0.2444
   89CHL1  H27A 9064   3.991   1.712   8.661  1.3245 -1.3977 -1.2224
   89CHL1  H27B 9065   3.913   1.814   8.531  0.4507  0.3462 -0.5452
   89CHL1  H27C 9066   4.042   1.690   8.491 -1.6852 -2.3734  1.6494
   90CHL1    C3 9067   2.730   4.464   7.011  0.4937  0.1887 -0.0597
   90CHL1    H3 9068   2.762   4.569   7.022 -0.2721  0.4537 -0.3082
   90CHL1    O3 9069   2.712   4.441   6.863 -0.0248 -0.1138 -0.2466
   90CHL1   H3' 9070   2.692   4.347   6.859 -0.9310  0.0931 -1.2191
   90CHL1    C4 9071   2.825   4.364   7.080  0.0663 -0.0437  0.8510
   90CHL1   H4A 9072   2.784   4.265   7.053  0.2635 -0.0108  0.4185
   90CHL1   H4B 9073   2.927   4.382   7.038 -0.1854  0.3083  0.3857
   90CHL1    C5 9074   2.819   4.385   7.234  0.2982  0.1464 -0.2353
   90CHL1    C6 9075   2.931   4.408   7.299  0.4014  0.1307  0.6183
   90CHL1    H6 9076   3.019   4.423   7.235 -0.3882  3.2478  0.0768
   90CHL1    C7 9077   2.938   4.433   7.451  0.6436  0.0730 -0.3836
   90CHL1   H7A 9078   3.021   4.370   7.489  0.1367 -0.1208  0.4207
   90CHL1   H7B 9079   2.962   4.540   7.472 -0.1936  0.3091 -0.5670
   90CHL1    C8 9080   2.806   4.393   7.520  0.0433  0.0273 -0.1183
   90CHL1    H8 9081   2.808   4.282   7.528  0.6636  0.0821  0.6181
   90CHL1   C14 9082   2.807   4.455   7.662  0.0847  0.3570 -0.0246
   90CHL1   H14 9083   2.772   4.560   7.653 -0.2193  0.4244  1.6709
   90CHL1   C15 9084   2.943   4.450   7.735  0.1677 -0.3662 -0.0615
   90CHL1  H15A 9085   3.012   4.363   7.727 -0.2904 -0.7596  0.1708
   90CHL1  H15B 9086   3.001   4.535   7.696 -0.6981 -1.2212 -3.5416
   90CHL1   C16 9087   2.896   4.476   7.887  0.1156  0.7661  0.4726
   90CHL1  H16A 9088   2.942   4.391   7.942  2.4616  0.5330 -1.6417
   90CHL1  H16B 9089   2.940   4.575   7.914  0.7424  0.4440  0.6475
   90CHL1   C17 9090   2.746   4.478   7.888  0.1243 -0.1726 -0.6461
   90CHL1   H17 9091   2.711   4.582   7.870 -1.1565 -0.3956  0.3874
   90CHL1   C13 9092   2.704   4.401   7.760  0.3516 -0.1388 -0.4735
   90CHL1   C18 9093   2.739   4.247   7.780 -1.0127  0.2222  0.3564
   90CHL1  H18A 9094   2.662   4.207   7.849 -0.1510  1.7027  2.2707
   90CHL1  H18B 9095   2.732   4.191   7.685  0.3913 -1.4908  1.2192
   90CHL1  H18C 9096   2.840   4.230   7.823 -1.6362  0.6119  2.0595
   90CHL1   C12 9097   2.564   4.417   7.688 -0.3841  0.6407  0.0859
   90CHL1  H12A 9098   2.488   4.365   7.750  1.1720 -0.6321  1.0299
   90CHL1  H12B 9099   2.551   4.527   7.690  1.4728  0.9217 -1.1201
   90CHL1   C11 9100   2.561   4.381   7.536  0.4011  0.1009 -0.2807
   90CHL1  H11A 9101   2.549   4.271   7.528 -1.2088  0.0005  2.3186
   90CHL1  H11B 9102   2.469   4.437   7.507  2.1809  3.0200 -0.6744
   90CHL1    C9 9103   2.674   4.427   7.453 -0.7773 -0.0008  0.7601
   90CHL1    H9 9104   2.677   4.537   7.445  0.4037 -0.1202 -1.1914
   90CHL1   C10 9105   2.675   4.380   7.300 -0.7865 -0.1273  0.5183
   90CHL1   C19 9106   2.629   4.236   7.285 -0.3304  0.5432 -0.6828
   90CHL1  H19A 9107   2.649   4.206   7.180  1.0038 -0.7268 -0.0836
   90CHL1  H19B 9108   2.679   4.166   7.355  0.9722  3.0660  1.0681
   90CHL1  H19C 9109   2.523   4.224   7.318  1.1329 -0.5839  4.4750
   90CHL1    C1 9110   2.580   4.480   7.221 -0.1804 -0.4440 -0.1282
   90CHL1   H1A 9111   2.473   4.483   7.248 -0.8049 -0.1494 -2.4058
   90CHL1   H1B 9112   2.614   4.583   7.243 -0.7540 -0.9898  4.0608
   90CHL1    C2 9113   2.583   4.461   7.068 -0.5990  0.2158 -0.0068
   90CHL1   H2A 9114   2.517   4.534   7.016 -0.0258 -1.5530 -3.5008
   90CHL1   H2B 9115   2.542   4.360   7.044  1.3043 -0.7527  0.5952
   90CHL1   C20 9116   2.682   4.436   8.025  0.0913 -0.6391  0.2236
   90CHL1   H20 9117   2.677   4.325   8.026 -0.8291 -0.6086 -0.1809
   90CHL1   C21 9118   2.528   4.463   8.038  0.3016  0.0823 -0.5266
   90CHL1  H21A 9119   2.502   4.570   8.020  0.5550  0.7070  2.3457
   90CHL1  H21B 9120   2.484   4.416   8.129 -0.5668 -2.5382 -2.2070
   90CHL1  H21C 9121   2.477   4.410   7.955  0.7054  1.9904 -2.0728
   90CHL1   C22 9122   2.747   4.495   8.146 -0.1845 -0.0123 -0.5522
   90CHL1  H22A 9123   2.858   4.494   8.134 -0.1854  0.7477 -0.6833
   90CHL1  H22B 9124   2.721   4.603   8.149 -0.5342 -0.1220  1.0680
   90CHL1   C23 9125   2.696   4.437   8.283 -0.0627 -0.1762  0.2918
   90CHL1  H23A 9126   2.749   4.494   8.363 -0.2845  2.1447 -1.1333
   90CHL1  H23B 9127   2.586   4.453   8.294 -0.1081 -0.0200 -0.3693
   90CHL1   C24 9128   2.734   4.291   8.306 -0.2123  0.1083 -0.1216
   90CHL1  H24A 9129   2.690   4.224   8.229 -1.0174  0.7547 -0.2383
   90CHL1  H24B 9130   2.844   4.283   8.296 -0.2520  0.1072 -0.5974
   90CHL1   C25 9131   2.702   4.240   8.448 -0.1704  0.0203  0.2114
   90CHL1   H25 9132   2.759   4.307   8.516  1.0282 -0.5961 -0.1518
   90CHL1   C26 9133   2.549   4.239   8.488 -0.4550 -0.3672 -0.2017
   90CHL1  H26A 9134   2.488   4.190   8.409 -0.1192  0.3496 -0.9201
   90CHL1  H26B 9135   2.543   4.191   8.587  0.9311  0.6775  0.4199
   90CHL1  H26C 9136   2.526   4.348   8.492  2.9519  0.5893 -1.9500
   90CHL1   C27 9137   2.759   4.099   8.458 -0.4341  0.3225 -0.5873
   90CHL1  H27A 9138   2.870   4.095   8.452 -0.4126  0.0308 -0.1121
   90CHL1  H27B 9139   2.741   4.068   8.564 -0.7361 -1.3681 -1.0939
   90CHL1  H27C 9140   2.717   4.026   8.385  0.2569  0.4545 -1.1268
   91CHL1    C3 9141   6.494   0.079   7.172  0.3983  0.2971  0.1328
   91CHL1    H3 9142   6.391   0.077   7.213  0.4342  1.2957  0.2844
   91CHL1    O3 9143   6.473   0.089   7.037  0.1701 -0.0468 -0.5661
   91CHL1   H3' 9144   6.558   0.074   6.993  0.4948 -1.7910  0.5693
   91CHL1    C4 9145   6.582   0.195   7.229  0.4718 -0.0334  0.8371
   91CHL1   H4A 9146   6.682   0.185   7.183 -0.3417 -0.3842 -0.9388
   91CHL1   H4B 9147   6.539   0.292   7.197 -0.3748 -0.3036  1.1181
   91CHL1    C5 9148   6.585   0.184   7.377 -0.0298  0.2258 -0.5538
   91CHL1    C6 9149   6.553   0.287   7.454  0.5365  0.7460  0.2667
   91CHL1    H6 9150   6.535   0.384   7.407 -0.4008 -0.3899 -1.8639
   91CHL1    C7 9151   6.552   0.282   7.606 -0.6493  0.2936  0.1581
   91CHL1   H7A 9152   6.613   0.365   7.648  0.1275 -1.8774  3.7017
   91CHL1   H7B 9153   6.449   0.296   7.643 -0.1906  0.9175  1.2571
   91CHL1    C8 9154   6.623   0.160   7.673 -0.6207  0.2672 -0.3763
   91CHL1    H8 9155   6.733   0.165   7.682 -0.7737  2.2312  1.0751
   91CHL1   C14 9156   6.578   0.124   7.812  0.5483 -0.3219 -0.8369
   91CHL1   H14 9157   6.473   0.094   7.790  1.0434 -1.9966 -1.0264
   91CHL1   C15 9158   6.572   0.240   7.918  0.6843  0.0815  0.8804
   91CHL1  H15A 9159   6.659   0.306   7.898 -0.2425  0.6900 -1.5112
   91CHL1  H15B 9160   6.484   0.305   7.894  1.3660  0.8555  0.4368
   91CHL1   C16 9161   6.576   0.169   8.049 -0.4256  0.8955  0.1540
   91CHL1  H16A 9162   6.676   0.180   8.097 -0.2407 -0.1046  0.0361
   91CHL1  H16B 9163   6.498   0.195   8.123 -2.4012  1.9692 -2.1791
   91CHL1   C17 9164   6.570   0.012   8.017 -0.3427  0.0190 -0.5635
   91CHL1   H17 9165   6.462  -0.007   7.998  0.0435 -1.1026 -1.7381
   91CHL1   C13 9166   6.631  -0.005   7.877 -0.3877 -0.4321 -0.1887
   91CHL1   C18 9167   6.783   0.001   7.887 -0.2443  0.7987  0.0134
   91CHL1  H18A 9168   6.825   0.007   7.785 -0.8948 -1.7218 -0.4881
   91CHL1  H18B 9169   6.818   0.097   7.931  2.3851  0.9431 -2.1924
   91CHL1  H18C 9170   6.823  -0.093   7.932 -0.7067 -0.4819 -2.1144
   91CHL1   C12 9171   6.578  -0.121   7.788 -0.1996 -0.0530 -0.6181
   91CHL1  H12A 9172   6.617  -0.217   7.830  0.8613  1.2722  1.6034
   91CHL1  H12B 9173   6.468  -0.128   7.799 -0.3091  0.9014 -1.0608
   91CHL1   C11 9174   6.607  -0.109   7.639  0.9959  0.0961  0.7093
   91CHL1  H11A 9175   6.715  -0.131   7.631  1.0660  0.6110  0.1240
   91CHL1  H11B 9176   6.548  -0.189   7.588  3.3843 -0.5234 -1.2834
   91CHL1    C9 9177   6.590   0.035   7.581 -0.4361 -0.6373  0.8266
   91CHL1    H9 9178   6.479   0.043   7.573 -0.2262  1.3022 -2.2285
   91CHL1   C10 9179   6.627   0.046   7.432 -0.3955 -0.7780  0.0237
   91CHL1   C19 9180   6.779   0.053   7.422  0.2464  0.2884 -0.0684
   91CHL1  H19A 9181   6.798   0.035   7.314  0.2020 -0.2430  0.0076
   91CHL1  H19B 9182   6.825   0.150   7.451  0.4222  0.6808 -1.5867
   91CHL1  H19C 9183   6.821  -0.037   7.473  0.4819 -1.7535 -3.5308
   91CHL1    C1 9184   6.567  -0.074   7.352 -0.3248  0.1969  0.0938
   91CHL1   H1A 9185   6.616  -0.173   7.366 -1.6069 -0.7281 -1.5662
   91CHL1   H1B 9186   6.465  -0.081   7.395 -1.0907  4.0618 -0.6799
   91CHL1    C2 9187   6.561  -0.055   7.200  0.0911 -0.3941 -0.8680
   91CHL1   H2A 9188   6.506  -0.141   7.154  2.5884 -3.5496  1.5278
   91CHL1   H2B 9189   6.660  -0.047   7.152 -0.2678  0.5600 -1.4685
   91CHL1   C20 9190   6.625  -0.079   8.126  0.1820 -0.5073 -0.1155
   91CHL1   H20 9191   6.734  -0.062   8.122  0.2246 -1.0113 -1.9471
   91CHL1   C21 9192   6.611  -0.230   8.098  0.2132 -0.1442  0.8080
   91CHL1  H21A 9193   6.509  -0.243   8.055 -0.5058  0.8283  2.1577
   91CHL1  H21B 9194   6.628  -0.294   8.187  1.4264 -1.5261 -0.3486
   91CHL1  H21C 9195   6.688  -0.272   8.030 -0.8853 -0.6730 -0.1470
   91CHL1   C22 9196   6.572  -0.045   8.265 -0.3049  0.4857 -0.6412
   91CHL1  H22A 9197   6.627  -0.116   8.331  0.3337  1.4306 -0.1301
   91CHL1  H22B 9198   6.603   0.056   8.298 -3.9224  1.0314  1.6569
   91CHL1   C23 9199   6.426  -0.057   8.288  0.0343  0.1021  0.2574
   91CHL1  H23A 9200   6.366   0.022   8.237  1.9961 -0.1314 -2.6459
   91CHL1  H23B 9201   6.396  -0.160   8.262 -0.9393  0.3056  0.5040
   91CHL1   C24 9202   6.380  -0.059   8.434  0.2658 -0.5042  0.1658
   91CHL1  H24A 9203   6.283  -0.112   8.443 -1.2134  2.0222  0.0586
   91CHL1  H24B 9204   6.460  -0.117   8.485  0.1497 -0.9882 -0.1895
   91CHL1   C25 9205   6.376   0.080   8.498 -0.5911 -0.9556  0.5301
   91CHL1   H25 9206   6.479   0.119   8.486  0.3316 -3.7397 -1.4818
   91CHL1   C26 9207   6.286   0.183   8.426 -0.1416 -0.0000  0.6500
   91CHL1  H26A 9208   6.178   0.160   8.420 -0.2989  0.8327  0.0343
   91CHL1  H26B 9209   6.289   0.279   8.482  0.4633 -0.7361  1.9285
   91CHL1  H26C 9210   6.321   0.210   8.324 -1.6523 -1.6265 -0.3577
   91CHL1   C27 9211   6.338   0.074   8.649 -0.3949 -0.5971  0.4702
   91CHL1  H27A 9212   6.434   0.061   8.705 -0.3753  1.4648  0.9876
   91CHL1  H27B 9213   6.279   0.163   8.677  2.0826  0.5575  2.5194
   91CHL1  H27C 9214   6.267  -0.008   8.672 -0.8253  0.2377  2.3071
   92CHL1    C3 9215   4.113   2.197   6.861 -0.3664  0.2874  0.4541
   92CHL1    H3 9216   4.195   2.144   6.916  1.0339  2.0712  0.1881
   92CHL1    O3 9217   4.109   2.178   6.721  0.5869  0.2691 -0.1856
   92CHL1   H3' 9218   4.056   2.252   6.691  2.1311  1.4896 -0.0337
   92CHL1    C4 9219   3.985   2.152   6.912  0.5149 -0.1858 -0.0661
   92CHL1   H4A 9220   3.900   2.209   6.869  1.3859  0.2560 -1.2664
   92CHL1   H4B 9221   3.982   2.044   6.886  0.3707 -1.0286  3.0265
   92CHL1    C5 9222   3.982   2.170   7.063  0.0446 -0.3444  0.1785
   92CHL1    C6 9223   3.958   2.059   7.131 -0.8762  0.3620  0.3160
   92CHL1    H6 9224   3.949   1.965   7.074  3.7585  0.1089 -0.3834
   92CHL1    C7 9225   3.927   2.054   7.279 -0.0493 -0.2045  0.8668
   92CHL1   H7A 9226   3.834   1.998   7.304 -1.9999  2.1517 -0.5332
   92CHL1   H7B 9227   4.021   2.013   7.320 -0.2576  0.0090  1.5661
   92CHL1    C8 9228   3.919   2.201   7.335 -0.6463 -0.3409 -0.5476
   92CHL1    H8 9229   3.818   2.247   7.324 -0.2445  0.8457  0.5719
   92CHL1   C14 9230   3.943   2.186   7.483 -0.1627 -0.5504 -0.4593
   92CHL1   H14 9231   4.051   2.166   7.501 -0.3035 -0.6652  0.3156
   92CHL1   C15 9232   3.861   2.079   7.563  0.6407  0.6196 -0.9576
   92CHL1  H15A 9233   3.758   2.073   7.523 -0.1754  0.2413  1.1193
   92CHL1  H15B 9234   3.912   1.980   7.569 -0.7655 -0.0653  0.4262
   92CHL1   C16 9235   3.865   2.136   7.709 -0.0911  0.6282  0.7123
   92CHL1  H16A 9236   3.761   2.149   7.746 -1.3509 -0.5153 -2.1345
   92CHL1  H16B 9237   3.924   2.062   7.768 -0.9320 -0.3493  0.3593
   92CHL1   C17 9238   3.941   2.270   7.707  0.5325  0.5440  0.3859
   92CHL1   H17 9239   4.046   2.234   7.708 -0.0165 -1.1786  2.3255
   92CHL1   C13 9240   3.916   2.323   7.557  0.2646 -0.3452 -0.0679
   92CHL1   C18 9241   3.769   2.375   7.541 -0.2478 -0.3309 -0.2031
   92CHL1  H18A 9242   3.692   2.324   7.603 -1.2353  1.2803 -0.0433
   92CHL1  H18B 9243   3.763   2.483   7.565 -1.2136  0.1709 -2.4787
   92CHL1  H18C 9244   3.721   2.374   7.441 -1.3062  0.1738  0.2882
   92CHL1   C12 9245   4.015   2.426   7.498  0.5421  0.2733 -0.0935
   92CHL1  H12A 9246   4.007   2.529   7.540 -0.5957  0.1692 -0.0241
   92CHL1  H12B 9247   4.119   2.390   7.516  1.0771  1.9951  0.5167
   92CHL1   C11 9248   4.010   2.441   7.346 -0.6434  0.6634 -0.1104
   92CHL1  H11A 9249   3.913   2.486   7.316 -0.6695 -0.6388 -2.1801
   92CHL1  H11B 9250   4.103   2.494   7.312 -1.2886  2.9475  1.4329
   92CHL1    C9 9251   4.014   2.300   7.277  0.0547 -0.2779 -0.2630
   92CHL1    H9 9252   4.115   2.262   7.302  0.4151  1.5543  1.3441
   92CHL1   C10 9253   4.003   2.308   7.122 -0.7725  0.1715 -0.0257
   92CHL1   C19 9254   3.873   2.386   7.090 -0.3009 -0.1270 -0.1369
   92CHL1  H19A 9255   3.841   2.379   6.983  2.2162 -0.5600 -0.9333
   92CHL1  H19B 9256   3.781   2.344   7.137 -1.8635  2.1941 -0.9488
   92CHL1  H19C 9257   3.892   2.493   7.110  0.3401 -0.3351  0.4190
   92CHL1    C1 9258   4.132   2.365   7.057  0.0085  0.7059  0.3878
   92CHL1   H1A 9259   4.141   2.472   7.085 -2.1624  0.5942  1.8002
   92CHL1   H1B 9260   4.226   2.320   7.095  0.5189  0.3231 -1.2607
   92CHL1    C2 9261   4.141   2.349   6.900  0.2356 -0.0972  0.0155
   92CHL1   H2A 9262   4.236   2.385   6.855 -0.5214  0.8988 -0.8233
   92CHL1   H2B 9263   4.060   2.414   6.860  0.1734  1.8908  3.0565
   92CHL1   C20 9264   3.920   2.358   7.829  0.5646  0.1469 -0.0886
   92CHL1   H20 9265   3.824   2.409   7.806  0.3995  0.0999  0.4852
   92CHL1   C21 9266   4.037   2.466   7.835  0.3843  0.2868  0.5179
   92CHL1  H21A 9267   4.080   2.494   7.736  0.2262  1.7530  0.8419
   92CHL1  H21B 9268   4.125   2.432   7.894  0.0499  1.3214  1.6640
   92CHL1  H21C 9269   4.009   2.561   7.885  2.7651  0.9788  0.6495
   92CHL1   C22 9270   3.910   2.289   7.968 -0.5454  0.2143  0.5415
   92CHL1  H22A 9271   3.840   2.203   7.959  1.2758 -1.1044 -2.4519
   92CHL1  H22B 9272   4.003   2.249   8.015  0.1723 -2.8503 -3.0038
   92CHL1   C23 9273   3.838   2.385   8.072 -0.5415  0.0055  0.2407
   92CHL1  H23A 9274   3.879   2.488   8.080 -1.6555  0.3071  2.8720
   92CHL1  H23B 9275   3.730   2.389   8.050 -0.8297  1.1343  1.6897
   92CHL1   C24 9276   3.848   2.319   8.209 -0.1966 -0.9109  0.4261
   92CHL1  H24A 9277   3.820   2.211   8.215  0.5265 -1.0513  1.4758
   92CHL1  H24B 9278   3.955   2.322   8.237  0.0015 -0.1806 -0.3470
   92CHL1   C25 9279   3.764   2.386   8.317  1.1215 -0.4375 -0.1090
   92CHL1   H25 9280   3.771   2.339   8.417 -1.2306 -1.6049 -0.4084
   92CHL1   C26 9281   3.806   2.534   8.336 -0.5131  0.4202  0.3137
   92CHL1  H26A 9282   3.738   2.583   8.409 -1.3263 -1.4953  0.9094
   92CHL1  H26B 9283   3.906   2.536   8.383 -1.5439 -2.7446  3.0825
   92CHL1  H26C 9284   3.817   2.594   8.243  0.0945  2.4642  1.6320
   92CHL1   C27 9285   3.607   2.377   8.285 -0.5679 -0.3292 -0.0041
   92CHL1  H27A 9286   3.581   2.276   8.247 -2.1664 -0.5945  1.6820
   92CHL1  H27B 9287   3.553   2.404   8.378 -1.7929 -1.7433 -0.2740
   92CHL1  H27C 9288   3.581   2.449   8.205  1.0802 -0.3464 -0.6010
   93CHL1    C3 9289   0.031   6.333   6.891  0.6751  0.3364  0.1246
   93CHL1    H3 9290   0.029   6.222   6.893 -0.7382  0.3181  2.8575
   93CHL1    O3 9291  -0.002   6.380   6.761 -0.0941  0.1447  0.3533
   93CHL1   H3' 9292   0.024   6.472   6.776 -0.9473  0.4528  0.0229
   93CHL1    C4 9293  -0.073   6.384   6.987  0.1805 -0.1533 -0.0552
   93CHL1   H4A 9294  -0.081   6.495   6.986  0.8105 -0.1097 -0.2564
   93CHL1   H4B 9295  -0.172   6.345   6.956  0.6005 -1.0658 -0.2649
   93CHL1    C5 9296  -0.040   6.349   7.128 -0.3012  0.0859 -0.3416
   93CHL1    C6 9297  -0.137   6.293   7.206  0.0610 -0.1904 -0.8648
   93CHL1    H6 9298  -0.229   6.265   7.152 -0.7318  1.4716 -0.4441
   93CHL1    C7 9299  -0.123   6.264   7.351 -0.1777  0.7160  0.2767
   93CHL1   H7A 9300  -0.211   6.308   7.401 -0.6670 -0.6415  0.6696
   93CHL1   H7B 9301  -0.138   6.155   7.369  0.7553  0.2807 -1.4317
   93CHL1    C8 9302   0.006   6.315   7.414  0.5915 -0.4085  0.2397
   93CHL1    H8 9303  -0.015   6.423   7.432  0.5709 -0.3398 -0.1846
   93CHL1   C14 9304   0.036   6.251   7.550  0.2173  0.1064 -0.3761
   93CHL1   H14 9305   0.048   6.141   7.535  0.8151  0.3606 -1.9309
   93CHL1   C15 9306  -0.071   6.273   7.652 -0.9104  0.9512 -0.3814
   93CHL1  H15A 9307  -0.095   6.381   7.664 -0.1889  1.0635  0.1364
   93CHL1  H15B 9308  -0.153   6.200   7.633  2.2929 -2.9769 -0.5364
   93CHL1   C16 9309  -0.000   6.230   7.784 -0.4759  0.4508  0.3878
   93CHL1  H16A 9310  -0.015   6.296   7.872  1.9917  2.1891 -0.3786
   93CHL1  H16B 9311  -0.020   6.123   7.803  2.6790 -1.0560 -3.4409
   93CHL1   C17 9312   0.146   6.234   7.753 -0.5747  0.1346  0.3480
   93CHL1   H17 9313   0.171   6.127   7.733 -1.8468 -0.1872  0.3908
   93CHL1   C13 9314   0.167   6.302   7.619  0.3720  0.2989  0.4542
   93CHL1   C18 9315   0.179   6.455   7.634  0.3726  0.2367  0.2151
   93CHL1  H18A 9316   0.283   6.484   7.658  0.1771  1.4272 -0.2761
   93CHL1  H18B 9317   0.150   6.507   7.540 -2.4611 -0.1186  0.7781
   93CHL1  H18C 9318   0.116   6.490   7.719  0.6924  1.2017  0.0640
   93CHL1   C12 9319   0.278   6.249   7.522  0.0728  0.7797 -0.0365
   93CHL1  H12A 9320   0.382   6.276   7.551  0.8775 -0.3632 -1.7430
   93CHL1  H12B 9321   0.272   6.139   7.510 -0.4857  0.9914 -1.9434
   93CHL1   C11 9322   0.262   6.325   7.385 -0.3678  0.1507  0.4148
   93CHL1  H11A 9323   0.297   6.430   7.392 -1.3002  0.5309 -0.3454
   93CHL1  H11B 9324   0.341   6.280   7.320  1.0535  0.1002  2.1068
   93CHL1    C9 9325   0.120   6.301   7.312 -0.0402 -0.0895 -0.0961
   93CHL1    H9 9326   0.116   6.192   7.291 -2.2747 -0.4552  1.8510
   93CHL1   C10 9327   0.101   6.376   7.181  0.3880 -0.3043  0.2501
   93CHL1   C19 9328   0.121   6.524   7.205  0.0082  0.0695  0.6896
   93CHL1  H19A 9329   0.048   6.554   7.283 -0.3777  1.7425 -0.2530
   93CHL1  H19B 9330   0.225   6.555   7.230  0.2798 -2.0169  2.3854
   93CHL1  H19C 9331   0.093   6.587   7.117 -0.2404 -0.7159  0.1979
   93CHL1    C1 9332   0.195   6.319   7.075 -0.6879  0.1790  0.3036
   93CHL1   H1A 9333   0.297   6.356   7.100 -1.6401  4.9148 -1.7735
   93CHL1   H1B 9334   0.183   6.209   7.070  2.0079 -0.3709  2.8825
   93CHL1    C2 9335   0.172   6.379   6.934 -0.0908 -0.3682  0.0136
   93CHL1   H2A 9336   0.238   6.339   6.855 -0.5702  0.0291 -0.5974
   93CHL1   H2B 9337   0.186   6.489   6.936  0.6302 -0.4387  2.2869
   93CHL1   C20 9338   0.229   6.285   7.877 -0.1694  0.3548  0.1065
   93CHL1   H20 9339   0.199   6.390   7.897 -1.2211  0.2991 -1.0608
   93CHL1   C21 9340   0.387   6.290   7.853 -0.2618  0.0227 -0.0486
   93CHL1  H21A 9341   0.412   6.339   7.757  2.0310 -0.5630  0.1769
   93CHL1  H21B 9342   0.435   6.190   7.863  1.0102  0.2219 -3.1374
   93CHL1  H21C 9343   0.434   6.347   7.936  0.2202  0.1570 -0.4122
   93CHL1   C22 9344   0.204   6.205   8.009  0.1847  0.6061 -0.0529
   93CHL1  H22A 9345   0.097   6.177   8.007 -0.0799  1.4814  0.8689
   93CHL1  H22B 9346   0.256   6.107   8.011  2.0097  1.5336 -0.1168
   93CHL1   C23 9347   0.228   6.294   8.133  0.0190 -0.8156 -0.1006
   93CHL1  H23A 9348   0.334   6.278   8.162 -0.1015 -0.3741  0.5972
   93CHL1  H23B 9349   0.209   6.399   8.101 -0.5661 -1.2822 -1.3781
   93CHL1   C24 9350   0.147   6.253   8.258 -0.1898  0.5125  0.1091
   93CHL1  H24A 9351   0.041   6.277   8.238 -0.2692 -0.3754 -0.6388
   93CHL1  H24B 9352   0.172   6.145   8.273 -0.2061  0.3306 -1.0796
   93CHL1   C25 9353   0.202   6.328   8.374  0.7039  0.5104 -0.3289
   93CHL1   H25 9354   0.313   6.328   8.372  0.8100 -1.7079  1.5869
   93CHL1   C26 9355   0.149   6.468   8.368  0.0492 -0.5937 -0.2954
   93CHL1  H26A 9356   0.177   6.515   8.271 -2.1032 -1.7684 -1.5349
   93CHL1  H26B 9357   0.039   6.469   8.381  0.1018 -1.3989  0.2612
   93CHL1  H26C 9358   0.196   6.541   8.439 -1.0901  1.3048 -1.3966
   93CHL1   C27 9359   0.178   6.265   8.512 -0.2335 -0.1474  0.3234
   93CHL1  H27A 9360   0.205   6.158   8.505 -3.0309 -0.8927 -0.5264
   93CHL1  H27B 9361   0.250   6.318   8.578  0.6710  0.1866 -0.8692
   93CHL1  H27C 9362   0.076   6.272   8.554 -0.5024 -1.7924 -0.0068
   94CHL1    C3 9363   4.090   3.864   6.993 -0.7844 -0.6431 -0.3156
   94CHL1    H3 9364   4.044   3.958   7.030 -0.8231 -0.3519 -1.0854
   94CHL1    O3 9365   4.128   3.884   6.858  0.0249 -0.0848  0.4412
   94CHL1   H3' 9366   4.047   3.893   6.808 -0.7135 -0.3495  1.5592
   94CHL1    C4 9367   4.221   3.822   7.066  0.3414 -0.5665 -0.4175
   94CHL1   H4A 9368   4.252   3.721   7.033  2.4394 -0.8035  1.9524
   94CHL1   H4B 9369   4.311   3.885   7.046  1.6776 -2.2467  0.1064
   94CHL1    C5 9370   4.189   3.807   7.212  0.7442  0.1134  0.6232
   94CHL1    C6 9371   4.249   3.894   7.292  0.0434 -0.5513  0.3929
   94CHL1    H6 9372   4.312   3.974   7.249 -0.8380 -1.1450 -2.1641
   94CHL1    C7 9373   4.225   3.903   7.442  0.8272 -0.1302 -0.3455
   94CHL1   H7A 9374   4.314   3.914   7.506 -0.1005  0.4593  0.8814
   94CHL1   H7B 9375   4.161   3.993   7.451  1.0871 -0.0313  0.5854
   94CHL1    C8 9376   4.140   3.786   7.489 -0.2788 -0.5108 -0.1483
   94CHL1    H8 9377   4.214   3.704   7.483  0.6571  0.3689 -0.9922
   94CHL1   C14 9378   4.092   3.799   7.627 -0.2533  0.0018  0.1828
   94CHL1   H14 9379   4.014   3.877   7.634  0.3028  0.5622  0.1849
   94CHL1   C15 9380   4.203   3.832   7.731 -0.3422 -0.1048 -0.0995
   94CHL1  H15A 9381   4.295   3.776   7.705  0.3275  0.8741  0.0910
   94CHL1  H15B 9382   4.233   3.938   7.722 -3.9812  0.9308 -2.1014
   94CHL1   C16 9383   4.147   3.782   7.864 -0.4957  0.6993 -0.1465
   94CHL1  H16A 9384   4.235   3.726   7.904  0.1018  2.8349  1.7383
   94CHL1  H16B 9385   4.113   3.853   7.942  0.8426  0.3339  0.8073
   94CHL1   C17 9386   4.021   3.698   7.833  0.9205 -0.2065  0.3367
   94CHL1   H17 9387   3.942   3.776   7.833  1.5142  0.4255 -1.1111
   94CHL1   C13 9388   4.033   3.667   7.682  0.1617 -0.0558  0.2244
   94CHL1   C18 9389   4.135   3.553   7.677  0.3862 -0.1745 -0.2033
   94CHL1  H18A 9390   4.188   3.537   7.774  0.7587 -0.8240 -0.5083
   94CHL1  H18B 9391   4.074   3.461   7.664  1.5355 -0.9436 -0.3286
   94CHL1  H18C 9392   4.206   3.545   7.592 -0.2937 -2.1035 -0.6306
   94CHL1   C12 9393   3.907   3.635   7.601 -0.7720  0.1118  0.4488
   94CHL1  H12A 9394   3.865   3.535   7.622 -2.2791  0.4639 -0.7015
   94CHL1  H12B 9395   3.824   3.701   7.634 -0.8567 -0.3665  1.2116
   94CHL1   C11 9396   3.932   3.632   7.452 -0.0683 -0.0614 -0.0865
   94CHL1  H11A 9397   3.982   3.535   7.434  0.2466 -0.0475  0.6756
   94CHL1  H11B 9398   3.839   3.618   7.393  0.0577  3.7082 -1.4405
   94CHL1    C9 9399   4.019   3.750   7.395 -0.9477  0.6634  0.5916
   94CHL1    H9 9400   3.951   3.839   7.394  0.4841  1.7903  0.3989
   94CHL1   C10 9401   4.069   3.718   7.251  0.1920 -0.1790 -0.2443
   94CHL1   C19 9402   4.126   3.579   7.242 -0.1755 -0.8951  0.4290
   94CHL1  H19A 9403   4.202   3.556   7.319  0.7530  1.5148  0.2926
   94CHL1  H19B 9404   4.041   3.507   7.252 -4.2626  3.3740 -0.1207
   94CHL1  H19C 9405   4.164   3.558   7.140 -0.0672 -0.3404  0.3548
   94CHL1    C1 9406   3.951   3.739   7.152 -0.2118  0.2110  0.3012
   94CHL1   H1A 9407   3.883   3.653   7.173 -1.0560  0.8979  0.4125
   94CHL1   H1B 9408   3.893   3.832   7.165  1.5506  1.4840 -0.5768
   94CHL1    C2 9409   3.999   3.745   7.007  0.3550 -0.3630  0.2730
   94CHL1   H2A 9410   3.911   3.748   6.939 -0.0664  0.9889  0.8470
   94CHL1   H2B 9411   4.065   3.658   6.983  4.9523  2.3407  1.8717
   94CHL1   C20 9412   3.986   3.591   7.941  0.1576  0.4628  0.4511
   94CHL1   H20 9413   4.054   3.503   7.935 -2.7617 -2.0094  1.3269
   94CHL1   C21 9414   3.839   3.525   7.936 -0.7122  0.5877 -0.2527
   94CHL1  H21A 9415   3.837   3.428   7.989  0.1176  1.4901  1.5400
   94CHL1  H21B 9416   3.822   3.502   7.829 -0.5147 -1.9207  0.2099
   94CHL1  H21C 9417   3.762   3.588   7.984  1.0967  1.4412  1.7107
   94CHL1   C22 9418   4.014   3.647   8.086 -0.0488 -0.1187 -0.1221
   94CHL1  H22A 9419   4.113   3.698   8.086  1.2465 -2.4521 -1.2745
   94CHL1  H22B 9420   3.934   3.715   8.122  1.7028  0.6357  2.6604
   94CHL1   C23 9421   4.032   3.529   8.190 -0.3136 -0.3712 -0.0962
   94CHL1  H23A 9422   3.939   3.469   8.200 -0.0680 -0.8185 -0.4820
   94CHL1  H23B 9423   4.100   3.451   8.149  0.4599 -0.6787  1.6593
   94CHL1   C24 9424   4.070   3.577   8.328 -0.4714  0.6872 -0.2537
   94CHL1  H24A 9425   4.179   3.598   8.336 -0.5307  1.6761 -1.7000
   94CHL1  H24B 9426   4.019   3.673   8.351 -0.8954  0.9737 -2.2636
   94CHL1   C25 9427   4.026   3.483   8.439  0.4877 -0.5313  0.0157
   94CHL1   H25 9428   3.919   3.456   8.427 -0.0267  0.7844  1.3270
   94CHL1   C26 9429   4.108   3.356   8.439 -0.1279  0.4602  0.0444
   94CHL1  H26A 9430   4.079   3.293   8.353  0.0438  1.2686 -0.6240
   94CHL1  H26B 9431   4.218   3.377   8.435 -0.1090  0.3339 -0.1017
   94CHL1  H26C 9432   4.087   3.299   8.532  1.1312  0.0185  0.0782
   94CHL1   C27 9433   4.038   3.557   8.574 -0.5519  0.3225 -0.1466
   94CHL1  H27A 9434   4.006   3.663   8.570  0.1960  0.6015  0.7229
   94CHL1  H27B 9435   3.983   3.500   8.652 -2.7948  0.7082 -1.3616
   94CHL1  H27C 9436   4.147   3.557   8.597 -0.6386 -1.0292  0.3643
   95CHL1    C3 9437   4.073   1.453   6.674 -0.4874  0.1966 -0.1205
   95CHL1    H3 9438   3.985   1.520   6.671 -0.6116 -0.0062 -1.3965
   95CHL1    O3 9439   4.138   1.452   6.548 -0.2471  0.8586  0.0231
   95CHL1   H3' 9440   4.196   1.376   6.552  0.5295  1.4218 -0.1312
   95CHL1    C4 9441   4.178   1.511   6.767 -0.1806  0.5610  0.2990
   95CHL1   H4A 9442   4.266   1.446   6.755  0.5670  1.3598  1.2632
   95CHL1   H4B 9443   4.219   1.609   6.735 -0.6278  0.1035 -1.8498
   95CHL1    C5 9444   4.125   1.518   6.910 -1.3015  1.2952  0.0344
   95CHL1    C6 9445   4.137   1.622   6.983  0.0781 -0.4314  0.0705
   95CHL1    H6 9446   4.188   1.710   6.940  1.2799  0.7346  3.5569
   95CHL1    C7 9447   4.091   1.635   7.122 -1.1616 -0.1443 -0.4940
   95CHL1   H7A 9448   4.170   1.686   7.182 -1.7044  1.6219 -1.2295
   95CHL1   H7B 9449   4.003   1.701   7.121 -1.5329 -0.6376 -1.2284
   95CHL1    C8 9450   4.060   1.502   7.194 -0.0846  0.4133  0.2031
   95CHL1    H8 9451   4.158   1.454   7.212 -0.9046 -0.9072  1.3431
   95CHL1   C14 9452   4.000   1.525   7.335 -0.2401  0.4925 -0.1458
   95CHL1   H14 9453   3.901   1.568   7.306 -0.1874  0.5939 -0.1747
   95CHL1   C15 9454   4.069   1.612   7.432 -0.0420 -0.5382  0.2931
   95CHL1  H15A 9455   4.178   1.591   7.421 -0.0464  0.2900 -1.6983
   95CHL1  H15B 9456   4.062   1.721   7.410 -0.1766 -0.6792 -0.3609
   95CHL1   C16 9457   4.008   1.571   7.570  0.2656 -0.2245 -0.3387
   95CHL1  H16A 9458   4.090   1.552   7.642  0.2732  0.2845 -0.2123
   95CHL1  H16B 9459   3.946   1.648   7.620 -2.7288 -2.1220 -0.8310
   95CHL1   C17 9460   3.911   1.452   7.537  0.1351 -0.0779  0.9897
   95CHL1   H17 9461   3.810   1.493   7.517  0.8629  1.3321  0.0087
   95CHL1   C13 9462   3.964   1.396   7.410  0.3985 -0.0515 -0.0092
   95CHL1   C18 9463   4.091   1.314   7.428 -0.5976 -0.0817 -0.1835
   95CHL1  H18A 9464   4.143   1.290   7.333 -0.7621  0.2917 -0.3722
   95CHL1  H18B 9465   4.153   1.355   7.511  0.5884 -0.8791 -0.6454
   95CHL1  H18C 9466   4.063   1.209   7.451  1.1388 -1.1047 -2.3531
   95CHL1   C12 9467   3.855   1.323   7.313  0.1315 -0.2951  0.0708
   95CHL1  H12A 9468   3.825   1.226   7.359 -1.6898  0.7594  1.2145
   95CHL1  H12B 9469   3.766   1.385   7.291 -0.1858 -1.4272 -2.1892
   95CHL1   C11 9470   3.911   1.283   7.173 -0.1455  0.4625 -0.5662
   95CHL1  H11A 9471   3.982   1.198   7.169  0.9870  1.4290 -2.3914
   95CHL1  H11B 9472   3.828   1.248   7.109 -0.1829  0.1952 -0.3738
   95CHL1    C9 9473   3.978   1.405   7.100 -0.4298 -0.3463 -0.4021
   95CHL1    H9 9474   3.891   1.468   7.072  0.0367  0.4863 -0.0033
   95CHL1   C10 9475   4.063   1.386   6.964  0.3715  0.1691 -0.6051
   95CHL1   C19 9476   4.178   1.294   7.000 -0.0717  0.2886  1.2147
   95CHL1  H19A 9477   4.232   1.269   6.907 -0.9389  0.2428  0.7106
   95CHL1  H19B 9478   4.252   1.347   7.064 -1.3279  1.9354  1.3927
   95CHL1  H19C 9479   4.154   1.195   7.044  2.2925 -1.4382 -1.0747
   95CHL1    C1 9480   3.965   1.335   6.854 -0.2279  0.1435  1.0330
   95CHL1   H1A 9481   3.917   1.242   6.891 -0.0711 -1.3994 -2.2236
   95CHL1   H1B 9482   3.872   1.395   6.839 -2.0121 -2.8320 -0.8821
   95CHL1    C2 9483   4.025   1.312   6.714 -0.9003  0.3545 -0.0240
   95CHL1   H2A 9484   3.945   1.271   6.649  0.0861  1.1369 -1.8091
   95CHL1   H2B 9485   4.114   1.245   6.719 -0.2847  1.0881 -0.8502
   95CHL1   C20 9486   3.896   1.355   7.659 -0.4843 -0.0465  0.5195
   95CHL1   H20 9487   3.995   1.308   7.676 -0.8903 -0.4057  2.0016
   95CHL1   C21 9488   3.803   1.247   7.632  0.6096  0.5267  0.0177
   95CHL1  H21A 9489   3.788   1.174   7.714  0.5727  1.7198  1.1186
   95CHL1  H21B 9490   3.829   1.177   7.550 -0.1034 -0.7130  0.8139
   95CHL1  H21C 9491   3.697   1.270   7.608 -0.5108 -1.1298  2.8916
   95CHL1   C22 9492   3.853   1.431   7.783 -0.1027 -0.1689 -0.0435
   95CHL1  H22A 9493   3.909   1.527   7.788  0.6578 -0.3620 -3.1615
   95CHL1  H22B 9494   3.744   1.453   7.781 -0.4546 -1.6710  0.9321
   95CHL1   C23 9495   3.884   1.361   7.915  0.2966  0.1705 -0.2710
   95CHL1  H23A 9496   3.814   1.274   7.925 -0.4837  0.8335  0.1161
   95CHL1  H23B 9497   3.989   1.329   7.901  0.5432  1.6953 -2.1665
   95CHL1   C24 9498   3.877   1.452   8.039 -0.6873 -0.3371  0.7832
   95CHL1  H24A 9499   3.977   1.499   8.045 -0.4286 -0.1557 -2.6423
   95CHL1  H24B 9500   3.806   1.537   8.026  1.0256  1.0367 -0.0732
   95CHL1   C25 9501   3.845   1.380   8.178 -0.0975 -0.2598 -0.0800
   95CHL1   H25 9502   3.739   1.349   8.186 -0.2940  0.6629  1.0824
   95CHL1   C26 9503   3.944   1.269   8.208 -0.4009 -0.1727 -0.0180
   95CHL1  H26A 9504   3.941   1.179   8.144 -1.7031  0.1366 -0.4286
   95CHL1  H26B 9505   4.050   1.301   8.201 -0.7374  0.9198 -0.2881
   95CHL1  H26C 9506   3.924   1.238   8.313 -0.8636  0.8277  0.1980
   95CHL1   C27 9507   3.867   1.491   8.274 -0.4331 -0.1944 -0.4359
   95CHL1  H27A 9508   3.972   1.525   8.260 -0.2750 -0.4945  0.0197
   95CHL1  H27B 9509   3.812   1.582   8.241  1.7404  0.9868 -0.9925
   95CHL1  H27C 9510   3.837   1.468   8.378 -1.2195  0.0577 -0.5997
   96CHL1    C3 9511   3.569   0.982   6.699 -0.2715  0.3211  0.1990
   96CHL1    H3 9512   3.599   0.875   6.705 -1.0020  0.1797  1.9390
   96CHL1    O3 9513   3.583   1.035   6.567 -0.1436  0.0648 -0.1559
   96CHL1   H3' 9514   3.526   1.112   6.561  0.3903  0.6132  1.3760
   96CHL1    C4 9515   3.421   0.999   6.740 -0.7662 -0.4436 -0.2660
   96CHL1   H4A 9516   3.402   1.107   6.725 -1.9269 -0.5814  0.1374
   96CHL1   H4B 9517   3.365   0.938   6.666  2.3894 -2.4146 -1.2466
   96CHL1    C5 9518   3.408   0.965   6.889  0.6169 -0.2503 -0.3969
   96CHL1    C6 9519   3.310   0.876   6.931  0.0539 -0.6487  0.3743
   96CHL1    H6 9520   3.244   0.835   6.854  1.6233 -0.4760 -1.1135
   96CHL1    C7 9521   3.286   0.844   7.077 -0.3619 -1.2186 -0.9771
   96CHL1   H7A 9522   3.178   0.858   7.096 -0.2906 -1.0671 -0.6762
   96CHL1   H7B 9523   3.318   0.738   7.087  1.0363 -0.8161 -0.9575
   96CHL1    C8 9524   3.357   0.939   7.182 -0.2241  0.1911  0.0132
   96CHL1    H8 9525   3.293   1.030   7.189 -0.5592 -0.1705  2.1894
   96CHL1   C14 9526   3.349   0.881   7.320  0.3163 -0.1401  0.6373
   96CHL1   H14 9527   3.404   0.784   7.319 -1.1368 -0.9907  0.9739
   96CHL1   C15 9528   3.206   0.833   7.374 -0.4795 -0.4368  0.3768
   96CHL1  H15A 9529   3.124   0.908   7.370 -2.1705 -2.2865 -0.7163
   96CHL1  H15B 9530   3.172   0.743   7.320 -0.3664  0.9500 -2.1817
   96CHL1   C16 9531   3.247   0.814   7.523  0.2953  0.3601 -0.2390
   96CHL1  H16A 9532   3.157   0.853   7.576  1.4216 -0.6838  2.6335
   96CHL1  H16B 9533   3.249   0.704   7.541  1.0402  0.3642 -0.2668
   96CHL1   C17 9534   3.390   0.882   7.547  0.4558  1.0847 -0.5910
   96CHL1   H17 9535   3.468   0.802   7.549  0.6112  1.2494  0.5376
   96CHL1   C13 9536   3.412   0.975   7.430  0.5673 -0.3687  0.1362
   96CHL1   C18 9537   3.326   1.103   7.434 -0.3544  0.5884  0.0152
   96CHL1  H18A 9538   3.367   1.153   7.524 -0.1598 -0.1385  0.3448
   96CHL1  H18B 9539   3.341   1.151   7.335  1.9027 -2.4241 -1.2695
   96CHL1  H18C 9540   3.221   1.080   7.464  0.3383  1.5536  3.6372
   96CHL1   C12 9541   3.559   1.014   7.390 -0.1738  0.5140  0.3468
   96CHL1  H12A 9542   3.607   1.093   7.453  1.5650 -0.9366  0.9250
   96CHL1  H12B 9543   3.625   0.928   7.415  0.0079  0.8082  0.8897
   96CHL1   C11 9544   3.568   1.064   7.245 -0.1868  0.5500 -0.2083
   96CHL1  H11A 9545   3.517   1.160   7.227 -1.0477 -0.1898 -1.9525
   96CHL1  H11B 9546   3.674   1.058   7.211 -0.2172  0.7332 -0.3302
   96CHL1    C9 9547   3.496   0.969   7.140 -0.4299 -0.0224  0.5581
   96CHL1    H9 9548   3.545   0.870   7.148 -0.4920 -0.0903  0.0948
   96CHL1   C10 9549   3.501   1.027   6.990 -0.0524  0.3042  0.5771
   96CHL1   C19 9550   3.458   1.180   6.987 -0.1086 -0.0308  0.1180
   96CHL1  H19A 9551   3.351   1.200   7.008 -0.4220 -0.3541 -1.0905
   96CHL1  H19B 9552   3.520   1.239   7.057 -0.2895 -0.4068  0.6022
   96CHL1  H19C 9553   3.462   1.225   6.885 -1.2023  1.1372  0.5745
   96CHL1    C1 9554   3.644   1.006   6.929  0.0491  0.1293  0.0824
   96CHL1   H1A 9555   3.717   1.057   6.995 -1.6868  1.1897  1.2946
   96CHL1   H1B 9556   3.682   0.902   6.935 -2.2943 -0.7690  0.7186
   96CHL1    C2 9557   3.669   1.055   6.791  0.4695 -0.2013  0.3834
   96CHL1   H2A 9558   3.774   1.051   6.754  0.0554  1.4919 -1.1278
   96CHL1   H2B 9559   3.639   1.162   6.799 -2.2478 -0.8973  0.3767
   96CHL1   C20 9560   3.395   0.931   7.690 -0.2895  0.0529 -0.6349
   96CHL1   H20 9561   3.325   1.017   7.692  0.5324  0.7302 -0.4171
   96CHL1   C21 9562   3.527   0.994   7.729  0.2675 -0.1026  0.3758
   96CHL1  H21A 9563   3.521   1.042   7.829 -1.0583  0.0021  0.2646
   96CHL1  H21B 9564   3.561   1.065   7.651  0.4707  0.0631  0.6140
   96CHL1  H21C 9565   3.600   0.911   7.735 -0.2258 -0.7935 -2.0030
   96CHL1   C22 9566   3.347   0.814   7.783  0.1520 -0.5533 -0.0187
   96CHL1  H22A 9567   3.243   0.783   7.759 -0.0528  0.3717 -0.3754
   96CHL1  H22B 9568   3.421   0.731   7.779 -1.2426 -1.8064 -0.6716
   96CHL1   C23 9569   3.329   0.870   7.933 -0.1512 -0.6043  0.2337
   96CHL1  H23A 9570   3.423   0.919   7.963 -0.9028 -0.1578  1.9879
   96CHL1  H23B 9571   3.249   0.947   7.925 -0.0598 -0.6680 -1.9170
   96CHL1   C24 9572   3.292   0.756   8.031  0.6700  0.4953 -0.1886
   96CHL1  H24A 9573   3.200   0.699   8.008  1.4019 -0.3048 -1.2251
   96CHL1  H24B 9574   3.370   0.678   8.018 -0.2731 -0.3247 -1.0388
   96CHL1   C25 9575   3.278   0.794   8.184 -0.7375  0.6496  0.0623
   96CHL1   H25 9576   3.214   0.885   8.185 -1.4092  0.2711 -2.1414
   96CHL1   C26 9577   3.210   0.680   8.267 -0.4045 -0.7965 -0.1209
   96CHL1  H26A 9578   3.114   0.662   8.215 -0.4822  2.0195 -1.1118
   96CHL1  H26B 9579   3.266   0.584   8.276 -0.0863 -0.4649  2.2433
   96CHL1  H26C 9580   3.201   0.719   8.371 -1.1099 -0.4573 -0.3041
   96CHL1   C27 9581   3.423   0.817   8.233  0.3507 -0.7920 -0.1061
   96CHL1  H27A 9582   3.479   0.722   8.219  0.0081 -0.9151 -0.6284
   96CHL1  H27B 9583   3.477   0.887   8.166 -0.0324  1.1946  1.5643
   96CHL1  H27C 9584   3.423   0.867   8.333 -3.0587  1.4008 -1.0619
   97OSM      N 9585   6.449   6.016  11.156 -0.0980 -0.0595  0.2481
   97OSM    C15 9586   6.396   6.082  11.032  0.0976  0.1663 -0.5560
   97OSM   H15A 9587   6.322   6.149  11.072 -0.8142 -0.6368 -0.8527
   97OSM   H15B 9588   6.357   6.019  10.953 -1.0907  0.0751  0.0748
   97OSM   H15C 9589   6.476   6.141  10.990  0.4253  0.0969 -0.0364
   97OSM    C14 9590   6.519   6.119  11.244  0.7805 -1.0942  0.3617
   97OSM   H14A 9591   6.438   6.166  11.298  0.0951 -2.0500  0.1973
   97OSM   H14B 9592   6.575   6.194  11.190 -1.9156 -0.0078 -1.1477
   97OSM   H14C 9593   6.589   6.073  11.312  1.7366  0.3123  0.3660
   97OSM    C13 9594   6.342   5.957  11.240  0.1278 -0.7289 -0.3541
   97OSM   H13A 9595   6.387   5.919  11.330  2.6341  0.6828 -0.8974
   97OSM   H13B 9596   6.294   5.879  11.183  0.5389 -0.7691 -0.6510
   97OSM   H13C 9597   6.264   6.029  11.263  0.3277 -0.7699  0.4596
   97OSM    C12 9598   6.547   5.909  11.120  0.6064 -0.3753  0.3036
   97OSM   H12A 9599   6.587   5.867  11.212  0.7038  0.5053  0.6688
   97OSM   H12B 9600   6.627   5.954  11.063  0.9065 -0.3138  0.7704
   97OSM    C11 9601   6.490   5.794  11.040 -0.4237  0.1594  0.3186
   97OSM   H11A 9602   6.570   5.743  10.981 -2.2154 -0.5099 -1.6827
   97OSM   H11B 9603   6.406   5.833  10.978 -0.3881 -0.0540  0.1318
   97OSM      P 9604   6.326   5.607  11.170  0.3351  0.1832  0.3406
   97OSM    O13 9605   6.368   5.519  11.279 -0.0675 -0.0049  0.2990
   97OSM    O14 9606   6.202   5.686  11.175 -0.3963 -0.2098  1.0932
   97OSM    O11 9607   6.310   5.512  11.048 -0.0073  0.2964  0.1896
   97OSM    O12 9608   6.447   5.699  11.139 -1.0056 -0.4275  0.0484
   97OSM    C1S 9609   6.427   5.444  10.996  1.5787 -0.2918  0.3269
   97OSM    H1S 9610   6.451   5.349  11.048 -0.4160 -1.1196 -0.2051
   97OSM    H1T 9611   6.517   5.509  11.004  2.0560 -0.7045 -1.4059
   97OSM     NF 9612   6.566   5.395  10.807  0.3301 -0.5075 -0.4047
   97OSM    HNF 9613   6.623   5.475  10.791  1.0324 -1.3387 -2.3711
   97OSM    C2S 9614   6.431   5.425  10.842 -0.2765 -0.0266 -0.0816
   97OSM    H2S 9615   6.358   5.344  10.825 -0.0875 -0.9879  3.0978
   97OSM    C3S 9616   6.383   5.556  10.775 -0.3814 -0.2979 -0.5077
   97OSM    H3S 9617   6.436   5.645  10.816  0.0803  0.0500 -1.8169
   97OSM     O3 9618   6.244   5.578  10.802 -0.7526  0.4218 -0.6635
   97OSM    HO3 9619   6.241   5.544  10.891  0.7864 -0.2720 -0.8456
   97OSM    C4S 9620   6.413   5.549  10.636 -0.0154 -0.2782  0.5967
   97OSM    H4S 9621   6.388   5.459  10.578  1.5359  0.7660 -1.8979
   97OSM    C5S 9622   6.443   5.653  10.551 -0.0577 -0.1263 -0.0566
   97OSM    H5S 9623   6.455   5.755  10.591  1.0164 -0.1557 -0.2508
   97OSM    C6S 9624   6.459   5.634  10.402  0.5580  0.2030 -0.1192
   97OSM    H6S 9625   6.487   5.531  10.373  1.0060 -0.1040  1.3307
   97OSM    H6T 9626   6.544   5.695  10.363  1.8387 -0.4283  1.5707
   97OSM    C7S 9627   6.323   5.653  10.331  0.1343 -0.0708  0.0912
   97OSM    H7S 9628   6.266   5.744  10.359 -1.1656 -0.9348  0.3573
   97OSM    H7T 9629   6.258   5.568  10.362  0.6860 -0.8245 -0.7600
   97OSM    C8S 9630   6.348   5.653  10.182  0.2978  0.2554  0.8382
   97OSM    H8S 9631   6.424   5.574  10.168  0.0067  0.3614 -1.9480
   97OSM    H8T 9632   6.401   5.745  10.151  2.2300 -1.0145  0.2433
   97OSM    C9S 9633   6.222   5.622  10.092 -0.0595 -0.7486 -0.8335
   97OSM    H9S 9634   6.150   5.705  10.075  1.4455  0.5274 -1.1824
   97OSM    H9T 9635   6.163   5.543  10.144 -1.3895  0.4873 -0.4019
   97OSM   C10S 9636   6.255   5.569   9.955 -0.0395 -0.2782 -0.0546
   97OSM   H10S 9637   6.176   5.499   9.921 -1.2705  2.0711 -2.3081
   97OSM   H10T 9638   6.352   5.513   9.961  0.0966 -0.2775 -1.7999
   97OSM   C11S 9639   6.267   5.677   9.847 -0.1340  0.7921 -0.0082
   97OSM   H11S 9640   6.335   5.755   9.887  0.0420  1.0559 -0.8012
   97OSM   H11T 9641   6.162   5.714   9.842 -0.5948 -0.5267 -0.5530
   97OSM   C12S 9642   6.329   5.629   9.711 -0.0267 -0.8517  0.7137
   97OSM   H12S 9643   6.417   5.563   9.723 -0.4995 -1.4581  0.8834
   97OSM   H12T 9644   6.368   5.719   9.658  1.1500 -1.4645  0.5103
   97OSM   C13S 9645   6.220   5.553   9.630 -0.4542 -0.1463 -0.5685
   97OSM   H13S 9646   6.122   5.586   9.672  0.2182  0.1983  0.7765
   97OSM   H13T 9647   6.230   5.445   9.650 -1.8862 -0.0584  0.8701
   97OSM   C14S 9648   6.221   5.597   9.481  0.2769 -0.3326 -0.2942
   97OSM   H14S 9649   6.305   5.547   9.428  0.5553  0.5427 -0.6892
   97OSM   H14T 9650   6.243   5.706   9.480  0.1195 -0.2906  0.4016
   97OSM   C15S 9651   6.088   5.582   9.404  0.2278 -0.3434 -0.4068
   97OSM   H15S 9652   6.014   5.649   9.453  0.8840  0.0699  0.0391
   97OSM   H15T 9653   6.056   5.476   9.408 -0.1104 -0.2471 -0.5232
   97OSM   C16S 9654   6.106   5.636   9.262  0.4579  0.0205  0.6335
   97OSM   H16S 9655   6.154   5.736   9.255 -1.6444  0.9940 -1.4485
   97OSM   H16T 9656   6.000   5.641   9.228  0.4924  0.2672  0.5562
   97OSM   C17S 9657   6.174   5.528   9.176  0.1242  0.6309  0.6240
   97OSM   H17S 9658   6.123   5.430   9.187  1.2584  0.0564  0.9499
   97OSM   H17T 9659   6.276   5.522   9.219  0.9700  2.7916 -0.9088
   97OSM   C18S 9660   6.199   5.568   9.033 -0.5839  0.8388 -0.4003
   97OSM   H18S 9661   6.113   5.558   8.964  0.0995 -2.4404 -0.9252
   97OSM   H18T 9662   6.292   5.528   8.987 -1.2241 -0.2409 -0.7657
   97OSM   H18U 9663   6.225   5.676   9.028  2.3939  0.2870  1.0783
   97OSM    C1F 9664   6.624   5.276  10.832  0.5396 -0.6657  0.4179
   97OSM     OF 9665   6.562   5.187  10.888 -0.1971 -0.3689 -0.1059
   97OSM    C2F 9666   6.755   5.251  10.775  0.0497 -0.3227  0.4252
   97OSM    H2F 9667   6.778   5.144  10.796  0.2399 -0.0017  1.8993
   97OSM    H2G 9668   6.835   5.318  10.813  0.8373 -0.7738 -0.3750
   97OSM    C3F 9669   6.744   5.275  10.624 -0.2380  0.2111  0.3813
   97OSM    H3F 9670   6.842   5.248  10.580  0.3056  0.0486  1.6445
   97OSM    H3G 9671   6.730   5.381  10.593 -1.9063 -0.0874  0.0358
   97OSM    C4F 9672   6.638   5.188  10.549  0.8998  0.1506  0.6370
   97OSM    H4F 9673   6.556   5.177  10.622 -0.7476  0.2570 -1.1022
   97OSM    H4G 9674   6.666   5.081  10.535 -0.9502 -0.0784 -2.2474
   97OSM    C5F 9675   6.581   5.235  10.415  0.0617 -0.0813  0.1409
   97OSM    H5F 9676   6.550   5.342  10.421  1.2347  0.2405  0.8072
   97OSM    H5G 9677   6.501   5.171  10.372  0.2816  0.0402 -0.4541
   97OSM    C6F 9678   6.683   5.227  10.305 -0.0214  0.1204  0.1739
   97OSM    H6F 9679   6.719   5.126  10.274 -2.2393 -1.1387  1.4096
   97OSM    H6G 9680   6.769   5.270  10.360  0.5793  0.8773 -1.3047
   97OSM    C7F 9681   6.653   5.316  10.182  0.0574  0.3495 -0.3957
   97OSM    H7F 9682   6.607   5.409  10.223 -0.2493  0.0653 -0.0868
   97OSM    H7G 9683   6.576   5.255  10.132  0.2092 -1.4958  1.4950
   97OSM    C8F 9684   6.775   5.341  10.095  0.0610  0.1017 -0.2745
   97OSM    H8F 9685   6.820   5.240  10.101 -1.8344 -0.8344 -0.9675
   97OSM    H8G 9686   6.843   5.414  10.145 -1.3445  0.3607  1.3733
   97OSM    C9F 9687   6.740   5.385   9.961 -0.2281  0.1217  0.0891
   97OSM    H9F 9688   6.716   5.491   9.947  0.6204  0.4992  1.3148
   97OSM   C10F 9689   6.718   5.298   9.860 -0.1184 -1.0781  0.6503
   97OSM   H10F 9690   6.702   5.334   9.757  1.9004  0.9119  0.9473
   97OSM   C11F 9691   6.731   5.151   9.859 -0.1410  0.6102 -0.3148
   97OSM   H11F 9692   6.630   5.107   9.845  0.6356 -0.8483 -1.5798
   97OSM   H11G 9693   6.765   5.121   9.961 -1.5048  2.3841  0.7205
   97OSM   C12F 9694   6.826   5.105   9.750  0.3599 -0.4148  0.5923
   97OSM   H12F 9695   6.859   5.002   9.780 -1.0179 -0.3395  2.5490
   97OSM   H12G 9696   6.917   5.165   9.729 -0.1378 -0.1724 -0.9531
   97OSM   C13F 9697   6.752   5.100   9.616 -0.2028 -0.2711 -0.5004
   97OSM   H13F 9698   6.706   5.198   9.591 -2.4023 -0.3024  2.7780
   97OSM   H13G 9699   6.673   5.022   9.615  0.1934 -0.6824 -2.1555
   97OSM   C14F 9700   6.844   5.062   9.495 -0.3776  0.2750 -0.4746
   97OSM   H14F 9701   6.903   4.969   9.512 -0.8850  0.3221  1.9471
   97OSM   H14G 9702   6.928   5.134   9.481 -0.1625  0.3640  1.0316
   97OSM   C15F 9703   6.764   5.044   9.372 -1.0757  0.0962  0.1487
   97OSM   H15F 9704   6.697   5.133   9.372  0.1513  1.0601  1.0550
   97OSM   H15G 9705   6.696   4.960   9.396 -2.6278  1.4719  0.7438
   97OSM   C16F 9706   6.851   5.020   9.248 -0.0492 -0.1276 -0.4083
   97OSM   H16F 9707   6.915   4.929   9.252 -2.7388 -2.1883 -0.7541
   97OSM   H16G 9708   6.907   5.115   9.236 -1.2285  0.4890 -1.1828
   97OSM   C17F 9709   6.754   4.990   9.128 -0.1379 -0.2599 -0.1512
   97OSM   H17F 9710   6.676   5.069   9.125  1.7802  1.7313 -1.3193
   97OSM   H17G 9711   6.702   4.894   9.146  1.5759 -1.1182  0.4546
   97OSM   C18F 9712   6.825   4.979   8.990 -0.2114  0.5195 -0.1370
   97OSM   H18F 9713   6.761   4.928   8.914 -1.2122  0.1093  0.9575
   97OSM   H18G 9714   6.927   4.935   8.987  0.1914  1.4629 -2.2711
   97OSM   H18H 9715   6.853   5.076   8.944  3.0156 -1.8659 -3.8610
   98OSM      N 9716   6.324   4.080  11.016 -0.4327  0.0095  0.1350
   98OSM    C15 9717   6.353   4.167  11.133 -1.1698  0.2940 -0.6208
   98OSM   H15A 9718   6.291   4.148  11.219 -0.7113  1.2355 -0.0670
   98OSM   H15B 9719   6.331   4.271  11.110  1.5897  1.4699  1.4682
   98OSM   H15C 9720   6.457   4.168  11.159 -1.3930 -0.2460  0.3166
   98OSM    C14 9721   6.183   4.052  11.009  0.2314 -0.0897  0.4471
   98OSM   H14A 9722   6.126   4.144  11.016 -0.5520 -0.5498  0.2731
   98OSM   H14B 9723   6.162   3.985  11.091  1.6282 -0.6652  0.3607
   98OSM   H14C 9724   6.169   4.021  10.907  0.5921  2.1810 -0.3560
   98OSM    C13 9725   6.368   4.145  10.896 -1.0045  0.0214  0.8486
   98OSM   H13A 9726   6.309   4.229  10.861 -0.5147  1.2439  2.7954
   98OSM   H13B 9727   6.400   4.067  10.827  2.6332 -1.5603  3.9640
   98OSM   H13C 9728   6.462   4.194  10.915 -0.3997 -0.0346 -1.6369
   98OSM    C12 9729   6.397   3.939  11.038  0.3136  0.3035 -0.1897
   98OSM   H12A 9730   6.369   3.876  10.955 -1.4241 -1.6853  1.7869
   98OSM   H12B 9731   6.347   3.882  11.115 -2.3509  0.7683 -1.4297
   98OSM    C11 9732   6.553   3.946  11.082 -0.0139 -0.4236  0.1370
   98OSM   H11A 9733   6.580   3.839  11.088 -1.9888 -1.0390 -0.9373
   98OSM   H11B 9734   6.567   3.988  11.184 -1.5177  2.0433 -0.5764
   98OSM      P 9735   6.769   4.074  11.013  0.1242 -0.6593 -0.4300
   98OSM    O13 9736   6.734   4.204  11.069 -0.0160 -1.1436 -0.0718
   98OSM    O14 9737   6.864   3.989  11.090  0.2342  0.2243 -0.1463
   98OSM    O11 9738   6.836   4.115  10.869 -0.0728  0.1310 -0.3847
   98OSM    O12 9739   6.631   4.002  10.974 -0.4598 -0.5311  0.2565
   98OSM    C1S 9740   6.771   4.084  10.748 -0.5815 -0.2860  0.5025
   98OSM    H1S 9741   6.666   4.119  10.747 -2.1894 -4.3019  2.6184
   98OSM    H1T 9742   6.763   3.975  10.729  0.3156 -0.5199  1.3641
   98OSM     NF 9743   6.790   4.089  10.498  0.2306  0.1512 -0.1960
   98OSM    HNF 9744   6.829   4.012  10.449 -0.6684  0.3730 -1.2988
   98OSM    C2S 9745   6.862   4.123  10.627  0.2038  0.0201  0.1560
   98OSM    H2S 9746   6.873   4.233  10.635  2.4841 -0.2142  0.9625
   98OSM    C3S 9747   6.998   4.055  10.644 -0.0049 -0.1992 -0.5394
   98OSM    H3S 9748   6.974   3.947  10.637 -3.4195  0.2511  1.7251
   98OSM     O3 9749   7.058   4.062  10.774 -0.2006  0.2491  0.2631
   98OSM    HO3 9750   6.997   4.118  10.822  0.6296  1.2554  0.1725
   98OSM    C4S 9751   7.093   4.104  10.538 -0.1841  0.6157 -1.1685
   98OSM    H4S 9752   7.145   4.196  10.568 -1.0758  0.8575 -0.3122
   98OSM    C5S 9753   7.125   4.048  10.421 -0.6187 -0.0838  0.1687
   98OSM    H5S 9754   7.084   3.948  10.403  0.7645 -0.5926 -0.2791
   98OSM    C6S 9755   7.228   4.091  10.317 -0.2874 -0.3558 -0.1165
   98OSM    H6S 9756   7.329   4.045  10.327 -0.1895 -0.1272 -0.0505
   98OSM    H6T 9757   7.244   4.201  10.318  0.9499 -0.5263  0.3033
   98OSM    C7S 9758   7.175   4.051  10.174 -0.3215  0.5867 -0.2319
   98OSM    H7S 9759   7.065   4.066  10.170 -0.5336  0.2545  2.6311
   98OSM    H7T 9760   7.167   3.942  10.152 -1.0743  0.7622 -0.8761
   98OSM    C8S 9761   7.251   4.117  10.060 -0.1770 -0.9404 -0.5422
   98OSM    H8S 9762   7.333   4.043  10.049 -0.9061 -2.2082  1.8408
   98OSM    H8T 9763   7.290   4.216  10.091 -1.4332 -0.2245 -1.1991
   98OSM    C9S 9764   7.173   4.132   9.922  0.0242 -0.5923 -0.2127
   98OSM    H9S 9765   7.243   4.171   9.844  1.4291 -1.8872  0.3505
   98OSM    H9T 9766   7.084   4.197   9.938  0.7959  0.7274 -1.0583
   98OSM   C10S 9767   7.137   3.998   9.858 -0.7189 -0.7528  0.2250
   98OSM   H10S 9768   7.037   3.970   9.901 -1.1196 -0.2478 -0.3701
   98OSM   H10T 9769   7.202   3.911   9.881 -0.3868  0.1731  3.2500
   98OSM   C11S 9770   7.119   4.013   9.703  0.1204  0.6652 -0.3058
   98OSM   H11S 9771   7.079   3.916   9.667 -3.4099  1.3766  1.3430
   98OSM   H11T 9772   7.222   4.027   9.664  0.9599  0.2344  1.6370
   98OSM   C12S 9773   7.028   4.115   9.652  0.4803  0.0963  0.4987
   98OSM   H12S 9774   7.040   4.209   9.711 -1.1193  0.5609  0.1429
   98OSM   H12T 9775   6.921   4.091   9.673  0.8753 -0.9463  1.3595
   98OSM   C13S 9776   7.024   4.138   9.502 -0.0508  0.0646 -0.3993
   98OSM   H13S 9777   7.122   4.091   9.480  1.8162  3.5559 -0.2350
   98OSM   H13T 9778   7.025   4.247   9.484 -0.2799 -0.0540 -1.1761
   98OSM   C14S 9779   6.901   4.077   9.419  0.1503  0.0413 -0.5984
   98OSM   H14S 9780   6.804   4.109   9.464 -0.0829 -0.1425 -0.9679
   98OSM   H14T 9781   6.901   3.966   9.421 -1.6426  0.0051 -0.9585
   98OSM   C15S 9782   6.909   4.124   9.273  0.1337  0.2574 -0.0787
   98OSM   H15S 9783   6.979   4.053   9.223 -1.8488 -0.6405 -1.7048
   98OSM   H15T 9784   6.954   4.226   9.271  0.2909  0.1935  0.1232
   98OSM   C16S 9785   6.780   4.107   9.196  0.2430  0.1708  0.0896
   98OSM   H16S 9786   6.699   4.181   9.213 -2.3199 -2.1727 -1.1234
   98OSM   H16T 9787   6.737   4.007   9.214 -1.8904  1.0195  0.0464
   98OSM   C17S 9788   6.807   4.093   9.040  0.5980  0.1056 -0.4933
   98OSM   H17S 9789   6.916   4.098   9.018  0.9786 -1.4351  0.8457
   98OSM   H17T 9790   6.765   4.186   8.995  2.8781  2.1684  1.3715
   98OSM   C18S 9791   6.746   3.973   8.972 -0.0882  1.0857  0.2058
   98OSM   H18S 9792   6.791   3.968   8.870  1.4492 -0.2781  0.9084
   98OSM   H18T 9793   6.635   3.974   8.968 -0.0960  0.1917 -0.1515
   98OSM   H18U 9794   6.789   3.887   9.028 -1.2153  1.1203  1.1746
   98OSM    C1F 9795   6.676   4.145  10.446 -0.7615  0.2819  0.3702
   98OSM     OF 9796   6.628   4.238  10.507  0.6969 -0.1540 -0.9553
   98OSM    C2F 9797   6.641   4.085  10.309 -0.7066 -0.4163 -0.0111
   98OSM    H2F 9798   6.558   4.012  10.322 -2.4767  1.4537 -0.2476
   98OSM    H2G 9799   6.723   4.022  10.268 -0.1801 -0.3713  0.9428
   98OSM    C3F 9800   6.596   4.186  10.201  0.4385  0.1876 -0.3302
   98OSM    H3F 9801   6.524   4.249  10.257  1.1284  0.9571 -0.2953
   98OSM    H3G 9802   6.548   4.136  10.114 -0.2436 -0.8536  0.6188
   98OSM    C4F 9803   6.712   4.272  10.153  0.5365  0.5555  0.1542
   98OSM    H4F 9804   6.789   4.202  10.114 -0.9775 -1.0487 -0.0779
   98OSM    H4G 9805   6.741   4.332  10.242 -0.9609  3.9886 -1.4920
   98OSM    C5F 9806   6.667   4.358  10.034 -0.7140 -0.2486 -0.3707
   98OSM    H5F 9807   6.757   4.416  10.004  0.0876 -1.7413 -0.9644
   98OSM    H5G 9808   6.582   4.425  10.056 -0.3093  0.4891 -0.9736
   98OSM    C6F 9809   6.634   4.275   9.912  0.2578 -0.2082  1.0044
   98OSM    H6F 9810   6.534   4.229   9.928 -0.4625  0.9935  0.0936
   98OSM    H6G 9811   6.704   4.189   9.908  0.9345  0.3673 -1.8766
   98OSM    C7F 9812   6.625   4.353   9.777 -0.0792 -0.1971  0.4395
   98OSM    H7F 9813   6.720   4.403   9.748  0.4250  0.5121  3.0301
   98OSM    H7G 9814   6.552   4.433   9.799  0.3449 -0.3891  2.9380
   98OSM    C8F 9815   6.577   4.259   9.663 -0.5687  0.5786  0.5520
   98OSM    H8F 9816   6.637   4.166   9.660 -1.4942 -0.0013 -1.2838
   98OSM    H8G 9817   6.604   4.313   9.570  1.2521 -1.1583  0.0043
   98OSM    C9F 9818   6.427   4.239   9.672 -0.5966  0.7196  0.0422
   98OSM    H9F 9819   6.369   4.308   9.736 -0.5249  0.5063  0.3427
   98OSM   C10F 9820   6.368   4.147   9.599  0.4551  0.2929  0.0996
   98OSM   H10F 9821   6.258   4.145   9.607  0.5001 -1.0492  0.5132
   98OSM   C11F 9822   6.426   4.049   9.502 -0.1964  0.3541  0.3858
   98OSM   H11F 9823   6.460   3.965   9.567  2.5903  1.9261  1.1066
   98OSM   H11G 9824   6.512   4.098   9.451  0.7280 -1.4996  0.0696
   98OSM   C12F 9825   6.335   4.007   9.376 -0.8848  0.6063 -0.7625
   98OSM   H12F 9826   6.245   3.957   9.417 -0.4522  0.0326 -0.4871
   98OSM   H12G 9827   6.379   3.922   9.319 -2.7291 -0.7321 -0.2897
   98OSM   C13F 9828   6.293   4.126   9.285 -0.3478 -0.5364 -0.1712
   98OSM   H13F 9829   6.389   4.169   9.250  0.7508 -3.1330 -0.6195
   98OSM   H13G 9830   6.225   4.194   9.341 -0.0997 -1.6956  1.6152
   98OSM   C14F 9831   6.214   4.090   9.151  0.2596  0.2229 -0.1556
   98OSM   H14F 9832   6.186   4.189   9.111 -1.4569  0.3407  1.2268
   98OSM   H14G 9833   6.123   4.038   9.189  1.9537 -1.6421  1.6756
   98OSM   C15F 9834   6.290   3.982   9.068  0.2088  0.4007 -0.0968
   98OSM   H15F 9835   6.306   3.882   9.116  3.1435  0.1698 -1.3232
   98OSM   H15G 9836   6.382   4.034   9.033  0.4101  1.1442  1.4622
   98OSM   C16F 9837   6.232   3.955   8.926  0.7896  0.2476  0.4181
   98OSM   H16F 9838   6.320   3.941   8.859  0.6675 -0.0679  0.3236
   98OSM   H16G 9839   6.182   4.040   8.876  0.1592 -0.1383  0.3785
   98OSM   C17F 9840   6.149   3.820   8.915 -0.2526  0.0781 -0.3505
   98OSM   H17F 9841   6.203   3.737   8.965 -0.7701 -1.3045 -2.0029
   98OSM   H17G 9842   6.147   3.794   8.807 -2.4278 -0.5061 -0.1973
   98OSM   C18F 9843   6.011   3.838   8.970 -0.1671 -0.1273  0.2875
   98OSM   H18F 9844   5.960   3.740   8.973 -0.2520 -0.0687  0.7577
   98OSM   H18G 9845   5.959   3.915   8.908 -0.5872 -0.2993  0.4282
   98OSM   H18H 9846   6.007   3.880   9.073 -0.9036 -1.8613  1.0013
   99OSM      N 9847   2.298   1.641  10.986  0.1651  0.0303 -0.6226
   99OSM    C15 9848   2.285   1.715  10.858 -0.0420  0.0242  0.3529
   99OSM   H15A 9849   2.298   1.658  10.767  3.1137  1.6350 -0.3473
   99OSM   H15B 9850   2.358   1.795  10.853  1.7122 -1.5509 -0.5619
   99OSM   H15C 9851   2.191   1.767  10.850  0.1338  0.3527  0.3879
   99OSM    C14 9852   2.431   1.569  10.999  0.2122  0.3588 -0.0173
   99OSM   H14A 9853   2.454   1.498  10.921  0.5462 -0.4778  0.8254
   99OSM   H14B 9854   2.435   1.510  11.090  0.0927 -1.6220 -1.2454
   99OSM   H14C 9855   2.512   1.640  11.003  0.5265 -0.0309  0.7904
   99OSM    C13 9856   2.288   1.741  11.095  0.0646  0.1280  0.0135
   99OSM   H13A 9857   2.193   1.794  11.091  0.1949  0.3707  0.1097
   99OSM   H13B 9858   2.375   1.803  11.103  1.5218 -0.7132 -5.4512
   99OSM   H13C 9859   2.281   1.693  11.192  0.2238 -1.9166 -0.9332
   99OSM    C12 9860   2.191   1.536  10.997 -0.2854 -0.2906  0.1687
   99OSM   H12A 9861   2.186   1.504  11.100 -0.6643  0.2033  0.3040
   99OSM   H12B 9862   2.229   1.446  10.950 -0.3038  0.3491 -1.0902
   99OSM    C11 9863   2.051   1.569  10.951 -0.2225 -0.6990  0.1401
   99OSM   H11A 9864   1.996   1.474  10.967 -2.3724  0.9129  3.1797
   99OSM   H11B 9865   2.063   1.591  10.843  3.4651 -0.5567  0.4302
   99OSM      P 9866   1.929   1.792  10.978 -0.2261  0.5346 -0.2848
   99OSM    O13 9867   1.783   1.782  10.978 -0.2489 -0.3933  0.1254
   99OSM    O14 9868   2.005   1.890  11.066  0.2042  0.4823  0.4646
   99OSM    O11 9869   1.982   1.800  10.829  0.1234  0.0923  0.4309
   99OSM    O12 9870   1.992   1.659  11.027  0.9332  0.0963 -0.1900
   99OSM    C1S 9871   1.944   1.908  10.745  0.2218  0.3762  0.4754
   99OSM    H1S 9872   2.003   1.997  10.773  1.5098  0.3943 -2.0393
   99OSM    H1T 9873   1.834   1.923  10.743  0.2322  0.3655 -0.7370
   99OSM     NF 9874   1.986   2.008  10.532  0.2672 -0.2926  0.5588
   99OSM    HNF 9875   1.892   2.034  10.510 -0.9799 -1.7479  3.5958
   99OSM    C2S 9876   1.985   1.880  10.596  0.9231 -0.0012  0.1894
   99OSM    H2S 9877   2.087   1.838  10.596  2.0020  2.4253  1.6987
   99OSM    C3S 9878   1.888   1.774  10.531 -0.1427 -0.1920  0.0838
   99OSM    H3S 9879   1.794   1.831  10.514 -0.3929 -1.1043 -1.8039
   99OSM     O3 9880   1.857   1.668  10.617 -0.0179 -0.4240  0.2705
   99OSM    HO3 9881   1.894   1.693  10.702  0.2283 -0.0028  0.0444
   99OSM    C4S 9882   1.938   1.728  10.390 -0.5880 -0.1355 -1.1570
   99OSM    H4S 9883   2.013   1.648  10.381 -0.9447 -0.8735  1.6696
   99OSM    C5S 9884   1.886   1.765  10.271  0.1387 -0.2141  0.1312
   99OSM    H5S 9885   1.805   1.839  10.271  0.6847  0.4188  1.7907
   99OSM    C6S 9886   1.926   1.717  10.136  0.2067 -0.5090 -0.3085
   99OSM    H6S 9887   1.922   1.806  10.069  0.5462 -2.0891 -2.5578
   99OSM    H6T 9888   1.853   1.638  10.108  0.1375 -1.5492  2.5329
   99OSM    C7S 9889   2.074   1.675  10.132  0.5907 -0.0616 -0.3023
   99OSM    H7S 9890   2.082   1.581  10.190  0.6282  0.7452  1.0366
   99OSM    H7T 9891   2.135   1.752  10.183 -0.3206  0.6457 -0.2573
   99OSM    C8S 9892   2.108   1.640   9.994 -0.3499 -0.4556 -0.3302
   99OSM    H8S 9893   2.036   1.578   9.937  0.1216 -0.8658 -0.4888
   99OSM    H8T 9894   2.202   1.582  10.012  0.4536  0.9662  0.2326
   99OSM    C9S 9895   2.148   1.763   9.906 -0.7805 -0.0349 -0.7237
   99OSM    H9S 9896   2.223   1.817   9.969  1.7351 -3.1299 -0.8314
   99OSM    H9T 9897   2.055   1.822   9.891  0.0669  1.9245  1.0769
   99OSM   C10S 9898   2.210   1.713   9.772 -0.0325  0.7046 -0.1023
   99OSM   H10S 9899   2.137   1.671   9.699  0.0958  0.3759 -0.0429
   99OSM   H10T 9900   2.282   1.631   9.792 -0.7553 -0.3138 -1.4710
   99OSM   C11S 9901   2.287   1.820   9.688  0.2137 -0.4970 -0.3690
   99OSM   H11S 9902   2.387   1.826   9.736 -0.4981  1.0121  1.0139
   99OSM   H11T 9903   2.230   1.915   9.700 -0.5525 -0.9445 -0.4052
   99OSM   C12S 9904   2.308   1.782   9.543  0.4740 -0.4306  0.1343
   99OSM   H12S 9905   2.371   1.692   9.524  1.9327  0.6190 -0.1504
   99OSM   H12T 9906   2.210   1.743   9.508  1.9507 -2.1718 -2.3907
   99OSM   C13S 9907   2.360   1.901   9.458  0.4250  0.0587  0.2285
   99OSM   H13S 9908   2.456   1.937   9.501  0.2516  2.2155 -1.0014
   99OSM   H13T 9909   2.289   1.986   9.454  0.9928  0.6375  1.7988
   99OSM   C14S 9910   2.377   1.863   9.308 -0.1463 -0.2663 -0.2971
   99OSM   H14S 9911   2.280   1.822   9.271  0.0445  0.6339 -1.8872
   99OSM   H14T 9912   2.456   1.785   9.300  1.1525  0.9078  0.7682
   99OSM   C15S 9913   2.399   1.992   9.224  0.4398  0.4556  0.3956
   99OSM   H15S 9914   2.497   2.044   9.236  0.0460  1.5419 -0.8931
   99OSM   H15T 9915   2.322   2.066   9.253 -1.1109 -1.1826  0.6242
   99OSM   C16S 9916   2.389   1.958   9.072  0.1559  0.0161 -0.2926
   99OSM   H16S 9917   2.466   1.880   9.053  0.2878 -0.3578  1.6208
   99OSM   H16T 9918   2.408   2.050   9.013 -0.2721 -1.0565 -2.2128
   99OSM   C17S 9919   2.253   1.904   9.020 -0.5091 -0.2063 -0.3766
   99OSM   H17S 9920   2.202   1.820   9.072 -0.7224 -0.3780 -0.8538
   99OSM   H17T 9921   2.265   1.861   8.918 -0.2220 -3.4320  0.9013
   99OSM   C18S 9922   2.143   2.006   9.014 -0.3993  0.5121  0.1513
   99OSM   H18S 9923   2.171   2.093   8.950  0.9020 -0.3228 -0.4548
   99OSM   H18T 9924   2.102   2.038   9.112  1.0080  0.6576  0.7147
   99OSM   H18U 9925   2.053   1.952   8.977 -0.9992  0.2382  1.9075
   99OSM    C1F 9926   2.091   2.089  10.542 -0.0228 -0.2969 -0.0694
   99OSM     OF 9927   2.193   2.053  10.600  0.2130 -0.5466  0.4068
   99OSM    C2F 9928   2.078   2.221  10.470  0.1639 -0.2622  0.0176
   99OSM    H2F 9929   2.010   2.293  10.521  1.7943  0.1720  1.7056
   99OSM    H2G 9930   2.042   2.193  10.369  0.2783  0.8342 -0.3364
   99OSM    C3F 9931   2.215   2.289  10.457  0.1239  0.1248 -0.0595
   99OSM    H3F 9932   2.227   2.345  10.552 -1.6257  0.0187  0.2656
   99OSM    H3G 9933   2.293   2.213  10.439 -0.8634 -1.2180  1.1032
   99OSM    C4F 9934   2.217   2.393  10.337  0.3445 -0.4610  0.3707
   99OSM    H4F 9935   2.316   2.442  10.327  0.5961 -1.2477 -1.2745
   99OSM    H4G 9936   2.145   2.473  10.367  0.6300 -0.0023 -0.1548
   99OSM    C5F 9937   2.185   2.340  10.199 -0.5834 -0.2102  0.9309
   99OSM    H5F 9938   2.172   2.422  10.126  0.1499 -0.8253  0.0939
   99OSM    H5G 9939   2.087   2.288  10.208 -0.4273 -0.3704  1.8212
   99OSM    C6F 9940   2.285   2.235  10.145  0.1979 -0.8005 -0.3193
   99OSM    H6F 9941   2.283   2.142  10.205 -0.3695 -2.1558 -2.3579
   99OSM    H6G 9942   2.385   2.282  10.163  0.7374 -1.5456 -1.2898
   99OSM    C7F 9943   2.264   2.209   9.992 -0.8787 -0.4667  0.2594
   99OSM    H7F 9944   2.158   2.211   9.959  0.1628 -0.1287 -3.5505
   99OSM    H7G 9945   2.297   2.105   9.971 -1.6796 -1.0674  1.8121
   99OSM    C8F 9946   2.358   2.301   9.910  1.0742  0.1800 -0.0896
   99OSM    H8F 9947   2.466   2.295   9.937  1.4254  1.0615 -1.1917
   99OSM    H8G 9948   2.317   2.397   9.948 -1.1524 -0.6197 -0.3500
   99OSM    C9F 9949   2.330   2.301   9.764 -0.2062 -0.6355 -0.3072
   99OSM    H9F 9950   2.221   2.305   9.749 -0.2643 -1.1582 -0.0615
   99OSM   C10F 9951   2.419   2.304   9.659  0.1960  0.0871 -0.1027
   99OSM   H10F 9952   2.388   2.301   9.553 -0.2198  0.0126  0.0200
   99OSM   C11F 9953   2.567   2.309   9.670 -0.1192 -0.1786  0.5226
   99OSM   H11F 9954   2.605   2.208   9.695 -0.8116 -0.2130  1.4838
   99OSM   H11G 9955   2.594   2.365   9.761 -0.1475  2.2941 -0.9017
   99OSM   C12F 9956   2.653   2.381   9.564 -0.5180  0.5121 -0.0631
   99OSM   H12F 9957   2.759   2.379   9.597  0.2281  2.2467 -2.1123
   99OSM   H12G 9958   2.619   2.486   9.557  1.8179  1.3071 -0.3686
   99OSM   C13F 9959   2.652   2.319   9.416  0.0136  0.0555 -0.4987
   99OSM   H13F 9960   2.549   2.328   9.376  0.0524 -3.4665 -1.7171
   99OSM   H13G 9961   2.692   2.215   9.415  0.9975  0.4058 -2.7270
   99OSM   C14F 9962   2.745   2.411   9.334  0.4200  0.5351  0.5629
   99OSM   H14F 9963   2.843   2.390   9.382  1.0446  0.8286 -0.5573
   99OSM   H14G 9964   2.713   2.518   9.342  0.9138  0.6003  2.0555
   99OSM   C15F 9965   2.755   2.374   9.182  0.4893  0.3314 -0.0487
   99OSM   H15F 9966   2.792   2.271   9.166 -0.6914 -0.4326  1.8972
   99OSM   H15G 9967   2.826   2.447   9.136 -0.6330  0.5241 -1.5531
   99OSM   C16F 9968   2.625   2.393   9.100 -0.0236  0.0912  0.5642
   99OSM   H16F 9969   2.568   2.486   9.120  1.5296  1.7991 -2.2780
   99OSM   H16G 9970   2.552   2.315   9.129 -0.2649 -0.2189 -0.8077
   99OSM   C17F 9971   2.661   2.384   8.944 -0.2271  0.3895 -0.8781
   99OSM   H17F 9972   2.724   2.296   8.919  0.6438  0.2463  1.5884
   99OSM   H17G 9973   2.730   2.469   8.927 -1.1610  2.0294  2.6509
   99OSM   C18F 9974   2.542   2.395   8.851  0.7747  0.2354  0.3919
   99OSM   H18F 9975   2.480   2.302   8.848  0.5779  0.2982  1.9104
   99OSM   H18G 9976   2.573   2.412   8.745 -1.2280  1.4037 -0.0695
   99OSM   H18H 9977   2.475   2.478   8.883 -1.0632 -1.9224  2.5527
  100OSM      N 9978   4.503   3.338  10.893 -0.9225  0.6466  0.5425
  100OSM    C15 9979   4.393   3.423  10.846 -0.5391  0.7812  0.3144
  100OSM   H15A 9980   4.308   3.364  10.815  1.2317 -0.8886 -1.6938
  100OSM   H15B 9981   4.415   3.487  10.762  1.0816 -0.9619 -0.6816
  100OSM   H15C 9982   4.360   3.480  10.931 -3.1334  0.5039 -0.4189
  100OSM    C14 9983   4.619   3.423  10.939 -0.0039 -0.0068 -0.0209
  100OSM   H14A 9984   4.591   3.486  11.022  0.7006  2.5089 -1.5635
  100OSM   H14B 9985   4.659   3.491  10.864  0.6091  1.5231  1.6148
  100OSM   H14C 9986   4.702   3.360  10.970 -0.9211 -0.4846  1.5728
  100OSM    C13 9987   4.468   3.261  11.014 -0.5908 -0.3151  0.4135
  100OSM   H13A 9988   4.462   3.312  11.109 -0.9477 -2.1806  1.4542
  100OSM   H13B 9989   4.540   3.181  11.017 -0.0890  0.0962 -0.3503
  100OSM   H13C 9990   4.370   3.215  11.018 -0.7215 -0.4110 -2.2543
  100OSM    C12 9991   4.546   3.246  10.776  0.5927 -0.4011 -0.2315
  100OSM   H12A 9992   4.549   3.307  10.687  0.2302 -0.5935 -0.3748
  100OSM   H12B 9993   4.475   3.166  10.766  0.3177 -0.0756 -0.9594
  100OSM    C11 9994   4.689   3.178  10.798 -0.0171 -0.0492 -0.5014
  100OSM   H11A 9995   4.771   3.248  10.824  1.0809 -1.6995  0.6689
  100OSM   H11B 9996   4.723   3.140  10.699  1.2357  0.0745 -0.1267
  100OSM      P 9997   4.807   3.015  10.957  0.2055 -0.0759  0.2095
  100OSM    O13 9998   4.860   3.119  11.044 -0.0818  0.1385 -0.3697
  100OSM    O14 9999   4.781   2.892  11.028  1.0271  0.9732 -0.3697
  100OSM    O1110000   4.892   2.986  10.831 -0.3836  0.2976  0.1915
  100OSM    O1210001   4.675   3.073  10.901  0.1316  0.0812  0.6932
  100OSM    C1S10002   4.846   2.898  10.729  0.7358  0.6086  0.0075
  100OSM    H1S10003   4.740   2.920  10.708  0.5579 -0.5694 -0.3744
  100OSM    H1T10004   4.863   2.792  10.755  1.0698  0.1372 -1.9351
  100OSM     NF10005   4.847   2.835  10.489 -0.4132  0.2683 -0.0077
  100OSM    HNF10006   4.908   2.782  10.430 -0.7113  2.2394 -2.2176
  100OSM    C2S10007   4.906   2.928  10.585  0.3930 -0.1899  0.1575
  100OSM    H2S10008   4.867   3.029  10.561  1.1996 -0.1648 -1.1261
  100OSM    C3S10009   5.063   2.931  10.590  0.0277  0.0164  0.3605
  100OSM    H3S10010   5.100   2.832  10.623  0.7029 -0.1729 -0.8934
  100OSM     O310011   5.110   3.036  10.679 -0.0741  0.1464  0.2858
  100OSM    HO310012   5.042   3.049  10.746  2.2393  2.0259  2.4697
  100OSM    C4S10013   5.120   2.946  10.445 -0.5993 -0.2474 -0.4634
  100OSM    H4S10014   5.152   2.857  10.388 -1.3066 -0.6586 -0.2339
  100OSM    C5S10015   5.126   3.068  10.384 -0.7149  0.0059  0.0724
  100OSM    H5S10016   5.097   3.158  10.440  0.4534  0.1791  0.4392
  100OSM    C6S10017   5.184   3.090  10.253  0.4462  0.1725  0.0471
  100OSM    H6S10018   5.295   3.093  10.245  0.3795 -0.3600 -1.3315
  100OSM    H6T10019   5.160   3.196  10.230  0.3166 -0.0893 -1.0720
  100OSM    C7S10020   5.120   3.010  10.146 -0.2847 -0.6346  0.0755
  100OSM    H7S10021   5.012   3.035  10.150 -0.5399 -1.7264  0.5178
  100OSM    H7T10022   5.122   2.899  10.156  0.6797 -0.7661 -1.2994
  100OSM    C8S10023   5.172   3.041  10.001  0.1581 -0.0145 -0.6551
  100OSM    H8S10024   5.281   3.023   9.987  0.1715 -1.4559  1.0271
  100OSM    H8T10025   5.161   3.149   9.980  1.9894  0.2150 -0.5495
  100OSM    C9S10026   5.092   2.971   9.888 -0.4140 -0.1571 -0.1377
  100OSM    H9S10027   4.984   2.978   9.914  0.0466 -0.0306  1.9260
  100OSM    H9T10028   5.120   2.863   9.891 -1.2985 -0.4335 -1.0559
  100OSM   C10S10029   5.130   3.027   9.747  1.6308 -0.3906 -0.3010
  100OSM   H10S10030   5.238   3.049   9.736  1.4800  0.2288 -0.6024
  100OSM   H10T10031   5.059   3.112   9.737 -0.6878 -2.1573  0.2719
  100OSM   C11S10032   5.090   2.914   9.652  0.6084 -0.7592 -0.4297
  100OSM   H11S10033   4.984   2.884   9.667  0.1113  1.0277 -0.2327
  100OSM   H11T10034   5.157   2.827   9.672  0.7012 -0.6148 -0.1014
  100OSM   C12S10035   5.116   2.951   9.505  0.7103  0.1516  0.5245
  100OSM   H12S10036   5.220   2.968   9.472  0.5562  0.7109  0.3146
  100OSM   H12T10037   5.052   3.040   9.488 -2.6617 -1.8421  1.6095
  100OSM   C13S10038   5.048   2.847   9.406  0.6883  0.4569  0.6151
  100OSM   H13S10039   4.939   2.867   9.414  0.4175  0.5619 -2.2112
  100OSM   H13T10040   5.078   2.749   9.446 -1.8982  0.3565  2.5666
  100OSM   C14S10041   5.083   2.876   9.263 -0.1960  0.1919  0.0626
  100OSM   H14S10042   5.188   2.841   9.247  0.2883  1.9357 -0.7674
  100OSM   H14T10043   5.075   2.982   9.230 -0.0735  1.2719  3.1350
  100OSM   C15S10044   4.996   2.794   9.165 -0.2424  0.2632  0.3869
  100OSM   H15S10045   5.060   2.773   9.076 -0.0814 -0.4808  0.6686
  100OSM   H15T10046   4.914   2.864   9.137 -0.9622 -0.5883  0.3450
  100OSM   C16S10047   4.929   2.665   9.210 -0.0763  0.6240  0.2614
  100OSM   H16S10048   4.863   2.680   9.298 -0.7107 -0.9589  0.0876
  100OSM   H16T10049   5.005   2.596   9.250 -1.1656 -0.9012 -0.2121
  100OSM   C17S10050   4.860   2.601   9.092  0.2053  0.2447 -0.2139
  100OSM   H17S10051   4.935   2.588   9.011  0.9794 -0.0537  0.5262
  100OSM   H17T10052   4.787   2.674   9.051  3.2443  3.0070 -1.1198
  100OSM   C18S10053   4.805   2.469   9.135  0.2174  0.2774  0.1935
  100OSM   H18S10054   4.881   2.413   9.194  0.8516  1.1394  0.2030
  100OSM   H18T10055   4.790   2.401   9.049 -0.4009 -0.3994  0.8140
  100OSM   H18U10056   4.705   2.475   9.183  0.0721  2.4558 -0.3004
  100OSM    C1F10057   4.722   2.837  10.452  0.1721 -1.1101 -0.5283
  100OSM     OF10058   4.651   2.934  10.483  0.2462  0.2063  0.0100
  100OSM    C2F10059   4.675   2.735  10.357  0.4264 -0.1261  0.0971
  100OSM    H2F10060   4.756   2.659  10.356  0.8578  0.2843 -2.2792
  100OSM    H2G10061   4.684   2.771  10.252 -0.6583 -0.8348 -0.2548
  100OSM    C3F10062   4.529   2.688  10.379 -0.3443  0.4850 -0.3918
  100OSM    H3F10063   4.464   2.775  10.356 -0.6538  1.0224  2.1760
  100OSM    H3G10064   4.529   2.664  10.488 -2.6850  1.3990 -0.1402
  100OSM    C4F10065   4.483   2.571  10.292  0.2514  0.0723  0.2491
  100OSM    H4F10066   4.372   2.567  10.299  0.2448 -0.2899 -0.0106
  100OSM    H4G10067   4.525   2.480  10.340  1.1259 -0.5165 -1.5386
  100OSM    C5F10068   4.545   2.575  10.155 -1.2029  0.2051  0.3518
  100OSM    H5F10069   4.652   2.549  10.169 -0.4081  2.1834 -1.3925
  100OSM    H5G10070   4.527   2.675  10.108 -0.7771  0.7284  1.2768
  100OSM    C6F10071   4.500   2.471  10.054  0.1697  0.0835 -1.2770
  100OSM    H6F10072   4.392   2.484  10.031 -0.2554  0.6421  0.8537
  100OSM    H6G10073   4.513   2.374  10.106 -1.4272  0.7065  0.3956
  100OSM    C7F10074   4.581   2.478   9.922  0.0876  0.0391 -0.3442
  100OSM    H7F10075   4.690   2.467   9.943 -0.1963  0.4585  1.5688
  100OSM    H7G10076   4.548   2.578   9.887  0.7278 -0.1612 -1.5798
  100OSM    C8F10077   4.530   2.383   9.823 -0.1728  1.0073 -0.6601
  100OSM    H8F10078   4.425   2.386   9.787  0.5845  1.3463 -3.0226
  100OSM    H8G10079   4.542   2.286   9.875  1.7398 -0.8516 -4.1485
  100OSM    C9F10080   4.629   2.392   9.707  0.0830  0.2425  0.1376
  100OSM    H9F10081   4.722   2.448   9.725 -0.8371  2.3483 -1.2846
  100OSM   C10F10082   4.606   2.335   9.583 -0.6150 -0.1903 -0.4496
  100OSM   H10F10083   4.674   2.341   9.497 -1.9169  0.6647 -1.4566
  100OSM   C11F10084   4.478   2.263   9.555 -0.3208  0.3754  0.5028
  100OSM   H11F10085   4.384   2.319   9.534 -1.7304 -1.5542  1.3614
  100OSM   H11G10086   4.454   2.189   9.635 -1.1075  0.1217  0.0460
  100OSM   C12F10087   4.507   2.184   9.426 -0.8196 -0.3209 -0.2485
  100OSM   H12F10088   4.524   2.266   9.353 -0.1522  0.9053  1.2364
  100OSM   H12G10089   4.415   2.129   9.395 -0.1494 -0.4817 -2.0648
  100OSM   C13F10090   4.621   2.085   9.433  0.3462 -0.1771 -0.0503
  100OSM   H13F10091   4.589   2.007   9.505 -0.9570  0.6086  0.2616
  100OSM   H13G10092   4.712   2.135   9.472  0.7069  0.0458 -1.1535
  100OSM   C14F10093   4.639   2.018   9.291 -0.2358  0.5428 -0.0677
  100OSM   H14F10094   4.664   2.099   9.219 -0.2727 -0.9481 -1.8431
  100OSM   H14G10095   4.548   1.977   9.241 -1.1401 -0.4202  2.2236
  100OSM   C15F10096   4.745   1.911   9.292 -0.2031 -0.0961  0.7778
  100OSM   H15F10097   4.721   1.846   9.378 -0.5711 -2.0123 -0.7097
  100OSM   H15G10098   4.841   1.965   9.309 -0.8595  2.0308 -1.5754
  100OSM   C16F10099   4.759   1.835   9.158 -0.3814 -0.4341  1.0837
  100OSM   H16F10100   4.762   1.900   9.068 -2.6011  2.0335  2.6386
  100OSM   H16G10101   4.676   1.763   9.139  1.0044 -1.7375 -0.2990
  100OSM   C17F10102   4.885   1.757   9.165 -0.2191 -0.2416  0.1378
  100OSM   H17F10103   4.892   1.695   9.256  1.3836 -1.1835 -0.5714
  100OSM   H17G10104   4.971   1.827   9.176 -0.7169  0.2318  1.1661
  100OSM   C18F10105   4.918   1.661   9.057 -0.1994  0.6171 -0.4883
  100OSM   H18F10106   5.017   1.611   9.060 -1.5336 -2.1890  2.3862
  100OSM   H18G10107   4.880   1.690   8.956 -2.4744 -1.2321 -0.2484
  100OSM   H18H10108   4.848   1.577   9.074 -0.1779  0.8268  0.7446
  101OSM      N10109   6.729   5.392  11.452  0.4403  0.3048 -0.0213
  101OSM    C1510110   6.712   5.451  11.589  0.6938  0.1472 -0.2269
  101OSM   H15A10111   6.748   5.383  11.665  1.1783  0.7498  0.0913
  101OSM   H15B10112   6.608   5.466  11.612  0.4052  1.6678 -2.1919
  101OSM   H15C10113   6.772   5.541  11.586  0.8476  0.0700  0.5068
  101OSM    C1410114   6.875   5.371  11.421 -0.0422 -0.0861 -0.2838
  101OSM   H14A10115   6.888   5.356  11.315 -1.9421  0.6951 -0.6719
  101OSM   H14B10116   6.918   5.289  11.477 -0.1283  0.8157  1.1427
  101OSM   H14C10117   6.923   5.466  11.440 -2.2872  0.9851  0.5174
  101OSM    C1310118   6.667   5.251  11.442  0.3464  0.2415 -0.1796
  101OSM   H13A10119   6.562   5.255  11.465  0.0382 -0.1527 -1.4168
  101OSM   H13B10120   6.708   5.182  11.514 -0.3860  0.6717  0.6691
  101OSM   H13C10121   6.667   5.216  11.340 -0.1590 -1.0105  0.2409
  101OSM    C1210122   6.666   5.486  11.345 -0.7043  0.0514 -0.0502
  101OSM   H12A10123   6.700   5.580  11.384 -0.2067 -0.5297  0.9525
  101OSM   H12B10124   6.559   5.472  11.343 -0.8681  0.5446  2.5838
  101OSM    C1110125   6.723   5.482  11.204  0.3312 -0.6607 -0.3687
  101OSM   H11A10126   6.663   5.559  11.151  1.6226  0.0756 -0.7761
  101OSM   H11B10127   6.724   5.381  11.156 -2.1932 -0.8602 -0.1511
  101OSM      P10128   6.902   5.683  11.166  0.0580 -0.0397 -0.1771
  101OSM    O1310129   6.805   5.778  11.222  0.2402  0.5135 -0.2176
  101OSM    O1410130   7.042   5.703  11.203  0.0058  0.0522 -0.4738
  101OSM    O1110131   6.896   5.685  11.005  0.1893  0.1262 -0.8013
  101OSM    O1210132   6.862   5.532  11.200  0.0327  0.0974 -0.5757
  101OSM    C1S10133   6.889   5.809  10.942 -0.1122 -0.7907 -0.0244
  101OSM    H1S10134   6.975   5.871  10.976 -1.8130  1.4443  0.3803
  101OSM    H1T10135   6.790   5.856  10.959 -0.1027 -0.9633  0.5216
  101OSM     NF10136   6.936   5.929  10.739 -0.2856  0.4755 -0.8078
  101OSM    HNF10137   6.866   5.966  10.678 -2.2532  1.6185  1.9494
  101OSM    C2S10138   6.917   5.794  10.793 -0.3457 -0.3402 -0.0145
  101OSM    H2S10139   7.013   5.741  10.780  1.8365  3.3642 -0.5782
  101OSM    C3S10140   6.808   5.716  10.714  0.8164  0.2476 -0.2712
  101OSM    H3S10141   6.714   5.770  10.691  1.1347  0.0974 -2.0186
  101OSM     O310142   6.770   5.598  10.776 -0.0435  0.2229 -0.3777
  101OSM    HO310143   6.830   5.604  10.851  0.1519  1.3600 -0.6065
  101OSM    C4S10144   6.863   5.692  10.576 -0.0254  0.9360  0.3526
  101OSM    H4S10145   6.842   5.771  10.503 -1.1275 -0.6463 -1.1094
  101OSM    C5S10146   6.927   5.581  10.532 -0.6089  0.3853 -0.2117
  101OSM    H5S10147   6.936   5.493  10.597 -0.0175  2.8427  3.2658
  101OSM    C6S10148   6.978   5.563  10.393  0.4783  0.3194 -0.8162
  101OSM    H6S10149   6.912   5.498  10.332 -1.2219  3.2799 -2.4139
  101OSM    H6T10150   7.073   5.507  10.403 -1.3064 -2.8221 -0.2675
  101OSM    C7S10151   7.004   5.693  10.318 -0.0962 -0.2184 -0.3881
  101OSM    H7S10152   7.043   5.775  10.382 -4.2226  0.1656  1.9941
  101OSM    H7T10153   6.903   5.725  10.286 -1.6809 -0.4222  3.7775
  101OSM    C8S10154   7.092   5.664  10.198  0.7098 -0.2185  0.5729
  101OSM    H8S10155   7.050   5.592  10.124  2.1272  0.5039 -1.0248
  101OSM    H8T10156   7.180   5.604  10.229 -1.2341 -2.7995  1.4445
  101OSM    C9S10157   7.147   5.790  10.138 -0.4741 -0.0219 -0.8174
  101OSM    H9S10158   7.199   5.854  10.213 -0.3888  0.5511 -1.3564
  101OSM    H9T10159   7.068   5.858  10.102  1.3753  1.8412 -1.5895
  101OSM   C10S10160   7.246   5.760  10.017  0.2483 -1.0048 -0.0049
  101OSM   H10S10161   7.316   5.679  10.045  0.4963 -1.1080 -0.9226
  101OSM   H10T10162   7.308   5.848   9.991  0.0317 -0.8162  0.1043
  101OSM   C11S10163   7.181   5.713   9.887  0.5098  0.3249  0.0547
  101OSM   H11S10164   7.103   5.784   9.853 -2.0351 -3.1466 -2.1038
  101OSM   H11T10165   7.122   5.621   9.909 -1.6109  1.5515 -0.3056
  101OSM   C12S10166   7.291   5.681   9.792  0.1153  0.6798 -0.1209
  101OSM   H12S10167   7.368   5.619   9.843  0.1935 -1.0082 -2.1584
  101OSM   H12T10168   7.350   5.770   9.760  0.3254 -0.1826 -2.2303
  101OSM   C13S10169   7.240   5.621   9.659 -0.2407 -0.1988  0.2732
  101OSM   H13S10170   7.183   5.706   9.616  0.8744 -0.2857 -1.4634
  101OSM   H13T10171   7.171   5.535   9.672 -1.4336  0.2721 -2.2612
  101OSM   C14S10172   7.358   5.596   9.560 -0.0604 -0.6077 -0.6776
  101OSM   H14S10173   7.447   5.540   9.598  0.5547  0.9020  0.2168
  101OSM   H14T10174   7.400   5.696   9.535 -1.0782 -0.2163 -0.8434
  101OSM   C15S10175   7.301   5.538   9.430 -0.8918 -0.0551  0.1058
  101OSM   H15S10176   7.233   5.460   9.471 -3.0158  2.4342  1.6705
  101OSM   H15T10177   7.387   5.494   9.376 -0.6378  0.4925  0.0510
  101OSM   C16S10178   7.222   5.639   9.345 -0.1598 -0.6460 -0.1313
  101OSM   H16S10179   7.282   5.732   9.331 -1.5365  0.0517 -1.7900
  101OSM   H16T10180   7.121   5.657   9.387  0.8289  0.1751  2.0213
  101OSM   C17S10181   7.195   5.595   9.198 -0.3933 -0.4211 -0.1547
  101OSM   H17S10182   7.117   5.663   9.156 -0.4253 -0.3336  0.0493
  101OSM   H17T10183   7.138   5.500   9.204 -1.0695  0.0351  0.7224
  101OSM   C18S10184   7.321   5.579   9.120 -0.0464  0.0905  0.0105
  101OSM   H18S10185   7.361   5.679   9.094 -0.1720 -0.2694 -1.6378
  101OSM   H18T10186   7.300   5.534   9.021 -2.1769 -1.0156  0.9154
  101OSM   H18U10187   7.402   5.520   9.168 -0.0712  0.1791  0.1617
  101OSM    C1F10188   7.046   6.003  10.760 -0.5778 -0.1937  0.1471
  101OSM     OF10189   7.132   5.968  10.842 -0.8929  0.0696  0.4839
  101OSM    C2F10190   7.059   6.137  10.692  0.5803  0.2180 -0.3395
  101OSM    H2F10191   7.103   6.211  10.762  1.2911 -2.4021  2.1643
  101OSM    H2G10192   6.954   6.167  10.673  0.2658 -0.6393 -0.0096
  101OSM    C3F10193   7.131   6.118  10.557 -0.0545  1.0865 -0.5680
  101OSM    H3F10194   7.062   6.061  10.491 -0.0433  1.2236 -0.7001
  101OSM    H3G10195   7.223   6.056  10.556  0.5984  1.9988 -2.5986
  101OSM    C4F10196   7.178   6.249  10.486  0.0830  0.5461 -0.1587
  101OSM    H4F10197   7.250   6.290  10.560  1.1500 -2.2409  0.4586
  101OSM    H4G10198   7.096   6.324  10.486  0.4545  0.9623 -0.8419
  101OSM    C5F10199   7.247   6.241  10.351  0.2464  0.0514 -0.0214
  101OSM    H5F10200   7.344   6.186  10.362 -1.0991 -1.9644  3.5096
  101OSM    H5G10201   7.269   6.340  10.307  1.3492 -0.5055 -0.7880
  101OSM    C6F10202   7.155   6.158  10.253  0.4531  0.3309 -0.2711
  101OSM    H6F10203   7.153   6.054  10.292  1.8132  0.4276  0.0929
  101OSM    H6G10204   7.052   6.197  10.268 -0.1549 -1.0851 -0.6402
  101OSM    C7F10205   7.223   6.160  10.114  0.1853 -0.3803 -0.0783
  101OSM    H7F10206   7.247   6.057  10.078 -1.9823 -0.6857 -0.8173
  101OSM    H7G10207   7.317   6.216  10.132 -0.6800  0.6245  1.5526
  101OSM    C8F10208   7.142   6.241  10.007 -0.0862  0.1258  0.3301
  101OSM    H8F10209   7.109   6.338  10.050 -2.0747  0.5072 -1.8731
  101OSM    H8G10210   7.050   6.187   9.976 -1.4748  2.6599 -0.2344
  101OSM    C9F10211   7.219   6.275   9.886 -0.6489 -0.2172 -0.5916
  101OSM    H9F10212   7.272   6.371   9.886  0.2556 -0.6875 -2.0980
  101OSM   C10F10213   7.227   6.204   9.778  0.0900 -0.1452 -0.2865
  101OSM   H10F10214   7.279   6.241   9.689  3.0099 -3.1444  0.0014
  101OSM   C11F10215   7.155   6.080   9.753  0.8132 -0.2542 -0.1006
  101OSM   H11F10216   7.047   6.100   9.741  0.9208 -1.1131 -3.5823
  101OSM   H11G10217   7.176   6.011   9.838 -0.3258 -1.0209 -0.4172
  101OSM   C12F10218   7.195   6.010   9.620  0.8750 -0.3298  0.6078
  101OSM   H12F10219   7.159   5.905   9.631  2.1482 -0.6667  1.8998
  101OSM   H12G10220   7.305   6.011   9.601  0.9548 -2.1139  0.7410
  101OSM   C13F10221   7.117   6.071   9.501 -0.2628 -0.2695  0.6230
  101OSM   H13F10222   7.135   6.180   9.489 -0.5820 -0.0760  1.8108
  101OSM   H13G10223   7.013   6.058   9.539 -0.0020  2.0265  2.2965
  101OSM   C14F10224   7.129   5.989   9.376 -0.0958 -0.0767  0.9110
  101OSM   H14F10225   7.100   5.882   9.390 -1.1854  0.0729 -0.0345
  101OSM   H14G10226   7.238   5.987   9.359 -0.5098 -0.6043 -2.1880
  101OSM   C15F10227   7.047   6.051   9.261 -0.4495 -0.3257  0.1490
  101OSM   H15F10228   7.096   6.147   9.236 -0.7911  0.0442  0.8433
  101OSM   H15G10229   6.941   6.075   9.286 -0.7879 -0.6912 -0.8784
  101OSM   C16F10230   7.066   5.966   9.143 -1.7603 -0.6381 -0.6336
  101OSM   H16F10231   7.012   5.870   9.158 -2.1814 -0.5279 -1.3792
  101OSM   H16G10232   7.175   5.949   9.132 -1.5974 -2.3419  2.3978
  101OSM   C17F10233   6.990   6.013   9.021 -0.0177  0.9723 -0.1968
  101OSM   H17F10234   7.025   6.113   8.988  1.2746  0.0327 -1.8296
  101OSM   H17G10235   6.884   6.020   9.055  0.8595  0.1028  3.0090
  101OSM   C18F10236   7.000   5.915   8.905  0.1153  0.3810  0.0047
  101OSM   H18F10237   7.107   5.915   8.875  0.3687  1.6537  0.8446
  101OSM   H18G10238   6.941   5.943   8.815 -0.0318 -1.3568 -0.4693
  101OSM   H18H10239   6.963   5.813   8.928 -0.5841 -0.3777 -3.7538
  102OSM      N10240   3.308   5.311  10.988 -0.0011  0.3685 -0.4220
  102OSM    C1510241   3.338   5.455  11.015 -0.1185 -0.4582  0.3427
  102OSM   H15A10242   3.279   5.491  11.099  0.3981  0.2537  0.4123
  102OSM   H15B10243   3.304   5.520  10.936  1.4228  0.3177  0.2751
  102OSM   H15C10244   3.444   5.472  11.033 -0.6463  2.0087  1.5623
  102OSM    C1410245   3.313   5.233  11.115  0.4373  0.0710  0.1920
  102OSM   H14A10246   3.244   5.277  11.186  0.9940  0.2910  0.6069
  102OSM   H14B10247   3.413   5.242  11.154  0.0821  2.0172  0.8171
  102OSM   H14C10248   3.281   5.130  11.112  4.0649 -1.2945  2.3380
  102OSM    C1310249   3.167   5.307  10.936 -0.6616 -0.4761  0.1067
  102OSM   H13A10250   3.093   5.337  11.009 -0.8785 -0.6325 -0.0491
  102OSM   H13B10251   3.145   5.204  10.912 -1.2172 -0.4924  0.6595
  102OSM   H13C10252   3.164   5.369  10.848 -0.6067  3.5574  2.7117
  102OSM    C1210253   3.404   5.257  10.885  0.2591 -0.0922 -0.3773
  102OSM   H12A10254   3.495   5.224  10.934 -0.1391  1.3777  1.4788
  102OSM   H12B10255   3.422   5.330  10.808  1.8885 -0.9631 -0.8589
  102OSM    C1110256   3.350   5.130  10.812  0.3648  0.5015 -0.9364
  102OSM   H11A10257   3.431   5.097  10.744  1.3426  1.9807 -0.5166
  102OSM   H11B10258   3.263   5.164  10.752  0.6240  3.4871  0.2386
  102OSM      P10259   3.186   4.934  10.879  0.0996 -0.3759 -0.1733
  102OSM    O1310260   3.164   4.847  10.994 -0.3027  0.0353  0.0324
  102OSM    O1410261   3.071   5.018  10.851  0.1879 -0.1093 -0.2732
  102OSM    O1110262   3.220   4.846  10.755  0.0581  0.0720 -0.3448
  102OSM    O1210263   3.313   5.022  10.901 -0.3885 -0.5740 -0.6254
  102OSM    C1S10264   3.337   4.773  10.718 -0.1040  0.3128 -0.6935
  102OSM    H1S10265   3.343   4.679  10.776  0.8127  1.6100  1.4346
  102OSM    H1T10266   3.423   4.833  10.753  0.1809  0.2426 -1.2655
  102OSM     NF10267   3.454   4.667  10.524 -0.3028  0.4841 -0.7647
  102OSM    HNF10268   3.533   4.709  10.481  1.4430 -2.6067 -0.9063
  102OSM    C2S10269   3.340   4.743  10.565  0.0068 -0.2065 -0.4307
  102OSM    H2S10270   3.247   4.684  10.546 -0.5979 -0.5393  2.8261
  102OSM    C3S10271   3.337   4.870  10.481  0.5604  0.0184  0.2777
  102OSM    H3S10272   3.431   4.929  10.485  1.0012 -0.5807 -0.8752
  102OSM     O310273   3.234   4.962  10.511 -0.2839 -0.4181 -0.4827
  102OSM    HO310274   3.217   4.944  10.604 -1.2685 -0.8711 -0.7348
  102OSM    C4S10275   3.311   4.840  10.334  0.2634  0.6241  0.3448
  102OSM    H4S10276   3.212   4.798  10.309 -0.0866  2.1733 -1.0448
  102OSM    C5S10277   3.392   4.867  10.229  0.1657  0.9128 -0.2023
  102OSM    H5S10278   3.483   4.926  10.244 -0.2092  1.3028  0.6002
  102OSM    C6S10279   3.363   4.830  10.088 -0.0322 -0.1892  0.5027
  102OSM    H6S10280   3.422   4.736  10.082  0.1509 -0.0317 -0.2781
  102OSM    H6T10281   3.409   4.893  10.009  0.6744 -0.0184  1.0434
  102OSM    C7S10282   3.214   4.819  10.052  1.4128  0.5374 -0.2589
  102OSM    H7S10283   3.163   4.910  10.090 -0.9746 -0.9268  0.2642
  102OSM    H7T10284   3.171   4.738  10.114 -0.1651  0.2880 -1.6221
  102OSM    C8S10285   3.176   4.771   9.903  0.0479 -0.1745  0.5500
  102OSM    H8S10286   3.088   4.704   9.897  1.2911 -1.9091  0.7585
  102OSM    H8T10287   3.266   4.712   9.875  0.5097  0.7246  0.1132
  102OSM    C9S10288   3.160   4.884   9.803 -0.4729 -0.1611 -0.4194
  102OSM    H9S10289   3.254   4.940   9.789  0.6733 -1.8397  0.2368
  102OSM    H9T10290   3.078   4.958   9.813 -1.4358 -1.0166 -1.6498
  102OSM   C10S10291   3.136   4.813   9.669 -0.1377 -0.1975  0.0133
  102OSM   H10S10292   3.055   4.737   9.678 -1.0210  0.6882 -0.2825
  102OSM   H10T10293   3.227   4.751   9.651 -1.0405 -1.3000 -0.9649
  102OSM   C11S10294   3.121   4.913   9.550 -0.3534  0.7938  0.1149
  102OSM   H11S10295   3.202   4.989   9.549 -1.2111  1.7130 -0.3350
  102OSM   H11T10296   3.028   4.974   9.560  0.0743  1.3804  0.6282
  102OSM   C12S10297   3.133   4.842   9.425 -0.1645  0.0243  0.7024
  102OSM   H12S10298   3.088   4.741   9.424  0.8941 -0.4600  0.8582
  102OSM   H12T10299   3.238   4.808   9.415 -1.1255 -2.4154 -2.5911
  102OSM   C13S10300   3.078   4.924   9.307  0.1045 -0.4731 -0.2383
  102OSM   H13S10301   3.099   4.868   9.214 -1.3634 -0.4177 -0.6354
  102OSM   H13T10302   3.121   5.026   9.310 -1.1119  0.0649 -0.2336
  102OSM   C14S10303   2.927   4.939   9.301  0.0693 -0.9197  0.5389
  102OSM   H14S10304   2.898   5.013   9.379 -0.5653 -1.3213  0.6995
  102OSM   H14T10305   2.870   4.844   9.316 -0.9792 -0.1815  1.3988
  102OSM   C15S10306   2.888   5.007   9.158 -0.3371 -0.4881 -0.7595
  102OSM   H15S10307   2.950   5.097   9.140 -0.4585  0.3455  2.4124
  102OSM   H15T10308   2.779   5.026   9.168 -0.1855  0.0037  0.0319
  102OSM   C16S10309   2.909   4.940   9.028  0.1474  0.6814 -0.8482
  102OSM   H16S10310   2.855   4.843   9.035 -2.6917  2.2340  0.7340
  102OSM   H16T10311   3.016   4.918   9.010  0.0973 -2.3354  1.7658
  102OSM   C17S10312   2.841   5.014   8.913  0.0982  0.6553 -0.9422
  102OSM   H17S10313   2.875   5.118   8.931 -0.6583  0.4723  2.0777
  102OSM   H17T10314   2.731   5.009   8.929  0.2847  0.2655  0.2509
  102OSM   C18S10315   2.882   4.958   8.779  0.2105 -0.0818  0.7213
  102OSM   H18S10316   2.992   4.957   8.773  0.3983  2.1401  2.3807
  102OSM   H18T10317   2.836   5.018   8.697  2.3993 -0.3159 -0.7409
  102OSM   H18U10318   2.843   4.854   8.780 -0.9751  0.3327  0.1030
  102OSM    C1F10319   3.473   4.547  10.566  0.3936  0.1724 -1.4702
  102OSM     OF10320   3.386   4.484  10.632 -0.4121 -0.0678  0.6811
  102OSM    C2F10321   3.605   4.490  10.532 -0.2707 -0.0483  0.7187
  102OSM    H2F10322   3.660   4.492  10.629  0.5612 -0.3627  0.2695
  102OSM    H2G10323   3.662   4.561  10.468 -1.3759 -0.6047 -0.9538
  102OSM    C3F10324   3.601   4.356  10.470  0.4500  0.2990  0.4218
  102OSM    H3F10325   3.532   4.279  10.510  0.6869 -0.7962 -1.1936
  102OSM    H3G10326   3.698   4.303  10.482 -0.0135 -0.6491  0.0978
  102OSM    C4F10327   3.592   4.356  10.319 -0.7624 -0.3106  0.0570
  102OSM    H4F10328   3.608   4.254  10.278 -0.3217  0.1630 -0.9883
  102OSM    H4G10329   3.663   4.431  10.276  0.5370 -0.3339  2.0438
  102OSM    C5F10330   3.450   4.390  10.265  0.4112  0.0369 -0.6077
  102OSM    H5F10331   3.415   4.484  10.313  0.4153  0.1053 -0.7388
  102OSM    H5G10332   3.380   4.309  10.296  0.0241  0.5955 -0.0136
  102OSM    C6F10333   3.450   4.389  10.116  0.4843 -0.1681  0.6396
  102OSM    H6F10334   3.546   4.436  10.084  1.0197 -1.1439  0.7623
  102OSM    H6G10335   3.360   4.448  10.091 -0.5638 -1.5225  1.1051
  102OSM    C7F10336   3.431   4.248  10.071 -0.5293  0.9166 -0.5128
  102OSM    H7F10337   3.344   4.205  10.125 -0.4422  1.2459 -0.1091
  102OSM    H7G10338   3.509   4.177  10.105 -0.2027  1.5655  0.1098
  102OSM    C8F10339   3.423   4.224   9.918 -0.4014  0.4861  0.2053
  102OSM    H8F10340   3.336   4.291   9.899 -0.9968  0.2021  1.8207
  102OSM    H8G10341   3.411   4.119   9.883  1.5502  1.1418 -2.8285
  102OSM    C9F10342   3.540   4.289   9.839 -0.4712 -0.0932  0.2635
  102OSM    H9F10343   3.641   4.249   9.855 -1.2673 -2.7749 -0.7724
  102OSM   C10F10344   3.528   4.403   9.764  0.4524  0.4814  0.5277
  102OSM   H10F10345   3.623   4.435   9.718  2.1592 -0.8009  2.9286
  102OSM   C11F10346   3.398   4.479   9.734  0.9931 -0.6340 -0.0870
  102OSM   H11F10347   3.415   4.589   9.729 -0.0385 -0.5079 -1.3591
  102OSM   H11G10348   3.318   4.464   9.810 -0.1758 -1.8514 -1.5117
  102OSM   C12F10349   3.336   4.433   9.600  0.5098  0.3801 -0.2189
  102OSM   H12F10350   3.241   4.487   9.581 -0.1187 -0.4004  0.6361
  102OSM   H12G10351   3.320   4.325   9.619  0.8742  0.6082  1.5088
  102OSM   C13F10352   3.420   4.465   9.478 -0.1897 -0.1770  0.5958
  102OSM   H13F10353   3.511   4.401   9.477  0.2238  0.4019  0.4597
  102OSM   H13G10354   3.456   4.570   9.483 -3.0954  0.8730  1.6936
  102OSM   C14F10355   3.351   4.434   9.343  0.5581 -0.4937 -0.1791
  102OSM   H14F10356   3.304   4.333   9.346  0.1424 -0.2851  1.4730
  102OSM   H14G10357   3.436   4.439   9.272 -0.4326  0.1144 -1.3858
  102OSM   C15F10358   3.257   4.548   9.310 -0.8108 -0.1488  0.0100
  102OSM   H15F10359   3.318   4.640   9.310 -0.3114 -0.4736 -1.2098
  102OSM   H15G10360   3.186   4.548   9.396 -0.3373 -0.4789  0.4043
  102OSM   C16F10361   3.178   4.523   9.186 -0.0654  0.5216  0.0539
  102OSM   H16F10362   3.095   4.597   9.176 -0.0781  0.4057 -0.8316
  102OSM   H16G10363   3.118   4.430   9.192 -1.3426  1.2855 -0.4425
  102OSM   C17F10364   3.262   4.536   9.059  0.2335 -0.2948  0.6352
  102OSM   H17F10365   3.333   4.451   9.049 -0.0183 -0.3028 -1.6213
  102OSM   H17G10366   3.312   4.633   9.082 -1.3661  0.8847 -0.6774
  102OSM   C18F10367   3.176   4.544   8.934 -0.4254 -0.3252 -0.6539
  102OSM   H18F10368   3.243   4.539   8.846  3.4325  2.6689  1.8058
  102OSM   H18G10369   3.136   4.647   8.935 -1.3723 -0.6539  1.9612
  102OSM   H18H10370   3.093   4.469   8.936 -0.3562 -0.3967 -0.5079
  103OSM      N10371   2.054   2.480  10.846  0.4813 -0.8744  1.2043
  103OSM    C1510372   2.195   2.426  10.839  0.5608 -0.1965  0.3685
  103OSM   H15A10373   2.239   2.408  10.936 -0.5495  1.3107  1.1922
  103OSM   H15B10374   2.261   2.501  10.799  1.6800  0.1366  2.6691
  103OSM   H15C10375   2.196   2.341  10.772 -3.2892  0.6653 -0.9811
  103OSM    C1410376   2.065   2.615  10.900 -0.3217 -0.3754  0.8808
  103OSM   H14A10377   2.117   2.609  10.995  1.6882 -2.5556 -0.2273
  103OSM   H14B10378   1.975   2.672  10.913  0.4263  0.7445  1.2745
  103OSM   H14C10379   2.137   2.667  10.838  0.1206 -2.7027 -0.7140
  103OSM    C1310380   2.017   2.487  10.699  0.0049 -0.1248 -0.7067
  103OSM   H13A10381   2.000   2.390  10.656  0.1897 -0.8265  0.7461
  103OSM   H13B10382   2.093   2.545  10.647 -0.4993  0.2915 -0.9977
  103OSM   H13C10383   1.929   2.543  10.670 -0.2998 -0.2489 -0.0292
  103OSM    C1210384   1.972   2.391  10.933  1.1055 -1.0724 -0.6147
  103OSM   H12A10385   1.875   2.434  10.954  0.9520 -2.2505  1.3314
  103OSM   H12B10386   2.011   2.379  11.033 -0.4049 -0.1128  0.1300
  103OSM    C1110387   1.949   2.250  10.880  0.0649  0.6373  0.3930
  103OSM   H11A10388   1.943   2.169  10.957 -1.8865  0.1179 -0.2286
  103OSM   H11B10389   2.033   2.223  10.813  0.4166  2.3088  0.1308
  103OSM      P10390   1.690   2.229  10.858  0.3536 -0.1200 -0.2038
  103OSM    O1310391   1.677   2.090  10.903 -0.1528 -0.6797  0.4968
  103OSM    O1410392   1.661   2.335  10.955  0.8586 -0.6898  0.0058
  103OSM    O1110393   1.589   2.244  10.738 -0.7475 -0.2119 -0.2566
  103OSM    O1210394   1.833   2.252  10.797  0.0397  0.2549  0.7774
  103OSM    C1S10395   1.645   2.282  10.610  0.6465  0.1706  0.2024
  103OSM    H1S10396   1.744   2.239  10.582  0.6357 -0.3585  0.9497
  103OSM    H1T10397   1.666   2.391  10.608  2.0969 -0.0694  0.9531
  103OSM     NF10398   1.610   2.258  10.356 -0.6008  0.2866 -0.6066
  103OSM    HNF10399   1.576   2.338  10.306  4.0355  2.0357 -1.5343
  103OSM    C2S10400   1.552   2.235  10.492  0.2840  0.3262 -0.3242
  103OSM    H2S10401   1.529   2.128  10.510  2.1701 -0.3620 -1.6789
  103OSM    C3S10402   1.408   2.300  10.503 -0.2378  0.1266  0.1310
  103OSM    H3S10403   1.427   2.409  10.492 -0.0866  0.0053 -0.9760
  103OSM     O310404   1.346   2.282  10.627 -0.1880  0.1506 -0.0633
  103OSM    HO310405   1.425   2.281  10.682  0.4362 -0.5338 -0.9442
  103OSM    C4S10406   1.326   2.252  10.383  0.0226 -0.6011 -0.2378
  103OSM    H4S10407   1.336   2.328  10.304  1.5617  0.6546  1.0892
  103OSM    C5S10408   1.253   2.139  10.377 -0.6636 -0.1523  0.1719
  103OSM    H5S10409   1.254   2.074  10.465 -1.0743 -0.3601  0.0288
  103OSM    C6S10410   1.174   2.095  10.262  0.3546  0.5852  0.5368
  103OSM    H6S10411   1.065   2.083  10.280  0.0519  0.9493 -0.8863
  103OSM    H6T10412   1.201   1.988  10.244  1.8973  1.2269 -1.2931
  103OSM    C7S10413   1.207   2.166  10.128  0.1122 -0.2257  0.0525
  103OSM    H7S10414   1.317   2.166  10.114  0.1154  0.1404  0.0582
  103OSM    H7T10415   1.187   2.275  10.140  0.5735 -0.1620  0.2832
  103OSM    C8S10416   1.139   2.093  10.017  0.5000  0.1009  0.6119
  103OSM    H8S10417   1.029   2.083  10.027  0.6078 -1.5627  0.4091
  103OSM    H8T10418   1.178   1.990  10.008 -1.1770 -0.4819 -0.5655
  103OSM    C9S10419   1.163   2.158   9.879  0.5019 -0.3444  1.1020
  103OSM    H9S10420   1.271   2.162   9.854  0.7573  2.0410  2.2895
  103OSM    H9T10421   1.130   2.264   9.883 -0.7004 -0.6897  0.7982
  103OSM   C10S10422   1.090   2.083   9.764  0.9139  0.1009 -0.1847
  103OSM   H10S10423   0.983   2.092   9.791  0.2108 -1.3379 -2.2881
  103OSM   H10T10424   1.104   1.973   9.761  1.1049  0.1090  0.3431
  103OSM   C11S10425   1.120   2.148   9.636 -0.0530  0.6432  0.2995
  103OSM   H11S10426   1.230   2.152   9.621 -0.0039  1.4809  0.8644
  103OSM   H11T10427   1.068   2.246   9.636 -1.3570 -0.0220 -0.0886
  103OSM   C12S10428   1.065   2.062   9.519 -0.0473 -0.6987  0.0895
  103OSM   H12S10429   0.969   2.010   9.541 -1.3743  0.9978 -1.3206
  103OSM   H12T10430   1.133   1.977   9.498 -0.0920 -0.9935  1.0900
  103OSM   C13S10431   1.039   2.137   9.386  0.7366  0.8150  0.5049
  103OSM   H13S10432   1.118   2.213   9.368 -0.6264  1.6285 -2.7790
  103OSM   H13T10433   0.942   2.192   9.394 -0.2347 -0.9126  0.9670
  103OSM   C14S10434   1.024   2.033   9.273  0.3305  0.3990 -0.6812
  103OSM   H14S10435   0.969   1.944   9.312 -0.3710 -0.1222 -2.7393
  103OSM   H14T10436   1.127   1.998   9.254 -0.2976 -1.9264 -0.0961
  103OSM   C15S10437   0.951   2.075   9.146 -0.1701  0.2642 -0.2168
  103OSM   H15S10438   0.858   2.128   9.176 -0.6452 -0.2774 -0.7049
  103OSM   H15T10439   0.922   1.980   9.096 -0.5695 -0.2925  1.0278
  103OSM   C16S10440   1.039   2.152   9.042 -1.2708 -0.0367  0.7276
  103OSM   H16S10441   1.083   2.239   9.095 -0.9018 -0.6882  1.5151
  103OSM   H16T10442   0.981   2.183   8.952 -1.4915  3.9721  2.0531
  103OSM   C17S10443   1.164   2.070   9.008  0.1693  0.3108 -0.3658
  103OSM   H17S10444   1.133   1.966   8.986 -1.3783  1.0582 -1.9692
  103OSM   H17T10445   1.240   2.072   9.089  0.3465  1.8949 -0.5333
  103OSM   C18S10446   1.244   2.121   8.883  0.2427 -0.5657 -0.0132
  103OSM   H18S10447   1.177   2.131   8.795 -0.1487  0.3732  0.3739
  103OSM   H18T10448   1.340   2.065   8.876  1.0255  0.6348  0.7792
  103OSM   H18U10449   1.266   2.225   8.916  1.4730  0.0109 -2.3861
  103OSM    C1F10450   1.722   2.195  10.313 -0.6590 -0.7620  0.2405
  103OSM     OF10451   1.781   2.113  10.385  0.2408 -0.2546 -0.1323
  103OSM    C2F10452   1.780   2.252  10.188  0.0363  0.6356  0.9343
  103OSM    H2F10453   1.866   2.317  10.213 -1.8226  3.1479  1.2863
  103OSM    H2G10454   1.708   2.317  10.133  0.5198 -0.7774 -1.5096
  103OSM    C3F10455   1.836   2.146  10.088  0.3318 -0.0037 -0.5465
  103OSM    H3F10456   1.771   2.056  10.081  1.3904 -0.8334 -0.0666
  103OSM    H3G10457   1.931   2.102  10.126  1.0502 -1.0974 -3.3737
  103OSM    C4F10458   1.853   2.198   9.950  0.7167 -0.2575  0.8393
  103OSM    H4F10459   1.921   2.285   9.935  0.4753 -0.1305  0.4503
  103OSM    H4G10460   1.757   2.234   9.907  1.0202 -1.3129 -0.8203
  103OSM    C5F10461   1.902   2.097   9.843  0.8622 -0.0888  0.3821
  103OSM    H5F10462   1.838   2.006   9.832  1.0979 -0.0699 -1.4448
  103OSM    H5G10463   2.007   2.066   9.863  0.9477 -0.3595 -0.4301
  103OSM    C6F10464   1.910   2.171   9.706  0.6220  0.0814  0.2025
  103OSM    H6F10465   1.971   2.262   9.718  1.1351 -0.1462 -0.5821
  103OSM    H6G10466   1.808   2.210   9.682  0.8221  2.3054  2.6098
  103OSM    C7F10467   1.970   2.069   9.600  0.0343 -0.3455  0.9656
  103OSM    H7F10468   1.887   2.003   9.566 -1.5863  1.6345  0.8697
  103OSM    H7G10469   2.052   2.012   9.648  0.7965  0.4686  0.6616
  103OSM    C8F10470   2.000   2.137   9.467  0.0706 -0.1137 -0.1244
  103OSM    H8F10471   1.911   2.200   9.443 -0.0908  1.0008  2.9378
  103OSM    H8G10472   1.996   2.062   9.385  0.5948  1.2108 -1.4197
  103OSM    C9F10473   2.124   2.227   9.456  0.1754  0.3706 -0.0170
  103OSM    H9F10474   2.207   2.186   9.515 -0.9535 -0.6712  0.8924
  103OSM   C10F10475   2.129   2.344   9.389 -0.0838  0.2945 -0.0404
  103OSM   H10F10476   2.218   2.408   9.403  0.3566 -0.4945  0.8390
  103OSM   C11F10477   2.026   2.411   9.300 -0.2584 -0.7048  0.9999
  103OSM   H11F10478   1.957   2.477   9.357  1.0625  1.8357 -0.1988
  103OSM   H11G10479   1.970   2.334   9.243 -0.1595  0.5828 -0.9199
  103OSM   C12F10480   2.073   2.505   9.184  0.3632  0.3160 -0.2121
  103OSM   H12F10481   2.126   2.447   9.105  2.6292  1.0793  0.6839
  103OSM   H12G10482   2.154   2.568   9.226  0.2766  0.1749  0.1702
  103OSM   C13F10483   1.964   2.592   9.126  0.2782 -0.5953 -0.2098
  103OSM   H13F10484   2.007   2.681   9.074  1.0197 -1.1112 -0.4989
  103OSM   H13G10485   1.912   2.626   9.218  2.0487  0.7514  0.3660
  103OSM   C14F10486   1.868   2.518   9.025  0.2297  0.5230  0.2225
  103OSM   H14F10487   1.787   2.591   9.000  0.5207  0.6514 -0.3665
  103OSM   H14G10488   1.823   2.426   9.067 -0.3768  0.4278 -0.6080
  103OSM   C15F10489   1.942   2.474   8.899 -0.2268 -0.6630  0.9446
  103OSM   H15F10490   1.876   2.427   8.824  1.1825  0.3565 -1.0414
  103OSM   H15G10491   2.019   2.398   8.923  0.6088  0.0885  0.7426
  103OSM   C16F10492   2.011   2.586   8.824 -0.7255 -0.1834 -0.0019
  103OSM   H16F10493   2.101   2.620   8.881  0.1781  0.4265 -1.7158
  103OSM   H16G10494   1.937   2.668   8.818 -1.3415 -0.6020  1.4651
  103OSM   C17F10495   2.064   2.545   8.689 -0.1370  0.0526 -0.2857
  103OSM   H17F10496   2.025   2.617   8.614  1.3238  0.4426 -0.7039
  103OSM   H17G10497   2.038   2.440   8.664 -3.2175  0.0365  2.3182
  103OSM   C18F10498   2.217   2.558   8.673  0.3242 -0.3646 -0.5302
  103OSM   H18F10499   2.265   2.470   8.720  1.4908  0.0174 -0.9647
  103OSM   H18G10500   2.255   2.655   8.711  0.7093 -0.1938 -1.3194
  103OSM   H18H10501   2.242   2.571   8.565  0.1209  0.4997 -0.4797
  104OSM      N10502   1.638   6.485  11.228 -0.1753 -0.5039  0.4430
  104OSM    C1510503   1.548   6.583  11.179 -0.1803  0.0771 -0.0854
  104OSM   H15A10504   1.452   6.572  11.227 -0.5657  0.7603 -0.6827
  104OSM   H15B10505   1.527   6.577  11.073 -2.9376  2.8702  0.1909
  104OSM   H15C10506   1.585   6.681  11.202 -0.4842 -0.0605  1.0522
  104OSM    C1410507   1.771   6.527  11.177  0.2401  0.3889 -0.1326
  104OSM   H14A10508   1.797   6.629  11.198 -2.1415  0.9393  0.4808
  104OSM   H14B10509   1.759   6.520  11.070  0.6274  2.3220 -0.3396
  104OSM   H14C10510   1.850   6.458  11.202 -1.9335 -1.0375  3.4805
  104OSM    C1310511   1.637   6.489  11.381 -0.1769  0.0653  0.1128
  104OSM   H13A10512   1.669   6.584  11.420  2.7999 -0.3413 -1.0797
  104OSM   H13B10513   1.712   6.422  11.421  0.8662  1.8817  1.3198
  104OSM   H13C10514   1.547   6.459  11.432 -0.9151  0.5667 -0.8641
  104OSM    C1210515   1.599   6.351  11.171  0.4137 -0.3052 -0.6357
  104OSM   H12A10516   1.496   6.323  11.190 -0.3223  0.6206 -2.9396
  104OSM   H12B10517   1.659   6.279  11.224  2.5372  2.4096  0.8940
  104OSM    C1110518   1.620   6.311  11.019 -0.9532  0.0228 -0.4219
  104OSM   H11A10519   1.584   6.395  10.955 -2.1519 -1.8929 -2.3864
  104OSM   H11B10520   1.567   6.221  10.981 -2.3856  0.7755 -0.2691
  104OSM      P10521   1.842   6.173  11.036  0.1478  0.1038 -0.1341
  104OSM    O1310522   1.979   6.214  11.060 -0.4573  0.1876  0.2821
  104OSM    O1410523   1.770   6.090  11.138 -0.3421  0.5386  0.2544
  104OSM    O1110524   1.846   6.081  10.902 -0.0998  0.1981  1.1310
  104OSM    O1210525   1.757   6.300  10.992 -0.6413  0.3323  0.1428
  104OSM    C1S10526   1.906   6.158  10.791  0.6817  0.1216  0.3847
  104OSM    H1S10527   2.015   6.135  10.799  0.6155  0.3133  2.3402
  104OSM    H1T10528   1.888   6.268  10.795  1.3694  0.2130  1.2692
  104OSM     NF10529   1.920   6.182  10.545  0.1290 -0.4666  0.1633
  104OSM    HNF10530   1.868   6.251  10.495  0.9253 -0.0483 -0.1084
  104OSM    C2S10531   1.850   6.110  10.648 -0.0192  0.0690 -0.6214
  104OSM    H2S10532   1.870   6.001  10.639 -0.0577  0.0626 -0.6263
  104OSM    C3S10533   1.698   6.125  10.651 -0.5777 -0.1497 -0.0318
  104OSM    H3S10534   1.678   6.234  10.654 -2.7328 -0.5278  2.7565
  104OSM     O310535   1.628   6.071  10.768 -0.4023  0.7490  0.6602
  104OSM    HO310536   1.702   6.055  10.827  0.9319  2.1483 -0.5412
  104OSM    C4S10537   1.628   6.075  10.525 -0.0843  0.0693  0.2738
  104OSM    H4S10538   1.605   6.156  10.454  0.9775 -0.9046 -1.2407
  104OSM    C5S10539   1.599   5.947  10.498  0.3335  0.2572  0.4811
  104OSM    H5S10540   1.604   5.870  10.577 -1.7321 -0.6503 -0.1799
  104OSM    C6S10541   1.530   5.893  10.375  0.2472 -0.0259 -0.5238
  104OSM    H6S10542   1.422   5.910  10.392 -0.0332 -1.7210 -0.3773
  104OSM    H6T10543   1.536   5.782  10.386 -0.0502 -0.0842 -0.9203
  104OSM    C7S10544   1.582   5.946  10.247 -0.4276 -0.1359  0.2080
  104OSM    H7S10545   1.693   5.942  10.248 -0.2285  2.7620 -0.9713
  104OSM    H7T10546   1.557   6.054  10.243 -1.7766 -0.4031  0.9277
  104OSM    C8S10547   1.518   5.868  10.130 -0.1353  0.7048 -0.5080
  104OSM    H8S10548   1.410   5.860  10.154 -0.1776  3.0841  0.3751
  104OSM    H8T10549   1.547   5.761  10.126 -0.8396  0.5252 -0.8210
  104OSM    C9S10550   1.511   5.927   9.991  0.0260  0.4952  0.6258
  104OSM    H9S10551   1.616   5.948   9.958 -0.0275 -1.3151 -0.8738
  104OSM    H9T10552   1.470   6.030  10.002  2.7427  1.9898 -1.6489
  104OSM   C10S10553   1.427   5.852   9.886 -0.2618 -0.1890 -0.4410
  104OSM   H10S10554   1.443   5.890   9.782  2.2430  0.4718  0.1431
  104OSM   H10T10555   1.318   5.849   9.907 -0.2460  0.9990 -0.0791
  104OSM   C11S10556   1.480   5.713   9.861  0.7399 -0.4326 -0.4936
  104OSM   H11S10557   1.462   5.650   9.951 -2.5071 -1.1802 -1.5433
  104OSM   H11T10558   1.587   5.714   9.831  1.0339  1.1492  0.4246
  104OSM   C12S10559   1.395   5.661   9.745  0.6034 -0.0485 -0.1985
  104OSM   H12S10560   1.417   5.726   9.657  0.6475  2.0014  1.2405
  104OSM   H12T10561   1.287   5.652   9.769  1.1637 -1.2507  2.1837
  104OSM   C13S10562   1.425   5.510   9.701 -0.0777  0.4078 -0.8367
  104OSM   H13S10563   1.347   5.443   9.741  0.0369  0.0701 -1.1770
  104OSM   H13T10564   1.517   5.488   9.759 -0.6520 -0.9462 -0.4012
  104OSM   C14S10565   1.436   5.493   9.551 -0.7101 -0.3806  0.8312
  104OSM   H14S10566   1.510   5.571   9.524 -2.6195  1.3406  0.3646
  104OSM   H14T10567   1.337   5.520   9.509 -1.3078 -0.6126  2.0318
  104OSM   C15S10568   1.465   5.352   9.499 -0.9996  1.1867 -0.1981
  104OSM   H15S10569   1.447   5.368   9.391 -1.6648 -0.0226 -0.2903
  104OSM   H15T10570   1.388   5.278   9.530 -0.7007  0.7103 -0.5726
  104OSM   C16S10571   1.612   5.308   9.516  0.1090 -0.3689 -0.4525
  104OSM   H16S10572   1.636   5.306   9.624 -0.8927  0.7730 -0.1927
  104OSM   H16T10573   1.678   5.389   9.477 -1.4778  0.6001 -1.2417
  104OSM   C17S10574   1.643   5.174   9.454  0.8985  0.3403  1.6634
  104OSM   H17S10575   1.575   5.090   9.478  1.1228 -0.2220  0.4307
  104OSM   H17T10576   1.744   5.144   9.489  1.9842 -0.6876 -1.8553
  104OSM   C18S10577   1.651   5.176   9.303 -0.0247 -0.1738 -1.0506
  104OSM   H18S10578   1.725   5.248   9.263  0.0707 -0.4001 -1.2810
  104OSM   H18T10579   1.557   5.207   9.254 -0.2725 -1.8578 -1.7046
  104OSM   H18U10580   1.686   5.076   9.268  2.6074 -0.1777  1.2403
  104OSM    C1F10581   2.049   6.160  10.514  0.4206 -0.1074 -0.9473
  104OSM     OF10582   2.113   6.076  10.572  0.0369 -0.2463  0.0364
  104OSM    C2F10583   2.110   6.233  10.403  0.8769  0.3238 -0.3165
  104OSM    H2F10584   2.088   6.340  10.421 -2.7960 -0.4683  0.9740
  104OSM    H2G10585   2.040   6.205  10.321 -1.2722  2.0807  0.8134
  104OSM    C3F10586   2.244   6.187  10.364 -0.5925  0.0297  0.1645
  104OSM    H3F10587   2.227   6.087  10.317  0.3476 -0.4980  0.9241
  104OSM    H3G10588   2.312   6.175  10.450  1.4451  1.2674 -1.1996
  104OSM    C4F10589   2.302   6.283  10.257  0.0858  0.2396  0.5591
  104OSM    H4F10590   2.407   6.255  10.233 -0.2880  0.9591 -2.3360
  104OSM    H4G10591   2.299   6.386  10.300  0.0434  0.8825 -0.9186
  104OSM    C5F10592   2.227   6.273  10.122  0.2858 -0.1447  0.0652
  104OSM    H5F10593   2.121   6.299  10.146  1.2035  0.7152  3.9016
  104OSM    H5G10594   2.239   6.173  10.075  0.9206 -0.4045  0.7634
  104OSM    C6F10595   2.298   6.368  10.015 -0.1289  0.5680  0.3025
  104OSM    H6F10596   2.402   6.332  10.015 -0.6753 -1.1017 -0.5895
  104OSM    H6G10597   2.317   6.474  10.042 -0.3705  1.1966 -1.8491
  104OSM    C7F10598   2.228   6.384   9.880 -0.0672  0.5497  0.5409
  104OSM    H7F10599   2.124   6.412   9.910  0.4801 -0.5294  3.8079
  104OSM    H7G10600   2.233   6.288   9.824  2.1046  1.8339 -1.6855
  104OSM    C8F10601   2.289   6.498   9.791 -0.3059 -0.5866 -0.4573
  104OSM    H8F10602   2.392   6.470   9.762 -0.0012 -0.1565  0.1835
  104OSM    H8G10603   2.290   6.589   9.854 -0.6405 -0.5992 -0.4320
  104OSM    C9F10604   2.203   6.507   9.672  0.6952 -0.4638 -0.1248
  104OSM    H9F10605   2.111   6.567   9.683  0.7040  0.4012 -3.5388
  104OSM   C10F10606   2.222   6.447   9.556  0.3259  0.4300 -0.3175
  104OSM   H10F10607   2.142   6.460   9.481 -0.7986  2.2322  1.1368
  104OSM   C11F10608   2.336   6.354   9.526  0.0565 -0.6900  0.7046
  104OSM   H11F10609   2.308   6.248   9.513 -0.5211 -0.3679 -1.0604
  104OSM   H11G10610   2.409   6.354   9.609 -1.3560 -0.4743  1.9900
  104OSM   C12F10611   2.387   6.403   9.384 -0.4351 -0.0105 -0.1693
  104OSM   H12F10612   2.379   6.513   9.370 -3.9563 -0.3196 -1.6834
  104OSM   H12G10613   2.320   6.346   9.316 -1.2943  0.4083  0.2987
  104OSM   C13F10614   2.527   6.344   9.366 -0.1517 -0.3112 -0.4143
  104OSM   H13F10615   2.526   6.238   9.399 -2.1549 -0.4278 -0.7318
  104OSM   H13G10616   2.589   6.387   9.448 -1.9591 -0.0568  0.8676
  104OSM   C14F10617   2.598   6.374   9.229  0.0443 -0.2118 -0.2641
  104OSM   H14F10618   2.701   6.333   9.233 -0.5282 -1.6788  0.0197
  104OSM   H14G10619   2.584   6.481   9.206 -1.4947 -0.4119 -0.3486
  104OSM   C15F10620   2.536   6.287   9.119  0.0754  0.1071  0.5627
  104OSM   H15F10621   2.427   6.307   9.125 -0.1948 -0.3655 -1.6254
  104OSM   H15G10622   2.562   6.184   9.151  2.0059  1.0691  2.3647
  104OSM   C16F10623   2.594   6.307   8.982  0.4347  0.6279  0.7332
  104OSM   H16F10624   2.703   6.287   8.986  0.6703  1.9448  1.9529
  104OSM   H16G10625   2.567   6.406   8.940 -2.0151 -0.5458 -0.6101
  104OSM   C17F10626   2.547   6.209   8.871  0.3336 -0.7223  0.1621
  104OSM   H17F10627   2.580   6.246   8.771 -0.5285  2.0765  0.8502
  104OSM   H17G10628   2.437   6.225   8.860  0.4229 -0.9485 -1.3737
  104OSM   C18F10629   2.572   6.064   8.894  0.5285  0.0137 -0.3098
  104OSM   H18F10630   2.552   6.000   8.806 -0.3116 -1.7923  1.1325
  104OSM   H18G10631   2.508   6.021   8.974  1.6273 -1.6064 -0.2494
  104OSM   H18H10632   2.678   6.051   8.924  0.2231 -1.7251  0.1630
  105OSM      N10633   5.951   5.364  11.048 -0.1651  0.2470  0.8188
  105OSM    C1510634   5.819   5.296  11.071 -0.3103 -0.5391 -0.4369
  105OSM   H15A10635   5.789   5.283  11.174  1.2426 -0.5292  0.0439
  105OSM   H15B10636   5.817   5.203  11.015 -1.4124  0.5697 -2.3664
  105OSM   H15C10637   5.741   5.355  11.027 -1.5555 -0.7507  1.3939
  105OSM    C1410638   5.977   5.384  10.902  0.3243  0.3151 -0.3755
  105OSM   H14A10639   6.075   5.429  10.898  1.5473 -2.1859 -1.1399
  105OSM   H14B10640   5.902   5.436  10.844  0.2458 -0.3694 -0.9148
  105OSM   H14C10641   5.982   5.284  10.861 -1.5181  0.8264 -2.0324
  105OSM    C1310642   5.958   5.496  11.126  0.0075 -0.4117  0.1521
  105OSM   H13A10643   5.946   5.489  11.233 -1.7655  0.3032  0.0281
  105OSM   H13B10644   5.876   5.558  11.094  2.3503  3.4111  0.8923
  105OSM   H13C10645   6.050   5.552  11.110 -0.3767 -0.1972 -1.4020
  105OSM    C1210646   6.055   5.268  11.101 -0.5830  0.2190 -0.3676
  105OSM   H12A10647   6.010   5.222  11.188  1.2321 -1.3564 -0.1804
  105OSM   H12B10648   6.143   5.321  11.132 -0.5175  0.4674 -0.9639
  105OSM    C1110649   6.101   5.153  11.000 -0.4626 -0.0423  0.0833
  105OSM   H11A10650   6.179   5.100  11.058 -1.2737 -0.1162  1.1363
  105OSM   H11B10651   6.162   5.195  10.917 -0.3687  0.9973  0.6615
  105OSM      P10652   5.953   4.952  11.068  0.2093 -0.0828 -0.5934
  105OSM    O1310653   6.009   4.986  11.196  0.9547  0.1264 -0.7427
  105OSM    O1410654   5.808   4.931  11.061 -0.2438 -0.0150  0.0062
  105OSM    O1110655   6.030   4.837  11.015 -0.0270  0.7875  0.6591
  105OSM    O1210656   5.998   5.060  10.966 -0.8044 -0.0155  0.0881
  105OSM    C1S10657   5.974   4.702  10.988  0.3655 -0.3598 -0.4888
  105OSM    H1S10658   5.882   4.684  11.047  0.6019 -3.4678 -0.9038
  105OSM    H1T10659   6.050   4.622  11.005 -0.6801 -1.2333  0.2225
  105OSM     NF10660   5.853   4.564  10.836 -0.0168  0.5729  0.4155
  105OSM    HNF10661   5.901   4.482  10.866  0.7533  1.3617  1.3966
  105OSM    C2S10662   5.937   4.680  10.838 -0.7053  0.1164 -0.3097
  105OSM    H2S10663   5.882   4.773  10.809 -1.3980 -0.4485 -0.8409
  105OSM    C3S10664   6.063   4.680  10.748  0.4463  0.4714  0.4346
  105OSM    H3S10665   6.144   4.608  10.776 -1.0168 -1.9204 -1.0730
  105OSM     O310666   6.139   4.797  10.771 -0.2942  0.1789  0.0478
  105OSM    HO310667   6.097   4.828  10.851 -1.1458 -0.0304 -0.3166
  105OSM    C4S10668   6.043   4.669  10.604 -0.5117 -0.3501  0.1736
  105OSM    H4S10669   6.012   4.758  10.548  1.0274 -0.7964 -1.5082
  105OSM    C5S10670   6.055   4.561  10.523  1.0678 -0.1385 -0.8014
  105OSM    H5S10671   6.083   4.461  10.561 -0.9221  0.4389  2.5758
  105OSM    C6S10672   6.020   4.564  10.379 -0.4331  0.0344  0.1230
  105OSM    H6S10673   5.964   4.651  10.338 -1.3919 -0.7212 -0.2045
  105OSM    H6T10674   5.944   4.486  10.355  0.3030 -0.0355 -2.3224
  105OSM    C7S10675   6.145   4.542  10.295 -0.8423 -0.1820 -0.4473
  105OSM    H7S10676   6.214   4.462  10.329 -0.7330 -0.2141 -0.7494
  105OSM    H7T10677   6.206   4.635  10.303  1.1741 -1.4575 -0.3959
  105OSM    C8S10678   6.101   4.518  10.152 -0.1441 -0.7012 -0.4722
  105OSM    H8S10679   6.025   4.590  10.117  1.2350  0.8902 -0.3120
  105OSM    H8T10680   6.057   4.416  10.148  0.4995 -1.0740  1.0754
  105OSM    C9S10681   6.216   4.526  10.051 -0.0913 -0.1688 -0.1454
  105OSM    H9S10682   6.303   4.467  10.085 -1.1118  0.0956  3.3665
  105OSM    H9T10683   6.245   4.633  10.048  0.4583 -0.1958  2.0386
  105OSM   C10S10684   6.178   4.477   9.906  0.1519  0.1867 -0.3433
  105OSM   H10S10685   6.174   4.366   9.905  0.4722  0.0676 -4.1008
  105OSM   H10T10686   6.259   4.511   9.838 -0.4850  3.9549  0.5463
  105OSM   C11S10687   6.034   4.506   9.855 -0.0553  0.0489  0.5465
  105OSM   H11S10688   6.027   4.616   9.864 -1.7238  0.2814 -2.3365
  105OSM   H11T10689   5.962   4.462   9.927  1.1837  2.7952  3.7084
  105OSM   C12S10690   6.008   4.461   9.706 -0.0500  0.1422  0.1312
  105OSM   H12S10691   5.898   4.470   9.689  0.1723  1.3546 -0.8331
  105OSM   H12T10692   6.049   4.361   9.680  0.1016 -0.1456  1.3763
  105OSM   C13S10693   6.059   4.576   9.612  0.6152  0.0762 -0.5475
  105OSM   H13S10694   6.170   4.582   9.615  0.5841  0.3897  0.8665
  105OSM   H13T10695   6.014   4.668   9.654 -2.9163 -1.7812  0.1373
  105OSM   C14S10696   6.001   4.559   9.468  0.1833  0.0150 -0.2675
  105OSM   H14S10697   5.890   4.550   9.466  0.2929 -1.8346 -0.0771
  105OSM   H14T10698   6.032   4.456   9.438 -0.2163  0.0687 -0.8572
  105OSM   C15S10699   6.045   4.676   9.378 -0.0921  0.0971 -0.3344
  105OSM   H15S10700   6.156   4.678   9.383 -0.1558  1.6995  1.9060
  105OSM   H15T10701   6.005   4.772   9.418 -0.4999  0.2462 -1.0816
  105OSM   C16S10702   6.008   4.664   9.227  0.0056  0.6941 -0.2312
  105OSM   H16S10703   5.901   4.676   9.201 -0.4762 -0.2390  1.2081
  105OSM   H16T10704   6.040   4.563   9.194  3.3217  2.0437 -1.6806
  105OSM   C17S10705   6.087   4.772   9.141  0.4267  0.6883  0.0357
  105OSM   H17S10706   6.196   4.755   9.157  0.7455  0.7658 -1.8072
  105OSM   H17T10707   6.048   4.871   9.172 -1.1643  0.1471 -0.1529
  105OSM   C18S10708   6.060   4.753   8.989  0.2605  0.8413 -0.0632
  105OSM   H18S10709   6.032   4.852   8.948 -0.0589  0.1876 -1.4936
  105OSM   H18T10710   5.966   4.696   8.970 -0.7244  1.6408  2.1333
  105OSM   H18U10711   6.138   4.703   8.926  0.9409  1.6922  0.0829
  105OSM    C1F10712   5.720   4.576  10.834 -0.4261  0.5259  0.2068
  105OSM     OF10713   5.666   4.686  10.829  0.0028  0.2311  0.2001
  105OSM    C2F10714   5.644   4.446  10.858 -0.0964  0.2951  0.1313
  105OSM    H2F10715   5.537   4.466  10.838 -0.2334  1.4299  1.7947
  105OSM    H2G10716   5.650   4.420  10.966  1.2280 -0.4730 -0.1050
  105OSM    C3F10717   5.706   4.331  10.781  0.3297  0.2804  0.2935
  105OSM    H3F10718   5.657   4.241  10.823  0.8540 -0.0440  0.2115
  105OSM    H3G10719   5.812   4.311  10.804  1.1034  3.2151 -0.2421
  105OSM    C4F10720   5.686   4.333  10.632 -0.0750 -0.8401 -0.1472
  105OSM    H4F10721   5.746   4.259  10.574  1.6881  1.6039 -1.6234
  105OSM    H4G10722   5.737   4.422  10.592 -1.2205  0.0180  0.2348
  105OSM    C5F10723   5.540   4.328  10.587  0.1567  0.0950  0.5267
  105OSM    H5F10724   5.492   4.423  10.619 -0.8913  0.2673 -1.4145
  105OSM    H5G10725   5.481   4.251  10.642  0.9063 -0.3084  0.7799
  105OSM    C6F10726   5.519   4.308  10.430 -0.9766  0.3911  0.2222
  105OSM    H6F10727   5.501   4.198  10.422  1.2351 -0.1877  2.1208
  105OSM    H6G10728   5.611   4.342  10.379 -1.6844 -0.0847 -1.4587
  105OSM    C7F10729   5.395   4.377  10.371  0.1862  0.7897  0.4663
  105OSM    H7F10730   5.395   4.485  10.398  3.4347  1.2424 -0.9156
  105OSM    H7G10731   5.300   4.329  10.403  0.4339 -1.2613 -1.6066
  105OSM    C8F10732   5.398   4.370  10.217  0.6584  0.0639  0.3600
  105OSM    H8F10733   5.409   4.263  10.190  0.0578  0.1033 -0.0831
  105OSM    H8G10734   5.491   4.423  10.189 -0.0413  1.3006  0.2999
  105OSM    C9F10735   5.277   4.433  10.161 -0.4872  0.2476 -0.1388
  105OSM    H9F10736   5.255   4.527  10.213 -0.0465  0.2293  0.0897
  105OSM   C10F10737   5.214   4.398  10.049 -0.2010 -0.0463 -0.3229
  105OSM   H10F10738   5.136   4.467  10.011  2.4027  2.1292 -2.1284
  105OSM   C11F10739   5.243   4.285   9.955 -0.0554  0.4043 -0.0248
  105OSM   H11F10740   5.161   4.212   9.970  0.8967 -0.6362  0.2584
  105OSM   H11G10741   5.337   4.237   9.991 -0.9976  0.2650  2.4012
  105OSM   C12F10742   5.275   4.324   9.812  0.4818  0.3006 -0.1673
  105OSM   H12F10743   5.364   4.389   9.802  0.9021 -0.3287 -0.5503
  105OSM   H12G10744   5.198   4.387   9.763  1.7429  1.2353 -1.0077
  105OSM   C13F10745   5.286   4.203   9.720 -0.1707  0.3125 -0.2561
  105OSM   H13F10746   5.191   4.146   9.724  1.3912 -2.4470  0.2782
  105OSM   H13G10747   5.376   4.142   9.744  0.2337  1.0205  0.0402
  105OSM   C14F10748   5.311   4.255   9.575 -0.8655 -0.0857  0.1554
  105OSM   H14F10749   5.414   4.297   9.576 -0.6562 -0.5967  0.8890
  105OSM   H14G10750   5.237   4.334   9.549 -0.2788 -0.0493 -1.5079
  105OSM   C15F10751   5.296   4.164   9.453 -0.4927 -0.2324 -0.0281
  105OSM   H15F10752   5.208   4.097   9.459 -2.2146  1.5668 -2.7264
  105OSM   H15G10753   5.385   4.098   9.446 -1.2788 -1.2893 -0.3566
  105OSM   C16F10754   5.296   4.245   9.321  0.1577 -0.7134  0.3355
  105OSM   H16F10755   5.329   4.201   9.225  1.6360  0.8258  0.0771
  105OSM   H16G10756   5.364   4.331   9.342 -0.9962  0.3717 -0.2307
  105OSM   C17F10757   5.165   4.302   9.274  1.0641 -0.0127 -0.3559
  105OSM   H17F10758   5.129   4.367   9.357 -0.5667 -1.8850  0.4694
  105OSM   H17G10759   5.099   4.216   9.254  0.9008 -0.0330  0.2547
  105OSM   C18F10760   5.165   4.380   9.139 -0.9367  0.0710  0.2753
  105OSM   H18F10761   5.210   4.481   9.145  0.9764 -0.6647 -0.7108
  105OSM   H18G10762   5.061   4.391   9.101 -0.1965 -0.7455 -2.2022
  105OSM   H18H10763   5.231   4.323   9.070  1.8567  1.1161  1.9208
  106OSM      N10764   5.096   2.655  11.113 -0.0145  0.3392 -0.4483
  106OSM    C1510765   5.157   2.518  11.150  0.6704 -0.0041  0.4712
  106OSM   H15A10766   5.245   2.538  11.209  1.0449  0.6034 -0.2735
  106OSM   H15B10767   5.195   2.481  11.056 -0.8564 -1.3810  0.3537
  106OSM   H15C10768   5.094   2.438  11.187  0.0652  0.0313 -0.4603
  106OSM    C1410769   4.963   2.627  11.053  0.0470  0.3408  0.3660
  106OSM   H14A10770   4.900   2.562  11.112  0.7188 -1.1457 -0.4834
  106OSM   H14B10771   4.978   2.580  10.957  0.9964  2.8463 -0.7968
  106OSM   H14C10772   4.918   2.723  11.036 -1.6321 -0.7036 -1.6145
  106OSM    C1310773   5.087   2.732  11.246  0.2142 -0.2944  1.2459
  106OSM   H13A10774   5.026   2.682  11.319 -1.3918 -2.2710 -1.2760
  106OSM   H13B10775   5.041   2.827  11.222  0.2342 -0.3399  1.0214
  106OSM   H13C10776   5.189   2.748  11.280  1.3055  0.8567 -2.1110
  106OSM    C1210777   5.192   2.717  11.019 -0.1357  0.4556 -0.3343
  106OSM   H12A10778   5.293   2.715  11.058 -0.7987  0.9265  1.4938
  106OSM   H12B10779   5.167   2.819  10.995  0.6683  0.5173 -0.9688
  106OSM    C1110780   5.190   2.647  10.880 -0.4547 -0.0617 -0.2051
  106OSM   H11A10781   5.252   2.715  10.817  0.3356 -0.5993 -0.0219
  106OSM   H11B10782   5.091   2.649  10.830  0.6396  0.6309 -2.4713
  106OSM      P10783   5.224   2.397  10.781 -0.4079  0.3635 -0.2480
  106OSM    O1310784   5.282   2.275  10.836 -0.8382  0.5321  0.5662
  106OSM    O1410785   5.085   2.391  10.743  0.4917 -0.0098  0.0602
  106OSM    O1110786   5.303   2.456  10.666 -0.6350  0.2815  0.4818
  106OSM    O1210787   5.243   2.512  10.883  0.5612  0.0434 -0.5146
  106OSM    C1S10788   5.429   2.521  10.687  0.7654  0.3264  0.2568
  106OSM    H1S10789   5.497   2.453  10.744  0.3154 -0.7782 -0.4783
  106OSM    H1T10790   5.419   2.621  10.733  1.5479  0.5956 -0.1422
  106OSM     NF10791   5.635   2.605  10.572  0.3114 -0.1006 -0.7334
  106OSM    HNF10792   5.642   2.703  10.557 -1.2755  0.2026  0.2541
  106OSM    C2S10793   5.500   2.556  10.552  0.4860 -0.1663  0.1043
  106OSM    H2S10794   5.495   2.474  10.476 -3.1084 -0.0081  0.0040
  106OSM    C3S10795   5.409   2.665  10.481  0.0789  0.5162  0.2370
  106OSM    H3S10796   5.397   2.753  10.547 -0.6695  0.4456  0.1942
  106OSM     O310797   5.275   2.626  10.464 -0.0389  0.1539  0.1449
  106OSM    HO310798   5.270   2.546  10.517 -1.0318 -0.7391 -1.2298
  106OSM    C4S10799   5.470   2.705  10.353  0.5237  0.1647  0.2473
  106OSM    H4S10800   5.499   2.629  10.279 -1.0111  1.0682 -1.3608
  106OSM    C5S10801   5.470   2.836  10.316 -0.0930 -0.0113 -0.1289
  106OSM    H5S10802   5.435   2.907  10.393 -0.8189 -1.8705  1.3172
  106OSM    C6S10803   5.529   2.891  10.190 -0.2601 -0.3056 -0.3118
  106OSM    H6S10804   5.639   2.873  10.195 -0.4266 -1.1210  0.7299
  106OSM    H6T10805   5.518   3.002  10.190  1.0487 -0.1521 -0.3748
  106OSM    C7S10806   5.458   2.820  10.072  0.3276 -0.3164 -0.8980
  106OSM    H7S10807   5.348   2.834  10.081  0.5528  0.0159  2.2644
  106OSM    H7T10808   5.484   2.712  10.071  0.1466 -0.3785  0.2514
  106OSM    C8S10809   5.506   2.868   9.925  0.1317 -0.8354  0.7430
  106OSM    H8S10810   5.615   2.875   9.910  0.1350 -2.9158 -0.5262
  106OSM    H8T10811   5.463   2.971   9.916 -0.8094 -1.0317  2.3869
  106OSM    C9S10812   5.452   2.774   9.815  0.2715  0.1852  0.2193
  106OSM    H9S10813   5.341   2.779   9.819  0.3457  2.1350  2.8506
  106OSM    H9T10814   5.485   2.672   9.842  1.8178  0.6205  0.0946
  106OSM   C10S10815   5.489   2.815   9.673  0.2204  0.0826 -0.3252
  106OSM   H10S10816   5.597   2.841   9.673  0.1306  0.4889 -1.0651
  106OSM   H10T10817   5.436   2.912   9.665  1.5245  0.8694  0.3381
  106OSM   C11S10818   5.442   2.721   9.573  0.4815 -0.1504 -0.2358
  106OSM   H11S10819   5.333   2.699   9.575  0.5794 -0.7329 -0.9226
  106OSM   H11T10820   5.488   2.623   9.597  1.6802  0.6731  0.9581
  106OSM   C12S10821   5.473   2.769   9.432 -0.0904 -0.5828  0.3178
  106OSM   H12S10822   5.581   2.791   9.417 -0.2213 -1.4341 -2.5473
  106OSM   H12T10823   5.433   2.872   9.426  0.7329 -0.3264 -1.7174
  106OSM   C13S10824   5.418   2.671   9.329 -0.1419  0.0506 -0.6734
  106OSM   H13S10825   5.320   2.624   9.354  0.8015 -0.3732  2.7724
  106OSM   H13T10826   5.482   2.580   9.326 -3.2462 -2.4715  2.0413
  106OSM   C14S10827   5.424   2.731   9.189  0.4724  0.2695  0.3000
  106OSM   H14S10828   5.534   2.738   9.175  0.5833 -0.9183  0.4366
  106OSM   H14T10829   5.379   2.832   9.182  0.4026  0.2205  0.0558
  106OSM   C15S10830   5.377   2.640   9.072  0.4609  0.0151 -0.2839
  106OSM   H15S10831   5.267   2.654   9.067  0.2680  0.1905  2.6219
  106OSM   H15T10832   5.398   2.534   9.094  0.5314 -0.4951 -2.5908
  106OSM   C16S10833   5.432   2.665   8.937 -0.1946  0.3348 -0.2974
  106OSM   H16S10834   5.536   2.627   8.946 -1.0209 -1.9891  0.1226
  106OSM   H16T10835   5.431   2.774   8.915  3.2313  0.6199  0.3057
  106OSM   C17S10836   5.346   2.596   8.825 -0.6371  0.3854  0.2258
  106OSM   H17S10837   5.252   2.653   8.811 -0.5120  0.2747 -1.1918
  106OSM   H17T10838   5.321   2.492   8.855 -0.6766 -0.3046 -2.0325
  106OSM   C18S10839   5.413   2.587   8.694  0.9303  0.0648  0.2029
  106OSM   H18S10840   5.517   2.547   8.699  1.4767  1.5180  1.3472
  106OSM   H18T10841   5.425   2.695   8.669  1.9360 -0.0090  0.3049
  106OSM   H18U10842   5.343   2.527   8.633 -0.3795 -0.3736  2.0320
  106OSM    C1F10843   5.740   2.518  10.611  0.0519 -0.2211  1.0366
  106OSM     OF10844   5.705   2.405  10.637  0.1678  0.2460 -0.4649
  106OSM    C2F10845   5.877   2.576  10.605  0.5946  0.5903  0.8769
  106OSM    H2F10846   5.913   2.572  10.710  2.1884  2.4208  0.4646
  106OSM    H2G10847   5.868   2.684  10.580 -0.2232  0.6021  1.2061
  106OSM    C3F10848   5.965   2.499  10.513 -0.3366  0.0803 -0.0171
  106OSM    H3F10849   5.935   2.520  10.408  1.9075  0.1480 -0.6905
  106OSM    H3G10850   5.961   2.389  10.531 -3.0764  0.2818  1.1145
  106OSM    C4F10851   6.114   2.544  10.521  0.0115  0.2876  0.2377
  106OSM    H4F10852   6.145   2.528  10.626  1.6725 -1.9822 -0.5034
  106OSM    H4G10853   6.126   2.654  10.512  2.8936 -0.1106 -2.4732
  106OSM    C5F10854   6.204   2.473  10.422 -0.2443  0.2677 -0.4689
  106OSM    H5F10855   6.165   2.377  10.382  1.3670  0.3466 -2.4450
  106OSM    H5G10856   6.305   2.447  10.460 -0.8880 -0.9212  0.5023
  106OSM    C6F10857   6.227   2.574  10.307 -0.6385  0.5885 -0.1773
  106OSM    H6F10858   6.305   2.643  10.345  0.3089 -0.2230 -0.5967
  106OSM    H6G10859   6.134   2.634  10.293 -0.0273  1.6592  0.2854
  106OSM    C7F10860   6.247   2.507  10.172  0.1759  0.0967 -0.3957
  106OSM    H7F10861   6.158   2.444  10.151  0.2555 -0.7445  1.5485
  106OSM    H7G10862   6.340   2.446  10.179 -0.3536 -0.8910 -1.5360
  106OSM    C8F10863   6.275   2.604  10.047 -0.2194 -0.0254 -0.2731
  106OSM    H8F10864   6.372   2.655  10.066  0.7014 -2.1661  1.0612
  106OSM    H8G10865   6.187   2.673  10.045 -1.0489 -1.0341  0.2892
  106OSM    C9F10866   6.269   2.527   9.917  0.1731 -0.6279 -0.4513
  106OSM    H9F10867   6.203   2.439   9.927  0.3341 -0.7465 -0.4163
  106OSM   C10F10868   6.334   2.546   9.797  0.0149 -0.1459 -0.0980
  106OSM   H10F10869   6.301   2.480   9.715 -1.8089 -0.1391  0.5774
  106OSM   C11F10870   6.432   2.648   9.764  0.0956 -0.4232  0.4346
  106OSM   H11F10871   6.532   2.602   9.772 -0.3340 -1.4074  0.3049
  106OSM   H11G10872   6.429   2.737   9.831 -2.7818 -1.1269  1.3997
  106OSM   C12F10873   6.410   2.698   9.621 -0.5833 -0.3031 -0.0615
  106OSM   H12F10874   6.474   2.789   9.623 -2.4783  1.0994 -0.3203
  106OSM   H12G10875   6.306   2.735   9.616 -1.1406 -1.8775 -0.5555
  106OSM   C13F10876   6.448   2.597   9.505 -0.3880 -0.5931  0.5188
  106OSM   H13F10877   6.381   2.509   9.518 -1.0796 -0.0482  0.7108
  106OSM   H13G10878   6.557   2.578   9.500 -0.0301  1.5453 -1.7808
  106OSM   C14F10879   6.408   2.658   9.371  0.1993 -0.4427 -0.0307
  106OSM   H14F10880   6.470   2.749   9.354 -1.4564  0.7834  0.2325
  106OSM   H14G10881   6.305   2.698   9.378 -0.8968 -3.0020 -0.6093
  106OSM   C15F10882   6.424   2.570   9.244  0.3387  0.5513 -0.0587
  106OSM   H15F10883   6.334   2.592   9.183  0.9600  1.6744 -0.5927
  106OSM   H15G10884   6.406   2.467   9.281  1.5421  0.2085 -0.3817
  106OSM   C16F10885   6.571   2.588   9.194  0.7867 -0.0032  0.8654
  106OSM   H16F10886   6.651   2.539   9.253  0.0080 -0.3008  1.6905
  106OSM   H16G10887   6.593   2.696   9.199 -1.7047  0.5296  1.8920
  106OSM   C17F10888   6.581   2.536   9.055 -0.5201 -0.0700 -0.1189
  106OSM   H17F10889   6.504   2.566   8.981  0.0361 -1.4953 -1.3316
  106OSM   H17G10890   6.558   2.427   9.055 -1.2018  0.0699 -0.0951
  106OSM   C18F10891   6.721   2.561   8.994  0.7855  0.1168 -0.6608
  106OSM   H18F10892   6.743   2.664   8.959  1.0519  0.5923  0.8287
  106OSM   H18G10893   6.725   2.500   8.901 -0.7191 -1.6220  0.3396
  106OSM   H18H10894   6.812   2.527   9.048  0.3609  1.9338  1.3520
  107OSM      N10895   1.797   1.675  11.352  0.3707 -0.4992  0.4811
  107OSM    C1510896   1.881   1.803  11.366 -0.1707  0.5965 -0.1695
  107OSM   H15A10897   1.934   1.824  11.274  1.5187 -1.3083  0.2720
  107OSM   H15B10898   1.955   1.789  11.444  1.2703  2.4565 -1.1106
  107OSM   H15C10899   1.820   1.887  11.395  0.9707  1.1376  0.7337
  107OSM    C1410900   1.880   1.565  11.303  0.3233  0.3772 -0.5461
  107OSM   H14A10901   1.903   1.593  11.201 -1.0620  1.8348 -0.4906
  107OSM   H14B10902   1.819   1.476  11.291 -0.8661  1.3783 -2.2120
  107OSM   H14C10903   1.969   1.546  11.362  0.8187  0.8227 -1.1387
  107OSM    C1310904   1.744   1.632  11.484 -0.3689  0.5679 -0.4378
  107OSM   H13A10905   1.669   1.555  11.472  0.7005 -0.6454  0.4316
  107OSM   H13B10906   1.690   1.712  11.533  0.6502 -0.1173  1.9664
  107OSM   H13C10907   1.820   1.597  11.552 -1.0568 -1.1353 -0.5020
  107OSM    C1210908   1.680   1.707  11.260 -0.0881 -0.5140  0.2802
  107OSM   H12A10909   1.721   1.736  11.164 -1.2325  1.4827  0.3452
  107OSM   H12B10910   1.626   1.796  11.289  0.3830 -0.0983 -0.0850
  107OSM    C1110911   1.573   1.598  11.233 -0.1688 -0.6679 -0.1761
  107OSM   H11A10912   1.504   1.645  11.160 -1.0315 -0.0070  1.0436
  107OSM   H11B10913   1.514   1.575  11.324 -2.6002 -1.8931 -1.9689
  107OSM      P10914   1.549   1.369  11.117  0.1550  0.0897  0.3705
  107OSM    O1310915   1.627   1.244  11.138 -0.6871 -0.4932 -0.5613
  107OSM    O1410916   1.410   1.370  11.165 -0.1988  0.2343 -0.0837
  107OSM    O1110917   1.548   1.409  10.962  0.3262  0.7485  0.4100
  107OSM    O1210918   1.635   1.486  11.174  0.3842  0.1160  0.0888
  107OSM    C1S10919   1.674   1.430  10.894  0.0296  0.4423  0.3233
  107OSM    H1S10920   1.753   1.402  10.967 -0.2476  0.1135  0.4995
  107OSM    H1T10921   1.676   1.538  10.865 -1.0306  0.5389  0.5740
  107OSM     NF10922   1.837   1.371  10.720 -0.3362  0.2554  0.2086
  107OSM    HNF10923   1.880   1.447  10.671 -0.5772  0.4613  0.3158
  107OSM    C2S10924   1.696   1.361  10.752 -0.6103 -0.7461  0.1132
  107OSM    H2S10925   1.658   1.257  10.755  0.3718 -1.0919  0.7459
  107OSM    C3S10926   1.597   1.441  10.663  0.0681 -0.1346  0.0925
  107OSM    H3S10927   1.609   1.551  10.665  1.1694 -0.2297 -0.3960
  107OSM     O310928   1.464   1.421  10.705  0.4008  0.2643 -0.4494
  107OSM    HO310929   1.479   1.427  10.800 -1.3469  0.6886 -0.1617
  107OSM    C4S10930   1.616   1.407  10.517 -0.2129  0.2764  0.0864
  107OSM    H4S10931   1.579   1.306  10.498  1.6111 -0.2001 -1.2372
  107OSM    C5S10932   1.669   1.483  10.417  0.1889  0.3993 -0.3518
  107OSM    H5S10933   1.702   1.586  10.438  1.0668 -0.1546  1.1392
  107OSM    C6S10934   1.680   1.437  10.278  0.2632 -0.1825 -0.2662
  107OSM    H6S10935   1.753   1.499  10.222  0.4314 -0.7218 -0.6464
  107OSM    H6T10936   1.586   1.447  10.220 -0.0687  0.2890  0.3424
  107OSM    C7S10937   1.732   1.292  10.257  0.2130 -0.0559  0.4897
  107OSM    H7S10938   1.655   1.212  10.265  1.8683 -1.8663 -0.7884
  107OSM    H7T10939   1.793   1.275  10.348  0.6988  3.1589  0.8850
  107OSM    C8S10940   1.809   1.263  10.125 -0.4327  0.2681  0.2973
  107OSM    H8S10941   1.808   1.153  10.106 -2.9840  0.3213 -0.2047
  107OSM    H8T10942   1.910   1.309  10.124 -0.5816  0.6526  1.6576
  107OSM    C9S10943   1.727   1.313  10.000  0.2431 -0.2730  0.1496
  107OSM    H9S10944   1.673   1.408  10.019 -1.0118 -0.7203 -1.0278
  107OSM    H9T10945   1.641   1.245   9.984 -0.7757  0.4780  2.0597
  107OSM   C10S10946   1.821   1.338   9.885  0.3120 -0.5031 -0.9230
  107OSM   H10S10947   1.868   1.241   9.858 -1.6344 -1.5040 -0.8938
  107OSM   H10T10948   1.905   1.407   9.911 -0.7169 -0.1727  1.8644
  107OSM   C11S10949   1.756   1.414   9.773  0.0064  0.0346  0.2096
  107OSM   H11S10950   1.698   1.498   9.818  0.7949 -0.1652  1.6612
  107OSM   H11T10951   1.690   1.348   9.712  1.8330 -1.3417 -0.3514
  107OSM   C12S10952   1.861   1.476   9.680 -0.2336 -0.9392 -0.5695
  107OSM   H12S10953   1.880   1.397   9.604  3.5487  1.2365 -2.1805
  107OSM   H12T10954   1.949   1.527   9.725 -0.4569 -0.4694 -0.6515
  107OSM   C13S10955   1.796   1.599   9.607 -0.0708 -0.0235  0.6812
  107OSM   H13S10956   1.786   1.685   9.678  1.2933  0.2992  0.5142
  107OSM   H13T10957   1.690   1.585   9.579  0.8452 -1.6183 -2.3969
  107OSM   C14S10958   1.880   1.648   9.490 -0.0511 -0.4336 -0.4549
  107OSM   H14S10959   1.898   1.556   9.431  2.1059  0.0590 -0.6642
  107OSM   H14T10960   1.968   1.705   9.528 -0.9569 -0.2905  1.5321
  107OSM   C15S10961   1.785   1.712   9.388  0.7987  0.1061 -0.5181
  107OSM   H15S10962   1.729   1.796   9.434  1.9916  2.1122 -2.5008
  107OSM   H15T10963   1.710   1.637   9.356  0.6992 -1.4233  2.8302
  107OSM   C16S10964   1.863   1.767   9.268  0.4637  0.1018  0.2502
  107OSM   H16S10965   1.908   1.676   9.224 -1.8101 -0.4746 -1.0654
  107OSM   H16T10966   1.940   1.841   9.298 -2.8925  3.6696  0.9115
  107OSM   C17S10967   1.771   1.815   9.149 -0.4467  0.7475  0.0452
  107OSM   H17S10968   1.845   1.850   9.074 -0.3551  0.0874 -0.1866
  107OSM   H17T10969   1.710   1.905   9.170 -0.3557  0.9149 -0.3915
  107OSM   C18S10970   1.674   1.719   9.075  0.2160  0.0693 -0.1096
  107OSM   H18S10971   1.729   1.636   9.025  1.3059 -1.4094  3.2590
  107OSM   H18T10972   1.622   1.774   8.994  1.2112  0.4350 -0.5272
  107OSM   H18U10973   1.595   1.673   9.137 -0.7499  0.9812 -0.6354
  107OSM    C1F10974   1.922   1.279  10.765 -0.0392  1.2639 -0.4854
  107OSM     OF10975   1.883   1.190  10.838  0.0320  0.2447 -0.5846
  107OSM    C2F10976   2.071   1.295  10.713 -0.4267  0.3917  0.3417
  107OSM    H2F10977   2.133   1.281  10.804  1.3512  0.4308 -0.7957
  107OSM    H2G10978   2.075   1.403  10.688 -1.1437 -0.2191 -2.8665
  107OSM    C3F10979   2.108   1.197  10.606 -0.2369  0.4556  0.1838
  107OSM    H3F10980   2.085   1.094  10.640  1.4138 -0.4793 -1.3430
  107OSM    H3G10981   2.217   1.189  10.588 -0.7673 -2.1709 -3.0669
  107OSM    C4F10982   2.039   1.208  10.467  0.8343  0.1992 -0.4245
  107OSM    H4F10983   1.929   1.217  10.478  0.7442  1.7823 -2.3113
  107OSM    H4G10984   2.066   1.119  10.407  1.7030  0.5441 -0.5613
  107OSM    C5F10985   2.090   1.325  10.387  0.7659 -0.4765  0.2017
  107OSM    H5F10986   2.109   1.404  10.463  1.4047  1.0332 -1.4494
  107OSM    H5G10987   2.008   1.348  10.315 -1.1329 -1.9690  1.7861
  107OSM    C6F10988   2.230   1.308  10.325  0.1487 -0.4232  0.0909
  107OSM    H6F10989   2.290   1.271  10.410 -0.3199 -3.0824 -0.6512
  107OSM    H6G10990   2.264   1.406  10.285 -1.6088  0.3699  0.4271
  107OSM    C7F10991   2.246   1.191  10.229 -0.5031 -0.5865  0.4426
  107OSM    H7F10992   2.236   1.103  10.295  1.4059  0.1761  1.8749
  107OSM    H7G10993   2.355   1.193  10.211 -0.8426 -1.9718 -2.1678
  107OSM    C8F10994   2.166   1.193  10.102  0.3065 -0.8136 -0.4856
  107OSM    H8F10995   2.166   1.292  10.052 -1.0445 -0.7920 -0.4794
  107OSM    H8G10996   2.063   1.163  10.132  1.0351 -1.4886  1.5105
  107OSM    C9F10997   2.207   1.078  10.019  0.1235 -0.3505  0.1833
  107OSM    H9F10998   2.197   0.978  10.064 -1.7512 -0.1143  0.3586
  107OSM   C10F10999   2.260   1.096   9.894 -1.1381 -0.3217 -0.5468
  107OSM   H10F11000   2.282   1.011   9.828  1.9981 -0.2337  0.2485
  107OSM   C11F11001   2.265   1.228   9.811 -0.9865  0.9737 -0.4537
  107OSM   H11F11002   2.374   1.247   9.799 -0.3038 -2.3559 -0.3408
  107OSM   H11G11003   2.234   1.313   9.875 -0.6301  2.2422 -1.8980
  107OSM   C12F11004   2.183   1.222   9.689 -0.0782 -0.4674 -0.2437
  107OSM   H12F11005   2.075   1.242   9.701 -0.3483 -1.2268 -1.2930
  107OSM   H12G11006   2.192   1.127   9.631 -1.0043 -0.3716 -0.5476
  107OSM   C13F11007   2.232   1.341   9.597  1.1049  1.0707  0.0639
  107OSM   H13F11008   2.341   1.343   9.580  1.3321  1.2538  1.3919
  107OSM   H13G11009   2.198   1.436   9.644  0.1100  0.6444  0.2372
  107OSM   C14F11010   2.170   1.324   9.452  0.1534  1.2740 -0.3621
  107OSM   H14F11011   2.059   1.320   9.450  0.1792 -0.0404 -0.2648
  107OSM   H14G11012   2.218   1.230   9.417 -3.1982 -1.0619  0.7778
  107OSM   C15F11013   2.199   1.441   9.362  0.3450 -0.0122 -0.1440
  107OSM   H15F11014   2.307   1.443   9.338 -0.1251 -0.5849 -2.5700
  107OSM   H15G11015   2.165   1.537   9.407 -1.0479 -0.1669 -0.8270
  107OSM   C16F11016   2.133   1.430   9.229 -0.1251  0.0317  0.1039
  107OSM   H16F11017   2.153   1.523   9.173  1.0548 -0.6317 -0.6212
  107OSM   H16G11018   2.026   1.448   9.251 -0.1854  0.9139 -0.8220
  107OSM   C17F11019   2.171   1.306   9.151  0.5447 -0.4704 -0.8118
  107OSM   H17F11020   2.113   1.222   9.196 -0.3997  1.4759  1.9251
  107OSM   H17G11021   2.278   1.276   9.155  0.4217 -0.8008  1.0408
  107OSM   C18F11022   2.126   1.320   9.004  0.3764 -0.3388 -0.3120
  107OSM   H18F11023   2.017   1.339   8.998  0.3175  0.1298  1.6440
  107OSM   H18G11024   2.158   1.235   8.939 -1.7547 -0.9533 -0.6448
  107OSM   H18H11025   2.182   1.408   8.967 -1.9710  0.3780 -2.4033
  108OSM      N11026   5.072   1.989  10.683  0.1181  0.1301 -0.5259
  108OSM    C1511027   5.056   2.107  10.593  0.1927  0.0140  0.4399
  108OSM   H15A11028   5.019   2.075  10.496 -2.0788 -0.4674  1.4014
  108OSM   H15B11029   5.157   2.144  10.580 -0.3226  1.2834 -0.0925
  108OSM   H15C11030   4.994   2.188  10.628 -0.3264  0.2576 -0.9915
  108OSM    C1411031   4.973   1.885  10.650 -0.6024  0.1359  0.0665
  108OSM   H14A11032   4.878   1.918  10.689 -0.1664  1.6153 -0.0400
  108OSM   H14B11033   5.001   1.795  10.703 -0.0476 -0.0665 -0.5571
  108OSM   H14C11034   4.975   1.874  10.543 -0.8171 -0.3991  0.1156
  108OSM    C1311035   5.198   1.928  10.655 -0.1601  0.3879  0.1147
  108OSM   H13A11036   5.221   1.931  10.549  1.1234 -0.1201  0.3497
  108OSM   H13B11037   5.215   1.824  10.676 -1.1401 -0.2506 -2.0250
  108OSM   H13C11038   5.287   1.966  10.703  0.2794 -1.4078  0.8070
  108OSM    C1211039   5.066   2.026  10.833 -0.1810 -0.2229  0.4914
  108OSM   H12A11040   5.133   2.107  10.858  0.5971 -1.2391  1.8033
  108OSM   H12B11041   5.091   1.946  10.901  0.5841 -0.6349 -0.2694
  108OSM    C1111042   4.926   2.078  10.868 -0.3641 -0.3622  0.3517
  108OSM   H11A11043   4.881   2.139  10.787 -1.6581  0.0906  1.3736
  108OSM   H11B11044   4.937   2.149  10.953 -0.6220  1.5935 -1.1681
  108OSM      P11045   4.695   1.954  10.887 -0.0284  0.3601  0.0341
  108OSM    O1311046   4.649   1.830  10.945  0.4411  0.2581 -0.0985
  108OSM    O1411047   4.617   2.072  10.923  0.8673  0.1813  0.4566
  108OSM    O1111048   4.687   1.919  10.734 -0.2767  0.0143 -0.4277
  108OSM    O1211049   4.848   1.971  10.913 -0.3312  0.2638 -0.2628
  108OSM    C1S11050   4.663   2.011  10.636  0.6389  0.2452  0.1458
  108OSM    H1S11051   4.755   2.068  10.614  0.1686  0.5369 -1.1580
  108OSM    H1T11052   4.600   2.100  10.661 -1.8204 -0.7117 -2.1399
  108OSM     NF11053   4.622   2.062  10.401  0.2811  0.2568  0.5301
  108OSM    HNF11054   4.539   2.114  10.381 -1.3111 -2.4627 -0.6650
  108OSM    C2S11055   4.609   1.961  10.501  0.3805  0.0035 -0.0118
  108OSM    H2S11056   4.670   1.871  10.478 -0.1268 -1.0259  2.3166
  108OSM    C3S11057   4.468   1.900  10.514  0.1690 -0.1293 -0.1708
  108OSM    H3S11058   4.396   1.976  10.553 -1.1710 -1.3594 -0.1374
  108OSM     O311059   4.455   1.809  10.620  0.0184  0.1751 -0.8166
  108OSM    HO311060   4.525   1.835  10.680 -1.0244 -1.6128  1.3528
  108OSM    C4S11061   4.406   1.834  10.392  0.1308  0.0750  0.4134
  108OSM    H4S11062   4.468   1.760  10.339 -0.6321  0.3632 -0.9011
  108OSM    C5S11063   4.294   1.862  10.322  0.3480  0.5420 -0.6715
  108OSM    H5S11064   4.250   1.958  10.351  2.1002  0.4802  2.6497
  108OSM    C6S11065   4.244   1.791  10.203  0.3588  0.1501 -0.2131
  108OSM    H6S11066   4.134   1.779  10.205  0.3446  0.2311 -0.6060
  108OSM    H6T11067   4.291   1.690  10.195  2.1577  0.5687  3.2654
  108OSM    C7S11068   4.274   1.871  10.075  0.3928 -0.0119 -0.4959
  108OSM    H7S11069   4.383   1.890  10.082  0.0864  2.3353 -1.1179
  108OSM    H7T11070   4.235   1.975  10.070 -2.5834 -1.0363 -0.2562
  108OSM    C8S11071   4.240   1.797   9.939 -0.9343  0.4891  0.5100
  108OSM    H8S11072   4.132   1.824   9.930 -1.5174 -1.4477  1.2870
  108OSM    H8T11073   4.252   1.690   9.963 -0.8777 -0.2664 -2.4706
  108OSM    C9S11074   4.332   1.840   9.827  0.0171  0.1880  0.0631
  108OSM    H9S11075   4.439   1.831   9.857 -0.4088  1.0441  1.9700
  108OSM    H9T11076   4.309   1.945   9.799 -0.9754 -0.7309 -2.9332
  108OSM   C10S11077   4.295   1.758   9.702 -0.0550  0.4610 -0.6116
  108OSM   H10S11078   4.185   1.755   9.688 -0.3338  0.1944  1.4168
  108OSM   H10T11079   4.325   1.651   9.714  0.8296  0.6130 -1.3228
  108OSM   C11S11080   4.373   1.814   9.580  0.6520  0.0365  0.2789
  108OSM   H11S11081   4.473   1.850   9.612  0.3846 -0.5483  1.8509
  108OSM   H11T11082   4.313   1.894   9.531 -0.0922 -2.9260 -4.3334
  108OSM   C12S11083   4.390   1.704   9.476  0.5516 -0.6372  0.3792
  108OSM   H12S11084   4.410   1.757   9.380 -1.2838  1.8168  1.2549
  108OSM   H12T11085   4.298   1.643   9.462  0.5224 -0.9051  1.6549
  108OSM   C13S11086   4.520   1.628   9.490 -0.0394 -0.5731  0.9252
  108OSM   H13S11087   4.517   1.550   9.570 -2.4442 -1.6421 -0.0883
  108OSM   H13T11088   4.605   1.698   9.505 -1.2412  0.6914  2.1816
  108OSM   C14S11089   4.550   1.532   9.372  0.1872  0.5220  0.4037
  108OSM   H14S11090   4.561   1.599   9.284 -0.5915  1.0296  0.6789
  108OSM   H14T11091   4.483   1.446   9.351  1.5344 -0.8441  1.4625
  108OSM   C15S11092   4.686   1.463   9.382 -0.0343  0.0148 -0.1601
  108OSM   H15S11093   4.679   1.407   9.477 -1.7492 -2.0243 -1.3976
  108OSM   H15T11094   4.758   1.547   9.376 -0.1510  0.1903  0.7715
  108OSM   C16S11095   4.706   1.385   9.253  0.1806  1.0152 -0.4370
  108OSM   H16S11096   4.695   1.448   9.163 -1.5530 -1.1933 -1.8973
  108OSM   H16T11097   4.618   1.317   9.243  0.4863  0.4655  0.4766
  108OSM   C17S11098   4.839   1.314   9.255  0.2469 -0.3577 -0.8928
  108OSM   H17S11099   4.918   1.391   9.262  1.5198 -1.7597  1.4246
  108OSM   H17T11100   4.851   1.263   9.156 -3.8886 -2.4879 -0.5188
  108OSM   C18S11101   4.850   1.200   9.363 -0.1257 -0.8269  0.0845
  108OSM   H18S11102   4.863   1.242   9.465 -1.8031  0.2802 -0.1021
  108OSM   H18T11103   4.929   1.126   9.339 -0.5348 -2.0653  2.2967
  108OSM   H18U11104   4.749   1.153   9.368 -0.3594 -0.1957  3.3385
  108OSM    C1F11105   4.735   2.107  10.354  0.5233 -0.3104  0.2356
  108OSM     OF11106   4.836   2.050  10.391 -0.2276 -0.8486 -0.2607
  108OSM    C2F11107   4.729   2.228  10.265  0.2277  0.0089  0.5857
  108OSM    H2F11108   4.807   2.303  10.292  1.1746  0.0172 -1.8490
  108OSM    H2G11109   4.628   2.274  10.262 -2.0911 -4.5497 -0.0214
  108OSM    C3F11110   4.777   2.166  10.130 -0.0436 -0.1799  0.2497
  108OSM    H3F11111   4.875   2.114  10.129 -0.2359 -0.5520  0.3291
  108OSM    H3G11112   4.803   2.247  10.060  2.5203 -0.3305  0.9521
  108OSM    C4F11113   4.675   2.074  10.059 -0.1695  0.2832 -0.1484
  108OSM    H4F11114   4.583   2.136  10.072  0.0910  1.2830 -2.4240
  108OSM    H4G11115   4.667   1.982  10.120  4.1583  0.0037  0.3086
  108OSM    C5F11116   4.709   2.048   9.910  0.7939 -0.3098 -0.4991
  108OSM    H5F11117   4.744   2.147   9.873  0.0798  0.0973 -0.1198
  108OSM    H5G11118   4.625   2.020   9.843  1.5038 -2.3572 -0.6044
  108OSM    C6F11119   4.809   1.938   9.872 -0.4607 -0.1045  0.3368
  108OSM    H6F11120   4.769   1.838   9.897  0.6689 -0.3397  1.2929
  108OSM    H6G11121   4.904   1.967   9.923  0.3248 -0.7332 -0.7142
  108OSM    C7F11122   4.845   1.941   9.719 -0.3429  0.2992 -0.4501
  108OSM    H7F11123   4.886   2.042   9.692  0.9671 -0.0405  0.1866
  108OSM    H7G11124   4.747   1.945   9.668 -1.6918  1.5558  2.0671
  108OSM    C8F11125   4.939   1.827   9.669  0.9429 -0.3033 -0.4493
  108OSM    H8F11126   5.029   1.820   9.733  0.1507 -1.3922  0.5974
  108OSM    H8G11127   4.972   1.854   9.566  0.1605 -1.2263 -0.9560
  108OSM    C9F11128   4.880   1.683   9.669 -0.3671  0.0189  0.2913
  108OSM    H9F11129   4.773   1.680   9.697 -0.5144 -1.2774 -0.3703
  108OSM   C10F11130   4.937   1.559   9.643  0.2601 -0.7710  0.1850
  108OSM   H10F11131   4.875   1.468   9.639 -2.2019  0.8473 -0.5429
  108OSM   C11F11132   5.083   1.540   9.607  0.7587  0.5338 -0.3704
  108OSM   H11F11133   5.126   1.439   9.622  0.9901  0.7644  0.5932
  108OSM   H11G11134   5.139   1.616   9.667 -2.6077  2.4050  0.6426
  108OSM   C12F11135   5.091   1.574   9.460  0.1996  0.1279  0.1539
  108OSM   H12F11136   5.045   1.666   9.419 -1.1378  0.3690  2.0664
  108OSM   H12G11137   5.047   1.491   9.401 -0.1874  1.3947 -1.3989
  108OSM   C13F11138   5.233   1.587   9.410 -0.6108  0.1217 -0.7539
  108OSM   H13F11139   5.296   1.506   9.455 -0.1929 -1.2700 -3.6395
  108OSM   H13G11140   5.276   1.685   9.441  1.7605  0.0655 -3.4383
  108OSM   C14F11141   5.245   1.592   9.259  0.2205  0.1166  0.4383
  108OSM   H14F11142   5.176   1.669   9.218  2.2793  0.8763 -1.8843
  108OSM   H14G11143   5.211   1.496   9.216 -0.0075  0.2995  0.2094
  108OSM   C15F11144   5.382   1.616   9.206 -0.1928 -1.1334 -0.8319
  108OSM   H15F11145   5.456   1.560   9.267 -0.6929  0.2536  1.1225
  108OSM   H15G11146   5.405   1.722   9.226 -1.1064 -1.1173  0.1738
  108OSM   C16F11147   5.408   1.581   9.057 -0.0344 -0.0654 -0.8524
  108OSM   H16F11148   5.349   1.487   9.046 -2.0382  0.8295  1.3120
  108OSM   H16G11149   5.516   1.557   9.044  0.7574  0.3994  3.3012
  108OSM   C17F11150   5.363   1.692   8.963 -0.5013  0.6510  0.1480
  108OSM   H17F11151   5.413   1.787   8.991 -3.3335  1.8557  1.4898
  108OSM   H17G11152   5.253   1.706   8.960 -0.4527  1.7573  1.9251
  108OSM   C18F11153   5.404   1.665   8.820  0.4042  0.3697  0.1500
  108OSM   H18F11154   5.369   1.565   8.785  1.4801  0.6751 -1.9821
  108OSM   H18G11155   5.515   1.661   8.814  0.4176 -3.1958  0.4635
  108OSM   H18H11156   5.364   1.739   8.748 -1.4891 -1.5574 -0.9202
  109OSM      N11157   2.463   6.492  11.252 -0.1228 -0.5286 -0.1234
  109OSM    C1511158   2.507   6.638  11.242  0.0359 -0.3028 -0.2864
  109OSM   H15A11159   2.608   6.635  11.204 -0.1196  2.2731 -1.0847
  109OSM   H15B11160   2.506   6.698  11.332 -1.3003 -1.0110  0.2182
  109OSM   H15C11161   2.448   6.686  11.165  0.3635  1.9777  0.8023
  109OSM    C1411162   2.538   6.421  11.366  0.5943  0.5723 -0.2586
  109OSM   H14A11163   2.645   6.414  11.355  0.7977 -1.2245  1.9388
  109OSM   H14B11164   2.501   6.319  11.372  0.8683  0.4429 -0.6743
  109OSM   H14C11165   2.520   6.468  11.462 -1.9365  2.5647 -1.5884
  109OSM    C1311166   2.320   6.510  11.283  0.2642  0.7247 -0.1541
  109OSM   H13A11167   2.270   6.573  11.210 -1.4392 -0.2873  0.0954
  109OSM   H13B11168   2.310   6.550  11.383  2.0504 -0.7440  0.6734
  109OSM   H13C11169   2.276   6.412  11.293  1.3020  0.0694 -1.6171
  109OSM    C1211170   2.472   6.411  11.130 -0.3517 -0.9456  0.3528
  109OSM   H12A11171   2.404   6.454  11.057  0.1454 -0.3661  0.2218
  109OSM   H12B11172   2.440   6.310  11.150  0.5138 -0.9764  1.6910
  109OSM    C1111173   2.606   6.414  11.051  0.5994  0.2375 -0.3909
  109OSM   H11A11174   2.640   6.516  11.024  3.1930 -0.1730  1.0253
  109OSM   H11B11175   2.594   6.361  10.954 -1.5131 -2.7845  1.3597
  109OSM      P11176   2.861   6.366  11.083 -0.0770  0.4213 -0.1569
  109OSM    O1311177   2.909   6.500  11.111  0.8859  0.0438  0.0648
  109OSM    O1411178   2.922   6.256  11.163  0.4347  0.0610  0.6799
  109OSM    O1111179   2.860   6.332  10.933 -0.1166 -0.5302 -0.3343
  109OSM    O1211180   2.709   6.355  11.121 -0.7449 -0.0793  0.3061
  109OSM    C1S11181   2.867   6.443  10.840  0.1149  0.6367  0.4441
  109OSM    H1S11182   2.961   6.499  10.857  0.3827 -0.4041  2.7136
  109OSM    H1T11183   2.775   6.505  10.847  0.1560  0.9276 -1.1692
  109OSM     NF11184   2.872   6.510  10.609 -0.2234 -0.6743 -0.2011
  109OSM    HNF11185   2.803   6.532  10.540  0.1210 -2.8777 -1.3298
  109OSM    C2S11186   2.861   6.393  10.687 -0.6783  0.0228  0.0870
  109OSM    H2S11187   2.955   6.334  10.676  0.2763  0.9723  2.4379
  109OSM    C3S11188   2.723   6.330  10.653 -0.8291  0.8467  0.0907
  109OSM    H3S11189   2.649   6.411  10.673 -2.7493 -0.9778  0.6730
  109OSM     O311190   2.686   6.222  10.740  0.2574  0.2612  0.2018
  109OSM    HO311191   2.737   6.242  10.819 -1.5185  1.5269  1.0979
  109OSM    C4S11192   2.733   6.283  10.503 -0.3979  0.1742 -0.3394
  109OSM    H4S11193   2.792   6.193  10.480 -1.0328 -0.0575 -1.1558
  109OSM    C5S11194   2.669   6.342  10.402  0.4889 -0.6298  0.3963
  109OSM    H5S11195   2.592   6.418  10.418  0.9306 -0.3043  1.0278
  109OSM    C6S11196   2.679   6.291  10.259  0.3133 -0.1320 -0.4364
  109OSM    H6S11197   2.599   6.226  10.219 -1.0263  0.7823  0.6935
  109OSM    H6T11198   2.770   6.230  10.242  0.0609 -0.5891 -0.1535
  109OSM    C7S11199   2.686   6.409  10.159 -0.0650 -0.4077 -0.1930
  109OSM    H7S11200   2.756   6.491  10.189 -3.4694  2.0368  1.7665
  109OSM    H7T11201   2.595   6.472  10.158  0.8618  0.9829  0.0928
  109OSM    C8S11202   2.726   6.375  10.019  0.1653 -0.6457 -0.1097
  109OSM    H8S11203   2.670   6.287   9.980  1.1875 -0.9368 -0.9964
  109OSM    H8T11204   2.830   6.337  10.009  0.4072  0.0154 -0.1598
  109OSM    C9S11205   2.702   6.481   9.912 -0.1937 -0.7121  0.4644
  109OSM    H9S11206   2.779   6.560   9.902 -2.1200  0.9095 -3.9467
  109OSM    H9T11207   2.604   6.533   9.922  1.0474  1.7791  0.5525
  109OSM   C10S11208   2.695   6.422   9.771 -0.5946 -0.5153  0.2942
  109OSM   H10S11209   2.683   6.496   9.689 -1.3940 -1.5264 -0.5236
  109OSM   H10T11210   2.610   6.351   9.761 -0.2713 -0.7661 -0.7509
  109OSM   C11S11211   2.817   6.346   9.727  0.4106  0.3432  0.2446
  109OSM   H11S11212   2.828   6.262   9.798 -0.9503 -1.7027 -1.8232
  109OSM   H11T11213   2.905   6.414   9.730  2.2658 -1.8053 -1.2146
  109OSM   C12S11214   2.809   6.279   9.593  0.4707  0.4834  0.3971
  109OSM   H12S11215   2.802   6.365   9.523 -0.0895  0.0194 -0.1255
  109OSM   H12T11216   2.718   6.215   9.588  1.6331 -1.1372 -1.6365
  109OSM   C13S11217   2.927   6.188   9.557  0.2477 -0.5016  0.2998
  109OSM   H13S11218   2.946   6.121   9.643 -1.7699  0.1816  1.3511
  109OSM   H13T11219   3.019   6.250   9.557  0.5689 -0.9206  1.9447
  109OSM   C14S11220   2.906   6.108   9.426 -0.0131  0.8006  0.0967
  109OSM   H14S11221   2.996   6.045   9.413 -0.7256  0.0491 -1.6359
  109OSM   H14T11222   2.903   6.173   9.336 -0.9809  0.7863  0.1005
  109OSM   C15S11223   2.784   6.014   9.437  0.1283  0.7176 -0.1807
  109OSM   H15S11224   2.688   6.066   9.417  0.3322 -0.0450 -3.8074
  109OSM   H15T11225   2.776   5.970   9.539 -2.9418  0.1451 -0.5760
  109OSM   C16S11226   2.792   5.892   9.349  0.7678  0.0293  0.0086
  109OSM   H16S11227   2.714   5.823   9.387 -2.4022  1.6931 -2.9489
  109OSM   H16T11228   2.889   5.841   9.369  0.6205 -0.2806 -0.0569
  109OSM   C17S11229   2.774   5.933   9.203 -0.0916  0.2533 -0.3160
  109OSM   H17S11230   2.846   6.014   9.178  1.0081 -0.3787  0.7026
  109OSM   H17T11231   2.673   5.978   9.191 -0.6578 -1.0159 -0.4343
  109OSM   C18S11232   2.792   5.812   9.110  0.2016 -0.1700  0.2763
  109OSM   H18S11233   2.709   5.740   9.127  0.5156 -0.3533  1.0845
  109OSM   H18T11234   2.886   5.766   9.148  0.3319  0.3944  0.6370
  109OSM   H18U11235   2.791   5.844   9.004  3.1050  1.4540  0.6478
  109OSM    C1F11236   2.986   6.579  10.607 -0.3534  0.3947 -0.2891
  109OSM     OF11237   3.089   6.547  10.666 -0.8235  0.8421 -0.4037
  109OSM    C2F11238   2.983   6.707  10.524  0.0647  0.4732 -0.1803
  109OSM    H2F11239   3.017   6.787  10.594 -3.1633  1.7286  0.1334
  109OSM    H2G11240   2.880   6.731  10.492  0.4304  1.2938 -0.8041
  109OSM    C3F11241   3.081   6.711  10.407  0.0752 -0.2365 -0.0075
  109OSM    H3F11242   3.180   6.675  10.443 -1.3204 -1.1359  3.3303
  109OSM    H3G11243   3.082   6.812  10.359  0.9420  0.2817  1.0640
  109OSM    C4F11244   3.043   6.610  10.292 -0.3948 -0.5846  0.1386
  109OSM    H4F11245   2.948   6.634  10.241 -0.8856 -0.3886  1.1136
  109OSM    H4G11246   3.036   6.509  10.337  1.2685  0.3636  2.8004
  109OSM    C5F11247   3.147   6.599  10.179  0.3173  0.1015 -0.1745
  109OSM    H5F11248   3.230   6.534  10.215  0.5030  1.3573  1.8464
  109OSM    H5G11249   3.198   6.695  10.158  0.8728  0.4765  2.5154
  109OSM    C6F11250   3.090   6.537  10.052 -0.0643  0.1899 -0.0121
  109OSM    H6F11251   3.021   6.608  10.001 -2.1396 -2.3702 -1.0067
  109OSM    H6G11252   3.032   6.443  10.070 -1.0505  0.7249 -0.2990
  109OSM    C7F11253   3.211   6.507   9.959  0.9684  0.4053  0.4516
  109OSM    H7F11254   3.279   6.436  10.010 -0.8947 -0.4513  1.8526
  109OSM    H7G11255   3.262   6.605   9.944 -1.1223  1.4643 -0.2724
  109OSM    C8F11256   3.163   6.446   9.828  0.2955 -1.0856  0.4371
  109OSM    H8F11257   3.092   6.510   9.773  2.5504  0.9865 -0.2047
  109OSM    H8G11258   3.105   6.358   9.863  0.5958 -1.2111  0.6270
  109OSM    C9F11259   3.273   6.401   9.738  0.6263 -0.1143  0.9952
  109OSM    H9F11260   3.360   6.359   9.790  1.5583  2.2681  1.4858
  109OSM   C10F11261   3.300   6.439   9.605  0.1525  0.1352 -0.4829
  109OSM   H10F11262   3.392   6.403   9.556 -1.3683  1.0173 -4.3499
  109OSM   C11F11263   3.217   6.536   9.519 -0.2589  0.2095  0.0645
  109OSM   H11F11264   3.276   6.630   9.517 -0.3759  0.2756 -2.2746
  109OSM   H11G11265   3.118   6.560   9.566 -2.0106 -1.0931 -2.6977
  109OSM   C12F11266   3.179   6.483   9.379  0.1798  0.2207  0.4637
  109OSM   H12F11267   3.114   6.396   9.401 -1.1340  1.5689  2.2760
  109OSM   H12G11268   3.267   6.472   9.314 -0.3378 -2.0670  0.0920
  109OSM   C13F11269   3.084   6.593   9.319  0.1670  0.6217  0.0124
  109OSM   H13F11270   3.114   6.699   9.330 -2.5433  1.4120  0.4625
  109OSM   H13G11271   2.983   6.587   9.365  0.2159 -1.1392 -0.0192
  109OSM   C14F11272   3.058   6.556   9.172  0.5089 -0.7050 -0.6771
  109OSM   H14F11273   3.147   6.588   9.113  2.6934  2.1442  3.6081
  109OSM   H14G11274   2.975   6.619   9.133 -1.4555 -2.0559  1.1532
  109OSM   C15F11275   3.041   6.410   9.151 -0.5562  0.0199  0.1692
  109OSM   H15F11276   2.964   6.356   9.211 -0.5931 -1.8664 -1.4449
  109OSM   H15G11277   3.132   6.347   9.160  0.1367  0.8970 -0.5634
  109OSM   C16F11278   3.000   6.387   9.002 -0.6434  0.7055 -0.7219
  109OSM   H16F11279   3.078   6.435   8.941 -2.4841  2.2471 -1.9685
  109OSM   H16G11280   2.912   6.454   8.992  0.6325  2.7732  1.0004
  109OSM   C17F11281   2.984   6.240   8.965  0.0247 -0.2241  0.0059
  109OSM   H17F11282   2.927   6.188   9.045 -2.0728 -0.8934 -1.7832
  109OSM   H17G11283   3.087   6.200   8.969  0.6230  1.3370  0.8188
  109OSM   C18F11284   2.920   6.230   8.828  0.2652 -0.1438  0.2098
  109OSM   H18F11285   2.814   6.262   8.825  0.7750  2.0649  2.1462
  109OSM   H18G11286   2.912   6.124   8.799 -3.5630  0.3158 -1.0013
  109OSM   H18H11287   2.977   6.279   8.746 -1.4255  1.1147 -0.2669
  110OSM      N11288   4.252   5.391  11.006 -1.0709  0.5011 -0.6352
  110OSM    C1511289   4.208   5.330  11.137  0.5158 -0.2423  0.1247
  110OSM   H15A11290   4.208   5.222  11.132  2.0669 -0.3069  0.8484
  110OSM   H15B11291   4.107   5.361  11.157  0.2944 -0.6567 -0.3177
  110OSM   H15C11292   4.264   5.358  11.225  0.9400 -0.0954 -0.1901
  110OSM    C1411293   4.255   5.541  11.021 -0.0765  0.9744  0.2512
  110OSM   H14A11294   4.153   5.576  11.027 -0.1269  1.2508 -1.6144
  110OSM   H14B11295   4.288   5.593  10.932  1.2193  2.7203  1.6654
  110OSM   H14C11296   4.315   5.575  11.104  2.2234 -1.2887 -0.3594
  110OSM    C1311297   4.394   5.351  10.983  0.2836 -0.0268  0.6024
  110OSM   H13A11298   4.411   5.248  11.007  0.8001  0.3712  2.0703
  110OSM   H13B11299   4.462   5.396  11.054 -1.1414 -0.1699  2.0976
  110OSM   H13C11300   4.416   5.362  10.878 -1.7062  0.0325  0.1612
  110OSM    C1211301   4.160   5.343  10.898 -0.7899  0.8381 -0.7271
  110OSM   H12A11302   4.162   5.235  10.893  0.7280  0.9148 -2.5124
  110OSM   H12B11303   4.208   5.380  10.809 -0.0788 -0.1866 -0.7783
  110OSM    C1111304   4.009   5.389  10.888 -0.2721  0.0710 -0.2242
  110OSM   H11A11305   3.952   5.350  10.975  0.8040 -0.0096  0.4627
  110OSM   H11B11306   3.966   5.347  10.795 -0.3081 -0.6373  0.1023
  110OSM      P11307   3.884   5.612  10.953  0.2378  0.1812  0.0023
  110OSM    O1311308   3.846   5.543  11.082 -0.4099  1.0483  0.0930
  110OSM    O1411309   3.936   5.751  10.970  1.0990 -0.3136  0.7644
  110OSM    O1111310   3.759   5.615  10.858 -0.0896 -0.2608  0.3365
  110OSM    O1211311   3.987   5.526  10.876 -0.3412  0.3249 -0.1274
  110OSM    C1S11312   3.778   5.668  10.722  0.5840  0.1985  0.4032
  110OSM    H1S11313   3.877   5.714  10.704  2.1783 -2.6299  1.3562
  110OSM    H1T11314   3.707   5.751  10.702  0.5804  0.3668  1.1175
  110OSM     NF11315   3.811   5.620  10.487  0.0179  0.4775  0.4048
  110OSM    HNF11316   3.747   5.652  10.417  0.7668 -1.1961 -1.1344
  110OSM    C2S11317   3.753   5.566  10.608  0.1698 -0.3144 -0.5853
  110OSM    H2S11318   3.803   5.469  10.629  2.2159  0.4166 -1.8439
  110OSM    C3S11319   3.598   5.525  10.605  0.1977 -0.8566 -0.0021
  110OSM    H3S11320   3.547   5.622  10.583  0.8513  0.1599  2.6057
  110OSM     O311321   3.548   5.483  10.734  0.4408  0.7863 -0.1977
  110OSM    HO311322   3.624   5.483  10.793 -0.7154 -0.7147  1.3920
  110OSM    C4S11323   3.573   5.427  10.491  0.2399  0.0024  0.0012
  110OSM    H4S11324   3.574   5.477  10.393 -1.9020  0.8144  0.3463
  110OSM    C5S11325   3.555   5.290  10.485 -0.7574  0.6396 -0.1245
  110OSM    H5S11326   3.561   5.233  10.578 -1.1075  2.1687  0.8686
  110OSM    C6S11327   3.548   5.207  10.359  0.1635  0.3593  0.5710
  110OSM    H6S11328   3.467   5.135  10.381 -0.2710  0.8911  0.7358
  110OSM    H6T11329   3.644   5.152  10.356  0.8546  1.5331  0.4761
  110OSM    C7S11330   3.528   5.274  10.222  0.4376  0.5680 -0.1678
  110OSM    H7S11331   3.600   5.359  10.220  0.7346  0.2973 -1.3724
  110OSM    H7T11332   3.428   5.322  10.214 -1.0964 -1.5846  3.5186
  110OSM    C8S11333   3.547   5.187  10.097  0.7021 -0.0117  0.5057
  110OSM    H8S11334   3.477   5.101  10.102  2.9461 -1.9536  0.6838
  110OSM    H8T11335   3.647   5.138  10.096  1.2517  1.0767 -0.3528
  110OSM    C9S11336   3.518   5.265   9.968 -0.0026 -0.7656 -0.2450
  110OSM    H9S11337   3.598   5.254   9.891  0.1735  1.0140 -0.3521
  110OSM    H9T11338   3.526   5.375   9.983 -0.4695 -0.8749  0.9308
  110OSM   C10S11339   3.388   5.216   9.900 -0.7353  0.5681 -0.5013
  110OSM   H10S11340   3.305   5.245   9.968 -0.3896 -0.1679  0.2628
  110OSM   H10T11341   3.391   5.105   9.895 -0.9579  0.4109  1.7026
  110OSM   C11S11342   3.369   5.279   9.768 -0.0647 -0.2781 -0.8060
  110OSM   H11S11343   3.442   5.260   9.685 -0.0503  2.5244 -1.5237
  110OSM   H11T11344   3.396   5.386   9.780 -0.2655 -0.2137 -0.9316
  110OSM   C12S11345   3.232   5.260   9.717 -0.0777 -0.2500  0.0936
  110OSM   H12S11346   3.162   5.313   9.786  0.8136  1.0619  0.0226
  110OSM   H12T11347   3.210   5.152   9.709 -0.3004 -0.0770 -2.3561
  110OSM   C13S11348   3.197   5.324   9.578  0.2178  0.6344  0.1063
  110OSM   H13S11349   3.261   5.271   9.504 -0.2912  2.1027 -1.4579
  110OSM   H13T11350   3.230   5.430   9.574  1.4395  0.2785  0.2243
  110OSM   C14S11351   3.043   5.308   9.543  0.1681 -0.3060  0.4999
  110OSM   H14S11352   2.987   5.389   9.594 -0.7602  0.4892 -1.6727
  110OSM   H14T11353   3.004   5.207   9.568 -1.4325 -0.6152 -2.7507
  110OSM   C15S11354   3.034   5.315   9.384  0.1985  0.0850  0.7482
  110OSM   H15S11355   2.939   5.283   9.337  1.0624 -2.3142  0.5001
  110OSM   H15T11356   3.112   5.251   9.337 -2.2245 -3.1882  0.8702
  110OSM   C16S11357   3.054   5.461   9.334 -0.0598  0.3342  0.0105
  110OSM   H16S11358   3.163   5.479   9.334  0.2171 -0.8725 -2.4360
  110OSM   H16T11359   2.993   5.535   9.389  2.1583  1.0086  1.6721
  110OSM   C17S11360   3.003   5.476   9.191 -0.2253 -0.4489 -0.0867
  110OSM   H17S11361   3.004   5.585   9.170 -2.0993 -0.5277 -0.7888
  110OSM   H17T11362   2.896   5.447   9.187 -0.6449  1.0831 -0.6270
  110OSM   C18S11363   3.075   5.405   9.078 -0.0045  0.6632  0.7305
  110OSM   H18S11364   3.007   5.412   8.990  0.2320  0.0267  0.4899
  110OSM   H18T11365   3.079   5.295   9.095  0.6820  0.4319 -0.7110
  110OSM   H18U11366   3.176   5.449   9.067  0.4590  0.1309  2.6219
  110OSM    C1F11367   3.947   5.641  10.466  0.0082  0.3336 -0.9451
  110OSM     OF11368   4.023   5.582  10.540  0.0953  0.5438 -0.0138
  110OSM    C2F11369   3.992   5.728  10.353 -0.3558 -0.4094 -0.9086
  110OSM    H2F11370   3.926   5.818  10.355 -0.9577 -0.8146  1.5109
  110OSM    H2G11371   3.966   5.671  10.262  0.3417  0.6690 -1.8007
  110OSM    C3F11372   4.141   5.772  10.366 -0.0842  0.8051 -0.2969
  110OSM    H3F11373   4.199   5.679  10.350 -0.7048  0.5243 -1.0100
  110OSM    H3G11374   4.171   5.804  10.468 -1.0339 -0.0690  0.2795
  110OSM    C4F11375   4.189   5.885  10.265 -0.0976  0.7764 -0.6274
  110OSM    H4F11376   4.297   5.908  10.276 -0.0685  0.3268  0.0580
  110OSM    H4G11377   4.132   5.981  10.271 -1.2458  0.0028  2.4217
  110OSM    C5F11378   4.175   5.837  10.112 -0.0038 -0.3905  0.0667
  110OSM    H5F11379   4.199   5.929  10.055  3.6323 -1.6500 -0.6781
  110OSM    H5G11380   4.071   5.808  10.085 -0.0401  0.3726 -0.6387
  110OSM    C6F11381   4.259   5.716  10.074  0.2305 -0.1578 -0.0954
  110OSM    H6F11382   4.258   5.643  10.158  0.5475 -0.0216  0.0285
  110OSM    H6G11383   4.363   5.757  10.074 -0.6700  2.2854 -0.2891
  110OSM    C7F11384   4.227   5.652   9.938  0.6222 -0.0032 -0.3691
  110OSM    H7F11385   4.143   5.580   9.952  0.4207 -0.3299 -2.7928
  110OSM    H7G11386   4.310   5.584   9.910 -1.6406 -3.0867 -0.2139
  110OSM    C8F11387   4.176   5.745   9.822 -0.2546 -0.3106 -0.5336
  110OSM    H8F11388   4.247   5.828   9.801  1.2412 -1.7646 -1.4830
  110OSM    H8G11389   4.078   5.789   9.850 -0.3697  0.7243 -2.4137
  110OSM    C9F11390   4.164   5.669   9.698  0.2262  0.9497 -0.9226
  110OSM    H9F11391   4.251   5.608   9.670 -0.2233  0.4735 -1.3247
  110OSM   C10F11392   4.061   5.664   9.613  0.7101 -0.3716  0.5117
  110OSM   H10F11393   4.072   5.601   9.524 -1.5081  0.5324 -0.4818
  110OSM   C11F11394   3.926   5.738   9.615  0.2697 -0.1769  0.7929
  110OSM   H11F11395   3.899   5.770   9.718 -1.9365  0.7047 -0.0142
  110OSM   H11G11396   3.844   5.677   9.573 -0.7484  2.0367 -0.6545
  110OSM   C12F11397   3.943   5.868   9.531 -0.6784 -0.0720  0.3574
  110OSM   H12F11398   4.015   5.949   9.553 -0.6575  1.2383 -3.7271
  110OSM   H12G11399   3.846   5.921   9.519  0.6691  2.0607 -2.4769
  110OSM   C13F11400   3.976   5.843   9.374 -0.0678  0.0407 -0.4939
  110OSM   H13F11401   4.078   5.805   9.356 -0.2748 -1.8881  1.8573
  110OSM   H13G11402   3.959   5.939   9.321  0.2710 -0.4097 -1.4236
  110OSM   C14F11403   3.875   5.749   9.304  0.6900  0.6966  0.8092
  110OSM   H14F11404   3.772   5.771   9.341  0.0238 -2.0068  0.7893
  110OSM   H14G11405   3.894   5.644   9.333 -1.2533  0.1540  0.2765
  110OSM   C15F11406   3.872   5.758   9.144 -0.4142 -0.2036  0.0818
  110OSM   H15F11407   3.820   5.663   9.118 -0.3488 -0.0255 -0.7458
  110OSM   H15G11408   3.979   5.748   9.116 -0.9111 -0.9587 -1.7346
  110OSM   C16F11409   3.816   5.884   9.094 -0.1269  0.1351 -0.6512
  110OSM   H16F11410   3.899   5.957   9.097  0.0513 -0.1194  1.5526
  110OSM   H16G11411   3.744   5.927   9.167  1.2077  1.5845 -0.1356
  110OSM   C17F11412   3.761   5.880   8.955  0.1999 -0.3741  0.1631
  110OSM   H17F11413   3.687   5.799   8.942 -0.6730  0.3506  0.4719
  110OSM   H17G11414   3.855   5.863   8.898  0.1553  0.9337 -0.3406
  110OSM   C18F11415   3.705   6.009   8.892  0.0370  0.5617 -0.4040
  110OSM   H18F11416   3.760   6.095   8.934  0.6706 -0.7916  1.6991
  110OSM   H18G11417   3.598   6.023   8.917 -0.6406 -0.9770 -2.1357
  110OSM   H18H11418   3.716   6.019   8.782  0.6105 -1.8614 -0.6268
  111OSM      N11419   6.598   3.629  10.712 -0.2125  0.2556  0.4715
  111OSM    C1511420   6.692   3.677  10.824 -0.3436  0.2772  0.1778
  111OSM   H15A11421   6.657   3.777  10.843  1.3551  1.0412 -0.4653
  111OSM   H15B11422   6.795   3.676  10.793  0.2803 -1.2120  2.1151
  111OSM   H15C11423   6.689   3.617  10.914 -3.3876  0.9985  0.6546
  111OSM    C1411424   6.609   3.734  10.602  0.0062 -0.2304 -0.0945
  111OSM   H14A11425   6.568   3.684  10.515  1.8532 -2.6620  0.3073
  111OSM   H14B11426   6.710   3.769  10.588 -1.2271  2.4457 -3.7910
  111OSM   H14C11427   6.551   3.820  10.630  1.5722  0.5691  0.7911
  111OSM    C1311428   6.657   3.497  10.648 -0.9364 -0.1313 -0.5934
  111OSM   H13A11429   6.606   3.464  10.559 -0.1490 -1.1484 -0.6760
  111OSM   H13B11430   6.654   3.417  10.721 -2.8699  1.3978  1.1392
  111OSM   H13C11431   6.760   3.509  10.620 -0.4996  1.5733  1.4194
  111OSM    C1211432   6.457   3.599  10.756 -0.7176  0.1330 -0.0920
  111OSM   H12A11433   6.426   3.685  10.813 -1.2849  0.0157 -0.2242
  111OSM   H12B11434   6.464   3.521  10.830  1.2127  2.8609  2.9147
  111OSM    C1111435   6.352   3.560  10.653  0.0893 -0.8840  0.4507
  111OSM   H11A11436   6.277   3.502  10.711  0.5407  0.1385  2.1185
  111OSM   H11B11437   6.389   3.494  10.572  0.3115 -1.6932  1.2025
  111OSM      P11438   6.191   3.768  10.672  0.4279  0.5123 -0.5932
  111OSM    O1311439   6.223   3.772  10.815 -0.2742 -0.1731  0.2554
  111OSM    O1411440   6.200   3.900  10.610  0.6592 -0.2282  0.0820
  111OSM    O1111441   6.045   3.709  10.651 -0.3064  0.4660 -0.0487
  111OSM    O1211442   6.291   3.673  10.596 -0.1573  0.1887 -0.7129
  111OSM    C1S11443   5.996   3.679  10.520  0.0250 -0.2377  0.3965
  111OSM    H1S11444   6.047   3.738  10.440 -1.1851  0.4684  0.1242
  111OSM    H1T11445   5.887   3.702  10.519  0.3322  1.4141 -0.8191
  111OSM     NF11446   5.992   3.510  10.337 -0.2784 -0.2864  1.0958
  111OSM    HNF11447   5.912   3.457  10.310  0.0951  0.2402 -1.2921
  111OSM    C2S11448   6.019   3.530  10.481 -0.1186  0.4255  0.6800
  111OSM    H2S11449   6.127   3.511  10.495  0.2396  1.6092 -0.2834
  111OSM    C3S11450   5.936   3.434  10.573 -0.5128  0.6598 -0.3714
  111OSM    H3S11451   5.831   3.438  10.537 -0.4711 -1.1552 -0.8129
  111OSM     O311452   5.938   3.469  10.714 -0.2659 -0.0484  0.3834
  111OSM    HO311453   5.950   3.564  10.715  0.6188 -0.1439  1.9886
  111OSM    C4S11454   5.985   3.294  10.548  0.2006 -0.2111  0.1147
  111OSM    H4S11455   6.091   3.270  10.566  0.7048  1.5695 -0.2624
  111OSM    C5S11456   5.909   3.199  10.491  0.0378 -0.6486  0.2703
  111OSM    H5S11457   5.806   3.222  10.461 -0.3048 -0.8654  1.2566
  111OSM    C6S11458   5.961   3.059  10.466  0.4671  0.7669  0.0681
  111OSM    H6S11459   5.960   3.014  10.568 -1.7637 -0.2121 -0.3448
  111OSM    H6T11460   6.067   3.044  10.436  0.0447  3.2832 -3.2891
  111OSM    C7S11461   5.886   2.967  10.369 -0.5748 -0.2080 -0.0305
  111OSM    H7S11462   5.778   2.956  10.392 -1.0774  2.0018 -1.0663
  111OSM    H7T11463   5.930   2.868  10.394  1.5436  0.7920  0.4313
  111OSM    C8S11464   5.908   2.992  10.215 -0.1116 -0.1973  0.0847
  111OSM    H8S11465   5.867   3.091  10.187  0.1690 -1.0210 -3.8706
  111OSM    H8T11466   5.853   2.913  10.159  0.6797  0.1454 -1.2240
  111OSM    C9S11467   6.058   2.995  10.168 -0.5111  0.1326  0.2345
  111OSM    H9S11468   6.108   2.912  10.222  0.4941  2.1707  2.6270
  111OSM    H9T11469   6.107   3.090  10.196  2.1161 -0.5623 -1.5557
  111OSM   C10S11470   6.074   2.998  10.008  0.1345  0.0367 -0.6282
  111OSM   H10S11471   6.057   2.896   9.969  0.9972 -1.0140  1.5809
  111OSM   H10T11472   6.184   2.996   9.991  0.1213  0.7282 -0.8330
  111OSM   C11S11473   5.995   3.104   9.928  0.5404  0.0300  0.3454
  111OSM   H11S11474   6.017   3.201   9.979 -1.3440  0.1582  0.9848
  111OSM   H11T11475   5.887   3.080   9.921  0.9042 -1.9545  0.9958
  111OSM   C12S11476   6.045   3.115   9.783 -0.7367 -0.2323  0.2154
  111OSM   H12S11477   6.077   3.015   9.747  0.2164  0.9966 -2.6671
  111OSM   H12T11478   6.133   3.182   9.777 -0.3857 -0.7551 -0.6700
  111OSM   C13S11479   5.941   3.179   9.692  0.2514  0.4538 -0.1983
  111OSM   H13S11480   5.941   3.288   9.713  0.3723  0.7118 -1.4545
  111OSM   H13T11481   5.838   3.143   9.711  0.6871 -0.0491  1.3161
  111OSM   C14S11482   5.955   3.154   9.536  0.9395 -0.4517 -0.6581
  111OSM   H14S11483   6.024   3.230   9.495  0.4747  1.2605  1.5652
  111OSM   H14T11484   5.857   3.186   9.496  2.1077  1.2908 -2.3060
  111OSM   C15S11485   5.988   3.014   9.493  0.5241  0.3856 -0.7616
  111OSM   H15S11486   5.910   2.945   9.531  0.5215 -0.3734 -2.0773
  111OSM   H15T11487   6.086   2.984   9.536  0.9416  1.5690 -0.8450
  111OSM   C16S11488   5.974   2.990   9.337 -0.4501 -0.5180 -0.0904
  111OSM   H16S11489   6.010   2.885   9.323 -1.1622 -0.7132 -0.4638
  111OSM   H16T11490   6.034   3.065   9.281 -0.4338  0.7491  1.5419
  111OSM   C17S11491   5.830   3.017   9.284  0.1657  0.6673  0.0305
  111OSM   H17S11492   5.812   3.124   9.263 -0.4451  1.2105  2.8743
  111OSM   H17T11493   5.767   2.987   9.370  2.0560 -0.9182  0.9638
  111OSM   C18S11494   5.784   2.926   9.167  0.3707  0.2214  0.4348
  111OSM   H18S11495   5.676   2.939   9.145  0.5219 -2.1851 -2.2091
  111OSM   H18T11496   5.789   2.821   9.201 -1.7619 -0.9034 -2.3564
  111OSM   H18U11497   5.840   2.951   9.074  1.9035 -0.7884  1.0484
  111OSM    C1F11498   6.078   3.554  10.237  0.2288 -1.0712  0.1769
  111OSM     OF11499   6.183   3.607  10.268 -0.2625  0.0655 -0.3658
  111OSM    C2F11500   6.045   3.539  10.097 -0.2865 -0.3345 -0.4341
  111OSM    H2F11501   5.952   3.595  10.075  0.5039  0.8008 -0.9598
  111OSM    H2G11502   6.021   3.432  10.078  0.3685 -0.6476  0.4634
  111OSM    C3F11503   6.157   3.597  10.006  0.1978  0.4046 -0.2585
  111OSM    H3F11504   6.241   3.524  10.005 -0.8382 -0.8158 -0.8290
  111OSM    H3G11505   6.199   3.692  10.044  2.1033 -0.2098 -0.7370
  111OSM    C4F11506   6.105   3.619   9.862 -0.1274  0.3532 -0.4708
  111OSM    H4F11507   6.024   3.695   9.863  0.8374  1.4506  1.4483
  111OSM    H4G11508   6.063   3.523   9.826  0.9434 -0.3416  0.0714
  111OSM    C5F11509   6.218   3.652   9.763  0.1860 -0.1171  0.4109
  111OSM    H5F11510   6.302   3.587   9.794  0.2706 -0.1554  0.1044
  111OSM    H5G11511   6.248   3.758   9.778 -0.4926  0.2274 -0.5885
  111OSM    C6F11512   6.177   3.610   9.625 -0.5457 -0.1944  0.2676
  111OSM    H6F11513   6.146   3.503   9.627 -0.9637 -0.0737  1.9910
  111OSM    H6G11514   6.259   3.626   9.552 -1.1552 -2.1363 -0.9271
  111OSM    C7F11515   6.077   3.711   9.573  0.0136 -0.0357 -0.1549
  111OSM    H7F11516   6.124   3.812   9.579  0.5872 -0.3091  0.1335
  111OSM    H7G11517   5.989   3.710   9.640 -0.0486  0.9034 -0.2047
  111OSM    C8F11518   6.021   3.682   9.433  0.4239  0.0272 -1.1055
  111OSM    H8F11519   5.934   3.748   9.410  0.7983  1.1177  0.4153
  111OSM    H8G11520   5.987   3.576   9.436 -1.6643  0.6578 -0.6594
  111OSM    C9F11521   6.118   3.690   9.317 -0.3270 -0.1453 -0.7139
  111OSM    H9F11522   6.155   3.793   9.307 -0.8161  0.2117  0.8914
  111OSM   C10F11523   6.163   3.590   9.236  0.9782  0.3463 -1.0127
  111OSM   H10F11524   6.235   3.614   9.156  0.3634 -1.9265 -2.3502
  111OSM   C11F11525   6.129   3.450   9.239  0.5670 -0.4705 -0.2363
  111OSM   H11F11526   6.081   3.433   9.338  0.0710  2.2500  0.0816
  111OSM   H11G11527   6.224   3.392   9.236  0.0780 -1.3400  0.5943
  111OSM   C12F11528   6.034   3.390   9.139 -0.0403 -0.1205  0.4494
  111OSM   H12F11529   5.956   3.465   9.113  0.6099  0.7765  1.0124
  111OSM   H12G11530   5.990   3.300   9.187  0.6133 -0.1329  1.0384
  111OSM   C13F11531   6.089   3.310   9.015 -0.6264 -0.0875 -0.3185
  111OSM   H13F11532   6.000   3.277   8.958 -0.8975  1.2287 -0.6955
  111OSM   H13G11533   6.154   3.226   9.046  3.0861  3.1926  1.7404
  111OSM   C14F11534   6.178   3.408   8.937 -0.3256 -0.8857  0.2545
  111OSM   H14F11535   6.258   3.447   9.004 -0.9582 -0.0571  0.5508
  111OSM   H14G11536   6.116   3.499   8.920  1.1387  0.3003  0.9760
  111OSM   C15F11537   6.257   3.365   8.809  0.5965  0.0278 -0.1660
  111OSM   H15F11538   6.338   3.298   8.843  0.3739 -0.6529 -0.9304
  111OSM   H15G11539   6.307   3.453   8.763  2.2027 -1.2961 -1.0529
  111OSM   C16F11540   6.163   3.300   8.708  1.0608  0.2060 -0.0220
  111OSM   H16F11541   6.117   3.209   8.752  4.3512 -0.6583  2.0320
  111OSM   H16G11542   6.229   3.262   8.626 -1.3729  2.0713 -3.0707
  111OSM   C17F11543   6.075   3.411   8.646 -0.1180  0.3663 -0.4138
  111OSM   H17F11544   6.143   3.477   8.587 -0.0221 -0.8298 -1.6907
  111OSM   H17G11545   6.029   3.474   8.725 -0.6458 -0.3525 -0.1388
  111OSM   C18F11546   5.971   3.355   8.548 -0.0438  0.3035  0.3624
  111OSM   H18F11547   5.913   3.436   8.499 -1.3766  0.3027  1.8479
  111OSM   H18G11548   5.901   3.293   8.608  2.2004 -2.4243  0.4056
  111OSM   H18H11549   6.014   3.300   8.461 -4.6702 -0.3906 -1.7922
  112OSM      N11550   4.077   1.885  11.235  0.1958  0.5577 -0.3673
  112OSM    C1511551   4.174   1.864  11.122  0.6598  0.2792  0.0958
  112OSM   H15A11552   4.260   1.929  11.135  0.3104  1.0214 -1.1150
  112OSM   H15B11553   4.131   1.899  11.029  0.7578  0.6026  0.1687
  112OSM   H15C11554   4.201   1.760  11.115  2.6734  0.8203 -0.7753
  112OSM    C1411555   3.939   1.823  11.205  0.4369  0.6645 -0.5403
  112OSM   H14A11556   3.866   1.867  11.271  0.9240  0.4639  0.1459
  112OSM   H14B11557   3.945   1.715  11.213 -2.6907  0.3733 -0.8621
  112OSM   H14C11558   3.900   1.835  11.105  0.1504  0.0207 -0.5123
  112OSM    C1311559   4.129   1.797  11.351 -0.1500  0.3567 -0.8238
  112OSM   H13A11560   4.149   1.695  11.325 -0.4680 -0.1074  0.6519
  112OSM   H13B11561   4.067   1.794  11.440  0.6336  2.4443 -0.1499
  112OSM   H13C11562   4.222   1.834  11.392 -0.8419  0.1287  1.0507
  112OSM    C1211563   4.071   2.028  11.272 -0.1875  0.3875 -0.3987
  112OSM   H12A11564   4.171   2.066  11.289 -0.1184 -0.0243  0.1720
  112OSM   H12B11565   4.017   2.041  11.364  1.4176  0.1330  0.6365
  112OSM    C1111566   4.010   2.116  11.167 -0.4346 -0.2414 -0.1511
  112OSM   H11A11567   3.976   2.211  11.212 -1.8779  0.8245 -3.1922
  112OSM   H11B11568   3.916   2.069  11.131 -1.5942  0.5501  1.6992
  112OSM      P11569   4.045   2.140  10.915 -0.0531 -0.1238  0.2373
  112OSM    O1311570   3.922   2.227  10.913 -0.0685  0.0366 -0.0552
  112OSM    O1411571   4.146   2.180  10.820  0.2268 -0.4035  0.3668
  112OSM    O1111572   4.001   1.990  10.890  0.0601 -0.0378 -0.6445
  112OSM    O1211573   4.111   2.144  11.065  0.2416  0.3256 -0.4863
  112OSM    C1S11574   3.909   1.957  10.781 -0.0023 -0.5271 -0.0124
  112OSM    H1S11575   3.847   2.044  10.752  3.1444  1.0542 -2.7653
  112OSM    H1T11576   3.833   1.888  10.824  0.1428 -0.6167  0.1000
  112OSM     NF11577   3.892   1.892  10.553  0.4329  0.0528 -0.1083
  112OSM    HNF11578   3.856   1.803  10.526 -1.4862 -0.0268  2.2394
  112OSM    C2S11579   3.983   1.894  10.664 -0.4886  0.6630 -0.0759
  112OSM    H2S11580   4.066   1.963  10.638  0.3966  0.2382  1.5059
  112OSM    C3S11581   4.038   1.752  10.704 -0.3265 -0.5341 -0.5114
  112OSM    H3S11582   3.956   1.683  10.729  1.1363 -2.0301  0.3669
  112OSM     O311583   4.123   1.765  10.825  0.0225  0.0547 -0.0214
  112OSM    HO311584   4.083   1.846  10.858 -0.2875 -0.2977  0.4783
  112OSM    C4S11585   4.103   1.674  10.596  0.0092 -0.4453  0.1663
  112OSM    H4S11586   4.194   1.717  10.552 -0.6177  0.8343  0.0868
  112OSM    C5S11587   4.078   1.549  10.548 -0.6473 -0.4506  0.1792
  112OSM    H5S11588   3.988   1.494  10.579  0.1798 -1.2663  1.2758
  112OSM    C6S11589   4.157   1.475  10.437  0.7791  0.6045 -0.3293
  112OSM    H6S11590   4.166   1.368  10.466  0.9085  0.7047  0.0107
  112OSM    H6T11591   4.260   1.514  10.425  1.4857 -0.9731  0.3897
  112OSM    C7S11592   4.082   1.481  10.302 -0.6784 -0.1381  0.2817
  112OSM    H7S11593   4.084   1.586  10.267  3.0764 -0.6553 -1.5954
  112OSM    H7T11594   3.977   1.445  10.313 -1.4171  0.9840 -2.3192
  112OSM    C8S11595   4.147   1.393  10.193  0.0969 -0.6346  0.0986
  112OSM    H8S11596   4.153   1.286  10.222 -0.5147 -0.4035  1.1160
  112OSM    H8T11597   4.256   1.418  10.194  0.7932 -3.2343  2.2239
  112OSM    C9S11598   4.086   1.430  10.054 -0.6121 -0.4188 -0.7578
  112OSM    H9S11599   4.130   1.531  10.039 -0.9023 -0.2532 -0.4821
  112OSM    H9T11600   3.976   1.437  10.039 -0.6128  0.4452 -0.3912
  112OSM   C10S11601   4.154   1.352   9.941  0.0607 -0.6311  0.1452
  112OSM   H10S11602   4.130   1.243   9.949 -2.9278 -0.3985 -3.0455
  112OSM   H10T11603   4.263   1.374   9.936  0.4980 -2.5552  0.4295
  112OSM   C11S11604   4.092   1.398   9.804 -0.0868  0.0889 -0.7780
  112OSM   H11S11605   4.118   1.505   9.790  0.8810  0.0942  0.8613
  112OSM   H11T11606   3.981   1.392   9.816  0.1702 -1.2439  1.6482
  112OSM   C12S11607   4.136   1.304   9.685  0.5353  0.2493 -0.7556
  112OSM   H12S11608   4.089   1.205   9.703  0.0806  0.0388 -2.7695
  112OSM   H12T11609   4.245   1.319   9.698  0.4155  1.7237 -1.2586
  112OSM   C13S11610   4.098   1.359   9.548  0.2489 -0.4574 -0.2618
  112OSM   H13S11611   4.115   1.468   9.536 -0.8410 -0.3774 -1.2435
  112OSM   H13T11612   3.987   1.356   9.541 -0.0833  2.3124  1.9451
  112OSM   C14S11613   4.177   1.286   9.442  0.4629  0.2060  0.6338
  112OSM   H14S11614   4.161   1.176   9.441 -1.7234  0.4671  1.5378
  112OSM   H14T11615   4.286   1.301   9.458  0.8656  0.9056 -2.1685
  112OSM   C15S11616   4.143   1.330   9.299 -0.4110  0.4400  0.4090
  112OSM   H15S11617   4.146   1.440   9.287 -4.1207  0.6068 -0.2789
  112OSM   H15T11618   4.040   1.293   9.278 -0.2373 -0.1192  0.5273
  112OSM   C16S11619   4.249   1.276   9.194 -0.1042 -0.4878  0.2113
  112OSM   H16S11620   4.254   1.170   9.228 -0.3832  0.0202  1.8809
  112OSM   H16T11621   4.347   1.326   9.208 -1.0797  1.7576 -0.4360
  112OSM   C17S11622   4.205   1.297   9.048  0.9191  0.2851 -0.3417
  112OSM   H17S11623   4.107   1.247   9.034  1.6537 -1.0463 -0.8822
  112OSM   H17T11624   4.276   1.245   8.980  0.5685 -0.2843 -0.2770
  112OSM   C18S11625   4.207   1.453   9.013 -0.3471  0.2321  0.2078
  112OSM   H18S11626   4.299   1.495   9.059 -0.1139 -0.1501  0.0919
  112OSM   H18T11627   4.116   1.509   9.045 -1.3163 -1.4342  0.4764
  112OSM   H18U11628   4.221   1.481   8.907  0.3925  0.5412  0.3840
  112OSM    C1F11629   3.848   1.995  10.485 -0.5833  0.0519 -0.4676
  112OSM     OF11630   3.903   2.110  10.493 -0.2374  1.0134 -0.2743
  112OSM    C2F11631   3.728   1.972  10.408 -0.3038  0.3910 -0.3601
  112OSM    H2F11632   3.637   2.020  10.450 -0.1305 -0.3544  0.9286
  112OSM    H2G11633   3.703   1.865  10.392  0.2829  0.4408 -1.6702
  112OSM    C3F11634   3.735   2.035  10.272  0.7338  0.0980  0.0440
  112OSM    H3F11635   3.789   2.132  10.276  1.0780  0.0217 -1.8027
  112OSM    H3G11636   3.633   2.049  10.228  0.4319 -0.2098  0.6368
  112OSM    C4F11637   3.820   1.948  10.172  0.0200  0.0641  0.3263
  112OSM    H4F11638   3.891   1.886  10.231 -0.3950  0.6095  1.4168
  112OSM    H4G11639   3.881   2.015  10.108  0.7748 -1.5217 -0.6779
  112OSM    C5F11640   3.746   1.848  10.085 -0.4978 -0.4357  0.0321
  112OSM    H5F11641   3.658   1.897  10.039  0.6314  1.0083 -0.6619
  112OSM    H5G11642   3.703   1.768  10.149 -0.9343 -1.4737 -1.5033
  112OSM    C6F11643   3.843   1.805   9.977  0.7228  0.4862 -0.6385
  112OSM    H6F11644   3.932   1.761  10.027  0.5162  1.4075  0.5703
  112OSM    H6G11645   3.883   1.887   9.914  2.3649 -1.4871 -2.3180
  112OSM    C7F11646   3.772   1.699   9.886 -0.1966 -0.0771 -0.4016
  112OSM    H7F11647   3.743   1.619   9.957 -1.5624  0.5392 -0.2470
  112OSM    H7G11648   3.850   1.645   9.827 -0.2801 -1.7388  0.9193
  112OSM    C8F11649   3.662   1.765   9.796  0.4871  0.0386  0.2571
  112OSM    H8F11650   3.573   1.800   9.852 -0.5384 -2.3115  0.2034
  112OSM    H8G11651   3.620   1.689   9.727 -0.9309  1.2288 -0.2459
  112OSM    C9F11652   3.729   1.874   9.716 -0.4269  0.0674  0.2526
  112OSM    H9F11653   3.733   1.972   9.767 -2.1677 -0.3816  1.3483
  112OSM   C10F11654   3.813   1.852   9.612  1.0844  0.4814 -0.7638
  112OSM   H10F11655   3.853   1.941   9.561 -1.0636  0.6609 -2.2976
  112OSM   C11F11656   3.852   1.723   9.544  0.1807  0.4995  0.5642
  112OSM   H11F11657   3.794   1.640   9.590 -1.0108  0.4877 -0.8811
  112OSM   H11G11658   3.961   1.707   9.553 -0.0721 -1.0600  1.2271
  112OSM   C12F11659   3.794   1.728   9.405 -0.8432 -0.4774 -0.5919
  112OSM   H12F11660   3.830   1.824   9.363 -0.1514 -0.0231  0.9939
  112OSM   H12G11661   3.683   1.724   9.393 -0.8260 -0.7973 -0.6564
  112OSM   C13F11662   3.847   1.606   9.318  0.3984  0.1635  0.5080
  112OSM   H13F11663   3.805   1.514   9.362  0.2527  0.2770  0.6057
  112OSM   H13G11664   3.957   1.609   9.338  0.7103  0.1207 -1.0353
  112OSM   C14F11665   3.800   1.626   9.182  0.7161  0.0997  0.3517
  112OSM   H14F11666   3.841   1.718   9.135 -1.1478  0.8471  0.1274
  112OSM   H14G11667   3.693   1.655   9.173  0.9311  0.8566  0.1764
  112OSM   C15F11668   3.819   1.505   9.088 -0.0771  0.0740 -0.2867
  112OSM   H15F11669   3.736   1.434   9.107 -0.5517  0.2461 -1.5567
  112OSM   H15G11670   3.908   1.447   9.119  0.0316  1.4490  2.2799
  112OSM   C16F11671   3.834   1.522   8.933 -0.4149  0.7163  0.2045
  112OSM   H16F11672   3.932   1.569   8.911 -1.4829  2.8625 -0.2673
  112OSM   H16G11673   3.745   1.572   8.888  0.1137  1.5982  0.1111
  112OSM   C17F11674   3.846   1.386   8.850  0.0462 -0.6550  0.5550
  112OSM   H17F11675   3.748   1.333   8.853 -0.1100 -0.9357 -3.5416
  112OSM   H17G11676   3.921   1.324   8.905  0.1989 -0.9501  0.0215
  112OSM   C18F11677   3.881   1.395   8.707 -0.9046 -0.1909  0.3842
  112OSM   H18F11678   3.900   1.289   8.680 -0.0059  0.1183 -0.2932
  112OSM   H18G11679   3.983   1.437   8.689  0.2688 -2.9704 -0.0289
  112OSM   H18H11680   3.809   1.450   8.643  2.0065  0.3138 -2.7863
  113OSM      N11681   3.296   6.387  11.307  0.6464 -0.1489 -0.7062
  113OSM    C1511682   3.326   6.536  11.319  0.2303  0.4946 -0.2188
  113OSM   H15A11683   3.244   6.600  11.289  1.8615  2.8316  0.0741
  113OSM   H15B11684   3.409   6.560  11.253  2.0627 -1.2103  1.3446
  113OSM   H15C11685   3.353   6.558  11.421 -0.6474 -0.6305  0.2793
  113OSM    C1411686   3.199   6.336  11.413 -0.4575  0.1396 -0.1770
  113OSM   H14A11687   3.165   6.234  11.406  1.6796 -1.0351  3.3524
  113OSM   H14B11688   3.115   6.403  11.407  1.1042  2.2585  0.0567
  113OSM   H14C11689   3.253   6.348  11.506 -1.3811  2.5445  0.1069
  113OSM    C1311690   3.229   6.370  11.171  0.4172  0.1709  0.0771
  113OSM   H13A11691   3.138   6.429  11.169  0.9101  1.1463  2.9148
  113OSM   H13B11692   3.220   6.270  11.130  0.6882 -0.3272  1.2096
  113OSM   H13C11693   3.287   6.415  11.092 -0.0278 -0.0520 -0.3868
  113OSM    C1211694   3.429   6.309  11.320 -0.7173 -0.2459  0.5711
  113OSM   H12A11695   3.413   6.203  11.315  1.8565 -0.6528 -0.6407
  113OSM   H12B11696   3.457   6.325  11.423 -0.3328  0.3473  0.3835
  113OSM    C1111697   3.543   6.344  11.220 -0.0195  0.2110 -0.4269
  113OSM   H11A11698   3.505   6.336  11.116  1.5705 -1.6281 -0.9230
  113OSM   H11B11699   3.629   6.275  11.232  0.6661  0.9652 -0.9137
  113OSM      P11700   3.727   6.512  11.165  0.0970 -0.5474  0.1543
  113OSM    O1311701   3.746   6.658  11.161  0.0663  0.1951  0.2022
  113OSM    O1411702   3.837   6.435  11.225  0.1445 -0.4050  0.5961
  113OSM    O1111703   3.704   6.461  11.018  0.2693 -0.1598  0.4300
  113OSM    O1211704   3.592   6.484  11.235 -0.4307 -0.0057 -0.1280
  113OSM    C1S11705   3.616   6.536  10.938 -0.3553 -0.5803 -0.1787
  113OSM    H1S11706   3.558   6.615  10.990  1.8859 -0.6399  2.7099
  113OSM    H1T11707   3.539   6.469  10.894 -0.3871 -0.2689 -0.5954
  113OSM     NF11708   3.596   6.672  10.726  0.6632  0.5127  0.5940
  113OSM    HNF11709   3.594   6.631  10.636 -0.6491 -0.2556  0.9352
  113OSM    C2S11710   3.688   6.609  10.823  0.7844 -0.6347  0.5466
  113OSM    H2S11711   3.754   6.689  10.866 -1.2835  1.3626  0.2194
  113OSM    C3S11712   3.787   6.506  10.751 -0.1604  0.2072 -0.5606
  113OSM    H3S11713   3.722   6.419  10.726 -1.6966  1.2635 -0.3830
  113OSM     O311714   3.885   6.459  10.843  0.1138 -0.2121  0.0450
  113OSM    HO311715   3.831   6.463  10.922 -1.2514 -0.2721 -0.8506
  113OSM    C4S11716   3.860   6.557  10.628  0.0924 -0.1470  0.0505
  113OSM    H4S11717   3.925   6.645  10.642 -1.6087  1.5842 -2.1571
  113OSM    C5S11718   3.867   6.489  10.518  0.5142  0.4492  0.2538
  113OSM    H5S11719   3.814   6.393  10.515 -1.6440  1.5711  0.1783
  113OSM    C6S11720   3.937   6.518  10.389 -0.2608  0.2660 -0.2187
  113OSM    H6S11721   3.872   6.506  10.300  3.4368 -1.1240 -2.9377
  113OSM    H6T11722   4.017   6.441  10.382 -0.7628 -0.1171 -2.5803
  113OSM    C7S11723   4.020   6.654  10.378  0.3827  0.6050 -0.1060
  113OSM    H7S11724   4.103   6.644  10.452 -0.1430 -1.5241  0.2739
  113OSM    H7T11725   3.950   6.733  10.412  0.4615  0.8594 -0.5239
  113OSM    C8S11726   4.080   6.689  10.241 -0.4834  0.6430 -0.3713
  113OSM    H8S11727   4.143   6.608  10.197 -0.8196 -1.5719  2.8750
  113OSM    H8T11728   4.164   6.759  10.263  2.4598 -1.7102 -2.9822
  113OSM    C9S11729   3.978   6.751  10.146  0.5555  0.3131  0.1723
  113OSM    H9S11730   3.938   6.836  10.204  0.7434  1.5311 -1.4165
  113OSM    H9T11731   3.900   6.673  10.133 -0.1056  0.8804  0.6758
  113OSM   C10S11732   4.036   6.799  10.009 -0.5980 -0.4583 -0.2941
  113OSM   H10S11733   4.101   6.888  10.022 -1.3751  0.2055 -0.8856
  113OSM   H10T11734   3.954   6.836   9.944 -0.4142 -1.2262 -0.9722
  113OSM   C11S11735   4.121   6.694   9.936  0.2175  0.1773  0.3028
  113OSM   H11S11736   4.060   6.601   9.940  0.4469  0.0494  1.0376
  113OSM   H11T11737   4.211   6.668   9.996 -0.4653 -3.1914  0.0529
  113OSM   C12S11738   4.166   6.730   9.790  0.0605 -0.9837  0.1664
  113OSM   H12S11739   4.230   6.821   9.795 -0.1143 -0.7800 -1.0274
  113OSM   H12T11740   4.067   6.748   9.743  0.4046 -0.7619 -0.4873
  113OSM   C13S11741   4.234   6.623   9.708 -0.1651 -0.2769 -0.0872
  113OSM   H13S11742   4.174   6.530   9.715 -2.1079  0.7881 -1.4476
  113OSM   H13T11743   4.339   6.606   9.740  1.0238  4.0501 -1.0802
  113OSM   C14S11744   4.224   6.659   9.558 -0.8970  0.1531 -0.0618
  113OSM   H14S11745   4.254   6.765   9.548  0.5075 -0.1556  0.6416
  113OSM   H14T11746   4.114   6.661   9.539 -0.9219  0.4906  0.1188
  113OSM   C15S11747   4.304   6.566   9.468  0.5604  0.5081  0.6192
  113OSM   H15S11748   4.246   6.471   9.470 -1.0457  1.4143 -0.5692
  113OSM   H15T11749   4.400   6.557   9.522  1.3791 -1.9986 -1.1039
  113OSM   C16S11750   4.314   6.611   9.322 -0.3382  0.1436 -0.1526
  113OSM   H16S11751   4.338   6.719   9.311  0.4671  0.3496  2.8185
  113OSM   H16T11752   4.213   6.603   9.275 -0.4142 -0.9152  0.1610
  113OSM   C17S11753   4.422   6.530   9.242 -1.0383  0.1929 -0.6911
  113OSM   H17S11754   4.405   6.548   9.134  0.6388 -0.0904 -1.0304
  113OSM   H17T11755   4.418   6.425   9.279 -0.4771  1.0319  2.0469
  113OSM   C18S11756   4.562   6.592   9.268  0.3971 -0.2937  0.7509
  113OSM   H18S11757   4.582   6.585   9.377 -0.4756 -1.3451  0.8615
  113OSM   H18T11758   4.552   6.693   9.225 -1.0135 -0.7262  0.0126
  113OSM   H18U11759   4.641   6.540   9.210  1.8202  1.3347  1.1460
  113OSM    C1F11760   3.498   6.759  10.763 -0.9137 -0.7980  0.2245
  113OSM     OF11761   3.503   6.814  10.873 -0.2460  0.3491 -0.3524
  113OSM    C2F11762   3.395   6.789  10.655  0.1738 -0.0094  0.2483
  113OSM    H2F11763   3.301   6.740  10.690  1.2647 -1.5415  1.1591
  113OSM    H2G11764   3.428   6.740  10.561  0.2869 -1.6163  1.0937
  113OSM    C3F11765   3.363   6.938  10.644  0.9083  0.2217  0.5544
  113OSM    H3F11766   3.321   6.971  10.741 -1.0168  0.6760 -0.3842
  113OSM    H3G11767   3.282   6.955  10.569  1.4365 -1.2197 -0.3805
  113OSM    C4F11768   3.484   7.008  10.611 -1.1391  0.5387  0.6016
  113OSM    H4F11769   3.571   6.988  10.677 -3.2632 -1.5465  3.0021
  113OSM    H4G11770   3.466   7.114  10.587 -1.7893 -0.0969 -1.9586
  113OSM    C5F11771   3.541   6.976  10.467 -0.0858 -0.4561 -0.1101
  113OSM    H5F11772   3.582   6.873  10.461 -1.1106 -1.1348  2.8665
  113OSM    H5G11773   3.627   7.046  10.458  1.2718 -1.9796  0.5478
  113OSM    C6F11774   3.452   7.000  10.345  1.3321  0.1591 -0.1442
  113OSM    H6F11775   3.406   7.101  10.358  1.8634  0.4935 -0.7735
  113OSM    H6G11776   3.376   6.923  10.319  0.8178  0.5741  0.0984
  113OSM    C7F11777   3.542   7.005  10.220 -0.8752  0.4662  0.2810
  113OSM    H7F11778   3.603   6.912  10.216 -2.5560 -0.7494  1.3021
  113OSM    H7G11779   3.617   7.085  10.231  0.3631 -1.0426  6.4197
  113OSM    C8F11780   3.469   7.025  10.091  0.1112  0.6718  0.0134
  113OSM    H8F11781   3.417   7.121  10.109 -0.7953 -0.0366  1.3175
  113OSM    H8G11782   3.398   6.939  10.095  1.3662 -0.4073  3.9902
  113OSM    C9F11783   3.543   7.021   9.958  0.0451 -0.7960  0.0540
  113OSM    H9F11784   3.649   7.049   9.959  0.2753 -1.5699 -0.6987
  113OSM   C10F11785   3.485   6.982   9.844  0.3556  0.2226  0.2095
  113OSM   H10F11786   3.542   6.963   9.752 -1.4321 -0.5745 -0.7672
  113OSM   C11F11787   3.340   6.934   9.833 -0.3256  0.0495 -0.0185
  113OSM   H11F11788   3.289   6.956   9.929 -0.3472 -1.6425  0.3932
  113OSM   H11G11789   3.340   6.825   9.810 -2.6179 -0.1774  0.8139
  113OSM   C12F11790   3.266   7.001   9.717 -0.3123  0.2648  0.4921
  113OSM   H12F11791   3.285   7.110   9.727  0.5955  0.0304  1.5637
  113OSM   H12G11792   3.159   6.981   9.740  0.5372 -1.2279  3.7317
  113OSM   C13F11793   3.306   6.960   9.579  0.5328 -0.3112  0.2113
  113OSM   H13F11794   3.303   6.850   9.561  2.4036 -0.4271  0.3646
  113OSM   H13G11795   3.408   6.997   9.556  0.7049 -2.3501 -2.9089
  113OSM   C14F11796   3.197   7.024   9.488 -0.0073 -0.2671  0.3958
  113OSM   H14F11797   3.182   7.126   9.530 -0.4713 -0.8762  1.8048
  113OSM   H14G11798   3.095   6.979   9.495  0.4572 -2.0041 -2.5310
  113OSM   C15F11799   3.250   7.041   9.343 -0.1262 -0.5970  0.2037
  113OSM   H15F11800   3.283   6.943   9.303  0.2502 -0.4331  0.1086
  113OSM   H15G11801   3.330   7.117   9.329  0.0435 -0.8257 -0.0662
  113OSM   C16F11802   3.133   7.072   9.247  0.2531  0.5680  0.3395
  113OSM   H16F11803   3.128   7.182   9.237 -2.5818  0.4197 -0.8184
  113OSM   H16G11804   3.040   7.025   9.284  0.1767  0.2765 -0.2147
  113OSM   C17F11805   3.168   7.016   9.105  0.7333  0.2350  0.2537
  113OSM   H17F11806   3.200   6.910   9.113 -0.5388 -0.1293  0.7264
  113OSM   H17G11807   3.252   7.075   9.063  1.4263 -0.7861  0.1606
  113OSM   C18F11808   3.043   7.024   9.021 -0.0875  0.5131 -0.7557
  113OSM   H18F11809   3.055   6.976   8.922 -2.0837 -0.5313 -0.5286
  113OSM   H18G11810   3.007   7.129   9.015  0.8531  0.7990 -1.9693
  113OSM   H18H11811   2.961   6.959   9.057  1.5922 -1.2212  0.1292
  114OSM      N11812   5.668   1.781  11.890 -0.8691  0.8974  0.1150
  114OSM    C1511813   5.698   1.774  12.036 -0.2194  0.6890 -0.2262
  114OSM   H15A11814   5.806   1.770  12.040 -0.2796 -0.2267  1.5739
  114OSM   H15B11815   5.670   1.679  12.078  4.0610 -0.9385 -0.4827
  114OSM   H15C11816   5.668   1.862  12.090 -0.3568 -0.6720  2.0185
  114OSM    C1411817   5.528   1.735  11.865  0.6851 -0.1797  0.7669
  114OSM   H14A11818   5.462   1.801  11.919  0.1259 -0.0260 -0.0904
  114OSM   H14B11819   5.517   1.630  11.889  0.8654 -0.3836 -0.0101
  114OSM   H14C11820   5.501   1.745  11.761 -0.4096 -0.2786  1.0317
  114OSM    C1311821   5.665   1.922  11.843 -0.3439  0.0977 -0.6189
  114OSM   H13A11822   5.631   1.934  11.741 -1.8392  3.4069  0.1347
  114OSM   H13B11823   5.764   1.966  11.849 -0.0187 -0.0744 -3.2017
  114OSM   H13C11824   5.595   1.978  11.903  0.6462  0.8409 -0.1282
  114OSM    C1211825   5.773   1.695  11.822 -0.1751  0.4110 -1.2781
  114OSM   H12A11826   5.761   1.600  11.873  1.4873  1.8069  1.9898
  114OSM   H12B11827   5.869   1.734  11.850  0.4452 -0.7933 -1.6590
  114OSM    C1111828   5.760   1.675  11.671  0.3593 -0.2211  0.2960
  114OSM   H11A11829   5.861   1.644  11.635 -0.0992 -0.2654 -1.0188
  114OSM   H11B11830   5.736   1.775  11.627  1.4331 -0.3569 -0.6727
  114OSM      P11831   5.568   1.590  11.518  0.0330 -0.2089  0.2336
  114OSM    O1311832   5.481   1.471  11.509  0.1596  0.1927  0.2952
  114OSM    O1411833   5.492   1.715  11.540 -0.8392  0.0708 -0.1218
  114OSM    O1111834   5.666   1.601  11.397  0.5732 -0.3698  0.0783
  114OSM    O1211835   5.670   1.571  11.641  0.6320 -0.0678  0.6866
  114OSM    C1S11836   5.705   1.491  11.314 -0.5983  0.2484  0.3581
  114OSM    H1S11837   5.646   1.399  11.334  0.3752 -0.2704  0.9189
  114OSM    H1T11838   5.808   1.461  11.341 -0.9713  0.0101  1.5827
  114OSM     NF11839   5.730   1.408  11.075  0.6779 -0.5102  0.0998
  114OSM    HNF11840   5.824   1.392  11.047 -0.2678 -1.9143 -2.7142
  114OSM    C2S11841   5.709   1.530  11.159  0.2736 -0.2080 -0.6683
  114OSM    H2S11842   5.609   1.574  11.138  1.3870  2.3417 -0.9756
  114OSM    C3S11843   5.805   1.643  11.143 -1.1315  0.0878  0.0453
  114OSM    H3S11844   5.913   1.615  11.143 -1.1680 -0.1786 -1.6624
  114OSM     O311845   5.816   1.750  11.240 -0.1585  0.3312  0.2147
  114OSM    HO311846   5.772   1.726  11.322  1.5349 -0.4700  0.9336
  114OSM    C4S11847   5.782   1.720  11.012  0.0559  0.1418 -0.3236
  114OSM    H4S11848   5.699   1.792  11.020  0.9917  1.3481 -1.2582
  114OSM    C5S11849   5.858   1.719  10.899  0.2076 -0.2719  0.7866
  114OSM    H5S11850   5.938   1.646  10.881 -2.3737 -2.6921 -1.8017
  114OSM    C6S11851   5.815   1.796  10.776 -0.4399 -0.5218 -0.3189
  114OSM    H6S11852   5.896   1.871  10.760  1.0421 -1.8510  0.6194
  114OSM    H6T11853   5.720   1.851  10.789 -0.6205 -1.4327  3.1201
  114OSM    C7S11854   5.828   1.714  10.648 -0.6032 -0.2559  0.2486
  114OSM    H7S11855   5.751   1.634  10.646 -0.0320 -0.8089 -1.0574
  114OSM    H7T11856   5.925   1.660  10.640 -1.6136 -1.8350 -2.3959
  114OSM    C8S11857   5.827   1.799  10.518  0.7704  0.3283 -0.3373
  114OSM    H8S11858   5.893   1.888  10.523 -0.9712  1.6436  0.2650
  114OSM    H8T11859   5.728   1.845  10.500  0.2849 -0.9510 -1.1051
  114OSM    C9S11860   5.851   1.715  10.388  0.2637  0.3767 -0.0120
  114OSM    H9S11861   5.831   1.775  10.297 -1.2331 -2.0705 -1.4178
  114OSM    H9T11862   5.772   1.637  10.394  0.4803  0.1074 -0.5484
  114OSM   C10S11863   5.988   1.644  10.391  0.0905  0.0264  0.3158
  114OSM   H10S11864   6.008   1.580  10.479 -1.5859  1.0698  1.5168
  114OSM   H10T11865   6.065   1.724  10.399 -0.9822  1.0639  0.5030
  114OSM   C11S11866   6.012   1.565  10.267  0.5287  0.5688 -0.4630
  114OSM   H11S11867   5.918   1.507  10.258  1.7816 -1.9211  1.2182
  114OSM   H11T11868   6.096   1.502  10.302  1.4388  2.0995  0.2464
  114OSM   C12S11869   6.049   1.657  10.145 -0.7981 -0.3258  0.7674
  114OSM   H12S11870   6.140   1.715  10.169  0.4299 -1.5277 -0.7855
  114OSM   H12T11871   5.967   1.731  10.129  0.6319  1.5567  1.7107
  114OSM   C13S11872   6.072   1.581  10.020  0.2879 -0.3395 -0.0151
  114OSM   H13S11873   5.998   1.500  10.008 -0.2052 -0.1090  1.3866
  114OSM   H13T11874   6.173   1.535  10.029  0.0715 -0.7273  0.4311
  114OSM   C14S11875   6.069   1.670   9.890  0.3593 -0.8844 -0.4528
  114OSM   H14S11876   6.136   1.759   9.893 -1.9592  1.0378 -1.7312
  114OSM   H14T11877   5.967   1.713   9.878  0.9707  0.7292 -0.0563
  114OSM   C15S11878   6.105   1.589   9.758  0.7082 -0.3828  0.0369
  114OSM   H15S11879   6.188   1.519   9.781  2.8588  1.4998 -1.6181
  114OSM   H15T11880   6.138   1.656   9.676  1.3870  0.6146  1.0991
  114OSM   C16S11881   5.980   1.513   9.712 -0.4031  0.3594  0.4635
  114OSM   H16S11882   5.910   1.577   9.653 -1.0704 -1.8168 -1.2688
  114OSM   H16T11883   5.934   1.482   9.808 -0.4459  0.4638  0.4770
  114OSM   C17S11884   6.011   1.383   9.639  0.6435  0.5184 -0.1312
  114OSM   H17S11885   5.989   1.300   9.709 -0.3018  1.0498  0.2301
  114OSM   H17T11886   6.120   1.377   9.619  1.1750 -1.4307  2.7244
  114OSM   C18S11887   5.924   1.371   9.513 -0.2426 -0.0443  0.0236
  114OSM   H18S11888   5.816   1.358   9.534  0.1455 -0.5093  1.9261
  114OSM   H18T11889   5.946   1.271   9.469  0.1832  0.1609 -0.2389
  114OSM   H18U11890   5.950   1.441   9.431  0.5312 -0.7736 -0.3717
  114OSM    C1F11891   5.649   1.306  11.071  0.0113  0.5820  0.1988
  114OSM     OF11892   5.536   1.309  11.122 -0.5906  0.3837  0.3161
  114OSM    C2F11893   5.704   1.181  11.030  0.0878  1.0911 -0.0053
  114OSM    H2F11894   5.691   1.103  11.108  1.8047  0.2764 -0.4735
  114OSM    H2G11895   5.815   1.181  11.036  0.0492 -0.1617  1.2301
  114OSM    C3F11896   5.655   1.133  10.891 -0.1273 -0.1413  0.3662
  114OSM    H3F11897   5.547   1.136  10.867  0.6031  2.4260 -3.5909
  114OSM    H3G11898   5.684   1.027  10.875  0.2939 -0.0008  0.1732
  114OSM    C4F11899   5.724   1.208  10.775 -0.0003  0.2348 -0.1245
  114OSM    H4F11900   5.831   1.228  10.798 -0.2407  0.2818  1.0215
  114OSM    H4G11901   5.674   1.305  10.757 -0.8301  0.0673  1.1295
  114OSM    C5F11902   5.730   1.125  10.648 -0.7427  0.0195  0.2598
  114OSM    H5F11903   5.647   1.052  10.662 -0.9941  0.6619  2.4542
  114OSM    H5G11904   5.821   1.063  10.637 -0.6182 -0.1946  2.1016
  114OSM    C6F11905   5.716   1.201  10.513  0.4510 -0.3355  0.3547
  114OSM    H6F11906   5.814   1.248  10.491 -0.6491  1.4719 -0.9923
  114OSM    H6G11907   5.644   1.286  10.513  0.0686 -0.6355  2.0732
  114OSM    C7F11908   5.678   1.119  10.388 -0.3617 -0.3847  0.4159
  114OSM    H7F11909   5.584   1.059  10.392 -0.5903 -0.2178 -1.5538
  114OSM    H7G11910   5.754   1.038  10.383  0.9922  0.7814  1.3196
  114OSM    C8F11911   5.664   1.206  10.257 -0.4974 -0.3528 -0.5255
  114OSM    H8F11912   5.606   1.297  10.285 -1.3080 -0.7014 -1.0370
  114OSM    H8G11913   5.602   1.145  10.188  0.0863  0.0684 -1.4332
  114OSM    C9F11914   5.791   1.255  10.195  0.0066 -0.4117  0.5257
  114OSM    H9F11915   5.866   1.281  10.271 -0.5288  0.9140  0.6289
  114OSM   C10F11916   5.820   1.253  10.067  0.2880  1.6858  0.5007
  114OSM   H10F11917   5.919   1.281  10.027  1.3988 -0.3925  1.6396
  114OSM   C11F11918   5.734   1.207   9.955  0.3296 -0.9253 -0.7250
  114OSM   H11F11919   5.704   1.291   9.888  2.0686  0.7248  0.4698
  114OSM   H11G11920   5.636   1.172   9.994  0.0187 -1.0432 -1.5943
  114OSM   C12F11921   5.797   1.099   9.886 -0.3161  0.1541  1.0801
  114OSM   H12F11922   5.835   1.019   9.953 -2.9220 -2.5760 -0.4374
  114OSM   H12G11923   5.885   1.137   9.832 -0.2780 -1.4433 -0.0575
  114OSM   C13F11924   5.705   1.024   9.780  0.2003 -0.1526 -0.2001
  114OSM   H13F11925   5.638   1.093   9.724  0.4855  0.0748 -0.2652
  114OSM   H13G11926   5.640   0.950   9.830  0.2927  1.0936  1.8768
  114OSM   C14F11927   5.799   0.961   9.674 -0.0452 -0.1066 -0.9210
  114OSM   H14F11928   5.873   0.899   9.729  1.0084  1.4929 -0.4862
  114OSM   H14G11929   5.846   1.048   9.623 -1.1362  0.7411 -0.5135
  114OSM   C15F11930   5.708   0.887   9.568  0.5344 -0.4054  0.0311
  114OSM   H15F11931   5.648   0.966   9.517  1.5467  0.3044 -0.0992
  114OSM   H15G11932   5.636   0.827   9.628 -2.2213  1.8424 -0.7550
  114OSM   C16F11933   5.786   0.803   9.463  0.0892  0.5055 -0.2364
  114OSM   H16F11934   5.846   0.726   9.515  0.8134  0.6495 -0.8333
  114OSM   H16G11935   5.848   0.875   9.405 -0.4474  1.9302  0.9082
  114OSM   C17F11936   5.679   0.732   9.372  0.3015 -0.5028  0.7045
  114OSM   H17F11937   5.617   0.808   9.321  0.4691 -1.4934 -1.0426
  114OSM   H17G11938   5.617   0.680   9.448 -0.0980  0.6534  1.2025
  114OSM   C18F11939   5.744   0.636   9.280 -0.3959  0.1325  0.1344
  114OSM   H18F11940   5.804   0.556   9.328  0.0728  1.0416  1.1011
  114OSM   H18G11941   5.818   0.679   9.209 -1.1374 -0.1246 -0.8193
  114OSM   H18H11942   5.664   0.591   9.218 -0.3755  0.2626  0.0118
  115OSM      N11943   0.853   2.001   6.242 -0.3826 -0.0394  0.5209
  115OSM    C1511944   0.858   2.065   6.377  0.2394 -0.2703 -0.1558
  115OSM   H15A11945   0.947   2.036   6.431 -1.0877 -2.3196  1.0606
  115OSM   H15B11946   0.763   2.045   6.423 -0.5462 -1.0969 -2.0271
  115OSM   H15C11947   0.857   2.170   6.350  1.0594 -0.4112 -0.8109
  115OSM    C1411948   0.816   1.859   6.258 -0.2500  0.2379 -0.1910
  115OSM   H14A11949   0.890   1.810   6.320  2.1607  3.2400 -0.4826
  115OSM   H14B11950   0.802   1.815   6.160 -0.5938 -1.1175  0.4375
  115OSM   H14C11951   0.720   1.845   6.304 -0.9176  0.6037 -1.4271
  115OSM    C1311952   0.750   2.061   6.150 -0.8296 -0.0903  0.3030
  115OSM   H13A11953   0.769   2.163   6.121 -0.8954 -0.6200 -1.7167
  115OSM   H13B11954   0.651   2.066   6.193 -0.5045 -1.2828  1.2473
  115OSM   H13C11955   0.751   2.006   6.057 -2.5883  0.6959 -0.2150
  115OSM    C1211956   0.989   2.014   6.171 -0.4284  0.0194 -0.1251
  115OSM   H12A11957   1.004   2.117   6.142 -1.3884  0.7090  1.6920
  115OSM   H12B11958   0.987   1.953   6.081  2.6058 -0.9835  0.3643
  115OSM    C1111959   1.127   1.955   6.226  1.4701  0.1964  0.0437
  115OSM   H11A11960   1.194   1.975   6.140 -0.6361 -0.2829 -1.7913
  115OSM   H11B11961   1.113   1.846   6.237  1.0636 -0.0122 -2.0394
  115OSM      P11962   1.259   2.151   6.344  0.0784 -0.0157 -0.4566
  115OSM    O1311963   1.367   2.134   6.246  0.1159  0.6376 -0.0116
  115OSM    O1411964   1.171   2.265   6.309  0.0979 -0.6025 -0.2816
  115OSM    O1111965   1.309   2.168   6.496 -0.3550  0.3828 -0.1354
  115OSM    O1211966   1.174   2.017   6.348 -0.0250 -0.4745  0.2006
  115OSM    C1S11967   1.283   2.054   6.579  0.4581  0.0462  0.4667
  115OSM    H1S11968   1.327   1.967   6.525  0.2258  1.4988 -2.2740
  115OSM    H1T11969   1.173   2.035   6.586  0.1864  1.8926  1.8921
  115OSM     NF11970   1.277   1.935   6.795  0.7017  0.2319  0.0637
  115OSM    HNF11971   1.212   1.951   6.869  0.5862  1.5560 -0.2940
  115OSM    C2S11972   1.333   2.057   6.729  0.0765  0.8130  0.7305
  115OSM    H2S11973   1.443   2.048   6.733 -0.0469 -0.4990  3.5531
  115OSM    C3S11974   1.295   2.195   6.797 -0.1743 -0.8272 -0.2126
  115OSM    H3S11975   1.185   2.201   6.806 -0.1751  0.8682 -0.8280
  115OSM     O311976   1.332   2.310   6.715  0.2800  0.2453  0.3334
  115OSM    HO311977   1.316   2.277   6.627  1.5732 -1.0206  0.5446
  115OSM    C4S11978   1.346   2.205   6.932 -0.2131  0.6846  0.6956
  115OSM    H4S11979   1.280   2.154   7.003  0.6908 -1.1803  0.2431
  115OSM    C5S11980   1.457   2.267   6.969  0.3660  0.0310  0.3149
  115OSM    H5S11981   1.524   2.313   6.895 -0.0521  0.0931 -0.0254
  115OSM    C6S11982   1.502   2.275   7.111 -0.3476  0.2628  0.1636
  115OSM    H6S11983   1.457   2.367   7.155 -3.0349 -2.1213  2.8098
  115OSM    H6T11984   1.613   2.279   7.118 -0.4420  0.3560  3.9600
  115OSM    C7S11985   1.462   2.165   7.212 -0.3993 -0.0022  0.0887
  115OSM    H7S11986   1.489   2.068   7.165  0.7520  0.0811  0.5432
  115OSM    H7T11987   1.352   2.156   7.225 -0.5548  0.1178 -1.0810
  115OSM    C8S11988   1.532   2.179   7.342  0.1826 -0.5444  0.0541
  115OSM    H8S11989   1.637   2.206   7.319 -0.4165  1.7477 -0.2515
  115OSM    H8T11990   1.534   2.085   7.402  1.1082  0.5821  1.9142
  115OSM    C9S11991   1.475   2.290   7.436 -0.2885 -0.1832  0.1435
  115OSM    H9S11992   1.364   2.281   7.439 -0.4709  1.3345 -1.0430
  115OSM    H9T11993   1.510   2.387   7.395  1.5998 -0.0650  1.8413
  115OSM   C10S11994   1.536   2.284   7.574 -0.1681 -0.6259  0.1504
  115OSM   H10S11995   1.505   2.188   7.621 -2.2939 -0.2128 -0.2816
  115OSM   H10T11996   1.498   2.365   7.640  0.5839 -0.5047  0.4418
  115OSM   C11S11997   1.692   2.289   7.573  0.0411  0.2846  0.2117
  115OSM   H11S11998   1.712   2.376   7.507  1.6356  0.0608  0.3626
  115OSM   H11T11999   1.741   2.208   7.515  0.5500  0.9669 -0.3392
  115OSM   C12S12000   1.745   2.293   7.714 -0.1957 -0.7427 -0.0018
  115OSM   H12S12001   1.722   2.200   7.770  0.4668 -1.8116 -1.4331
  115OSM   H12T12002   1.710   2.382   7.770  1.0249 -0.7004  0.7368
  115OSM   C13S12003   1.900   2.299   7.722  0.0516  0.4824 -0.3880
  115OSM   H13S12004   1.932   2.399   7.686  2.7658  0.0106  0.4543
  115OSM   H13T12005   1.942   2.226   7.649 -0.6386 -1.1470  0.7731
  115OSM   C14S12006   1.947   2.275   7.864  0.3396  0.7618  0.2398
  115OSM   H14S12007   2.054   2.251   7.850 -0.0704  0.6921 -3.7241
  115OSM   H14T12008   1.894   2.186   7.904 -0.8388  0.9299 -0.8926
  115OSM   C15S12009   1.935   2.396   7.954 -0.2948 -0.3786 -1.0978
  115OSM   H15S12010   1.833   2.442   7.956 -1.5239 -2.8108 -2.7325
  115OSM   H15T12011   2.006   2.476   7.924 -0.3822  0.9210  1.8155
  115OSM   C16S12012   1.967   2.359   8.100  0.6408  0.2597 -1.1014
  115OSM   H16S12013   2.076   2.358   8.124  0.2100  0.7202  1.1068
  115OSM   H16T12014   1.918   2.260   8.112  2.0619 -0.3526 -0.0031
  115OSM   C17S12015   1.897   2.453   8.206 -0.3130  0.4945  0.8562
  115OSM   H17S12016   1.941   2.409   8.297  0.2707 -1.4935 -0.3167
  115OSM   H17T12017   1.787   2.467   8.197 -0.0253  2.6144 -0.1099
  115OSM   C18S12018   1.947   2.605   8.190  0.3017  0.4495  0.2186
  115OSM   H18S12019   2.058   2.606   8.196  0.3221 -1.7145  1.1684
  115OSM   H18T12020   1.901   2.654   8.278  1.7276  1.0816  0.6422
  115OSM   H18U12021   1.911   2.650   8.095 -0.2222 -0.7767 -0.1814
  115OSM    C1F12022   1.310   1.808   6.772  1.1600 -0.5205 -0.0212
  115OSM     OF12023   1.408   1.787   6.703  0.2346  0.9672  0.4479
  115OSM    C2F12024   1.225   1.697   6.830  0.3442  0.1713  0.2179
  115OSM    H2F12025   1.280   1.603   6.805 -0.4221 -0.8349  2.1219
  115OSM    H2G12026   1.126   1.703   6.778  0.6294  1.6282 -0.1988
  115OSM    C3F12027   1.214   1.703   6.979  0.6031  0.2043  0.1165
  115OSM    H3F12028   1.154   1.616   7.014  1.2545  0.1385  1.1341
  115OSM    H3G12029   1.147   1.786   7.009  1.6195  0.7811  0.8778
  115OSM    C4F12030   1.350   1.695   7.050 -0.0013  0.6170  0.1445
  115OSM    H4F12031   1.409   1.789   7.045 -1.0382  1.2229 -2.1362
  115OSM    H4G12032   1.403   1.611   7.000  0.1080  0.5643  0.3477
  115OSM    C5F12033   1.344   1.664   7.197  0.6406 -0.0036  1.4082
  115OSM    H5F12034   1.445   1.641   7.237  0.3863 -0.7452  1.6295
  115OSM    H5G12035   1.289   1.569   7.210 -2.4628  1.6764  1.4720
  115OSM    C6F12036   1.278   1.769   7.284 -0.0860 -0.1895 -0.6994
  115OSM    H6F12037   1.169   1.749   7.291 -0.1760 -0.6835 -2.9182
  115OSM    H6G12038   1.292   1.866   7.232  1.0859  0.6750  1.1032
  115OSM    C7F12039   1.332   1.791   7.428 -0.8348  0.0809 -0.5638
  115OSM    H7F12040   1.412   1.867   7.417  0.3713 -1.1858 -0.8606
  115OSM    H7G12041   1.391   1.703   7.464  0.1366  1.4077  1.2668
  115OSM    C8F12042   1.230   1.838   7.531 -0.6139  1.0188 -0.9942
  115OSM    H8F12043   1.263   1.816   7.635 -1.1577  0.6431 -0.8949
  115OSM    H8G12044   1.137   1.780   7.515  0.3537 -0.7018 -0.6450
  115OSM    C9F12045   1.202   1.981   7.523 -0.2737  0.2156  0.0919
  115OSM    H9F12046   1.282   2.038   7.473 -1.3091  1.0390 -0.6637
  115OSM   C10F12047   1.089   2.036   7.558 -0.3523 -0.6849 -0.1772
  115OSM   H10F12048   1.082   2.144   7.535  0.8153 -0.6600 -0.5056
  115OSM   C11F12049   0.968   1.974   7.617 -0.3690  0.2372  0.1447
  115OSM   H11F12050   0.987   1.875   7.665 -1.9247  1.1320  2.8305
  115OSM   H11G12051   0.898   1.960   7.532 -0.7568  2.2430  0.0957
  115OSM   C12F12052   0.909   2.065   7.729 -0.0452  0.3348 -0.1850
  115OSM   H12F12053   0.884   2.161   7.680 -0.4869 -0.5962 -1.8689
  115OSM   H12G12054   0.987   2.092   7.803 -0.9643  1.1234  0.5213
  115OSM   C13F12055   0.787   2.000   7.798 -0.5004  0.5562  0.0807
  115OSM   H13F12056   0.828   1.913   7.852  1.4347  2.3513  1.6623
  115OSM   H13G12057   0.706   1.980   7.724  1.6379  0.4169 -2.3642
  115OSM   C14F12058   0.731   2.091   7.905  0.1176 -0.1007 -0.0032
  115OSM   H14F12059   0.633   2.058   7.944 -0.0059  0.8560  0.5487
  115OSM   H14G12060   0.722   2.194   7.864  1.6200 -0.5579 -1.6024
  115OSM   C15F12061   0.812   2.106   8.037  0.1767 -0.2127 -0.2990
  115OSM   H15F12062   0.918   2.130   8.016  0.4584 -0.2592  0.9743
  115OSM   H15G12063   0.823   2.006   8.086  1.8591 -0.0606 -0.2941
  115OSM   C16F12064   0.757   2.209   8.141  0.0040 -0.5081  0.2711
  115OSM   H16F12065   0.647   2.219   8.132  0.1670 -0.7596 -2.9759
  115OSM   H16G12066   0.801   2.308   8.116  0.1996 -1.1495 -2.1207
  115OSM   C17F12067   0.792   2.182   8.286  1.1394 -0.1356 -0.4958
  115OSM   H17F12068   0.727   2.102   8.328 -0.3265  1.1834 -0.1369
  115OSM   H17G12069   0.766   2.277   8.338 -0.2325  0.4916 -2.2552
  115OSM   C18F12070   0.938   2.145   8.314 -0.4052  0.2448  0.7801
  115OSM   H18F12071   0.942   2.044   8.268 -1.5339  0.6541 -0.2616
  115OSM   H18G12072   0.961   2.134   8.422 -0.7221 -2.1919  0.6476
  115OSM   H18H12073   1.018   2.210   8.271  1.8180 -2.8169 -0.0252
  116OSM      N12074   1.375   6.428   6.408  0.4567 -0.4817  0.4718
  116OSM    C1512075   1.467   6.503   6.312  0.0258  0.5490  0.4761
  116OSM   H15A12076   1.569   6.468   6.323 -0.9662 -2.0573  2.2445
  116OSM   H15B12077   1.474   6.610   6.326  0.1273  0.8732 -1.7785
  116OSM   H15C12078   1.449   6.483   6.208 -0.4523 -0.8270  0.8130
  116OSM    C1412079   1.382   6.278   6.384  0.3140 -0.0699  0.1647
  116OSM   H14A12080   1.481   6.241   6.402 -0.3837 -2.1641 -0.1012
  116OSM   H14B12081   1.349   6.250   6.285 -0.6894  0.8028  0.2277
  116OSM   H14C12082   1.317   6.222   6.449  0.0984 -2.0123 -1.6433
  116OSM    C1312083   1.428   6.447   6.546 -0.3311 -0.5245 -0.0314
  116OSM   H13A12084   1.531   6.422   6.562 -0.1402  0.3980  0.2876
  116OSM   H13B12085   1.361   6.389   6.608  1.5394 -1.8134  0.8891
  116OSM   H13C12086   1.414   6.552   6.569  1.3073 -0.6674  1.8435
  116OSM    C1212087   1.243   6.483   6.383 -0.5130 -0.2494  0.1950
  116OSM   H12A12088   1.266   6.589   6.377  0.4341 -0.5351 -1.9116
  116OSM   H12B12089   1.172   6.466   6.463 -0.9400  1.5788  0.2509
  116OSM    C1112090   1.167   6.436   6.252 -0.1684  0.2051  0.2688
  116OSM   H11A12091   1.227   6.427   6.159 -0.6703 -0.9995  0.0432
  116OSM   H11B12092   1.083   6.503   6.223 -0.9006 -0.4201  0.9117
  116OSM      P12093   0.985   6.273   6.356  0.4038  0.2590  0.3702
  116OSM    O1312094   0.879   6.366   6.311  0.1259  0.3400  0.2835
  116OSM    O1412095   0.945   6.128   6.339 -0.1001 -0.3350  0.1100
  116OSM    O1112096   1.037   6.311   6.496  0.0059 -0.4027 -0.0383
  116OSM    O1212097   1.115   6.302   6.274 -0.0008  0.5911  0.2548
  116OSM    C1S12098   0.962   6.356   6.603  0.3784 -0.4451  0.3008
  116OSM    H1S12099   0.859   6.383   6.573 -0.2677 -2.4948  0.4860
  116OSM    H1T12100   0.995   6.457   6.635  1.1949  0.4214 -2.9167
  116OSM     NF12101   0.859   6.325   6.817  0.3465 -0.2512 -0.2927
  116OSM    HNF12102   0.892   6.390   6.885 -0.5729 -0.0608 -0.0223
  116OSM    C2S12103   0.951   6.257   6.721  0.0839 -0.3636 -0.2245
  116OSM    H2S12104   0.903   6.166   6.679  0.2774  0.2407 -1.8246
  116OSM    C3S12105   1.098   6.229   6.775 -0.5589 -0.9278  0.0389
  116OSM    H3S12106   1.144   6.330   6.782 -0.5840 -0.8851 -0.4067
  116OSM     O312107   1.180   6.157   6.684 -0.0746  0.5032  0.3405
  116OSM    HO312108   1.154   6.196   6.600 -2.3744  0.8702  1.1336
  116OSM    C4S12109   1.090   6.157   6.907 -0.8558  0.0626 -0.6173
  116OSM    H4S12110   1.099   6.232   6.987  0.2134  0.8071 -1.4253
  116OSM    C5S12111   1.078   6.022   6.924  0.0469 -0.1107 -0.2346
  116OSM    H5S12112   1.068   5.961   6.833  0.8328  0.2437 -0.5638
  116OSM    C6S12113   1.061   5.940   7.050 -0.2303 -0.6889  0.9106
  116OSM    H6S12114   1.135   5.858   7.036  2.6013  1.8921 -0.3014
  116OSM    H6T12115   0.959   5.895   7.052 -0.4987 -0.5191 -2.4365
  116OSM    C7S12116   1.102   6.016   7.172 -0.3422 -0.3532  0.0746
  116OSM    H7S12117   1.048   6.111   7.194  2.0534  1.1019  0.0646
  116OSM    H7T12118   1.207   6.046   7.153  0.8738 -2.7044  2.4307
  116OSM    C8S12119   1.100   5.926   7.296 -0.0978 -0.4808 -0.4043
  116OSM    H8S12120   1.154   5.833   7.270 -0.9819 -0.9732 -0.5248
  116OSM    H8T12121   0.996   5.903   7.327 -0.7849  0.7902 -1.6345
  116OSM    C9S12122   1.186   6.000   7.408 -0.0648  0.4947 -0.2469
  116OSM    H9S12123   1.141   6.101   7.420 -0.6728  0.3145 -0.8931
  116OSM    H9T12124   1.287   6.006   7.363 -0.3968 -0.1200 -1.1266
  116OSM   C10S12125   1.189   5.925   7.530  0.0835  0.1181 -0.6412
  116OSM   H10S12126   1.240   5.830   7.505  0.4206  0.0924  0.1304
  116OSM   H10T12127   1.086   5.896   7.560  0.0436  0.1229 -0.7687
  116OSM   C11S12128   1.253   6.007   7.645  0.4526  0.2635 -0.0764
  116OSM   H11S12129   1.199   6.098   7.679  0.2506 -0.1802  0.8232
  116OSM   H11T12130   1.356   6.031   7.613  0.2860  0.5801 -0.3806
  116OSM   C12S12131   1.262   5.917   7.774  1.1022  0.2965  0.2770
  116OSM   H12S12132   1.323   5.829   7.742  0.1544 -0.5955  0.8785
  116OSM   H12T12133   1.162   5.880   7.802  0.8034 -0.9662 -2.1830
  116OSM   C13S12134   1.338   5.986   7.884  0.0054  0.1282  0.0253
  116OSM   H13S12135   1.327   6.096   7.881  0.1743  0.1287 -1.2320
  116OSM   H13T12136   1.447   5.970   7.878  0.0190  0.7207 -2.7199
  116OSM   C14S12137   1.287   5.954   8.025  0.5682  0.0805 -0.3556
  116OSM   H14S12138   1.302   5.846   8.046  0.5360 -0.2888 -2.1194
  116OSM   H14T12139   1.183   5.993   8.024  0.3387 -0.5336 -1.3475
  116OSM   C15S12140   1.364   6.028   8.132 -0.4271 -0.3381 -0.3538
  116OSM   H15S12141   1.360   6.135   8.102  0.8489 -0.1404  0.1239
  116OSM   H15T12142   1.469   5.994   8.140 -0.7729 -1.3872 -0.0899
  116OSM   C16S12143   1.313   6.010   8.280 -0.8969 -0.7011 -0.1108
  116OSM   H16S12144   1.325   5.904   8.309 -0.4942 -0.4452  0.7019
  116OSM   H16T12145   1.208   6.043   8.293 -0.5917 -0.5557  2.4717
  116OSM   C17S12146   1.396   6.106   8.369  0.3784 -0.2940  0.0512
  116OSM   H17S12147   1.402   6.203   8.314 -4.2768 -1.4262 -3.0750
  116OSM   H17T12148   1.494   6.055   8.370 -0.6350 -2.3435  0.4085
  116OSM   C18S12149   1.346   6.108   8.512  0.4942 -0.0683  0.5337
  116OSM   H18S12150   1.247   6.158   8.516 -0.3068 -1.6385  0.9998
  116OSM   H18T12151   1.429   6.156   8.568  0.4274 -1.1446  1.5923
  116OSM   H18U12152   1.339   6.001   8.543 -1.3853 -0.7622 -1.9696
  116OSM    C1F12153   0.728   6.305   6.815 -0.0460  1.1538  0.5528
  116OSM     OF12154   0.674   6.227   6.740 -0.3347  0.1753 -0.2856
  116OSM    C2F12155   0.641   6.383   6.912 -0.1787 -0.2755 -0.2383
  116OSM    H2F12156   0.553   6.431   6.865  1.8363  2.7663 -1.1977
  116OSM    H2G12157   0.698   6.470   6.951 -1.9550  1.9243 -2.3032
  116OSM    C3F12158   0.584   6.299   7.025  0.9590  0.4383 -0.0761
  116OSM    H3F12159   0.507   6.229   6.987  2.4082 -0.1977 -2.0037
  116OSM    H3G12160   0.524   6.364   7.092 -0.3338 -0.3767 -0.4022
  116OSM    C4F12161   0.689   6.219   7.101 -0.0498  0.7825  0.1897
  116OSM    H4F12162   0.760   6.285   7.157  1.1821  1.2016 -1.7556
  116OSM    H4G12163   0.740   6.149   7.031  2.0161  1.0456  1.3312
  116OSM    C5F12164   0.624   6.136   7.216 -0.4509 -0.4376 -0.4202
  116OSM    H5F12165   0.555   6.065   7.165 -0.0336 -1.0625 -0.1212
  116OSM    H5G12166   0.568   6.204   7.284 -0.6743  1.2439 -2.2001
  116OSM    C6F12167   0.723   6.050   7.298  1.0825 -0.4939  0.8001
  116OSM    H6F12168   0.793   6.008   7.222  2.2728 -0.1529  1.6700
  116OSM    H6G12169   0.670   5.963   7.342  3.1130 -2.4572 -0.3859
  116OSM    C7F12170   0.809   6.132   7.405  0.0481  0.0994  0.0873
  116OSM    H7F12171   0.869   6.213   7.358  1.8820  0.0460  2.2198
  116OSM    H7G12172   0.880   6.053   7.437 -0.7225 -0.4402  0.5118
  116OSM    C8F12173   0.731   6.167   7.534  0.3653 -0.2928 -0.2594
  116OSM    H8F12174   0.679   6.073   7.564 -1.0002 -0.2588 -2.2805
  116OSM    H8G12175   0.649   6.236   7.506 -0.3095 -2.1363 -3.3755
  116OSM    C9F12176   0.834   6.227   7.622  0.1152  0.3677  0.1319
  116OSM    H9F12177   0.869   6.328   7.596 -0.1759  0.6565  0.8697
  116OSM   C10F12178   0.895   6.168   7.725  0.4459 -0.5948 -0.6327
  116OSM   H10F12179   0.973   6.229   7.774 -0.0224 -0.9570  0.5759
  116OSM   C11F12180   0.865   6.032   7.782  0.1138  0.3235 -0.1600
  116OSM   H11F12181   0.926   5.966   7.717 -0.0414  0.3997 -0.3841
  116OSM   H11G12182   0.762   5.998   7.758  0.6052 -0.3863 -1.3510
  116OSM   C12F12183   0.913   5.997   7.927 -0.0317 -0.0578  0.1978
  116OSM   H12F12184   1.016   6.035   7.939  0.8680 -1.7888 -1.4056
  116OSM   H12G12185   0.903   5.888   7.948  0.0954 -0.1917 -0.4084
  116OSM   C13F12186   0.818   6.067   8.024  0.3458  0.5159  0.6864
  116OSM   H13F12187   0.811   6.177   8.008 -1.8793  0.2631 -0.4668
  116OSM   H13G12188   0.860   6.048   8.125 -0.1585 -3.3860  0.3255
  116OSM   C14F12189   0.673   6.018   8.024  0.2921  0.3895 -0.1841
  116OSM   H14F12190   0.684   5.910   8.047  2.1404  0.3787 -0.9072
  116OSM   H14G12191   0.627   6.027   7.923 -1.8072 -0.6934  0.6159
  116OSM   C15F12192   0.588   6.098   8.122  0.1440  0.6782 -0.1612
  116OSM   H15F12193   0.486   6.055   8.132  1.1494 -1.4574  1.8280
  116OSM   H15G12194   0.572   6.201   8.082 -0.3114  1.0018  0.8262
  116OSM   C16F12195   0.635   6.110   8.265  0.1757 -0.4989 -0.5146
  116OSM   H16F12196   0.721   6.175   8.291 -0.6365  0.3491  0.1180
  116OSM   H16G12197   0.662   6.009   8.302  1.3053  0.3784  1.1562
  116OSM   C17F12198   0.519   6.153   8.357 -0.2366 -0.1873  0.1279
  116OSM   H17F12199   0.418   6.108   8.345 -0.2199  0.1689 -1.4892
  116OSM   H17G12200   0.499   6.262   8.343  1.4834 -0.2193 -3.4240
  116OSM   C18F12201   0.558   6.129   8.504  1.0009  0.4784  0.2386
  116OSM   H18F12202   0.649   6.191   8.521  0.5218  1.0942  0.5851
  116OSM   H18G12203   0.571   6.020   8.521 -1.9251 -0.1507 -1.0528
  116OSM   H18H12204   0.472   6.165   8.563  1.2662 -1.2808  1.8037
  117OSM      N12205   5.171   4.435   6.559  0.3514  0.8581 -0.7407
  117OSM    C1512206   5.089   4.480   6.437 -0.0991 -0.7460  0.1423
  117OSM   H15A12207   5.019   4.559   6.460  0.3018  0.0637 -1.2970
  117OSM   H15B12208   5.022   4.404   6.399 -0.8622 -0.1142  0.1931
  117OSM   H15C12209   5.153   4.503   6.354  1.0785 -0.8889  0.9828
  117OSM    C1412210   5.274   4.341   6.503  0.2554 -0.0513 -0.2684
  117OSM   H14A12211   5.306   4.262   6.570 -1.3972 -0.4621  0.0970
  117OSM   H14B12212   5.358   4.394   6.463  1.4047 -1.1581  0.5804
  117OSM   H14C12213   5.241   4.292   6.413  0.0653 -2.0297  0.8096
  117OSM    C1312214   5.224   4.547   6.646  0.2064  0.4638 -0.5671
  117OSM   H13A12215   5.301   4.607   6.600  2.2356  0.0387  2.0201
  117OSM   H13B12216   5.282   4.514   6.731 -1.0203  2.4563  1.1321
  117OSM   H13C12217   5.146   4.613   6.680 -1.1942 -0.0957 -2.5108
  117OSM    C1212218   5.072   4.348   6.646  0.2358 -1.0188  0.0388
  117OSM   H12A12219   5.003   4.415   6.694  1.5278  0.1020  0.4140
  117OSM   H12B12220   5.117   4.293   6.727  2.0269  0.3045  0.0108
  117OSM    C1112221   4.994   4.233   6.566 -0.0190  0.6329 -0.3372
  117OSM   H11A12222   4.930   4.290   6.495 -3.1916 -0.3421  1.4976
  117OSM   H11B12223   4.924   4.187   6.640  0.0448  0.7466 -0.2040
  117OSM      P12224   5.035   3.988   6.475  0.2870 -0.6627  0.0540
  117OSM    O1312225   4.914   3.993   6.387 -0.4487  0.1529  0.2902
  117OSM    O1412226   5.151   3.911   6.434 -0.0985  0.5485  0.0767
  117OSM    O1112227   4.980   3.940   6.612 -0.4782 -0.6083 -0.4260
  117OSM    O1212228   5.071   4.138   6.488  0.3436 -0.2721 -0.3198
  117OSM    C1S12229   5.064   3.949   6.730  0.2580  0.9409 -0.1711
  117OSM    H1S12230   5.157   4.010   6.719 -0.9303  2.4927 -2.4697
  117OSM    H1T12231   5.102   3.845   6.741  2.9770  1.7264 -1.1927
  117OSM     NF12232   5.066   4.007   6.966  0.0411 -0.1172 -0.2008
  117OSM    HNF12233   5.043   3.963   7.052 -1.3042  1.2752  0.1920
  117OSM    C2S12234   4.981   3.992   6.852 -0.0844 -0.6124  0.5228
  117OSM    H2S12235   4.933   4.089   6.830 -5.1632 -3.2944 -1.9230
  117OSM    C3S12236   4.858   3.892   6.882  0.5091  0.2316 -0.4278
  117OSM    H3S12237   4.903   3.790   6.892 -0.6979 -0.4906 -1.9106
  117OSM     O312238   4.776   3.859   6.763 -0.6750  0.1587  0.3532
  117OSM    HO312239   4.821   3.892   6.685 -1.0815  0.6037  0.3021
  117OSM    C4S12240   4.776   3.942   7.008 -0.3120  0.0534 -0.2023
  117OSM    H4S12241   4.799   3.891   7.102 -2.2293  1.4488  1.0855
  117OSM    C5S12242   4.672   4.031   7.002  0.4963  0.5254  1.3256
  117OSM    H5S12243   4.638   4.064   6.903  0.5470 -0.6361  0.9001
  117OSM    C6S12244   4.587   4.092   7.112 -0.3318  0.7114  0.3019
  117OSM    H6S12245   4.491   4.037   7.108  1.5088 -2.7236 -0.8520
  117OSM    H6T12246   4.575   4.201   7.099 -2.0590  0.5968  0.7036
  117OSM    C7S12247   4.653   4.089   7.247  0.2408  0.0829 -0.2836
  117OSM    H7S12248   4.742   4.155   7.255  0.4917 -0.3432  0.6603
  117OSM    H7T12249   4.687   3.987   7.275  1.1019 -0.0091 -1.5983
  117OSM    C8S12250   4.558   4.148   7.354 -0.7385  0.0233  0.1316
  117OSM    H8S12251   4.456   4.110   7.334 -0.0079 -1.4598 -1.0030
  117OSM    H8T12252   4.568   4.254   7.326  2.6607 -0.2977 -0.2985
  117OSM    C9S12253   4.609   4.115   7.491  0.3161 -0.5397 -0.0423
  117OSM    H9S12254   4.703   4.169   7.518  0.4296 -0.9064  0.3090
  117OSM    H9T12255   4.618   4.005   7.502 -1.4456 -0.7659 -0.5685
  117OSM   C10S12256   4.509   4.145   7.602 -0.1601 -0.2268 -0.1331
  117OSM   H10S12257   4.424   4.076   7.582 -1.2930  1.2846 -0.7092
  117OSM   H10T12258   4.484   4.252   7.586  2.3747  0.2357 -1.6689
  117OSM   C11S12259   4.567   4.137   7.738  0.3542  0.0661 -0.8454
  117OSM   H11S12260   4.650   4.210   7.742  1.6553 -1.3821 -0.5243
  117OSM   H11T12261   4.618   4.042   7.764  0.6334  0.4482  0.0575
  117OSM   C12S12262   4.468   4.181   7.845  0.2618  0.9444 -0.1208
  117OSM   H12S12263   4.391   4.101   7.834 -0.3048  1.3788  0.6204
  117OSM   H12T12264   4.413   4.272   7.815 -0.7761  0.3008 -0.2184
  117OSM   C13S12265   4.515   4.178   7.993 -0.9514 -0.2933 -0.1579
  117OSM   H13S12266   4.592   4.254   8.018 -0.6210 -0.4638 -0.6434
  117OSM   H13T12267   4.560   4.079   8.014  1.5941  0.5082 -1.4200
  117OSM   C14S12268   4.393   4.217   8.078 -0.1492 -0.0627 -0.0615
  117OSM   H14S12269   4.324   4.130   8.077 -0.4537  0.1539 -2.2667
  117OSM   H14T12270   4.336   4.302   8.034  1.5519  1.1468 -0.0470
  117OSM   C15S12271   4.441   4.255   8.220 -0.4075  0.0958 -0.3904
  117OSM   H15S12272   4.497   4.350   8.223  4.3067 -2.4188  1.2007
  117OSM   H15T12273   4.529   4.197   8.254 -1.0570 -0.5233  0.2834
  117OSM   C16S12274   4.331   4.246   8.328  0.2600  0.4651 -0.0076
  117OSM   H16S12275   4.285   4.145   8.324 -0.9311  0.9704  0.3663
  117OSM   H16T12276   4.266   4.323   8.280  1.6159 -0.2746 -3.3598
  117OSM   C17S12277   4.385   4.293   8.470 -0.0995 -0.6470  0.8304
  117OSM   H17S12278   4.461   4.223   8.511 -1.6140 -1.6335  2.0392
  117OSM   H17T12279   4.299   4.297   8.539  0.1620  1.3646  1.1003
  117OSM   C18S12280   4.456   4.433   8.464  0.0097  0.1931 -0.1462
  117OSM   H18S12281   4.553   4.441   8.410  1.6883  0.2508  2.6859
  117OSM   H18T12282   4.484   4.470   8.565  2.4643  0.8797 -1.0219
  117OSM   H18U12283   4.379   4.499   8.418  0.3174 -0.4948 -1.7093
  117OSM    C1F12284   5.176   4.091   6.964 -1.1144 -0.2494 -0.3252
  117OSM     OF12285   5.189   4.174   6.875 -0.3847 -0.7414  0.3666
  117OSM    C2F12286   5.285   4.093   7.072 -0.0393 -0.5036  1.4412
  117OSM    H2F12287   5.383   4.067   7.025 -0.6255  0.5265 -0.4709
  117OSM    H2G12288   5.252   4.017   7.145 -4.0050  1.0962  1.5254
  117OSM    C3F12289   5.287   4.235   7.141  0.6930  0.3754  0.2778
  117OSM    H3F12290   5.188   4.239   7.192 -0.2988 -0.3018 -1.4741
  117OSM    H3G12291   5.285   4.311   7.060  0.9581 -1.4897 -1.5802
  117OSM    C4F12292   5.402   4.259   7.233  0.1617  0.5738  0.2870
  117OSM    H4F12293   5.411   4.365   7.265  2.5038  0.0545  1.6547
  117OSM    H4G12294   5.501   4.246   7.183  0.0558 -0.7703  0.4034
  117OSM    C5F12295   5.394   4.179   7.368  1.0435 -0.1678  0.4107
  117OSM    H5F12296   5.415   4.070   7.360 -0.0259 -0.2844 -1.2741
  117OSM    H5G12297   5.288   4.182   7.399  0.9616 -0.8476  0.2260
  117OSM    C6F12298   5.479   4.243   7.481  0.4185 -0.1125 -0.2338
  117OSM    H6F12299   5.445   4.348   7.476  1.0434  0.0763 -0.7299
  117OSM    H6G12300   5.584   4.233   7.443  0.5253 -3.3615  0.6304
  117OSM    C7F12301   5.454   4.188   7.622 -0.0731 -0.0775  0.3379
  117OSM    H7F12302   5.486   4.082   7.631 -0.1970 -0.2451 -1.0444
  117OSM    H7G12303   5.344   4.184   7.636  0.0491 -0.5645  1.2613
  117OSM    C8F12304   5.527   4.260   7.738 -0.4487  0.1935  0.7131
  117OSM    H8F12305   5.635   4.265   7.714 -0.4917 -3.1228 -0.7083
  117OSM    H8G12306   5.513   4.190   7.823  0.6860 -3.0948 -1.6101
  117OSM    C9F12307   5.469   4.397   7.753 -0.2428  0.0681  0.2990
  117OSM    H9F12308   5.452   4.455   7.661 -1.7265 -0.2145  0.3625
  117OSM   C10F12309   5.426   4.450   7.866  0.0845 -0.5442  0.0305
  117OSM   H10F12310   5.375   4.547   7.863  1.1211 -0.0099 -2.1434
  117OSM   C11F12311   5.443   4.398   8.005  0.4421  1.0639  0.0573
  117OSM   H11F12312   5.496   4.300   8.005  0.1393  0.8988  0.9388
  117OSM   H11G12313   5.344   4.402   8.054 -1.1093 -0.9112 -2.6059
  117OSM   C12F12314   5.529   4.495   8.081  0.1087  1.1365 -0.5947
  117OSM   H12F12315   5.599   4.553   8.017 -0.5316  1.8240 -0.6959
  117OSM   H12G12316   5.590   4.438   8.155 -2.6434 -0.4041  0.6187
  117OSM   C13F12317   5.462   4.603   8.164 -0.0091  0.2751 -0.7096
  117OSM   H13F12318   5.377   4.655   8.113 -1.3914 -0.4327  0.8168
  117OSM   H13G12319   5.538   4.679   8.192 -1.5085  1.2718  0.8368
  117OSM   C14F12320   5.421   4.546   8.303 -0.4375 -0.8730 -0.1715
  117OSM   H14F12321   5.508   4.498   8.352  0.4974 -1.2105 -2.0433
  117OSM   H14G12322   5.337   4.474   8.307 -2.2513  1.1496 -0.0843
  117OSM   C15F12323   5.387   4.658   8.402 -0.1559  0.3597 -0.0081
  117OSM   H15F12324   5.315   4.729   8.356 -0.3190  1.6553  2.0855
  117OSM   H15G12325   5.485   4.703   8.429  0.2988 -0.8184  0.3944
  117OSM   C16F12326   5.324   4.612   8.536  0.1104  0.4119 -0.1215
  117OSM   H16F12327   5.387   4.541   8.593 -1.4588 -2.5272 -1.7529
  117OSM   H16G12328   5.228   4.561   8.510  0.3429  0.0017 -0.1863
  117OSM   C17F12329   5.276   4.733   8.630 -0.5468 -0.0242  0.5042
  117OSM   H17F12330   5.362   4.803   8.633 -1.2837  0.9179  0.1250
  117OSM   H17G12331   5.200   4.795   8.578 -0.7595  2.1155  3.1682
  117OSM   C18F12332   5.257   4.687   8.769 -0.4148  0.0012 -0.3655
  117OSM   H18F12333   5.347   4.632   8.804  0.6618  1.3129 -0.9642
  117OSM   H18G12334   5.161   4.633   8.778  0.7895 -2.4978 -1.5770
  117OSM   H18H12335   5.255   4.772   8.841  1.0394 -0.9132  0.7936
  118OSM      N12336   0.350   3.698   6.418  0.3029  0.1876 -0.7452
  118OSM    C1512337   0.480   3.770   6.405  0.3147 -0.2191  0.4785
  118OSM   H15A12338   0.544   3.719   6.334  0.6832  2.9374 -1.6336
  118OSM   H15B12339   0.543   3.769   6.493 -1.3169 -1.9839  1.7054
  118OSM   H15C12340   0.462   3.867   6.362 -2.0840 -1.0374 -0.4769
  118OSM    C1412341   0.261   3.716   6.307 -0.6990 -1.2271 -0.5461
  118OSM   H14A12342   0.303   3.723   6.207 -1.3582 -0.1415 -0.7736
  118OSM   H14B12343   0.204   3.807   6.319 -1.2989 -1.6521 -0.1159
  118OSM   H14C12344   0.187   3.638   6.298 -0.5015 -1.2221 -2.8889
  118OSM    C1312345   0.376   3.549   6.425 -0.0232  0.1161  0.1723
  118OSM   H13A12346   0.431   3.522   6.514 -1.4516 -1.2680  0.6833
  118OSM   H13B12347   0.434   3.513   6.341  1.6851  2.4586  0.2627
  118OSM   H13C12348   0.283   3.495   6.437 -0.0701  0.5960  2.5252
  118OSM    C1212349   0.283   3.733   6.557 -0.0865  0.6984 -0.2587
  118OSM   H12A12350   0.349   3.711   6.640  1.2371  1.5038 -1.0683
  118OSM   H12B12351   0.207   3.656   6.561  0.6209 -0.0517 -1.0002
  118OSM    C1112352   0.238   3.875   6.578  0.1031 -0.6609 -0.3650
  118OSM   H11A12353   0.328   3.938   6.569 -1.9557  2.1909 -2.9676
  118OSM   H11B12354   0.192   3.893   6.678 -0.0013 -0.9449 -0.3593
  118OSM      P12355   0.090   4.048   6.450 -0.1890 -0.0585 -0.1941
  118OSM    O1312356   0.206   4.140   6.420  0.8517  1.1179 -0.6938
  118OSM    O1412357  -0.013   4.040   6.351  0.0576 -0.0529  0.7458
  118OSM    O1112358   0.019   4.084   6.590 -0.2952  0.2816  0.1354
  118OSM    O1212359   0.139   3.910   6.479  0.2352 -0.5198  0.1288
  118OSM    C1S12360  -0.104   4.017   6.628 -0.2321 -0.1679 -0.1552
  118OSM    H1S12361  -0.104   3.912   6.591 -0.7667  0.0853 -0.9058
  118OSM    H1T12362  -0.195   4.066   6.586  0.0951  0.0693 -0.6017
  118OSM     NF12363  -0.245   3.942   6.826 -0.0714 -0.1681  0.9489
  118OSM    HNF12364  -0.317   4.004   6.856  0.6514  1.7888 -1.1276
  118OSM    C2S12365  -0.119   4.008   6.781  0.1840  0.0088 -0.2538
  118OSM    H2S12366  -0.037   3.945   6.823  1.9189  2.4199  0.1834
  118OSM    C3S12367  -0.101   4.146   6.852 -0.1546  0.5851  0.5552
  118OSM    H3S12368  -0.188   4.207   6.820  0.0723  1.3140  1.2964
  118OSM     O312369   0.012   4.220   6.812 -0.1611  0.3404  0.4221
  118OSM    HO312370   0.046   4.156   6.750 -0.2624 -0.0651  0.7723
  118OSM    C4S12371  -0.105   4.114   6.998 -0.0443 -0.1504 -0.2714
  118OSM    H4S12372  -0.201   4.131   7.048 -0.3539 -0.6517 -0.6946
  118OSM    C5S12373  -0.002   4.061   7.066  0.4246  0.6242  0.1801
  118OSM    H5S12374   0.088   4.024   7.013 -1.4313 -1.4313 -1.7521
  118OSM    C6S12375  -0.001   4.033   7.214  0.9209  0.0810  0.3451
  118OSM    H6S12376   0.086   4.091   7.251 -0.3124  1.6419  0.8876
  118OSM    H6T12377   0.033   3.929   7.237  0.1712 -0.2978 -0.2262
  118OSM    C7S12378  -0.124   4.064   7.294  0.3006  0.8062 -0.2305
  118OSM    H7S12379  -0.211   4.017   7.243  0.3202 -1.3418  1.5988
  118OSM    H7T12380  -0.139   4.175   7.294  1.1117  0.9489  1.9518
  118OSM    C8S12381  -0.123   4.013   7.445  0.4063 -0.4560 -0.6841
  118OSM    H8S12382  -0.193   4.082   7.497  1.0633 -0.6842  0.5531
  118OSM    H8T12383  -0.019   4.018   7.483  0.6739 -3.6440 -0.7293
  118OSM    C9S12384  -0.180   3.866   7.464  0.4194 -0.1341  0.1422
  118OSM    H9S12385  -0.127   3.788   7.405  0.9078  0.3163 -0.0299
  118OSM    H9T12386  -0.277   3.871   7.411  1.9952  0.0239 -2.9807
  118OSM   C10S12387  -0.189   3.817   7.618 -0.1355 -0.0471  0.2958
  118OSM   H10S12388  -0.241   3.719   7.614  0.8225 -0.5513  0.0242
  118OSM   H10T12389  -0.262   3.890   7.660 -1.7100 -0.5332 -1.4813
  118OSM   C11S12390  -0.062   3.799   7.698 -0.2821 -0.2925  0.0192
  118OSM   H11S12391  -0.002   3.893   7.695 -0.2361 -0.3382 -0.5376
  118OSM   H11T12392   0.002   3.714   7.665 -0.8516 -0.3729 -0.9087
  118OSM   C12S12393  -0.102   3.781   7.845 -0.0093  0.4136  0.9775
  118OSM   H12S12394  -0.183   3.705   7.854 -0.9881  1.0211 -1.9014
  118OSM   H12T12395  -0.148   3.874   7.884 -2.0260  0.0278 -0.3461
  118OSM   C13S12396   0.013   3.715   7.917  0.0426 -0.2169  0.5523
  118OSM   H13S12397   0.100   3.783   7.932 -0.9058  0.4904  3.3229
  118OSM   H13T12398   0.058   3.621   7.878  0.0854 -0.7628  1.8662
  118OSM   C14S12399  -0.036   3.678   8.056 -0.3284  0.0688 -0.5426
  118OSM   H14S12400   0.047   3.620   8.101 -0.9992  0.1604  0.8774
  118OSM   H14T12401  -0.125   3.611   8.055  0.1081 -0.5809  1.0353
  118OSM   C15S12402  -0.059   3.800   8.155  0.6456  0.3826 -0.6045
  118OSM   H15S12403  -0.137   3.866   8.110  0.8439  1.2941  0.3554
  118OSM   H15T12404   0.040   3.848   8.146  1.2745 -0.5558  1.0574
  118OSM   C16S12405  -0.095   3.758   8.302 -0.4704 -0.4001  0.1713
  118OSM   H16S12406  -0.025   3.680   8.339 -1.5927 -1.1168  0.8524
  118OSM   H16T12407  -0.195   3.710   8.315  0.3801 -1.9339  1.5441
  118OSM   C17S12408  -0.076   3.878   8.399  0.2753 -0.2556 -0.2202
  118OSM   H17S12409  -0.139   3.959   8.358  0.8012  1.4557  2.1001
  118OSM   H17T12410   0.030   3.913   8.396 -0.2504  1.6075  1.0821
  118OSM   C18S12411  -0.111   3.859   8.545 -0.2894  0.4975  0.2970
  118OSM   H18S12412  -0.052   3.778   8.592  2.0571  0.5455 -2.3237
  118OSM   H18T12413  -0.215   3.820   8.538 -0.2470  0.7033 -2.8251
  118OSM   H18U12414  -0.106   3.956   8.598 -1.2116  1.2597 -0.9621
  118OSM    C1F12415  -0.281   3.813   6.804 -0.2409  0.0624  0.5415
  118OSM     OF12416  -0.213   3.739   6.735 -0.1785 -0.3036 -0.4137
  118OSM    C2F12417  -0.418   3.769   6.857 -0.2738 -0.4056 -1.0142
  118OSM    H2F12418  -0.418   3.658   6.862  1.9651 -0.4122  1.0396
  118OSM    H2G12419  -0.490   3.820   6.790  1.3251  2.7782 -0.5440
  118OSM    C3F12420  -0.431   3.820   7.003  1.3199  0.6773  0.3999
  118OSM    H3F12421  -0.531   3.788   7.040  2.0908 -0.3434  1.6816
  118OSM    H3G12422  -0.417   3.930   7.012 -0.5519  0.9500  0.4735
  118OSM    C4F12423  -0.329   3.776   7.105  0.0783 -0.2287 -0.1906
  118OSM    H4F12424  -0.374   3.813   7.199 -2.1293 -0.8457 -0.9285
  118OSM    H4G12425  -0.236   3.828   7.075 -0.2625 -0.8542 -2.5663
  118OSM    C5F12426  -0.323   3.623   7.112  0.1019 -0.5767  0.3730
  118OSM    H5F12427  -0.270   3.591   7.020  0.1757 -1.6384  0.7649
  118OSM    H5G12428  -0.426   3.580   7.114  1.1219 -3.2365 -0.2103
  118OSM    C6F12429  -0.261   3.580   7.240  0.2676  0.1036  0.3504
  118OSM    H6F12430  -0.331   3.599   7.324 -1.0921 -1.7831 -0.3036
  118OSM    H6G12431  -0.165   3.634   7.254  0.9658 -0.3584 -2.1257
  118OSM    C7F12432  -0.228   3.432   7.251 -0.3600 -0.5685 -0.6053
  118OSM    H7F12433  -0.155   3.409   7.170  0.6894  0.4282  0.0193
  118OSM    H7G12434  -0.325   3.382   7.228 -1.4035  1.9447 -2.1366
  118OSM    C8F12435  -0.164   3.404   7.382  0.2557  0.3038  0.2919
  118OSM    H8F12436  -0.090   3.484   7.405  1.3760  0.7178 -3.9292
  118OSM    H8G12437  -0.109   3.309   7.362 -0.7782 -0.4605  0.9750
  118OSM    C9F12438  -0.271   3.397   7.495 -0.6722  0.3355 -0.1534
  118OSM    H9F12439  -0.373   3.407   7.454 -0.3904  3.5933 -0.3165
  118OSM   C10F12440  -0.240   3.379   7.625  0.6466 -0.1454  0.0881
  118OSM   H10F12441  -0.324   3.373   7.696  0.5475  2.3476  0.2798
  118OSM   C11F12442  -0.100   3.360   7.665  0.3022 -0.0220 -0.4338
  118OSM   H11F12443  -0.070   3.447   7.728 -1.7189  0.2191  0.2725
  118OSM   H11G12444  -0.021   3.363   7.587 -1.1208 -0.1648 -1.9114
  118OSM   C12F12445  -0.077   3.236   7.761  0.3195 -0.0692  0.2381
  118OSM   H12F12446   0.027   3.241   7.801  0.1319 -0.0681  0.7407
  118OSM   H12G12447  -0.083   3.138   7.708 -0.0656 -0.5743  1.1841
  118OSM   C13F12448  -0.157   3.221   7.894  0.2697  0.0295  1.5930
  118OSM   H13F12449  -0.118   3.133   7.951 -0.6054 -0.2094  1.8434
  118OSM   H13G12450  -0.264   3.200   7.869 -0.5628  3.8563  1.2537
  118OSM   C14F12451  -0.164   3.345   7.988  0.4843 -0.0407 -0.2763
  118OSM   H14F12452  -0.240   3.408   7.937  1.6580 -0.4698 -2.7291
  118OSM   H14G12453  -0.064   3.393   7.986 -0.1453  1.3517  0.4534
  118OSM   C15F12454  -0.200   3.313   8.137  0.9354  0.3446 -0.2429
  118OSM   H15F12455  -0.231   3.408   8.185 -1.0973 -0.6180  0.4450
  118OSM   H15G12456  -0.112   3.265   8.186  0.7597 -0.1415 -0.3928
  118OSM   C16F12457  -0.318   3.214   8.166  0.3251  0.1974 -0.0813
  118OSM   H16F12458  -0.277   3.114   8.143  1.2280  0.6207 -0.3532
  118OSM   H16G12459  -0.390   3.249   8.089  0.1164  0.1162  0.0738
  118OSM   C17F12460  -0.380   3.220   8.303  0.5759 -0.0149 -0.4869
  118OSM   H17F12461  -0.364   3.321   8.348  1.2771 -0.7318  0.9182
  118OSM   H17G12462  -0.316   3.166   8.376  0.8914 -0.1122 -0.8342
  118OSM   C18F12463  -0.527   3.168   8.313 -0.6802 -0.0274 -0.3150
  118OSM   H18F12464  -0.571   3.155   8.415  1.3280  1.3752  0.7905
  118OSM   H18G12465  -0.545   3.075   8.255 -2.2751 -0.2138  0.4154
  118OSM   H18H12466  -0.601   3.241   8.273  0.8706  2.5518  1.2526
  119OSM      N12467   0.971   2.829   6.051  0.1587  0.1982 -0.3066
  119OSM    C1512468   1.091   2.865   5.967 -0.0882 -0.7036  0.0602
  119OSM   H15A12469   1.112   2.967   5.997 -0.6465 -0.8039  0.8087
  119OSM   H15B12470   1.078   2.864   5.860  0.4457  0.2649 -0.0268
  119OSM   H15C12471   1.170   2.793   5.984  1.4630  1.1163  0.9587
  119OSM    C1412472   0.851   2.907   6.020  0.2515 -0.9740  0.3033
  119OSM   H14A12473   0.829   2.901   5.915  1.8345  0.1833 -0.1306
  119OSM   H14B12474   0.881   3.007   6.047 -1.4547 -1.5664  5.5550
  119OSM   H14C12475   0.771   2.888   6.090  1.8617  0.5125  2.7148
  119OSM    C1312476   0.929   2.689   6.024 -0.0357  0.2692 -1.3341
  119OSM   H13A12477   1.017   2.627   6.033  1.3025  2.3366  2.3666
  119OSM   H13B12478   0.905   2.691   5.919  0.0402  0.7906 -1.3451
  119OSM   H13C12479   0.840   2.664   6.080  0.9390 -0.2063  0.0499
  119OSM    C1212480   0.998   2.849   6.200  0.9217 -0.0678  0.0241
  119OSM   H12A12481   1.056   2.771   6.247  0.3286  0.0625  1.0084
  119OSM   H12B12482   0.908   2.842   6.260  0.4807  0.8685 -0.4989
  119OSM    C1112483   1.067   2.983   6.246 -0.9858 -0.0710  0.8633
  119OSM   H11A12484   1.177   2.975   6.229 -1.0185 -2.2785  1.4220
  119OSM   H11B12485   1.043   2.985   6.354  0.2953 -1.5535  1.2141
  119OSM      P12486   1.108   3.218   6.140  0.1096 -0.1715 -0.0826
  119OSM    O1312487   1.199   3.181   6.031  0.5940 -0.4946  0.2129
  119OSM    O1412488   1.027   3.335   6.118 -0.0109  0.1198 -0.3662
  119OSM    O1112489   1.186   3.252   6.271  0.5288  1.2877 -0.4810
  119OSM    O1212490   1.011   3.104   6.174  0.1579 -0.7265 -0.2534
  119OSM    C1S12491   1.109   3.296   6.386 -0.2255  0.8590 -0.4070
  119OSM    H1S12492   1.102   3.211   6.457  1.5621 -1.3847 -2.7386
  119OSM    H1T12493   1.001   3.318   6.369 -0.4576  0.0380 -0.0915
  119OSM     NF12494   1.109   3.413   6.608  0.6835  0.2236  0.0349
  119OSM    HNF12495   1.062   3.499   6.624 -0.7358 -0.7078  1.1366
  119OSM    C2S12496   1.189   3.395   6.483  0.0644 -0.4796  0.2241
  119OSM    H2S12497   1.280   3.336   6.508 -0.4597 -0.5246  2.1879
  119OSM    C3S12498   1.221   3.531   6.412 -0.9355 -0.3108 -0.4793
  119OSM    H3S12499   1.120   3.570   6.385 -0.9750  0.4150  0.6262
  119OSM     O312500   1.290   3.517   6.289  0.4075 -0.9549  0.0844
  119OSM    HO312501   1.302   3.423   6.276 -1.4951 -1.3044  0.4412
  119OSM    C4S12502   1.293   3.626   6.511  0.1890  0.0435  0.1418
  119OSM    H4S12503   1.230   3.685   6.579  2.2214  1.8413  0.6040
  119OSM    C5S12504   1.429   3.634   6.525  0.3137 -1.0072  0.4247
  119OSM    H5S12505   1.499   3.566   6.475 -0.2020 -1.4709  0.3218
  119OSM    C6S12506   1.487   3.733   6.625 -0.0955 -0.1924 -0.1188
  119OSM    H6S12507   1.563   3.794   6.571  0.2607  0.2024  0.8123
  119OSM    H6T12508   1.564   3.673   6.678 -0.9752 -1.9517 -0.7626
  119OSM    C7S12509   1.407   3.828   6.721  0.7043 -0.1382 -0.2319
  119OSM    H7S12510   1.345   3.760   6.783  0.3408  1.2246  0.9568
  119OSM    H7T12511   1.336   3.894   6.668  0.8110  1.1342  1.1543
  119OSM    C8S12512   1.496   3.914   6.802 -0.4652 -0.2831  0.3606
  119OSM    H8S12513   1.556   3.980   6.736  1.5575 -1.4516  0.9587
  119OSM    H8T12514   1.568   3.844   6.850  0.8277  0.1360 -0.8981
  119OSM    C9S12515   1.413   3.985   6.907  0.0168 -0.2344  0.2632
  119OSM    H9S12516   1.349   3.913   6.961  0.7592 -1.1669 -0.0701
  119OSM    H9T12517   1.341   4.058   6.865  0.1357  0.7563  1.7211
  119OSM   C10S12518   1.508   4.056   7.000 -0.0460  0.1030 -0.3162
  119OSM   H10S12519   1.563   4.143   6.960 -0.9600  0.2727 -1.2558
  119OSM   H10T12520   1.596   3.993   7.024 -0.6856 -0.9273 -0.5803
  119OSM   C11S12521   1.435   4.097   7.135 -1.0228 -0.3446 -0.7630
  119OSM   H11S12522   1.388   4.011   7.187  0.2508  0.0301  1.1010
  119OSM   H11T12523   1.355   4.163   7.095  0.2210  1.6485 -0.0817
  119OSM   C12S12524   1.531   4.156   7.242 -0.1558 -0.2715  0.6328
  119OSM   H12S12525   1.609   4.084   7.277  0.4399  0.2810  0.4623
  119OSM   H12T12526   1.477   4.156   7.339  0.7689 -0.0513  1.1622
  119OSM   C13S12527   1.601   4.292   7.203 -0.8707  0.4231 -0.6671
  119OSM   H13S12528   1.519   4.356   7.165 -1.1139 -0.0845 -1.0114
  119OSM   H13T12529   1.672   4.285   7.118  1.0800  0.4395  0.9020
  119OSM   C14S12530   1.686   4.352   7.311 -0.6017 -0.6045  0.3506
  119OSM   H14S12531   1.742   4.434   7.263 -3.3503  0.3815 -1.3973
  119OSM   H14T12532   1.769   4.286   7.346 -0.0255  0.0557  0.2444
  119OSM   C15S12533   1.595   4.398   7.430  0.1171  1.3873 -0.5205
  119OSM   H15S12534   1.571   4.307   7.490  2.1259  1.3402  0.2862
  119OSM   H15T12535   1.503   4.437   7.383 -0.7741  1.1354  0.9335
  119OSM   C16S12536   1.669   4.504   7.516 -0.2395 -0.8538 -0.2460
  119OSM   H16S12537   1.675   4.589   7.445  0.5739 -0.6515  0.0560
  119OSM   H16T12538   1.771   4.470   7.543  0.0743  1.3724  1.6888
  119OSM   C17S12539   1.593   4.523   7.640  0.3791  0.0679  0.2316
  119OSM   H17S12540   1.582   4.420   7.680  0.0664 -0.5850 -1.4586
  119OSM   H17T12541   1.494   4.570   7.621  0.5892  0.5732  0.3854
  119OSM   C18S12542   1.665   4.605   7.737  0.1238 -0.0455  0.5498
  119OSM   H18S12543   1.634   4.581   7.841  0.8245  0.8723  0.9819
  119OSM   H18T12544   1.636   4.712   7.732 -0.9521 -0.3276  0.4333
  119OSM   H18U12545   1.775   4.595   7.729  0.0569 -0.4144  0.0098
  119OSM    C1F12546   1.090   3.321   6.705  0.0769 -0.8056  0.3037
  119OSM     OF12547   1.167   3.228   6.717 -0.5224 -0.3186  0.3485
  119OSM    C2F12548   0.974   3.339   6.801  0.1168 -0.3552  0.7116
  119OSM    H2F12549   0.900   3.257   6.786 -0.3015  0.1887 -0.3319
  119OSM    H2G12550   0.927   3.436   6.774 -0.4629 -0.6957  0.4599
  119OSM    C3F12551   1.024   3.347   6.940 -0.1225 -0.3176  0.2287
  119OSM    H3F12552   1.096   3.267   6.968  0.2451 -0.5549 -1.3030
  119OSM    H3G12553   0.942   3.333   7.013 -2.0176  1.4069 -1.4612
  119OSM    C4F12554   1.087   3.489   6.965  0.4515 -0.0432  0.3717
  119OSM    H4F12555   1.016   3.559   6.917  0.8106 -0.3627 -0.6572
  119OSM    H4G12556   1.187   3.500   6.918 -0.2950  0.6947 -1.0910
  119OSM    C5F12557   1.092   3.515   7.116  0.3142  0.4861 -0.1307
  119OSM    H5F12558   1.169   3.446   7.157 -1.2128 -0.6289  0.9809
  119OSM    H5G12559   0.992   3.485   7.154 -0.3776  3.4571  0.6446
  119OSM    C6F12560   1.121   3.659   7.159  0.0331 -0.3999 -0.4013
  119OSM    H6F12561   1.041   3.729   7.125  0.8418  0.7207 -0.0480
  119OSM    H6G12562   1.219   3.689   7.117 -0.4180  0.4393 -0.8819
  119OSM    C7F12563   1.132   3.675   7.309  0.2675 -0.6037 -0.1420
  119OSM    H7F12564   1.206   3.619   7.370  3.0297  2.3043 -0.5945
  119OSM    H7G12565   1.029   3.641   7.335 -0.9333  0.2360 -3.3467
  119OSM    C8F12566   1.150   3.822   7.361 -0.1163  0.2329  0.3592
  119OSM    H8F12567   1.092   3.902   7.310  0.1342 -0.6147 -1.3300
  119OSM    H8G12568   1.258   3.839   7.340  0.2590 -0.4761  1.6569
  119OSM    C9F12569   1.133   3.815   7.508  0.0416 -0.2239 -0.6448
  119OSM    H9F12570   1.046   3.769   7.555  0.0384  0.8990  0.4853
  119OSM   C10F12571   1.220   3.854   7.602 -0.3379 -0.0811 -0.0035
  119OSM   H10F12572   1.197   3.837   7.708  0.9295 -1.5464  0.0765
  119OSM   C11F12573   1.363   3.915   7.575  0.1272  0.1085  0.0858
  119OSM   H11F12574   1.398   3.914   7.469  1.3897  1.1442  0.4725
  119OSM   H11G12575   1.442   3.861   7.631  0.9960  1.1690 -0.0624
  119OSM   C12F12576   1.374   4.057   7.637 -0.3911 -0.5223 -0.3459
  119OSM   H12F12577   1.306   4.131   7.590  1.1616  1.8367  0.9270
  119OSM   H12G12578   1.476   4.097   7.617  0.8218 -2.0325  2.2465
  119OSM   C13F12579   1.338   4.069   7.783  0.0133 -0.7036 -0.3085
  119OSM   H13F12580   1.245   4.017   7.813  1.3005 -2.2807  1.1822
  119OSM   H13G12581   1.329   4.178   7.799 -0.6435 -0.9779  1.4618
  119OSM   C14F12582   1.443   4.009   7.884  0.2296 -0.7092  0.0538
  119OSM   H14F12583   1.547   4.037   7.855  0.4737 -0.1014  1.4365
  119OSM   H14G12584   1.448   3.899   7.869 -1.3741 -0.7377 -0.4931
  119OSM   C15F12585   1.409   4.050   8.027 -0.3158  0.0517  1.0456
  119OSM   H15F12586   1.403   4.158   8.052  2.2694  0.3791  0.5574
  119OSM   H15G12587   1.493   4.016   8.092 -0.1615 -1.4693  0.1008
  119OSM   C16F12588   1.285   3.973   8.085 -0.3237  0.4429  0.0550
  119OSM   H16F12589   1.283   3.868   8.048  0.3651 -0.0895  1.4571
  119OSM   H16G12590   1.195   4.029   8.053 -1.5449 -0.9972  0.8343
  119OSM   C17F12591   1.283   3.959   8.240 -0.3024  0.6592 -0.3271
  119OSM   H17F12592   1.349   3.870   8.252 -2.0229 -1.1386 -3.0433
  119OSM   H17G12593   1.177   3.940   8.265 -0.7521  2.3079 -0.9095
  119OSM   C18F12594   1.333   4.080   8.317  0.6676 -0.0807  0.2350
  119OSM   H18F12595   1.441   4.096   8.298  0.3004  0.5249 -1.6018
  119OSM   H18G12596   1.323   4.056   8.425 -2.5020  2.3872  0.6466
  119OSM   H18H12597   1.266   4.167   8.300 -1.5782 -1.3831  1.7767
  120OSM      N12598   0.820   0.627   6.477  0.1961  0.0379  0.0854
  120OSM    C1512599   0.905   0.505   6.495  0.1485  0.8090  0.2724
  120OSM   H15A12600   0.931   0.456   6.402 -0.2453 -0.9575  1.0555
  120OSM   H15B12601   0.846   0.429   6.544  0.9322  0.3153  0.4608
  120OSM   H15C12602   0.998   0.536   6.540  0.4747  0.0348  0.1507
  120OSM    C1412603   0.908   0.745   6.416  0.6125  0.3587 -0.4118
  120OSM   H14A12604   0.841   0.826   6.393 -0.1820 -0.6491 -1.7606
  120OSM   H14B12605   0.955   0.698   6.331  2.2267 -0.9436  1.0859
  120OSM   H14C12606   0.992   0.776   6.478  0.5494 -1.1417  0.4862
  120OSM    C1312607   0.714   0.592   6.375 -0.1761 -0.3776 -0.0750
  120OSM   H13A12608   0.640   0.671   6.372 -0.3843 -0.6012 -1.8868
  120OSM   H13B12609   0.662   0.506   6.414 -2.9237  1.1575 -0.0884
  120OSM   H13C12610   0.749   0.576   6.275  0.6629 -1.8799  0.4363
  120OSM    C1212611   0.764   0.668   6.611 -0.5805  0.1883 -1.1139
  120OSM   H12A12612   0.842   0.667   6.686 -2.9857 -1.2040  1.5560
  120OSM   H12B12613   0.700   0.591   6.651 -1.2007  2.2337  2.2791
  120OSM    C1112614   0.680   0.800   6.628 -0.0238  0.7772 -0.0336
  120OSM   H11A12615   0.733   0.881   6.573  3.0558 -2.1676 -1.7329
  120OSM   H11B12616   0.687   0.831   6.735  1.1271  1.2470 -0.2211
  120OSM      P12617   0.457   0.891   6.542  0.2451  0.4820  0.2313
  120OSM    O1312618   0.505   0.963   6.423 -0.6624  0.3925 -0.3942
  120OSM    O1412619   0.320   0.830   6.542  0.2975 -0.2655 -0.5220
  120OSM    O1112620   0.479   0.981   6.668 -0.2511  0.1874  0.4197
  120OSM    O1212621   0.551   0.767   6.581 -0.4970  0.6098 -0.5793
  120OSM    C1S12622   0.421   0.927   6.792  0.3171  0.4289 -0.5783
  120OSM    H1S12623   0.457   0.824   6.813 -1.9830 -0.2845  0.1904
  120OSM    H1T12624   0.310   0.925   6.787  0.2751  0.1216  0.2669
  120OSM     NF12625   0.413   0.956   7.044  0.2028  0.0554 -0.2706
  120OSM    HNF12626   0.350   1.010   7.099 -0.0921 -0.3233 -0.2301
  120OSM    C2S12627   0.471   1.009   6.923  0.7578  0.5475  0.2417
  120OSM    H2S12628   0.581   0.996   6.932  0.4552 -1.7623  1.1601
  120OSM    C3S12629   0.438   1.163   6.897 -0.3532  0.2135  0.2357
  120OSM    H3S12630   0.329   1.179   6.889 -0.1713  0.5253 -2.5738
  120OSM     O312631   0.498   1.216   6.776  0.6569 -0.2668  0.2349
  120OSM    HO312632   0.489   1.135   6.724 -1.1493  1.0868 -1.7058
  120OSM    C4S12633   0.485   1.241   7.018 -0.3893 -0.0294 -0.4119
  120OSM    H4S12634   0.595   1.246   7.022 -0.3506 -1.1878  0.2710
  120OSM    C5S12635   0.421   1.319   7.102  0.2848  0.2808 -0.1452
  120OSM    H5S12636   0.315   1.335   7.075  0.5910 -1.5504 -2.8586
  120OSM    C6S12637   0.476   1.390   7.221 -0.0792 -0.1515 -0.4907
  120OSM    H6S12638   0.453   1.498   7.208  1.6960  0.2896 -0.1509
  120OSM    H6T12639   0.587   1.380   7.221 -0.0804 -1.4952 -4.0216
  120OSM    C7S12640   0.418   1.335   7.351 -0.2743  0.2037  0.2654
  120OSM    H7S12641   0.307   1.331   7.344 -0.1879 -2.9994 -1.2354
  120OSM    H7T12642   0.439   1.404   7.436  0.1102 -1.9776  2.0533
  120OSM    C8S12643   0.463   1.196   7.406 -0.3857  0.0989  0.5708
  120OSM    H8S12644   0.566   1.208   7.444  0.2259 -1.1210 -0.6489
  120OSM    H8T12645   0.467   1.122   7.324  3.0229 -0.9231  1.4918
  120OSM    C9S12646   0.372   1.137   7.514 -0.8319  0.2274 -0.3070
  120OSM    H9S12647   0.399   1.032   7.490  0.8114  0.9848 -2.0363
  120OSM    H9T12648   0.265   1.154   7.488 -0.9946  1.5399  1.0799
  120OSM   C10S12649   0.416   1.186   7.659  0.7094  0.3087  0.0610
  120OSM   H10S12650   0.396   1.295   7.655 -0.6446  0.0679 -0.4627
  120OSM   H10T12651   0.525   1.180   7.678  0.5768 -0.0442  0.7518
  120OSM   C11S12652   0.333   1.115   7.773 -0.9363  0.3408  0.7285
  120OSM   H11S12653   0.339   1.013   7.730 -0.8572  0.9096 -0.6710
  120OSM   H11T12654   0.231   1.160   7.768 -0.0837  2.2069 -2.3881
  120OSM   C12S12655   0.412   1.133   7.908  0.0306 -0.3946  0.1080
  120OSM   H12S12656   0.427   1.243   7.916 -2.0429 -0.0566 -0.1645
  120OSM   H12T12657   0.513   1.087   7.909 -0.8084 -2.3946 -0.3950
  120OSM   C13S12658   0.327   1.087   8.027  0.1119  0.2659  0.4892
  120OSM   H13S12659   0.320   0.978   8.006  3.6329 -0.2304  1.1821
  120OSM   H13T12660   0.227   1.133   8.014  0.6065  0.5630 -3.6577
  120OSM   C14S12661   0.412   1.114   8.153 -0.1216 -0.2471  0.2923
  120OSM   H14S12662   0.424   1.225   8.153 -1.2409 -0.1072  0.1802
  120OSM   H14T12663   0.511   1.065   8.143 -0.4501 -0.8995  0.1916
  120OSM   C15S12664   0.368   1.057   8.284  0.7086 -0.3432  0.3244
  120OSM   H15S12665   0.453   1.039   8.353  0.1662 -1.0910  0.8191
  120OSM   H15T12666   0.322   0.959   8.258 -1.6966  0.3730  1.5544
  120OSM   C16S12667   0.270   1.151   8.360  0.3709 -0.1844  0.5339
  120OSM   H16S12668   0.215   1.217   8.290  3.3977  0.0263 -1.8298
  120OSM   H16T12669   0.335   1.226   8.410 -0.0161  0.7248 -0.2917
  120OSM   C17S12670   0.183   1.071   8.458 -0.3803  0.2997 -0.5421
  120OSM   H17S12671   0.236   1.000   8.525 -0.3881 -0.6974 -1.5560
  120OSM   H17T12672   0.109   1.014   8.398 -1.5605 -0.4062  1.5066
  120OSM   C18S12673   0.109   1.167   8.545  0.2989  0.0345 -0.3830
  120OSM   H18S12674   0.169   1.213   8.626  0.7011 -1.4823  0.2038
  120OSM   H18T12675   0.022   1.114   8.589 -1.2421  1.1818 -1.8949
  120OSM   H18U12676   0.075   1.255   8.486 -0.1566  0.8394  1.0397
  120OSM    C1F12677   0.444   0.841   7.098 -0.6822  0.9578 -0.3770
  120OSM     OF12678   0.521   0.773   7.033 -0.3958 -0.0909  0.0390
  120OSM    C2F12679   0.391   0.803   7.238  0.1051 -0.1755  0.2556
  120OSM    H2F12680   0.360   0.696   7.238  0.7972 -0.3887 -0.7704
  120OSM    H2G12681   0.305   0.864   7.273  0.4875 -0.9490  2.7689
  120OSM    C3F12682   0.506   0.807   7.341 -0.2428 -0.0567 -0.0675
  120OSM    H3F12683   0.554   0.906   7.356 -0.3811 -0.0755  0.5045
  120OSM    H3G12684   0.586   0.742   7.301 -1.4041 -0.2523 -2.2748
  120OSM    C4F12685   0.445   0.755   7.474  0.1205 -0.1522 -0.3655
  120OSM    H4F12686   0.428   0.646   7.475 -2.0980  0.1272  1.3822
  120OSM    H4G12687   0.341   0.794   7.486 -0.0816 -0.4421 -1.0951
  120OSM    C5F12688   0.537   0.786   7.593 -0.6968  0.0108  0.0789
  120OSM    H5F12689   0.556   0.895   7.607  1.7332 -0.4449  0.8186
  120OSM    H5G12690   0.635   0.742   7.568 -1.7731 -0.9981 -2.7497
  120OSM    C6F12691   0.483   0.724   7.720  0.3556  0.6908  0.1927
  120OSM    H6F12692   0.484   0.614   7.704  1.9308  0.8393 -1.0255
  120OSM    H6G12693   0.377   0.755   7.733 -0.3851 -1.8932  0.8761
  120OSM    C7F12694   0.580   0.750   7.840 -0.2704  0.2698 -0.0245
  120OSM    H7F12695   0.608   0.857   7.842  2.2015 -0.3255  0.3239
  120OSM    H7G12696   0.677   0.697   7.842 -0.7220 -0.5671  1.3497
  120OSM    C8F12697   0.511   0.744   7.979  0.7038 -0.0368  0.2738
  120OSM    H8F12698   0.412   0.790   7.963  0.8090 -0.5273 -2.0628
  120OSM    H8G12699   0.558   0.816   8.050 -1.0698  1.6728 -0.2205
  120OSM    C9F12700   0.494   0.611   8.049 -0.2030 -0.6471 -0.4232
  120OSM    H9F12701   0.414   0.551   8.004 -0.1566 -0.4639 -0.7526
  120OSM   C10F12702   0.573   0.553   8.151 -0.0405 -0.3228  0.1484
  120OSM   H10F12703   0.540   0.459   8.199 -0.8060 -0.1200  0.0372
  120OSM   C11F12704   0.687   0.616   8.231  0.3692  0.6219 -0.7477
  120OSM   H11F12705   0.713   0.717   8.193  0.3000  0.8345 -0.2403
  120OSM   H11G12706   0.783   0.562   8.225 -0.1338 -0.2940 -0.6551
  120OSM   C12F12707   0.663   0.625   8.385  0.6312  0.5437 -0.1997
  120OSM   H12F12708   0.564   0.676   8.392 -0.3132 -1.2894  0.3841
  120OSM   H12G12709   0.740   0.690   8.433 -1.2788 -0.5003  4.8429
  120OSM   C13F12710   0.639   0.495   8.467 -0.5544  0.2561  0.4867
  120OSM   H13F12711   0.730   0.431   8.463 -1.3533 -0.9028  0.2287
  120OSM   H13G12712   0.551   0.441   8.428  0.4661 -0.1489 -1.3938
  120OSM   C14F12713   0.621   0.532   8.617  0.1432  0.1605  0.8825
  120OSM   H14F12714   0.593   0.441   8.674 -0.2001  0.2736  0.9004
  120OSM   H14G12715   0.534   0.599   8.636 -0.3217  0.6721 -2.4004
  120OSM   C15F12716   0.736   0.601   8.681 -0.0990  0.1695 -0.0672
  120OSM   H15F12717   0.765   0.693   8.626  1.0861 -0.1587 -0.0240
  120OSM   H15G12718   0.830   0.542   8.675 -0.2903 -0.3219  1.4397
  120OSM   C16F12719   0.729   0.625   8.837 -0.1240  0.2007 -0.5693
  120OSM   H16F12720   0.757   0.528   8.883  1.2975  1.3071  1.0390
  120OSM   H16G12721   0.626   0.644   8.873 -0.7055 -0.1075 -2.0124
  120OSM   C17F12722   0.821   0.740   8.890 -0.1517 -0.5494 -0.3897
  120OSM   H17F12723   0.922   0.723   8.847 -0.2449 -0.5793 -0.5973
  120OSM   H17G12724   0.841   0.732   8.999  2.8544  0.7007 -0.7627
  120OSM   C18F12725   0.771   0.880   8.858 -0.0480 -0.5658 -0.2933
  120OSM   H18F12726   0.840   0.961   8.890 -1.6324  1.5669 -1.9634
  120OSM   H18G12727   0.667   0.898   8.892 -0.6920 -1.4702 -1.6802
  120OSM   H18H12728   0.767   0.891   8.748  2.3278 -1.0896 -0.4942
  121OSM      N12729   3.100   2.964   6.348  0.4946 -0.0317 -1.1027
  121OSM    C1512730   3.000   2.861   6.381 -0.1514  0.3097 -0.6633
  121OSM   H15A12731   2.913   2.913   6.420 -0.6306 -0.0360 -1.2509
  121OSM   H15B12732   3.043   2.801   6.460 -2.3877  0.1975  0.5772
  121OSM   H15C12733   2.981   2.792   6.300 -1.1117  0.5737 -0.6815
  121OSM    C1412734   3.020   3.069   6.274 -0.0871 -0.3636 -0.0849
  121OSM   H14A12735   2.956   3.021   6.201 -1.4084  0.4771  0.4775
  121OSM   H14B12736   3.085   3.137   6.220  1.4416 -1.8745 -0.2155
  121OSM   H14C12737   2.958   3.127   6.341 -0.3861 -1.2562  0.4321
  121OSM    C1312738   3.161   3.024   6.479  0.4276  0.4192  0.2891
  121OSM   H13A12739   3.235   2.961   6.527  0.1091  1.1802  1.8659
  121OSM   H13B12740   3.086   3.024   6.557  1.2217 -2.6470  1.1981
  121OSM   H13C12741   3.204   3.123   6.472 -0.4406  0.8275  0.5263
  121OSM    C1212742   3.200   2.895   6.255  0.0999 -0.7406 -0.7274
  121OSM   H12A12743   3.154   2.847   6.170  0.0435 -0.3655 -0.9073
  121OSM   H12B12744   3.250   2.816   6.310 -0.4382  0.7040  2.0115
  121OSM    C1112745   3.313   2.991   6.215  0.2140  0.0311  0.6696
  121OSM   H11A12746   3.381   2.924   6.157 -1.3812 -0.3235 -0.8583
  121OSM   H11B12747   3.362   3.030   6.307  0.1767 -1.1504  1.2017
  121OSM      P12748   3.383   3.192   6.069  0.2099  0.2687 -0.2096
  121OSM    O1312749   3.469   3.131   5.963 -0.0908 -0.7388 -0.2190
  121OSM    O1412750   3.316   3.315   6.037 -0.4098 -0.1948  0.7547
  121OSM    O1112751   3.461   3.228   6.200 -0.1454 -0.5199 -0.0908
  121OSM    O1212752   3.269   3.094   6.119 -0.2474 -0.2912 -0.1603
  121OSM    C1S12753   3.394   3.302   6.307  0.3108 -0.6682  0.0151
  121OSM    H1S12754   3.301   3.257   6.348 -0.2101  0.3872  0.0495
  121OSM    H1T12755   3.351   3.397   6.266  1.0236  0.2765  1.3878
  121OSM     NF12756   3.424   3.381   6.533 -0.2741  0.0075  0.2817
  121OSM    HNF12757   3.428   3.480   6.542 -0.7713  0.0207  0.3664
  121OSM    C2S12758   3.498   3.338   6.414 -0.5660 -0.5237 -0.2915
  121OSM    H2S12759   3.543   3.241   6.445  2.8943  0.7301 -0.9262
  121OSM    C3S12760   3.604   3.440   6.365 -0.1300  0.1100 -0.1954
  121OSM    H3S12761   3.551   3.534   6.340  1.7739  1.8701  2.0204
  121OSM     O312762   3.666   3.390   6.244 -0.0944 -0.1041 -0.5982
  121OSM    HO312763   3.597   3.328   6.220 -1.9303  0.9660  1.5230
  121OSM    C4S12764   3.707   3.463   6.469 -0.4682 -0.2312 -0.9614
  121OSM    H4S12765   3.754   3.368   6.498 -3.0939 -0.7729  1.9906
  121OSM    C5S12766   3.737   3.576   6.541 -0.0798 -0.5322 -0.2966
  121OSM    H5S12767   3.689   3.674   6.524  2.4247  0.8102 -0.1555
  121OSM    C6S12768   3.847   3.587   6.636 -0.3640  0.2020 -0.7077
  121OSM    H6S12769   3.823   3.660   6.716 -0.5702 -0.9955  0.3761
  121OSM    H6T12770   3.924   3.631   6.570  0.0499 -0.8748 -0.9695
  121OSM    C7S12771   3.910   3.462   6.702  0.7583  0.0973 -0.1449
  121OSM    H7S12772   3.994   3.505   6.761 -1.5965  1.7354  2.1845
  121OSM    H7T12773   3.949   3.400   6.618 -0.3300  0.4934 -0.9566
  121OSM    C8S12774   3.831   3.377   6.797 -0.0209 -0.2692 -0.7107
  121OSM    H8S12775   3.885   3.281   6.814  1.1041  0.6256  1.0927
  121OSM    H8T12776   3.733   3.346   6.754  0.1008 -2.5523  0.5092
  121OSM    C9S12777   3.809   3.436   6.938  0.5209 -0.2683 -0.0732
  121OSM    H9S12778   3.745   3.526   6.931  0.9091  0.1392  1.4602
  121OSM    H9T12779   3.910   3.462   6.977  0.1845 -1.4622  1.7201
  121OSM   C10S12780   3.730   3.342   7.030  0.4268 -0.4487 -0.3220
  121OSM   H10S12781   3.790   3.249   7.036  0.4670 -0.4494 -0.7471
  121OSM   H10T12782   3.632   3.308   6.990 -0.0946 -2.0730  2.0920
  121OSM   C11S12783   3.715   3.397   7.174  0.0618 -0.3230 -0.2702
  121OSM   H11S12784   3.629   3.467   7.171  0.0901 -0.2333  0.7302
  121OSM   H11T12785   3.815   3.434   7.205  0.5800 -1.3232 -0.6647
  121OSM   C12S12786   3.673   3.296   7.279 -0.1129  0.2586  0.2758
  121OSM   H12S12787   3.757   3.226   7.301 -1.4830 -1.2341  1.0001
  121OSM   H12T12788   3.588   3.236   7.241 -0.0466  1.1858 -1.4144
  121OSM   C13S12789   3.637   3.360   7.417  0.2584  0.0020 -0.5138
  121OSM   H13S12790   3.540   3.414   7.405  0.8399  1.3444  0.5430
  121OSM   H13T12791   3.707   3.440   7.449 -0.1776 -0.5822  2.1630
  121OSM   C14S12792   3.621   3.255   7.529 -0.2807 -0.2127 -0.7822
  121OSM   H14S12793   3.721   3.206   7.530  1.5334  3.1371  0.9875
  121OSM   H14T12794   3.531   3.199   7.495 -1.9949  2.1958 -0.4480
  121OSM   C15S12795   3.595   3.312   7.664 -0.3199  0.4411  0.5228
  121OSM   H15S12796   3.498   3.366   7.673 -0.9220 -0.7341  1.3540
  121OSM   H15T12797   3.680   3.380   7.685  0.5414 -0.3362 -0.3347
  121OSM   C16S12798   3.587   3.201   7.774 -0.1795  0.4695  0.3998
  121OSM   H16S12799   3.678   3.137   7.775 -1.6950 -1.8684  2.2471
  121OSM   H16T12800   3.510   3.121   7.767  1.1451 -0.8039 -0.2254
  121OSM   C17S12801   3.574   3.253   7.920 -0.4258  0.3137  0.7210
  121OSM   H17S12802   3.665   3.316   7.929  0.2753 -0.8214  1.9584
  121OSM   H17T12803   3.591   3.163   7.983  0.8916 -0.7003 -1.0141
  121OSM   C18S12804   3.439   3.318   7.948  0.2032  0.1830 -0.0167
  121OSM   H18S12805   3.400   3.396   7.880 -3.8868 -1.1349  0.5588
  121OSM   H18T12806   3.429   3.368   8.047 -1.7662  1.5637 -0.8562
  121OSM   H18U12807   3.360   3.241   7.959  1.9132 -1.5599  0.7278
  121OSM    C1F12808   3.351   3.311   6.618  0.5850  0.0039  0.0418
  121OSM     OF12809   3.347   3.185   6.611  0.2033 -0.6159  0.4092
  121OSM    C2F12810   3.265   3.393   6.707  0.7205  0.0438 -0.0149
  121OSM    H2F12811   3.169   3.411   6.655 -0.1458 -2.3371  0.6070
  121OSM    H2G12812   3.328   3.483   6.724  0.8118 -0.4498  2.6668
  121OSM    C3F12813   3.224   3.324   6.837 -0.5104  0.5417  0.3510
  121OSM    H3F12814   3.312   3.324   6.905  0.2589 -0.4740 -0.6164
  121OSM    H3G12815   3.212   3.214   6.844  1.6821  0.3590  3.1515
  121OSM    C4F12816   3.104   3.390   6.909  0.1006  0.4546 -0.2548
  121OSM    H4F12817   3.009   3.347   6.872  0.8989 -2.3208  0.6381
  121OSM    H4G12818   3.097   3.499   6.892  0.6379  0.5457  0.0803
  121OSM    C5F12819   3.107   3.374   7.066  0.2591  0.1238 -0.3558
  121OSM    H5F12820   3.106   3.265   7.083 -2.2988  0.2166  0.4308
  121OSM    H5G12821   3.012   3.420   7.100  0.1496 -0.0835 -0.3852
  121OSM    C6F12822   3.232   3.437   7.133  0.5304 -0.9316  0.9216
  121OSM    H6F12823   3.227   3.545   7.108  0.0274 -1.6936 -2.9067
  121OSM    H6G12824   3.329   3.395   7.100  2.0026 -0.4548  4.3282
  121OSM    C7F12825   3.237   3.444   7.285  0.1728 -0.6565 -0.3072
  121OSM    H7F12826   3.324   3.508   7.310  0.7754 -1.5336 -0.1180
  121OSM    H7G12827   3.262   3.353   7.343  0.0004 -0.5979 -0.1394
  121OSM    C8F12828   3.107   3.501   7.344 -0.4655 -0.3358 -0.1184
  121OSM    H8F12829   3.025   3.426   7.344 -0.3764 -0.4419  0.8605
  121OSM    H8G12830   3.078   3.589   7.283  0.0849  0.8355  1.2539
  121OSM    C9F12831   3.146   3.544   7.484  0.5645 -0.7794 -0.3718
  121OSM    H9F12832   3.220   3.625   7.484  0.1374 -0.3728 -1.1174
  121OSM   C10F12833   3.113   3.474   7.602 -0.3969 -0.0144  0.2241
  121OSM   H10F12834   3.150   3.520   7.695  0.5973  3.4201 -1.7152
  121OSM   C11F12835   3.034   3.343   7.608  0.5183 -0.1962  0.7081
  121OSM   H11F12836   3.090   3.267   7.667  0.9676 -0.1350  0.3677
  121OSM   H11G12837   3.024   3.307   7.504 -1.7240  1.0070  0.4399
  121OSM   C12F12838   2.894   3.358   7.678 -0.2491 -0.4697  0.2080
  121OSM   H12F12839   2.846   3.260   7.699 -0.3379 -0.1026  1.8705
  121OSM   H12G12840   2.820   3.401   7.606  0.6593 -0.0082 -0.4668
  121OSM   C13F12841   2.883   3.443   7.806  0.0488 -0.2219 -0.0579
  121OSM   H13F12842   2.779   3.464   7.840 -0.3368  0.3565 -1.4909
  121OSM   H13G12843   2.929   3.542   7.786  0.6202 -0.9548 -2.7858
  121OSM   C14F12844   2.963   3.380   7.923 -0.1461  0.5361  0.2202
  121OSM   H14F12845   3.070   3.385   7.892 -1.1639  3.0757 -3.6209
  121OSM   H14G12846   2.958   3.269   7.926  2.5546  0.3538  1.5631
  121OSM   C15F12847   2.915   3.427   8.059 -0.5162 -0.4037  0.3403
  121OSM   H15F12848   2.804   3.426   8.066 -0.4148  0.3567  2.8272
  121OSM   H15G12849   2.940   3.535   8.052  1.3183 -0.8938 -2.3825
  121OSM   C16F12850   2.973   3.353   8.180 -0.3155 -0.0808  0.2739
  121OSM   H16F12851   2.951   3.408   8.273 -0.5846 -0.3377  0.3646
  121OSM   H16G12852   3.084   3.359   8.182 -0.2323 -1.3541  2.6919
  121OSM   C17F12853   2.914   3.211   8.188  0.4103  0.0558  0.0678
  121OSM   H17F12854   2.950   3.152   8.100  1.4614 -0.3268  0.7270
  121OSM   H17G12855   2.804   3.215   8.179  0.4155  1.7498  0.4101
  121OSM   C18F12856   2.951   3.132   8.319 -0.2113  0.1867 -0.7737
  121OSM   H18F12857   2.921   3.194   8.406  0.9543 -1.3043  0.7570
  121OSM   H18G12858   3.062   3.122   8.328 -0.2181 -0.3270 -1.2088
  121OSM   H18H12859   2.924   3.026   8.338  3.7961 -0.4786  2.9753
  122OSM      N12860   0.539   6.024   6.331  0.6729  1.1511  0.1121
  122OSM    C1512861   0.451   6.095   6.241  0.1510 -0.6188 -0.6648
  122OSM   H15A12862   0.367   6.032   6.218  1.5308 -2.7698 -0.1199
  122OSM   H15B12863   0.503   6.120   6.150 -0.1641  0.4285 -0.5724
  122OSM   H15C12864   0.423   6.187   6.291  1.1798 -0.8791  0.4607
  122OSM    C1412865   0.669   6.093   6.344  0.3603 -0.3651  0.3939
  122OSM   H14A12866   0.722   6.052   6.429  1.3024 -0.5272 -0.2470
  122OSM   H14B12867   0.650   6.197   6.363  0.4087  0.4731 -3.3251
  122OSM   H14C12868   0.724   6.092   6.251 -0.9266 -1.2056 -0.3898
  122OSM    C1312869   0.481   6.005   6.472  0.2286  0.1832  0.3602
  122OSM   H13A12870   0.542   5.932   6.522 -0.7628 -1.4538 -0.6965
  122OSM   H13B12871   0.383   5.962   6.455  0.1091  1.2326 -1.9624
  122OSM   H13C12872   0.482   6.101   6.521  1.3153  0.2253  0.2766
  122OSM    C1212873   0.556   5.874   6.275 -0.0060 -0.2274  0.5224
  122OSM   H12A12874   0.602   5.825   6.359 -2.1363 -0.8813  1.3854
  122OSM   H12B12875   0.623   5.868   6.190  0.3298 -1.0156  0.8333
  122OSM    C1112876   0.433   5.789   6.242  0.6094 -0.0110  0.7663
  122OSM   H11A12877   0.486   5.694   6.217 -0.2194 -0.4308  0.5888
  122OSM   H11B12878   0.374   5.818   6.153 -0.2608 -0.7842  1.0852
  122OSM      P12879   0.204   5.710   6.340  0.1564 -0.0327 -0.0642
  122OSM    O1312880   0.101   5.810   6.299 -0.2351 -0.0406 -0.5334
  122OSM    O1412881   0.215   5.590   6.258 -0.0894 -0.3398  0.2884
  122OSM    O1112882   0.171   5.662   6.485  0.1869 -0.0333 -0.5477
  122OSM    O1212883   0.353   5.773   6.356 -0.0619 -0.1007 -0.4130
  122OSM    C1S12884   0.256   5.677   6.596  0.2410 -0.0042 -0.1849
  122OSM    H1S12885   0.276   5.786   6.608 -0.7393  0.3761 -1.6925
  122OSM    H1T12886   0.357   5.631   6.583  1.0353  1.6614 -0.2213
  122OSM     NF12887   0.287   5.664   6.846  0.7294 -0.1162 -0.6435
  122OSM    HNF12888   0.341   5.586   6.878 -0.0912  0.2047  1.7416
  122OSM    C2S12889   0.202   5.633   6.732  0.6536 -0.2780 -0.4505
  122OSM    H2S12890   0.106   5.689   6.748  0.3293 -0.8550 -0.3582
  122OSM    C3S12891   0.168   5.478   6.723 -0.4865  0.1849 -0.8633
  122OSM    H3S12892   0.264   5.423   6.708 -0.0633  0.7111 -0.1621
  122OSM     O312893   0.091   5.432   6.615  0.1203 -0.1183 -0.1881
  122OSM    HO312894   0.088   5.507   6.555 -0.4233  0.9915  1.1654
  122OSM    C4S12895   0.115   5.445   6.862 -0.3933 -1.0131  0.4427
  122OSM    H4S12896   0.196   5.410   6.928  1.1257  2.4042  0.6225
  122OSM    C5S12897  -0.004   5.480   6.910 -0.4197 -0.2041  0.1257
  122OSM    H5S12898  -0.080   5.540   6.858  0.0511 -1.4722 -2.1327
  122OSM    C6S12899  -0.051   5.445   7.047 -0.8794  0.0347 -0.0676
  122OSM    H6S12900  -0.129   5.514   7.084 -1.0597  0.8875 -1.9294
  122OSM    H6T12901   0.033   5.450   7.119 -0.5294  0.7988 -0.5150
  122OSM    C7S12902  -0.130   5.312   7.064  0.0906  0.1571  0.7020
  122OSM    H7S12903  -0.060   5.229   7.044  0.9198  1.1463 -0.6380
  122OSM    H7T12904  -0.212   5.317   6.990  0.1046  0.8381  0.7250
  122OSM    C8S12905  -0.203   5.299   7.203 -0.6971 -0.3437 -1.2358
  122OSM    H8S12906  -0.254   5.200   7.198  0.2764 -0.8631 -1.1758
  122OSM    H8T12907  -0.276   5.381   7.214  2.1018  2.3654 -1.5784
  122OSM    C9S12908  -0.106   5.318   7.323 -0.5095 -0.4113  0.1399
  122OSM    H9S12909  -0.047   5.412   7.326 -2.4210  0.8172  2.9758
  122OSM    H9T12910  -0.031   5.236   7.316  0.4134  0.3464  0.9376
  122OSM   C10S12911  -0.187   5.321   7.455  0.0344  0.2662  0.7487
  122OSM   H10S12912  -0.279   5.258   7.455  0.0667  0.2000 -0.5402
  122OSM   H10T12913  -0.216   5.428   7.458 -0.8734  0.0906 -0.7931
  122OSM   C11S12914  -0.097   5.277   7.575  0.6895  0.1074  0.2612
  122OSM   H11S12915  -0.001   5.331   7.580  1.2149 -0.7951  0.0845
  122OSM   H11T12916  -0.075   5.170   7.555  1.7846 -0.2439  3.0190
  122OSM   C12S12917  -0.183   5.292   7.703 -0.2235  0.0679  0.4022
  122OSM   H12S12918  -0.274   5.229   7.690 -1.7083  2.0808  0.5580
  122OSM   H12T12919  -0.206   5.400   7.717  0.2659 -0.0935  3.0202
  122OSM   C13S12920  -0.109   5.234   7.823 -0.1551 -0.0664 -0.0337
  122OSM   H13S12921  -0.009   5.283   7.833 -0.8116  2.1437 -3.0159
  122OSM   H13T12922  -0.102   5.123   7.821  1.0470  0.0107 -1.7189
  122OSM   C14S12923  -0.180   5.281   7.959  0.5153 -0.1518 -0.3375
  122OSM   H14S12924  -0.278   5.233   7.980  0.6894  0.0043  0.9293
  122OSM   H14T12925  -0.204   5.389   7.966 -0.2707 -0.2672 -1.1471
  122OSM   C15S12926  -0.089   5.248   8.075 -0.0519 -0.2255 -0.5402
  122OSM   H15S12927   0.014   5.283   8.050 -0.3531  1.8837  0.8599
  122OSM   H15T12928  -0.080   5.138   8.080 -1.5059 -0.3642 -0.6105
  122OSM   C16S12929  -0.129   5.309   8.205 -0.5658 -0.0502 -0.2697
  122OSM   H16S12930  -0.230   5.273   8.235  0.6664 -1.6120  2.3718
  122OSM   H16T12931  -0.131   5.418   8.184  1.0633  0.1225  0.3702
  122OSM   C17S12932  -0.046   5.282   8.327 -1.0366 -0.0892 -0.6938
  122OSM   H17S12933  -0.037   5.172   8.336 -1.4684 -0.0706  0.0036
  122OSM   H17T12934  -0.090   5.325   8.419  1.2065 -2.4621  1.6805
  122OSM   C18S12935   0.105   5.331   8.311 -0.4178 -1.0892  0.1963
  122OSM   H18S12936   0.149   5.259   8.238  0.1626  1.2550 -1.9139
  122OSM   H18T12937   0.161   5.341   8.407 -1.1072 -2.5616  0.7764
  122OSM   H18U12938   0.101   5.436   8.275 -0.9390 -0.8828  0.8297
  122OSM    C1F12939   0.310   5.783   6.901  0.9524 -0.5109 -0.3567
  122OSM     OF12940   0.263   5.886   6.847  0.1786  0.2494 -0.1796
  122OSM    C2F12941   0.395   5.798   7.023  0.3706  0.0978  0.1748
  122OSM    H2F12942   0.426   5.904   7.040  1.0500  0.4769 -2.8589
  122OSM    H2G12943   0.495   5.756   6.998 -0.6079 -1.0955 -1.9387
  122OSM    C3F12944   0.326   5.746   7.145 -0.2031  0.3257  0.1743
  122OSM    H3F12945   0.299   5.639   7.132  1.7704 -0.2614  0.4458
  122OSM    H3G12946   0.230   5.801   7.153 -0.7320  0.0948 -3.1040
  122OSM    C4F12947   0.418   5.743   7.273  0.8110 -0.0600 -0.1722
  122OSM    H4F12948   0.483   5.829   7.248 -0.7985  0.5722 -2.4382
  122OSM    H4G12949   0.481   5.652   7.268  2.4862  1.1145 -1.9788
  122OSM    C5F12950   0.337   5.758   7.404 -0.3224  0.2321 -0.2335
  122OSM    H5F12951   0.282   5.662   7.412  1.8466 -1.0096  0.6892
  122OSM    H5G12952   0.263   5.839   7.386  1.5716  1.8495 -1.1629
  122OSM    C6F12953   0.416   5.784   7.529 -0.2519  0.2201 -0.3357
  122OSM    H6F12954   0.485   5.871   7.521  1.6924 -1.0944  0.9118
  122OSM    H6G12955   0.489   5.702   7.553 -0.1973  0.7443  1.4620
  122OSM    C7F12956   0.326   5.800   7.654  0.5211 -0.6304 -0.0246
  122OSM    H7F12957   0.249   5.721   7.665 -0.3685 -0.0277 -1.5726
  122OSM    H7G12958   0.262   5.886   7.626  2.6423 -0.2512 -4.4621
  122OSM    C8F12959   0.391   5.820   7.791  0.1076 -0.1779  0.6004
  122OSM    H8F12960   0.305   5.836   7.860  1.1350 -1.7385  2.3493
  122OSM    H8G12961   0.453   5.912   7.798  1.9798 -1.4106  1.0140
  122OSM    C9F12962   0.473   5.703   7.842 -0.3412  0.2292 -0.2322
  122OSM    H9F12963   0.516   5.629   7.773  1.4428 -1.6027  2.6484
  122OSM   C10F12964   0.476   5.664   7.970 -0.0795  0.3315  0.8194
  122OSM   H10F12965   0.532   5.574   8.001 -1.8749 -0.3797  2.1595
  122OSM   C11F12966   0.407   5.737   8.083  0.2284 -0.1779 -0.1277
  122OSM   H11F12967   0.302   5.764   8.063 -0.8187 -0.3808  4.1893
  122OSM   H11G12968   0.466   5.831   8.091  0.2982  0.0542 -2.6434
  122OSM   C12F12969   0.418   5.662   8.217 -0.0508 -0.0775  0.0001
  122OSM   H12F12970   0.387   5.558   8.197 -1.3840  0.5092 -1.1079
  122OSM   H12G12971   0.354   5.705   8.298 -1.3628 -4.3672  1.4785
  122OSM   C13F12972   0.565   5.677   8.266  1.0726 -0.1553 -0.2634
  122OSM   H13F12973   0.610   5.777   8.253  2.1401 -0.4771  0.6924
  122OSM   H13G12974   0.630   5.608   8.209  0.9692  0.1343 -0.7341
  122OSM   C14F12975   0.563   5.653   8.417  0.0770  1.1536  0.2279
  122OSM   H14F12976   0.506   5.564   8.449  1.4714 -0.8281 -2.3388
  122OSM   H14G12977   0.514   5.741   8.464 -1.2667  0.4759  0.1311
  122OSM   C15F12978   0.707   5.634   8.479  0.1383  0.5527 -0.3698
  122OSM   H15F12979   0.769   5.719   8.446  0.2214  0.4405 -0.5045
  122OSM   H15G12980   0.756   5.547   8.429 -0.1467 -0.3684  0.8906
  122OSM   C16F12981   0.695   5.628   8.634 -0.2123 -0.0871  0.0999
  122OSM   H16F12982   0.796   5.632   8.678 -0.4400  0.9528  0.5627
  122OSM   H16G12983   0.635   5.543   8.674 -2.0061  0.8070 -0.5595
  122OSM   C17F12984   0.639   5.767   8.687  0.7443  0.3023  0.3992
  122OSM   H17F12985   0.529   5.763   8.679  0.6711  1.6576  0.6435
  122OSM   H17G12986   0.677   5.845   8.618  1.2395 -0.2456  0.0363
  122OSM   C18F12987   0.698   5.802   8.825  0.4631 -0.0395 -0.6978
  122OSM   H18F12988   0.657   5.730   8.899  0.2174 -0.5572 -1.3310
  122OSM   H18G12989   0.672   5.904   8.861 -0.3747 -0.1472 -0.9650
  122OSM   H18H12990   0.808   5.792   8.829  0.2423 -4.9981 -0.6112
  123OSM      N12991   5.658   1.486   6.361  0.2138 -0.0815  0.2658
  123OSM    C1512992   5.594   1.608   6.311  0.8017  0.1261  0.2506
  123OSM   H15A12993   5.623   1.631   6.210 -2.9555  0.9782 -0.8141
  123OSM   H15B12994   5.616   1.687   6.381  0.4842 -0.4425  1.0095
  123OSM   H15C12995   5.486   1.601   6.310  0.7868  0.2505  0.9531
  123OSM    C1412996   5.640   1.378   6.257  0.2230  0.5917  0.1971
  123OSM   H14A12997   5.544   1.384   6.208 -0.0145 -1.1160  0.3931
  123OSM   H14B12998   5.659   1.280   6.300  2.1484  2.0204  2.9109
  123OSM   H14C12999   5.708   1.394   6.175 -0.1239 -0.1429 -0.2368
  123OSM    C1313000   5.805   1.500   6.399  0.2490 -0.1701  0.9966
  123OSM   H13A13001   5.865   1.452   6.324 -0.9331  1.2555 -0.9799
  123OSM   H13B13002   5.833   1.437   6.482 -0.5726  0.3622  1.6934
  123OSM   H13C13003   5.823   1.606   6.407  0.4417  0.1314 -2.1754
  123OSM    C1213004   5.575   1.447   6.486 -0.1311 -0.4914  0.4135
  123OSM   H12A13005   5.535   1.539   6.525 -0.8445 -0.4982 -0.2809
  123OSM   H12B13006   5.632   1.395   6.562 -0.6054 -1.8425 -0.1216
  123OSM    C1113007   5.455   1.358   6.467  0.2513  0.1712  0.5160
  123OSM   H11A13008   5.401   1.402   6.381  0.0878 -2.0886 -0.6085
  123OSM   H11B13009   5.390   1.364   6.557  0.9460 -2.2688  1.2630
  123OSM      P13010   5.508   1.124   6.554  0.2610 -0.3105  0.2181
  123OSM    O1313011   5.379   1.049   6.563 -0.2491  0.1907  0.5661
  123OSM    O1413012   5.638   1.050   6.540 -0.1374  0.5458 -0.0495
  123OSM    O1113013   5.517   1.212   6.683 -0.0680  0.1985  0.8232
  123OSM    O1213014   5.497   1.230   6.435 -0.3591 -0.0050 -0.1572
  123OSM    C1S13015   5.546   1.151   6.805 -0.3879 -0.0885 -0.4466
  123OSM    H1S13016   5.603   1.057   6.791 -0.2183  0.1495 -1.4720
  123OSM    H1T13017   5.448   1.125   6.850 -0.1422  1.0343  0.7911
  123OSM     NF13018   5.688   1.149   7.011  0.0473  0.1527 -0.3412
  123OSM    HNF13019   5.648   1.160   7.101  0.7491 -1.9720  0.2725
  123OSM    C2S13020   5.641   1.236   6.903 -0.1162 -0.3281  0.9068
  123OSM    H2S13021   5.733   1.273   6.853 -1.1563  0.0242 -0.8298
  123OSM    C3S13022   5.556   1.363   6.947 -0.2544 -0.6835 -0.2113
  123OSM    H3S13023   5.470   1.327   7.007  0.5813 -1.3404  0.6231
  123OSM     O313024   5.519   1.442   6.840  0.7564 -0.1864 -0.4361
  123OSM    HO313025   5.523   1.388   6.761  0.7197 -1.2656  0.2809
  123OSM    C4S13026   5.639   1.443   7.049  0.0233 -0.7016 -0.4272
  123OSM    H4S13027   5.666   1.380   7.135 -2.8616 -0.6361  0.6257
  123OSM    C5S13028   5.685   1.576   7.046 -0.2038  0.7246  0.3278
  123OSM    H5S13029   5.665   1.644   6.962 -0.5088  1.4387  0.9660
  123OSM    C6S13030   5.774   1.633   7.159  0.6909  0.0174 -0.0537
  123OSM    H6S13031   5.818   1.733   7.139 -0.7415  0.7432  0.2487
  123OSM    H6T13032   5.857   1.561   7.178  0.2335 -0.5716 -0.2642
  123OSM    C7S13033   5.698   1.643   7.293 -1.0147 -0.0760 -0.5989
  123OSM    H7S13034   5.665   1.539   7.316  1.0471 -0.6215  0.1238
  123OSM    H7T13035   5.609   1.709   7.288 -0.4034  0.8508  0.2905
  123OSM    C8S13036   5.785   1.704   7.405  0.3670 -0.6905  0.8897
  123OSM    H8S13037   5.831   1.798   7.366  1.3094 -0.9183  1.4389
  123OSM    H8T13038   5.869   1.638   7.433  0.0041  0.1009  4.2223
  123OSM    C9S13039   5.704   1.749   7.530  0.0623 -0.5159 -0.6617
  123OSM    H9S13040   5.606   1.794   7.503 -0.1776 -0.2446  0.5956
  123OSM    H9T13041   5.762   1.834   7.572 -2.8033  1.3480 -0.1816
  123OSM   C10S13042   5.675   1.637   7.625 -0.1261  0.5327 -0.7356
  123OSM   H10S13043   5.773   1.591   7.648  0.4450  2.2780  0.4674
  123OSM   H10T13044   5.623   1.554   7.571  1.1441 -0.9533  0.2442
  123OSM   C11S13045   5.607   1.685   7.751  0.0863  0.3728 -0.8225
  123OSM   H11S13046   5.507   1.723   7.722 -0.2719 -1.0508 -1.5738
  123OSM   H11T13047   5.673   1.767   7.786 -1.0140  0.8125  0.2820
  123OSM   C12S13048   5.581   1.579   7.860 -0.3285 -0.0829 -0.1776
  123OSM   H12S13049   5.658   1.500   7.845 -0.9318 -0.5717 -0.7915
  123OSM   H12T13050   5.493   1.512   7.848 -0.9453  0.6626  0.1026
  123OSM   C13S13051   5.591   1.644   7.998  0.0930 -0.5332  0.3818
  123OSM   H13S13052   5.522   1.731   7.996  2.2565  1.2553 -1.6566
  123OSM   H13T13053   5.690   1.691   8.013  0.1114  0.3259 -1.9926
  123OSM   C14S13054   5.565   1.541   8.110  0.2715 -0.3418  0.2154
  123OSM   H14S13055   5.623   1.451   8.083  0.8227 -1.0905  3.5077
  123OSM   H14T13056   5.461   1.501   8.101 -1.0004  2.8158 -0.9178
  123OSM   C15S13057   5.604   1.579   8.253 -0.2324  0.8756  0.7105
  123OSM   H15S13058   5.712   1.606   8.250  0.4915 -1.8573 -0.0418
  123OSM   H15T13059   5.603   1.487   8.315 -0.7216 -0.6567 -1.4683
  123OSM   C16S13060   5.538   1.699   8.323 -0.2949  0.0910 -0.3491
  123OSM   H16S13061   5.548   1.795   8.267  1.6706 -0.4416 -0.9919
  123OSM   H16T13062   5.586   1.722   8.420 -1.2895  0.5112  0.0645
  123OSM   C17S13063   5.381   1.685   8.331 -0.4690  0.0621 -1.0055
  123OSM   H17S13064   5.327   1.612   8.267 -1.1012  0.8276 -1.3682
  123OSM   H17T13065   5.334   1.783   8.309  1.1459  0.9459 -0.7131
  123OSM   C18S13066   5.340   1.648   8.472  0.2378  0.8969 -0.1792
  123OSM   H18S13067   5.385   1.550   8.498 -0.3648  0.1422 -1.7973
  123OSM   H18T13068   5.231   1.626   8.483  0.9748 -2.7145  1.2732
  123OSM   H18U13069   5.364   1.718   8.554 -4.3022 -0.0704  2.3274
  123OSM    C1F13070   5.767   1.045   6.984 -0.0130 -0.1109  1.0171
  123OSM     OF13071   5.816   1.032   6.874  0.7531 -0.2167 -0.0649
  123OSM    C2F13072   5.799   0.947   7.089 -0.3450 -0.3957 -0.6816
  123OSM    H2F13073   5.852   1.000   7.171 -2.4522  1.2905 -0.3219
  123OSM    H2G13074   5.866   0.869   7.045 -0.1864  0.0400 -1.2221
  123OSM    C3F13075   5.673   0.873   7.151 -0.1095  0.1986 -0.1772
  123OSM    H3F13076   5.626   0.815   7.069 -0.0164  0.0429 -0.1219
  123OSM    H3G13077   5.600   0.948   7.189 -1.1386 -0.6302 -0.4899
  123OSM    C4F13078   5.710   0.786   7.278  0.0986  0.8528 -0.4151
  123OSM    H4F13079   5.770   0.841   7.352 -0.5691  0.3263  0.5382
  123OSM    H4G13080   5.779   0.704   7.248  1.3051  1.3277  0.9803
  123OSM    C5F13081   5.585   0.745   7.345 -0.2148 -1.2322 -0.7716
  123OSM    H5F13082   5.550   0.643   7.318 -2.9298 -0.7365  0.4985
  123OSM    H5G13083   5.495   0.811   7.342  0.2794 -0.5156 -0.0322
  123OSM    C6F13084   5.615   0.725   7.498  0.1988 -0.4421 -0.3972
  123OSM    H6F13085   5.670   0.811   7.542  1.8103 -0.3562 -2.4208
  123OSM    H6G13086   5.680   0.637   7.519 -0.9352 -1.2312 -0.1364
  123OSM    C7F13087   5.482   0.692   7.569 -0.3777 -0.8239  0.6506
  123OSM    H7F13088   5.443   0.596   7.528 -0.6253 -0.0584 -0.9418
  123OSM    H7G13089   5.409   0.776   7.567 -0.6509 -0.8968  3.3140
  123OSM    C8F13090   5.500   0.669   7.721 -0.1956  0.5947 -0.5172
  123OSM    H8F13091   5.557   0.759   7.755  0.3640  0.1435 -0.2490
  123OSM    H8G13092   5.556   0.575   7.740 -2.1751 -0.4317  0.4608
  123OSM    C9F13093   5.372   0.664   7.796  0.0124  0.0861 -0.2047
  123OSM    H9F13094   5.290   0.647   7.724 -0.1257  0.9277 -0.2596
  123OSM   C10F13095   5.351   0.674   7.929 -0.1050 -0.2412  0.4663
  123OSM   H10F13096   5.249   0.675   7.971 -0.2878 -0.6368  0.0434
  123OSM   C11F13097   5.465   0.688   8.026  0.1030 -0.0222 -0.3593
  123OSM   H11F13098   5.456   0.784   8.082  1.4952 -0.1304  0.0966
  123OSM   H11G13099   5.562   0.688   7.972  0.1082 -0.1536 -0.3490
  123OSM   C12F13100   5.467   0.568   8.128 -0.4491  0.1716 -0.2408
  123OSM   H12F13101   5.570   0.546   8.166 -0.2111  1.2608 -0.2143
  123OSM   H12G13102   5.438   0.477   8.073 -0.9487  1.1386 -1.6297
  123OSM   C13F13103   5.373   0.578   8.246  0.3067  1.0441  0.1373
  123OSM   H13F13104   5.404   0.501   8.319 -0.4824 -1.6253 -2.1853
  123OSM   H13G13105   5.272   0.563   8.203  1.8667  0.0711 -3.5490
  123OSM   C14F13106   5.372   0.717   8.317 -0.4708  0.4743  1.2548
  123OSM   H14F13107   5.321   0.787   8.247  1.4098  2.6939  2.0033
  123OSM   H14G13108   5.475   0.757   8.320 -1.5753  4.2012 -1.7971
  123OSM   C15F13109   5.303   0.728   8.454  0.1145 -0.5868  0.3096
  123OSM   H15F13110   5.327   0.826   8.500  0.3651 -0.5578  0.1243
  123OSM   H15G13111   5.343   0.642   8.511 -0.6070  0.1904  2.0641
  123OSM   C16F13112   5.152   0.726   8.443 -0.1101  0.6535  0.5207
  123OSM   H16F13113   5.131   0.632   8.387 -0.1164  1.6481 -1.2051
  123OSM   H16G13114   5.098   0.815   8.404 -2.1572 -1.2176 -1.2494
  123OSM   C17F13115   5.089   0.699   8.580 -0.0555 -0.2603 -0.6958
  123OSM   H17F13116   5.099   0.796   8.633 -1.0477  0.2880 -1.4813
  123OSM   H17G13117   5.147   0.619   8.631  1.5969 -0.8211 -3.2769
  123OSM   C18F13118   4.938   0.673   8.585  0.3553  0.3497 -0.3001
  123OSM   H18F13119   4.877   0.745   8.526 -2.7440 -0.3946  1.7778
  123OSM   H18G13120   4.902   0.666   8.690  1.4747 -0.9817  0.0274
  123OSM   H18H13121   4.913   0.574   8.542  0.8017  0.3050 -0.4560
  124OSM      N13122   0.361   4.266   6.108  0.2457  0.3512 -0.2056
  124OSM    C1513123   0.362   4.126   6.163 -0.5650 -0.9199 -0.3648
  124OSM   H15A13124   0.458   4.078   6.151  0.6623  0.5517  2.6326
  124OSM   H15B13125   0.282   4.068   6.119 -1.6418  0.4497 -0.2598
  124OSM   H15C13126   0.340   4.125   6.268 -0.2121 -0.6837 -0.2862
  124OSM    C1413127   0.477   4.339   6.179 -0.6856  0.1971  0.7451
  124OSM   H14A13128   0.568   4.288   6.149 -1.2242 -1.3469  1.6126
  124OSM   H14B13129   0.467   4.326   6.286  1.2475  2.2113  1.2461
  124OSM   H14C13130   0.476   4.440   6.143 -0.0273 -0.2854 -0.7377
  124OSM    C1313131   0.395   4.264   5.972  0.3427  0.2184  0.1628
  124OSM   H13A13132   0.393   4.359   5.921 -2.6134  0.2877  0.2383
  124OSM   H13B13133   0.318   4.202   5.929  0.5195 -1.4370  2.0635
  124OSM   H13C13134   0.489   4.213   5.958 -1.1084 -2.6949  0.1794
  124OSM    C1213135   0.230   4.336   6.144  0.1282  0.0752 -0.1769
  124OSM   H12A13136   0.212   4.342   6.250  0.0760 -1.6137 -0.0595
  124OSM   H12B13137   0.145   4.287   6.100 -1.4965  1.1543  1.6549
  124OSM    C1113138   0.222   4.482   6.098  0.7351 -0.1222 -0.1879
  124OSM   H11A13139   0.116   4.513   6.109  1.3642  1.2954  2.7085
  124OSM   H11B13140   0.241   4.497   5.989 -1.8058  0.9434 -0.5496
  124OSM      P13141   0.257   4.650   6.289  0.2450 -0.8633 -0.4801
  124OSM    O1313142   0.365   4.703   6.371  0.7076  0.1303 -0.5638
  124OSM    O1413143   0.172   4.748   6.223  0.4364 -0.0152  0.3021
  124OSM    O1113144   0.161   4.550   6.368 -0.0952  0.2496  0.0685
  124OSM    O1213145   0.313   4.566   6.169  0.2556 -0.7355  0.1882
  124OSM    C1S13146   0.188   4.478   6.478  0.4401 -0.4071 -1.2436
  124OSM    H1S13147   0.285   4.509   6.522  1.2206 -0.3704 -2.9356
  124OSM    H1T13148   0.191   4.368   6.462  0.8332 -1.5925  4.6259
  124OSM     NF13149   0.103   4.465   6.714  0.8404  0.0311 -0.1844
  124OSM    HNF13150   0.076   4.372   6.737  1.3645 -0.3001 -0.8865
  124OSM    C2S13151   0.069   4.508   6.577  0.1287 -0.2899 -0.8266
  124OSM    H2S13152   0.066   4.619   6.578 -2.0175 -0.2879 -2.4847
  124OSM    C3S13153  -0.064   4.446   6.516  1.0766 -0.0631  0.1438
  124OSM    H3S13154  -0.058   4.336   6.521  0.2281 -0.1494 -0.5237
  124OSM     O313155  -0.095   4.470   6.381 -0.4712  0.5423  0.0675
  124OSM    HO313156  -0.009   4.482   6.343  0.4718 -1.2096  1.4833
  124OSM    C4S13157  -0.186   4.494   6.588  0.3693  0.2055  0.8462
  124OSM    H4S13158  -0.206   4.602   6.579 -0.1862 -0.0430 -1.2522
  124OSM    C5S13159  -0.280   4.417   6.651  0.5701  0.6639  0.9179
  124OSM    H5S13160  -0.276   4.307   6.652  0.1747  0.6500  1.0396
  124OSM    C6S13161  -0.412   4.467   6.714 -0.2386 -0.9521  0.2012
  124OSM    H6S13162  -0.429   4.410   6.808  0.6923 -2.0895 -0.2977
  124OSM    H6T13163  -0.503   4.454   6.651 -0.2534  3.2986 -0.9534
  124OSM    C7S13164  -0.419   4.620   6.752 -0.1948 -0.4384  0.2236
  124OSM    H7S13165  -0.381   4.683   6.668 -1.0155 -0.7942 -0.4267
  124OSM    H7T13166  -0.351   4.635   6.838  0.2862  0.1856 -0.2506
  124OSM    C8S13167  -0.553   4.677   6.785  0.5193 -0.5901 -0.2984
  124OSM    H8S13168  -0.619   4.604   6.836 -0.5889  0.7440  0.2588
  124OSM    H8T13169  -0.607   4.709   6.693 -0.7437 -0.0696  0.5997
  124OSM    C9S13170  -0.539   4.804   6.872 -0.5508  0.7409 -0.2876
  124OSM    H9S13171  -0.637   4.856   6.873 -1.2462 -0.5432 -0.4057
  124OSM    H9T13172  -0.469   4.876   6.824 -0.4095  1.1652  0.5416
  124OSM   C10S13173  -0.519   4.770   7.023 -0.2288  0.5679  0.1359
  124OSM   H10S13174  -0.412   4.746   7.043 -0.0478  1.7318  0.6698
  124OSM   H10T13175  -0.587   4.688   7.053 -0.8871  1.5769  1.5377
  124OSM   C11S13176  -0.560   4.888   7.117 -0.1568 -0.2231  0.0741
  124OSM   H11S13177  -0.658   4.928   7.082 -0.8824  0.7426  2.9980
  124OSM   H11T13178  -0.492   4.974   7.101 -0.1948 -0.4529 -1.4801
  124OSM   C12S13179  -0.563   4.855   7.267  0.2909 -0.0604 -0.2000
  124OSM   H12S13180  -0.458   4.850   7.301 -0.1142  1.1502  1.3030
  124OSM   H12T13181  -0.611   4.755   7.275 -0.2604  0.0740 -1.5490
  124OSM   C13S13182  -0.637   4.948   7.363 -0.7603 -0.0656  0.3062
  124OSM   H13S13183  -0.742   4.931   7.332 -0.3365  0.1827 -1.4095
  124OSM   H13T13184  -0.614   5.053   7.333  1.9264 -0.2802  1.3331
  124OSM   C14S13185  -0.616   4.941   7.513  0.0505  0.8179  0.3829
  124OSM   H14S13186  -0.512   4.959   7.548  0.8559 -2.0668 -0.3399
  124OSM   H14T13187  -0.628   4.834   7.540  1.3804  0.7282  0.6872
  124OSM   C15S13188  -0.723   5.035   7.580  0.0922  0.2756 -0.1867
  124OSM   H15S13189  -0.827   5.011   7.550 -1.6390  6.0885 -0.0536
  124OSM   H15T13190  -0.712   5.135   7.534  1.4094  0.4079  0.3741
  124OSM   C16S13191  -0.732   5.040   7.730 -0.4497 -0.2434  0.4058
  124OSM   H16S13192  -0.753   4.936   7.762  0.6313 -0.7776 -0.5530
  124OSM   H16T13193  -0.822   5.102   7.752 -0.2503 -0.4904  2.0013
  124OSM   C17S13194  -0.605   5.114   7.793 -0.0158 -1.1146 -0.5770
  124OSM   H17S13195  -0.594   5.216   7.749 -0.2531  0.1835  2.1312
  124OSM   H17T13196  -0.513   5.058   7.767  1.2031  0.1415  0.8367
  124OSM   C18S13197  -0.619   5.137   7.948  0.2035  0.2375  0.7278
  124OSM   H18S13198  -0.641   5.040   7.996 -1.8173  0.8869  1.2237
  124OSM   H18T13199  -0.697   5.212   7.977  1.2277  0.6878  2.4424
  124OSM   H18U13200  -0.526   5.178   7.992  0.2164  1.0056  0.0182
  124OSM    C1F13201   0.162   4.544   6.808 -0.5803  0.2284 -0.0573
  124OSM     OF13202   0.218   4.647   6.777 -0.0890 -0.4116 -0.3276
  124OSM    C2F13203   0.169   4.494   6.946 -0.1940 -0.1865  0.2241
  124OSM    H2F13204   0.230   4.401   6.947  1.3476  0.7625 -0.4786
  124OSM    H2G13205   0.062   4.474   6.964 -0.5212  1.3394  0.1251
  124OSM    C3F13206   0.220   4.595   7.048 -0.0981 -0.1233  0.7603
  124OSM    H3F13207   0.156   4.686   7.047  2.1989  1.5810 -0.4262
  124OSM    H3G13208   0.325   4.619   7.018 -0.1700  1.0959  1.4079
  124OSM    C4F13209   0.218   4.542   7.191 -0.4971  0.2146  0.1185
  124OSM    H4F13210   0.256   4.616   7.264 -3.0136  0.5525  1.1874
  124OSM    H4G13211   0.277   4.448   7.183 -0.7946  0.1114 -0.9890
  124OSM    C5F13212   0.072   4.503   7.230  0.4530  0.5028 -0.7022
  124OSM    H5F13213   0.055   4.399   7.196  3.9175 -0.8083  1.0693
  124OSM    H5G13214   0.001   4.575   7.183 -0.0478  0.1443 -0.5043
  124OSM    C6F13215   0.047   4.509   7.381  0.0794  0.3887  0.1826
  124OSM    H6F13216  -0.057   4.539   7.407  0.5730  1.9895  0.4421
  124OSM    H6G13217   0.101   4.594   7.428 -1.1565  1.1857  0.2248
  124OSM    C7F13218   0.083   4.378   7.463 -0.2438 -1.0409  0.1590
  124OSM    H7F13219   0.194   4.372   7.468 -0.2743 -0.9209  1.2462
  124OSM    H7G13220   0.045   4.300   7.393 -0.9053  1.4392 -2.4401
  124OSM    C8F13221   0.020   4.384   7.606 -0.4573 -0.2456  0.1589
  124OSM    H8F13222  -0.083   4.421   7.584  0.2184  0.8469 -1.3704
  124OSM    H8G13223   0.073   4.466   7.660 -1.7436 -0.4657  1.8288
  124OSM    C9F13224   0.026   4.249   7.674  0.0112 -0.3588  0.0874
  124OSM    H9F13225   0.122   4.195   7.671 -0.6993 -1.7227  1.1497
  124OSM   C10F13226  -0.062   4.191   7.753 -0.3821  0.2296 -0.2561
  124OSM   H10F13227  -0.050   4.087   7.787 -4.1715  0.4854  2.5210
  124OSM   C11F13228  -0.195   4.240   7.800  0.2164  0.2900  0.1871
  124OSM   H11F13229  -0.263   4.193   7.725 -0.0255 -1.7674  1.6281
  124OSM   H11G13230  -0.195   4.351   7.793  3.6263  0.4850  1.4845
  124OSM   C12F13231  -0.246   4.197   7.941  0.4407  0.0867  0.2495
  124OSM   H12F13232  -0.205   4.096   7.962  0.0137 -0.3781 -1.0380
  124OSM   H12G13233  -0.357   4.193   7.942  0.4274  0.3458  0.0006
  124OSM   C13F13234  -0.204   4.292   8.048  0.3490 -0.5450 -0.2885
  124OSM   H13F13235  -0.244   4.393   8.024 -0.4284 -0.6551  0.4819
  124OSM   H13G13236  -0.093   4.299   8.053  0.3116 -0.1833  0.1154
  124OSM   C14F13237  -0.247   4.236   8.189  0.3566  0.3825  0.5606
  124OSM   H14F13238  -0.209   4.131   8.193  1.4255  0.6992 -0.4844
  124OSM   H14G13239  -0.357   4.227   8.200  0.4797 -1.3582  0.6175
  124OSM   C15F13240  -0.190   4.320   8.303 -0.4342 -0.0683 -0.0591
  124OSM   H15F13241  -0.205   4.426   8.274  1.3637  0.0360 -0.7561
  124OSM   H15G13242  -0.083   4.291   8.313 -0.0861  0.2914 -2.1971
  124OSM   C16F13243  -0.244   4.268   8.435 -0.7875  0.1612  0.2715
  124OSM   H16F13244  -0.229   4.159   8.425  1.1846  0.3591  0.7384
  124OSM   H16G13245  -0.352   4.293   8.448 -0.7267 -0.0196  1.1721
  124OSM   C17F13246  -0.161   4.316   8.555 -0.3118 -0.6983  0.2912
  124OSM   H17F13247  -0.062   4.271   8.533 -1.2048 -2.2017 -0.8343
  124OSM   H17G13248  -0.216   4.287   8.646  1.2361 -1.2603  1.0840
  124OSM   C18F13249  -0.144   4.474   8.555 -0.5073  0.7025 -0.2989
  124OSM   H18F13250  -0.240   4.498   8.606 -0.3919 -1.2221  0.9192
  124OSM   H18G13251  -0.133   4.511   8.451  1.5919 -2.2396 -1.2534
  124OSM   H18H13252  -0.061   4.525   8.608  1.9001 -0.5749 -2.5925
  125OSM      N13253   4.648   2.459   6.347  0.1263 -0.1656 -0.4624
  125OSM    C1513254   4.554   2.460   6.239  0.0250 -0.1658 -0.3993
  125OSM   H15A13255   4.581   2.395   6.157  0.3295  0.4637 -0.8032
  125OSM   H15B13256   4.543   2.557   6.194  2.6956  1.2970  1.8203
  125OSM   H15C13257   4.449   2.444   6.259  0.5219 -2.6324  0.6816
  125OSM    C1413258   4.628   2.330   6.420  0.0542  0.2069 -0.9734
  125OSM   H14A13259   4.529   2.326   6.463 -0.3694 -0.2304 -1.9688
  125OSM   H14B13260   4.697   2.338   6.503 -0.2339 -0.1665 -0.6947
  125OSM   H14C13261   4.650   2.240   6.366  0.4344  0.5589 -1.4171
  125OSM    C1313262   4.790   2.466   6.297  0.0426 -0.1229 -0.3028
  125OSM   H13A13263   4.809   2.372   6.248 -0.7629 -1.0236  1.0617
  125OSM   H13B13264   4.851   2.494   6.381  0.5885 -0.3759 -0.6115
  125OSM   H13C13265   4.805   2.542   6.221  0.1015 -0.4716 -0.6429
  125OSM    C1213266   4.616   2.573   6.447 -0.1114  0.1786  1.4623
  125OSM   H12A13267   4.683   2.577   6.531  0.1400  1.8040  1.2186
  125OSM   H12B13268   4.519   2.548   6.488  0.4905 -2.4765  1.4012
  125OSM    C1113269   4.604   2.716   6.386 -0.4060  0.1336  0.4125
  125OSM   H11A13270   4.682   2.734   6.310  0.2912  1.0581  1.3205
  125OSM   H11B13271   4.633   2.787   6.466  2.9759 -0.2004 -0.3692
  125OSM      P13272   4.348   2.747   6.420 -0.3034 -0.2792 -0.2393
  125OSM    O1313273   4.275   2.860   6.358  0.2134 -0.7010 -0.1363
  125OSM    O1413274   4.283   2.617   6.437  0.0278  0.0607  0.3695
  125OSM    O1113275   4.405   2.786   6.561 -0.5486 -0.6691  0.9381
  125OSM    O1213276   4.474   2.730   6.328  0.2019  0.4400  0.8457
  125OSM    C1S13277   4.308   2.851   6.652 -0.6230  0.1085 -1.2308
  125OSM    H1S13278   4.200   2.850   6.624 -0.6624  0.9352 -1.1221
  125OSM    H1T13279   4.341   2.951   6.689  2.5446 -0.9574 -0.8953
  125OSM     NF13280   4.218   2.842   6.868 -0.2684  0.3993  0.4334
  125OSM    HNF13281   4.266   2.900   6.934  2.4462 -0.8246 -0.2920
  125OSM    C2S13282   4.315   2.774   6.787  0.1210 -0.1094  0.8119
  125OSM    H2S13283   4.281   2.669   6.775 -0.1717  0.1565 -0.9501
  125OSM    C3S13284   4.452   2.770   6.844  0.1438 -0.2471  0.8350
  125OSM    H3S13285   4.490   2.874   6.843 -0.3821 -0.0098 -1.7812
  125OSM     O313286   4.559   2.705   6.774 -0.5972  0.2413  0.2147
  125OSM    HO313287   4.524   2.706   6.685 -1.2310  2.7041  0.4198
  125OSM    C4S13288   4.452   2.719   6.988 -0.3313  0.0081 -0.0723
  125OSM    H4S13289   4.451   2.809   7.052 -0.1115  0.6212 -0.9066
  125OSM    C5S13290   4.459   2.594   7.028  0.8191  0.1135 -0.0794
  125OSM    H5S13291   4.462   2.515   6.952  2.9113 -0.1007  0.1769
  125OSM    C6S13292   4.466   2.531   7.168  0.1242 -0.3214 -0.4342
  125OSM    H6S13293   4.555   2.465   7.175  0.0733 -0.4068 -0.5818
  125OSM    H6T13294   4.378   2.466   7.187  0.8676 -1.1599  0.2492
  125OSM    C7S13295   4.465   2.634   7.280 -0.4540 -0.1061 -0.1800
  125OSM    H7S13296   4.377   2.702   7.266 -2.0362 -2.4101 -2.2946
  125OSM    H7T13297   4.562   2.687   7.282 -0.9977  0.9707 -0.9463
  125OSM    C8S13298   4.456   2.569   7.421  0.6566  0.1567  0.2185
  125OSM    H8S13299   4.545   2.508   7.448  0.6587 -0.6270 -1.4391
  125OSM    H8T13300   4.374   2.495   7.421  1.0528 -0.2855  0.0987
  125OSM    C9S13301   4.428   2.668   7.535 -0.0704  0.3423  0.4611
  125OSM    H9S13302   4.335   2.720   7.504  0.9317  1.3109 -1.1095
  125OSM    H9T13303   4.507   2.746   7.532  2.4452 -2.0882 -1.9860
  125OSM   C10S13304   4.434   2.610   7.678 -0.2697  0.3654  0.2005
  125OSM   H10S13305   4.533   2.563   7.696  0.2394  0.4326 -2.0760
  125OSM   H10T13306   4.363   2.525   7.688  1.1690 -0.7223  1.5893
  125OSM   C11S13307   4.408   2.708   7.792  0.0328 -0.0660  0.1995
  125OSM   H11S13308   4.315   2.760   7.762  0.2149  0.2108  0.1055
  125OSM   H11T13309   4.497   2.773   7.805 -0.8525  1.6767 -1.8135
  125OSM   C12S13310   4.382   2.629   7.924 -0.7994 -0.9345  0.4025
  125OSM   H12S13311   4.474   2.577   7.957 -0.8871 -0.5363  1.3097
  125OSM   H12T13312   4.316   2.541   7.907 -0.0692 -1.6039  0.9553
  125OSM   C13S13313   4.314   2.710   8.035 -0.3106 -0.7016 -0.1780
  125OSM   H13S13314   4.231   2.761   7.983 -0.3931  0.2214  0.8203
  125OSM   H13T13315   4.382   2.793   8.066 -0.8326  0.5486 -2.1696
  125OSM   C14S13316   4.269   2.637   8.163  0.4133 -0.0750 -0.2008
  125OSM   H14S13317   4.362   2.606   8.216  0.2410  0.3156  0.3339
  125OSM   H14T13318   4.214   2.545   8.135  1.4340 -0.6763 -0.3063
  125OSM   C15S13319   4.178   2.719   8.256  0.3016 -0.1940  0.7673
  125OSM   H15S13320   4.083   2.727   8.199 -0.5745 -0.2020  2.1749
  125OSM   H15T13321   4.222   2.821   8.254  1.0828 -0.3858 -4.2165
  125OSM   C16S13322   4.166   2.667   8.397  0.3938  0.4896  0.0308
  125OSM   H16S13323   4.153   2.557   8.401  4.2698 -0.3264 -3.3029
  125OSM   H16T13324   4.082   2.717   8.450 -1.1784 -0.7636 -1.1444
  125OSM   C17S13325   4.284   2.699   8.490  0.0756 -0.8506  0.3770
  125OSM   H17S13326   4.372   2.639   8.459 -1.0394 -2.5421  0.3830
  125OSM   H17T13327   4.268   2.672   8.596  0.6434  0.5589  0.8421
  125OSM   C18S13328   4.316   2.853   8.487 -0.0613 -0.0845 -0.1127
  125OSM   H18S13329   4.404   2.871   8.422 -0.3393  1.1272 -0.1814
  125OSM   H18T13330   4.332   2.881   8.593  0.6803 -0.2548 -0.1780
  125OSM   H18U13331   4.221   2.900   8.454 -0.0739 -1.2695 -1.8446
  125OSM    C1F13332   4.091   2.814   6.867  0.2945  0.0236  0.1614
  125OSM     OF13333   4.038   2.745   6.779 -0.1044 -0.4160  0.3634
  125OSM    C2F13334   4.002   2.879   6.981  0.0962 -0.5628 -0.1560
  125OSM    H2F13335   3.943   2.958   6.930  1.3098  1.1389  0.9794
  125OSM    H2G13336   4.064   2.929   7.058 -1.0661  0.5236  0.1069
  125OSM    C3F13337   3.917   2.771   7.062  0.1473 -0.4214 -0.2382
  125OSM    H3F13338   3.986   2.690   7.094  0.9041  0.2523 -0.1560
  125OSM    H3G13339   3.854   2.725   6.983 -0.5248 -1.0076  0.6208
  125OSM    C4F13340   3.851   2.829   7.186 -0.4756  0.6376 -0.1777
  125OSM    H4F13341   3.784   2.748   7.221 -1.3514  1.7533  0.7785
  125OSM    H4G13342   3.778   2.906   7.156 -1.1140  1.1125  2.3730
  125OSM    C5F13343   3.944   2.870   7.299  0.1620  0.2724 -0.9550
  125OSM    H5F13344   3.998   2.958   7.258  0.1510  0.4632 -0.5650
  125OSM    H5G13345   4.026   2.797   7.309  0.4535  0.6605 -0.4696
  125OSM    C6F13346   3.868   2.910   7.435  0.5629  0.9145 -0.1512
  125OSM    H6F13347   3.791   2.984   7.407  0.8776  0.8023 -1.4040
  125OSM    H6G13348   3.950   2.960   7.491  1.3206  0.3546 -0.7222
  125OSM    C7F13349   3.805   2.790   7.511 -0.1571 -0.0809 -0.6086
  125OSM    H7F13350   3.898   2.740   7.546  0.0918  0.3734 -0.6100
  125OSM    H7G13351   3.763   2.717   7.438  0.6026 -0.9940 -0.1642
  125OSM    C8F13352   3.718   2.837   7.622  0.0814  0.3965 -0.4239
  125OSM    H8F13353   3.636   2.893   7.571  1.5888  3.4720  0.2780
  125OSM    H8G13354   3.765   2.920   7.679 -2.2966  1.7317 -0.2680
  125OSM    C9F13355   3.657   2.720   7.707  0.1265 -0.4773 -0.5774
  125OSM    H9F13356   3.616   2.643   7.641 -1.3460  0.0557 -0.3192
  125OSM   C10F13357   3.667   2.704   7.842  0.3956  0.4973 -0.6010
  125OSM   H10F13358   3.621   2.614   7.885 -0.5939  1.2708  0.0081
  125OSM   C11F13359   3.729   2.802   7.943  0.1108 -1.0671  0.6914
  125OSM   H11F13360   3.787   2.878   7.887 -1.2558 -1.3570 -1.2083
  125OSM   H11G13361   3.801   2.753   8.012  1.1315  1.7308  1.7557
  125OSM   C12F13362   3.625   2.887   8.017 -0.0010  0.7475  0.1596
  125OSM   H12F13363   3.554   2.938   7.948  0.0948  0.5687 -0.0726
  125OSM   H12G13364   3.682   2.971   8.062  1.0087  1.4490 -2.2931
  125OSM   C13F13365   3.574   2.820   8.144 -0.6568 -0.3123  0.5613
  125OSM   H13F13366   3.657   2.814   8.219  0.3635  0.4425 -0.4717
  125OSM   H13G13367   3.549   2.713   8.132  1.1773 -0.7907  0.6553
  125OSM   C14F13368   3.464   2.897   8.214 -0.3087 -0.1751 -0.2335
  125OSM   H14F13369   3.392   2.927   8.135 -1.0019  0.9770  0.7828
  125OSM   H14G13370   3.510   2.993   8.245 -2.0578  0.5811  0.1386
  125OSM   C15F13371   3.400   2.821   8.326  0.4628 -0.2408  0.7549
  125OSM   H15F13372   3.350   2.732   8.282  0.5884 -0.3334  0.8014
  125OSM   H15G13373   3.316   2.877   8.373  0.0572  0.6144 -0.8947
  125OSM   C16F13374   3.500   2.767   8.425  0.5242 -0.3030  0.2480
  125OSM   H16F13375   3.573   2.847   8.453 -0.4777  1.2262 -1.3105
  125OSM   H16G13376   3.564   2.689   8.378  2.9280  1.1474  0.9052
  125OSM   C17F13377   3.424   2.719   8.556  0.3103 -0.7797  0.6633
  125OSM   H17F13378   3.357   2.638   8.519 -2.3103  1.5324 -0.0730
  125OSM   H17G13379   3.355   2.803   8.580  0.2775 -0.1515 -1.4684
  125OSM   C18F13380   3.522   2.677   8.674 -0.1233 -0.0302 -0.8927
  125OSM   H18F13381   3.595   2.755   8.706  0.8784 -0.4692 -2.0385
  125OSM   H18G13382   3.570   2.578   8.656 -1.3736 -1.1330  1.3753
  125OSM   H18H13383   3.455   2.667   8.761  0.8131  1.0225 -0.0132
  126OSM      N13384   6.731   6.687   6.360  0.0339 -0.6879  0.3026
  126OSM    C1513385   6.641   6.628   6.458  0.4532  0.1581 -0.1807
  126OSM   H15A13386   6.610   6.526   6.441  0.0826  0.2567 -0.1059
  126OSM   H15B13387   6.547   6.680   6.470  0.3108 -0.5183  1.9885
  126OSM   H15C13388   6.684   6.639   6.556 -1.4183 -1.2008  0.8459
  126OSM    C1413389   6.857   6.603   6.348  0.3610 -0.1278 -0.8663
  126OSM   H14A13390   6.919   6.607   6.437  0.2702  0.2239 -0.8167
  126OSM   H14B13391   6.910   6.643   6.263  1.1030  1.8341  0.4383
  126OSM   H14C13392   6.826   6.501   6.332 -0.4388  0.3603 -2.6851
  126OSM    C1313393   6.675   6.676   6.217 -0.3165 -0.4882 -0.2622
  126OSM   H13A13394   6.750   6.722   6.154  1.3909 -2.7039  0.0239
  126OSM   H13B13395   6.584   6.731   6.200  0.6030  0.7816 -1.3098
  126OSM   H13C13396   6.667   6.571   6.195  2.0098 -0.7499 -0.1832
  126OSM    C1213397   6.763   6.830   6.399 -0.1058 -0.4262 -0.1090
  126OSM   H12A13398   6.670   6.886   6.399  0.3840  0.5239 -3.0074
  126OSM   H12B13399   6.834   6.865   6.326 -0.1909 -2.5773 -1.2846
  126OSM    C1113400   6.823   6.847   6.541 -0.8767 -0.1614  0.3827
  126OSM   H11A13401   6.854   6.953   6.549 -0.6391 -0.3457  2.2145
  126OSM   H11B13402   6.905   6.772   6.544  0.3257  1.1055  0.0456
  126OSM      P13403   6.772   6.769   6.776  0.0008  0.3018 -0.1764
  126OSM    O1313404   6.667   6.801   6.868 -0.3085  0.0644 -0.3472
  126OSM    O1413405   6.809   6.629   6.751 -0.4569 -0.3653 -0.1418
  126OSM    O1113406   6.898   6.856   6.803 -0.2287 -0.1054 -0.7964
  126OSM    O1213407   6.728   6.841   6.643 -0.5413  0.0083 -0.2495
  126OSM    C1S13408   6.908   6.998   6.838 -0.0503  0.4464  0.3556
  126OSM    H1S13409   6.825   7.058   6.797 -0.0123  0.5841  0.4825
  126OSM    H1T13410   7.001   7.041   6.795  0.7905  2.1884  3.5994
  126OSM     NF13411   6.965   7.165   7.013  0.3488  0.1833 -0.3107
  126OSM    HNF13412   7.060   7.185   7.034  2.3285 -4.7337 -2.9327
  126OSM    C2S13413   6.926   7.029   6.995  0.2014  0.8094 -0.2302
  126OSM    H2S13414   6.827   7.006   7.039  0.3547  2.6292  1.1621
  126OSM    C3S13415   7.034   6.924   7.055  0.1188 -0.4832 -0.3826
  126OSM    H3S13416   7.130   6.938   7.000  0.1057 -3.0906 -1.1868
  126OSM     O313417   6.998   6.787   7.042  0.0106 -0.2001 -0.4608
  126OSM    HO313418   6.943   6.772   6.965 -1.0530  1.0140  0.0355
  126OSM    C4S13419   7.058   6.960   7.197 -0.2281 -0.4929 -0.5630
  126OSM    H4S13420   6.972   6.945   7.264  0.3883 -0.4481  0.2599
  126OSM    C5S13421   7.175   7.006   7.242  0.9649 -0.3129  0.0788
  126OSM    H5S13422   7.258   7.019   7.171  1.3431  1.1424  0.7570
  126OSM    C6S13423   7.205   7.050   7.387  0.3401  0.3821  0.2249
  126OSM    H6S13424   7.228   7.158   7.399 -2.2452  1.4049 -2.7749
  126OSM    H6T13425   7.293   6.992   7.424 -0.1344 -0.5188 -0.0340
  126OSM    C7S13426   7.086   7.038   7.478 -0.5663 -0.1181 -0.1564
  126OSM    H7S13427   7.059   6.934   7.508  2.0546 -1.5374 -2.3432
  126OSM    H7T13428   6.997   7.086   7.432  1.1683  1.8404 -1.6769
  126OSM    C8S13429   7.109   7.117   7.605  0.4729 -0.0991 -0.0548
  126OSM    H8S13430   7.079   7.223   7.596  1.1494  0.4174  2.7724
  126OSM    H8T13431   7.219   7.116   7.620  0.5122  1.2676 -0.1949
  126OSM    C9S13432   7.043   7.064   7.732  0.6379  0.0575  0.8127
  126OSM    H9S13433   7.088   6.962   7.737  0.1050 -0.3650 -1.7549
  126OSM    H9T13434   6.932   7.059   7.736  0.6851 -0.4693  2.0870
  126OSM   C10S13435   7.083   7.132   7.863 -0.0403  0.9281  1.1390
  126OSM   H10S13436   7.028   7.227   7.849 -3.1553 -0.8357  0.2866
  126OSM   H10T13437   7.193   7.142   7.855 -0.1519  0.7207 -2.8018
  126OSM   C11S13438   7.048   7.068   7.997  0.0172 -0.4035  0.8547
  126OSM   H11S13439   6.937   7.056   8.001  0.2579 -3.2511  1.3820
  126OSM   H11T13440   7.070   7.145   8.073  2.2892  0.8986 -0.9709
  126OSM   C12S13441   7.100   6.926   8.019 -0.1742  0.0511  0.3036
  126OSM   H12S13442   7.210   6.925   8.001 -0.3287  0.7119 -0.7860
  126OSM   H12T13443   7.046   6.865   7.944 -0.2393  1.3881 -0.7924
  126OSM   C13S13444   7.074   6.877   8.163 -0.7183  0.6847 -0.7904
  126OSM   H13S13445   7.102   6.770   8.154 -0.3759  0.7452 -0.4651
  126OSM   H13T13446   6.967   6.879   8.193 -0.2012  0.9099  1.2309
  126OSM   C14S13447   7.160   6.941   8.272  0.1766  0.3543  0.0028
  126OSM   H14S13448   7.129   7.047   8.281  0.0776  0.4666 -1.4353
  126OSM   H14T13449   7.266   6.944   8.237 -0.2806 -0.6603 -1.6125
  126OSM   C15S13450   7.155   6.860   8.402 -0.0954 -0.1045  0.2052
  126OSM   H15S13451   7.229   6.893   8.478  0.2370 -1.4309  0.4835
  126OSM   H15T13452   7.177   6.752   8.389  0.5977 -0.0026  0.4976
  126OSM   C16S13453   7.017   6.841   8.462 -0.4422  0.0290 -0.2019
  126OSM   H16S13454   7.020   6.797   8.564  2.2903 -0.2703 -0.3375
  126OSM   H16T13455   6.956   6.773   8.398 -0.0840  0.2649 -0.7971
  126OSM   C17S13456   6.930   6.968   8.480  0.0266 -0.3993  0.5752
  126OSM   H17S13457   6.926   7.015   8.379  0.8770  0.8895  1.1073
  126OSM   H17T13458   6.983   7.043   8.543  0.4100 -0.1793 -0.0050
  126OSM   C18S13459   6.787   6.936   8.538  0.4355 -0.1026 -0.0785
  126OSM   H18S13460   6.733   7.032   8.550 -2.8518 -1.2162 -3.7781
  126OSM   H18T13461   6.801   6.896   8.640 -1.8984  1.3296  0.8939
  126OSM   H18U13462   6.727   6.862   8.481 -1.4806  2.0874 -1.0991
  126OSM    C1F13463   6.880   7.257   6.990  0.2601 -0.5685 -0.4368
  126OSM     OF13464   6.762   7.231   6.968 -0.3964  0.6455 -0.0384
  126OSM    C2F13465   6.928   7.407   7.002 -0.0112 -0.1303  0.8944
  126OSM    H2F13466   6.939   7.455   6.902 -0.6928  1.5022  1.5615
  126OSM    H2G13467   7.025   7.402   7.054  0.8122 -0.6320 -0.6190
  126OSM    C3F13468   6.843   7.493   7.091 -0.3256 -0.2729 -0.1424
  126OSM    H3F13469   6.740   7.513   7.054  0.3069  2.6041 -0.6181
  126OSM    H3G13470   6.890   7.594   7.101  0.3439 -0.6107  0.2147
  126OSM    C4F13471   6.818   7.429   7.227  0.6413  0.1105  0.0378
  126OSM    H4F13472   6.899   7.367   7.271  0.5125  0.2950  0.5383
  126OSM    H4G13473   6.730   7.362   7.213 -0.3843  1.5252 -0.5498
  126OSM    C5F13474   6.774   7.528   7.330 -0.1007  0.0863 -0.5052
  126OSM    H5F13475   6.664   7.542   7.320 -0.2418  0.3017  1.1140
  126OSM    H5G13476   6.822   7.627   7.321  0.4559  0.0106  1.1939
  126OSM    C6F13477   6.784   7.472   7.475  0.2701  0.3770  0.1106
  126OSM    H6F13478   6.885   7.427   7.483 -0.3062 -1.6028 -2.4870
  126OSM    H6G13479   6.725   7.378   7.482  1.4497 -0.4244 -0.3210
  126OSM    C7F13480   6.735   7.577   7.580  0.0952  0.0795  0.0864
  126OSM    H7F13481   6.633   7.611   7.553 -0.8769 -3.3950 -1.1796
  126OSM    H7G13482   6.808   7.660   7.590 -1.5483  1.4314  1.5949
  126OSM    C8F13483   6.741   7.524   7.724  0.4858 -1.2012  0.2947
  126OSM    H8F13484   6.704   7.608   7.787  2.6545  1.4953 -1.7886
  126OSM    H8G13485   6.843   7.494   7.759  0.9066 -1.5721 -1.1919
  126OSM    C9F13486   6.637   7.417   7.738 -0.9053 -0.4035  0.8297
  126OSM    H9F13487   6.599   7.363   7.650  0.9405 -1.9230  0.9188
  126OSM   C10F13488   6.587   7.374   7.857 -0.6797 -0.6686 -0.5698
  126OSM   H10F13489   6.521   7.286   7.857 -0.6232 -0.7151  0.0482
  126OSM   C11F13490   6.626   7.428   7.997 -0.0523  0.4036 -0.6534
  126OSM   H11F13491   6.540   7.435   8.068 -0.2238  2.2516 -0.9907
  126OSM   H11G13492   6.672   7.529   7.988 -0.1714  0.3094 -2.9918
  126OSM   C12F13493   6.737   7.332   8.052 -0.0693  0.2741 -0.4487
  126OSM   H12F13494   6.829   7.349   7.993  0.9492 -0.8119  0.7435
  126OSM   H12G13495   6.700   7.227   8.041 -1.9088  0.9367 -0.9422
  126OSM   C13F13496   6.771   7.367   8.198 -0.3001 -0.1985 -0.2363
  126OSM   H13F13497   6.755   7.272   8.253 -2.0231  1.4541  2.2983
  126OSM   H13G13498   6.701   7.447   8.232 -0.8315 -0.9747  0.5329
  126OSM   C14F13499   6.912   7.414   8.214  0.1415 -0.3482 -0.1382
  126OSM   H14F13500   6.947   7.503   8.157  1.1977 -0.5284  0.1962
  126OSM   H14G13501   6.977   7.327   8.195 -0.8988 -0.8950 -1.3003
  126OSM   C15F13502   6.938   7.457   8.364  0.0322  0.1763  0.0123
  126OSM   H15F13503   6.854   7.520   8.398  1.7459  2.0823  0.9694
  126OSM   H15G13504   7.035   7.512   8.367  0.7262 -0.9767 -0.2534
  126OSM   C16F13505   6.954   7.341   8.467 -0.0906 -0.3451  0.0404
  126OSM   H16F13506   7.024   7.261   8.435  0.0577  0.0511 -0.6503
  126OSM   H16G13507   6.854   7.293   8.477 -0.4045  0.2184 -0.3461
  126OSM   C17F13508   6.991   7.387   8.612 -0.8329 -0.0499  0.2418
  126OSM   H17F13509   6.913   7.442   8.669 -0.0759  1.4130 -0.0852
  126OSM   H17G13510   7.074   7.459   8.596  0.1647 -1.3412 -0.6214
  126OSM   C18F13511   7.042   7.272   8.690  0.2779 -0.2732  0.1258
  126OSM   H18F13512   6.960   7.198   8.700  0.6431 -0.5893  0.7949
  126OSM   H18G13513   7.081   7.301   8.790  1.8697 -0.4146 -0.4216
  126OSM   H18H13514   7.121   7.216   8.636 -0.0436 -0.7072  0.1008
  127OSM      N13515   6.138   1.835   6.023  0.3449  0.3568 -0.1319
  127OSM    C1513516   5.995   1.860   5.981  0.0055 -0.1960  0.8941
  127OSM   H15A13517   5.957   1.766   5.944 -1.0990  0.5899 -0.0015
  127OSM   H15B13518   5.991   1.930   5.899 -1.7361 -1.9015 -0.5514
  127OSM   H15C13519   5.934   1.895   6.063  2.3418  1.6548  1.9790
  127OSM    C1413520   6.221   1.799   5.905  0.1387 -0.9182  0.2065
  127OSM   H14A13521   6.321   1.765   5.928 -0.6114 -3.8881 -0.4966
  127OSM   H14B13522   6.219   1.887   5.843 -1.2279 -1.2925 -0.3017
  127OSM   H14C13523   6.173   1.723   5.845 -0.8860  0.8052 -1.2392
  127OSM    C1313524   6.197   1.974   6.061 -0.5843 -0.2616 -0.1433
  127OSM   H13A13525   6.164   2.058   6.001  2.0615  1.8560  1.1564
  127OSM   H13B13526   6.304   1.974   6.049 -0.7445 -2.6358 -2.3977
  127OSM   H13C13527   6.170   1.998   6.163 -0.5293 -3.0281  0.5935
  127OSM    C1213528   6.145   1.744   6.142  0.1984 -0.1475 -0.3594
  127OSM   H12A13529   6.248   1.718   6.161  0.1741 -2.4904 -2.7052
  127OSM   H12B13530   6.085   1.662   6.105  1.1522 -1.1102  0.1625
  127OSM    C1113531   6.079   1.790   6.279 -1.0754  0.1697 -0.9086
  127OSM   H11A13532   6.143   1.874   6.312  0.5430 -0.7309 -1.6500
  127OSM   H11B13533   6.095   1.710   6.355 -2.8012  1.1513  0.5727
  127OSM      P13534   5.851   1.901   6.354  0.1927  0.1407 -0.4171
  127OSM    O1313535   5.917   2.032   6.380 -0.0924  0.0169  0.4156
  127OSM    O1413536   5.707   1.899   6.309 -0.1802 -0.3489 -0.1571
  127OSM    O1113537   5.863   1.819   6.490  0.0611  0.3423 -0.1737
  127OSM    O1213538   5.940   1.818   6.258  0.2358 -0.0641  0.3504
  127OSM    C1S13539   5.795   1.873   6.601 -0.0280  0.0910 -0.1829
  127OSM    H1S13540   5.688   1.843   6.603  0.2768 -1.0277  1.2145
  127OSM    H1T13541   5.798   1.983   6.612  1.2956 -0.0304  1.0187
  127OSM     NF13542   5.783   1.913   6.848 -0.0359  0.4533 -1.1971
  127OSM    HNF13543   5.840   1.982   6.892 -1.5234 -0.3366  2.3217
  127OSM    C2S13544   5.843   1.829   6.743 -0.7046  0.2092 -0.1993
  127OSM    H2S13545   5.800   1.727   6.749 -0.7777  0.3126  2.0435
  127OSM    C3S13546   5.995   1.805   6.755 -0.0057  0.0162  0.7349
  127OSM    H3S13547   6.049   1.902   6.743 -0.6621  0.1936 -1.1968
  127OSM     O313548   6.045   1.726   6.648 -0.7251 -0.2680 -0.2042
  127OSM    HO313549   5.975   1.725   6.582  0.4633 -1.0241 -1.5168
  127OSM    C4S13550   6.030   1.735   6.881  0.4074 -0.2669  0.8644
  127OSM    H4S13551   5.978   1.639   6.898  1.9468 -1.0839  1.1464
  127OSM    C5S13552   6.126   1.777   6.961  0.1261  0.0037  0.0798
  127OSM    H5S13553   6.191   1.864   6.943 -0.6520  0.4562 -0.6606
  127OSM    C6S13554   6.156   1.705   7.085  0.0651 -0.6626  0.0062
  127OSM    H6S13555   6.258   1.667   7.065 -0.5192 -2.1916 -0.2304
  127OSM    H6T13556   6.084   1.623   7.107  0.7597 -0.7816  1.9758
  127OSM    C7S13557   6.155   1.787   7.217  0.4781 -0.3492  0.2961
  127OSM    H7S13558   6.051   1.826   7.217  0.2414 -0.8400 -2.1410
  127OSM    H7T13559   6.214   1.880   7.201 -3.4753  2.1075 -1.5295
  127OSM    C8S13560   6.199   1.717   7.341  0.7496 -0.4003  0.6267
  127OSM    H8S13561   6.309   1.705   7.341  0.6328 -2.2717 -1.8332
  127OSM    H8T13562   6.152   1.616   7.339 -2.7415  1.0657  1.3694
  127OSM    C9S13563   6.144   1.783   7.465 -0.3344 -0.7647 -0.0271
  127OSM    H9S13564   6.142   1.703   7.543  0.7396  1.1304  2.0734
  127OSM    H9T13565   6.039   1.813   7.447 -0.7922 -1.9472  0.5667
  127OSM   C10S13566   6.241   1.883   7.529 -0.1596  0.4262 -0.4062
  127OSM   H10S13567   6.271   1.963   7.458  1.5169 -2.0649 -2.7718
  127OSM   H10T13568   6.347   1.854   7.550 -0.0733  0.8163 -0.2852
  127OSM   C11S13569   6.178   1.954   7.649  0.1043 -0.5871  0.1816
  127OSM   H11S13570   6.082   2.000   7.616  0.7018 -0.7559 -1.9956
  127OSM   H11T13571   6.245   2.037   7.680 -1.8913  1.4283 -0.6529
  127OSM   C12S13572   6.133   1.872   7.768 -0.8834 -0.0923 -0.0382
  127OSM   H12S13573   6.216   1.815   7.816 -2.1656 -2.0200  0.0092
  127OSM   H12T13574   6.065   1.787   7.743  0.4663 -0.7608 -1.5901
  127OSM   C13S13575   6.059   1.955   7.878 -0.0904  1.4095  0.4880
  127OSM   H13S13576   5.950   1.941   7.860 -0.1215  0.0621  1.5131
  127OSM   H13T13577   6.097   2.058   7.887  0.3852  1.0392  5.4096
  127OSM   C14S13578   6.081   1.895   8.015 -0.1992 -0.3331  0.4986
  127OSM   H14S13579   6.187   1.915   8.041 -0.0315 -1.6826  0.8916
  127OSM   H14T13580   6.063   1.789   7.989 -1.1569 -0.0458 -0.0601
  127OSM   C15S13581   5.998   1.939   8.129  0.8558 -0.0248 -0.5565
  127OSM   H15S13582   5.891   1.941   8.100  0.3135 -0.5355  1.2457
  127OSM   H15T13583   6.026   2.040   8.167 -0.8786  0.6230 -0.9160
  127OSM   C16S13584   6.021   1.837   8.242 -0.9604 -0.0627  1.2057
  127OSM   H16S13585   6.131   1.818   8.245 -0.7894  0.9416  1.9548
  127OSM   H16T13586   5.992   1.735   8.209 -1.5402  0.9821 -1.8906
  127OSM   C17S13587   5.971   1.867   8.383 -0.7944  0.0716  0.2582
  127OSM   H17S13588   5.862   1.887   8.374 -0.4023  1.7383 -1.5282
  127OSM   H17T13589   6.028   1.959   8.410 -0.1117  1.0711 -3.8312
  127OSM   C18S13590   6.001   1.756   8.484  0.3455  0.2443 -0.3204
  127OSM   H18S13591   5.997   1.655   8.439 -1.0528 -0.1357  0.5898
  127OSM   H18T13592   5.917   1.757   8.557  0.2111  1.5967 -0.4644
  127OSM   H18U13593   6.091   1.786   8.542 -0.3728  2.7882 -0.3975
  127OSM    C1F13594   5.651   1.914   6.876 -0.1075  0.1639  0.1812
  127OSM     OF13595   5.570   1.836   6.830  0.3580  0.0068  0.2611
  127OSM    C2F13596   5.606   2.025   6.971  0.3371  0.5539  0.0865
  127OSM    H2F13597   5.505   2.053   6.932 -1.2526 -3.2099  1.0466
  127OSM    H2G13598   5.682   2.105   6.964 -0.3951  1.2433 -0.1849
  127OSM    C3F13599   5.578   1.985   7.121  0.1752 -0.1406  0.5867
  127OSM    H3F13600   5.673   1.938   7.155  1.0965 -2.7551 -4.5237
  127OSM    H3G13601   5.511   1.897   7.118  1.6648 -1.3999  2.1305
  127OSM    C4F13602   5.534   2.099   7.209 -0.4787 -0.1652 -0.3171
  127OSM    H4F13603   5.606   2.182   7.198 -0.7304  0.7835  3.6818
  127OSM    H4G13604   5.549   2.059   7.312 -2.5030 -3.0528 -1.0177
  127OSM    C5F13605   5.387   2.140   7.186 -0.1699  0.1696 -0.7539
  127OSM    H5F13606   5.323   2.051   7.205  0.0984 -0.4173 -2.5042
  127OSM    H5G13607   5.367   2.178   7.084  0.0378  1.4658 -0.3234
  127OSM    C6F13608   5.338   2.246   7.287 -0.0770 -0.0272  0.0041
  127OSM    H6F13609   5.228   2.251   7.272 -0.3110  1.3655  1.8493
  127OSM    H6G13610   5.368   2.350   7.261  0.6512 -0.7098 -2.0629
  127OSM    C7F13611   5.355   2.221   7.432 -0.1075  0.5749 -0.3860
  127OSM    H7F13612   5.301   2.298   7.491 -1.9565 -0.8680 -0.1448
  127OSM    H7G13613   5.463   2.218   7.461 -0.0148 -0.7463 -0.8288
  127OSM    C8F13614   5.296   2.083   7.471 -0.1031  0.3466 -0.7029
  127OSM    H8F13615   5.370   2.006   7.442  2.0162  1.7913  0.6056
  127OSM    H8G13616   5.198   2.053   7.428  0.1617  0.0728 -1.1226
  127OSM    C9F13617   5.292   2.068   7.626  0.3949 -0.1573  0.3426
  127OSM    H9F13618   5.387   2.070   7.680  0.9798  1.9716 -0.6495
  127OSM   C10F13619   5.182   2.022   7.700  0.7432 -0.5423  0.1256
  127OSM   H10F13620   5.190   2.016   7.810  0.9165  0.9181  0.2078
  127OSM   C11F13621   5.045   2.002   7.641  0.2712 -0.4821  0.2766
  127OSM   H11F13622   5.025   1.894   7.625 -0.6973 -0.1450 -0.9183
  127OSM   H11G13623   5.033   2.035   7.535 -0.3355  0.7361  0.7073
  127OSM   C12F13624   4.935   2.075   7.721 -0.0513  0.7215 -0.4357
  127OSM   H12F13625   4.841   2.078   7.660 -0.7910  1.9785  0.7112
  127OSM   H12G13626   4.956   2.184   7.722  0.3997  0.6310 -0.2407
  127OSM   C13F13627   4.909   2.011   7.859  0.0748  0.2912  0.1053
  127OSM   H13F13628   5.005   2.012   7.914 -1.2579 -3.3650  2.9678
  127OSM   H13G13629   4.868   1.908   7.850 -3.4002  1.5806 -0.5948
  127OSM   C14F13630   4.815   2.099   7.941  0.3775 -0.5207  0.1968
  127OSM   H14F13631   4.735   2.111   7.864  0.7325  0.1762 -0.0796
  127OSM   H14G13632   4.862   2.200   7.944 -1.9995  0.6482  1.9627
  127OSM   C15F13633   4.782   2.047   8.085 -0.3468  0.4819  0.1833
  127OSM   H15F13634   4.880   2.003   8.116 -0.2096  1.3277  0.9964
  127OSM   H15G13635   4.703   1.972   8.068  0.6651 -0.2801 -1.4842
  127OSM   C16F13636   4.730   2.168   8.169 -0.3921  1.1224 -0.2807
  127OSM   H16F13637   4.671   2.230   8.098 -2.3274 -2.1109 -1.7123
  127OSM   H16G13638   4.814   2.221   8.219 -0.9796  0.1797  1.8203
  127OSM   C17F13639   4.622   2.131   8.266  0.3525 -0.4284 -0.5659
  127OSM   H17F13640   4.657   2.058   8.342 -1.5643  1.3403  2.2319
  127OSM   H17G13641   4.542   2.079   8.210  1.1771 -1.9597 -0.3789
  127OSM   C18F13642   4.580   2.266   8.334 -0.4016 -0.0917  0.0491
  127OSM   H18F13643   4.670   2.322   8.370 -0.3199 -1.0677  1.4586
  127OSM   H18G13644   4.496   2.251   8.405  0.1463  1.3229  1.0327
  127OSM   H18H13645   4.531   2.318   8.249 -2.6795 -1.6656  0.3287
  128OSM      N13646   3.754   5.175   6.119 -0.1531 -0.2041 -0.1632
  128OSM    C1513647   3.717   5.094   6.000  0.1876  0.2366  0.0127
  128OSM   H15A13648   3.789   5.099   5.920  0.1005  1.1144 -0.0169
  128OSM   H15B13649   3.614   5.110   5.973 -0.6614 -1.2865  2.0756
  128OSM   H15C13650   3.722   4.988   6.023 -0.5355  0.5499  1.7783
  128OSM    C1413651   3.892   5.150   6.172 -0.0001  0.9868  0.1137
  128OSM   H14A13652   3.910   5.202   6.265 -1.5462  1.0675  0.4046
  128OSM   H14B13653   3.969   5.169   6.099  0.1918 -2.0301 -0.6078
  128OSM   H14C13654   3.895   5.045   6.198  0.4991  1.1325  0.6478
  128OSM    C1313655   3.739   5.321   6.088 -0.2623 -0.1169 -0.2090
  128OSM   H13A13656   3.806   5.354   6.009 -0.3270 -1.0732 -0.6735
  128OSM   H13B13657   3.773   5.377   6.174 -0.7743 -1.0915  0.6482
  128OSM   H13C13658   3.639   5.352   6.065  0.2966 -0.7135 -4.1007
  128OSM    C1213659   3.652   5.136   6.229 -0.0794 -0.3457  0.4810
  128OSM   H12A13660   3.665   5.191   6.321  1.0748 -1.3657  0.9609
  128OSM   H12B13661   3.671   5.036   6.267 -1.6567 -0.5952  0.7027
  128OSM    C1113662   3.502   5.143   6.185  0.0301 -0.2802  0.4351
  128OSM   H11A13663   3.444   5.088   6.262  1.7478  0.3084  2.2043
  128OSM   H11B13664   3.489   5.086   6.090  1.1659 -0.7147  0.5214
  128OSM      P13665   3.402   5.362   6.273 -0.0086 -0.1846  0.2155
  128OSM    O1313666   3.472   5.488   6.282 -0.5011 -0.3464 -0.2379
  128OSM    O1413667   3.254   5.376   6.256  0.5726  0.9024  0.5090
  128OSM    O1113668   3.430   5.287   6.414  0.3086  0.1103  0.4490
  128OSM    O1213669   3.467   5.277   6.158  0.1184  0.0975 -0.0777
  128OSM    C1S13670   3.433   5.359   6.539 -0.6216  0.3412  0.1592
  128OSM    H1S13671   3.386   5.459   6.526 -1.1814  0.4016  2.2107
  128OSM    H1T13672   3.539   5.367   6.571 -0.2820 -5.3911  1.4540
  128OSM     NF13673   3.334   5.371   6.763 -0.3524 -1.0651  0.6684
  128OSM    HNF13674   3.400   5.385   6.837  0.0428 -0.4107  0.2017
  128OSM    C2S13675   3.360   5.286   6.654 -0.1433 -0.1738  0.1788
  128OSM    H2S13676   3.263   5.257   6.609  1.1840 -2.5467 -1.4059
  128OSM    C3S13677   3.429   5.154   6.688 -0.1455 -0.9595 -0.4504
  128OSM    H3S13678   3.530   5.188   6.716  0.3870 -1.9450 -1.1211
  128OSM     O313679   3.457   5.074   6.573 -0.4353  0.0865  0.8031
  128OSM    HO313680   3.434   5.132   6.500 -0.0991  2.5038  2.5170
  128OSM    C4S13681   3.353   5.083   6.792  0.2717  0.0723  0.0720
  128OSM    H4S13682   3.393   5.097   6.893 -1.1677  1.6774  0.4755
  128OSM    C5S13683   3.240   5.006   6.767  0.2553  0.1056 -0.7150
  128OSM    H5S13684   3.210   4.986   6.663  1.4564  1.7780 -1.4502
  128OSM    C6S13685   3.161   4.942   6.886  0.1935 -0.6548  0.1788
  128OSM    H6S13686   3.175   4.833   6.873  0.9443 -0.7372  1.5254
  128OSM    H6T13687   3.052   4.964   6.877  0.9315  2.7662 -2.7398
  128OSM    C7S13688   3.220   4.968   7.026 -0.4549 -0.4448  0.1272
  128OSM    H7S13689   3.206   5.068   7.070  2.6929 -0.3520  1.2013
  128OSM    H7T13690   3.330   4.952   7.019 -0.5301 -0.8292 -0.2163
  128OSM    C8S13691   3.156   4.877   7.134 -0.0855 -0.1825 -0.7189
  128OSM    H8S13692   3.218   4.881   7.226 -0.7280 -1.6466 -0.1884
  128OSM    H8T13693   3.152   4.774   7.093 -3.1455 -0.5452  0.2022
  128OSM    C9S13694   3.010   4.926   7.171  0.0804  0.3952  0.2418
  128OSM    H9S13695   2.950   4.883   7.088  1.1381  1.0516 -0.9146
  128OSM    H9T13696   2.994   5.036   7.167  1.2359  0.6026  0.6787
  128OSM   C10S13697   2.962   4.864   7.302  0.6478 -0.2451 -0.4955
  128OSM   H10S13698   2.973   4.754   7.302  0.7846 -0.2508  0.9489
  128OSM   H10T13699   2.852   4.880   7.296  0.7368  0.9045  0.4760
  128OSM   C11S13700   3.020   4.911   7.430  0.5371 -0.4874 -0.2380
  128OSM   H11S13701   3.027   5.022   7.427 -2.9399 -0.1550  0.3102
  128OSM   H11T13702   3.120   4.863   7.439  0.6407 -0.3412 -0.5737
  128OSM   C12S13703   2.940   4.872   7.556  0.3339  0.1333 -0.5304
  128OSM   H12S13704   2.933   4.762   7.566 -2.6885  0.3532  0.6240
  128OSM   H12T13705   2.833   4.900   7.545 -0.1115 -1.5002 -0.6145
  128OSM   C13S13706   2.998   4.937   7.682 -0.5736 -0.0523 -0.8387
  128OSM   H13S13707   3.002   5.048   7.682  1.1837 -0.0113  2.3195
  128OSM   H13T13708   3.104   4.906   7.684 -0.0705  1.4795 -1.6404
  128OSM   C14S13709   2.919   4.896   7.805 -0.6074  0.4030  0.0782
  128OSM   H14S13710   2.897   4.788   7.792 -0.0780  0.2170  0.6483
  128OSM   H14T13711   2.819   4.944   7.806 -1.1392 -0.4702 -2.8387
  128OSM   C15S13712   2.980   4.932   7.945  0.4347 -0.0954  0.8923
  128OSM   H15S13713   2.900   4.930   8.022  1.0732 -1.4938  1.5450
  128OSM   H15T13714   3.001   5.041   7.958 -0.2842 -0.0520  1.7233
  128OSM   C16S13715   3.099   4.846   7.999 -0.1905 -0.3699  0.8329
  128OSM   H16S13716   3.167   4.827   7.913  0.5467  0.1118  1.3043
  128OSM   H16T13717   3.046   4.752   8.028  0.0802 -1.0917 -0.8432
  128OSM   C17S13718   3.172   4.904   8.115 -0.4512 -0.1466 -0.1651
  128OSM   H17S13719   3.213   5.003   8.087 -1.5024 -0.4334 -3.0234
  128OSM   H17T13720   3.261   4.841   8.138  0.1728  0.7743 -0.0164
  128OSM   C18S13721   3.087   4.903   8.243  0.3894 -0.0455  0.8436
  128OSM   H18S13722   3.145   4.924   8.336  1.6067  0.5763 -0.0309
  128OSM   H18T13723   3.039   4.810   8.281  0.3272  1.2266  4.2492
  128OSM   H18U13724   3.004   4.977   8.245  2.2246  2.1082  1.7528
  128OSM    C1F13725   3.251   5.474   6.740 -0.1531  0.2469  0.3564
  128OSM     OF13726   3.178   5.474   6.640  0.0166 -0.0581 -0.7462
  128OSM    C2F13727   3.260   5.583   6.837 -0.5200 -0.2178 -0.4061
  128OSM    H2F13728   3.267   5.684   6.792 -2.1175  0.0471 -0.1113
  128OSM    H2G13729   3.347   5.572   6.906  0.4802  0.6999 -1.4816
  128OSM    C3F13730   3.134   5.585   6.926  0.0865  0.3790 -0.0989
  128OSM    H3F13731   3.134   5.495   6.991 -0.8804  1.9280  2.2162
  128OSM    H3G13732   3.040   5.592   6.867 -0.0439  0.2705  0.0918
  128OSM    C4F13733   3.127   5.699   7.030  0.1872  0.1578 -0.3417
  128OSM    H4F13734   3.026   5.708   7.074  0.4747  2.5360 -0.0647
  128OSM    H4G13735   3.139   5.793   6.972 -2.6382  1.1619  0.5581
  128OSM    C5F13736   3.227   5.685   7.147 -0.1023  1.0290  0.6916
  128OSM    H5F13737   3.331   5.679   7.106 -1.0362  2.1658 -2.1421
  128OSM    H5G13738   3.205   5.592   7.203  0.9545  1.4894  1.8995
  128OSM    C6F13739   3.217   5.792   7.241 -0.0585 -0.5040 -0.2666
  128OSM    H6F13740   3.114   5.797   7.284 -0.1089 -1.7613 -0.2221
  128OSM    H6G13741   3.232   5.886   7.184 -1.8469 -0.5871 -0.9526
  128OSM    C7F13742   3.319   5.795   7.350 -0.7591 -0.6170 -0.5397
  128OSM    H7F13743   3.417   5.839   7.322 -0.1231 -0.1860  2.1017
  128OSM    H7G13744   3.341   5.689   7.378 -2.5361 -1.1050 -0.9009
  128OSM    C8F13745   3.280   5.871   7.478 -0.3829  0.2108  0.8552
  128OSM    H8F13746   3.181   5.829   7.505  0.0760 -1.1262  0.5010
  128OSM    H8G13747   3.269   5.973   7.435  2.1841 -0.5726 -2.0039
  128OSM    C9F13748   3.375   5.866   7.597  0.7112  0.2754  0.2866
  128OSM    H9F13749   3.394   5.762   7.627  0.7577  0.4216  0.7714
  128OSM   C10F13750   3.424   5.968   7.671 -0.9509 -0.4915 -0.0055
  128OSM   H10F13751   3.483   5.951   7.762 -0.3951 -0.0372 -0.2723
  128OSM   C11F13752   3.388   6.112   7.648 -0.4501  0.1070  0.9249
  128OSM   H11F13753   3.324   6.136   7.561 -0.1527  0.2319  0.7368
  128OSM   H11G13754   3.484   6.167   7.632  0.5346 -2.4668 -3.6729
  128OSM   C12F13755   3.335   6.185   7.780 -0.0523 -0.3048  0.0414
  128OSM   H12F13756   3.400   6.174   7.869 -0.0809  3.0877  0.6242
  128OSM   H12G13757   3.233   6.145   7.802 -1.5481  2.1571 -1.8568
  128OSM   C13F13758   3.318   6.335   7.751  0.2036 -0.0467  0.1530
  128OSM   H13F13759   3.262   6.345   7.655 -0.5230 -0.9522  0.4620
  128OSM   H13G13760   3.417   6.377   7.724 -0.3851  0.3534 -1.5292
  128OSM   C14F13761   3.262   6.415   7.870  0.0538 -0.1265  0.3644
  128OSM   H14F13762   3.344   6.420   7.945 -0.1003  0.5285  0.4982
  128OSM   H14G13763   3.183   6.352   7.917  0.1197  0.3301  1.0887
  128OSM   C15F13764   3.202   6.553   7.841 -0.4469  1.2631  0.6559
  128OSM   H15F13765   3.099   6.538   7.801 -0.6410  3.9967 -0.0640
  128OSM   H15G13766   3.265   6.615   7.774  0.6960 -0.7687 -0.2251
  128OSM   C16F13767   3.182   6.636   7.978 -0.2145  0.1427  0.5049
  128OSM   H16F13768   3.146   6.737   7.950 -0.8960 -0.1286  0.3902
  128OSM   H16G13769   3.279   6.649   8.031 -0.4421  1.5960  0.5957
  128OSM   C17F13770   3.093   6.571   8.083  0.3380  0.6668 -0.4241
  128OSM   H17F13771   3.136   6.471   8.102  0.4140  0.9228  0.8102
  128OSM   H17G13772   2.995   6.570   8.032 -0.2271  0.9280  0.6470
  128OSM   C18F13773   3.085   6.662   8.205 -0.1085  0.0059  0.3242
  128OSM   H18F13774   2.988   6.660   8.260 -0.4490  2.8731  0.0123
  128OSM   H18G13775   3.093   6.764   8.160  1.7037 -0.5309 -0.6681
  128OSM   H18H13776   3.175   6.647   8.269  0.1500 -1.0702 -0.2763
  129OSM      N13777   2.456   0.159   6.211 -0.5526 -0.2224  0.5593
  129OSM    C1513778   2.330   0.100   6.153  0.5661  0.0370  0.1264
  129OSM   H15A13779   2.335  -0.007   6.167 -0.0081  0.0314  0.3030
  129OSM   H15B13780   2.312   0.133   6.052 -1.4227  1.5495  0.9127
  129OSM   H15C13781   2.243   0.131   6.208  0.5354 -0.8920  0.6259
  129OSM    C1413782   2.462   0.303   6.211 -0.0303 -0.4802 -0.2108
  129OSM   H14A13783   2.554   0.329   6.262 -0.4004 -0.5342  0.5040
  129OSM   H14B13784   2.381   0.352   6.263  0.7991 -0.6380  1.3012
  129OSM   H14C13785   2.463   0.342   6.110  0.4633  0.1554  0.0296
  129OSM    C1313786   2.470   0.113   6.354  0.4625 -0.0822  0.2903
  129OSM   H13A13787   2.473   0.005   6.357  0.3960 -0.0721  0.7013
  129OSM   H13B13788   2.384   0.122   6.419 -0.1814 -0.8518 -0.4210
  129OSM   H13C13789   2.560   0.149   6.400 -0.9696  0.3076  2.9891
  129OSM    C1213790   2.571   0.108   6.120  0.0798  0.1605 -0.1076
  129OSM   H12A13791   2.569   0.161   6.027 -1.1410  0.3272  0.0016
  129OSM   H12B13792   2.552   0.003   6.101  1.9664 -0.6963  2.1723
  129OSM    C1113793   2.707   0.117   6.183 -0.2699  0.7222 -0.2021
  129OSM   H11A13794   2.781   0.074   6.113  2.4662  2.4778  1.4300
  129OSM   H11B13795   2.713   0.057   6.277  2.0434 -1.1865 -1.4665
  129OSM      P13796   2.884   0.293   6.268 -0.2338  0.4559  0.2707
  129OSM    O1313797   2.957   0.165   6.308  0.3964  0.4225  0.4983
  129OSM    O1413798   2.948   0.385   6.179 -0.2001 -0.1310  0.1095
  129OSM    O1113799   2.839   0.362   6.398 -0.0808 -0.0018  0.3182
  129OSM    O1213800   2.748   0.253   6.207 -0.3500  0.7708 -0.4902
  129OSM    C1S13801   2.723   0.331   6.473 -0.4337 -0.7831  0.0486
  129OSM    H1S13802   2.720   0.220   6.479  2.0800 -0.8597  0.9188
  129OSM    H1T13803   2.629   0.380   6.438 -0.2111  1.3592  2.1418
  129OSM     NF13804   2.636   0.335   6.714 -0.4124 -0.0615  0.4792
  129OSM    HNF13805   2.559   0.392   6.742  0.3916  1.4553 -0.2456
  129OSM    C2S13806   2.741   0.383   6.627 -0.1803  0.9098  0.1395
  129OSM    H2S13807   2.835   0.344   6.670 -0.2650  1.7918  1.1542
  129OSM    C3S13808   2.757   0.539   6.616  0.5184  0.4647  0.3279
  129OSM    H3S13809   2.653   0.559   6.582  0.9059  0.5203 -0.8738
  129OSM     O313810   2.842   0.603   6.522  0.7315  0.0207  0.3802
  129OSM    HO313811   2.866   0.535   6.460  0.4601  0.5361 -0.3051
  129OSM    C4S13812   2.784   0.592   6.756 -0.1303 -0.3031 -0.4241
  129OSM    H4S13813   2.690   0.597   6.813 -0.4021  0.7814 -0.9386
  129OSM    C5S13814   2.899   0.630   6.816 -0.4997 -0.2635  0.2434
  129OSM    H5S13815   2.994   0.601   6.768 -0.0637  0.1919  0.8141
  129OSM    C6S13816   2.903   0.690   6.952 -0.6776  0.0740 -0.0914
  129OSM    H6S13817   2.998   0.652   6.996 -0.5105 -0.7820 -1.1450
  129OSM    H6T13818   2.811   0.670   7.011 -0.2204  0.1100  0.6537
  129OSM    C7S13819   2.914   0.844   6.924 -0.3461 -0.0805  0.0937
  129OSM    H7S13820   2.837   0.880   6.852 -0.5956  2.2158  1.4019
  129OSM    H7T13821   3.011   0.869   6.876 -0.4216 -0.6773 -0.3860
  129OSM    C8S13822   2.886   0.918   7.054  0.4146 -0.1959  0.4025
  129OSM    H8S13823   2.953   0.876   7.132  2.2970  0.8530 -0.5707
  129OSM    H8T13824   2.780   0.896   7.080  0.2349  0.9353  0.6832
  129OSM    C9S13825   2.896   1.075   7.035 -0.3289  0.3460  0.3269
  129OSM    H9S13826   2.844   1.099   6.939 -0.3783 -0.9966  0.0031
  129OSM    H9T13827   3.006   1.081   7.021 -0.3266  1.6512  0.7183
  129OSM   C10S13828   2.841   1.153   7.153 -0.0897  0.6736 -0.2492
  129OSM   H10S13829   2.733   1.134   7.169  0.0965 -1.7737 -1.5582
  129OSM   H10T13830   2.841   1.264   7.146  2.2785  0.6938 -0.6183
  129OSM   C11S13831   2.914   1.126   7.282  0.0577 -0.1213 -1.1046
  129OSM   H11S13832   3.018   1.161   7.265 -0.3626  1.1486 -1.1662
  129OSM   H11T13833   2.915   1.017   7.300  2.8536  0.1161  0.8391
  129OSM   C12S13834   2.843   1.187   7.406  0.5244  0.5759 -0.7238
  129OSM   H12S13835   2.739   1.150   7.404  1.1943 -1.3869 -0.8875
  129OSM   H12T13836   2.843   1.298   7.406 -0.1599  0.5776 -0.4391
  129OSM   C13S13837   2.906   1.155   7.537 -0.0178  0.3320 -0.3228
  129OSM   H13S13838   3.006   1.202   7.543  0.5116 -0.4183 -2.3908
  129OSM   H13T13839   2.923   1.046   7.548 -0.0790  0.4444  1.1259
  129OSM   C14S13840   2.828   1.215   7.654 -0.4810  0.1614  1.0127
  129OSM   H14S13841   2.726   1.174   7.639  0.9490 -3.2721 -0.4731
  129OSM   H14T13842   2.832   1.325   7.641  0.8849  0.0399  0.2087
  129OSM   C15S13843   2.887   1.177   7.793  0.5871 -0.2155 -1.1105
  129OSM   H15S13844   2.819   1.221   7.869 -0.8516 -0.9483 -1.9400
  129OSM   H15T13845   2.993   1.209   7.804  0.5504 -0.3524 -0.2975
  129OSM   C16S13846   2.890   1.030   7.823  0.1381 -0.4656 -0.6826
  129OSM   H16S13847   2.955   0.978   7.749  2.6051 -1.0274  1.6834
  129OSM   H16T13848   2.787   0.990   7.815 -0.2791  0.5542 -0.5745
  129OSM   C17S13849   2.948   1.005   7.963  0.6059  0.0155  0.3919
  129OSM   H17S13850   2.881   1.063   8.031 -2.0861 -2.0120 -0.3334
  129OSM   H17T13851   3.055   1.035   7.962  0.7416 -0.4830 -0.7997
  129OSM   C18S13852   2.939   0.857   7.999 -0.5325 -0.7305 -0.1113
  129OSM   H18S13853   2.972   0.826   8.101  0.8061 -1.3095 -0.6926
  129OSM   H18T13854   2.997   0.807   7.919 -1.2617  0.1636 -1.2296
  129OSM   H18U13855   2.842   0.808   7.980 -1.9631  1.7719  0.2080
  129OSM    C1F13856   2.640   0.206   6.749  0.0981  0.6935  0.1965
  129OSM     OF13857   2.740   0.137   6.728  0.3647  0.7156  0.5415
  129OSM    C2F13858   2.524   0.146   6.831  0.0772  0.5835  0.7095
  129OSM    H2F13859   2.452   0.093   6.764 -0.3157  1.1636  0.6611
  129OSM    H2G13860   2.464   0.235   6.862  1.0419  0.3118  3.6421
  129OSM    C3F13861   2.566   0.059   6.954 -0.3893  0.7666 -0.0193
  129OSM    H3F13862   2.638   0.103   7.027  0.4482 -0.6874  0.0663
  129OSM    H3G13863   2.618  -0.035   6.926  0.3554  0.6681  1.5664
  129OSM    C4F13864   2.447   0.007   7.042 -1.1778 -0.6537  0.6480
  129OSM    H4F13865   2.384  -0.064   6.984  0.6664 -0.1232 -2.1726
  129OSM    H4G13866   2.388   0.098   7.065 -0.2119  0.0828  0.2834
  129OSM    C5F13867   2.501  -0.058   7.171  0.2083 -0.2398  0.3356
  129OSM    H5F13868   2.587   0.001   7.208  1.5147 -1.1924 -1.0670
  129OSM    H5G13869   2.551  -0.155   7.148  0.0333 -0.5157  1.0790
  129OSM    C6F13870   2.398  -0.064   7.289  0.2032  0.3333  0.0057
  129OSM    H6F13871   2.315  -0.129   7.255 -2.3610  3.2399  0.2799
  129OSM    H6G13872   2.358   0.038   7.303  1.1866  0.5251  1.6146
  129OSM    C7F13873   2.457  -0.102   7.426  0.3890 -0.3450 -0.3685
  129OSM    H7F13874   2.555  -0.049   7.429  0.1178  0.2470 -1.6627
  129OSM    H7G13875   2.490  -0.208   7.432  1.4242 -0.0096  0.2647
  129OSM    C8F13876   2.375  -0.065   7.551 -0.4279  0.1774 -0.5918
  129OSM    H8F13877   2.326   0.035   7.540 -1.2970 -0.4066 -2.4574
  129OSM    H8G13878   2.438  -0.062   7.643  1.0678  1.1058 -1.6125
  129OSM    C9F13879   2.271  -0.173   7.549 -0.3924 -0.3483 -0.3654
  129OSM    H9F13880   2.238  -0.205   7.449  0.7827 -0.9205 -0.5844
  129OSM   C10F13881   2.201  -0.212   7.657  0.4539 -0.2507  0.2849
  129OSM   H10F13882   2.134  -0.299   7.650 -0.6278  0.4654  1.3197
  129OSM   C11F13883   2.209  -0.160   7.799 -0.2906  0.2170 -0.4629
  129OSM   H11F13884   2.113  -0.132   7.849  1.2714  0.5568  2.5655
  129OSM   H11G13885   2.279  -0.074   7.806 -0.4636  0.3556 -0.4350
  129OSM   C12F13886   2.261  -0.276   7.897  0.2771 -0.2077  0.7236
  129OSM   H12F13887   2.371  -0.290   7.887  0.2032 -0.5703  0.4179
  129OSM   H12G13888   2.215  -0.371   7.863 -0.1024 -0.7593  2.6596
  129OSM   C13F13889   2.212  -0.264   8.042  0.1243  0.5532  0.1984
  129OSM   H13F13890   2.101  -0.277   8.046 -0.2370  3.2429  0.8955
  129OSM   H13G13891   2.236  -0.160   8.075  0.1885  0.1590  1.4641
  129OSM   C14F13892   2.272  -0.373   8.136  0.0206 -0.3362 -0.0022
  129OSM   H14F13893   2.380  -0.354   8.149 -0.0088  0.5481 -1.0027
  129OSM   H14G13894   2.249  -0.477   8.103 -2.1486  0.6162 -1.7649
  129OSM   C15F13895   2.211  -0.359   8.282  0.4134 -0.2985 -0.7981
  129OSM   H15F13896   2.100  -0.351   8.281  0.3162 -1.2737  0.1146
  129OSM   H15G13897   2.255  -0.268   8.329  0.9790 -0.7015 -0.5411
  129OSM   C16F13898   2.248  -0.480   8.364 -0.4319  0.1468  0.0640
  129OSM   H16F13899   2.359  -0.490   8.365  0.0998  3.4658 -3.6466
  129OSM   H16G13900   2.204  -0.571   8.318  2.1514 -0.9082 -0.4947
  129OSM   C17F13901   2.213  -0.465   8.511  0.3290  0.1775  0.8880
  129OSM   H17F13902   2.103  -0.467   8.517  0.3151 -0.6916  0.5480
  129OSM   H17G13903   2.249  -0.368   8.551  0.4178  0.5788 -0.1332
  129OSM   C18F13904   2.250  -0.594   8.586 -0.1367  0.1352 -0.3283
  129OSM   H18F13905   2.359  -0.601   8.606  0.1676 -0.9696 -2.1549
  129OSM   H18G13906   2.219  -0.679   8.522 -1.1391  1.1723 -1.2421
  129OSM   H18H13907   2.185  -0.606   8.675 -0.5749 -0.3516 -0.7063
  130OSM      N13908   4.649   4.448   6.151  0.5898 -0.2834  0.3348
  130OSM    C1513909   4.580   4.351   6.060 -0.2086 -0.4593  0.1793
  130OSM   H15A13910   4.587   4.384   5.957 -0.5201  0.1122  0.3375
  130OSM   H15B13911   4.475   4.355   6.084 -0.2876 -0.1870 -0.1885
  130OSM   H15C13912   4.638   4.260   6.065  0.8178  0.0771 -1.1896
  130OSM    C1413913   4.799   4.456   6.130  0.4211 -0.0298 -0.2672
  130OSM   H14A13914   4.823   4.479   6.027  0.7942 -0.7788 -0.3577
  130OSM   H14B13915   4.857   4.366   6.141  2.8100  1.4311 -0.2217
  130OSM   H14C13916   4.846   4.529   6.194  1.9498 -2.5692  1.7029
  130OSM    C1313917   4.609   4.589   6.101 -0.4895  0.0767  0.5077
  130OSM   H13A13918   4.651   4.605   6.003  1.8568  1.2302  1.6318
  130OSM   H13B13919   4.650   4.661   6.171  1.9770  0.2471 -0.9919
  130OSM   H13C13920   4.503   4.597   6.086 -0.6495 -0.1849  1.3867
  130OSM    C1213921   4.617   4.411   6.287  0.7240 -0.5809  0.5400
  130OSM   H12A13922   4.678   4.461   6.361  1.2710 -0.7218  0.1921
  130OSM   H12B13923   4.658   4.311   6.298  1.5597 -0.5206 -1.5926
  130OSM    C1113924   4.476   4.419   6.341  0.4728 -0.0107  0.1391
  130OSM   H11A13925   4.429   4.518   6.323 -0.0940  0.1702  2.3136
  130OSM   H11B13926   4.482   4.413   6.451  1.1830  0.5121  0.1350
  130OSM      P13927   4.391   4.177   6.336  0.1047 -0.2954  0.3721
  130OSM    O1313928   4.288   4.098   6.261 -0.0242 -0.0594  0.2222
  130OSM    O1413929   4.531   4.129   6.335  0.0980  0.8060 -0.5604
  130OSM    O1113930   4.338   4.191   6.484  0.5115 -1.0093  0.1701
  130OSM    O1213931   4.388   4.324   6.283  0.0752 -0.4053 -0.6528
  130OSM    C1S13932   4.216   4.254   6.513  0.0138  0.2052 -0.0223
  130OSM    H1S13933   4.130   4.209   6.459  0.0731  2.7236 -2.4084
  130OSM    H1T13934   4.221   4.361   6.483  2.7408 -0.1962 -1.2273
  130OSM     NF13935   4.069   4.339   6.677  0.2724  0.2178  0.5449
  130OSM    HNF13936   4.088   4.434   6.703 -1.3526  1.4399 -2.2786
  130OSM    C2S13937   4.186   4.254   6.663  0.6989  0.0358 -0.9247
  130OSM    H2S13938   4.157   4.150   6.691 -0.0268  1.2183  3.5506
  130OSM    C3S13939   4.316   4.292   6.736  0.3799  0.4537 -0.7553
  130OSM    H3S13940   4.365   4.383   6.696  1.0866 -0.2466 -1.5235
  130OSM     O313941   4.423   4.199   6.727 -0.3594  0.9350  0.0282
  130OSM    HO313942   4.396   4.166   6.641 -0.8342  2.2454 -0.3496
  130OSM    C4S13943   4.280   4.307   6.884 -0.6079 -0.4976  0.2563
  130OSM    H4S13944   4.271   4.414   6.908  1.4787 -0.2180 -0.0193
  130OSM    C5S13945   4.265   4.219   6.985  0.3769 -0.2436  0.1647
  130OSM    H5S13946   4.274   4.113   6.957 -2.5577 -0.0700 -1.7957
  130OSM    C6S13947   4.249   4.263   7.135  0.2253  0.6150  0.5358
  130OSM    H6S13948   4.316   4.202   7.199 -1.1734 -0.2553  1.2129
  130OSM    H6T13949   4.146   4.233   7.165 -0.7111  1.0342 -2.0151
  130OSM    C7S13950   4.264   4.410   7.164  0.1181 -0.3480  0.2756
  130OSM    H7S13951   4.194   4.471   7.103  1.0486 -1.4287 -1.9809
  130OSM    H7T13952   4.363   4.441   7.125  0.3161 -2.3756 -0.9490
  130OSM    C8S13953   4.255   4.455   7.314 -0.5683  0.5259 -0.0385
  130OSM    H8S13954   4.273   4.565   7.321  0.3861  0.4187 -0.5931
  130OSM    H8T13955   4.344   4.405   7.357 -0.4704  0.0669 -0.7652
  130OSM    C9S13956   4.135   4.416   7.397 -0.1121  0.3438 -0.2115
  130OSM    H9S13957   4.106   4.310   7.378  1.3253 -0.3266  1.0718
  130OSM    H9T13958   4.049   4.477   7.364  0.0199 -0.2100 -1.6682
  130OSM   C10S13959   4.166   4.426   7.550 -0.2651 -0.3957  0.2259
  130OSM   H10S13960   4.269   4.389   7.567  0.3553  1.7062  1.3702
  130OSM   H10T13961   4.096   4.362   7.609  0.1198 -0.7082  0.3426
  130OSM   C11S13962   4.169   4.577   7.584 -0.6131 -0.3695  0.8605
  130OSM   H11S13963   4.069   4.616   7.553  0.0183  0.2490 -0.4880
  130OSM   H11T13964   4.249   4.626   7.525 -0.7390 -1.4754 -0.2726
  130OSM   C12S13965   4.212   4.594   7.728  0.5201 -0.2486 -0.5174
  130OSM   H12S13966   4.214   4.702   7.756  0.2638 -1.0673  3.1477
  130OSM   H12T13967   4.310   4.549   7.753 -0.3276 -1.4320  0.8531
  130OSM   C13S13968   4.120   4.527   7.838 -0.0909  0.4406  0.0869
  130OSM   H13S13969   4.121   4.417   7.823 -0.2652  0.4421  0.0596
  130OSM   H13T13970   4.016   4.561   7.822 -1.0299 -1.9775  0.6500
  130OSM   C14S13971   4.153   4.557   7.987  0.0225 -0.1429 -0.1577
  130OSM   H14S13972   4.139   4.668   7.987 -1.2435 -0.2281 -2.3747
  130OSM   H14T13973   4.257   4.529   8.013  0.5398  0.7152 -1.2215
  130OSM   C15S13974   4.055   4.477   8.078 -0.1562 -0.3431 -0.1533
  130OSM   H15S13975   4.085   4.370   8.087 -1.5261 -1.0313 -2.6027
  130OSM   H15T13976   3.953   4.484   8.034 -1.4600  1.2465  2.8462
  130OSM   C16S13977   4.049   4.549   8.215 -0.1878  0.1073 -0.3709
  130OSM   H16S13978   4.019   4.648   8.175 -0.7395 -0.7451 -2.1756
  130OSM   H16T13979   4.142   4.546   8.275 -0.0501  1.6543 -0.4538
  130OSM   C17S13980   3.931   4.488   8.299  0.4762 -0.6926  0.3578
  130OSM   H17S13981   3.841   4.486   8.234  0.3611 -0.3868  0.5027
  130OSM   H17T13982   3.905   4.557   8.383  1.6565 -0.4805  0.5641
  130OSM   C18S13983   3.962   4.348   8.359  0.2729  0.2306  0.0148
  130OSM   H18S13984   3.879   4.302   8.417  0.4323 -0.9707 -0.6894
  130OSM   H18T13985   4.055   4.348   8.419  0.7099 -0.8717 -0.6558
  130OSM   H18U13986   3.982   4.278   8.276 -0.8288 -2.4616  1.9063
  130OSM    C1F13987   3.946   4.305   6.648 -0.0621 -0.1935 -0.3355
  130OSM     OF13988   3.915   4.197   6.603  0.0729  0.1005  0.0009
  130OSM    C2F13989   3.837   4.408   6.677 -0.3766  0.5235  1.2904
  130OSM    H2F13990   3.758   4.388   6.602 -1.0546  0.3721  2.0315
  130OSM    H2G13991   3.884   4.505   6.652 -0.8490  0.0031 -2.0743
  130OSM    C3F13992   3.777   4.397   6.815 -0.3646 -0.4719 -0.1299
  130OSM    H3F13993   3.749   4.290   6.820  3.1450 -1.4609  0.6773
  130OSM    H3G13994   3.693   4.470   6.817 -1.1594 -1.3578  1.2155
  130OSM    C4F13995   3.876   4.428   6.930  0.2233  0.5706  0.4398
  130OSM    H4F13996   3.927   4.527   6.927 -1.9598  1.8729  2.6044
  130OSM    H4G13997   3.956   4.351   6.926 -0.4022 -0.0541 -1.2620
  130OSM    C5F13998   3.799   4.440   7.063 -0.0035  0.0212 -0.8179
  130OSM    H5F13999   3.715   4.509   7.042 -0.4219 -0.3319 -0.3512
  130OSM    H5G14000   3.868   4.480   7.141  0.4363  1.5401 -1.9433
  130OSM    C6F14001   3.753   4.306   7.103  0.2652 -1.2286 -0.6660
  130OSM    H6F14002   3.825   4.222   7.112  0.9523 -0.4715  1.4499
  130OSM    H6G14003   3.687   4.269   7.022 -1.1790 -1.5916  0.6275
  130OSM    C7F14004   3.676   4.314   7.240  0.1076 -0.4867  0.2649
  130OSM    H7F14005   3.597   4.236   7.244  0.5989 -1.1017 -1.1941
  130OSM    H7G14006   3.617   4.408   7.234  3.2151  1.4984 -1.9153
  130OSM    C8F14007   3.768   4.312   7.363 -0.3179  0.2943 -0.1632
  130OSM    H8F14008   3.711   4.332   7.456  1.9965  2.7228  0.8384
  130OSM    H8G14009   3.837   4.397   7.343 -0.9873  0.3001 -2.9396
  130OSM    C9F14010   3.852   4.189   7.397  0.4022 -0.5744  0.6615
  130OSM    H9F14011   3.916   4.152   7.315  1.4498  1.5387  0.4374
  130OSM   C10F14012   3.847   4.125   7.515  0.6093 -0.0920  0.8975
  130OSM   H10F14013   3.916   4.040   7.524  0.1781 -0.4665  0.7040
  130OSM   C11F14014   3.762   4.169   7.637  0.1003  1.0737  0.3906
  130OSM   H11F14015   3.654   4.156   7.613  0.2268  1.2757 -0.3269
  130OSM   H11G14016   3.787   4.273   7.666  0.2703  0.5254  2.3549
  130OSM   C12F14017   3.786   4.069   7.749 -0.0491 -0.5277 -0.1486
  130OSM   H12F14018   3.893   4.078   7.776 -0.0231 -0.7330 -0.1866
  130OSM   H12G14019   3.770   3.963   7.721  3.2843 -0.9793 -0.6522
  130OSM   C13F14020   3.705   4.090   7.879  0.0058 -0.4021  0.2604
  130OSM   H13F14021   3.603   4.054   7.858 -0.5528  1.6109 -0.7772
  130OSM   H13G14022   3.680   4.197   7.897 -3.1685 -0.6160 -2.0672
  130OSM   C14F14023   3.786   4.007   7.989 -0.1132 -0.4641 -0.3711
  130OSM   H14F14024   3.881   4.057   8.015  1.0656 -1.3279 -2.7432
  130OSM   H14G14025   3.803   3.904   7.952  1.9008 -0.5062  0.5290
  130OSM   C15F14026   3.702   3.989   8.118 -0.5977  0.1000  0.1123
  130OSM   H15F14027   3.631   3.904   8.115  0.9253 -1.2534  0.4539
  130OSM   H15G14028   3.645   4.081   8.145  0.6678  1.3723 -1.3647
  130OSM   C16F14029   3.787   3.953   8.242 -0.0614  0.3208 -0.8507
  130OSM   H16F14030   3.827   4.047   8.285  0.3797  0.4099 -1.4520
  130OSM   H16G14031   3.862   3.879   8.207  1.1274  1.7254 -1.3490
  130OSM   C17F14032   3.697   3.884   8.350 -0.3098  0.4805  0.7935
  130OSM   H17F14033   3.773   3.849   8.423 -0.8488 -0.1662  1.0608
  130OSM   H17G14034   3.645   3.799   8.299  2.6735 -1.3098  0.5328
  130OSM   C18F14035   3.603   3.971   8.431  0.6168  0.1907  0.6230
  130OSM   H18F14036   3.546   3.919   8.511 -1.3344 -1.1344 -1.4791
  130OSM   H18G14037   3.533   4.027   8.366 -0.2993  1.3459  2.5402
  130OSM   H18H14038   3.662   4.055   8.472  0.1520  1.9514 -2.0745
  131OSM      N14039   4.573   5.034   6.076  0.1430  0.0738 -0.2813
  131OSM    C1514040   4.695   4.984   6.017  0.7771 -0.4198  0.5461
  131OSM   H15A14041   4.760   4.948   6.095 -0.3811 -0.0384  1.7187
  131OSM   H15B14042   4.752   5.067   5.978 -0.3577  0.5927  0.9915
  131OSM   H15C14043   4.662   4.908   5.948 -1.6709 -0.5714  1.7936
  131OSM    C1414044   4.599   5.144   6.172 -0.3523 -0.3289  0.2082
  131OSM   H14A14045   4.668   5.106   6.246 -1.1264  0.1646  1.2087
  131OSM   H14B14046   4.511   5.188   6.216 -0.4303  2.4351 -2.4208
  131OSM   H14C14047   4.638   5.225   6.113  2.6956 -1.8121 -0.0050
  131OSM    C1314048   4.494   5.079   5.961  0.2090  0.3776  0.2709
  131OSM   H13A14049   4.468   4.997   5.896 -2.8077  0.2413  1.4661
  131OSM   H13B14050   4.545   5.153   5.900 -1.5580  0.4113 -1.2571
  131OSM   H13C14051   4.397   5.122   5.985 -0.1478 -1.5232  2.6147
  131OSM    C1214052   4.497   4.927   6.151 -1.0563 -1.0900  0.4188
  131OSM   H12A14053   4.471   4.841   6.092 -1.7987  1.5617 -3.5041
  131OSM   H12B14054   4.402   4.968   6.181 -0.1364  0.9937  0.6641
  131OSM    C1114055   4.567   4.887   6.282 -0.7201 -0.0197 -0.2045
  131OSM   H11A14056   4.506   4.808   6.331  1.4735 -1.2580  0.6600
  131OSM   H11B14057   4.571   4.979   6.345  2.0862  1.8446 -2.7873
  131OSM      P14058   4.780   4.767   6.391  0.3775 -0.1464 -0.0433
  131OSM    O1314059   4.868   4.656   6.345  0.3216 -0.5954  0.4645
  131OSM    O1414060   4.842   4.879   6.460  0.1466 -0.6380 -0.5455
  131OSM    O1114061   4.678   4.707   6.485  0.0952 -0.2137 -0.2229
  131OSM    O1214062   4.697   4.832   6.269 -0.4348  0.2240  0.1749
  131OSM    C1S14063   4.725   4.606   6.582  0.1294  0.3202 -0.0343
  131OSM    H1S14064   4.827   4.567   6.565 -0.3574 -1.1907  0.3366
  131OSM    H1T14065   4.659   4.516   6.585  0.6152 -0.1346 -1.8433
  131OSM     NF14066   4.749   4.554   6.822  0.2840 -0.0792  0.5665
  131OSM    HNF14067   4.694   4.474   6.839  0.6655 -0.1055  1.8053
  131OSM    C2S14068   4.695   4.658   6.727  0.0243 -0.3465  0.6377
  131OSM    H2S14069   4.761   4.748   6.729  1.3503 -1.2242 -1.0603
  131OSM    C3S14070   4.542   4.678   6.742 -0.4911 -0.0531  0.4836
  131OSM    H3S14071   4.504   4.573   6.737  1.4239 -0.7530 -0.3449
  131OSM     O314072   4.466   4.746   6.641 -0.3496  0.1743  0.2312
  131OSM    HO314073   4.521   4.733   6.563 -2.8580  1.9537 -2.0438
  131OSM    C4S14074   4.515   4.738   6.869 -0.2797 -0.3225 -0.1795
  131OSM    H4S14075   4.558   4.838   6.884  2.3562 -1.5320  0.9405
  131OSM    C5S14076   4.440   4.674   6.962  0.6482  0.3819 -0.1451
  131OSM    H5S14077   4.407   4.572   6.941 -1.7849  1.2896 -1.0469
  131OSM    C6S14078   4.397   4.741   7.092  0.0265 -0.1399 -0.4920
  131OSM    H6S14079   4.438   4.687   7.181  1.5532  1.5591 -0.0800
  131OSM    H6T14080   4.289   4.721   7.103  0.1632 -0.6235  0.0290
  131OSM    C7S14081   4.439   4.889   7.108 -0.0554  0.4728 -0.6233
  131OSM    H7S14082   4.406   4.955   7.025 -0.6441 -0.6535 -1.3010
  131OSM    H7T14083   4.550   4.890   7.112 -0.0539  1.2877 -0.5819
  131OSM    C8S14084   4.374   4.955   7.231 -0.1398 -0.4266 -0.1268
  131OSM    H8S14085   4.275   4.912   7.258 -0.4390  0.1916 -0.2193
  131OSM    H8T14086   4.364   5.064   7.209  0.8062  0.0903  1.7479
  131OSM    C9S14087   4.466   4.933   7.358  0.0218  0.5190  0.0583
  131OSM    H9S14088   4.577   4.940   7.346  0.3630 -2.7910  0.5210
  131OSM    H9T14089   4.439   4.833   7.397  0.9204  0.5326  0.7644
  131OSM   C10S14090   4.430   5.032   7.473 -0.8085  0.5375  0.3587
  131OSM   H10S14091   4.322   5.018   7.491 -1.0373 -0.2087 -1.4144
  131OSM   H10T14092   4.438   5.137   7.437  0.0997  0.0091 -1.0575
  131OSM   C11S14093   4.521   5.018   7.599  0.3396  0.0840 -0.3802
  131OSM   H11S14094   4.628   5.037   7.577  1.0618 -1.3929  1.5703
  131OSM   H11T14095   4.527   4.907   7.612  1.8768  0.2703  0.7190
  131OSM   C12S14096   4.461   5.072   7.729 -0.6251  0.3639 -0.1158
  131OSM   H12S14097   4.523   5.041   7.816 -1.2933  1.1615  0.6573
  131OSM   H12T14098   4.364   5.018   7.737 -0.2374 -0.3146  0.0854
  131OSM   C13S14099   4.442   5.224   7.742 -0.3500 -0.7913  0.6795
  131OSM   H13S14100   4.368   5.263   7.670 -0.0015  4.0278  2.5613
  131OSM   H13T14101   4.540   5.263   7.707 -2.5982  1.6644 -3.6022
  131OSM   C14S14102   4.420   5.276   7.878 -0.3546 -0.7392 -0.5292
  131OSM   H14S14103   4.509   5.265   7.944 -0.0861  1.0101 -0.5688
  131OSM   H14T14104   4.334   5.229   7.931 -0.0101 -0.1508  0.5702
  131OSM   C15S14105   4.401   5.429   7.889 -0.0613  0.1434  0.7795
  131OSM   H15S14106   4.308   5.457   7.834  0.0507 -1.5677 -0.3535
  131OSM   H15T14107   4.482   5.473   7.827  0.4196 -0.4695  0.9610
  131OSM   C16S14108   4.393   5.479   8.035 -0.3173  1.2771  0.1053
  131OSM   H16S14109   4.498   5.484   8.071 -0.5461  2.7197  0.6427
  131OSM   H16T14110   4.334   5.407   8.095  0.8946  0.0867 -0.0800
  131OSM   C17S14111   4.319   5.611   8.061  0.1292 -0.3412  0.2392
  131OSM   H17S14112   4.239   5.622   7.985  1.0438  2.8263 -0.4320
  131OSM   H17T14113   4.391   5.695   8.051 -0.1362 -0.2459 -1.0288
  131OSM   C18S14114   4.250   5.629   8.201 -0.4924  0.0991  0.9486
  131OSM   H18S14115   4.150   5.677   8.193 -0.6290 -0.5057 -4.8075
  131OSM   H18T14116   4.306   5.691   8.274  0.2090 -0.8968  1.2760
  131OSM   H18U14117   4.225   5.531   8.247 -0.0329 -0.3083  0.3512
  131OSM    C1F14118   4.878   4.543   6.854  0.4330 -0.1274  0.0031
  131OSM     OF14119   4.956   4.612   6.804 -0.0099 -0.3185 -0.3263
  131OSM    C2F14120   4.913   4.439   6.951  0.6589  0.0111 -0.0972
  131OSM    H2F14121   5.013   4.452   6.998  1.1354 -2.0201 -0.4453
  131OSM    H2G14122   4.907   4.342   6.898 -0.6410 -0.9094  1.6640
  131OSM    C3F14123   4.815   4.413   7.070 -0.0188  0.4046 -0.4492
  131OSM    H3F14124   4.843   4.321   7.125 -3.2520 -0.1601  0.4954
  131OSM    H3G14125   4.712   4.391   7.034 -0.2703 -3.4583  2.0220
  131OSM    C4F14126   4.829   4.522   7.179 -0.1263  0.2619 -0.4035
  131OSM    H4F14127   4.825   4.629   7.150 -1.3263  0.6056  0.8887
  131OSM    H4G14128   4.928   4.497   7.223 -0.8301 -0.8138  0.6351
  131OSM    C5F14129   4.733   4.507   7.298  0.2586  0.1643 -0.3671
  131OSM    H5F14130   4.773   4.421   7.357  1.5584 -0.0512 -1.5208
  131OSM    H5G14131   4.638   4.471   7.253 -0.6791  1.8209  0.2195
  131OSM    C6F14132   4.706   4.629   7.394  0.4228  0.3208  0.2071
  131OSM    H6F14133   4.641   4.693   7.331  2.9781  1.8362 -1.0538
  131OSM    H6G14134   4.797   4.687   7.419 -0.3954  1.5616  0.3671
  131OSM    C7F14135   4.630   4.582   7.514 -0.1337  0.2051  0.1646
  131OSM    H7F14136   4.552   4.508   7.486 -1.2186  0.2669  2.7808
  131OSM    H7G14137   4.568   4.669   7.543 -1.0550 -0.0669 -0.9026
  131OSM    C8F14138   4.706   4.558   7.641 -0.2428  0.0660 -0.0671
  131OSM    H8F14139   4.758   4.656   7.653 -1.3147  1.1439 -3.1312
  131OSM    H8G14140   4.779   4.479   7.614  0.2091 -0.5772  2.7549
  131OSM    C9F14141   4.630   4.518   7.762 -0.9738  0.1779 -0.5081
  131OSM    H9F14142   4.575   4.423   7.748 -1.8477  0.5344  0.3827
  131OSM   C10F14143   4.613   4.577   7.874  0.2664  0.0489 -0.1725
  131OSM   H10F14144   4.557   4.519   7.949 -1.1398  1.8595  0.2440
  131OSM   C11F14145   4.672   4.703   7.925  0.4385  0.1187  0.7433
  131OSM   H11F14146   4.745   4.760   7.863 -0.4108  1.0236  0.5563
  131OSM   H11G14147   4.731   4.683   8.017  0.3985  0.4060  0.8317
  131OSM   C12F14148   4.558   4.795   7.973  0.3307  0.5240 -0.7225
  131OSM   H12F14149   4.501   4.733   8.045  1.1918  0.8457  0.2531
  131OSM   H12G14150   4.492   4.817   7.886  0.7860  1.5904 -0.8173
  131OSM   C13F14151   4.608   4.931   8.034 -0.2975  0.3873 -0.5546
  131OSM   H13F14152   4.525   4.983   8.086 -0.3600 -0.3514  0.1065
  131OSM   H13G14153   4.637   5.000   7.952  2.5967  0.1179  0.1566
  131OSM   C14F14154   4.724   4.932   8.134 -0.4997 -0.2738  0.3106
  131OSM   H14F14155   4.747   5.036   8.166  1.1868 -0.8032  0.8896
  131OSM   H14G14156   4.813   4.885   8.087 -1.5462 -2.7797  0.6847
  131OSM   C15F14157   4.676   4.845   8.252 -0.4224  0.1500  0.2498
  131OSM   H15F14158   4.602   4.766   8.227 -0.4759 -0.0642  1.0614
  131OSM   H15G14159   4.617   4.919   8.310 -0.3143  0.4651 -0.0356
  131OSM   C16F14160   4.798   4.803   8.332  0.1159  0.4608  0.2894
  131OSM   H16F14161   4.874   4.883   8.339  3.0261 -1.9725 -1.1135
  131OSM   H16G14162   4.848   4.722   8.275  1.2316 -0.5970  2.6776
  131OSM   C17F14163   4.741   4.740   8.458 -0.6340 -0.6401 -0.2832
  131OSM   H17F14164   4.639   4.699   8.442 -1.0604 -0.1073  0.9444
  131OSM   H17G14165   4.725   4.831   8.520 -3.8034 -1.0748 -0.3298
  131OSM   C18F14166   4.823   4.632   8.528  0.2359  0.0032  0.0797
  131OSM   H18F14167   4.768   4.602   8.619 -1.5615  1.8422 -0.3253
  131OSM   H18G14168   4.919   4.667   8.570  0.0474 -1.7514  2.0994
  131OSM   H18H14169   4.844   4.545   8.462  1.1778 -2.4620  3.3893
  132OSM      N14170   4.575   6.423   6.188 -0.2033  0.3650 -0.3324
  132OSM    C1514171   4.477   6.315   6.164 -0.0322 -0.3755 -0.4688
  132OSM   H15A14172   4.522   6.229   6.117  0.3255 -0.4240 -0.0397
  132OSM   H15B14173   4.397   6.352   6.101 -0.5476 -0.9208 -0.1313
  132OSM   H15C14174   4.428   6.282   6.254  0.4632 -0.2398 -0.1435
  132OSM    C1414175   4.627   6.461   6.048 -0.3248 -1.1168 -0.8971
  132OSM   H14A14176   4.692   6.547   6.058 -2.8666  0.6332  2.4785
  132OSM   H14B14177   4.547   6.472   5.976 -1.0617 -1.3180 -0.1191
  132OSM   H14C14178   4.686   6.374   6.023  1.1425 -0.2941 -0.4840
  132OSM    C1314179   4.510   6.549   6.236  0.5154  0.4842  0.1929
  132OSM   H13A14180   4.574   6.635   6.220  1.9753  0.2406  3.7276
  132OSM   H13B14181   4.476   6.540   6.338  0.3585 -3.3384 -0.0401
  132OSM   H13C14182   4.429   6.568   6.168  1.9216  0.5599 -1.5431
  132OSM    C1214183   4.700   6.381   6.269  0.2338 -0.7674  0.1850
  132OSM   H12A14184   4.782   6.449   6.253 -1.0180  0.7637  0.0774
  132OSM   H12B14185   4.750   6.290   6.238  1.8568  0.0038  0.4579
  132OSM    C1114186   4.680   6.363   6.424  0.4921  0.3703  0.9860
  132OSM   H11A14187   4.643   6.461   6.461  2.3482 -0.0907  4.4670
  132OSM   H11B14188   4.773   6.362   6.485 -0.1437 -1.0734  1.9831
  132OSM      P14189   4.667   6.103   6.427  0.3551  0.3223  0.7684
  132OSM    O1314190   4.559   6.008   6.414  1.0623 -0.0293 -0.5756
  132OSM    O1414191   4.758   6.106   6.312 -0.1506  0.1644 -0.3994
  132OSM    O1114192   4.746   6.058   6.554 -0.5391 -0.3849 -0.3967
  132OSM    O1214193   4.600   6.243   6.451  0.0148  0.2018  0.4638
  132OSM    C1S14194   4.704   6.132   6.676 -0.7215  0.1468 -0.6006
  132OSM    H1S14195   4.596   6.122   6.701 -0.1820 -3.9420  0.7095
  132OSM    H1T14196   4.724   6.241   6.663  1.2744 -0.0794  0.1940
  132OSM     NF14197   4.733   6.152   6.920 -0.0548  0.1297 -0.8235
  132OSM    HNF14198   4.787   6.230   6.950 -0.4485 -0.2620  0.9896
  132OSM    C2S14199   4.785   6.082   6.798  0.1943 -0.2020 -0.2641
  132OSM    H2S14200   4.762   5.974   6.806 -1.2443 -0.0716 -1.8604
  132OSM    C3S14201   4.938   6.097   6.770 -1.0013  0.5268 -0.4162
  132OSM    H3S14202   4.952   6.206   6.755 -0.7216  0.3394 -1.6338
  132OSM     O314203   4.988   6.025   6.651  0.2254  0.4338 -0.5767
  132OSM    HO314204   4.910   6.027   6.596 -0.8449  0.3076  0.8850
  132OSM    C4S14205   5.015   6.046   6.891 -0.2970 -0.1674  0.1050
  132OSM    H4S14206   5.049   5.942   6.882 -0.0921  0.0656 -2.3986
  132OSM    C5S14207   5.062   6.126   6.992 -0.5437  0.2386  0.4993
  132OSM    H5S14208   5.052   6.235   6.985  1.0779  0.3212 -1.3108
  132OSM    C6S14209   5.142   6.085   7.118  0.0279 -0.3802  0.2352
  132OSM    H6S14210   5.074   6.106   7.204  0.5974  1.0012  0.3717
  132OSM    H6T14211   5.236   6.140   7.140  0.6079 -1.6595  1.0707
  132OSM    C7S14212   5.166   5.934   7.142 -0.1950 -0.1375 -0.3770
  132OSM    H7S14213   5.218   5.887   7.056 -0.8119 -1.0771 -0.2481
  132OSM    H7T14214   5.068   5.886   7.164  0.1702 -1.1833 -0.9883
  132OSM    C8S14215   5.263   5.920   7.268  0.8025 -0.1196 -0.1160
  132OSM    H8S14216   5.363   5.949   7.232  0.6565 -0.5489 -0.8935
  132OSM    H8T14217   5.264   5.810   7.283  1.7099  0.1810  2.5662
  132OSM    C9S14218   5.215   5.978   7.407 -0.4240  0.1466 -0.2812
  132OSM    H9S14219   5.119   5.931   7.437  1.4731 -3.8394  0.2564
  132OSM    H9T14220   5.201   6.087   7.395 -0.1347  0.4896  2.1770
  132OSM   C10S14221   5.315   5.964   7.520 -1.5943 -0.3126  0.0609
  132OSM   H10S14222   5.398   6.026   7.481 -3.4550  2.5148  0.3160
  132OSM   H10T14223   5.342   5.856   7.514 -2.7024 -0.7317  1.7791
  132OSM   C11S14224   5.272   5.986   7.665 -0.1951 -0.7924 -0.1628
  132OSM   H11S14225   5.201   5.905   7.690 -1.2142 -0.7380 -2.5887
  132OSM   H11T14226   5.233   6.089   7.680  2.8519  0.1121  2.7527
  132OSM   C12S14227   5.397   5.982   7.759 -0.0082 -0.0876  0.2507
  132OSM   H12S14228   5.479   6.041   7.713 -0.3580 -1.0590 -1.7292
  132OSM   H12T14229   5.418   5.874   7.768  1.3814 -0.2785 -3.5830
  132OSM   C13S14230   5.369   6.052   7.892  0.1536  0.4029  0.5691
  132OSM   H13S14231   5.289   6.009   7.956 -0.1364  3.1827  2.2142
  132OSM   H13T14232   5.358   6.161   7.877  2.3082  0.5999 -0.0087
  132OSM   C14S14233   5.491   6.019   7.978  0.3471  0.1593 -0.5152
  132OSM   H14S14234   5.577   6.076   7.938  0.9859 -0.6883 -0.3682
  132OSM   H14T14235   5.512   5.911   7.967 -0.1294 -0.0604  0.5921
  132OSM   C15S14236   5.459   6.062   8.124 -0.6164  0.7516  0.1668
  132OSM   H15S14237   5.384   5.989   8.163 -1.0465  1.1919  0.1807
  132OSM   H15T14238   5.405   6.159   8.131  1.4879  2.0250 -0.5505
  132OSM   C16S14239   5.581   6.065   8.228  0.0893 -0.8020 -0.0519
  132OSM   H16S14240   5.666   6.127   8.192  0.6414 -0.7361  1.3169
  132OSM   H16T14241   5.623   5.963   8.241 -1.9838 -1.6702  0.1641
  132OSM   C17S14242   5.529   6.123   8.364  0.5925 -0.1701  0.4602
  132OSM   H17S14243   5.440   6.065   8.395 -0.3921  1.6684  1.2550
  132OSM   H17T14244   5.503   6.230   8.354 -0.1773 -0.5383 -1.8468
  132OSM   C18S14245   5.616   6.104   8.486 -0.8020  0.2164  0.4352
  132OSM   H18S14246   5.609   6.000   8.524 -0.8788  0.3954  0.9182
  132OSM   H18T14247   5.585   6.172   8.567  0.8781  1.0169  0.4480
  132OSM   H18U14248   5.718   6.124   8.446 -0.6960  0.5882  0.8952
  132OSM    C1F14249   4.618   6.132   6.985  0.0535 -0.1185  0.6293
  132OSM     OF14250   4.543   6.046   6.942  0.3918  0.3313  0.4304
  132OSM    C2F14251   4.594   6.226   7.103  0.4678  0.0826 -0.0964
  132OSM    H2F14252   4.490   6.263   7.113  1.1943  2.1381  0.2998
  132OSM    H2G14253   4.661   6.315   7.098  2.1085 -0.9045  2.4166
  132OSM    C3F14254   4.632   6.160   7.240 -0.0023  0.1987  0.7483
  132OSM    H3F14255   4.738   6.127   7.235  0.6619  2.4010 -2.0048
  132OSM    H3G14256   4.562   6.074   7.240 -0.4232  0.5328  1.3888
  132OSM    C4F14257   4.601   6.256   7.362  0.0375  0.7567  0.0723
  132OSM    H4F14258   4.491   6.268   7.364  0.0955  1.2739  1.1958
  132OSM    H4G14259   4.646   6.357   7.353 -1.1362  1.4273  1.3929
  132OSM    C5F14260   4.655   6.194   7.488  0.1274  0.1425 -0.3593
  132OSM    H5F14261   4.766   6.198   7.486  0.1396 -0.1128 -0.1648
  132OSM    H5G14262   4.620   6.089   7.494  0.5252 -0.1000 -1.8916
  132OSM    C6F14263   4.615   6.277   7.610 -0.0738 -0.0129  0.6781
  132OSM    H6F14264   4.506   6.297   7.612 -0.1302 -0.3928  1.9024
  132OSM    H6G14265   4.671   6.373   7.601 -0.2070  0.0178  0.1244
  132OSM    C7F14266   4.643   6.204   7.742 -0.2107 -0.0688 -0.0343
  132OSM    H7F14267   4.751   6.230   7.749 -0.3086  0.7156 -1.1341
  132OSM    H7G14268   4.634   6.094   7.739 -2.2047  0.0606 -0.7494
  132OSM    C8F14269   4.566   6.258   7.867  0.6716  0.4332  0.4212
  132OSM    H8F14270   4.606   6.202   7.953 -0.6058  0.1487  0.8527
  132OSM    H8G14271   4.461   6.223   7.853  0.5237  0.0815  2.2142
  132OSM    C9F14272   4.564   6.411   7.878 -0.4044  1.1471  0.1731
  132OSM    H9F14273   4.555   6.469   7.785  1.1418 -0.7015 -1.2219
  132OSM   C10F14274   4.585   6.478   7.993 -0.0671 -0.1116  0.3315
  132OSM   H10F14275   4.592   6.587   7.981  0.7133 -0.3302 -1.5135
  132OSM   C11F14276   4.616   6.438   8.131 -0.4691 -1.0770  0.3827
  132OSM   H11F14277   4.701   6.500   8.166 -1.3200 -0.5579  1.5990
  132OSM   H11G14278   4.643   6.331   8.119  1.3270 -0.4285 -2.0263
  132OSM   C12F14279   4.505   6.442   8.242 -0.8641  0.2313  0.1328
  132OSM   H12F14280   4.426   6.366   8.224  1.9055 -2.5047 -1.5452
  132OSM   H12G14281   4.470   6.545   8.265 -1.9579  0.1780 -1.1641
  132OSM   C13F14282   4.580   6.400   8.370  0.6051 -0.1066  0.2285
  132OSM   H13F14283   4.661   6.471   8.394  0.8366 -0.5527  0.7816
  132OSM   H13G14284   4.614   6.294   8.359 -0.6835 -0.5547  0.3292
  132OSM   C14F14285   4.494   6.421   8.495 -0.1759 -0.2200 -0.3788
  132OSM   H14F14286   4.395   6.373   8.477 -0.1151 -0.8676  0.8899
  132OSM   H14G14287   4.473   6.527   8.519  1.5349 -0.5057  3.0016
  132OSM   C15F14288   4.560   6.369   8.624  0.4008  0.0585 -0.4019
  132OSM   H15F14289   4.671   6.370   8.625  0.4183 -0.6781  0.8477
  132OSM   H15G14290   4.529   6.262   8.620 -0.5205  0.3538 -2.3992
  132OSM   C16F14291   4.501   6.413   8.754  0.5176 -0.3291 -0.0253
  132OSM   H16F14292   4.395   6.379   8.757  0.2306  0.4276 -1.0710
  132OSM   H16G14293   4.509   6.524   8.756 -1.9350 -0.1034 -0.1321
  132OSM   C17F14294   4.569   6.368   8.886  0.2777  0.0080 -0.0690
  132OSM   H17F14295   4.566   6.257   8.894  0.0917  0.1474  2.7050
  132OSM   H17G14296   4.509   6.392   8.976 -0.6800 -0.8863 -0.4461
  132OSM   C18F14297   4.705   6.404   8.910 -0.2986 -0.7031  0.1362
  132OSM   H18F14298   4.727   6.511   8.891  0.8257 -0.6432  1.6204
  132OSM   H18G14299   4.773   6.350   8.841 -0.2830  0.8519 -1.1149
  132OSM   H18H14300   4.736   6.381   9.014  1.8845  3.5162  0.6489
  133SAPE     N14301   0.496   6.353  11.129  0.3328  0.2720 -0.7816
  133SAPE   HN114302   0.473   6.418  11.208 -1.2986 -1.0071 -0.1325
  133SAPE   HN214303   0.400   6.336  11.093 -0.0920  2.3675 -0.7286
  133SAPE   HN314304   0.552   6.269  11.155 -4.0609 -2.4653  0.9511
  133SAPE   C1214305   0.578   6.417  11.025 -0.9513 -0.0013  0.4184
  133SAPE  H12A14306   0.665   6.461  11.078  1.1170 -0.9561 -1.9966
  133SAPE  H12B14307   0.514   6.504  10.998 -0.2383  1.6143  3.3663
  133SAPE   C1114308   0.633   6.325  10.910  0.1934  0.0305 -0.2327
  133SAPE  H11A14309   0.685   6.375  10.826 -1.0578  1.0614 -0.4399
  133SAPE  H11B14310   0.540   6.284  10.865  0.2605  1.7976 -2.1249
  133SAPE     P14311   0.867   6.224  10.996  0.3436  0.0655  0.2404
  133SAPE   O1314312   0.904   6.353  11.054  0.3078 -0.1641  0.1539
  133SAPE   O1414313   0.912   6.106  11.068 -0.2103  0.2978 -0.2038
  133SAPE   O1214314   0.708   6.223  10.977  0.6742  0.3618  0.2603
  133SAPE   O1114315   0.918   6.216  10.846  0.2066  0.5771  0.0108
  133SAPE    C114316   0.852   6.133  10.745  0.5024 -0.0142 -0.7581
  133SAPE    HA14317   0.884   6.028  10.762  1.3079  0.6996  3.1446
  133SAPE    HB14318   0.742   6.126  10.750  0.6269 -2.3068  0.0701
  133SAPE    C214319   0.895   6.166  10.595 -0.8214  0.2693 -0.0301
  133SAPE    HS14320   0.878   6.069  10.543  1.2918 -1.5398  2.3567
  133SAPE   O2114321   1.034   6.201  10.588 -0.2906 -0.3754  0.1081
  133SAPE   C2114322   1.122   6.106  10.620 -0.2407 -0.4873 -0.1129
  133SAPE   O2214323   1.091   5.990  10.643  0.4230 -0.4949  0.3658
  133SAPE   C2214324   1.262   6.158  10.596 -0.1927  0.3073 -0.4662
  133SAPE   H2R14325   1.308   6.184  10.693  0.4143 -2.7114  0.1599
  133SAPE   H2S14326   1.330   6.082  10.552  1.9929  1.6243  0.4745
  133SAPE    C314327   0.812   6.280  10.529 -0.2327  0.2739 -0.0158
  133SAPE    HX14328   0.819   6.373  10.588 -2.1770  0.7045 -0.3901
  133SAPE    HY14329   0.703   6.260  10.530 -0.5159  1.7294 -0.1507
  133SAPE   O3114330   0.866   6.299  10.396 -0.1087 -0.1220  0.2202
  133SAPE   C3114331   0.800   6.386  10.323 -0.5141  0.4515 -0.3691
  133SAPE   O3214332   0.721   6.465  10.369 -0.0458 -0.6734  0.3897
  133SAPE   C3214333   0.840   6.363  10.178 -0.6161 -0.4576 -1.0434
  133SAPE   H2X14334   0.822   6.255  10.163  1.6358 -1.0149 -0.1805
  133SAPE   H2Y14335   0.948   6.388  10.164 -0.8580  1.1196 -0.2807
  133SAPE   C2314336   1.271   6.276  10.492 -0.2001  0.5297 -0.0244
  133SAPE   H3R14337   1.377   6.311  10.487  0.6069 -1.9341 -1.7003
  133SAPE   H3S14338   1.216   6.364  10.530 -0.2578  1.9969 -3.2007
  133SAPE   C2414339   1.233   6.242  10.347 -0.2637 -0.6187  0.1023
  133SAPE   H4R14340   1.134   6.192  10.344 -0.9482  0.7560 -1.0826
  133SAPE   H4S14341   1.306   6.175  10.298  2.3206  0.4645  2.2216
  133SAPE   C2514342   1.221   6.370  10.278 -0.0775 -0.5190  0.7114
  133SAPE   H5R14343   1.178   6.452  10.338  0.4499  0.1001  0.2596
  133SAPE   C2614344   1.256   6.393  10.157  0.0444 -0.0421  0.8242
  133SAPE   H6R14345   1.242   6.497  10.124 -0.2060 -0.3735 -0.1385
  133SAPE   C2714346   1.320   6.302  10.055 -0.1795  0.0447  0.0250
  133SAPE   H7R14347   1.389   6.241  10.116 -0.4171  1.1112  1.3876
  133SAPE   H7S14348   1.394   6.358   9.993  0.7994 -0.0629  1.0723
  133SAPE   C2814349   1.221   6.213   9.978  1.0791 -0.1713 -0.4808
  133SAPE   H8R14350   1.151   6.154  10.039 -0.5535  1.8970 -0.2420
  133SAPE   C2914351   1.211   6.190   9.842 -0.3883  0.0890 -0.5777
  133SAPE   H9R14352   1.138   6.112   9.816  1.5867 -2.6181  1.3651
  133SAPE  C21014353   1.298   6.241   9.726 -0.0338  0.3490  0.5388
  133SAPE  H10R14354   1.336   6.146   9.683  0.4643 -0.1234  1.9600
  133SAPE  H10S14355   1.385   6.290   9.775 -1.6010  0.9631  2.9045
  133SAPE  C21114356   1.229   6.331   9.634 -0.5153 -0.4586 -0.3481
  133SAPE  H11R14357   1.171   6.410   9.683  1.0934 -0.1546  1.1884
  133SAPE  C21214358   1.228   6.325   9.501  0.2735  0.2263  0.7995
  133SAPE  H12R14359   1.168   6.404   9.454  0.1139 -0.2615  0.1669
  133SAPE  C21314360   1.292   6.216   9.408  0.5554 -0.0795 -0.3717
  133SAPE  H13R14361   1.367   6.151   9.459  0.4461 -1.0195 -1.3745
  133SAPE  H13S14362   1.356   6.275   9.339 -1.0408  0.3289 -1.5537
  133SAPE  C21414363   1.198   6.118   9.351 -0.3433  0.7849 -0.2238
  133SAPE  H14R14364   1.139   6.062   9.425  0.4888 -1.1289 -0.9406
  133SAPE  C21514365   1.183   6.093   9.224  0.0638 -0.5496  0.3040
  133SAPE  H15R14366   1.128   6.010   9.179  0.2101 -0.8025  0.5891
  133SAPE  C21614367   1.261   6.158   9.116 -0.4413 -0.3480  0.3660
  133SAPE  H16R14368   1.257   6.268   9.124 -0.8570 -0.1503 -1.8192
  133SAPE  H16S14369   1.204   6.131   9.024 -0.7283  1.5960 -0.0551
  133SAPE  C21714370   1.401   6.115   9.084  0.2881 -0.5889  0.2087
  133SAPE  H17R14371   1.399   6.004   9.071 -0.5429 -1.0684  3.4254
  133SAPE  H17S14372   1.477   6.141   9.161 -0.8748  2.3565  0.4884
  133SAPE  C21814373   1.438   6.190   8.957  0.2125  0.1578 -0.6497
  133SAPE  H18R14374   1.348   6.198   8.893 -0.3075 -2.2361 -0.3012
  133SAPE  H18S14375   1.493   6.123   8.887  1.5006 -0.1533  0.5965
  133SAPE  C21914376   1.511   6.325   8.979  0.1910 -0.0500  0.4787
  133SAPE  H19R14377   1.612   6.314   9.023  0.0616 -2.9808  0.2301
  133SAPE  H19S14378   1.463   6.393   9.052 -2.7258 -0.8959 -0.5205
  133SAPE  C22014379   1.524   6.383   8.841  0.4797 -0.0957  0.3599
  133SAPE  H20R14380   1.433   6.390   8.778 -0.7258 -0.7747  1.9760
  133SAPE  H20S14381   1.603   6.329   8.784  1.2990  0.0836  1.2911
  133SAPE  H20T14382   1.559   6.488   8.850  0.1882 -0.0793  1.4322
  133SAPE   C3314383   0.745   6.441  10.081 -0.0109  0.0114  0.3293
  133SAPE   H3X14384   0.765   6.548  10.099  1.2456 -0.0183 -0.7831
  133SAPE   H3Y14385   0.638   6.418  10.103  0.2074 -0.5240  0.8461
  133SAPE   C3414386   0.795   6.405   9.940  0.0639  0.4215  0.2671
  133SAPE   H4X14387   0.747   6.311   9.905  4.1266 -1.7674 -0.0568
  133SAPE   H4Y14388   0.902   6.375   9.941 -0.1830 -0.5279  0.0573
  133SAPE   C3514389   0.765   6.517   9.833  0.2501  0.2657  0.5421
  133SAPE   H5X14390   0.795   6.613   9.881 -0.7155  0.0618  1.6180
  133SAPE   H5Y14391   0.656   6.518   9.811  0.3129  0.1467  0.2262
  133SAPE   C3614392   0.844   6.499   9.702 -0.5736  0.4826 -1.1271
  133SAPE   H6X14393   0.951   6.524   9.718 -0.8185  0.5339  0.6828
  133SAPE   H6Y14394   0.810   6.577   9.631 -2.6277 -0.1144 -0.8571
  133SAPE   C3714395   0.832   6.360   9.635  0.5958  0.1741 -0.4073
  133SAPE   H7X14396   0.734   6.309   9.643 -0.3469  1.9046 -0.4518
  133SAPE   H7Y14397   0.914   6.301   9.683  0.4903  0.3293 -0.0294
  133SAPE   C3814398   0.854   6.346   9.483  0.3673 -0.0649 -0.5699
  133SAPE   H8X14399   0.962   6.363   9.465  0.6792 -1.4642 -0.1241
  133SAPE   H8Y14400   0.806   6.431   9.429 -2.2723 -0.2362  1.3153
  133SAPE   C3914401   0.823   6.214   9.426 -0.1186 -0.0258  0.3055
  133SAPE   H9X14402   0.715   6.199   9.451  0.0728 -1.2306  0.4484
  133SAPE   H9Y14403   0.882   6.129   9.467  1.4248  0.2953 -1.1793
  133SAPE  C31014404   0.828   6.219   9.279 -0.1007  0.4462 -0.4021
  133SAPE  H10X14405   0.930   6.235   9.236 -1.2329  3.0280 -2.4143
  133SAPE  H10Y14406   0.757   6.290   9.231  0.3800  1.7006  0.6771
  133SAPE  C31114407   0.788   6.082   9.223 -0.2342  0.7180  0.0281
  133SAPE  H11X14408   0.704   6.030   9.274 -0.4246  0.4556 -0.5385
  133SAPE  H11Y14409   0.875   6.013   9.231 -1.2930 -0.8363 -1.1433
  133SAPE  C31214410   0.748   6.101   9.082 -0.4851  0.4309 -0.0037
  133SAPE  H12X14411   0.675   6.184   9.067  0.4899  1.0535 -1.5704
  133SAPE  H12Y14412   0.700   6.011   9.038 -0.8963 -0.2553  1.7652
  133SAPE  C31314413   0.875   6.124   8.998  0.1943  0.2654 -1.0858
  133SAPE  H13X14414   0.938   6.035   9.021 -2.1234 -0.8830  1.5203
  133SAPE  H13Y14415   0.932   6.209   9.040 -0.6156  0.3732 -0.1658
  133SAPE  C31414416   0.862   6.139   8.852 -0.1390 -0.3761  0.6229
  133SAPE  H14X14417   0.774   6.207   8.845 -0.3934 -0.6976  0.6973
  133SAPE  H14Y14418   0.820   6.047   8.806 -2.0462  0.9498 -0.4356
  133SAPE  C31514419   0.983   6.197   8.771 -0.3245 -0.2528  0.0437
  133SAPE  H15X14420   0.960   6.192   8.662 -0.0098  1.9298 -0.1649
  133SAPE  H15Y14421   1.069   6.134   8.802  1.1381  2.5601  2.1662
  133SAPE  C31614422   1.036   6.339   8.798 -0.1462  0.1726 -0.4252
  133SAPE  H16X14423   1.067   6.361   8.902  1.6075 -1.4084 -0.5550
  133SAPE  H16Y14424   0.955   6.409   8.768  0.4820  0.0308 -2.6205
  133SAPE  C31714425   1.141   6.389   8.693  0.5086  0.5378 -0.4636
  133SAPE  H17X14426   1.098   6.392   8.590 -1.7144  2.0378  0.4233
  133SAPE  H17Y14427   1.233   6.327   8.689 -1.0339 -1.8922 -0.3981
  133SAPE  C31814428   1.193   6.524   8.732  0.0512 -0.1691  0.7567
  133SAPE  H18X14429   1.245   6.519   8.830 -0.2903  3.7662  1.3412
  133SAPE  H18Y14430   1.111   6.600   8.739  1.0928  1.3900 -2.2331
  133SAPE  H18Z14431   1.277   6.554   8.667  0.6891 -0.3600  1.4833
  134SAPE     N14432   4.339   2.721  11.174  0.0283 -0.0985 -0.3116
  134SAPE   HN114433   4.385   2.708  11.267  0.6106 -0.2292 -0.6111
  134SAPE   HN214434   4.394   2.794  11.124  0.8639 -1.8686 -2.1397
  134SAPE   HN314435   4.241   2.756  11.181 -0.2848 -1.0609  0.2378
  134SAPE   C1214436   4.332   2.606  11.085  0.6741 -0.6618  0.9972
  134SAPE  H12A14437   4.396   2.524  11.125 -0.5735 -1.2944  1.7384
  134SAPE  H12B14438   4.362   2.640  10.983 -1.2017  0.3241  0.7221
  134SAPE   C1114439   4.184   2.569  11.090  0.7449  0.3920  0.0752
  134SAPE  H11A14440   4.155   2.521  11.186 -0.0927 -1.3638 -0.9978
  134SAPE  H11B14441   4.170   2.486  11.017  2.3361  1.7776 -1.9159
  134SAPE     P14442   4.036   2.720  10.924 -0.4502  0.4288  0.2655
  134SAPE   O1314443   3.894   2.672  10.907 -0.5514 -0.6969 -0.0693
  134SAPE   O1414444   4.059   2.866  10.917  0.2993  0.2076 -0.2146
  134SAPE   O1214445   4.091   2.674  11.060 -0.5103 -0.1463  0.4198
  134SAPE   O1114446   4.140   2.658  10.825  1.3574  0.0025 -0.3652
  134SAPE    C114447   4.107   2.559  10.730  0.1301  0.4237  0.1519
  134SAPE    HA14448   4.190   2.494  10.697 -1.3457 -0.3329 -2.2806
  134SAPE    HB14449   4.033   2.490  10.777  0.2429 -0.1520 -0.5016
  134SAPE    C214450   4.044   2.618  10.605  1.3713  0.4445  0.3954
  134SAPE    HS14451   3.955   2.681  10.628  0.2764 -0.3248 -1.5214
  134SAPE   O2114452   4.003   2.503  10.524 -0.2842  0.3469  0.3587
  134SAPE   C2114453   3.928   2.519  10.421  0.1802 -0.1251  0.1611
  134SAPE   O2214454   3.854   2.614  10.406  0.0169  0.1236  0.7798
  134SAPE   C2214455   3.934   2.397  10.331  0.6000  0.5607  0.1291
  134SAPE   H2R14456   3.897   2.310  10.389 -0.3144  0.1663 -1.0005
  134SAPE   H2S14457   3.873   2.420  10.241 -0.1721 -0.9654  0.2240
  134SAPE    C314458   4.135   2.714  10.529  0.6563  0.7434  0.6174
  134SAPE    HX14459   4.228   2.655  10.511 -0.9879 -1.8906  0.2386
  134SAPE    HY14460   4.159   2.802  10.592  0.8185  2.3569 -1.5919
  134SAPE   O3114461   4.092   2.767  10.399 -0.3855 -0.2407  0.5224
  134SAPE   C3114462   4.174   2.861  10.344  0.6921  0.0505  0.0604
  134SAPE   O3214463   4.264   2.913  10.403  0.0350 -0.0871  0.1974
  134SAPE   C3214464   4.139   2.879  10.195 -0.0904  0.1533  0.0950
  134SAPE   H2X14465   4.210   2.960  10.170  2.6569 -2.0709  0.2451
  134SAPE   H2Y14466   4.033   2.911  10.204  0.2409  1.3581 -0.0849
  134SAPE   C2314467   4.077   2.376  10.277  0.0616  0.7096 -0.2046
  134SAPE   H3R14468   4.148   2.384  10.362  0.4492  2.6506 -0.6745
  134SAPE   H3S14469   4.103   2.459  10.209  2.2323  0.3655  0.1235
  134SAPE   C2414470   4.104   2.236  10.222 -0.1246 -0.0950  0.3819
  134SAPE   H4R14471   4.017   2.196  10.165 -1.4109  0.5551  1.8160
  134SAPE   H4S14472   4.112   2.158  10.301  0.5023 -2.1675 -1.5986
  134SAPE   C2514473   4.223   2.228  10.130 -0.2628  0.6767  0.8797
  134SAPE   H5R14474   4.315   2.197  10.180  0.9716  0.6655 -1.2922
  134SAPE   C2614475   4.224   2.237   9.994 -0.4760  0.5524  0.2577
  134SAPE   H6R14476   4.320   2.258   9.943 -1.1140  1.4044 -0.6445
  134SAPE   C2714477   4.098   2.251   9.910 -0.5807 -0.2818 -0.3708
  134SAPE   H7R14478   4.119   2.326   9.831 -1.0056 -0.8869 -1.0815
  134SAPE   H7S14479   4.018   2.295   9.973  0.8165  2.4742 -0.3808
  134SAPE   C2814480   4.055   2.117   9.860  1.1039 -0.1054  0.2059
  134SAPE   H8R14481   4.015   2.054   9.941 -1.0696  0.9139 -0.0023
  134SAPE   C2914482   4.050   2.071   9.737  0.2500  0.2540  0.2085
  134SAPE   H9R14483   4.026   1.965   9.720  1.3111  0.1499 -0.7932
  134SAPE  C21014484   4.097   2.138   9.608 -0.1885 -0.0046  0.7475
  134SAPE  H10R14485   4.181   2.084   9.560 -1.8824 -1.1078 -1.1123
  134SAPE  H10S14486   4.146   2.232   9.642  0.5892  0.6188 -1.9045
  134SAPE  C21114487   3.987   2.181   9.514  0.1440 -0.3515  0.0963
  134SAPE  H11R14488   3.896   2.227   9.555  1.0141 -0.3518  2.0971
  134SAPE  C21214489   3.969   2.133   9.386 -0.1260  0.7490  0.6418
  134SAPE  H12R14490   3.894   2.178   9.319  2.1717  3.7401 -0.1586
  134SAPE  C21314491   4.067   2.044   9.315  0.0247 -0.1002 -0.3172
  134SAPE  H13R14492   4.072   1.951   9.376 -2.2634 -0.2808 -0.3360
  134SAPE  H13S14493   4.161   2.103   9.323  0.8797 -1.2446 -1.4654
  134SAPE  C21414494   4.049   2.039   9.170  0.8744 -0.3930 -0.0114
  134SAPE  H14R14495   3.997   2.124   9.124  0.0012 -1.2526 -0.6430
  134SAPE  C21514496   4.065   1.933   9.088 -0.1516 -0.1718 -0.2834
  134SAPE  H15R14497   4.036   1.941   8.982 -1.3138 -0.1040  0.0313
  134SAPE  C21614498   4.121   1.804   9.138 -0.0572 -0.3615 -0.6136
  134SAPE  H16R14499   4.082   1.712   9.090 -0.2223 -1.9758  2.3734
  134SAPE  H16S14500   4.087   1.783   9.242  0.2641  2.9769  0.2808
  134SAPE  C21714501   4.271   1.803   9.111 -0.1079  0.1704  0.7360
  134SAPE  H17R14502   4.314   1.715   9.164  0.3074  1.0269  1.8574
  134SAPE  H17S14503   4.304   1.891   9.170  0.1690 -0.0492  0.9144
  134SAPE  C21814504   4.315   1.802   8.964 -0.0913 -1.1849  0.0155
  134SAPE  H18R14505   4.292   1.900   8.918 -1.5214 -0.6226  1.8530
  134SAPE  H18S14506   4.254   1.727   8.908 -1.4241 -1.3533  1.6300
  134SAPE  C21914507   4.464   1.778   8.947 -0.0790  0.1071 -0.6339
  134SAPE  H19R14508   4.485   1.691   9.012 -0.0898 -0.7468 -1.7442
  134SAPE  H19S14509   4.515   1.860   9.001  0.9530 -1.7838  1.4339
  134SAPE  C22014510   4.515   1.755   8.809 -0.3662  0.1246  1.0658
  134SAPE  H20R14511   4.503   1.651   8.773 -0.9516  0.0023  1.5966
  134SAPE  H20S14512   4.625   1.767   8.809 -0.1869 -0.9556 -1.7457
  134SAPE  H20T14513   4.475   1.838   8.746  1.2355  1.0128  1.1649
  134SAPE   C3314514   4.152   2.744  10.117 -0.2444  0.7475 -0.1890
  134SAPE   H3X14515   4.063   2.679  10.134  0.5576 -0.0928  0.8444
  134SAPE   H3Y14516   4.239   2.692  10.162  1.0150  1.0309 -2.1649
  134SAPE   C3414517   4.158   2.768   9.963 -0.1539  0.4912 -1.0117
  134SAPE   H4X14518   4.254   2.814   9.932 -0.7581  1.7187 -1.1365
  134SAPE   H4Y14519   4.080   2.841   9.932  0.5929  1.0864 -1.5156
  134SAPE   C3514520   4.128   2.641   9.873 -0.8442  0.3891 -0.0400
  134SAPE   H5X14521   4.021   2.617   9.887 -0.9235  0.3153 -0.7517
  134SAPE   H5Y14522   4.194   2.555   9.898  0.6552  1.6205  0.4318
  134SAPE   C3614523   4.143   2.673   9.723 -0.1114 -0.0922  1.5615
  134SAPE   H6X14524   4.242   2.714   9.695 -1.4397  2.3367 -0.0417
  134SAPE   H6Y14525   4.069   2.746   9.684  0.4484 -0.0916  0.4520
  134SAPE   C3714526   4.106   2.546   9.642 -1.0280  0.3541  0.4121
  134SAPE   H7X14527   4.008   2.503   9.672 -0.1349 -1.0311  1.4956
  134SAPE   H7Y14528   4.182   2.468   9.662 -0.3648  0.8127 -0.2436
  134SAPE   C3814529   4.114   2.573   9.486  0.5127  0.0822 -0.0609
  134SAPE   H8X14530   4.034   2.646   9.461 -0.3026 -0.6570  0.3059
  134SAPE   H8Y14531   4.082   2.481   9.432 -0.4657  0.4065 -0.0555
  134SAPE   C3914532   4.247   2.638   9.439 -0.4039  0.3947 -0.4008
  134SAPE   H9X14533   4.326   2.588   9.499 -0.8497  0.9418  0.6890
  134SAPE   H9Y14534   4.250   2.742   9.479  2.3142  0.3857 -0.3799
  134SAPE  C31014535   4.270   2.639   9.286  0.2306  0.1456 -0.2180
  134SAPE  H10X14536   4.379   2.661   9.277  0.8275 -2.0598  0.7245
  134SAPE  H10Y14537   4.193   2.713   9.255 -0.2247  0.4548  1.5437
  134SAPE  C31114538   4.232   2.507   9.211  0.2348  0.3655 -0.2203
  134SAPE  H11X14539   4.124   2.517   9.187  0.1271  1.0711  0.5110
  134SAPE  H11Y14540   4.243   2.419   9.277  0.4294 -0.5231 -1.4177
  134SAPE  C31214541   4.308   2.483   9.082  0.1217  0.4488  0.1231
  134SAPE  H12X14542   4.416   2.497   9.102 -0.1508  0.2017  1.8899
  134SAPE  H12Y14543   4.285   2.550   8.997 -0.6666 -1.6880 -1.4591
  134SAPE  C31314544   4.271   2.344   9.033  0.4629  0.0583 -0.4747
  134SAPE  H13X14545   4.177   2.353   8.975  0.5848  2.6465 -0.4079
  134SAPE  H13Y14546   4.265   2.272   9.118  0.5067  0.1148 -0.4241
  134SAPE  C31414547   4.366   2.274   8.928  0.5854 -0.2068 -0.3354
  134SAPE  H14X14548   4.351   2.331   8.834  0.6361 -0.5468 -0.5518
  134SAPE  H14Y14549   4.328   2.171   8.915 -1.8151  0.6151 -0.3425
  134SAPE  C31514550   4.512   2.277   8.963 -0.2045  0.5896 -0.4424
  134SAPE  H15X14551   4.538   2.223   9.056  0.6796 -1.3514 -1.7310
  134SAPE  H15Y14552   4.538   2.385   8.969 -0.1349  0.6022 -0.9163
  134SAPE  C31614553   4.598   2.243   8.837  0.3360  0.7725 -0.2559
  134SAPE  H16X14554   4.703   2.225   8.869  0.6263 -0.9958 -2.0413
  134SAPE  H16Y14555   4.595   2.335   8.775  3.1584 -0.2094 -2.0288
  134SAPE  C31714556   4.563   2.116   8.758 -0.3635 -0.0990  0.2347
  134SAPE  H17X14557   4.457   2.112   8.723  0.0307 -0.3816 -0.9406
  134SAPE  H17Y14558   4.571   2.033   8.832  1.3149  1.9181  2.4604
  134SAPE  C31814559   4.658   2.092   8.637  0.3584  0.2601  0.0822
  134SAPE  H18X14560   4.626   2.153   8.550 -1.6742 -0.4127  0.2925
  134SAPE  H18Y14561   4.645   1.990   8.596  0.6827 -0.7068  2.2196
  134SAPE  H18Z14562   4.765   2.114   8.658  0.3384  1.2820 -0.8070
  135SAPE     N14563   2.946   1.819  11.087 -0.4986 -0.4298  0.9449
  135SAPE   HN114564   2.937   1.788  10.988  1.3067  2.5277 -0.2877
  135SAPE   HN214565   2.995   1.910  11.078  1.1830 -1.2439  1.3895
  135SAPE   HN314566   3.012   1.767  11.149  1.4829  0.7322 -0.0662
  135SAPE   C1214567   2.810   1.813  11.128  0.3897 -0.3307  0.0319
  135SAPE  H12A14568   2.792   1.889  11.207 -2.7248 -0.4381 -0.4540
  135SAPE  H12B14569   2.767   1.718  11.165 -2.6313  0.7259 -0.4539
  135SAPE   C1114570   2.722   1.838  11.003 -0.1410 -0.1213 -0.6760
  135SAPE  H11A14571   2.748   1.923  10.936 -2.7819 -0.6003 -2.4542
  135SAPE  H11B14572   2.625   1.878  11.041 -0.9098 -0.1146 -2.5257
  135SAPE     P14573   2.780   1.691  10.793 -0.1343  0.4509  0.5356
  135SAPE   O1314574   2.925   1.708  10.831  0.3263 -0.3057 -0.2182
  135SAPE   O1414575   2.734   1.557  10.743  0.1455  0.1561 -0.1036
  135SAPE   O1214576   2.696   1.719  10.927  0.3028 -0.0012  0.4430
  135SAPE   O1114577   2.738   1.808  10.695 -0.1390  0.4680 -0.1775
  135SAPE    C114578   2.597   1.814  10.674  0.2734  0.5572 -0.4243
  135SAPE    HA14579   2.557   1.724  10.623  1.6332 -0.1357 -0.3123
  135SAPE    HB14580   2.536   1.813  10.767  1.2349 -1.0408  0.2358
  135SAPE    C214581   2.572   1.948  10.600  0.8055 -0.2167 -0.6030
  135SAPE    HS14582   2.465   1.974  10.610  0.8875  0.3624 -1.1633
  135SAPE   O2114583   2.614   1.951  10.458  0.1145  0.0948  0.2883
  135SAPE   C2114584   2.536   1.866  10.380 -0.2053 -0.6874 -0.2100
  135SAPE   O2214585   2.441   1.806  10.421  0.5088 -0.3523  0.1643
  135SAPE   C2214586   2.587   1.872  10.232  0.3440  0.5343  0.8157
  135SAPE   H2R14587   2.552   1.971  10.196  1.6771 -0.1259 -2.6710
  135SAPE   H2S14588   2.696   1.891  10.217  0.4382 -1.2612 -1.3202
  135SAPE    C314589   2.648   2.062  10.668  0.0475  0.2465 -0.8261
  135SAPE    HX14590   2.758   2.049  10.672 -0.0405 -0.9624 -1.8155
  135SAPE    HY14591   2.622   2.053  10.776  0.8988  0.0866 -0.6278
  135SAPE   O3114592   2.637   2.191  10.603  0.0356 -0.2383  0.7906
  135SAPE   C3114593   2.539   2.270  10.641 -1.0105  0.6612 -0.3134
  135SAPE   O3214594   2.469   2.246  10.737  0.4031 -0.1956 -0.3345
  135SAPE   C3214595   2.546   2.395  10.543 -0.5555  0.0594 -0.0564
  135SAPE   H2X14596   2.557   2.489  10.600  1.8144 -0.7533  0.9518
  135SAPE   H2Y14597   2.448   2.395  10.491 -0.1693  1.8246 -0.8695
  135SAPE   C2314598   2.549   1.751  10.143  0.2218 -0.0110  0.1366
  135SAPE   H3R14599   2.439   1.742  10.128  0.2896  0.1696 -0.4744
  135SAPE   H3S14600   2.579   1.659  10.198  1.8161  1.2717  1.5271
  135SAPE   C2414601   2.610   1.750  10.006 -0.7621 -0.7394  0.6262
  135SAPE   H4R14602   2.568   1.659   9.959 -1.7429 -0.1045  0.2436
  135SAPE   H4S14603   2.718   1.735  10.028 -0.1594 -0.0197 -1.6172
  135SAPE   C2514604   2.590   1.877   9.914 -0.0798 -0.1130 -0.6321
  135SAPE   H5R14605   2.490   1.921   9.914  0.0023  0.1360  1.2617
  135SAPE   C2614606   2.682   1.942   9.842 -0.3858 -0.4718  0.0198
  135SAPE   H6R14607   2.648   2.031   9.787 -0.8046 -0.5950  0.0711
  135SAPE   C2714608   2.830   1.910   9.847 -0.1735  0.1120  0.2461
  135SAPE   H7R14609   2.861   1.877   9.948 -0.8476  0.1550  0.4760
  135SAPE   H7S14610   2.879   2.009   9.842  0.1743 -0.1095 -1.8752
  135SAPE   C2814611   2.876   1.797   9.759  0.2161  0.2460  0.0368
  135SAPE   H8R14612   2.893   1.700   9.809 -3.3603 -1.0990 -1.0537
  135SAPE   C2914613   2.918   1.807   9.629  0.1272  0.2353  0.2545
  135SAPE   H9R14614   2.965   1.723   9.576 -1.8767 -0.6458 -0.1932
  135SAPE  C21014615   2.920   1.936   9.546  0.2460  0.3259 -0.0645
  135SAPE  H10R14616   2.878   2.017   9.610  2.2069  0.5575  1.0179
  135SAPE  H10S14617   2.850   1.908   9.465  0.5120 -1.9715  0.4280
  135SAPE  C21114618   3.056   1.974   9.495  0.1597  0.2842 -0.2946
  135SAPE  H11R14619   3.134   1.973   9.572  0.8207 -0.2840 -0.9614
  135SAPE  C21214620   3.096   1.998   9.368 -0.0274  0.1429  0.0862
  135SAPE  H12R14621   3.198   2.030   9.341 -0.7403  1.7003 -0.9018
  135SAPE  C21314622   3.007   2.004   9.243 -0.4511 -0.7635 -0.4131
  135SAPE  H13R14623   3.026   2.107   9.204  0.7138 -1.8433 -2.8588
  135SAPE  H13S14624   2.903   1.979   9.274  0.0093 -0.0277  1.9681
  135SAPE  C21414625   3.056   1.906   9.145 -0.7844  0.1747  0.5696
  135SAPE  H14R14626   3.065   1.809   9.195 -1.5217  0.5954  1.5391
  135SAPE  C21514627   3.081   1.915   9.007 -0.4551 -0.4595  0.1234
  135SAPE  H15R14628   3.121   1.834   8.944  0.2433 -0.0198 -0.0036
  135SAPE  C21614629   3.059   2.045   8.937  0.3913 -0.2070 -0.3510
  135SAPE  H16R14630   3.122   2.051   8.845  1.8310 -0.0098  0.6202
  135SAPE  H16S14631   3.095   2.124   9.007  0.6949 -1.1014  0.5176
  135SAPE  C21714632   2.910   2.085   8.907 -1.5318  0.3138  0.4701
  135SAPE  H17R14633   2.910   2.185   8.856  0.7913  0.2235  0.2003
  135SAPE  H17S14634   2.862   2.097   9.006  2.6835  1.4990  2.5993
  135SAPE  C21814635   2.839   1.970   8.828 -0.5696  0.2210 -0.0958
  135SAPE  H18R14636   2.833   1.876   8.886  0.9899 -1.9439 -3.1611
  135SAPE  H18S14637   2.904   1.963   8.738 -1.4216  1.3786 -0.8319
  135SAPE  C21914638   2.696   2.013   8.787  0.4279  0.1293  0.3300
  135SAPE  H19R14639   2.718   2.097   8.718  1.7414  0.4374  1.0852
  135SAPE  H19S14640   2.645   2.061   8.874 -0.2145  0.1445 -0.0506
  135SAPE  C22014641   2.604   1.907   8.718  0.1623 -0.7045 -0.1425
  135SAPE  H20R14642   2.526   1.950   8.651  0.7276 -1.3372 -1.2354
  135SAPE  H20S14643   2.553   1.832   8.781  1.1005 -2.3620 -1.2819
  135SAPE  H20T14644   2.669   1.840   8.658  0.2714 -0.4002 -0.3691
  135SAPE   C3314645   2.649   2.394  10.429  0.0435 -0.4072 -0.4765
  135SAPE   H3X14646   2.616   2.470  10.355 -0.3808 -0.7821 -0.6774
  135SAPE   H3Y14647   2.643   2.294  10.380 -4.5636 -0.8919  0.6372
  135SAPE   C3414648   2.791   2.424  10.474 -0.6986 -0.1817 -0.4507
  135SAPE   H4X14649   2.831   2.343  10.540 -0.3374 -0.6816 -1.2744
  135SAPE   H4Y14650   2.784   2.517  10.535 -0.9046 -0.5375  0.0780
  135SAPE   C3514651   2.893   2.449  10.353 -0.1844 -0.3232  0.2763
  135SAPE   H5X14652   2.984   2.489  10.401 -0.1552 -0.8191  0.6317
  135SAPE   H5Y14653   2.841   2.530  10.296 -0.9302 -0.4843  0.7101
  135SAPE   C3614654   2.917   2.321  10.275  0.0914  0.4515  0.2275
  135SAPE   H6X14655   2.826   2.282  10.226  0.7593  0.4931 -1.0957
  135SAPE   H6Y14656   2.951   2.241  10.344 -3.6250  1.1002  3.1605
  135SAPE   C3714657   3.014   2.325  10.157 -0.1747 -0.1720 -0.6223
  135SAPE   H7X14658   3.011   2.228  10.103  0.8894 -0.3348 -0.4109
  135SAPE   H7Y14659   3.115   2.342  10.201 -0.5999  2.0723 -0.3925
  135SAPE   C3814660   2.975   2.428  10.054 -0.5482 -0.5751  0.7068
  135SAPE   H8X14661   2.999   2.523  10.107 -1.1914  0.2589 -0.4472
  135SAPE   H8Y14662   2.867   2.442  10.031  0.3522  2.8195 -2.4675
  135SAPE   C3914663   3.049   2.407   9.922  0.6620 -0.6470  0.4170
  135SAPE   H9X14664   3.021   2.310   9.876 -1.3171 -0.2390  0.6717
  135SAPE   H9Y14665   3.157   2.400   9.948  1.0369  0.7896 -0.6343
  135SAPE  C31014666   3.036   2.514   9.818  0.2953 -0.2440 -0.6009
  135SAPE  H10X14667   3.044   2.612   9.869  0.9184 -1.3175  1.4579
  135SAPE  H10Y14668   2.943   2.503   9.758  0.1428  0.2422 -0.4551
  135SAPE  C31114669   3.148   2.501   9.718  0.1225 -0.1555 -0.1802
  135SAPE  H11X14670   3.247   2.483   9.767  0.3899 -0.5538 -0.8471
  135SAPE  H11Y14671   3.150   2.596   9.662  0.2781 -0.0159  0.0591
  135SAPE  C31214672   3.118   2.388   9.618 -0.1787 -0.3337 -0.0434
  135SAPE  H12X14673   3.010   2.386   9.590 -0.0483 -4.1294 -0.9020
  135SAPE  H12Y14674   3.138   2.293   9.673  4.4186 -0.3822 -1.3977
  135SAPE  C31314675   3.208   2.388   9.494  0.0051 -0.8268  0.5056
  135SAPE  H13X14676   3.197   2.290   9.443 -0.1245 -1.5843  1.9497
  135SAPE  H13Y14677   3.315   2.405   9.517  0.7801 -2.3918 -1.5358
  135SAPE  C31414678   3.162   2.501   9.398 -0.4885  0.3449 -1.1684
  135SAPE  H14X14679   3.189   2.601   9.439  0.8024 -0.7060  0.7356
  135SAPE  H14Y14680   3.052   2.488   9.394 -0.1751 -4.1047  0.0378
  135SAPE  C31514681   3.225   2.478   9.260  0.4105  0.4313 -0.1181
  135SAPE  H15X14682   3.329   2.439   9.259 -0.2225 -1.4644 -2.7935
  135SAPE  H15Y14683   3.227   2.576   9.208  1.4974  0.2429 -0.4679
  135SAPE  C31614684   3.143   2.382   9.173  0.1410  0.0934 -0.1279
  135SAPE  H16X14685   3.038   2.404   9.202  0.0619  1.3093 -1.2598
  135SAPE  H16Y14686   3.169   2.282   9.215  4.1611  2.3152  3.5411
  135SAPE  C31714687   3.166   2.406   9.027 -0.2023  0.4153  0.0661
  135SAPE  H17X14688   3.171   2.514   9.005  0.7620  0.2312 -0.6658
  135SAPE  H17Y14689   3.073   2.372   8.977  0.3982 -0.5771 -0.4142
  135SAPE  C31814690   3.297   2.329   8.972 -0.0001  0.5315 -0.4479
  135SAPE  H18X14691   3.282   2.221   8.953 -1.6181  0.9148 -1.5694
  135SAPE  H18Y14692   3.386   2.343   9.038  1.0860  1.2219 -1.9818
  135SAPE  H18Z14693   3.333   2.376   8.878  1.0809  0.8183  0.0847
  136SAPE     N14694   1.541   1.860  10.921 -0.1401  0.0761  0.2814
  136SAPE   HN114695   1.473   1.853  10.999  0.9764 -0.8620  1.1886
  136SAPE   HN214696   1.635   1.825  10.948  0.3724  2.1709  1.4076
  136SAPE   HN314697   1.553   1.964  10.921  0.4521  0.0102  0.9021
  136SAPE   C1214698   1.489   1.805  10.797  0.8001 -0.2784  0.1683
  136SAPE  H12A14699   1.454   1.701  10.810  0.4769 -0.4596 -1.8336
  136SAPE  H12B14700   1.571   1.801  10.722  0.7587  0.5988  0.0669
  136SAPE   C1114701   1.383   1.901  10.750 -0.0935  0.8045  0.1955
  136SAPE  H11A14702   1.324   1.845  10.674 -1.3318  0.4981  1.3412
  136SAPE  H11B14703   1.444   1.985  10.710  0.4790  0.8129  1.0548
  136SAPE     P14704   1.204   1.868  10.941  0.0254 -0.2685  0.2190
  136SAPE   O1314705   1.294   1.790  11.026 -0.3563  0.1477  0.0804
  136SAPE   O1414706   1.117   1.962  11.013  0.3415  0.4064  0.4124
  136SAPE   O1214707   1.296   1.955  10.843 -0.3812 -0.0382 -0.1574
  136SAPE   O1114708   1.126   1.762  10.849  0.2368  0.0065  0.2760
  136SAPE    C114709   1.019   1.798  10.764 -0.1005 -0.0992  0.5166
  136SAPE    HA14710   0.928   1.790  10.828 -0.8083 -3.1244 -0.7108
  136SAPE    HB14711   1.032   1.902  10.725  2.9974 -0.3329  0.6479
  136SAPE    C214712   1.002   1.704  10.644 -0.0200  0.2505 -0.8680
  136SAPE    HS14713   0.968   1.608  10.687  1.4535  0.0062 -0.2012
  136SAPE   O2114714   1.131   1.704  10.579  0.0165  0.1324  0.3381
  136SAPE   C2114715   1.163   1.588  10.520  0.8961  0.3872  0.2759
  136SAPE   O2214716   1.093   1.490  10.517 -0.2709  0.4849 -0.3046
  136SAPE   C2214717   1.295   1.601  10.436  0.4390 -0.5619 -0.0022
  136SAPE   H2R14718   1.378   1.551  10.491  1.2284  1.7430  1.0438
  136SAPE   H2S14719   1.270   1.541  10.346 -2.0537 -0.3929  0.4917
  136SAPE    C314720   0.892   1.767  10.546 -0.3395 -0.2990 -0.5699
  136SAPE    HX14721   0.932   1.870  10.535 -1.8561  0.7938  2.9400
  136SAPE    HY14722   0.800   1.771  10.608  0.6729 -1.1365  1.0368
  136SAPE   O3114723   0.878   1.712  10.419 -0.7490 -0.3811  0.3592
  136SAPE   C3114724   0.808   1.593  10.425 -0.2894 -0.3228 -0.3726
  136SAPE   O3214725   0.755   1.554  10.528 -0.6555 -0.5356  0.3827
  136SAPE   C3214726   0.789   1.537  10.289  1.1260  0.3986  0.5888
  136SAPE   H2X14727   0.892   1.521  10.249  0.3526 -0.0045 -1.3762
  136SAPE   H2Y14728   0.744   1.610  10.219  2.1150  0.2612 -0.2191
  136SAPE   C2314729   1.330   1.749  10.391  0.7213 -0.5284 -0.0294
  136SAPE   H3R14730   1.295   1.822  10.468 -0.7489 -0.1092 -1.0403
  136SAPE   H3S14731   1.267   1.783  10.306  0.9569  1.8736  0.6810
  136SAPE   C2414732   1.467   1.780  10.344 -0.1953  0.3126 -0.0427
  136SAPE   H4R14733   1.495   1.703  10.269  1.3989  2.2565 -1.5634
  136SAPE   H4S14734   1.537   1.756  10.427 -0.0572 -1.8329 -0.7278
  136SAPE   C2514735   1.507   1.912  10.292  0.5479  0.1693  0.5773
  136SAPE   H5R14736   1.535   1.987  10.368 -1.0842 -0.0487  1.4317
  136SAPE   C2614737   1.506   1.950  10.159 -0.1510  0.4198 -0.0203
  136SAPE   H6R14738   1.545   2.048  10.132  0.1095  0.4399  0.4125
  136SAPE   C2714739   1.462   1.860  10.045 -0.2143  0.3704 -0.1690
  136SAPE   H7R14740   1.377   1.911   9.995  1.8659  2.6049 -1.6705
  136SAPE   H7S14741   1.414   1.766  10.081  0.1155 -0.5123 -1.9060
  136SAPE   C2814742   1.561   1.815   9.949 -0.3938 -0.4320 -0.6790
  136SAPE   H8R14743   1.651   1.775   9.999 -2.2377 -0.1105  3.2777
  136SAPE   C2914744   1.558   1.837   9.817  0.0297  0.0260 -0.3721
  136SAPE   H9R14745   1.642   1.806   9.754 -0.4857 -0.7247 -0.7123
  136SAPE  C21014746   1.456   1.927   9.746  0.2188 -0.0106  0.3174
  136SAPE  H10R14747   1.363   1.939   9.807  0.4165  2.1773  0.2850
  136SAPE  H10S14748   1.414   1.880   9.654 -3.6369  1.4249  1.1591
  136SAPE  C21114749   1.515   2.059   9.719  0.3249 -0.2677 -0.4305
  136SAPE  H11R14750   1.518   2.121   9.809  0.0243  0.1921 -0.7334
  136SAPE  C21214751   1.561   2.110   9.601 -0.8559 -1.4453 -0.2439
  136SAPE  H12R14752   1.612   2.207   9.603  1.1205 -2.3867 -1.5157
  136SAPE  C21314753   1.551   2.041   9.465  0.0470 -0.3051 -0.6645
  136SAPE  H13R14754   1.517   1.936   9.481  0.9764 -0.3803  1.0304
  136SAPE  H13S14755   1.651   2.024   9.420  0.5962 -1.1223  0.7940
  136SAPE  C21414756   1.458   2.123   9.379  0.1047 -0.3425 -0.8227
  136SAPE  H14R14757   1.353   2.129   9.412  0.9231  2.7394  1.7320
  136SAPE  C21514758   1.493   2.189   9.270 -0.0322 -0.3235 -0.5373
  136SAPE  H15R14759   1.411   2.242   9.218 -1.8267 -1.7015  0.7515
  136SAPE  C21614760   1.624   2.202   9.198  0.2977 -0.2839 -0.3534
  136SAPE  H16R14761   1.704   2.149   9.254  0.7775  0.2507 -0.5290
  136SAPE  H16S14762   1.660   2.306   9.191  1.4659 -0.7207 -1.0794
  136SAPE  C21714763   1.619   2.158   9.050 -0.1600 -0.1351  0.1386
  136SAPE  H17R14764   1.551   2.231   9.001 -0.2429  1.0278  1.9174
  136SAPE  H17S14765   1.568   2.060   9.045  0.4388 -0.4052 -3.4812
  136SAPE  C21814766   1.752   2.153   8.984  0.7949  0.1031 -0.0687
  136SAPE  H18R14767   1.827   2.107   9.052  0.2151 -1.4707 -0.4660
  136SAPE  H18S14768   1.785   2.257   8.961 -0.9235  1.1368  1.8121
  136SAPE  C21914769   1.748   2.074   8.856  0.6548  0.8511  0.2517
  136SAPE  H19R14770   1.712   1.976   8.895 -0.7414  1.0153 -0.5805
  136SAPE  H19S14771   1.850   2.067   8.812  0.3143 -1.3800 -0.2991
  136SAPE  C22014772   1.662   2.141   8.744 -0.3071  0.0010  0.4248
  136SAPE  H20R14773   1.720   2.235   8.736 -0.9584  0.5446  1.7386
  136SAPE  H20S14774   1.556   2.162   8.766 -0.5206  1.1285 -1.4578
  136SAPE  H20T14775   1.680   2.082   8.652 -1.5101 -0.4501  0.4674
  136SAPE   C3314776   0.706   1.398  10.292 -0.3386  0.1554  0.0264
  136SAPE   H3X14777   0.614   1.413  10.353 -0.4462  0.0822 -0.1172
  136SAPE   H3Y14778   0.773   1.324  10.340  1.0190  1.6280  0.4677
  136SAPE   C3414779   0.668   1.346  10.156  0.2064  0.3933  0.2970
  136SAPE   H4X14780   0.592   1.409  10.104  1.7559  1.0796 -1.2229
  136SAPE   H4Y14781   0.605   1.257  10.176 -0.9330  1.1953  0.4612
  136SAPE   C3514782   0.769   1.302  10.041  0.3124 -0.7681 -0.3463
  136SAPE   H5X14783   0.829   1.217  10.081 -1.1863 -1.5345  0.3818
  136SAPE   H5Y14784   0.838   1.387  10.020  1.3944 -1.6963 -0.6313
  136SAPE   C3614785   0.700   1.272   9.906 -0.2573  0.2120 -0.1083
  136SAPE   H6X14786   0.790   1.289   9.843  0.3498 -1.2565  0.3178
  136SAPE   H6Y14787   0.615   1.340   9.885 -0.7607 -0.5272 -0.5325
  136SAPE   C3714788   0.650   1.126   9.883 -0.1834  0.5315  0.2722
  136SAPE   H7X14789   0.563   1.103   9.949  0.6099  0.4731  1.3067
  136SAPE   H7Y14790   0.728   1.066   9.934  0.4644  1.0165 -0.1374
  136SAPE   C3814791   0.641   1.087   9.733 -0.2654 -0.4442 -0.4003
  136SAPE   H8X14792   0.558   1.149   9.693  0.4673  1.2598  0.6278
  136SAPE   H8Y14793   0.620   0.980   9.711 -1.0342 -0.7523  1.5665
  136SAPE   C3914794   0.772   1.123   9.653  0.6915  0.0882  0.3977
  136SAPE   H9X14795   0.862   1.104   9.715  0.4751 -0.8126  0.4480
  136SAPE   H9Y14796   0.769   1.234   9.645 -0.4834  0.0537  0.1296
  136SAPE  C31014797   0.789   1.064   9.513  0.3492  0.1794  0.2356
  136SAPE  H10X14798   0.687   1.073   9.471 -0.8260 -3.1508  2.0230
  136SAPE  H10Y14799   0.814   0.956   9.526  0.3948  0.2560  0.8337
  136SAPE  C31114800   0.905   1.130   9.439  0.3090  0.4116 -0.3008
  136SAPE  H11X14801   0.999   1.114   9.497 -0.7580 -0.7836  1.1589
  136SAPE  H11Y14802   0.888   1.237   9.415 -0.1931  0.3482 -0.2317
  136SAPE  C31214803   0.931   1.068   9.308 -0.2904 -0.5858  0.4911
  136SAPE  H12X14804   0.840   1.079   9.244 -0.2632 -0.2042  0.5210
  136SAPE  H12Y14805   0.950   0.958   9.313 -2.3981 -1.0534 -0.3355
  136SAPE  C31314806   1.063   1.110   9.237 -0.7462 -0.7623  0.3581
  136SAPE  H13X14807   1.093   1.053   9.146  0.4695  0.8959 -0.3319
  136SAPE  H13Y14808   1.140   1.103   9.317 -0.5468  0.2857  0.2649
  136SAPE  C31414809   1.079   1.257   9.180  0.1119  0.4779 -0.1903
  136SAPE  H14X14810   1.183   1.297   9.177  0.0607  0.5618 -1.8483
  136SAPE  H14Y14811   1.020   1.325   9.246 -1.4410 -0.0719 -0.9713
  136SAPE  C31514812   1.019   1.270   9.039  0.0602 -1.1203 -0.6734
  136SAPE  H15X14813   0.915   1.232   9.045 -1.1932  1.9748 -0.4957
  136SAPE  H15Y14814   1.081   1.213   8.967  1.2931  1.2781 -1.6470
  136SAPE  C31614815   1.001   1.419   8.985 -0.2376  0.8633 -0.0052
  136SAPE  H16X14816   1.082   1.436   8.911  1.6383  2.6822  2.3190
  136SAPE  H16Y14817   1.020   1.487   9.071  1.9796  0.9538 -0.5059
  136SAPE  C31714818   0.868   1.435   8.906 -0.2605 -0.0281  0.3949
  136SAPE  H17X14819   0.783   1.400   8.968 -1.9243  0.4082 -1.5390
  136SAPE  H17Y14820   0.872   1.378   8.811  1.0746  2.2272 -0.9815
  136SAPE  C31814821   0.845   1.587   8.873 -0.5712  0.0166 -0.2254
  136SAPE  H18X14822   0.925   1.632   8.811 -0.0117 -2.2982 -1.2903
  136SAPE  H18Y14823   0.852   1.637   8.972 -0.9437 -0.0576 -0.1620
  136SAPE  H18Z14824   0.747   1.598   8.824 -0.6654  0.1068 -0.0192
  137SAPE     N14825   5.035   3.716  11.045  0.0057  0.1306  0.2012
  137SAPE   HN114826   5.124   3.662  11.038  0.4709  0.9602 -0.3914
  137SAPE   HN214827   5.060   3.814  11.069  0.0224 -0.3636  2.3963
  137SAPE   HN314828   4.983   3.675  11.125  0.4142 -1.8578 -0.4985
  137SAPE   C1214829   4.962   3.694  10.913  0.5897 -0.3877  0.0069
  137SAPE  H12A14830   4.880   3.620  10.932  0.6364 -0.2993  0.5789
  137SAPE  H12B14831   5.033   3.660  10.835  0.2547  1.0524 -0.9525
  137SAPE   C1114832   4.888   3.824  10.867 -0.3810 -0.7009 -0.7825
  137SAPE  H11A14833   4.819   3.794  10.785 -0.9541 -2.6538  0.3495
  137SAPE  H11B14834   4.956   3.907  10.838  0.2919 -0.2101  1.9356
  137SAPE     P14835   4.693   3.970  10.975 -0.3235 -0.6270  0.6322
  137SAPE   O1314836   4.590   3.915  11.061  0.3809 -0.2247  0.8858
  137SAPE   O1414837   4.746   4.107  11.005  0.1464 -0.2658  0.3978
  137SAPE   O1214838   4.808   3.864  10.978  1.3153  0.8409 -0.4444
  137SAPE   O1114839   4.638   3.966  10.823  0.6006 -0.3949  0.2777
  137SAPE    C114840   4.530   4.041  10.771  0.1971 -0.0954 -0.3144
  137SAPE    HA14841   4.432   4.032  10.823 -0.6228  2.5106 -1.2705
  137SAPE    HB14842   4.548   4.149  10.789  0.0368 -0.4357  2.2768
  137SAPE    C214843   4.494   3.995  10.634  0.0562 -0.3662  0.3933
  137SAPE    HS14844   4.425   4.074  10.599  1.0419 -1.0017 -3.3775
  137SAPE   O2114845   4.433   3.864  10.644 -0.7226  0.4152 -0.4665
  137SAPE   C2114846   4.303   3.856  10.655  0.1252  0.1729 -0.8337
  137SAPE   O2214847   4.227   3.951  10.655 -0.0875  0.0298 -0.0502
  137SAPE   C2214848   4.251   3.710  10.648 -0.1487 -0.2213  0.5103
  137SAPE   H2R14849   4.255   3.665  10.749 -0.0450 -2.3943 -0.4056
  137SAPE   H2S14850   4.145   3.729  10.621 -0.1696 -2.3615 -1.2248
  137SAPE    C314851   4.616   4.006  10.540  0.3154 -0.0153  0.2667
  137SAPE    HX14852   4.709   3.962  10.583  0.8601  2.1562  1.4899
  137SAPE    HY14853   4.639   4.112  10.514 -1.5922  0.0038 -1.5474
  137SAPE   O3114854   4.588   3.952  10.410  0.5208 -0.8082 -0.1766
  137SAPE   C3114855   4.635   3.832  10.398  0.3552 -0.1210 -0.5822
  137SAPE   O3214856   4.691   3.764  10.484  0.1408 -0.5549  0.1652
  137SAPE   C3214857   4.608   3.771  10.253  0.3636 -0.6034 -0.5753
  137SAPE   H2X14858   4.668   3.826  10.177  2.9185 -2.4030 -0.0184
  137SAPE   H2Y14859   4.502   3.772  10.219  0.1823  2.2315 -0.1322
  137SAPE   C2314860   4.319   3.627  10.538  0.6727 -0.4315 -0.0446
  137SAPE   H3R14861   4.284   3.522  10.546 -0.4346  0.0357  1.6715
  137SAPE   H3S14862   4.429   3.622  10.549  0.9806  2.2271 -1.2303
  137SAPE   C2414863   4.303   3.669  10.390  0.5626 -0.2550  0.0191
  137SAPE   H4R14864   4.374   3.748  10.358  3.2072 -2.7702 -0.6449
  137SAPE   H4S14865   4.200   3.708  10.372  0.7247 -0.8678 -2.6580
  137SAPE   C2514866   4.315   3.562  10.285 -0.4283  0.0879 -0.2071
  137SAPE   H5R14867   4.393   3.492  10.318 -0.7271 -0.6468 -1.0360
  137SAPE   C2614868   4.269   3.552  10.162 -0.0088  0.3026  0.6101
  137SAPE   H6R14869   4.285   3.458  10.106  0.7390  0.9770 -0.3399
  137SAPE   C2714870   4.180   3.651  10.092 -0.3330 -0.1974 -0.4632
  137SAPE   H7R14871   4.237   3.707  10.015 -0.6634 -1.7880 -1.9247
  137SAPE   H7S14872   4.153   3.730  10.166 -2.8447 -0.9050 -0.5063
  137SAPE   C2814873   4.057   3.588  10.040  0.5357 -0.3807 -0.3332
  137SAPE   H8R14874   3.989   3.550  10.118  0.8924 -2.1540 -0.8298
  137SAPE   C2914875   4.042   3.541   9.905 -0.9730  0.3350 -0.4893
  137SAPE   H9R14876   3.956   3.474   9.890  0.2354 -2.4230  3.3027
  137SAPE  C21014877   4.146   3.558   9.793 -0.0416  0.1210 -0.7464
  137SAPE  H10R14878   4.248   3.567   9.836 -0.5126  1.7175  0.1365
  137SAPE  H10S14879   4.124   3.652   9.738  0.9658 -0.0207 -1.4040
  137SAPE  C21114880   4.127   3.442   9.700 -0.3280 -0.5793 -0.3931
  137SAPE  H11R14881   4.154   3.347   9.748  0.0414  0.0079  0.5930
  137SAPE  C21214882   4.090   3.450   9.565 -0.1219 -0.1320 -0.0995
  137SAPE  H12R14883   4.078   3.352   9.516  0.8823  0.3479 -1.3867
  137SAPE  C21314884   4.063   3.576   9.487  0.0964  0.6735  0.0739
  137SAPE  H13R14885   4.088   3.574   9.379 -0.6742 -2.5541 -0.1290
  137SAPE  H13S14886   4.142   3.650   9.513 -0.1264  0.2189  2.2215
  137SAPE  C21414887   3.925   3.632   9.502  0.4589  0.1854  0.3510
  137SAPE  H14R14888   3.868   3.599   9.590  0.7540 -0.9356  0.1403
  137SAPE  C21514889   3.866   3.713   9.410  0.0578 -0.1087 -0.1072
  137SAPE  H15R14890   3.761   3.741   9.429  1.0589  1.1427  4.8851
  137SAPE  C21614891   3.924   3.766   9.283  0.1984  0.3554 -0.1438
  137SAPE  H16R14892   4.033   3.767   9.300  0.4337 -1.8832 -1.1778
  137SAPE  H16S14893   3.878   3.867   9.272 -1.1051 -0.2811 -0.8187
  137SAPE  C21714894   3.886   3.680   9.169 -0.1338 -0.2046  0.5758
  137SAPE  H17R14895   3.776   3.669   9.162 -0.2058 -3.6161  3.9256
  137SAPE  H17S14896   3.923   3.575   9.174 -1.8033 -0.7918  1.3189
  137SAPE  C21814897   3.943   3.727   9.029  0.6660 -0.6253 -0.1908
  137SAPE  H18R14898   4.050   3.696   9.020  1.0218  0.4702  0.1256
  137SAPE  H18S14899   3.937   3.838   9.040  2.2466 -0.2815 -2.1461
  137SAPE  C21914900   3.867   3.683   8.907 -1.0024  0.4811  0.3025
  137SAPE  H19R14901   3.763   3.664   8.940 -1.3025  2.1812  0.4572
  137SAPE  H19S14902   3.916   3.588   8.877 -0.4411  0.0063  2.5224
  137SAPE  C22014903   3.855   3.767   8.784 -0.4103 -0.0496  0.1938
  137SAPE  H20R14904   3.787   3.855   8.792 -0.0611  0.3225 -0.7328
  137SAPE  H20S14905   3.820   3.716   8.691 -0.5299  1.6424 -0.7307
  137SAPE  H20T14906   3.955   3.810   8.763  0.8538 -2.9196 -0.0770
  137SAPE   C3314907   4.649   3.621  10.247  0.6561  0.9992 -0.0975
  137SAPE   H3X14908   4.566   3.553  10.278  1.2163  0.2435 -0.2204
  137SAPE   H3Y14909   4.739   3.602  10.309 -0.9545 -1.2751  1.7273
  137SAPE   C3414910   4.686   3.578  10.100  0.2096  0.0158 -0.5922
  137SAPE   H4X14911   4.726   3.474  10.111 -1.4353 -0.4231  2.5945
  137SAPE   H4Y14912   4.774   3.642  10.081  2.2536 -2.6571 -0.8074
  137SAPE   C3514913   4.581   3.594   9.991  0.8529 -0.5586 -0.0665
  137SAPE   H5X14914   4.521   3.684  10.015 -1.4993 -2.2227  0.6806
  137SAPE   H5Y14915   4.508   3.510  10.000 -0.0305  0.2187  0.2298
  137SAPE   C3614916   4.633   3.592   9.843 -0.3612 -0.2415  0.1599
  137SAPE   H6X14917   4.712   3.516   9.826  0.3397  0.8256 -1.5720
  137SAPE   H6Y14918   4.679   3.691   9.819 -0.0105 -0.5768 -0.5618
  137SAPE   C3714919   4.511   3.582   9.745  0.0904  0.1214 -0.4260
  137SAPE   H7X14920   4.432   3.652   9.781 -0.0686 -0.1186 -0.3056
  137SAPE   H7Y14921   4.474   3.477   9.750  2.0015 -0.5676  0.2280
  137SAPE   C3814922   4.561   3.603   9.599 -0.4956  0.1681 -0.5159
  137SAPE   H8X14923   4.636   3.524   9.577  0.4096  0.7722  0.2767
  137SAPE   H8Y14924   4.612   3.701   9.589  2.5551 -1.0262  1.7824
  137SAPE   C3914925   4.441   3.593   9.505 -0.0754 -0.3004 -0.5666
  137SAPE   H9X14926   4.363   3.667   9.535  1.7104  1.9717 -1.1973
  137SAPE   H9Y14927   4.394   3.495   9.526  0.0725 -0.3198 -0.3257
  137SAPE  C31014928   4.481   3.606   9.359  0.5261 -0.3444  0.6739
  137SAPE  H10X14929   4.573   3.554   9.323 -1.0681 -2.1921 -0.9937
  137SAPE  H10Y14930   4.495   3.711   9.325 -1.0059 -0.4588 -0.4173
  137SAPE  C31114931   4.360   3.569   9.262  0.1890 -0.1496  0.1259
  137SAPE  H11X14932   4.267   3.626   9.283  0.9594  1.0668  0.4102
  137SAPE  H11Y14933   4.348   3.460   9.278 -2.9395  0.2322  0.9163
  137SAPE  C31214934   4.391   3.578   9.112 -0.4402  0.0360  0.2762
  137SAPE  H12X14935   4.314   3.517   9.061 -0.2144 -1.0927  1.2492
  137SAPE  H12Y14936   4.488   3.528   9.092  0.8361  2.5937 -0.3831
  137SAPE  C31314937   4.396   3.716   9.038  0.1673 -0.8059 -0.6069
  137SAPE  H13X14938   4.491   3.774   9.048 -1.4200  2.0668 -1.0320
  137SAPE  H13Y14939   4.317   3.781   9.081  1.9541  1.4664 -0.5701
  137SAPE  C31414940   4.387   3.700   8.885 -0.2636  0.2904 -0.5129
  137SAPE  H14X14941   4.310   3.622   8.865 -0.6695  0.5514  0.0005
  137SAPE  H14Y14942   4.483   3.651   8.860  0.0036  0.7788 -0.4576
  137SAPE  C31514943   4.370   3.837   8.819 -0.6824  0.0800 -0.4609
  137SAPE  H15X14944   4.400   3.923   8.882  1.8019 -0.9420 -0.1228
  137SAPE  H15Y14945   4.261   3.855   8.807 -0.4207  3.8217  1.2356
  137SAPE  C31614946   4.445   3.834   8.688  0.5801  0.0635 -0.0520
  137SAPE  H16X14947   4.421   3.736   8.644  0.0447  0.2094 -0.0921
  137SAPE  H16Y14948   4.553   3.828   8.711  0.5559 -1.4768 -0.2438
  137SAPE  C31714949   4.420   3.942   8.592 -0.4877 -0.4850  0.6317
  137SAPE  H17X14950   4.462   4.038   8.631 -0.8722  0.7506 -1.7549
  137SAPE  H17Y14951   4.310   3.958   8.588 -0.6039 -1.4540 -1.0072
  137SAPE  C31814952   4.476   3.918   8.451  0.2545 -0.2798 -0.2818
  137SAPE  H18X14953   4.586   3.907   8.461  0.2941  1.0868  1.2271
  137SAPE  H18Y14954   4.449   4.008   8.391  0.9557 -0.2586 -0.5744
  137SAPE  H18Z14955   4.427   3.829   8.406 -1.2080  0.6637 -0.6364
  138SAPE     N14956   1.076   6.541  10.920 -0.2945 -0.1052 -0.1921
  138SAPE   HN114957   1.001   6.610  10.903 -0.0634 -0.0167 -0.8595
  138SAPE   HN214958   1.028   6.472  10.982 -0.6135  0.0715 -0.2400
  138SAPE   HN314959   1.143   6.589  10.984 -1.2598  1.2381 -0.1525
  138SAPE   C1214960   1.132   6.480  10.801 -0.2698  0.3107  0.4261
  138SAPE  H12A14961   1.104   6.554  10.723 -1.9172  0.9668  1.5537
  138SAPE  H12B14962   1.074   6.391  10.769 -0.1731  0.7027 -0.9042
  138SAPE   C1114963   1.279   6.439  10.817 -0.1339  0.6896  0.1838
  138SAPE  H11A14964   1.326   6.405  10.722 -2.7771 -0.8075 -0.6706
  138SAPE  H11B14965   1.292   6.356  10.890  0.1895  1.2287  0.7512
  138SAPE     P14966   1.422   6.661  10.795 -0.1303 -0.3280 -0.7361
  138SAPE   O1314967   1.346   6.782  10.829 -0.0160  0.8006  0.4235
  138SAPE   O1414968   1.572   6.666  10.819  0.7990 -0.0900 -0.6141
  138SAPE   O1214969   1.360   6.537  10.875 -0.2471 -0.0399 -0.7540
  138SAPE   O1114970   1.401   6.624  10.644  0.3511 -0.2414 -0.6421
  138SAPE    C114971   1.490   6.574  10.554 -0.0449  0.2213  0.1074
  138SAPE    HA14972   1.546   6.492  10.604  1.1880 -0.1344 -1.7454
  138SAPE    HB14973   1.431   6.540  10.466 -1.6325  2.3859  0.2585
  138SAPE    C214974   1.588   6.691  10.498  0.0195  0.2224 -1.1414
  138SAPE    HS14975   1.599   6.756  10.587 -0.3934 -0.5004 -0.5432
  138SAPE   O2114976   1.523   6.754  10.390  0.1263 -0.5093  0.7140
  138SAPE   C2114977   1.574   6.869  10.345 -0.7053  0.4589 -0.3659
  138SAPE   O2214978   1.656   6.933  10.411 -0.3631 -0.0503 -0.3482
  138SAPE   C2214979   1.522   6.902  10.206  0.0474 -0.0852 -0.0778
  138SAPE   H2R14980   1.564   6.819  10.144 -1.4227  0.9325 -2.5564
  138SAPE   H2S14981   1.412   6.897  10.198  0.1272 -0.0692 -1.3688
  138SAPE    C314982   1.728   6.640  10.457 -0.4440 -0.1915  0.0874
  138SAPE    HX14983   1.777   6.582  10.538  2.5473  4.2032  1.8208
  138SAPE    HY14984   1.800   6.723  10.440 -0.7469 -0.4152 -2.8367
  138SAPE   O3114985   1.736   6.561  10.335 -0.4070 -0.5722 -0.4172
  138SAPE   C3114986   1.756   6.432  10.332 -0.2713  0.1151  0.1898
  138SAPE   O3214987   1.738   6.356  10.426  0.0634  0.2501  0.4914
  138SAPE   C3214988   1.798   6.397  10.188  0.2155  0.7265 -0.4968
  138SAPE   H2X14989   1.904   6.420  10.169 -0.5158  3.6990 -1.4742
  138SAPE   H2Y14990   1.724   6.457  10.132 -0.8431  1.1224  1.2301
  138SAPE   C2314991   1.571   7.035  10.143  0.1528 -0.5003 -0.0982
  138SAPE   H3R14992   1.681   7.029  10.129  0.4170  0.1047  1.5343
  138SAPE   H3S14993   1.559   7.103  10.230  0.3492 -1.1459  0.4405
  138SAPE   C2414994   1.489   7.080  10.025  0.4501 -0.3633  0.2319
  138SAPE   H4R14995   1.506   7.189  10.011 -1.5763  0.2127  1.6749
  138SAPE   H4S14996   1.381   7.057  10.037  0.5071 -1.1034 -0.6127
  138SAPE   C2514997   1.544   7.015   9.904  0.6202 -0.2436 -0.5243
  138SAPE   H5R14998   1.535   6.905   9.904  0.7557 -0.3032  1.9496
  138SAPE   C2614999   1.595   7.071   9.797  0.5126 -0.4815  0.1008
  138SAPE   H6R15000   1.617   7.010   9.709 -0.5908 -0.0058 -0.5230
  138SAPE   C2715001   1.626   7.215   9.775 -0.4710 -0.4200  0.3112
  138SAPE   H7R15002   1.645   7.273   9.868  3.4297  0.3049 -0.7640
  138SAPE   H7S15003   1.541   7.271   9.729  1.9910  1.6565 -2.0846
  138SAPE   C2815004   1.757   7.237   9.703  0.3313 -0.0928 -0.3043
  138SAPE   H8R15005   1.856   7.203   9.737  0.1327 -2.2813 -1.7294
  138SAPE   C2915006   1.777   7.292   9.585  0.6059  0.6487  0.7753
  138SAPE   H9R15007   1.879   7.309   9.548  0.0302 -0.0857 -1.3196
  138SAPE  C21015008   1.675   7.349   9.493  0.0221  0.2241  0.2036
  138SAPE  H10R15009   1.720   7.441   9.448 -0.5132  0.1490 -0.4920
  138SAPE  H10S15010   1.590   7.389   9.553  0.3998  1.6259 -0.1640
  138SAPE  C21115011   1.609   7.263   9.394 -0.0837  0.7972 -0.9441
  138SAPE  H11R15012   1.517   7.209   9.422  1.9767 -2.2497  0.5811
  138SAPE  C21215013   1.647   7.234   9.268 -0.3604 -0.8932 -0.6650
  138SAPE  H12R15014   1.564   7.193   9.208 -0.3065 -0.8131 -0.7938
  138SAPE  C21315015   1.764   7.291   9.195 -0.1623 -0.2526  0.0608
  138SAPE  H13R15016   1.826   7.206   9.157  0.1571 -1.0378  2.2020
  138SAPE  H13S15017   1.834   7.345   9.262 -0.1126 -1.0046  0.6276
  138SAPE  C21415018   1.726   7.375   9.073  0.3533 -0.0456 -0.0082
  138SAPE  H14R15019   1.662   7.459   9.104 -0.3694  0.0544 -1.7118
  138SAPE  C21515020   1.749   7.356   8.940  0.1708  0.3036 -0.4865
  138SAPE  H15R15021   1.715   7.426   8.862 -0.7154 -2.1063 -2.3540
  138SAPE  C21615022   1.817   7.242   8.871  0.4772 -0.2302 -0.2470
  138SAPE  H16R15023   1.762   7.221   8.777  0.6328 -0.2335 -0.3396
  138SAPE  H16S15024   1.821   7.150   8.933 -0.5624 -1.6174 -2.1471
  138SAPE  C21715025   1.969   7.257   8.838 -0.0836  0.1351 -0.1663
  138SAPE  H17R15026   1.986   7.353   8.784  1.6093  0.6051  1.1160
  138SAPE  H17S15027   1.997   7.167   8.779  2.4177  1.2316 -0.7982
  138SAPE  C21815028   2.070   7.269   8.955 -0.8237  0.0626 -0.3947
  138SAPE  H18R15029   2.043   7.336   9.039  0.9515 -1.3334  1.3800
  138SAPE  H18S15030   2.163   7.317   8.918 -0.4491  0.0799  0.5562
  138SAPE  C21915031   2.111   7.138   9.030  0.3807  0.7266  0.9645
  138SAPE  H19R15032   2.028   7.091   9.086  0.0869 -0.2346 -0.2357
  138SAPE  H19S15033   2.188   7.174   9.101  1.7917  1.0052 -0.6402
  138SAPE  C22015034   2.176   7.033   8.936  0.5977  0.2147  0.5284
  138SAPE  H20R15035   2.228   6.959   9.000  0.4613  0.2084  0.6334
  138SAPE  H20S15036   2.243   7.082   8.863  1.9821  0.5217  1.9598
  138SAPE  H20T15037   2.089   6.994   8.878  1.1426  0.4134 -0.4318
  138SAPE   C3315038   1.777   6.242  10.154 -0.0509 -0.2173  0.2203
  138SAPE   H3X15039   1.667   6.227  10.169 -0.1753 -0.9577 -1.2710
  138SAPE   H3Y15040   1.835   6.175  10.220  2.5106  1.7592  0.1216
  138SAPE   C3415041   1.807   6.210  10.006  1.1012  0.1986 -0.2704
  138SAPE   H4X15042   1.832   6.102   9.998  2.6254  0.4523  0.7793
  138SAPE   H4Y15043   1.898   6.261   9.969  0.6079  0.2162 -1.5279
  138SAPE   C3515044   1.693   6.251   9.904  0.8714 -0.4482 -0.2714
  138SAPE   H5X15045   1.688   6.361   9.893  1.1878 -0.2544  1.2959
  138SAPE   H5Y15046   1.600   6.199   9.936  1.3837 -0.4092  1.3690
  138SAPE   C3615047   1.708   6.195   9.761 -1.3479 -0.1147 -0.1009
  138SAPE   H6X15048   1.617   6.215   9.701 -1.2056 -1.8043 -0.9258
  138SAPE   H6Y15049   1.727   6.086   9.756 -0.2829  0.0618 -0.1780
  138SAPE   C3715050   1.829   6.261   9.701 -0.4672  0.3368  0.0795
  138SAPE   H7X15051   1.917   6.194   9.705 -1.4009 -1.0657 -1.4716
  138SAPE   H7Y15052   1.848   6.359   9.747  0.4179  0.9705 -1.5614
  138SAPE   C3815053   1.812   6.280   9.552  0.2372 -0.6849  0.2515
  138SAPE   H8X15054   1.772   6.184   9.511  0.0804 -1.7536  2.7066
  138SAPE   H8Y15055   1.918   6.292   9.521 -0.1762  2.2705 -0.2603
  138SAPE   C3915056   1.729   6.397   9.503 -0.2828 -0.3560 -0.0723
  138SAPE   H9X15057   1.762   6.480   9.568 -0.5375 -1.2936  1.3028
  138SAPE   H9Y15058   1.626   6.370   9.535 -0.4605 -0.2742 -0.5709
  138SAPE  C31015059   1.728   6.425   9.351 -0.5775 -0.5412 -0.1066
  138SAPE  H10X15060   1.652   6.505   9.337  0.1707  0.9229  3.2972
  138SAPE  H10Y15061   1.705   6.327   9.303 -2.0652 -0.9006  1.2800
  138SAPE  C31115062   1.858   6.488   9.292  0.3682  0.2160  0.1069
  138SAPE  H11X15063   1.944   6.422   9.315  0.7835  0.7632  0.1394
  138SAPE  H11Y15064   1.867   6.589   9.338 -0.4417 -0.2221  1.2778
  138SAPE  C31215065   1.853   6.501   9.137 -0.4887 -0.6078 -0.6534
  138SAPE  H12X15066   1.760   6.560   9.118 -0.2718  0.8132  2.1605
  138SAPE  H12Y15067   1.843   6.396   9.103 -0.5187 -1.5459  2.0282
  138SAPE  C31315068   1.970   6.572   9.074 -0.0488  0.6473 -0.5942
  138SAPE  H13X15069   2.062   6.541   9.128 -0.7454 -0.1394  0.1657
  138SAPE  H13Y15070   1.969   6.683   9.088  1.1556  0.6296 -0.2594
  138SAPE  C31415071   1.969   6.537   8.923 -0.5630  0.2482 -0.2827
  138SAPE  H14X15072   1.901   6.606   8.868  1.1064  3.0363  0.9223
  138SAPE  H14Y15073   1.931   6.434   8.904 -1.7934  0.8935 -1.5483
  138SAPE  C31515074   2.114   6.535   8.864  0.4006  0.7635 -0.1388
  138SAPE  H15X15075   2.105   6.490   8.762 -2.4091  0.2191  0.2711
  138SAPE  H15Y15076   2.173   6.466   8.928 -0.5212  2.3181  2.5227
  138SAPE  C31615077   2.191   6.664   8.850  0.2444  0.2851  0.1343
  138SAPE  H16X15078   2.190   6.717   8.948 -2.3720  0.3957  0.1164
  138SAPE  H16Y15079   2.132   6.734   8.787  0.0978  0.1448  0.1159
  138SAPE  C31715080   2.328   6.636   8.801 -0.1276  0.1435  0.0143
  138SAPE  H17X15081   2.317   6.583   8.704  0.5865  3.0321 -1.7894
  138SAPE  H17Y15082   2.374   6.570   8.878 -0.0143 -1.1568 -1.1306
  138SAPE  C31815083   2.417   6.763   8.795 -0.1347 -0.0404 -0.3061
  138SAPE  H18X15084   2.412   6.822   8.889  1.8284 -0.0385 -0.1690
  138SAPE  H18Y15085   2.371   6.824   8.714  0.3144 -0.0880 -0.6002
  138SAPE  H18Z15086   2.522   6.744   8.766  0.0792 -0.3968  0.6578
  139SAPE     N15087   0.528   0.425  11.210  0.4793  0.0959  0.1763
  139SAPE   HN115088   0.548   0.515  11.161 -1.1523  0.6042  0.3633
  139SAPE   HN215089   0.447   0.378  11.166  0.7386  0.7188 -1.0055
  139SAPE   HN315090   0.502   0.440  11.310  0.5717 -2.8302  0.7094
  139SAPE   C1215091   0.631   0.324  11.187  0.6502  0.8803 -0.0257
  139SAPE  H12A15092   0.611   0.233  11.247  1.3983  0.7688  0.0561
  139SAPE  H12B15093   0.731   0.357  11.223  0.7826  1.3156 -0.7815
  139SAPE   C1115094   0.648   0.296  11.040 -0.1127  0.2185 -0.0307
  139SAPE  H11A15095   0.734   0.231  11.015 -1.4148 -0.8151 -2.0621
  139SAPE  H11B15096   0.675   0.396  10.998 -3.6079  1.7309  0.9044
  139SAPE     P15097   0.514   0.080  10.982  0.2683  0.5415  0.0589
  139SAPE   O1315098   0.635   0.007  11.027 -0.0617 -0.0838  0.1564
  139SAPE   O1415099   0.385   0.038  11.036  0.1162 -0.2786 -0.0594
  139SAPE   O1215100   0.525   0.239  10.983  0.4062  0.0328  0.1473
  139SAPE   O1115101   0.494   0.059  10.830  0.6219 -0.1366 -0.0142
  139SAPE    C115102   0.464   0.161  10.732  0.0767 -0.2660 -0.6631
  139SAPE    HA15103   0.432   0.258  10.774 -0.3054  0.0267 -1.6102
  139SAPE    HB15104   0.563   0.177  10.684  0.0854  0.6435 -0.3575
  139SAPE    C215105   0.367   0.118  10.616  0.0298  0.6325  0.4359
  139SAPE    HS15106   0.271   0.087  10.663  1.8415 -1.3654  3.0992
  139SAPE   O2115107   0.431   0.014  10.541 -0.1775  0.3542  0.2270
  139SAPE   C2115108   0.349  -0.058  10.469 -0.0430 -0.1455  0.0013
  139SAPE   O2215109   0.228  -0.072  10.482 -0.7531  0.2143  0.2760
  139SAPE   C2215110   0.436  -0.156  10.389 -0.1224  0.1520  0.1673
  139SAPE   H2R15111   0.537  -0.112  10.374  0.5263 -1.2185  0.3663
  139SAPE   H2S15112   0.436  -0.244  10.457  0.4330  0.7351  0.9512
  139SAPE    C315113   0.351   0.236  10.519 -0.3728 -0.4263 -0.1539
  139SAPE    HX15114   0.441   0.244  10.454 -0.1647 -2.3718 -0.1674
  139SAPE    HY15115   0.341   0.329  10.578  0.8720  0.9952 -2.0507
  139SAPE   O3115116   0.230   0.216  10.438  0.0215 -0.7698 -0.1591
  139SAPE   C3115117   0.129   0.299  10.479 -0.0920 -0.2895  0.9066
  139SAPE   O3215118   0.122   0.374  10.573 -0.6373 -0.3489 -0.0642
  139SAPE   C3215119   0.016   0.282  10.382  0.3936 -0.1187  0.3872
  139SAPE   H2X15120  -0.027   0.385  10.377  0.1152 -0.0690  2.9173
  139SAPE   H2Y15121  -0.064   0.219  10.424 -0.4693 -2.5196 -4.1800
  139SAPE   C2315122   0.366  -0.193  10.259 -0.2209 -0.1410 -0.6335
  139SAPE   H3R15123   0.276  -0.256  10.277  0.8910 -1.9619 -1.1872
  139SAPE   H3S15124   0.430  -0.260  10.198 -1.8556 -1.0584 -1.3976
  139SAPE   C2415125   0.326  -0.076  10.169 -0.4051  0.6175  0.3732
  139SAPE   H4R15126   0.242  -0.015  10.210 -0.7229 -0.2660  1.0767
  139SAPE   H4S15127   0.272  -0.127  10.086 -0.5923 -0.9059  1.3738
  139SAPE   C2515128   0.429   0.022  10.120 -0.2772 -0.2116  0.8598
  139SAPE   H5R15129   0.460   0.090  10.201  1.4014 -1.0200  0.9566
  139SAPE   C2615130   0.491   0.032   9.997 -0.1280 -0.0068 -0.3091
  139SAPE   H6R15131   0.578   0.099   9.989 -0.9488  1.1212 -0.0195
  139SAPE   C2715132   0.462  -0.062   9.884  0.7028  0.5495 -0.0404
  139SAPE   H7R15133   0.435  -0.158   9.931 -0.3514  0.2966 -1.1211
  139SAPE   H7S15134   0.559  -0.082   9.833  0.0354  1.2046 -1.6249
  139SAPE   C2815135   0.371  -0.006   9.780 -0.3091 -0.0943 -0.4390
  139SAPE   H8R15136   0.336   0.097   9.800 -0.4117 -0.2252  0.0814
  139SAPE   C2915137   0.331  -0.062   9.666 -0.3555  0.7836 -0.0209
  139SAPE   H9R15138   0.253  -0.009   9.609 -0.1094  2.1296  0.8308
  139SAPE  C21015139   0.378  -0.186   9.599  0.0281  0.0736 -0.2271
  139SAPE  H10R15140   0.288  -0.251   9.599  1.4493 -1.9963 -0.3347
  139SAPE  H10S15141   0.457  -0.239   9.656 -1.8517 -1.5833  0.9804
  139SAPE  C21115142   0.438  -0.160   9.466 -0.5755  1.2577  0.3036
  139SAPE  H11R15143   0.534  -0.109   9.483 -0.8703  1.3341  1.9801
  139SAPE  C21215144   0.402  -0.197   9.342  0.4027 -0.1794 -0.3369
  139SAPE  H12R15145   0.461  -0.162   9.256 -0.8824 -1.4442 -1.7955
  139SAPE  C21315146   0.265  -0.267   9.320 -0.6278 -0.2673 -0.1037
  139SAPE  H13R15147   0.234  -0.323   9.411  0.1208  0.1470  0.4183
  139SAPE  H13S15148   0.269  -0.328   9.228 -2.9142  0.4676 -0.7578
  139SAPE  C21415149   0.168  -0.152   9.292  0.3552  0.5080 -0.3708
  139SAPE  H14R15150   0.199  -0.050   9.319 -0.4899  0.5056  0.6617
  139SAPE  C21515151   0.042  -0.168   9.245 -0.1598 -0.8353  0.1252
  139SAPE  H15R15152  -0.028  -0.086   9.223  1.8416  1.0636  0.5541
  139SAPE  C21615153  -0.018  -0.305   9.201  0.0656  0.0708 -0.1057
  139SAPE  H16R15154  -0.125  -0.301   9.231 -0.4394 -0.4742 -1.7401
  139SAPE  H16S15155   0.031  -0.396   9.244 -1.1018  0.4785  2.2994
  139SAPE  C21715156  -0.013  -0.317   9.045  0.1020  0.4657  0.0267
  139SAPE  H17R15157  -0.100  -0.386   9.032  2.9238 -3.0749 -1.7359
  139SAPE  H17S15158   0.080  -0.371   9.018  1.4169  1.7177  1.8248
  139SAPE  C21815159  -0.023  -0.183   8.971  0.6568  0.3178  0.1015
  139SAPE  H18R15160   0.079  -0.141   8.979  1.0490 -0.7687  1.1971
  139SAPE  H18S15161  -0.105  -0.123   9.016  0.2469 -0.6341  0.6592
  139SAPE  C21915162  -0.057  -0.211   8.828 -0.0827  0.4093  0.1083
  139SAPE  H19R15163  -0.101  -0.313   8.817  1.3908 -0.3504  0.8856
  139SAPE  H19S15164   0.037  -0.227   8.772 -0.4325  0.6711 -0.5561
  139SAPE  C22015165  -0.141  -0.100   8.755 -0.4952 -0.2191 -0.2491
  139SAPE  H20R15166  -0.232  -0.092   8.819 -0.7299  0.6130 -0.6748
  139SAPE  H20S15167  -0.171  -0.122   8.650 -0.6146 -1.4470  0.0321
  139SAPE  H20T15168  -0.079  -0.008   8.754 -0.3276 -0.3288 -0.8624
  139SAPE   C3315169   0.047   0.225  10.242 -0.6329  0.0660 -0.1351
  139SAPE   H3X15170   0.055   0.114  10.242  2.4403  0.1096 -3.1711
  139SAPE   H3Y15171   0.151   0.257  10.220  1.0497 -2.4682  3.1805
  139SAPE   C3415172  -0.055   0.261  10.134  0.3808  0.5555  0.2136
  139SAPE   H4X15173  -0.040   0.367  10.105  0.1703  0.8909  1.3186
  139SAPE   H4Y15174  -0.160   0.241  10.164  0.9618 -0.7885  1.4897
  139SAPE   C3515175  -0.027   0.167  10.013 -0.4672 -0.1689 -0.8546
  139SAPE   H5X15176  -0.053   0.066  10.049  1.0656 -0.0071  0.8453
  139SAPE   H5Y15177   0.081   0.177   9.988 -0.1224  1.5825  1.0191
  139SAPE   C3615178  -0.099   0.219   9.893 -0.0009  0.1796  0.5963
  139SAPE   H6X15179  -0.068   0.321   9.862  0.5611  0.1782  1.1241
  139SAPE   H6Y15180  -0.207   0.211   9.917 -0.4090  2.3017 -0.2811
  139SAPE   C3715181  -0.080   0.125   9.770  0.3632 -0.3571 -0.1886
  139SAPE   H7X15182  -0.092   0.017   9.793 -0.2995 -0.5657 -1.4614
  139SAPE   H7Y15183   0.024   0.151   9.742  0.5638 -1.4988 -0.5640
  139SAPE   C3815184  -0.174   0.150   9.650  0.6919  0.2637 -0.1549
  139SAPE   H8X15185  -0.159   0.251   9.606 -0.2353 -0.1751 -1.5006
  139SAPE   H8Y15186  -0.278   0.141   9.688 -0.0895  1.7666 -1.8133
  139SAPE   C3915187  -0.148   0.057   9.536  0.6828 -0.3542  0.1183
  139SAPE   H9X15188  -0.158  -0.048   9.571  0.9242  0.3893  2.6254
  139SAPE   H9Y15189  -0.039   0.070   9.521  0.6370 -0.4001 -0.2690
  139SAPE  C31015190  -0.214   0.093   9.408  0.4267  0.1066 -0.0992
  139SAPE  H10X15191  -0.316   0.133   9.427 -0.3525 -2.0043  0.4654
  139SAPE  H10Y15192  -0.221  -0.000   9.347 -3.9717  0.6243 -0.7161
  139SAPE  C31115193  -0.148   0.193   9.306  0.5958  0.3316 -0.0732
  139SAPE  H11X15194  -0.044   0.157   9.292  0.2485 -0.3625 -0.9845
  139SAPE  H11Y15195  -0.153   0.291   9.356 -0.5034  1.3243 -1.9828
  139SAPE  C31215196  -0.215   0.192   9.178  0.5917 -0.0221 -0.1040
  139SAPE  H12X15197  -0.324   0.208   9.196  0.5240 -0.8932  0.2712
  139SAPE  H12Y15198  -0.192   0.096   9.127 -0.1366 -0.0485 -0.4050
  139SAPE  C31315199  -0.163   0.300   9.088 -0.5216  0.6287 -0.4727
  139SAPE  H13X15200  -0.058   0.266   9.071 -0.0724  0.4093  2.1814
  139SAPE  H13Y15201  -0.168   0.402   9.130  2.4412  0.7204 -0.0864
  139SAPE  C31415202  -0.230   0.298   8.947  0.4568 -0.5141 -0.2915
  139SAPE  H14X15203  -0.340   0.308   8.963  0.4008  1.2895 -1.5322
  139SAPE  H14Y15204  -0.227   0.196   8.904 -2.8969 -0.6038 -0.6178
  139SAPE  C31515205  -0.181   0.414   8.856 -0.8578  0.5096 -0.7294
  139SAPE  H15X15206  -0.073   0.402   8.835 -0.8574 -0.4373 -0.2402
  139SAPE  H15Y15207  -0.201   0.513   8.904  2.0587  0.0222  1.8015
  139SAPE  C31615208  -0.251   0.409   8.715 -0.8392 -0.9501 -0.2512
  139SAPE  H16X15209  -0.234   0.310   8.669  0.3575 -1.1270  0.5279
  139SAPE  H16Y15210  -0.359   0.409   8.740 -1.1169  0.4919 -1.3375
  139SAPE  C31715211  -0.198   0.526   8.632  0.4596 -0.6615 -0.3555
  139SAPE  H17X15212  -0.088   0.521   8.643  0.2300 -0.2058  3.7500
  139SAPE  H17Y15213  -0.238   0.625   8.663 -2.0886 -1.5672 -0.4969
  139SAPE  C31815214  -0.216   0.503   8.480  0.7078 -0.5295  0.2951
  139SAPE  H18X15215  -0.323   0.504   8.451 -0.1969  2.1127  3.1835
  139SAPE  H18Y15216  -0.173   0.403   8.460 -2.5883 -1.8308 -1.1156
  139SAPE  H18Z15217  -0.158   0.581   8.425 -0.9224  0.4083 -0.1535
  140SAPE     N15218   3.184   1.683  10.768  0.1893  0.2695 -0.7256
  140SAPE   HN115219   3.198   1.648  10.672 -2.3705 -2.3413 -0.2828
  140SAPE   HN215220   3.180   1.595  10.824 -1.4780 -0.5230 -2.0179
  140SAPE   HN315221   3.094   1.730  10.790 -1.1435 -2.8430  1.2482
  140SAPE   C1215222   3.295   1.775  10.821 -0.7105  0.1569 -0.2534
  140SAPE  H12A15223   3.338   1.824  10.731  2.1085 -0.4149  0.6592
  140SAPE  H12B15224   3.370   1.697  10.846 -0.2813  0.5463 -0.2868
  140SAPE   C1115225   3.254   1.859  10.938 -0.2708 -0.3527  0.0574
  140SAPE  H11A15226   3.344   1.899  10.990 -0.5490  0.0423  0.2417
  140SAPE  H11B15227   3.208   1.793  11.015 -2.0184 -0.4315 -1.0111
  140SAPE     P15228   3.157   2.092  10.965  0.0640  0.3220  0.3532
  140SAPE   O1315229   3.066   2.063  11.074  0.2489 -0.2248 -0.6684
  140SAPE   O1415230   3.281   2.162  10.998 -0.0523  0.0280 -0.0603
  140SAPE   O1215231   3.175   1.960  10.892  0.0625  0.4378  0.2563
  140SAPE   O1115232   3.079   2.177  10.856  0.2965 -0.2493  0.5301
  140SAPE    C115233   3.034   2.110  10.736  0.9896 -0.2269 -0.4577
  140SAPE    HA15234   2.982   2.017  10.764 -1.1386  1.0612  0.0488
  140SAPE    HB15235   2.956   2.174  10.690  1.3162  0.6963  0.2303
  140SAPE    C215236   3.140   2.076  10.630 -0.6605  0.0792 -0.0685
  140SAPE    HS15237   3.227   2.027  10.679 -1.0687  0.1770  0.7714
  140SAPE   O2115238   3.186   2.198  10.577 -0.5908 -0.3603 -0.3688
  140SAPE   C2115239   3.309   2.199  10.530 -0.5350  0.6839  0.6939
  140SAPE   O2215240   3.384   2.103  10.522 -0.1792 -0.0596  0.9632
  140SAPE   C2215241   3.317   2.336  10.455  0.3418  0.3028  0.1620
  140SAPE   H2R15242   3.229   2.356  10.389  0.3163  1.0915  0.4152
  140SAPE   H2S15243   3.305   2.418  10.529  1.5790  0.0750  0.6323
  140SAPE    C315244   3.078   1.977  10.535  0.2708 -0.3644  0.7341
  140SAPE    HX15245   2.978   2.012  10.500  0.3060 -0.7341  0.2489
  140SAPE    HY15246   3.054   1.880  10.584 -1.4495  0.6781  2.0696
  140SAPE   O3115247   3.155   1.963  10.410  0.0305  0.1805  0.3980
  140SAPE   C3115248   3.237   1.870  10.412  0.0804 -0.2654 -0.0340
  140SAPE   O3215249   3.242   1.779  10.497  0.0037  0.3493  0.3258
  140SAPE   C3215250   3.335   1.881  10.300  0.3800  0.0094 -0.9027
  140SAPE   H2X15251   3.436   1.837  10.318  0.7936  1.8612  1.9918
  140SAPE   H2Y15252   3.355   1.991  10.296  1.3827 -0.1070  0.2301
  140SAPE   C2315253   3.451   2.345  10.372  0.0951 -0.5356  0.1039
  140SAPE   H3R15254   3.501   2.247  10.360  1.4278  0.0645  0.5524
  140SAPE   H3S15255   3.522   2.401  10.437 -0.7995  1.8615 -0.8656
  140SAPE   C2415256   3.429   2.414  10.240  0.0666  0.2928 -0.0831
  140SAPE   H4R15257   3.355   2.495  10.256  0.1282  0.5693 -1.1230
  140SAPE   H4S15258   3.392   2.334  10.173 -0.7334 -1.6651  2.5349
  140SAPE   C2515259   3.563   2.483  10.202  0.1842  0.0245 -0.0681
  140SAPE   H5R15260   3.589   2.572  10.261  0.3870  0.8444 -1.3716
  140SAPE   C2615261   3.640   2.450  10.095 -0.7418  0.4156  0.9144
  140SAPE   H6R15262   3.731   2.508  10.076 -2.2590  2.2852 -1.3711
  140SAPE   C2715263   3.610   2.357   9.981 -0.1952 -0.1456 -0.2565
  140SAPE   H7R15264   3.521   2.405   9.934 -0.0612  0.9810  0.5908
  140SAPE   H7S15265   3.570   2.265  10.030  0.3195  0.2340  0.9112
  140SAPE   C2815266   3.717   2.337   9.883  0.3561  0.2415 -0.7582
  140SAPE   H8R15267   3.767   2.239   9.890  0.6671  0.3842 -0.9496
  140SAPE   C2915268   3.752   2.413   9.787 -0.0951 -0.6844  0.1856
  140SAPE   H9R15269   3.835   2.375   9.725  0.1588  0.0751  0.0448
  140SAPE  C21015270   3.691   2.549   9.751 -0.6481 -0.4032  0.0814
  140SAPE  H10R15271   3.764   2.628   9.722 -1.1292  0.2346  0.5802
  140SAPE  H10S15272   3.641   2.589   9.841 -1.9410 -2.6927  0.4507
  140SAPE  C21115273   3.592   2.523   9.641 -0.0309  0.0735 -0.1269
  140SAPE  H11R15274   3.495   2.487   9.679  0.6593 -1.3851  0.3526
  140SAPE  C21215275   3.607   2.511   9.513 -0.9072 -0.5022  0.0550
  140SAPE  H12R15276   3.523   2.474   9.453  0.6616 -4.2376 -0.0768
  140SAPE  C21315277   3.733   2.535   9.433 -0.9055 -0.1200  0.4841
  140SAPE  H13R15278   3.783   2.438   9.410 -0.2593  0.2200  0.4195
  140SAPE  H13S15279   3.817   2.591   9.480 -0.8524  1.3139 -1.2036
  140SAPE  C21415280   3.699   2.608   9.304  0.1297 -0.0106  0.0098
  140SAPE  H14R15281   3.675   2.715   9.316  1.4806  0.2270  0.8254
  140SAPE  C21515282   3.722   2.557   9.179  1.2297  0.1549 -0.1491
  140SAPE  H15R15283   3.699   2.630   9.100  0.6394  0.4099  0.2487
  140SAPE  C21615284   3.768   2.425   9.132 -0.4929  0.3507 -0.3900
  140SAPE  H16R15285   3.753   2.363   9.223  0.8898 -0.8745 -0.9455
  140SAPE  H16S15286   3.877   2.435   9.111 -0.0694 -0.1739  1.4295
  140SAPE  C21715287   3.690   2.364   9.017  0.2789  0.4974  0.0167
  140SAPE  H17R15288   3.586   2.354   9.057  0.9406  0.6246  1.8566
  140SAPE  H17S15289   3.735   2.263   9.012 -1.6285 -0.3565 -1.0207
  140SAPE  C21815290   3.709   2.439   8.886  0.6370 -0.2737 -0.1711
  140SAPE  H18R15291   3.675   2.541   8.914  1.6422 -0.2894  1.2330
  140SAPE  H18S15292   3.640   2.395   8.811  0.6776 -0.5917 -0.0230
  140SAPE  C21915293   3.846   2.446   8.818 -0.5397  0.2717  0.3448
  140SAPE  H19R15294   3.882   2.341   8.819 -2.5502 -0.5075 -1.1943
  140SAPE  H19S15295   3.912   2.514   8.876 -0.7734  1.3708 -0.6450
  140SAPE  C22015296   3.831   2.498   8.676 -0.0693  0.4985 -0.1723
  140SAPE  H20R15297   3.924   2.465   8.625 -1.3649  0.4430 -2.6410
  140SAPE  H20S15298   3.824   2.609   8.664 -1.4783  0.4709  0.2367
  140SAPE  H20T15299   3.757   2.428   8.633  2.4034 -2.0935 -0.5219
  140SAPE   C3315300   3.289   1.824  10.166  0.9813 -0.0005 -0.8197
  140SAPE   H3X15301   3.285   1.713  10.171 -0.1361  0.0666  0.2820
  140SAPE   H3Y15302   3.374   1.835  10.096  0.4144  1.8212 -1.2786
  140SAPE   C3415303   3.165   1.883  10.098 -0.4251  0.7583 -0.0848
  140SAPE   H4X15304   3.069   1.857  10.147  0.1440  0.2849  0.7865
  140SAPE   H4Y15305   3.151   1.830  10.001 -1.3409  1.8467 -0.5824
  140SAPE   C3515306   3.181   2.031  10.069  0.3281  0.4485  0.0185
  140SAPE   H5X15307   3.181   2.088  10.164 -1.2566 -0.3049  0.5016
  140SAPE   H5Y15308   3.098   2.058  10.001  0.2234 -0.8175 -0.3913
  140SAPE   C3615309   3.302   2.070   9.983  0.1844  0.6538  0.1435
  140SAPE   H6X15310   3.387   2.023  10.037  0.1298  1.0382  0.5708
  140SAPE   H6Y15311   3.316   2.180   9.974  3.2491  0.2707 -0.5935
  140SAPE   C3715312   3.281   2.039   9.833  0.2932 -0.0462 -0.0001
  140SAPE   H7X15313   3.188   2.076   9.786  1.0692  3.1607  0.7204
  140SAPE   H7Y15314   3.275   1.928   9.831  0.2524 -0.0635  0.8072
  140SAPE   C3815315   3.398   2.090   9.744  0.4092  0.2924 -0.1158
  140SAPE   H8X15316   3.496   2.060   9.788  0.4031  1.7583  0.9373
  140SAPE   H8Y15317   3.392   2.201   9.748  0.4867  0.2471  1.8441
  140SAPE   C3915318   3.391   2.039   9.603 -0.6181  0.2304  0.0795
  140SAPE   H9X15319   3.297   2.076   9.557  0.6330 -0.2624 -3.1111
  140SAPE   H9Y15320   3.387   1.928   9.604  2.0639  0.0315 -1.2895
  140SAPE  C31015321   3.510   2.078   9.510  0.2582  0.0261 -0.3034
  140SAPE  H10X15322   3.611   2.065   9.554  0.2787 -0.4679 -0.4937
  140SAPE  H10Y15323   3.501   2.187   9.489 -1.2804  0.3279  1.5610
  140SAPE  C31115324   3.511   2.009   9.375 -0.4265 -0.5282 -0.4333
  140SAPE  H11X15325   3.409   2.022   9.334 -0.7718 -0.7694  0.3374
  140SAPE  H11Y15326   3.519   1.899   9.390 -1.0265 -0.3556  1.3915
  140SAPE  C31215327   3.622   2.061   9.272 -0.3580  0.1354 -0.9151
  140SAPE  H12X15328   3.722   2.043   9.319  0.7184  0.2171 -3.0614
  140SAPE  H12Y15329   3.610   2.171   9.262  1.8857  0.7173  1.5762
  140SAPE  C31315330   3.611   1.984   9.142  0.0459  0.3750  0.8003
  140SAPE  H13X15331   3.648   1.879   9.147  0.3066  0.2506 -1.9162
  140SAPE  H13Y15332   3.677   2.045   9.076 -2.0507  2.4739  0.5038
  140SAPE  C31415333   3.469   1.986   9.078  0.1089 -0.4214  0.0135
  140SAPE  H14X15334   3.414   2.081   9.094 -1.1925 -0.9594 -1.1201
  140SAPE  H14Y15335   3.411   1.918   9.145  1.3543 -0.3621  1.2080
  140SAPE  C31515336   3.467   1.947   8.936 -0.2853  0.3676  1.2185
  140SAPE  H15X15337   3.366   1.917   8.901  0.0745  1.1289 -0.6050
  140SAPE  H15Y15338   3.527   1.854   8.933 -1.4892 -0.4148 -0.7365
  140SAPE  C31615339   3.522   2.059   8.841 -0.6595  0.1050 -0.1605
  140SAPE  H16X15340   3.634   2.060   8.843 -0.6355 -1.2149  0.0045
  140SAPE  H16Y15341   3.498   2.164   8.870  2.2286  0.9589 -0.5007
  140SAPE  C31715342   3.491   2.043   8.687  0.1174 -0.4914 -0.3677
  140SAPE  H17X15343   3.380   2.038   8.687 -0.0254  1.5216 -1.3610
  140SAPE  H17Y15344   3.530   1.944   8.659  1.5552 -0.2784  0.7626
  140SAPE  C31815345   3.550   2.155   8.603 -0.0174 -0.0131  0.0212
  140SAPE  H18X15346   3.522   2.148   8.496  0.6844 -2.7168 -0.0688
  140SAPE  H18Y15347   3.658   2.165   8.630  0.1476 -0.5291 -0.4331
  140SAPE  H18Z15348   3.498   2.244   8.644 -1.3789 -0.2039 -1.2398
  141SAPE     N15349   2.152   0.594  11.223  0.0601 -0.4141 -0.2937
  141SAPE   HN115350   2.131   0.582  11.324 -0.4193 -0.7327 -0.4257
  141SAPE   HN215351   2.156   0.696  11.204  0.6463 -0.4265 -0.2544
  141SAPE   HN315352   2.079   0.552  11.162  0.0139 -1.7411  0.6204
  141SAPE   C1215353   2.286   0.554  11.186 -0.2336  0.4768  0.5839
  141SAPE  H12A15354   2.364   0.619  11.230  1.9174  0.4462 -2.8479
  141SAPE  H12B15355   2.296   0.573  11.077  0.2935  0.0422  0.5541
  141SAPE   C1115356   2.303   0.401  11.198 -0.2857 -0.3284  0.0701
  141SAPE  H11A15357   2.285   0.362  11.301 -0.2852 -2.1524 -0.5797
  141SAPE  H11B15358   2.413   0.384  11.190  0.1181  2.1066 -0.4666
  141SAPE     P15359   2.277   0.182  11.039 -0.4660 -0.0012  0.1413
  141SAPE   O1315360   2.375   0.131  11.137 -0.4135 -0.5612 -0.3128
  141SAPE   O1415361   2.155   0.095  11.009  0.0198  0.3679  0.2272
  141SAPE   O1215362   2.232   0.327  11.092  0.0146  0.2834  0.0452
  141SAPE   O1115363   2.349   0.218  10.906 -0.3651 -0.5097 -0.1221
  141SAPE    C115364   2.433   0.339  10.887  0.2234 -0.4074  0.5030
  141SAPE    HA15365   2.373   0.428  10.914  1.3680 -0.3155  3.0155
  141SAPE    HB15366   2.517   0.340  10.959  1.3234 -2.3130 -0.6543
  141SAPE    C215367   2.476   0.348  10.743  0.3962  0.0419  0.5051
  141SAPE    HS15368   2.501   0.454  10.720  2.1152 -0.4631 -0.1759
  141SAPE   O2115369   2.374   0.305  10.652  0.4215 -0.3816 -0.1543
  141SAPE   C2115370   2.255   0.358  10.679 -0.5958 -0.1314 -0.2577
  141SAPE   O2215371   2.233   0.471  10.729  0.4199  0.7589 -0.1049
  141SAPE   C2215372   2.153   0.265  10.615  0.2213 -0.3358  0.5318
  141SAPE   H2R15373   2.200   0.164  10.621  3.1178  0.8733 -0.4384
  141SAPE   H2S15374   2.057   0.268  10.673 -1.3002  1.8625 -1.8734
  141SAPE    C315375   2.609   0.282  10.696 -0.2693  0.3208 -0.2689
  141SAPE    HX15376   2.587   0.184  10.649  0.4591 -0.2230  0.5067
  141SAPE    HY15377   2.676   0.263  10.782  1.8673  0.4696 -1.7921
  141SAPE   O3115378   2.667   0.359  10.594  0.1529 -0.0518 -0.0618
  141SAPE   C3115379   2.802   0.322  10.576  0.2785 -0.3694  0.3182
  141SAPE   O3215380   2.844   0.232  10.639 -0.1873 -0.5231  0.4233
  141SAPE   C3215381   2.873   0.422  10.478  1.1285 -0.2133  0.5125
  141SAPE   H2X15382   2.848   0.525  10.512  1.3638 -0.4070  1.2698
  141SAPE   H2Y15383   2.817   0.405  10.383 -0.6637 -1.5733  1.7530
  141SAPE   C2315384   2.122   0.296  10.468 -0.6819  0.1109 -0.2979
  141SAPE   H3R15385   2.205   0.265  10.402 -0.8013 -2.1835  0.5478
  141SAPE   H3S15386   2.113   0.406  10.453 -1.2162  0.5280  2.5619
  141SAPE   C2415387   2.008   0.198  10.435  0.0592 -0.0984  0.1499
  141SAPE   H4R15388   1.956   0.239  10.345 -1.1155  2.2849  1.8078
  141SAPE   H4S15389   1.926   0.207  10.509 -0.6810  0.2448 -0.6919
  141SAPE   C2515390   2.058   0.058  10.429 -0.2121 -0.6751 -0.1050
  141SAPE   H5R15391   2.072   0.014  10.528 -0.2410  1.1624  0.7586
  141SAPE   C2615392   2.078  -0.012  10.315 -0.3276 -0.3764  0.3767
  141SAPE   H6R15393   2.117  -0.114  10.327  3.4050  0.7612 -0.8300
  141SAPE   C2715394   2.062   0.047  10.177 -0.4355  0.3848 -0.0865
  141SAPE   H7R15395   2.149   0.110  10.148  0.9895 -1.0343  0.9473
  141SAPE   H7S15396   1.971   0.107  10.153 -0.1459  1.6322  1.8071
  141SAPE   C2815397   2.071  -0.058  10.066 -0.3466  0.2230 -0.2544
  141SAPE   H8R15398   2.167  -0.111  10.052 -2.0717 -3.3443  0.2043
  141SAPE   C2915399   1.980  -0.082   9.970  0.1321  0.4161  0.1365
  141SAPE   H9R15400   2.003  -0.160   9.896 -0.5830  1.5090 -1.2724
  141SAPE  C21015401   1.850  -0.012   9.940 -0.1179 -0.3324 -0.6820
  141SAPE  H10R15402   1.857   0.055   9.852  2.6018  0.8793  0.3354
  141SAPE  H10S15403   1.822   0.056  10.023 -0.3822 -0.8440 -0.3494
  141SAPE  C21115404   1.740  -0.104   9.910 -0.6524 -0.1886 -0.3240
  141SAPE  H11R15405   1.697  -0.164   9.992  0.4113  0.5765  0.8445
  141SAPE  C21215406   1.680  -0.118   9.787  0.0534  0.0468 -0.9321
  141SAPE  H12R15407   1.601  -0.194   9.783 -0.6703  0.7852 -0.9115
  141SAPE  C21315408   1.714  -0.042   9.655 -0.6350  0.9409 -0.5050
  141SAPE  H13R15409   1.810  -0.086   9.623  0.1337  0.5081  2.1466
  141SAPE  H13S15410   1.741   0.065   9.670 -0.0311  0.9331 -1.4852
  141SAPE  C21415411   1.610  -0.070   9.552  0.1828  0.1702  0.2318
  141SAPE  H14R15412   1.553  -0.164   9.557  0.5779 -0.2346 -1.9868
  141SAPE  C21515413   1.578   0.003   9.443 -0.5710  0.9554 -0.3314
  141SAPE  H15R15414   1.491  -0.031   9.383  0.2102 -1.0461 -0.3796
  141SAPE  C21615415   1.637   0.131   9.395  0.3667 -0.1265  0.1339
  141SAPE  H16R15416   1.717   0.178   9.455  0.1273 -0.3865  0.6647
  141SAPE  H16S15417   1.568   0.215   9.370  2.2042  1.5137  0.3904
  141SAPE  C21715418   1.712   0.092   9.261 -1.1415  0.5713 -0.3703
  141SAPE  H17R15419   1.779   0.004   9.271 -2.4793 -0.5937 -1.1552
  141SAPE  H17S15420   1.761   0.185   9.226  2.0844 -0.2736  1.4933
  141SAPE  C21815421   1.624   0.054   9.141 -0.5220  0.4980 -0.2406
  141SAPE  H18R15422   1.557  -0.028   9.174 -0.8932  1.5200  1.6561
  141SAPE  H18S15423   1.693   0.014   9.064  0.4672 -0.5929  1.1436
  141SAPE  C21915424   1.531   0.169   9.084 -0.5260 -0.3674 -0.6612
  141SAPE  H19R15425   1.584   0.263   9.058 -1.7368  1.0232  1.6201
  141SAPE  H19S15426   1.451   0.195   9.156 -0.3622 -1.6809  0.0325
  141SAPE  C22015427   1.449   0.121   8.975  0.1344  0.4694  0.0333
  141SAPE  H20R15428   1.410   0.206   8.916  0.1926  0.2792 -0.2815
  141SAPE  H20S15429   1.367   0.051   9.003 -0.7095  0.9168 -1.2703
  141SAPE  H20T15430   1.515   0.066   8.905  0.1936 -0.4198  0.7553
  141SAPE   C3315431   3.022   0.401  10.463  0.2512 -1.0368  0.3788
  141SAPE   H3X15432   3.046   0.296  10.434 -0.8408 -1.5667  1.2873
  141SAPE   H3Y15433   3.073   0.418  10.560 -0.0821 -1.4502  0.6318
  141SAPE   C3415434   3.080   0.501  10.358  0.2214  0.8450  0.5060
  141SAPE   H4X15435   3.182   0.533  10.388  0.9978 -1.3544  0.3874
  141SAPE   H4Y15436   3.018   0.593  10.353 -0.6873  0.2390  0.2724
  141SAPE   C3515437   3.081   0.444  10.210 -0.3559 -0.3535 -0.5810
  141SAPE   H5X15438   2.973   0.427  10.189 -1.2190  0.1729  2.8523
  141SAPE   H5Y15439   3.136   0.347  10.212  2.5050  1.1660 -0.2542
  141SAPE   C3615440   3.151   0.538  10.123 -0.0605 -0.0765  0.9658
  141SAPE   H6X15441   3.256   0.552  10.156 -0.8341  0.1456  3.5549
  141SAPE   H6Y15442   3.102   0.637  10.114 -1.9615 -1.0587 -0.2649
  141SAPE   C3715443   3.158   0.494   9.977  0.0942  0.7801 -0.5930
  141SAPE   H7X15444   3.204   0.393   9.964 -0.7618  0.2779  0.1727
  141SAPE   H7Y15445   3.226   0.568   9.929  0.4606  1.2644  0.6265
  141SAPE   C3815446   3.015   0.517   9.915 -0.1206 -0.2905 -0.2484
  141SAPE   H8X15447   2.973   0.615   9.947 -1.3709 -0.4134 -1.4331
  141SAPE   H8Y15448   2.943   0.437   9.944  0.5801 -0.8925 -0.1457
  141SAPE   C3915449   3.020   0.517   9.761  0.5554  0.4589 -0.0803
  141SAPE   H9X15450   2.915   0.532   9.729  0.1241 -0.2807  0.9348
  141SAPE   H9Y15451   3.063   0.423   9.721  0.6286  1.2220 -1.8880
  141SAPE  C31015452   3.093   0.637   9.691  0.8150 -0.3433  0.1495
  141SAPE  H10X15453   3.200   0.630   9.721  0.6508 -1.1095  0.5962
  141SAPE  H10Y15454   3.039   0.726   9.732 -0.8604 -0.1443 -2.2780
  141SAPE  C31115455   3.062   0.654   9.535  0.0403  0.2513 -0.1328
  141SAPE  H11X15456   3.042   0.552   9.496 -1.9881  0.0726  1.2101
  141SAPE  H11Y15457   3.160   0.692   9.501 -0.6420  1.8821 -0.3512
  141SAPE  C31215458   2.948   0.743   9.494 -0.8908  0.9447  0.1035
  141SAPE  H12X15459   2.965   0.852   9.512  0.2731  1.1835 -2.1062
  141SAPE  H12Y15460   2.859   0.706   9.551 -0.5249 -1.0382 -0.5346
  141SAPE  C31315461   2.916   0.738   9.345  1.0122 -0.2523  0.6327
  141SAPE  H13X15462   3.008   0.752   9.286  2.0180 -3.4577  1.2183
  141SAPE  H13Y15463   2.847   0.824   9.334  3.4224  1.8603  1.3049
  141SAPE  C31415464   2.865   0.607   9.288  0.0714 -0.0534  0.7820
  141SAPE  H14X15465   2.944   0.529   9.290  1.6236  1.3547 -1.4979
  141SAPE  H14Y15466   2.854   0.629   9.180  1.5494  1.5976  0.9333
  141SAPE  C31515467   2.736   0.548   9.346 -0.3080  0.1443  0.1946
  141SAPE  H15X15468   2.753   0.510   9.449  2.3896 -2.2533 -0.9589
  141SAPE  H15Y15469   2.708   0.460   9.284  2.1357  0.0396 -0.8880
  141SAPE  C31615470   2.615   0.642   9.342  0.4217  0.4455 -0.5638
  141SAPE  H16X15471   2.607   0.666   9.234 -0.6617  2.1906 -0.1349
  141SAPE  H16Y15472   2.639   0.736   9.397 -0.3060 -0.5704  1.6064
  141SAPE  C31715473   2.485   0.573   9.393  0.8874 -0.8168  0.1087
  141SAPE  H17X15474   2.473   0.572   9.503  2.2344  2.5187  0.4147
  141SAPE  H17Y15475   2.482   0.470   9.353  0.8672 -2.0976  3.1243
  141SAPE  C31815476   2.356   0.647   9.358  0.0155  0.4064  0.3183
  141SAPE  H18X15477   2.327   0.638   9.251  0.8287  1.4953 -0.0177
  141SAPE  H18Y15478   2.372   0.756   9.373  1.4215  0.2758 -0.0063
  141SAPE  H18Z15479   2.274   0.619   9.426 -0.9899  2.3144 -0.0513
  142SAPE     N15480   4.390   1.734  10.891  0.3950  0.7317 -0.1706
  142SAPE   HN115481   4.412   1.731  10.790  0.5976  0.4804 -0.1173
  142SAPE   HN215482   4.294   1.773  10.887 -0.5463 -1.5118 -3.4017
  142SAPE   HN315483   4.462   1.797  10.932  2.0370  0.6033 -2.6490
  142SAPE   C1215484   4.408   1.591  10.949 -0.3979 -1.2706  0.7007
  142SAPE  H12A15485   4.517   1.581  10.968 -0.1025  1.0506  0.5037
  142SAPE  H12B15486   4.378   1.516  10.872  0.7307 -0.4513 -0.5816
  142SAPE   C1115487   4.346   1.578  11.089 -0.2310 -0.4070 -0.9286
  142SAPE  H11A15488   4.357   1.672  11.147 -1.5179  0.1310 -1.5322
  142SAPE  H11B15489   4.396   1.500  11.150 -0.8764 -0.5939 -0.6273
  142SAPE     P15490   4.139   1.423  11.087  0.0248 -0.7256 -0.2327
  142SAPE   O1315491   4.196   1.341  11.198 -0.8377 -0.1215 -0.5458
  142SAPE   O1415492   3.989   1.440  11.087 -0.4573  0.2675 -0.0820
  142SAPE   O1215493   4.203   1.568  11.089 -0.1347  0.0185  0.3859
  142SAPE   O1115494   4.195   1.378  10.947 -0.3559  0.2149  0.2354
  142SAPE    C115495   4.154   1.258  10.889  0.6648  0.3470  0.1325
  142SAPE    HA15496   4.069   1.212  10.943  0.9185  0.9850  1.1066
  142SAPE    HB15497   4.127   1.286  10.784  0.5064  0.6411  0.2518
  142SAPE    C215498   4.269   1.153  10.883 -1.0374  0.6875 -0.0178
  142SAPE    HS15499   4.279   1.128  10.990 -1.5778  1.8899  0.3328
  142SAPE   O2115500   4.389   1.203  10.822  0.7821 -0.1286  1.0213
  142SAPE   C2115501   4.496   1.137  10.845 -0.3136 -0.2269 -0.1512
  142SAPE   O2215502   4.503   1.029  10.902  0.1137 -0.0874 -0.0044
  142SAPE   C2215503   4.612   1.198  10.764  0.8260  0.4923  0.4938
  142SAPE   H2R15504   4.580   1.169  10.661 -0.4930  1.5904  0.5637
  142SAPE   H2S15505   4.608   1.309  10.768 -0.1363  0.6057 -1.8084
  142SAPE    C315506   4.208   1.032  10.797  0.0540 -0.0827 -0.3007
  142SAPE    HX15507   4.114   1.004  10.848 -0.4217  1.4284 -0.2843
  142SAPE    HY15508   4.273   0.943  10.788 -3.3165 -3.0160  1.8927
  142SAPE   O3115509   4.162   1.087  10.672  0.2265 -0.6014 -0.4621
  142SAPE   C3115510   4.104   0.991  10.605 -0.9444 -0.2825 -0.0203
  142SAPE   O3215511   4.092   0.871  10.632  0.1781  0.2901  0.2610
  142SAPE   C3215512   4.052   1.050  10.472 -0.6818 -0.0647  0.7923
  142SAPE   H2X15513   4.124   1.127  10.436  0.0579 -1.8258 -1.8057
  142SAPE   H2Y15514   3.954   1.098  10.492 -1.4663 -1.3282  0.1179
  142SAPE   C2315515   4.751   1.140  10.796  0.0277  0.1618  0.5759
  142SAPE   H3R15516   4.765   1.033  10.767 -0.2492  0.0521  0.8419
  142SAPE   H3S15517   4.759   1.146  10.906 -1.2192  2.4130  0.6042
  142SAPE   C2415518   4.867   1.229  10.734 -0.6174 -0.3429  0.8314
  142SAPE   H4R15519   4.836   1.236  10.628  1.3641 -2.3447  0.0302
  142SAPE   H4S15520   4.963   1.172  10.738 -1.7258 -2.3099  0.7816
  142SAPE   C2515521   4.884   1.365  10.799  0.6685 -0.2503  0.2125
  142SAPE   H5R15522   4.918   1.358  10.903 -0.1847  0.2298  0.5457
  142SAPE   C2615523   4.864   1.485  10.742 -0.0327 -0.3893 -0.0165
  142SAPE   H6R15524   4.885   1.571  10.808  0.4427 -1.3104  1.0747
  142SAPE   C2715525   4.826   1.508  10.604 -0.6654 -0.2056  0.3339
  142SAPE   H7R15526   4.846   1.424  10.534  0.7922  1.9281 -1.9880
  142SAPE   H7S15527   4.886   1.583  10.548 -1.0002 -0.0052  0.2366
  142SAPE   C2815528   4.683   1.560  10.597  0.2357 -0.0680 -0.1659
  142SAPE   H8R15529   4.657   1.647  10.659  0.3739  0.0091 -0.2166
  142SAPE   C2915530   4.583   1.514  10.522  0.5868  0.0066 -0.5591
  142SAPE   H9R15531   4.487   1.564  10.543  0.0815 -0.7115 -1.0727
  142SAPE  C21015532   4.573   1.402  10.422  0.5053 -0.6367 -0.0408
  142SAPE  H10R15533   4.667   1.343  10.411  0.1899 -1.0469 -0.5881
  142SAPE  H10S15534   4.564   1.444  10.320 -0.3810  0.0413  0.3032
  142SAPE  C21115535   4.460   1.304  10.458  0.5304 -0.6086 -0.2725
  142SAPE  H11R15536   4.384   1.343  10.527  0.3359 -1.4924  0.0295
  142SAPE  C21215537   4.438   1.177  10.428  0.1526  0.7442  0.4263
  142SAPE  H12R15538   4.353   1.121  10.470  1.4023 -2.1300 -0.5944
  142SAPE  C21315539   4.525   1.094  10.339 -0.3887  0.2369  0.8742
  142SAPE  H13R15540   4.634   1.115  10.345 -0.2019 -0.2629 -0.4065
  142SAPE  H13S15541   4.495   1.134  10.240 -0.9644  3.7105  2.3277
  142SAPE  C21415542   4.497   0.946  10.355 -0.2093  0.8001  0.0403
  142SAPE  H14R15543   4.556   0.905  10.439 -0.3882 -0.9529 -0.6438
  142SAPE  C21515544   4.424   0.860  10.285  0.3999  0.5350 -0.2564
  142SAPE  H15R15545   4.410   0.758  10.323 -0.9657  0.7457 -0.1290
  142SAPE  C21615546   4.360   0.887  10.148 -0.1644  0.3938  0.1998
  142SAPE  H16R15547   4.365   0.987  10.100 -0.1375 -0.0834 -0.8176
  142SAPE  H16S15548   4.252   0.862  10.150 -0.0104 -0.9577 -3.0669
  142SAPE  C21715549   4.402   0.785  10.039  0.1896  0.2581  0.3863
  142SAPE  H17R15550   4.398   0.683  10.083  0.1939  0.1634  0.1695
  142SAPE  H17S15551   4.506   0.815  10.016  0.2605 -1.0419 -1.2431
  142SAPE  C21815552   4.306   0.800   9.923  0.0562  0.1268  0.6286
  142SAPE  H18R15553   4.314   0.899   9.874 -1.5784 -0.8068 -1.6973
  142SAPE  H18S15554   4.207   0.774   9.967 -0.4289  1.1436  0.1583
  142SAPE  C21915555   4.344   0.698   9.811  0.6067 -0.0111  0.0297
  142SAPE  H19R15556   4.341   0.597   9.858 -1.0501 -0.6410 -1.3283
  142SAPE  H19S15557   4.450   0.722   9.789 -0.0871  2.2206 -1.1755
  142SAPE  C22015558   4.251   0.711   9.696 -0.5803  0.2583 -0.2899
  142SAPE  H20R15559   4.150   0.674   9.724  0.0883 -0.7223  0.8874
  142SAPE  H20S15560   4.287   0.656   9.606 -0.6824 -0.1992 -0.0527
  142SAPE  H20T15561   4.241   0.818   9.669  1.2508  0.4286 -0.4248
  142SAPE   C3315562   4.034   0.938  10.366  0.4370 -0.2045 -0.9839
  142SAPE   H3X15563   3.951   0.870  10.395 -0.8309  1.9246  0.6821
  142SAPE   H3Y15564   4.127   0.879  10.348  1.6440  1.0203  0.9350
  142SAPE   C3415565   3.996   1.002  10.228 -0.0779  0.5595  0.3187
  142SAPE   H4X15566   4.080   1.058  10.181 -0.1710  0.2320 -0.2394
  142SAPE   H4Y15567   3.930   1.089  10.247  0.0253  0.7774 -0.2960
  142SAPE   C3515568   3.935   0.915  10.118 -0.0093  0.0307  0.6979
  142SAPE   H5X15569   3.829   0.891  10.142 -0.9889  0.8271 -2.3105
  142SAPE   H5Y15570   4.001   0.827  10.101  1.1982  0.9302  0.6324
  142SAPE   C3615571   3.932   0.990   9.980  0.0153 -0.4088  0.8775
  142SAPE   H6X15572   4.035   1.031   9.970 -1.1040  2.5623  0.4298
  142SAPE   H6Y15573   3.870   1.081   9.995 -0.3491 -0.3287 -0.8812
  142SAPE   C3715574   3.897   0.908   9.853 -0.1549 -0.5260 -0.2983
  142SAPE   H7X15575   3.789   0.884   9.846 -0.4564  1.1150 -2.3399
  142SAPE   H7Y15576   3.955   0.813   9.850 -0.3499 -0.6349 -0.7457
  142SAPE   C3815577   3.947   0.990   9.736  0.2274 -0.0364 -0.0424
  142SAPE   H8X15578   4.055   1.010   9.743  0.0937  0.9712 -0.7138
  142SAPE   H8Y15579   3.919   1.096   9.752  0.5556 -0.0162  0.4238
  142SAPE   C3915580   3.882   0.940   9.610  0.7176 -0.1621 -0.5744
  142SAPE   H9X15581   3.777   0.977   9.610  1.2563  1.4715 -1.3600
  142SAPE   H9Y15582   3.880   0.829   9.612  0.7346 -0.2138  2.9998
  142SAPE  C31015583   3.949   1.000   9.486 -0.0387 -0.1511 -0.0367
  142SAPE  H10X15584   4.056   0.969   9.478  0.5045  1.2483  1.2452
  142SAPE  H10Y15585   3.945   1.111   9.486  0.1073 -0.1296 -1.7059
  142SAPE  C31115586   3.871   0.949   9.359 -0.6576  0.2419 -0.3636
  142SAPE  H11X15587   3.764   0.979   9.358 -0.8046 -0.1188  1.4267
  142SAPE  H11Y15588   3.889   0.840   9.368 -1.5303  0.1741  0.7574
  142SAPE  C31215589   3.940   1.000   9.231  1.0195  1.0599 -0.6138
  142SAPE  H12X15590   4.047   0.970   9.229  0.6830 -0.2460  0.0694
  142SAPE  H12Y15591   3.936   1.111   9.232 -1.5714  1.0389  0.0247
  142SAPE  C31315592   3.870   0.953   9.108 -0.6122 -0.2837 -0.7613
  142SAPE  H13X15593   3.773   1.007   9.099 -2.0544 -2.2131  1.8597
  142SAPE  H13Y15594   3.850   0.847   9.131  0.5493 -0.2013  0.8051
  142SAPE  C31415595   3.953   0.978   8.983 -0.3363 -0.1227  0.6261
  142SAPE  H14X15596   4.053   0.931   8.994  1.8262  3.7186 -0.7698
  142SAPE  H14Y15597   3.976   1.086   8.979  3.5710 -0.8466  0.2698
  142SAPE  C31515598   3.896   0.914   8.855  0.3357  0.0775 -0.7165
  142SAPE  H15X15599   3.868   0.809   8.878  1.2168  0.2118  1.1389
  142SAPE  H15Y15600   3.989   0.921   8.795  0.7589 -1.0563 -0.2120
  142SAPE  C31615601   3.791   1.000   8.781 -0.4634  0.1537  0.6631
  142SAPE  H16X15602   3.814   1.108   8.787 -1.1013  0.2506  1.5466
  142SAPE  H16Y15603   3.701   0.971   8.839  0.4824 -1.6754  1.3254
  142SAPE  C31715604   3.775   0.959   8.640 -0.0622 -0.2283  0.7869
  142SAPE  H17X15605   3.716   0.867   8.618  2.8135 -1.4521 -2.7964
  142SAPE  H17Y15606   3.872   0.930   8.594 -0.0559 -2.5227  2.1031
  142SAPE  C31815607   3.721   1.070   8.559  0.6110  0.2949 -0.4775
  142SAPE  H18X15608   3.778   1.165   8.568 -0.2521  0.6286  2.8085
  142SAPE  H18Y15609   3.616   1.090   8.590  0.4125 -2.2762  0.7923
  142SAPE  H18Z15610   3.711   1.042   8.452  0.1811  0.0493 -0.3720
  143SAPE     N15611   6.394   1.584  11.508 -0.4914 -0.5013  0.0183
  143SAPE   HN115612   6.350   1.671  11.544  1.3700 -0.7245  3.1213
  143SAPE   HN215613   6.317   1.514  11.518 -1.9130  1.2812  2.4044
  143SAPE   HN315614   6.471   1.546  11.567  1.3844  1.1339 -1.2433
  143SAPE   C1215615   6.441   1.597  11.364  0.0272  0.2344  0.5729
  143SAPE  H12A15616   6.506   1.509  11.347  1.1135  1.1433 -0.1126
  143SAPE  H12B15617   6.489   1.697  11.366 -3.0007  1.8227 -0.5932
  143SAPE   C1115618   6.331   1.603  11.263  0.9618  1.1057  0.0691
  143SAPE  H11A15619   6.266   1.687  11.297  0.6685  1.3458 -1.0346
  143SAPE  H11B15620   6.270   1.510  11.264  0.9694  1.0414 -1.6239
  143SAPE     P15621   6.392   1.752  11.053 -0.4184 -0.5726 -0.3937
  143SAPE   O1315622   6.277   1.844  11.090  0.7228 -0.2015  0.2327
  143SAPE   O1415623   6.530   1.798  11.079  0.0301 -0.4557 -0.0755
  143SAPE   O1215624   6.381   1.618  11.133 -0.5405 -0.0218  0.0735
  143SAPE   O1115625   6.378   1.703  10.908 -0.0460 -0.4919  0.2022
  143SAPE    C115626   6.255   1.657  10.847  0.4888 -0.1343 -0.1247
  143SAPE    HA15627   6.261   1.546  10.852  0.7525 -0.2115 -1.6945
  143SAPE    HB15628   6.167   1.688  10.907 -0.2719 -1.3792 -0.5483
  143SAPE    C215629   6.241   1.699  10.699  0.5716 -0.0613 -0.6748
  143SAPE    HS15630   6.151   1.653  10.654 -0.0324  1.6760 -1.3318
  143SAPE   O2115631   6.362   1.657  10.630  0.3717  0.2976 -0.1040
  143SAPE   C2115632   6.366   1.528  10.601  0.2207  0.0113 -0.2139
  143SAPE   O2215633   6.274   1.452  10.630 -0.1132 -0.7960 -0.5069
  143SAPE   C2215634   6.497   1.484  10.537 -0.0234  0.2537 -0.2201
  143SAPE   H2R15635   6.581   1.520  10.600 -0.5116  0.8112  0.1250
  143SAPE   H2S15636   6.494   1.373  10.538 -0.5075  0.0736  4.7244
  143SAPE    C315637   6.214   1.858  10.690 -0.6712  0.4501 -0.0522
  143SAPE    HX15638   6.295   1.903  10.752 -0.8517  0.0032  0.5143
  143SAPE    HY15639   6.119   1.874  10.745  0.0146 -0.8509  1.6294
  143SAPE   O3115640   6.216   1.907  10.553 -0.3210  0.2951  0.0630
  143SAPE   C3115641   6.164   2.026  10.529  0.5084 -0.1782 -0.7090
  143SAPE   O3215642   6.133   2.106  10.616  0.3794 -0.2473 -0.0407
  143SAPE   C3215643   6.148   2.048  10.377 -0.1984 -0.2175 -0.0847
  143SAPE   H2X15644   6.106   2.149  10.359  1.3221  0.3357 -0.7472
  143SAPE   H2Y15645   6.066   1.983  10.339 -1.2837  0.8951  0.3164
  143SAPE   C2315646   6.516   1.545  10.398  0.6200  0.5075  0.2494
  143SAPE   H3R15647   6.602   1.494  10.350 -1.0387 -1.3870 -0.8737
  143SAPE   H3S15648   6.554   1.646  10.426  1.5926 -0.1568  1.3993
  143SAPE   C2415649   6.391   1.553  10.304  0.3071 -0.3341  0.1953
  143SAPE   H4R15650   6.299   1.565  10.366 -1.3698  0.9733 -2.3499
  143SAPE   H4S15651   6.385   1.456  10.250 -1.1274 -0.3052  0.2561
  143SAPE   C2515652   6.401   1.666  10.215 -0.2094  0.0840  0.5345
  143SAPE   H5R15653   6.335   1.751  10.240  0.7866  1.1114 -0.2507
  143SAPE   C2615654   6.470   1.662  10.099 -0.3949 -0.1442 -0.3290
  143SAPE   H6R15655   6.453   1.741  10.024 -0.7460 -0.4915 -0.6184
  143SAPE   C2715656   6.550   1.547  10.040  0.3770 -0.3603  0.2931
  143SAPE   H7R15657   6.613   1.485  10.108 -2.0102  0.4136  3.4542
  143SAPE   H7S15658   6.625   1.588   9.969 -1.1846  1.9804 -0.1113
  143SAPE   C2815659   6.462   1.452   9.967  0.1748 -0.3486  0.0308
  143SAPE   H8R15660   6.394   1.391  10.027  1.7594 -0.0819  2.2388
  143SAPE   C2915661   6.462   1.438   9.831 -0.8375  0.9836 -0.7593
  143SAPE   H9R15662   6.393   1.359   9.797  0.0011  0.4254 -1.2035
  143SAPE  C21015663   6.540   1.498   9.719 -0.8884  1.0533  0.4182
  143SAPE  H10R15664   6.596   1.420   9.663 -1.9394 -0.1721  1.0115
  143SAPE  H10S15665   6.617   1.569   9.756 -0.0688  0.2251  0.3535
  143SAPE  C21115666   6.451   1.570   9.621 -0.1401 -0.4597  0.2966
  143SAPE  H11R15667   6.406   1.663   9.660  0.4438  0.8868 -2.0234
  143SAPE  C21215668   6.423   1.541   9.486 -0.7019 -0.0747 -0.7386
  143SAPE  H12R15669   6.343   1.598   9.436  0.7996  1.7087 -1.2036
  143SAPE  C21315670   6.481   1.439   9.400  0.6848  0.2239  0.3428
  143SAPE  H13R15671   6.575   1.392   9.437 -0.0590 -0.9936  0.7803
  143SAPE  H13S15672   6.505   1.478   9.299  1.5780 -1.5619 -0.1853
  143SAPE  C21415673   6.387   1.326   9.399  0.0872  0.9842 -0.0268
  143SAPE  H14R15674   6.379   1.263   9.489 -0.4782  1.3087  0.1533
  143SAPE  C21515675   6.320   1.294   9.291  0.0406  0.3153 -0.5071
  143SAPE  H15R15676   6.250   1.210   9.285 -2.1507  2.1204 -1.5917
  143SAPE  C21615677   6.328   1.357   9.160  0.7249 -0.1546 -0.5323
  143SAPE  H16R15678   6.371   1.459   9.147 -0.7738  0.6744  0.6248
  143SAPE  H16S15679   6.225   1.353   9.118  0.7156 -0.9829 -0.4539
  143SAPE  C21715680   6.414   1.271   9.060  0.7225 -0.9773 -1.0287
  143SAPE  H17R15681   6.509   1.270   9.117 -0.1575  0.3513  0.5718
  143SAPE  H17S15682   6.420   1.331   8.966  1.6287  1.0617  0.2480
  143SAPE  C21815683   6.383   1.119   9.038 -0.0923  0.5952  0.7701
  143SAPE  H18R15684   6.289   1.110   8.979 -0.3932  2.0653  0.9861
  143SAPE  H18S15685   6.346   1.086   9.137 -4.1936 -1.3559 -1.1693
  143SAPE  C21915686   6.497   1.033   8.980 -0.3076 -0.4345  0.2748
  143SAPE  H19R15687   6.559   1.027   9.072 -0.7681 -1.1168  0.5455
  143SAPE  H19S15688   6.551   1.081   8.895  0.1975 -2.3390 -0.5349
  143SAPE  C22015689   6.453   0.884   8.949  0.3204 -0.0030 -0.2331
  143SAPE  H20R15690   6.375   0.883   8.869 -0.2521  0.0365  0.3139
  143SAPE  H20S15691   6.411   0.838   9.042  1.3341 -2.5020 -0.9121
  143SAPE  H20T15692   6.540   0.823   8.915  1.6764  1.3435  0.7069
  143SAPE   C3315693   6.275   2.032  10.295 -0.8018  0.2073  0.0809
  143SAPE   H3X15694   6.330   1.940  10.325 -0.3802  0.5706  0.4321
  143SAPE   H3Y15695   6.342   2.117  10.317 -0.7200  0.9297 -2.6412
  143SAPE   C3415696   6.256   2.029  10.146 -0.7899  0.9557  0.7253
  143SAPE   H4X15697   6.197   2.117  10.113 -0.9648  0.2223 -1.0162
  143SAPE   H4Y15698   6.195   1.951  10.097 -0.3274  0.4435  0.9471
  143SAPE   C3515699   6.392   2.034  10.072  0.0714 -0.1357  0.2594
  143SAPE   H5X15700   6.455   1.947  10.099 -0.8282 -0.1721  2.4310
  143SAPE   H5Y15701   6.443   2.129  10.099 -1.1903  0.6166  0.1017
  143SAPE   C3615702   6.377   2.022   9.913 -0.3004  0.1710 -0.5246
  143SAPE   H6X15703   6.361   1.915   9.887 -0.6845  0.2288 -0.5397
  143SAPE   H6Y15704   6.474   2.041   9.863 -0.0745  2.3686  0.6392
  143SAPE   C3715705   6.263   2.101   9.844 -0.1756  0.4870  0.5616
  143SAPE   H7X15706   6.262   2.211   9.858  0.5804  0.8259 -1.7091
  143SAPE   H7Y15707   6.164   2.057   9.869 -0.1346 -1.4566 -2.1853
  143SAPE   C3815708   6.265   2.075   9.692  0.3666 -0.3184 -0.2005
  143SAPE   H8X15709   6.171   2.102   9.641  0.7993  3.4967  0.7292
  143SAPE   H8Y15710   6.281   1.965   9.699  0.3865 -0.2464  1.4147
  143SAPE   C3915711   6.378   2.149   9.619 -0.4607 -0.3866  0.5147
  143SAPE   H9X15712   6.470   2.150   9.682  0.9212 -1.4394 -1.3730
  143SAPE   H9Y15713   6.361   2.258   9.611  1.2360 -0.1641 -0.3943
  143SAPE  C31015714   6.415   2.090   9.477  0.0698 -0.8952 -0.2806
  143SAPE  H10X15715   6.489   2.156   9.427  0.8840  1.2712  3.4203
  143SAPE  H10Y15716   6.321   2.081   9.419 -1.5246 -0.1958  2.0726
  143SAPE  C31115717   6.488   1.955   9.493 -0.3618 -0.4862  0.2043
  143SAPE  H11X15718   6.456   1.901   9.585  1.4457  1.3723  2.0270
  143SAPE  H11Y15719   6.596   1.977   9.506 -0.5943  1.4739 -0.8834
  143SAPE  C31215720   6.469   1.858   9.371  0.1991  0.0838  0.0121
  143SAPE  H12X15721   6.366   1.818   9.367 -0.5521  1.9453  0.1124
  143SAPE  H12Y15722   6.535   1.773   9.399 -0.5990 -1.0835 -1.4776
  143SAPE  C31315723   6.498   1.913   9.228 -0.1012  0.2322  0.0884
  143SAPE  H13X15724   6.599   1.958   9.232 -0.3636  0.8283  0.1365
  143SAPE  H13Y15725   6.423   1.993   9.210 -0.3160 -0.0193 -0.1612
  143SAPE  C31415726   6.483   1.812   9.115 -0.1743 -0.4132  0.1541
  143SAPE  H14X15727   6.459   1.869   9.023  2.0161  2.1011  1.0002
  143SAPE  H14Y15728   6.390   1.756   9.140  0.1292  0.0580  2.6178
  143SAPE  C31515729   6.607   1.719   9.111  0.4677  0.0675  0.2022
  143SAPE  H15X15730   6.588   1.640   9.187  0.1096 -0.4041 -0.3694
  143SAPE  H15Y15731   6.701   1.771   9.138 -0.9900  4.3582 -2.1533
  143SAPE  C31615732   6.632   1.643   8.978  0.4911 -0.2198 -0.2520
  143SAPE  H16X15733   6.688   1.708   8.907 -0.5815 -0.5338 -1.4442
  143SAPE  H16Y15734   6.528   1.616   8.947  0.9409 -1.0532 -1.0751
  143SAPE  C31715735   6.724   1.522   8.999 -0.4833  0.4360 -0.7212
  143SAPE  H17X15736   6.682   1.458   9.080 -2.5029  1.4152 -0.9283
  143SAPE  H17Y15737   6.827   1.548   9.030 -1.4923  0.4800  3.1727
  143SAPE  C31815738   6.742   1.434   8.873  0.1183 -0.9532  0.5492
  143SAPE  H18X15739   6.655   1.367   8.858 -0.1891 -0.1609 -1.7647
  143SAPE  H18Y15740   6.833   1.371   8.885  1.8693  1.4877  1.0993
  143SAPE  H18Z15741   6.750   1.481   8.772 -0.9978  0.3175  1.0262
  144SAPE     N15742   0.526   4.035  10.926 -0.8560  0.2859  0.8044
  144SAPE   HN115743   0.560   3.989  11.013  3.2291 -4.6462 -2.7667
  144SAPE   HN215744   0.551   4.135  10.939  0.1902  0.2853 -0.8668
  144SAPE   HN315745   0.426   4.013  10.907 -0.6517 -2.2186  2.2304
  144SAPE   C1215746   0.611   3.969  10.814 -0.0456 -0.7330 -0.4862
  144SAPE  H12A15747   0.627   4.041  10.731 -1.9807  1.3760  0.8532
  144SAPE  H12B15748   0.553   3.883  10.774  0.6741 -0.6277 -1.8283
  144SAPE   C1115749   0.753   3.919  10.856 -0.3849  0.3405 -0.8407
  144SAPE  H11A15750   0.809   3.999  10.909 -1.2531 -1.0893  2.4833
  144SAPE  H11B15751   0.801   3.897  10.758 -1.4493  0.3332 -1.3772
  144SAPE     P15752   0.861   3.749  11.031  0.1467  0.1109  0.1602
  144SAPE   O1315753   0.849   3.843  11.144  0.2731  0.1545 -0.3348
  144SAPE   O1415754   0.840   3.607  11.063  0.4808  1.0254 -0.3781
  144SAPE   O1215755   0.750   3.800  10.933 -0.3065 -0.6412 -0.0161
  144SAPE   O1115756   0.994   3.764  10.952 -0.1732 -0.0310  0.3076
  144SAPE    C115757   1.013   3.692  10.831  0.2844  0.8938  0.5026
  144SAPE    HA15758   1.008   3.582  10.843  1.4381  0.8890  1.0831
  144SAPE    HB15759   0.924   3.712  10.767  0.2999 -0.3767  0.0605
  144SAPE    C215760   1.146   3.726  10.754  0.2135 -0.2558 -0.3755
  144SAPE    HS15761   1.219   3.703  10.835 -0.5218 -1.3479  0.0029
  144SAPE   O2115762   1.146   3.864  10.717 -0.6206 -0.3659  0.4293
  144SAPE   C2115763   1.260   3.921  10.695 -0.4546 -0.3375 -0.4758
  144SAPE   O2215764   1.369   3.873  10.724  0.5732 -0.2992  0.0110
  144SAPE   C2215765   1.240   4.056  10.625 -0.7448  0.0584  0.0763
  144SAPE   H2R15766   1.166   4.122  10.674 -0.9576  0.2404 -0.4880
  144SAPE   H2S15767   1.337   4.110  10.634 -0.7166 -0.1613  1.2869
  144SAPE    C315768   1.177   3.624  10.645  0.2663 -0.8142  0.5359
  144SAPE    HX15769   1.175   3.521  10.688  2.8775 -0.6079  1.2949
  144SAPE    HY15770   1.279   3.636  10.604 -0.7136  2.0310 -1.3577
  144SAPE   O3115771   1.068   3.624  10.547 -0.1984 -0.0452  0.3417
  144SAPE   C3115772   1.093   3.696  10.434  0.2141 -0.8835  0.1421
  144SAPE   O3215773   1.203   3.733  10.404 -0.4268 -0.2530  0.0438
  144SAPE   C3215774   0.979   3.717  10.344  0.5553  0.5622 -0.1580
  144SAPE   H2X15775   0.893   3.759  10.400 -0.8433 -1.6069 -0.5416
  144SAPE   H2Y15776   0.941   3.614  10.323  0.9018  0.7785 -2.0490
  144SAPE   C2315777   1.196   4.042  10.474 -0.4191  0.1947 -0.6230
  144SAPE   H3R15778   1.113   3.970  10.456 -0.4499 -0.1531  0.7601
  144SAPE   H3S15779   1.283   4.011  10.412  0.8412  0.1223  1.1230
  144SAPE   C2415780   1.162   4.179  10.421 -0.9135 -0.2828 -0.1193
  144SAPE   H4R15781   1.093   4.217  10.499 -0.4311  0.5038 -0.0619
  144SAPE   H4S15782   1.095   4.181  10.332  0.8433  0.6183 -1.4977
  144SAPE   C2515783   1.274   4.278  10.400  0.0619 -0.6095 -0.1528
  144SAPE   H5R15784   1.364   4.273  10.462 -0.0714 -0.6260  0.0415
  144SAPE   C2615785   1.277   4.366  10.299 -0.2097 -0.5051  0.3804
  144SAPE   H6R15786   1.371   4.423  10.301 -0.3694 -0.2600  2.0030
  144SAPE   C2715787   1.176   4.407  10.192 -0.6027  0.2968 -0.2277
  144SAPE   H7R15788   1.215   4.492  10.133  1.5762 -1.5783 -1.6657
  144SAPE   H7S15789   1.079   4.428  10.242 -0.4244 -0.1264  0.3123
  144SAPE   C2815790   1.152   4.296  10.093 -0.1352 -0.2361 -0.3903
  144SAPE   H8R15791   1.151   4.195  10.136  0.9467  0.3504  1.0840
  144SAPE   C2915792   1.143   4.311   9.961  0.1383  0.2471 -0.2239
  144SAPE   H9R15793   1.119   4.222   9.900 -2.8358  1.7348 -1.4161
  144SAPE  C21015794   1.140   4.441   9.889  0.3166  0.1609  0.2787
  144SAPE  H10R15795   1.103   4.528   9.947 -0.0727  0.1135  0.1083
  144SAPE  H10S15796   1.066   4.439   9.806 -0.2567  2.0715  0.6897
  144SAPE  C21115797   1.279   4.476   9.842 -0.5843  0.3722 -0.0266
  144SAPE  H11R15798   1.354   4.511   9.914  0.5201  0.4996 -1.1925
  144SAPE  C21215799   1.325   4.456   9.713 -0.4204  0.1470 -0.9922
  144SAPE  H12R15800   1.428   4.483   9.686 -0.2765 -1.1515 -1.8218
  144SAPE  C21315801   1.244   4.387   9.609 -0.4107 -1.0504  0.5110
  144SAPE  H13R15802   1.294   4.398   9.510 -0.4639 -2.9827  0.2429
  144SAPE  H13S15803   1.147   4.438   9.594  0.2138 -0.6046 -2.6078
  144SAPE  C21415804   1.198   4.245   9.614 -0.1227  0.0557 -0.3573
  144SAPE  H14R15805   1.194   4.196   9.712 -4.1736 -2.6028 -1.6177
  144SAPE  C21515806   1.167   4.169   9.510 -0.0955 -0.2473 -0.0461
  144SAPE  H15R15807   1.105   4.081   9.531 -1.5741  0.6014 -0.7113
  144SAPE  C21615808   1.173   4.209   9.364 -0.2621 -0.5657 -0.8892
  144SAPE  H16R15809   1.194   4.116   9.307  0.7941 -0.1507 -1.1851
  144SAPE  H16S15810   1.253   4.282   9.343 -0.2639  0.1234  1.2511
  144SAPE  C21715811   1.036   4.258   9.310  0.0052 -0.1045  0.4554
  144SAPE  H17R15812   0.980   4.330   9.373  1.0960  2.2100 -1.1053
  144SAPE  H17S15813   0.971   4.171   9.285  0.1772  0.2316 -1.2949
  144SAPE  C21815814   1.050   4.345   9.185  0.1218 -0.1515 -0.1436
  144SAPE  H18R15815   0.946   4.367   9.153  0.7191  0.8401 -1.4903
  144SAPE  H18S15816   1.107   4.284   9.112 -1.2517 -1.8360  0.1403
  144SAPE  C21915817   1.123   4.480   9.196  0.3638  1.0320  1.2841
  144SAPE  H19R15818   1.223   4.475   9.244  1.0860 -0.7220 -0.2324
  144SAPE  H19S15819   1.067   4.546   9.265 -0.3647  1.6776  0.1140
  144SAPE  C22015820   1.129   4.547   9.059  0.2159 -0.2394 -0.2490
  144SAPE  H20R15821   1.035   4.523   9.006  1.0817  0.0720 -1.9869
  144SAPE  H20S15822   1.211   4.496   9.002  0.3131 -2.4283  1.6778
  144SAPE  H20T15823   1.136   4.655   9.080  0.3042 -0.7576  2.8320
  144SAPE   C3315824   1.010   3.781  10.212  0.1921  0.0416 -0.5359
  144SAPE   H3X15825   1.080   3.724  10.147  0.0160 -0.5141 -0.2377
  144SAPE   H3Y15826   1.048   3.884  10.231  0.3030 -0.4525  2.4738
  144SAPE   C3415827   0.890   3.797  10.119 -0.4582 -0.5477  0.0137
  144SAPE   H4X15828   0.835   3.887  10.153  1.0541  0.6721 -0.6507
  144SAPE   H4Y15829   0.829   3.704  10.119 -0.9355 -0.2365 -0.3817
  144SAPE   C3515830   0.927   3.828   9.969  0.2361  0.3380  0.6006
  144SAPE   H5X15831   0.973   3.735   9.927 -1.0933  0.4751 -1.2856
  144SAPE   H5Y15832   0.992   3.917   9.958 -0.4390  0.8893  1.0772
  144SAPE   C3615833   0.806   3.859   9.879  0.4202  0.0632  0.0744
  144SAPE   H6X15834   0.760   3.954   9.913  1.8312  1.3767 -1.5318
  144SAPE   H6Y15835   0.728   3.780   9.891 -1.1530  1.6382  0.6273
  144SAPE   C3715836   0.850   3.890   9.737  0.4575 -0.7600  0.2418
  144SAPE   H7X15837   0.930   3.821   9.703  1.4943 -0.5086  2.0594
  144SAPE   H7Y15838   0.898   3.990   9.734 -0.5513 -0.2459 -2.6740
  144SAPE   C3815839   0.725   3.898   9.645  0.1791  0.8233 -0.5924
  144SAPE   H8X15840   0.644   3.955   9.696 -1.4614 -0.5783 -1.5246
  144SAPE   H8Y15841   0.693   3.793   9.630  0.2055  0.7188  0.0452
  144SAPE   C3915842   0.758   3.974   9.510  0.4010 -0.0259  0.2866
  144SAPE   H9X15843   0.811   3.894   9.454  0.0934  0.0975 -0.1894
  144SAPE   H9Y15844   0.823   4.062   9.531  0.2698  0.1086  0.1411
  144SAPE  C31015845   0.636   4.030   9.427  0.8191 -0.8283  0.2015
  144SAPE  H10X15846   0.585   4.109   9.486 -1.8866 -3.7549  2.1065
  144SAPE  H10Y15847   0.565   3.945   9.425 -0.1515 -0.0954  1.6234
  144SAPE  C31115848   0.673   4.086   9.291 -0.4092 -0.7551  0.2668
  144SAPE  H11X15849   0.713   4.001   9.232  0.5646 -1.0945  1.3652
  144SAPE  H11Y15850   0.743   4.170   9.311 -1.2036  0.1064 -0.5090
  144SAPE  C31215851   0.549   4.144   9.221 -0.0434  0.2214  0.1952
  144SAPE  H12X15852   0.512   4.228   9.283  0.4144  1.2374 -0.8819
  144SAPE  H12Y15853   0.465   4.072   9.234  1.4602 -1.4675  1.0181
  144SAPE  C31315854   0.569   4.190   9.077 -0.4102 -0.6630  0.0174
  144SAPE  H13X15855   0.574   4.108   9.002  2.8799  0.1149 -0.7767
  144SAPE  H13Y15856   0.668   4.235   9.053 -0.7701 -0.0342 -0.3244
  144SAPE  C31415857   0.463   4.285   9.029 -0.2561 -0.4328 -0.2028
  144SAPE  H14X15858   0.481   4.391   9.058  0.0287 -0.5530  0.0749
  144SAPE  H14Y15859   0.366   4.276   9.082 -0.0141  1.4181  0.6521
  144SAPE  C31515860   0.435   4.281   8.874  0.0744 -0.3055  0.6124
  144SAPE  H15X15861   0.350   4.352   8.862  1.6565  1.7636  1.0788
  144SAPE  H15Y15862   0.391   4.181   8.857  0.1965 -0.0831 -1.2910
  144SAPE  C31615863   0.565   4.310   8.799 -0.1700 -0.1646 -0.4470
  144SAPE  H16X15864   0.553   4.303   8.689  0.8556  0.5776 -0.6183
  144SAPE  H16Y15865   0.644   4.240   8.833  0.1437  0.7245  0.7415
  144SAPE  C31715866   0.611   4.457   8.823  0.6170 -0.5304 -0.3731
  144SAPE  H17X15867   0.643   4.475   8.927 -0.2015  2.5432 -0.5608
  144SAPE  H17Y15868   0.520   4.518   8.804  0.2555 -1.5298 -2.0873
  144SAPE  C31815869   0.732   4.489   8.727 -0.3688 -0.0877 -0.8013
  144SAPE  H18X15870   0.833   4.459   8.764 -0.5170  1.9900  1.5471
  144SAPE  H18Y15871   0.739   4.599   8.719 -0.5438 -0.0184 -0.0918
  144SAPE  H18Z15872   0.717   4.452   8.624  1.7457 -1.5102 -0.6671
  145SAPE     N15873   5.232   0.303  11.507  0.4953 -0.4678  0.3626
  145SAPE   HN115874   5.213   0.296  11.405 -2.1565  3.0017  0.4473
  145SAPE   HN215875   5.210   0.214  11.557  1.5340 -1.3706 -0.7142
  145SAPE   HN315876   5.163   0.372  11.543  1.4280  0.4119  0.4922
  145SAPE   C1215877   5.367   0.351  11.550 -0.5033  0.0354  0.4150
  145SAPE  H12A15878   5.448   0.283  11.516  0.0647  1.1530 -0.5522
  145SAPE  H12B15879   5.377   0.351  11.661 -0.3851  2.5394  0.4592
  145SAPE   C1115880   5.395   0.491  11.494  0.7016  0.7834 -0.0855
  145SAPE  H11A15881   5.345   0.565  11.561 -1.6348 -0.8209  0.0581
  145SAPE  H11B15882   5.358   0.512  11.392  2.3388 -0.8348 -1.0769
  145SAPE     P15883   5.640   0.532  11.379 -0.3393  0.4256  0.1174
  145SAPE   O1315884   5.728   0.650  11.394  0.0408  0.1861  0.4424
  145SAPE   O1415885   5.710   0.403  11.365  0.0571 -0.1824  0.5202
  145SAPE   O1215886   5.539   0.520  11.501  0.4441 -0.4097  0.2573
  145SAPE   O1115887   5.559   0.554  11.255 -0.1727 -0.1808  0.2991
  145SAPE    C115888   5.480   0.674  11.222 -0.6241  1.1159 -0.2989
  145SAPE    HA15889   5.412   0.704  11.305 -0.8115 -5.0765  2.3431
  145SAPE    HB15890   5.549   0.761  11.215  1.4872 -0.6263 -3.6763
  145SAPE    C215891   5.407   0.663  11.082 -0.6321  0.2514 -0.3410
  145SAPE    HS15892   5.304   0.632  11.109  0.3608 -2.0653  1.1839
  145SAPE   O2115893   5.469   0.567  10.988 -0.7743 -0.7921  0.0214
  145SAPE   C2115894   5.453   0.437  11.015  0.0784  0.3203 -0.5691
  145SAPE   O2215895   5.377   0.382  11.098 -0.3223 -0.0018 -0.1757
  145SAPE   C2215896   5.536   0.349  10.919 -0.4649 -0.1005 -0.2718
  145SAPE   H2R15897   5.543   0.407  10.825 -1.2207  1.5376  0.6427
  145SAPE   H2S15898   5.638   0.343  10.962 -0.3787  1.4829 -0.1989
  145SAPE    C315899   5.403   0.798  11.012  0.2852 -0.2235  0.0031
  145SAPE    HX15900   5.506   0.839  11.016  0.2263 -0.0130 -0.4737
  145SAPE    HY15901   5.337   0.856  11.079  0.6137 -2.7009  2.6766
  145SAPE   O3115902   5.353   0.781  10.876 -0.2070 -0.4567  0.2960
  145SAPE   C3115903   5.436   0.777  10.778 -0.2070 -0.1307 -0.1020
  145SAPE   O3215904   5.558   0.765  10.785  0.3701  0.2430  0.6475
  145SAPE   C3215905   5.353   0.797  10.659  0.4320 -0.0016 -0.5034
  145SAPE   H2X15906   5.303   0.896  10.667 -1.3335 -1.0194  2.3775
  145SAPE   H2Y15907   5.278   0.717  10.650 -0.4123  0.9874 -3.3514
  145SAPE   C2315908   5.462   0.210  10.897 -0.1295 -0.0713 -0.7777
  145SAPE   H3R15909   5.450   0.158  10.994  0.3819 -0.3281 -0.8504
  145SAPE   H3S15910   5.527   0.143  10.837  0.4465  0.7027 -1.0347
  145SAPE   C2415911   5.325   0.226  10.829 -0.1089  0.1307 -0.6397
  145SAPE   H4R15912   5.264   0.293  10.893  0.2417 -0.3093  0.1694
  145SAPE   H4S15913   5.283   0.123  10.827  1.9987 -0.8489  1.2906
  145SAPE   C2515914   5.321   0.272  10.683  0.3756  0.4786  0.3198
  145SAPE   H5R15915   5.395   0.220  10.621  1.9880  1.6114  1.2228
  145SAPE   C2615916   5.247   0.368  10.625  0.4279 -0.6197 -0.1871
  145SAPE   H6R15917   5.257   0.383  10.516  1.8895  0.3825  0.0575
  145SAPE   C2715918   5.148   0.464  10.683  0.4916 -0.6328  0.4754
  145SAPE   H7R15919   5.120   0.535  10.601  0.0002 -1.3751 -0.0141
  145SAPE   H7S15920   5.213   0.532  10.742  0.4033 -1.0663  1.0770
  145SAPE   C2815921   5.034   0.433  10.771  0.0094 -0.3254 -0.3362
  145SAPE   H8R15922   5.025   0.336  10.821  2.1986  0.7136  2.2847
  145SAPE   C2915923   4.951   0.527  10.812  0.3387  0.1210 -0.1103
  145SAPE   H9R15924   4.873   0.496  10.884  0.9865 -0.0682  0.5278
  145SAPE  C21015925   4.949   0.674  10.786  0.1850 -0.1854 -0.6551
  145SAPE  H10R15926   5.046   0.722  10.761  1.0244 -1.3965  0.1568
  145SAPE  H10S15927   4.940   0.721  10.887  1.7103 -1.1052 -0.0717
  145SAPE  C21115928   4.829   0.726  10.704  0.1889  0.5661  0.3868
  145SAPE  H11R15929   4.733   0.695  10.747  0.6919  0.7905  1.7185
  145SAPE  C21215930   4.822   0.793  10.584  0.7839  0.0048 -0.6488
  145SAPE  H12R15931   4.726   0.825  10.541  0.2295 -0.3008  0.3372
  145SAPE  C21315932   4.939   0.827  10.499  0.2443 -0.6761 -0.5524
  145SAPE  H13R15933   4.955   0.742  10.429 -0.0455  0.6417 -2.2777
  145SAPE  H13S15934   5.036   0.826  10.553 -0.8360  1.8152  1.6864
  145SAPE  C21415935   4.910   0.962  10.426 -0.3235 -0.1041 -0.1870
  145SAPE  H14R15936   4.906   1.051  10.491  0.6383  0.8050 -1.3263
  145SAPE  C21515937   4.895   0.980  10.292  0.7464  0.0180 -0.2968
  145SAPE  H15R15938   4.863   1.078  10.255  0.0197 -0.1682 -0.1849
  145SAPE  C21615939   4.909   0.871  10.188  0.1378  0.0550  0.4307
  145SAPE  H16R15940   5.006   0.825  10.215  0.3040  0.4042  0.4391
  145SAPE  H16S15941   4.927   0.924  10.092  0.8880  1.8745  1.5288
  145SAPE  C21715942   4.803   0.758  10.164  0.5559  0.0394 -0.4392
  145SAPE  H17R15943   4.699   0.797  10.165 -1.1361 -3.9696  0.1078
  145SAPE  H17S15944   4.817   0.688  10.249  0.6058  1.5443  0.8400
  145SAPE  C21815945   4.822   0.688  10.026  0.3011  0.4913 -0.7661
  145SAPE  H18R15946   4.914   0.625  10.028  3.1059  4.2647  1.9370
  145SAPE  H18S15947   4.820   0.773   9.955 -0.8581  1.2384  0.1300
  145SAPE  C21915948   4.703   0.588  10.003  0.0496 -0.0933 -0.2531
  145SAPE  H19R15949   4.603   0.636  10.012  0.9683  1.6220  1.2175
  145SAPE  H19S15950   4.705   0.518  10.090 -2.7239 -0.2311 -0.2119
  145SAPE  C22015951   4.708   0.516   9.874 -0.2293 -0.1547  0.1660
  145SAPE  H20R15952   4.700   0.583   9.785 -2.3776  0.9187  1.1010
  145SAPE  H20S15953   4.614   0.459   9.855  0.2145 -1.5553  1.9221
  145SAPE  H20T15954   4.799   0.454   9.863  0.8644  1.3275  0.5883
  145SAPE   C3315955   5.420   0.795  10.521 -0.7617 -0.5649 -0.8456
  145SAPE   H3X15956   5.501   0.719  10.513  1.5164  1.0723  3.4623
  145SAPE   H3Y15957   5.472   0.894  10.522  1.1744 -1.5275 -0.9275
  145SAPE   C3415958   5.324   0.791  10.404  0.1200 -0.1587 -0.0948
  145SAPE   H4X15959   5.249   0.873  10.405  1.0021  0.6770 -0.8330
  145SAPE   H4Y15960   5.270   0.693  10.401 -1.3831  0.6519 -1.4597
  145SAPE   C3515961   5.408   0.789  10.270  0.2601  0.2417 -0.2750
  145SAPE   H5X15962   5.482   0.708  10.290 -0.1780 -0.5240 -1.6096
  145SAPE   H5Y15963   5.459   0.888  10.269  0.3893  0.1719 -1.7548
  145SAPE   C3615964   5.339   0.761  10.136  0.1697 -0.0689  0.2692
  145SAPE   H6X15965   5.422   0.784  10.066 -0.5340 -0.4234 -0.7122
  145SAPE   H6Y15966   5.251   0.826  10.115  1.1013  0.9313 -0.6128
  145SAPE   C3715967   5.286   0.617  10.108 -0.2705 -0.0306 -0.2088
  145SAPE   H7X15968   5.180   0.599  10.136  0.4577 -2.2730  1.4266
  145SAPE   H7Y15969   5.346   0.549  10.173  1.1598  0.6235 -0.8159
  145SAPE   C3815970   5.291   0.576   9.958  0.1293  0.4123 -0.4910
  145SAPE   H8X15971   5.277   0.465   9.952  2.0219  0.1339 -0.4153
  145SAPE   H8Y15972   5.395   0.599   9.926  0.3995  0.0728  0.1141
  145SAPE   C3915973   5.193   0.648   9.874 -0.3100 -0.5408 -0.0901
  145SAPE   H9X15974   5.181   0.753   9.908  0.4686 -0.9696  1.6454
  145SAPE   H9Y15975   5.092   0.602   9.882 -0.9254  0.7206 -0.3405
  145SAPE  C31015976   5.238   0.640   9.726  0.2455  0.3411 -0.0298
  145SAPE  H10X15977   5.267   0.536   9.703  0.9057  0.9980 -2.4495
  145SAPE  H10Y15978   5.329   0.700   9.707  0.6448 -0.2705 -0.0792
  145SAPE  C31115979   5.135   0.692   9.624  0.8218  0.8771 -0.2298
  145SAPE  H11X15980   5.102   0.794   9.651  0.3739  0.7190 -0.1617
  145SAPE  H11Y15981   5.045   0.627   9.627 -0.3705  2.4761 -0.3529
  145SAPE  C31215982   5.192   0.688   9.488 -0.5162  0.7594 -0.0622
  145SAPE  H12X15983   5.240   0.589   9.472 -1.3571  0.2283  0.6478
  145SAPE  H12Y15984   5.274   0.762   9.480 -0.9940  1.4177  0.9476
  145SAPE  C31315985   5.096   0.716   9.375 -0.8012  0.3045  0.0124
  145SAPE  H13X15986   5.064   0.821   9.358  0.0070  0.5597  0.0289
  145SAPE  H13Y15987   4.997   0.669   9.392 -0.4780 -1.0096 -1.5605
  145SAPE  C31415988   5.148   0.669   9.239 -0.1544  0.6968 -0.0912
  145SAPE  H14X15989   5.076   0.706   9.163 -0.0467  1.5074  0.1951
  145SAPE  H14Y15990   5.167   0.560   9.230  1.4453  0.7937  1.5083
  145SAPE  C31515991   5.285   0.737   9.196  0.4158 -0.6851  0.5462
  145SAPE  H15X15992   5.357   0.725   9.280 -0.9041  1.4817  2.1086
  145SAPE  H15Y15993   5.268   0.847   9.189  1.6745 -0.2047  3.4959
  145SAPE  C31615994   5.331   0.674   9.061  0.6017  0.4241  0.2987
  145SAPE  H16X15995   5.243   0.669   8.993 -0.2313  0.5917  1.3382
  145SAPE  H16Y15996   5.369   0.571   9.079  0.5805 -0.0370 -2.0170
  145SAPE  C31715997   5.438   0.762   8.991  0.6118 -0.3224  1.1437
  145SAPE  H17X15998   5.524   0.750   9.060  0.8344 -1.9158  0.6439
  145SAPE  H17Y15999   5.415   0.870   8.982  3.2113  0.4357  2.7453
  145SAPE  C31816000   5.471   0.703   8.859 -0.5024  0.6703  0.0151
  145SAPE  H18X16001   5.461   0.592   8.862 -1.8295  0.7660 -0.1775
  145SAPE  H18Y16002   5.571   0.719   8.814  0.5202  0.6691  2.1810
  145SAPE  H18Z16003   5.403   0.730   8.775 -0.8340 -1.7641 -0.5816
  146SAPE     N16004   3.800   5.963  11.079 -0.1573 -0.0173  0.2548
  146SAPE   HN116005   3.838   5.884  11.022 -1.7181  0.2305 -1.1849
  146SAPE   HN216006   3.847   5.971  11.172 -0.0184  0.3449  0.1531
  146SAPE   HN316007   3.698   5.951  11.090 -0.0836 -0.0153  1.0260
  146SAPE   C1216008   3.819   6.092  11.001 -0.1193  0.0609  0.2285
  146SAPE  H12A16009   3.901   6.080  10.928 -0.1336  1.1055  0.0296
  146SAPE  H12B16010   3.848   6.165  11.080 -2.3939  0.8601  0.4155
  146SAPE   C1116011   3.686   6.140  10.946 -0.3238  0.3614 -0.5661
  146SAPE  H11A16012   3.700   6.233  10.887  1.3134 -1.5043 -3.3324
  146SAPE  H11B16013   3.616   6.161  11.030  2.5101  1.5854  1.6511
  146SAPE     P16014   3.500   6.035  10.785 -0.4584 -0.2592  0.1380
  146SAPE   O1316015   3.470   5.896  10.758 -0.3862 -0.4546  1.0119
  146SAPE   O1416016   3.423   6.121  10.883 -0.5496  0.5820 -0.1105
  146SAPE   O1216017   3.646   6.036  10.853 -0.0635 -0.4864 -0.4913
  146SAPE   O1116018   3.519   6.111  10.655 -0.0101  0.6209  0.1468
  146SAPE    C116019   3.495   6.246  10.622 -0.3123 -0.9855 -0.3517
  146SAPE    HA16020   3.499   6.321  10.704 -1.2312 -1.6438  0.3219
  146SAPE    HB16021   3.566   6.297  10.554  0.0433  1.0558  1.4327
  146SAPE    C216022   3.354   6.260  10.565 -0.3420 -0.3941  0.5529
  146SAPE    HS16023   3.296   6.247  10.659 -0.0887 -1.7682  0.5420
  146SAPE   O2116024   3.330   6.155  10.465  0.1997  0.0343 -0.0147
  146SAPE   C2116025   3.206   6.145  10.425 -0.3257  0.1854  0.3385
  146SAPE   O2216026   3.111   6.181  10.491  0.2222  0.1532 -0.4820
  146SAPE   C2216027   3.204   6.076  10.287 -0.7781 -0.3938 -0.4767
  146SAPE   H2R16028   3.297   6.100  10.232 -0.4168 -0.4159  0.1179
  146SAPE   H2S16029   3.204   5.970  10.322  1.7248  0.0982  1.2720
  146SAPE    C316030   3.323   6.402  10.505 -0.5247 -0.7006  0.7018
  146SAPE    HX16031   3.340   6.481  10.581 -1.1656 -0.9502  1.1092
  146SAPE    HY16032   3.213   6.399  10.489 -0.9359 -2.8484  3.2841
  146SAPE   O3116033   3.398   6.438  10.388 -0.3200 -0.0131 -0.0860
  146SAPE   C3116034   3.505   6.517  10.393 -0.2157 -0.6172 -0.3008
  146SAPE   O3216035   3.568   6.546  10.490  0.1730 -0.5176 -0.2408
  146SAPE   C3216036   3.523   6.590  10.260 -0.2891  0.0626 -0.1888
  146SAPE   H2X16037   3.580   6.684  10.277  1.4272 -1.1925  1.5340
  146SAPE   H2Y16038   3.423   6.615  10.219  0.4360  0.2671 -1.9251
  146SAPE   C2316039   3.073   6.108  10.212  0.0768 -0.2449  0.3688
  146SAPE   H3R16040   3.057   6.217  10.192  0.9490 -0.5174 -2.1739
  146SAPE   H3S16041   2.990   6.074  10.276 -1.8165 -0.0327 -1.8293
  146SAPE   C2416042   3.057   6.048  10.077 -0.9095 -0.2585  0.1333
  146SAPE   H4R16043   3.086   5.941  10.079  0.3936  0.0772  0.5580
  146SAPE   H4S16044   3.137   6.094  10.015 -2.0742  0.3787 -0.9502
  146SAPE   C2516045   2.925   6.061  10.012  0.3813 -0.3840  0.3518
  146SAPE   H5R16046   2.847   6.118  10.064 -0.5427  1.3780 -2.6592
  146SAPE   C2616047   2.901   5.987   9.900  0.3937 -0.4308  0.1232
  146SAPE   H6R16048   2.797   5.985   9.866  0.5599 -1.9009 -0.3692
  146SAPE   C2716049   2.996   5.894   9.830 -0.6442  0.5640  0.1986
  146SAPE   H7R16050   3.105   5.911   9.845 -0.0366 -2.2974 -0.4766
  146SAPE   H7S16051   2.984   5.906   9.720  0.6499 -0.3344 -0.0608
  146SAPE   C2816052   2.973   5.754   9.879  0.5584  0.1787 -0.2326
  146SAPE   H8R16053   3.017   5.730   9.976  1.1932  0.8230 -0.3566
  146SAPE   C2916054   2.914   5.656   9.806 -0.0678 -1.0865  0.0521
  146SAPE   H9R16055   2.912   5.551   9.838 -1.7864 -1.0807  0.0808
  146SAPE  C21016056   2.848   5.679   9.671  0.4063  0.1022 -0.2057
  146SAPE  H10R16057   2.896   5.607   9.600  1.2939 -1.6707  2.0629
  146SAPE  H10S16058   2.861   5.786   9.645  0.6149  0.5272  1.5395
  146SAPE  C21116059   2.700   5.650   9.686 -0.8122 -0.4888 -0.6357
  146SAPE  H11R16060   2.639   5.719   9.746 -0.5954  0.0673 -1.0492
  146SAPE  C21216061   2.630   5.557   9.629 -0.6672  0.2259 -0.0949
  146SAPE  H12R16062   2.525   5.558   9.661  0.1369 -1.8516  3.0772
  146SAPE  C21316063   2.680   5.451   9.530 -0.5258 -0.2910 -0.6778
  146SAPE  H13R16064   2.623   5.357   9.546 -0.5916 -0.2735 -0.8068
  146SAPE  H13S16065   2.787   5.429   9.551 -0.3843  0.4022 -0.6677
  146SAPE  C21416066   2.665   5.503   9.391 -0.2419 -0.0549 -0.4800
  146SAPE  H14R16067   2.730   5.587   9.364 -0.2242  1.3743  3.4646
  146SAPE  C21516068   2.583   5.460   9.294 -0.5969  0.4138 -0.3971
  146SAPE  H15R16069   2.582   5.520   9.202  0.8386 -0.9057 -1.3437
  146SAPE  C21616070   2.480   5.350   9.313  0.1971  0.2440  0.3416
  146SAPE  H16R16071   2.381   5.376   9.270 -1.2222 -0.5163  2.9078
  146SAPE  H16S16072   2.454   5.342   9.421 -1.8995  2.1092  0.0618
  146SAPE  C21716073   2.526   5.219   9.254  0.0243 -0.6416 -0.1249
  146SAPE  H17R16074   2.479   5.131   9.302 -0.1258  0.4276  1.7589
  146SAPE  H17S16075   2.635   5.209   9.275  0.3151 -0.9413 -1.6316
  146SAPE  C21816076   2.510   5.218   9.098  0.1401 -0.3308  0.8879
  146SAPE  H18R16077   2.602   5.267   9.061 -1.2027  1.8900  0.3609
  146SAPE  H18S16078   2.422   5.276   9.065  1.2362  1.9641  1.7895
  146SAPE  C21916079   2.497   5.079   9.045  0.7332  0.1000  0.4583
  146SAPE  H19R16080   2.399   5.053   9.092 -0.0025  1.8835 -0.0154
  146SAPE  H19S16081   2.576   5.011   9.083  2.3189  2.2962  1.3205
  146SAPE  C22016082   2.474   5.061   8.897 -0.6091  0.2850  0.5137
  146SAPE  H20R16083   2.561   5.095   8.837 -0.7075  0.6994  0.6020
  146SAPE  H20S16084   2.383   5.102   8.849  0.3676  1.8108 -0.1230
  146SAPE  H20T16085   2.468   4.952   8.876 -0.9845  0.8332 -2.8042
  146SAPE   C3316086   3.584   6.508  10.144 -1.1133  0.4486  0.2042
  146SAPE   H3X16087   3.521   6.422  10.114  1.4549 -0.9126 -1.7167
  146SAPE   H3Y16088   3.680   6.463  10.177 -3.2178 -1.4626  4.5069
  146SAPE   C3416089   3.604   6.585  10.011 -0.1807  0.1443 -0.2622
  146SAPE   H4X16090   3.686   6.656  10.034  1.0037 -0.1684 -3.0375
  146SAPE   H4Y16091   3.517   6.650   9.988  0.1451  0.5811 -0.2562
  146SAPE   C3516092   3.656   6.487   9.912 -0.2461 -0.0101  0.3745
  146SAPE   H5X16093   3.578   6.421   9.868  0.9321 -0.6743 -0.8092
  146SAPE   H5Y16094   3.718   6.412   9.966 -2.3375 -1.1698  1.3171
  146SAPE   C3616095   3.743   6.562   9.804 -0.0249  0.1099 -0.3992
  146SAPE   H6X16096   3.795   6.484   9.744  0.0863 -1.4523  1.6223
  146SAPE   H6Y16097   3.823   6.625   9.848  0.7208 -0.6148 -0.6855
  146SAPE   C3716098   3.664   6.648   9.708  0.4662  0.3328  0.6319
  146SAPE   H7X16099   3.614   6.730   9.764 -1.6173  1.3781 -2.4869
  146SAPE   H7Y16100   3.594   6.577   9.659 -0.6178  0.7287  1.5747
  146SAPE   C3816101   3.757   6.712   9.597  0.1073  0.4956  0.7501
  146SAPE   H8X16102   3.824   6.630   9.563  0.1890  0.1657  1.6795
  146SAPE   H8Y16103   3.812   6.789   9.655 -0.1099  0.2193  1.3251
  146SAPE   C3916104   3.681   6.791   9.481  0.1065  0.2235 -0.4933
  146SAPE   H9X16105   3.741   6.864   9.424 -0.9851 -0.0614 -2.0627
  146SAPE   H9Y16106   3.600   6.853   9.525 -1.1608 -1.0737 -0.8896
  146SAPE  C31016107   3.610   6.680   9.400  0.2572  0.0268  0.2363
  146SAPE  H10X16108   3.550   6.624   9.475  0.3215  0.4738  0.6179
  146SAPE  H10Y16109   3.681   6.608   9.354 -0.2814 -0.1115 -0.4084
  146SAPE  C31116110   3.512   6.729   9.301  0.2653  0.0395 -0.1212
  146SAPE  H11X16111   3.436   6.794   9.349 -0.2091 -0.9883  0.5513
  146SAPE  H11Y16112   3.465   6.644   9.246  0.2180 -1.2857  1.8608
  146SAPE  C31216113   3.590   6.802   9.186  0.1723  0.1473 -0.6482
  146SAPE  H12X16114   3.672   6.734   9.159  1.4523  2.0555 -1.7911
  146SAPE  H12Y16115   3.633   6.900   9.217 -2.8224  0.8698  1.9232
  146SAPE  C31316116   3.498   6.821   9.058  0.1743  0.3543  0.0139
  146SAPE  H13X16117   3.408   6.873   9.098  0.7378  0.4808  1.1761
  146SAPE  H13Y16118   3.452   6.727   9.021 -1.4945 -0.2227  3.1734
  146SAPE  C31416119   3.555   6.893   8.935  0.6093  0.2849 -0.0064
  146SAPE  H14X16120   3.491   6.858   8.852  0.5805 -0.7077  0.4247
  146SAPE  H14Y16121   3.654   6.852   8.907  0.3910  0.8476 -1.7295
  146SAPE  C31516122   3.558   7.044   8.950  0.4597 -0.1963 -0.7161
  146SAPE  H15X16123   3.603   7.091   9.040 -4.4860  1.0017  1.4563
  146SAPE  H15Y16124   3.450   7.068   8.956  0.2120 -0.8965 -2.2184
  146SAPE  C31616125   3.612   7.102   8.823  0.0304 -0.4687  0.2693
  146SAPE  H16X16126   3.552   7.076   8.733 -0.7739  0.4020  0.5350
  146SAPE  H16Y16127   3.713   7.064   8.795  0.1549  1.4619 -2.2599
  146SAPE  C31716128   3.611   7.251   8.836 -0.1087  0.0675  0.1284
  146SAPE  H17X16129   3.684   7.292   8.909  0.3805  1.5709 -1.1397
  146SAPE  H17Y16130   3.510   7.286   8.865 -1.1480 -2.0399 -0.7064
  146SAPE  C31816131   3.661   7.307   8.704 -0.3281  0.3580  0.3108
  146SAPE  H18X16132   3.772   7.312   8.699 -0.2349 -1.1624  0.5855
  146SAPE  H18Y16133   3.645   7.416   8.687  3.7419  1.0467 -0.1119
  146SAPE  H18Z16134   3.622   7.247   8.620  0.6064  0.5120 -0.2408
  147SAPE     N16135   0.034   2.834   6.467 -0.6138  1.0768 -0.3923
  147SAPE   HN116136  -0.043   2.765   6.467  0.1614  0.1819  0.0639
  147SAPE   HN216137   0.099   2.817   6.547  1.8579  0.0601 -2.4549
  147SAPE   HN316138  -0.011   2.923   6.497 -1.4442  0.4755  0.1938
  147SAPE   C1216139   0.090   2.857   6.325 -0.0993  0.0383 -0.4686
  147SAPE  H12A16140  -0.002   2.867   6.264 -1.3054  0.8005  1.3614
  147SAPE  H12B16141   0.147   2.766   6.295 -0.9760 -0.6098 -0.2385
  147SAPE   C1116142   0.191   2.975   6.315 -0.2768  0.5277 -0.5601
  147SAPE  H11A16143   0.203   2.991   6.206 -0.4250  0.0259 -0.6544
  147SAPE  H11B16144   0.289   2.941   6.355 -1.3738 -1.1980  0.8285
  147SAPE     P16145   0.235   3.186   6.470  0.0192 -0.0310  0.2355
  147SAPE   O1316146   0.331   3.253   6.386  0.0940 -0.0531  0.3827
  147SAPE   O1416147   0.137   3.271   6.547  0.2927 -0.2008  0.1728
  147SAPE   O1216148   0.142   3.088   6.386  0.4784  0.5291  0.3429
  147SAPE   O1116149   0.312   3.091   6.570  0.4151  0.3014 -0.4976
  147SAPE    C116150   0.453   3.091   6.597 -0.1049  0.4541 -0.3189
  147SAPE    HA16151   0.496   3.003   6.545 -1.0743  0.5300 -1.2859
  147SAPE    HB16152   0.498   3.188   6.566 -1.0551  0.9137 -0.2773
  147SAPE    C216153   0.474   3.093   6.752 -1.0557  0.6598 -0.1379
  147SAPE    HS16154   0.446   2.995   6.796  2.0212 -0.2597 -0.0103
  147SAPE   O2116155   0.397   3.209   6.804 -0.6511 -0.2316 -0.1975
  147SAPE   C2116156   0.283   3.168   6.869  0.0872 -0.1428 -0.1929
  147SAPE   O2216157   0.256   3.055   6.895  0.0874 -0.6104 -0.6103
  147SAPE   C2216158   0.207   3.288   6.918 -0.1789 -0.1298  0.2602
  147SAPE   H2R16159   0.272   3.337   6.993  0.7206 -1.9948  0.7383
  147SAPE   H2S16160   0.195   3.368   6.841 -2.7831 -0.2939  0.4035
  147SAPE    C316161   0.623   3.111   6.772  0.0274  0.2297  0.0124
  147SAPE    HX16162   0.656   3.197   6.709  1.4914 -0.5434 -0.3042
  147SAPE    HY16163   0.675   3.022   6.731 -1.4743 -0.7075  0.0757
  147SAPE   O3116164   0.662   3.136   6.909  0.4004  0.0757 -0.3641
  147SAPE   C3116165   0.704   3.043   6.988  0.3523  0.4730 -0.1266
  147SAPE   O3216166   0.720   2.923   6.963  0.4476  0.7482 -0.2848
  147SAPE   C3216167   0.745   3.105   7.128 -0.4342  0.0317  0.0076
  147SAPE   H2X16168   0.658   3.167   7.158 -2.3134 -2.2627 -0.4399
  147SAPE   H2Y16169   0.835   3.168   7.110 -1.2236  1.1202 -0.2732
  147SAPE   C2316170   0.062   3.271   6.968  0.5914  0.8026 -0.3975
  147SAPE   H3R16171   0.012   3.200   6.898  1.0010 -0.2529  0.3478
  147SAPE   H3S16172   0.024   3.373   6.949  1.5738  1.2016 -0.2681
  147SAPE   C2416173   0.053   3.235   7.124 -0.2966 -0.3751  0.6804
  147SAPE   H4R16174  -0.056   3.248   7.143 -0.1888 -1.7399  2.4045
  147SAPE   H4S16175   0.115   3.304   7.186  0.7806  0.2195 -0.9879
  147SAPE   C2516176   0.075   3.091   7.151 -0.4786 -0.3323 -0.1473
  147SAPE   H5R16177   0.004   3.025   7.099 -1.7084 -0.2411  1.3440
  147SAPE   C2616178   0.178   3.034   7.224  0.4031  0.4229 -0.4482
  147SAPE   H6R16179   0.180   2.924   7.231  0.6711  0.4014 -0.8260
  147SAPE   C2716180   0.284   3.100   7.308  0.0521 -0.4020  1.0547
  147SAPE   H7R16181   0.317   3.189   7.251 -0.7363 -1.1083 -0.5655
  147SAPE   H7S16182   0.371   3.031   7.307 -2.7331 -4.2762 -1.5955
  147SAPE   C2816183   0.220   3.143   7.438 -0.0695 -0.5299  0.4781
  147SAPE   H8R16184   0.142   3.220   7.431  0.0359 -0.5408 -1.0172
  147SAPE   C2916185   0.246   3.094   7.556 -0.3154  0.2318 -0.3282
  147SAPE   H9R16186   0.180   3.121   7.640 -1.6234  1.6637 -1.7284
  147SAPE  C21016187   0.343   2.989   7.598  0.3488 -0.2954  0.2225
  147SAPE  H10R16188   0.412   2.977   7.512 -1.5079  2.6394 -1.8711
  147SAPE  H10S16189   0.304   2.885   7.609 -0.7566  0.1896  1.0966
  147SAPE  C21116190   0.423   3.038   7.714  0.3471 -0.6587  0.3610
  147SAPE  H11R16191   0.503   3.111   7.691  0.0631 -0.3962  0.1973
  147SAPE  C21216192   0.401   3.017   7.843 -0.2496  0.7604 -0.6696
  147SAPE  H12R16193   0.462   3.075   7.914 -1.9474  1.7424  0.0334
  147SAPE  C21316194   0.281   2.943   7.901  0.3022 -0.3023 -0.0319
  147SAPE  H13R16195   0.238   2.861   7.839 -0.3030  0.1849 -0.2684
  147SAPE  H13S16196   0.201   3.019   7.917  2.1448  1.6391  0.4210
  147SAPE  C21416197   0.315   2.884   8.036  0.2022 -0.2703  0.2320
  147SAPE  H14R16198   0.418   2.848   8.050 -0.0459 -0.6132  1.2577
  147SAPE  C21516199   0.224   2.855   8.132 -0.3738 -0.3071  0.0060
  147SAPE  H15R16200   0.264   2.811   8.224  1.7560 -0.0794 -0.7470
  147SAPE  C21616201   0.077   2.873   8.128  0.7286 -0.0060 -1.0089
  147SAPE  H16R16202   0.030   2.778   8.159  0.5807 -0.2374 -1.9268
  147SAPE  H16S16203   0.034   2.899   8.029 -0.6203 -0.7066 -0.6314
  147SAPE  C21716204   0.026   2.987   8.220 -0.3344  0.1675  0.4357
  147SAPE  H17R16205  -0.082   2.987   8.196  0.2801 -0.6460 -2.7998
  147SAPE  H17S16206   0.067   3.087   8.193 -1.1470  0.2555 -0.5406
  147SAPE  C21816207   0.043   2.950   8.372  0.7849 -0.3425  0.0895
  147SAPE  H18R16208   0.037   3.048   8.425  0.2719 -0.1042 -0.3940
  147SAPE  H18S16209   0.148   2.918   8.392  0.7093 -1.9166 -1.8017
  147SAPE  C21916210  -0.060   2.852   8.420 -0.1171  0.1787  0.1436
  147SAPE  H19R16211  -0.041   2.762   8.359  2.2358  0.5980  0.1532
  147SAPE  H19S16212  -0.161   2.890   8.393 -0.6161 -0.3286  1.1970
  147SAPE  C22016213  -0.043   2.805   8.569  0.2745  1.0381  1.0885
  147SAPE  H20R16214   0.059   2.760   8.571 -1.5213 -3.6809  0.0070
  147SAPE  H20S16215  -0.119   2.727   8.593  0.2193  0.2034 -1.4608
  147SAPE  H20T16216  -0.058   2.885   8.645 -0.3584  0.5323  1.5095
  147SAPE   C3316217   0.787   3.011   7.246  0.0425 -0.6953  0.4188
  147SAPE   H3X16218   0.893   2.979   7.243 -0.1293 -1.4336  1.7761
  147SAPE   H3Y16219   0.729   2.916   7.240 -0.4830 -0.3037 -1.2970
  147SAPE   C3416220   0.759   3.072   7.387 -0.3659 -0.9195  0.5548
  147SAPE   H4X16221   0.655   3.108   7.398  0.2040  0.5922  1.2103
  147SAPE   H4Y16222   0.822   3.164   7.386 -1.3833 -0.2074  1.2575
  147SAPE   C3516223   0.811   2.984   7.499  0.1566  0.6058  0.4812
  147SAPE   H5X16224   0.906   2.937   7.468  0.2870  1.1626  0.0219
  147SAPE   H5Y16225   0.735   2.904   7.516 -0.9596  1.2233 -1.3195
  147SAPE   C3616226   0.829   3.057   7.632 -1.0396  0.3415 -0.4280
  147SAPE   H6X16227   0.732   3.081   7.680  0.1263  1.0164  1.6955
  147SAPE   H6Y16228   0.883   3.151   7.610 -0.0389 -0.1235 -0.0058
  147SAPE   C3716229   0.906   2.968   7.738  0.0538  1.1551  0.7984
  147SAPE   H7X16230   1.003   2.923   7.709  0.0732  1.6414  0.0762
  147SAPE   H7Y16231   0.839   2.886   7.773 -1.9304  2.1594 -0.4625
  147SAPE   C3816232   0.941   3.041   7.859 -0.1289  0.0735 -0.1096
  147SAPE   H8X16233   1.005   3.129   7.837 -0.9892  0.4695 -1.1067
  147SAPE   H8Y16234   1.004   2.979   7.926 -0.0436 -0.3623 -0.5838
  147SAPE   C3916235   0.824   3.080   7.948  1.0272 -0.6427 -0.4360
  147SAPE   H9X16236   0.747   3.001   7.951  1.2726 -0.8542  1.3822
  147SAPE   H9Y16237   0.783   3.172   7.900  1.3064 -1.4635 -2.3294
  147SAPE  C31016238   0.867   3.118   8.092 -0.1070  0.0338  0.1754
  147SAPE  H10X16239   0.933   3.208   8.084 -0.3865  0.1216 -1.7318
  147SAPE  H10Y16240   0.928   3.037   8.137 -1.8009 -0.8923  0.8654
  147SAPE  C31116241   0.741   3.137   8.179 -0.2314 -0.5218 -0.2034
  147SAPE  H11X16242   0.683   3.043   8.170 -2.2826  0.7620 -1.4181
  147SAPE  H11Y16243   0.672   3.213   8.136 -1.2635  0.4697  2.8945
  147SAPE  C31216244   0.770   3.179   8.322  0.4641  0.7238  0.1590
  147SAPE  H12X16245   0.827   3.100   8.376 -0.2631 -0.5708 -0.9263
  147SAPE  H12Y16246   0.669   3.190   8.369  0.0364 -2.9428  0.4027
  147SAPE  C31316247   0.844   3.311   8.319 -0.3761 -0.0120 -0.1657
  147SAPE  H13X16248   0.945   3.305   8.272  0.7734 -0.2804  2.1512
  147SAPE  H13Y16249   0.858   3.354   8.421 -0.4283  1.6587 -0.8383
  147SAPE  C31416250   0.766   3.421   8.244 -1.0406 -0.3558  0.5386
  147SAPE  H14X16251   0.659   3.403   8.266 -0.9342  0.3555  1.7138
  147SAPE  H14Y16252   0.789   3.408   8.136 -0.4821  3.7055  0.0314
  147SAPE  C31516253   0.798   3.567   8.282  0.2655  0.0238  0.1654
  147SAPE  H15X16254   0.909   3.577   8.282  0.4405 -1.3990 -1.4727
  147SAPE  H15Y16255   0.757   3.585   8.384 -1.3422 -1.7200 -0.1245
  147SAPE  C31616256   0.748   3.682   8.196  0.5659 -0.1427  0.0864
  147SAPE  H16X16257   0.821   3.690   8.113  2.7523 -1.3500  1.7858
  147SAPE  H16Y16258   0.748   3.781   8.246 -0.7267  0.0444 -0.2413
  147SAPE  C31716259   0.619   3.654   8.115  0.2655 -0.0043 -0.6220
  147SAPE  H17X16260   0.539   3.628   8.187  1.9960 -0.2579  1.2788
  147SAPE  H17Y16261   0.625   3.566   8.047 -2.5594 -1.3430  0.6985
  147SAPE  C31816262   0.575   3.775   8.022  0.3742 -0.4280 -0.3158
  147SAPE  H18X16263   0.644   3.786   7.936  1.0747  2.9331  0.5139
  147SAPE  H18Y16264   0.575   3.870   8.079 -2.9783 -1.0513  0.9417
  147SAPE  H18Z16265   0.468   3.765   7.994  0.0182 -2.6642  1.4804
  148SAPE     N16266   1.925   0.729   6.492  0.0699 -0.1886 -0.2886
  148SAPE   HN116267   1.965   0.718   6.397 -1.0672  0.4784 -0.8761
  148SAPE   HN216268   1.913   0.638   6.541  1.3855 -0.6106 -0.7118
  148SAPE   HN316269   1.829   0.767   6.478 -0.5720 -1.2689  0.8943
  148SAPE   C1216270   2.001   0.822   6.576  0.1753 -0.5106 -0.3565
  148SAPE  H12A16271   2.099   0.775   6.599  1.2126  0.3704 -2.7329
  148SAPE  H12B16272   1.935   0.838   6.664 -0.2787 -0.6224 -0.6763
  148SAPE   C1116273   2.024   0.958   6.509  0.1801 -0.2859 -0.0129
  148SAPE  H11A16274   2.080   1.013   6.588 -0.8760  1.3011 -0.3185
  148SAPE  H11B16275   1.927   1.007   6.485  0.2295  0.9350  2.0262
  148SAPE     P16276   2.257   0.912   6.378  0.1450  0.5611 -0.3528
  148SAPE   O1316277   2.282   0.768   6.409  0.4600  0.4530  0.4457
  148SAPE   O1416278   2.287   0.947   6.236 -0.2158 -0.5290  0.1089
  148SAPE   O1216279   2.105   0.946   6.393 -0.1956 -0.5184 -0.3899
  148SAPE   O1116280   2.322   1.012   6.484 -0.0477 -0.5892  0.1973
  148SAPE    C116281   2.464   1.024   6.479  0.5136  0.7015  0.7026
  148SAPE    HA16282   2.506   1.039   6.377 -1.1523  1.8123  0.1427
  148SAPE    HB16283   2.501   1.120   6.521 -1.1231  0.8702  1.8616
  148SAPE    C216284   2.548   0.914   6.550  1.0999  0.0778 -0.9881
  148SAPE    HS16285   2.512   0.811   6.527  0.0660  0.3487 -0.6410
  148SAPE   O2116286   2.540   0.944   6.689  0.6502  0.0500 -0.0912
  148SAPE   C2116287   2.434   0.882   6.750 -0.2838 -0.1676 -0.6525
  148SAPE   O2216288   2.374   0.779   6.725 -0.3054 -0.3232  0.3782
  148SAPE   C2216289   2.386   0.965   6.867 -0.0328  0.0556  1.2406
  148SAPE   H2R16290   2.462   1.040   6.897 -1.8028  2.4383  0.0913
  148SAPE   H2S16291   2.296   1.022   6.836  0.6498 -0.0444 -1.0512
  148SAPE    C316292   2.694   0.917   6.513 -0.5300  0.2069  0.7866
  148SAPE    HX16293   2.694   0.892   6.405 -2.1913 -1.8706  1.1947
  148SAPE    HY16294   2.741   0.839   6.577  0.5127  1.3116  1.4072
  148SAPE   O3116295   2.750   1.050   6.532  0.4430 -0.2931 -0.1478
  148SAPE   C3116296   2.876   1.062   6.518  0.6986  0.2893  0.2673
  148SAPE   O3216297   2.954   0.973   6.486  0.5653  0.2490  0.3536
  148SAPE   C3216298   2.922   1.197   6.562 -0.3188 -0.1557  0.0396
  148SAPE   H2X16299   2.838   1.270   6.563  1.4770  2.1224 -2.4111
  148SAPE   H2Y16300   2.999   1.219   6.485  0.6650 -3.7990 -0.1912
  148SAPE   C2316301   2.362   0.872   6.994  0.0725  0.9132  0.6317
  148SAPE   H3R16302   2.298   0.786   6.968 -2.1378  2.6668 -0.1025
  148SAPE   H3S16303   2.302   0.928   7.069 -0.8455 -0.0968  0.6719
  148SAPE   C2416304   2.488   0.836   7.077 -0.0321  0.0127 -0.9249
  148SAPE   H4R16305   2.534   0.926   7.122 -0.9905 -1.4767  3.5590
  148SAPE   H4S16306   2.567   0.793   7.012  1.3011 -0.6463  1.0321
  148SAPE   C2516307   2.468   0.738   7.185  0.2012  0.9807 -0.5021
  148SAPE   H5R16308   2.393   0.661   7.164 -1.9479  1.9821  2.7979
  148SAPE   C2616309   2.522   0.734   7.308  0.1847 -0.3406  0.4132
  148SAPE   H6R16310   2.481   0.662   7.380  1.5559 -3.0151 -1.3213
  148SAPE   C2716311   2.617   0.829   7.374 -0.0714 -0.1649 -0.4481
  148SAPE   H7R16312   2.664   0.884   7.290 -0.6920 -0.5628 -1.0652
  148SAPE   H7S16313   2.704   0.769   7.407  1.2464  0.2090 -2.9834
  148SAPE   C2816314   2.561   0.926   7.473  0.1797 -0.1774 -0.3385
  148SAPE   H8R16315   2.533   1.031   7.452 -0.3757 -0.1619  0.4346
  148SAPE   C2916316   2.539   0.889   7.601 -0.6431 -0.0316 -0.3363
  148SAPE   H9R16317   2.495   0.963   7.669  1.0594  0.9242 -0.2171
  148SAPE  C21016318   2.578   0.760   7.671  0.1617  0.3406 -0.7908
  148SAPE  H10R16319   2.688   0.750   7.662  0.2866 -1.3980  1.6726
  148SAPE  H10S16320   2.519   0.678   7.623 -1.5504  0.5826  0.7806
  148SAPE  C21116321   2.566   0.769   7.827  0.0447 -0.5330 -0.3099
  148SAPE  H11R16322   2.605   0.861   7.874 -0.8866  0.0510 -0.6513
  148SAPE  C21216323   2.501   0.678   7.911 -0.6482  0.1355 -0.8761
  148SAPE  H12R16324   2.510   0.696   8.019  2.0491  0.0299 -1.0111
  148SAPE  C21316325   2.436   0.550   7.855  0.0837  0.4304 -0.0195
  148SAPE  H13R16326   2.465   0.521   7.752 -1.7418 -0.3084 -0.3538
  148SAPE  H13S16327   2.325   0.561   7.854 -0.1638 -1.5642  1.2167
  148SAPE  C21416328   2.480   0.430   7.934  0.3832  0.1138 -0.6984
  148SAPE  H14R16329   2.588   0.411   7.923  0.6133  1.1042 -0.2541
  148SAPE  C21516330   2.419   0.337   8.005  0.4995 -0.6040  0.0643
  148SAPE  H15R16331   2.475   0.254   8.049  0.7827 -0.3370  0.2093
  148SAPE  C21616332   2.267   0.333   8.025  0.0062  0.6229  0.3835
  148SAPE  H16R16333   2.221   0.432   8.007 -0.4858  0.4650  0.7431
  148SAPE  H16S16334   2.259   0.309   8.133 -1.5300 -0.0842  0.1443
  148SAPE  C21716335   2.201   0.222   7.950  0.8768  0.1890 -0.0665
  148SAPE  H17R16336   2.252   0.124   7.963 -1.3153 -1.0152 -0.0541
  148SAPE  H17S16337   2.191   0.236   7.840 -1.4779 -0.5383  0.0021
  148SAPE  C21816338   2.059   0.188   8.004 -0.3647 -0.1606 -0.1043
  148SAPE  H18R16339   2.011   0.139   7.916  0.4360  1.1189 -1.3114
  148SAPE  H18S16340   2.005   0.284   8.020  1.0026  0.8675 -1.3296
  148SAPE  C21916341   2.054   0.090   8.124  1.1592 -0.0707 -0.1427
  148SAPE  H19R16342   2.103   0.134   8.213  1.3858  1.6043 -1.0631
  148SAPE  H19S16343   2.102  -0.007   8.098  1.9030 -0.1271  1.3461
  148SAPE  C22016344   1.911   0.054   8.152 -0.0457  0.0779 -0.4594
  148SAPE  H20R16345   1.895  -0.055   8.155 -1.2283  0.2453  0.0567
  148SAPE  H20S16346   1.837   0.101   8.083 -2.9021 -1.3522  1.4392
  148SAPE  H20T16347   1.884   0.095   8.252  1.7982  0.1226  0.0489
  148SAPE   C3316348   2.996   1.207   6.693 -0.2144 -0.0187 -0.5726
  148SAPE   H3X16349   3.099   1.166   6.696 -0.0822  0.2773 -0.9023
  148SAPE   H3Y16350   2.941   1.167   6.780  0.8603 -0.7821 -0.2185
  148SAPE   C3416351   3.030   1.353   6.731 -0.2541  0.4690  0.3464
  148SAPE   H4X16352   2.934   1.405   6.712 -0.4237 -0.8698 -3.0677
  148SAPE   H4Y16353   3.101   1.390   6.654 -2.9455  0.4107 -2.3232
  148SAPE   C3516354   3.090   1.367   6.874  0.2672  0.5260 -0.3754
  148SAPE   H5X16355   3.189   1.319   6.863  0.7623  1.8483 -1.9497
  148SAPE   H5Y16356   3.026   1.306   6.942  0.2472 -2.3665 -2.8131
  148SAPE   C3616357   3.091   1.508   6.931  0.0494  0.5422  0.4288
  148SAPE   H6X16358   2.985   1.536   6.953  0.0548  1.7105 -0.8571
  148SAPE   H6Y16359   3.126   1.579   6.852 -2.7625  0.1523 -1.3271
  148SAPE   C3716360   3.160   1.525   7.065  0.0735 -0.3064 -0.6647
  148SAPE   H7X16361   3.184   1.632   7.082 -0.8008 -0.3794  1.1748
  148SAPE   H7Y16362   3.260   1.476   7.059  0.7071  0.8854 -0.1403
  148SAPE   C3816363   3.089   1.475   7.198 -0.1882  0.8988  0.2916
  148SAPE   H8X16364   3.063   1.367   7.204  1.8381  0.4126  1.3898
  148SAPE   H8Y16365   2.994   1.531   7.216  0.9589  2.1049  3.3244
  148SAPE   C3916366   3.187   1.505   7.314 -0.3831  0.4230  0.6343
  148SAPE   H9X16367   3.185   1.615   7.329 -2.8808  0.5224 -0.0014
  148SAPE   H9Y16368   3.286   1.479   7.270 -1.6275  1.2645 -3.0322
  148SAPE  C31016369   3.170   1.421   7.438 -0.3570 -0.1894  0.5391
  148SAPE  H10X16370   3.159   1.317   7.402  1.2258  0.6136 -2.5531
  148SAPE  H10Y16371   3.083   1.449   7.502 -0.9221 -0.1247 -0.2481
  148SAPE  C31116372   3.297   1.454   7.522  0.4543  0.8691 -0.0872
  148SAPE  H11X16373   3.309   1.564   7.530  2.0842  0.7545 -0.7264
  148SAPE  H11Y16374   3.393   1.417   7.481  0.9996  0.0150  1.8448
  148SAPE  C31216375   3.283   1.396   7.668  0.4409 -0.2224 -0.2030
  148SAPE  H12X16376   3.280   1.287   7.647  0.3227 -0.3555  0.4829
  148SAPE  H12Y16377   3.185   1.413   7.718  0.8990  0.3158  0.5132
  148SAPE  C31316378   3.399   1.440   7.759  0.5692  0.2231 -0.4986
  148SAPE  H13X16379   3.383   1.550   7.763 -1.5006 -0.0404  0.1682
  148SAPE  H13Y16380   3.494   1.405   7.714 -0.6817 -1.6179 -1.8516
  148SAPE  C31416381   3.383   1.388   7.902  1.4235  0.5027 -0.2280
  148SAPE  H14X16382   3.399   1.278   7.903 -1.1101  0.0612 -0.3990
  148SAPE  H14Y16383   3.277   1.408   7.930  1.8215  0.7093  1.2110
  148SAPE  C31516384   3.458   1.468   8.012  0.2715  0.9642 -0.1635
  148SAPE  H15X16385   3.436   1.576   7.997 -0.3038  1.0548  1.1852
  148SAPE  H15Y16386   3.568   1.459   7.997  0.2342  1.4020 -0.7380
  148SAPE  C31616387   3.415   1.425   8.156  0.4551 -0.0796 -0.0039
  148SAPE  H16X16388   3.310   1.460   8.159 -0.6606 -3.0377 -0.8525
  148SAPE  H16Y16389   3.476   1.484   8.229  1.3410 -1.6699  0.5876
  148SAPE  C31716390   3.444   1.279   8.186 -0.4945  0.5514  0.7694
  148SAPE  H17X16391   3.555   1.268   8.192 -0.4059  1.5977  1.3657
  148SAPE  H17Y16392   3.398   1.209   8.113 -1.4655  2.5095 -0.6041
  148SAPE  C31816393   3.392   1.246   8.326 -0.2612  0.2246 -0.0040
  148SAPE  H18X16394   3.419   1.139   8.343 -1.8123 -0.5158 -1.8877
  148SAPE  H18Y16395   3.285   1.261   8.350  0.1185 -0.5110  2.4696
  148SAPE  H18Z16396   3.450   1.304   8.402 -0.2895 -3.0314  2.7810
  149SAPE     N16397   0.264   2.283   6.424  0.0601 -0.5255 -0.1812
  149SAPE   HN116398   0.345   2.232   6.463 -2.3904 -2.4636  2.8604
  149SAPE   HN216399   0.185   2.249   6.482 -0.8833  1.6563 -0.0638
  149SAPE   HN316400   0.248   2.256   6.325  1.1160 -1.1325 -0.2020
  149SAPE   C1216401   0.252   2.430   6.445 -0.0721 -1.5847  0.4081
  149SAPE  H12A16402   0.334   2.482   6.392 -1.7236  0.9950  0.2136
  149SAPE  H12B16403   0.272   2.444   6.554  0.5722 -1.7954  0.3191
  149SAPE   C1116404   0.116   2.485   6.401  0.2714 -0.4310  1.0435
  149SAPE  H11A16405   0.093   2.466   6.294  2.1142  0.6962  0.4026
  149SAPE  H11B16406   0.124   2.595   6.406  1.1744 -0.4256 -0.1258
  149SAPE     P16407  -0.087   2.514   6.586 -0.0183  0.3320  0.0456
  149SAPE   O1316408  -0.143   2.631   6.514  0.0909  0.0423  0.3092
  149SAPE   O1416409  -0.191   2.412   6.625 -0.2746  0.2291 -0.1615
  149SAPE   O1216410   0.012   2.438   6.483 -0.0007  0.3556 -0.3617
  149SAPE   O1116411   0.003   2.565   6.707  0.1131 -0.0919 -0.8136
  149SAPE    C116412  -0.045   2.678   6.780 -0.3943  0.2397 -0.6444
  149SAPE    HA16413   0.035   2.755   6.774  0.1589 -0.3777 -1.5119
  149SAPE    HB16414  -0.139   2.720   6.739 -0.7989  0.3276  0.3481
  149SAPE    C216415  -0.066   2.658   6.930 -0.6225  1.0450 -0.0536
  149SAPE    HS16416  -0.111   2.752   6.968 -0.6179  0.9204  0.2560
  149SAPE   O2116417   0.057   2.634   6.999 -0.1355 -0.6342 -0.1027
  149SAPE   C2116418   0.057   2.673   7.130  1.1590  0.6315  0.0506
  149SAPE   O2216419  -0.040   2.724   7.184  0.0672 -0.2193 -0.2023
  149SAPE   C2216420   0.180   2.625   7.197  0.0121  0.8520  0.2666
  149SAPE   H2R16421   0.200   2.526   7.151 -0.3596  0.7963  0.2237
  149SAPE   H2S16422   0.264   2.692   7.168 -1.3049  1.5632 -2.1673
  149SAPE    C316423  -0.159   2.542   6.952  0.3521  0.0315 -0.0505
  149SAPE    HX16424  -0.105   2.452   6.915  0.5247 -0.0937  0.4967
  149SAPE    HY16425  -0.254   2.550   6.894  1.9639 -0.0100 -2.8621
  149SAPE   O3116426  -0.190   2.513   7.091 -0.2802 -0.8117  0.9811
  149SAPE   C3116427  -0.299   2.579   7.135 -0.1400  0.2237  0.8706
  149SAPE   O3216428  -0.379   2.643   7.068 -0.0104  0.1978 -0.3168
  149SAPE   C3216429  -0.315   2.556   7.284 -0.4198  0.2140 -0.5524
  149SAPE   H2X16430  -0.235   2.609   7.340 -1.7218  1.1077  0.5383
  149SAPE   H2Y16431  -0.314   2.446   7.301  1.9541  0.2359 -0.2369
  149SAPE   C2316432   0.163   2.619   7.353  0.0034  0.4413  0.1894
  149SAPE   H3R16433   0.061   2.584   7.381  0.3273 -0.2202  0.5781
  149SAPE   H3S16434   0.178   2.727   7.375 -2.5875  0.9999 -0.3964
  149SAPE   C2416435   0.263   2.528   7.430 -0.1342 -0.4358  0.5100
  149SAPE   H4R16436   0.276   2.431   7.377  1.1881  0.9601 -1.9109
  149SAPE   H4S16437   0.234   2.506   7.535  1.0085 -0.2060  0.8887
  149SAPE   C2516438   0.402   2.589   7.441  0.2481  0.7011  0.1256
  149SAPE   H5R16439   0.436   2.637   7.348 -1.5381  2.5490  0.3605
  149SAPE   C2616440   0.473   2.618   7.548  0.5433  0.3292 -0.0412
  149SAPE   H6R16441   0.564   2.676   7.528  1.7705 -0.4427  2.8197
  149SAPE   C2716442   0.435   2.597   7.686  0.5102 -0.6167 -0.2026
  149SAPE   H7R16443   0.325   2.588   7.699  0.5966 -1.0667  0.2634
  149SAPE   H7S16444   0.460   2.687   7.746  0.3692  0.0732 -1.1567
  149SAPE   C2816445   0.485   2.472   7.760 -0.0600 -0.4288 -0.4411
  149SAPE   H8R16446   0.434   2.379   7.731  1.1480 -1.0418 -0.6830
  149SAPE   C2916447   0.574   2.458   7.864  0.4720  0.6652  0.0838
  149SAPE   H9R16448   0.603   2.354   7.887 -1.6768  0.1094  0.5142
  149SAPE  C21016449   0.656   2.553   7.938 -1.3530 -0.4164 -0.5777
  149SAPE  H10R16450   0.675   2.648   7.884  0.5659 -0.5324 -0.1624
  149SAPE  H10S16451   0.759   2.512   7.949 -1.5648 -0.6403  0.7107
  149SAPE  C21116452   0.609   2.577   8.079  0.0254  0.5966  0.6945
  149SAPE  H11R16453   0.503   2.564   8.106 -0.1651  0.3881 -0.1171
  149SAPE  C21216454   0.679   2.639   8.176  0.0855  0.4092  0.3283
  149SAPE  H12R16455   0.621   2.663   8.266  0.8330  1.4457  0.5536
  149SAPE  C21316456   0.820   2.699   8.159 -0.5161 -0.4260 -0.8471
  149SAPE  H13R16457   0.819   2.767   8.071 -3.5580  2.2886  1.0287
  149SAPE  H13S16458   0.884   2.617   8.121  0.9006  0.4253 -0.3799
  149SAPE  C21416459   0.885   2.772   8.283 -0.0582  0.1458  0.5328
  149SAPE  H14R16460   0.926   2.873   8.270  1.0930 -0.4369 -0.5273
  149SAPE  C21516461   0.904   2.713   8.402 -0.1508  0.2907 -0.4326
  149SAPE  H15R16462   0.958   2.767   8.481  2.5044 -0.6973 -1.4564
  149SAPE  C21616463   0.863   2.575   8.437  0.4739 -0.0053  0.4994
  149SAPE  H16R16464   0.850   2.503   8.353  0.1522  0.5731  0.0477
  149SAPE  H16S16465   0.770   2.569   8.498 -0.8107 -0.3665 -1.3827
  149SAPE  C21716466   0.972   2.500   8.520  0.4788  0.0482 -0.1416
  149SAPE  H17R16467   0.933   2.399   8.544  0.4070  0.2066  0.4199
  149SAPE  H17S16468   1.010   2.539   8.617 -0.6023 -3.2789  1.7833
  149SAPE  C21816469   1.094   2.471   8.423 -0.7490 -0.6086  0.0622
  149SAPE  H18R16470   1.147   2.563   8.391  0.3796 -1.6402 -1.1780
  149SAPE  H18S16471   1.058   2.435   8.324  0.0528  1.6615 -1.1236
  149SAPE  C21916472   1.199   2.365   8.483  0.2126  0.1350 -0.6068
  149SAPE  H19R16473   1.220   2.305   8.392  1.6031 -0.4562  0.0677
  149SAPE  H19S16474   1.141   2.301   8.553 -0.1720  0.7167 -0.3851
  149SAPE  C22016475   1.320   2.418   8.545 -0.8609 -0.0537 -0.8902
  149SAPE  H20R16476   1.388   2.463   8.470  2.3918  0.5114  2.1357
  149SAPE  H20S16477   1.385   2.343   8.596 -2.3373  0.1487  1.4850
  149SAPE  H20T16478   1.297   2.484   8.631  1.5487 -2.0694  1.5013
  149SAPE   C3316479  -0.449   2.612   7.352  0.1876 -0.2156 -0.3383
  149SAPE   H3X16480  -0.530   2.564   7.294 -0.2769 -1.7295  1.4679
  149SAPE   H3Y16481  -0.460   2.722   7.350 -1.1233 -0.3143  0.4240
  149SAPE   C3416482  -0.464   2.560   7.491  0.3207  0.7827 -0.3255
  149SAPE   H4X16483  -0.379   2.602   7.549 -1.1973  1.0610  1.8122
  149SAPE   H4Y16484  -0.448   2.450   7.495  0.0711  0.7649  0.6067
  149SAPE   C3516485  -0.586   2.600   7.573 -0.0621  0.5051  0.4944
  149SAPE   H5X16486  -0.679   2.561   7.527 -0.3278 -1.4735  2.5266
  149SAPE   H5Y16487  -0.599   2.711   7.579  0.3292  0.5289  0.9944
  149SAPE   C3616488  -0.566   2.564   7.718 -0.7141 -0.7874 -0.1597
  149SAPE   H6X16489  -0.622   2.628   7.790  3.7264  0.5563  2.5667
  149SAPE   H6Y16490  -0.459   2.584   7.742  0.1665 -1.6401 -3.0213
  149SAPE   C3716491  -0.586   2.421   7.749 -0.1335 -0.9848 -0.3380
  149SAPE   H7X16492  -0.519   2.362   7.682  0.2247 -1.2326  0.2246
  149SAPE   H7Y16493  -0.687   2.386   7.721 -0.2124 -1.0343 -0.0007
  149SAPE   C3816494  -0.552   2.387   7.892 -0.2980 -0.2823  0.8888
  149SAPE   H8X16495  -0.458   2.438   7.920 -1.1319 -0.1251  3.7591
  149SAPE   H8Y16496  -0.528   2.280   7.878 -2.6558 -0.7092 -0.5583
  149SAPE   C3916497  -0.665   2.416   7.996 -0.6947  0.2108  0.3022
  149SAPE   H9X16498  -0.764   2.377   7.966 -0.9200  0.5725  0.5790
  149SAPE   H9Y16499  -0.674   2.524   7.974  0.4193  0.5685  1.4526
  149SAPE  C31016500  -0.627   2.389   8.143 -0.2000  0.2734  0.0105
  149SAPE  H10X16501  -0.536   2.444   8.177  0.8551 -1.2012 -0.3163
  149SAPE  H10Y16502  -0.614   2.279   8.149 -0.1500  0.3506  2.8417
  149SAPE  C31116503  -0.744   2.416   8.245 -0.1161 -0.0762  0.6301
  149SAPE  H11X16504  -0.830   2.373   8.190  0.7111 -1.2598  0.2162
  149SAPE  H11Y16505  -0.757   2.526   8.247  1.0482  0.1056 -0.4139
  149SAPE  C31216506  -0.733   2.368   8.394  0.0076 -0.3565 -0.8884
  149SAPE  H12X16507  -0.744   2.258   8.395 -1.1812 -0.2556 -1.0483
  149SAPE  H12Y16508  -0.816   2.418   8.448 -0.2270 -0.9440 -0.6943
  149SAPE  C31316509  -0.597   2.400   8.460 -0.5007 -0.3747 -0.7356
  149SAPE  H13X16510  -0.571   2.508   8.470 -0.1202 -0.4587 -0.8087
  149SAPE  H13Y16511  -0.519   2.360   8.392  1.9530  2.9148 -0.1143
  149SAPE  C31416512  -0.584   2.331   8.598 -0.7236  0.5754  0.2310
  149SAPE  H14X16513  -0.586   2.222   8.580  3.5829  0.4766 -0.7524
  149SAPE  H14Y16514  -0.669   2.377   8.654 -0.8801 -0.0469  0.5162
  149SAPE  C31516515  -0.448   2.345   8.663  0.0558  0.1311 -0.7152
  149SAPE  H15X16516  -0.398   2.432   8.615  0.0706  0.5064 -0.0217
  149SAPE  H15Y16517  -0.382   2.260   8.637  0.5059 -0.1615  1.2911
  149SAPE  C31616518  -0.441   2.351   8.816 -0.5872 -0.8994 -0.0833
  149SAPE  H16X16519  -0.492   2.440   8.857  1.1921  0.8013 -1.3724
  149SAPE  H16Y16520  -0.334   2.369   8.837 -0.2330  0.0040 -2.3401
  149SAPE  C31716521  -0.484   2.228   8.889 -0.1176 -0.5400  0.7757
  149SAPE  H17X16522  -0.427   2.146   8.841 -0.3709 -0.1249 -0.2650
  149SAPE  H17Y16523  -0.593   2.230   8.869  0.4046  2.1340 -2.7814
  149SAPE  C31816524  -0.437   2.233   9.035 -0.0028  0.8707  0.1070
  149SAPE  H18X16525  -0.329   2.256   9.044  0.5162 -1.4302  0.3073
  149SAPE  H18Y16526  -0.445   2.141   9.096  0.4159  0.0714 -1.0092
  149SAPE  H18Z16527  -0.493   2.321   9.075 -1.4608  0.6861 -1.4057
  150SAPE     N16528   3.481   5.750   6.359  0.3918  0.2001 -0.3006
  150SAPE   HN116529   3.416   5.807   6.301 -1.4454  0.0640  1.5014
  150SAPE   HN216530   3.574   5.795   6.351  0.1947  0.8848  0.9375
  150SAPE   HN316531   3.481   5.652   6.323  0.9764  0.2960 -0.5709
  150SAPE   C1216532   3.451   5.751   6.510 -0.6335 -0.5896  1.2035
  150SAPE  H12A16533   3.359   5.697   6.543 -2.1424  1.1599  0.0457
  150SAPE  H12B16534   3.425   5.859   6.520  2.7525  0.5550 -0.6859
  150SAPE   C1116535   3.567   5.710   6.596 -0.6343  0.2279  0.2256
  150SAPE  H11A16536   3.657   5.764   6.560  1.0842 -1.4790  1.7297
  150SAPE  H11B16537   3.592   5.604   6.575  1.5522  0.3750  1.7265
  150SAPE     P16538   3.629   5.667   6.847 -0.3767  0.2749  0.1759
  150SAPE   O1316539   3.604   5.523   6.871 -0.1733  0.2053 -0.1121
  150SAPE   O1416540   3.772   5.710   6.821  0.0235 -0.4357  0.4334
  150SAPE   O1216541   3.534   5.723   6.734 -0.1055 -0.8979  0.4447
  150SAPE   O1116542   3.584   5.745   6.974 -0.7152 -0.3540  0.4445
  150SAPE    C116543   3.506   5.862   6.979 -0.0880 -0.2187 -0.0418
  150SAPE    HA16544   3.411   5.848   6.923 -0.4131 -0.7310  0.6264
  150SAPE    HB16545   3.480   5.888   7.084  1.7527  2.8067 -0.2074
  150SAPE    C216546   3.580   5.986   6.917  0.4695  0.2484 -0.4846
  150SAPE    HS16547   3.594   5.966   6.809 -1.5829  2.9940 -1.3542
  150SAPE   O2116548   3.707   5.990   6.989  0.0271  0.1331  0.0591
  150SAPE   C2116549   3.800   6.065   6.934 -0.7940 -0.3662 -0.0266
  150SAPE   O2216550   3.782   6.129   6.830 -0.0523 -0.7349  0.3115
  150SAPE   C2216551   3.932   6.061   7.019 -1.0457 -0.3755  0.6456
  150SAPE   H2R16552   3.916   6.110   7.117  0.3173  1.8949 -0.1781
  150SAPE   H2S16553   3.937   5.952   7.041 -2.9973 -0.3159  1.5159
  150SAPE    C316554   3.503   6.121   6.923 -0.1257  0.3275 -0.7854
  150SAPE    HX16555   3.423   6.130   6.847  0.6444  0.7154 -1.5706
  150SAPE    HY16556   3.580   6.190   6.882  2.3720 -2.3360 -0.8969
  150SAPE   O3116557   3.454   6.151   7.057  1.0096 -0.0354 -0.1076
  150SAPE   C3116558   3.485   6.274   7.101 -0.5314  0.1866 -0.5654
  150SAPE   O3216559   3.541   6.359   7.032  0.5823 -0.0313  0.2407
  150SAPE   C3216560   3.426   6.290   7.244 -0.2355  0.0839  0.5884
  150SAPE   H2X16561   3.510   6.295   7.316 -0.2720 -0.4434  0.6708
  150SAPE   H2Y16562   3.360   6.204   7.266 -1.0541  0.8705  1.3042
  150SAPE   C2316563   4.054   6.108   6.937 -0.0312 -0.2864 -0.1285
  150SAPE   H3R16564   4.041   6.212   6.899 -1.1915 -1.1943 -2.4026
  150SAPE   H3S16565   4.071   6.035   6.856  0.9152 -1.0269  0.7113
  150SAPE   C2416566   4.182   6.112   7.030  0.3666 -0.9701 -0.1652
  150SAPE   H4R16567   4.163   6.184   7.113 -0.1554 -3.5294  2.0679
  150SAPE   H4S16568   4.261   6.157   6.965 -0.5085 -0.4877 -0.9210
  150SAPE   C2516569   4.224   5.982   7.089 -0.8167 -0.2259 -0.5282
  150SAPE   H5R16570   4.288   5.917   7.028  2.7103  1.7581  0.7378
  150SAPE   C2616571   4.203   5.941   7.217  0.4276  0.7000  0.2479
  150SAPE   H6R16572   4.247   5.844   7.244  1.2920  1.0488  0.1478
  150SAPE   C2716573   4.123   6.014   7.322 -0.6878 -0.0285  0.5597
  150SAPE   H7R16574   4.065   5.939   7.380 -0.7601 -1.0878 -0.8053
  150SAPE   H7S16575   4.042   6.070   7.271 -0.0122 -1.1316 -1.9033
  150SAPE   C2816576   4.202   6.116   7.395 -0.3051 -0.3281 -0.3618
  150SAPE   H8R16577   4.250   6.196   7.337  0.7997  0.0584  1.0183
  150SAPE   C2916578   4.209   6.125   7.531 -0.2810 -0.6031 -0.0506
  150SAPE   H9R16579   4.255   6.212   7.581  0.1852 -1.3670  0.8790
  150SAPE  C21016580   4.139   6.026   7.629 -0.0303  0.2741 -0.0025
  150SAPE  H10R16581   4.047   5.983   7.584  1.4206  0.1946 -3.1257
  150SAPE  H10S16582   4.107   6.084   7.718  2.3735 -2.0995  2.6509
  150SAPE  C21116583   4.242   5.922   7.657  0.0283 -0.7194 -1.4793
  150SAPE  H11R16584   4.259   5.854   7.572 -1.0045 -0.3478 -2.0006
  150SAPE  C21216585   4.295   5.904   7.776  0.1725 -0.5099  0.1991
  150SAPE  H12R16586   4.370   5.826   7.788  1.6613  0.7908 -0.2887
  150SAPE  C21316587   4.253   5.989   7.895  0.6950  0.0404  0.6701
  150SAPE  H13R16588   4.158   5.955   7.942  0.8747 -0.8783  0.3836
  150SAPE  H13S16589   4.239   6.096   7.867  1.4495  0.0344  0.2286
  150SAPE  C21416590   4.363   6.002   7.999 -0.3286  0.6183  0.2238
  150SAPE  H14R16591   4.466   5.978   7.968  1.6528  1.4334  5.2616
  150SAPE  C21516592   4.348   6.016   8.133  0.1488  0.7009 -0.3805
  150SAPE  H15R16593   4.438   6.043   8.190 -1.7765  1.9490  2.3066
  150SAPE  C21616594   4.213   6.033   8.199  0.4039 -0.1911 -0.2640
  150SAPE  H16R16595   4.154   5.939   8.193 -0.5492  0.3450  0.3271
  150SAPE  H16S16596   4.163   6.118   8.148  0.0575  0.7832  1.5740
  150SAPE  C21716597   4.217   6.078   8.348  0.1289 -0.6326  0.1897
  150SAPE  H17R16598   4.281   6.163   8.382  1.4604 -0.8434 -1.6466
  150SAPE  H17S16599   4.255   5.989   8.403 -0.3228 -1.1744 -0.3690
  150SAPE  C21816600   4.076   6.106   8.399 -0.1293 -0.3158  0.4021
  150SAPE  H18R16601   4.010   6.017   8.402  2.5077 -2.4253  0.3747
  150SAPE  H18S16602   4.023   6.178   8.334  1.6943 -0.9986 -1.9696
  150SAPE  C21916603   4.066   6.146   8.543  0.0153 -0.3123  0.2504
  150SAPE  H19R16604   4.131   6.234   8.562 -1.6113  0.9962 -0.0955
  150SAPE  H19S16605   4.099   6.064   8.611 -0.6841 -1.7466 -1.0680
  150SAPE  C22016606   3.927   6.186   8.583  0.2556  0.0906  0.1775
  150SAPE  H20R16607   3.876   6.260   8.518  3.6753  1.7126 -0.9604
  150SAPE  H20S16608   3.938   6.219   8.688  0.1430 -0.6200  0.4198
  150SAPE  H20T16609   3.860   6.098   8.586 -0.2389  0.4727  0.2704
  150SAPE   C3316610   3.345   6.420   7.259 -0.5250 -0.2488  0.6351
  150SAPE   H3X16611   3.298   6.421   7.360  0.5632 -1.3796  1.1931
  150SAPE   H3Y16612   3.258   6.441   7.194  0.0747  2.0844  0.5019
  150SAPE   C3416613   3.434   6.544   7.254  0.1476  0.4825  0.0988
  150SAPE   H4X16614   3.492   6.552   7.160  0.5117  0.9248  0.3550
  150SAPE   H4Y16615   3.512   6.533   7.332  1.1575 -3.1380 -1.2408
  150SAPE   C3516616   3.357   6.681   7.273 -0.0491  0.9353  0.3451
  150SAPE   H5X16617   3.289   6.660   7.358  0.8573 -0.2524  0.8067
  150SAPE   H5Y16618   3.289   6.681   7.185 -1.4017  0.3701  1.3624
  150SAPE   C3616619   3.443   6.805   7.288  0.4386  0.4937  1.1200
  150SAPE   H6X16620   3.375   6.893   7.301  0.2558  0.5192  0.0374
  150SAPE   H6Y16621   3.507   6.823   7.199  0.1861  1.9954  1.2005
  150SAPE   C3716622   3.536   6.812   7.408  0.9045  0.8526 -0.1772
  150SAPE   H7X16623   3.586   6.910   7.424 -0.3906  1.0787  3.4630
  150SAPE   H7Y16624   3.620   6.743   7.388  0.9209  0.8983 -0.2671
  150SAPE   C3816625   3.462   6.771   7.536 -0.5627  0.1855 -0.6022
  150SAPE   H8X16626   3.429   6.665   7.534 -0.7666  0.1585  1.8587
  150SAPE   H8Y16627   3.381   6.848   7.544 -0.2946  0.3138  1.0488
  150SAPE   C3916628   3.549   6.782   7.664  0.1918  0.3577  0.1804
  150SAPE   H9X16629   3.470   6.797   7.740 -0.6551  3.8419 -1.2174
  150SAPE   H9Y16630   3.608   6.876   7.655  0.5252  0.1380  0.0486
  150SAPE  C31016631   3.640   6.661   7.693 -0.4240  0.3440  0.6980
  150SAPE  H10X16632   3.732   6.657   7.631 -0.1970  1.5925  0.9309
  150SAPE  H10Y16633   3.589   6.563   7.676  1.1702 -0.1488 -1.8277
  150SAPE  C31116634   3.694   6.670   7.833  0.6716 -0.6596  0.0987
  150SAPE  H11X16635   3.724   6.775   7.854  2.3942 -0.9886 -0.5540
  150SAPE  H11Y16636   3.779   6.600   7.844  0.5670 -0.4988  2.4341
  150SAPE  C31216637   3.578   6.626   7.923  0.1482 -0.0973 -0.3591
  150SAPE  H12X16638   3.540   6.525   7.900 -1.7065  0.4297  0.1714
  150SAPE  H12Y16639   3.493   6.697   7.911 -0.3448 -0.7098 -0.5499
  150SAPE  C31316640   3.624   6.624   8.070  0.7164 -0.1367 -0.7622
  150SAPE  H13X16641   3.659   6.726   8.095 -0.6520  0.1450  0.0887
  150SAPE  H13Y16642   3.705   6.550   8.086  2.2190  1.8219  1.3055
  150SAPE  C31416643   3.521   6.590   8.177  0.4174  0.4789  0.1176
  150SAPE  H14X16644   3.502   6.481   8.175 -1.1451  0.7287 -0.1596
  150SAPE  H14Y16645   3.426   6.644   8.156 -1.1318 -1.8605  0.7277
  150SAPE  C31516646   3.563   6.633   8.320 -0.1339 -0.6245  0.2935
  150SAPE  H15X16647   3.551   6.743   8.311  0.5942 -0.6156 -0.8132
  150SAPE  H15Y16648   3.669   6.607   8.339  0.1661  0.6176  0.4276
  150SAPE  C31616649   3.469   6.589   8.435  0.4995  0.2050  0.0153
  150SAPE  H16X16650   3.500   6.484   8.453  0.7723  0.1574 -0.7098
  150SAPE  H16Y16651   3.359   6.596   8.417 -0.0743  5.3583  3.3191
  150SAPE  C31716652   3.492   6.654   8.573  0.8241  0.7598 -0.1913
  150SAPE  H17X16653   3.413   6.638   8.649  2.2501  1.6656  1.5477
  150SAPE  H17Y16654   3.488   6.762   8.550 -0.2776  1.1656  1.6865
  150SAPE  C31816655   3.622   6.617   8.628 -0.1453  0.0543 -0.7342
  150SAPE  H18X16656   3.634   6.637   8.736 -1.1553  0.6390 -0.7147
  150SAPE  H18Y16657   3.702   6.676   8.577 -0.5200  0.2522 -1.1037
  150SAPE  H18Z16658   3.639   6.510   8.605  0.3071 -0.0268 -0.0293
  151SAPE     N16659   5.555   3.203   6.506 -0.0160 -0.0769 -0.4598
  151SAPE   HN116660   5.476   3.262   6.538  1.4113  1.5269  0.2693
  151SAPE   HN216661   5.559   3.135   6.585  1.3843 -0.7176 -1.0415
  151SAPE   HN316662   5.641   3.260   6.500 -1.2322  1.7010 -2.6695
  151SAPE   C1216663   5.505   3.148   6.373  0.1864  0.1595 -0.2060
  151SAPE  H12A16664   5.596   3.124   6.315  0.6216 -0.3542  0.6780
  151SAPE  H12B16665   5.474   3.239   6.317  0.6957 -0.8193 -2.1741
  151SAPE   C1116666   5.402   3.034   6.381 -0.1878  0.0043  0.2421
  151SAPE  H11A16667   5.368   3.001   6.281  0.3800 -0.9316  0.3522
  151SAPE  H11B16668   5.314   3.077   6.435 -1.7079 -1.3496 -1.0737
  151SAPE     P16669   5.392   2.784   6.455  0.4910 -0.4260 -0.0879
  151SAPE   O1316670   5.377   2.744   6.312  0.5603  0.0560  0.4870
  151SAPE   O1416671   5.474   2.691   6.540  0.0215  0.3685  0.0331
  151SAPE   O1216672   5.459   2.930   6.456 -0.7915  0.0354  0.0260
  151SAPE   O1116673   5.247   2.819   6.511  0.0955  0.1156  0.1235
  151SAPE    C116674   5.222   2.806   6.651  0.3947  0.3834 -0.2748
  151SAPE    HA16675   5.153   2.720   6.661 -0.6232  0.9040 -2.2993
  151SAPE    HB16676   5.306   2.777   6.717 -2.0354 -2.5730  1.7702
  151SAPE    C216677   5.157   2.938   6.713  0.3399  0.4800  0.8193
  151SAPE    HS16678   5.102   2.916   6.807 -0.4320  0.1608  0.3055
  151SAPE   O2116679   5.071   2.995   6.612 -0.3050 -0.5432 -0.5877
  151SAPE   C2116680   4.956   2.940   6.616  0.4184 -0.2448  0.5273
  151SAPE   O2216681   4.928   2.842   6.685  0.0110  0.1274  0.0207
  151SAPE   C2216682   4.863   3.009   6.524  0.3593  0.6122  0.5300
  151SAPE   H2R16683   4.910   3.084   6.457 -0.1668  1.0979  0.7052
  151SAPE   H2S16684   4.829   2.930   6.454  0.2234  1.4659 -0.3820
  151SAPE    C316685   5.259   3.048   6.745  0.1094 -0.1337 -0.2842
  151SAPE    HX16686   5.211   3.142   6.781  2.1189  0.5878  0.6828
  151SAPE    HY16687   5.315   3.068   6.652  0.7581  0.4616  0.2167
  151SAPE   O3116688   5.346   2.982   6.844 -0.8080 -0.1938  0.6011
  151SAPE   C3116689   5.480   2.988   6.823  0.6985 -0.1496  0.2567
  151SAPE   O3216690   5.540   3.058   6.737  0.1813 -0.4504  0.1063
  151SAPE   C3216691   5.558   2.904   6.921 -0.3333  0.5821  0.3591
  151SAPE   H2X16692   5.660   2.948   6.929 -0.7251  1.4895  0.4396
  151SAPE   H2Y16693   5.550   2.796   6.895 -1.8344  0.3715  1.5915
  151SAPE   C2316694   4.743   3.072   6.597 -0.2344  0.6246 -0.4893
  151SAPE   H3R16695   4.685   3.010   6.669  1.0340 -1.4171 -1.1439
  151SAPE   H3S16696   4.658   3.090   6.528 -1.7185 -0.0695  1.0806
  151SAPE   C2416697   4.782   3.208   6.657 -0.5039  0.1789  0.0446
  151SAPE   H4R16698   4.691   3.266   6.683  0.4660  1.9804 -0.4313
  151SAPE   H4S16699   4.824   3.271   6.576  1.8281  0.9781  1.7659
  151SAPE   C2516700   4.884   3.204   6.769  0.0619 -0.1347  0.0942
  151SAPE   H5R16701   4.983   3.248   6.745  0.1624 -0.8385 -0.8391
  151SAPE   C2616702   4.857   3.166   6.892  0.3095  0.4907  0.1832
  151SAPE   H6R16703   4.933   3.168   6.972 -0.4714  1.4135  0.9294
  151SAPE   C2716704   4.723   3.105   6.944  0.2765  0.0126 -0.3821
  151SAPE   H7R16705   4.645   3.113   6.864 -1.1238  0.1109  0.9475
  151SAPE   H7S16706   4.689   3.172   7.026  2.5754 -0.2219  0.8372
  151SAPE   C2816707   4.744   2.958   6.989  0.1827  0.5267 -0.0600
  151SAPE   H8R16708   4.749   2.884   6.908 -0.3422 -0.7158  1.0056
  151SAPE   C2916709   4.761   2.923   7.116  0.0103 -0.4691  0.0039
  151SAPE   H9R16710   4.778   2.815   7.130  1.2617 -0.0986  1.6883
  151SAPE  C21016711   4.754   3.010   7.240 -0.0621 -0.6362 -0.4288
  151SAPE  H10R16712   4.646   3.022   7.266  0.1235 -1.5466  0.8563
  151SAPE  H10S16713   4.787   3.112   7.210 -0.4258 -0.3211  0.2126
  151SAPE  C21116714   4.835   2.953   7.358  0.4602  0.6806 -0.6686
  151SAPE  H11R16715   4.930   2.903   7.334 -1.3947 -2.2462 -2.4263
  151SAPE  C21216716   4.794   2.965   7.485 -0.6245  1.0769  0.1106
  151SAPE  H12R16717   4.850   2.910   7.562 -1.6382  2.2586  1.7625
  151SAPE  C21316718   4.665   3.022   7.525  0.1242  0.7313 -0.6630
  151SAPE  H13R16719   4.635   2.973   7.620 -1.4246  1.7358 -0.5894
  151SAPE  H13S16720   4.580   2.993   7.461 -2.1495  1.6158  1.7447
  151SAPE  C21416721   4.663   3.173   7.537  0.4517 -0.3498 -0.3848
  151SAPE  H14R16722   4.716   3.231   7.461 -0.3312  1.2503  0.2464
  151SAPE  C21516723   4.597   3.246   7.629 -0.1819  0.4765  0.1726
  151SAPE  H15R16724   4.601   3.355   7.616 -2.5631  0.2358 -5.9708
  151SAPE  C21616725   4.522   3.189   7.747 -0.2093  0.4614 -0.8674
  151SAPE  H16R16726   4.489   3.083   7.737  0.0098  0.3506 -0.4618
  151SAPE  H16S16727   4.431   3.249   7.767 -1.5487 -1.5747 -0.5073
  151SAPE  C21716728   4.616   3.190   7.870  0.3441 -0.0226 -0.4111
  151SAPE  H17R16729   4.662   3.290   7.881 -0.9643  0.3533  2.6918
  151SAPE  H17S16730   4.700   3.119   7.853  0.6943  0.0884  0.7953
  151SAPE  C21816731   4.555   3.124   8.000 -0.1097 -0.2037 -0.4353
  151SAPE  H18R16732   4.630   3.098   8.078 -2.4189 -1.3588  1.5750
  151SAPE  H18S16733   4.512   3.025   7.976  2.7231 -1.7048  0.2547
  151SAPE  C21916734   4.461   3.223   8.063  0.1510  0.3302  0.6498
  151SAPE  H19R16735   4.401   3.273   7.983  0.8735  0.8321  0.4150
  151SAPE  H19S16736   4.514   3.300   8.123 -1.0942 -0.3157  2.6926
  151SAPE  C22016737   4.380   3.142   8.171 -0.0170 -0.1126 -0.2144
  151SAPE  H20R16738   4.316   3.061   8.130  0.5433 -1.1468  0.8925
  151SAPE  H20S16739   4.442   3.083   8.242 -1.9425 -0.9565  0.8341
  151SAPE  H20T16740   4.307   3.212   8.217 -0.9264 -0.4756 -1.0571
  151SAPE   C3316741   5.508   2.908   7.072  0.3361 -0.1514 -0.4552
  151SAPE   H3X16742   5.543   2.820   7.128 -0.2566  0.6485  1.2427
  151SAPE   H3Y16743   5.397   2.897   7.073  0.4769 -1.8166  0.4380
  151SAPE   C3416744   5.559   3.031   7.140 -0.1269 -0.2797 -0.6687
  151SAPE   H4X16745   5.529   3.125   7.089 -0.1037  1.1371  1.7958
  151SAPE   H4Y16746   5.669   3.042   7.148 -0.1608 -0.0235 -0.5466
  151SAPE   C3516747   5.513   3.050   7.287  0.4658 -0.1325 -0.0268
  151SAPE   H5X16748   5.578   2.995   7.358  0.1249  0.8617  1.0883
  151SAPE   H5Y16749   5.418   2.995   7.298  0.1411  0.6904  1.5575
  151SAPE   C3616750   5.493   3.190   7.343  0.2639 -0.4421 -0.9723
  151SAPE   H6X16751   5.413   3.246   7.290 -0.3300 -0.0205  0.3466
  151SAPE   H6Y16752   5.591   3.241   7.333  0.1853 -0.4148 -1.6679
  151SAPE   C3716753   5.475   3.187   7.495 -0.3019  0.1364 -0.2593
  151SAPE   H7X16754   5.427   3.091   7.523  2.2551 -1.1977 -0.1723
  151SAPE   H7Y16755   5.398   3.261   7.527 -2.5710 -2.3917  0.5321
  151SAPE   C3816756   5.601   3.213   7.585  0.0771 -0.2535  0.1206
  151SAPE   H8X16757   5.626   3.321   7.584  0.1219 -0.2634 -1.0625
  151SAPE   H8Y16758   5.688   3.152   7.551  0.3662  0.5180 -0.5473
  151SAPE   C3916759   5.567   3.186   7.731  0.8945 -0.1101  0.7991
  151SAPE   H9X16760   5.506   3.094   7.719 -0.5402  0.7403  1.1907
  151SAPE   H9Y16761   5.501   3.271   7.761  0.3566 -0.5088  0.7609
  151SAPE  C31016762   5.696   3.157   7.813  0.9186  0.7466 -0.2877
  151SAPE  H10X16763   5.751   3.253   7.826  0.9665  0.8209 -0.9897
  151SAPE  H10Y16764   5.760   3.084   7.758 -0.8639 -2.3264  1.4515
  151SAPE  C31116765   5.648   3.093   7.945 -1.0192  0.1429  0.1066
  151SAPE  H11X16766   5.634   2.985   7.920  3.0964 -0.1691 -1.6271
  151SAPE  H11Y16767   5.554   3.124   7.994 -0.2620  0.1216  1.6347
  151SAPE  C31216768   5.758   3.094   8.048  0.6513  0.3506  0.2405
  151SAPE  H12X16769   5.801   3.195   8.068 -0.9792  1.0303  0.5260
  151SAPE  H12Y16770   5.843   3.031   8.015  0.8015  0.9934 -0.6781
  151SAPE  C31316771   5.711   3.043   8.188  0.3447 -0.5727 -0.2592
  151SAPE  H13X16772   5.704   2.935   8.162 -1.0569  0.0857 -3.0423
  151SAPE  H13Y16773   5.606   3.079   8.199 -0.1703 -2.1241  0.2307
  151SAPE  C31416774   5.802   3.083   8.305 -0.1332 -0.0241 -0.7223
  151SAPE  H14X16775   5.790   3.190   8.332  3.5039  0.5950 -1.1002
  151SAPE  H14Y16776   5.904   3.051   8.274 -0.9806 -3.5370 -0.3597
  151SAPE  C31516777   5.767   2.991   8.425  0.5641  0.1012  0.0720
  151SAPE  H15X16778   5.816   2.891   8.420  1.1490  0.4440 -1.6410
  151SAPE  H15Y16779   5.656   2.982   8.428  0.5699  0.3266  1.5806
  151SAPE  C31616780   5.791   3.057   8.559 -0.1030  0.3082 -0.8661
  151SAPE  H16X16781   5.746   3.158   8.569  1.2198  0.8827 -0.3781
  151SAPE  H16Y16782   5.899   3.066   8.586  0.1253  1.3316 -2.0418
  151SAPE  C31716783   5.729   2.964   8.671  1.0637  0.0836  0.9364
  151SAPE  H17X16784   5.748   2.863   8.628  0.9781  0.9277 -1.2014
  151SAPE  H17Y16785   5.622   2.984   8.696  0.5506 -0.5574 -0.6301
  151SAPE  C31816786   5.806   2.970   8.804  0.0003  0.2864 -0.4628
  151SAPE  H18X16787   5.813   3.075   8.839  0.8064 -0.0144  0.2978
  151SAPE  H18Y16788   5.908   2.931   8.783  0.7654  1.3914  0.9972
  151SAPE  H18Z16789   5.754   2.919   8.887  2.6742 -2.3761 -0.2322
  152SAPE     N16790   5.206   6.127   6.123  0.0754 -0.1122 -0.3821
  152SAPE   HN116791   5.118   6.111   6.175  1.5453 -0.2486  2.2347
  152SAPE   HN216792   5.193   6.208   6.060 -1.0931 -0.8493 -1.1154
  152SAPE   HN316793   5.233   6.040   6.073 -2.9467 -0.7588 -1.0554
  152SAPE   C1216794   5.299   6.179   6.244  0.2903  0.0591  1.1806
  152SAPE  H12A16795   5.261   6.123   6.332 -1.7994 -1.3146 -0.4686
  152SAPE  H12B16796   5.295   6.290   6.247  0.2727  0.1710 -1.1585
  152SAPE   C1116797   5.451   6.150   6.207 -1.0069  0.4587 -0.1875
  152SAPE  H11A16798   5.465   6.159   6.097  2.2437  1.5325  0.2342
  152SAPE  H11B16799   5.473   6.045   6.236 -0.2982  1.2421  2.2641
  152SAPE     P16800   5.568   6.230   6.424  0.1955  0.1401  0.3328
  152SAPE   O1316801   5.645   6.099   6.440 -0.1393  0.2508  0.0816
  152SAPE   O1416802   5.639   6.355   6.463  0.8028 -0.4191  0.3570
  152SAPE   O1216803   5.529   6.242   6.271 -0.4934 -0.2018  0.1177
  152SAPE   O1116804   5.429   6.207   6.495  0.1631 -0.2131  0.5496
  152SAPE    C116805   5.391   6.277   6.617 -0.3289 -0.8246  0.1527
  152SAPE    HA16806   5.389   6.386   6.597 -0.2506 -0.9394 -0.4714
  152SAPE    HB16807   5.286   6.247   6.639  0.0473 -2.3841 -0.0578
  152SAPE    C216808   5.468   6.241   6.746  0.1318  0.7781  0.8460
  152SAPE    HS16809   5.574   6.275   6.745  0.3204  0.3302 -1.6123
  152SAPE   O2116810   5.446   6.105   6.766  0.1852  1.4391 -0.0970
  152SAPE   C2116811   5.529   6.034   6.845 -0.9980 -0.2066  0.6219
  152SAPE   O2216812   5.642   6.075   6.865 -0.2880 -0.3417  0.1349
  152SAPE   C2216813   5.474   5.908   6.901 -0.0947 -0.0121  0.4983
  152SAPE   H2R16814   5.395   5.937   6.973  0.1649  0.5214  0.5742
  152SAPE   H2S16815   5.425   5.851   6.820 -0.2592 -0.9716  1.2554
  152SAPE    C316816   5.404   6.329   6.860  0.2110  0.5018  0.0647
  152SAPE    HX16817   5.297   6.299   6.856  0.5796 -1.1775  1.5671
  152SAPE    HY16818   5.407   6.440   6.851 -0.5675  0.4235 -1.8920
  152SAPE   O3116819   5.453   6.270   6.986 -0.2878  0.0569 -0.0710
  152SAPE   C3116820   5.558   6.339   7.055  0.1649 -0.4723  0.5237
  152SAPE   O3216821   5.603   6.445   7.019  0.2890 -1.1050  0.0525
  152SAPE   C3216822   5.613   6.254   7.161  0.0117 -0.4731 -0.0274
  152SAPE   H2X16823   5.698   6.195   7.121 -0.4827 -0.7722 -0.6525
  152SAPE   H2Y16824   5.540   6.173   7.183 -0.8766 -1.0475 -4.2461
  152SAPE   C2316825   5.587   5.823   6.969  0.3516  0.5188 -0.4280
  152SAPE   H3R16826   5.646   5.889   7.037  0.3620 -0.3461  0.4322
  152SAPE   H3S16827   5.646   5.783   6.884 -1.2538 -2.0731 -0.4476
  152SAPE   C2416828   5.519   5.699   7.043 -0.3086 -0.2360  0.1622
  152SAPE   H4R16829   5.474   5.634   6.965  0.1073  0.7790 -0.9744
  152SAPE   H4S16830   5.436   5.733   7.108  2.0469 -0.7010  3.6749
  152SAPE   C2516831   5.621   5.625   7.123 -0.1251  0.3481  0.3021
  152SAPE   H5R16832   5.675   5.543   7.074  0.5110 -0.7022  2.6116
  152SAPE   C2616833   5.663   5.649   7.250  0.5818  0.1782 -0.0784
  152SAPE   H6R16834   5.745   5.584   7.286  0.3880  0.0221  0.0802
  152SAPE   C2716835   5.611   5.753   7.344  0.4285 -0.2974 -1.0616
  152SAPE   H7R16836   5.566   5.703   7.432 -1.2868  0.3324 -1.5351
  152SAPE   H7S16837   5.527   5.803   7.292 -0.0225  0.1683  0.0671
  152SAPE   C2816838   5.710   5.863   7.385 -0.2880  0.2670 -0.2435
  152SAPE   H8R16839   5.720   5.944   7.310  1.5719 -0.5797 -0.9764
  152SAPE   C2916840   5.779   5.872   7.500 -0.3440  0.7221 -0.1688
  152SAPE   H9R16841   5.830   5.968   7.517 -1.3993  1.0821  1.1700
  152SAPE  C21016842   5.773   5.765   7.605  0.0896  0.2197 -0.7529
  152SAPE  H10R16843   5.787   5.667   7.555  1.6610 -0.0335  0.1324
  152SAPE  H10S16844   5.677   5.763   7.661  0.1349  1.7776 -0.5740
  152SAPE  C21116845   5.907   5.767   7.692 -0.3890  0.2724 -0.1153
  152SAPE  H11R16846   5.987   5.729   7.626 -1.7675 -1.4951 -0.8550
  152SAPE  C21216847   5.931   5.784   7.818 -0.4570 -0.3717 -0.4750
  152SAPE  H12R16848   6.033   5.789   7.859 -1.0847  2.8209  0.9703
  152SAPE  C21316849   5.833   5.825   7.927 -0.2009  0.0195  0.0897
  152SAPE  H13R16850   5.846   5.746   8.005  2.3162 -0.9062 -1.1644
  152SAPE  H13S16851   5.727   5.810   7.896 -0.0630  0.4333 -0.5939
  152SAPE  C21416852   5.844   5.970   7.967  0.6113  0.0875  0.2625
  152SAPE  H14R16853   5.773   6.040   7.919 -0.3082 -0.1133  1.2880
  152SAPE  C21516854   5.914   6.020   8.066 -0.4886 -0.5762 -0.9456
  152SAPE  H15R16855   5.904   6.128   8.087 -0.7900 -0.9094  0.8351
  152SAPE  C21616856   6.004   5.944   8.160  0.2029 -0.0709 -0.3805
  152SAPE  H16R16857   6.100   5.904   8.121  1.4579 -1.4832  3.6397
  152SAPE  H16S16858   5.938   5.863   8.198 -1.6207  0.4197 -2.3273
  152SAPE  C21716859   6.039   6.021   8.288  0.1601 -0.3130  0.4529
  152SAPE  H17R16860   5.945   6.033   8.346 -0.3441  3.1923 -0.8102
  152SAPE  H17S16861   6.081   6.120   8.257  0.4778 -1.2081 -2.2387
  152SAPE  C21816862   6.153   5.945   8.365  0.3208 -0.5372  0.4047
  152SAPE  H18R16863   6.209   6.012   8.435  1.0144  0.7861 -1.3172
  152SAPE  H18S16864   6.227   5.907   8.291 -2.2007 -1.4754 -1.7995
  152SAPE  C21916865   6.098   5.827   8.444 -1.0675 -0.2616  0.3357
  152SAPE  H19R16866   6.076   5.738   8.381  1.1435 -1.1481  0.6894
  152SAPE  H19S16867   6.002   5.860   8.488 -1.6956 -2.5251  0.8327
  152SAPE  C22016868   6.199   5.772   8.547 -0.2710  0.1238  0.7470
  152SAPE  H20R16869   6.260   5.839   8.610  0.7713 -1.0528  1.0406
  152SAPE  H20S16870   6.276   5.710   8.496 -0.4362 -1.8492  2.7214
  152SAPE  H20T16871   6.149   5.700   8.615 -0.1610  1.6482  2.5172
  152SAPE   C3316872   5.646   6.346   7.291  0.3163  0.2166  0.4808
  152SAPE   H3X16873   5.563   6.417   7.311  0.6029 -0.0437  2.9400
  152SAPE   H3Y16874   5.738   6.408   7.282  0.6201 -0.0374  1.6068
  152SAPE   C3416875   5.673   6.268   7.418 -0.1014 -0.1285 -0.4330
  152SAPE   H4X16876   5.774   6.224   7.402  0.2192 -0.4927  2.1307
  152SAPE   H4Y16877   5.597   6.187   7.427 -0.7056  0.3795 -0.8121
  152SAPE   C3516878   5.653   6.362   7.533 -0.0242  0.4076 -0.7211
  152SAPE   H5X16879   5.552   6.408   7.533 -0.4505 -0.5059 -0.8310
  152SAPE   H5Y16880   5.727   6.444   7.530  0.6448 -0.1023  0.9784
  152SAPE   C3616881   5.654   6.297   7.670 -0.2939 -0.3169  0.0494
  152SAPE   H6X16882   5.734   6.227   7.703 -0.7059  0.2111  2.3994
  152SAPE   H6Y16883   5.560   6.238   7.676 -1.3523  1.3773  1.0415
  152SAPE   C3716884   5.638   6.411   7.784 -0.0578  0.0818 -0.3813
  152SAPE   H7X16885   5.548   6.468   7.753 -1.9337 -2.0482  0.8909
  152SAPE   H7Y16886   5.724   6.479   7.769  0.4507 -0.6904 -1.1214
  152SAPE   C3816887   5.624   6.370   7.934 -0.6575  0.3826 -0.0749
  152SAPE   H8X16888   5.713   6.314   7.968 -1.0072 -0.5450 -0.6484
  152SAPE   H8Y16889   5.535   6.304   7.943 -1.2512  1.0336 -0.9850
  152SAPE   C3916890   5.597   6.492   8.026  0.4423 -0.6633 -0.3756
  152SAPE   H9X16891   5.505   6.543   7.988  0.5970  1.2365  1.5622
  152SAPE   H9Y16892   5.674   6.572   8.017  1.4482 -1.4573  0.8361
  152SAPE  C31016893   5.563   6.448   8.173  0.7856 -0.2158  0.3104
  152SAPE  H10X16894   5.637   6.387   8.229 -1.6664 -1.6181  2.2142
  152SAPE  H10Y16895   5.469   6.389   8.168  1.3633 -1.1416  0.2840
  152SAPE  C31116896   5.540   6.566   8.264 -0.2331 -0.3288  0.6982
  152SAPE  H11X16897   5.465   6.634   8.217  3.0962  1.7448 -2.0860
  152SAPE  H11Y16898   5.634   6.624   8.258  0.2599 -1.1238  0.6486
  152SAPE  C31216899   5.505   6.527   8.405 -0.3224 -0.5396  0.2543
  152SAPE  H12X16900   5.593   6.476   8.450  0.7737 -2.1423 -3.3294
  152SAPE  H12Y16901   5.422   6.453   8.404 -0.9507  0.1543 -0.5523
  152SAPE  C31316902   5.461   6.647   8.490 -0.2785 -0.5076  0.2015
  152SAPE  H13X16903   5.366   6.682   8.444 -1.2460 -4.7102 -1.5273
  152SAPE  H13Y16904   5.538   6.726   8.483 -1.0190  0.4452  2.1017
  152SAPE  C31416905   5.429   6.606   8.636 -0.0694 -0.8847 -0.2608
  152SAPE  H14X16906   5.509   6.537   8.669  0.8933 -0.1836 -1.0697
  152SAPE  H14Y16907   5.335   6.547   8.645  0.7844 -2.2312  0.0730
  152SAPE  C31516908   5.446   6.723   8.736  0.4775 -0.3628 -0.9295
  152SAPE  H15X16909   5.352   6.779   8.718 -1.7059 -2.5543  2.4803
  152SAPE  H15Y16910   5.534   6.786   8.711  0.6605 -0.7225 -1.1975
  152SAPE  C31616911   5.445   6.669   8.877  0.1266  0.1728  1.2182
  152SAPE  H16X16912   5.526   6.594   8.892 -0.3852 -0.0830  3.0973
  152SAPE  H16Y16913   5.350   6.615   8.899  0.6999 -2.4185 -1.9258
  152SAPE  C31716914   5.465   6.774   8.983 -0.0203 -0.0118  0.2674
  152SAPE  H17X16915   5.447   6.727   9.082 -0.8736  0.1796  0.2048
  152SAPE  H17Y16916   5.375   6.836   8.963  0.4698  0.4387 -0.5992
  152SAPE  C31816917   5.587   6.859   8.980 -1.3214 -0.7810 -0.1779
  152SAPE  H18X16918   5.565   6.937   8.904 -2.5890 -1.1776 -0.2499
  152SAPE  H18Y16919   5.676   6.800   8.951 -0.1324  0.2847  1.1534
  152SAPE  H18Z16920   5.607   6.912   9.076 -1.7270  1.4155 -1.2474
  153SAPE     N16921   0.858   4.954   6.378  1.2756  0.4492 -0.2984
  153SAPE   HN116922   0.813   5.048   6.376  1.6452  0.6605  0.8176
  153SAPE   HN216923   0.894   4.937   6.282 -0.7504  0.4747 -1.1052
  153SAPE   HN316924   0.785   4.884   6.402  0.3681  2.0639  2.0159
  153SAPE   C1216925   0.968   4.934   6.473 -0.4870 -0.4624  0.9766
  153SAPE  H12A16926   0.936   4.997   6.559  0.2640 -0.7249  1.4560
  153SAPE  H12B16927   1.057   4.984   6.430 -1.2399  0.0265 -0.0436
  153SAPE   C1116928   0.994   4.789   6.505  0.7419  0.3266 -0.1196
  153SAPE  H11A16929   0.902   4.737   6.540  1.5317 -1.1904 -0.2391
  153SAPE  H11B16930   1.067   4.790   6.589  1.0911  2.5312 -0.3806
  153SAPE     P16931   1.181   4.654   6.397 -0.0634  0.0906  0.2991
  153SAPE   O1316932   1.187   4.551   6.294 -0.4134 -0.2032 -0.0542
  153SAPE   O1416933   1.283   4.764   6.385  0.6419  0.0523 -0.3326
  153SAPE   O1216934   1.038   4.717   6.388  0.4142  0.2487 -0.2208
  153SAPE   O1116935   1.188   4.584   6.535  0.1647 -0.7068  0.3340
  153SAPE    C116936   1.311   4.523   6.575  0.6100 -0.1181 -0.0264
  153SAPE    HA16937   1.315   4.417   6.542 -1.9851  0.1060 -1.2820
  153SAPE    HB16938   1.391   4.581   6.526 -0.1401  0.4568 -0.5935
  153SAPE    C216939   1.339   4.545   6.731  0.6048  0.0680  0.0381
  153SAPE    HS16940   1.440   4.504   6.753 -0.0809 -1.8285 -0.1595
  153SAPE   O2116941   1.245   4.497   6.819 -0.7349 -0.1706  0.4281
  153SAPE   C2116942   1.243   4.363   6.818  0.2593  0.0793  0.0128
  153SAPE   O2216943   1.320   4.291   6.753  0.5089 -0.8497  0.4877
  153SAPE   C2216944   1.150   4.318   6.926 -0.1209  0.1853  0.4438
  153SAPE   H2R16945   1.042   4.332   6.906 -0.1891 -0.9014 -0.0433
  153SAPE   H2S16946   1.178   4.213   6.951  0.2858  0.8651  3.1730
  153SAPE    C316947   1.346   4.696   6.749  0.4066 -0.5490 -0.3078
  153SAPE    HX16948   1.250   4.751   6.764  0.8650  0.6968 -1.7007
  153SAPE    HY16949   1.389   4.751   6.663 -2.1569  4.5322  1.2552
  153SAPE   O3116950   1.431   4.708   6.871  0.5891 -0.0790  0.2585
  153SAPE   C3116951   1.429   4.834   6.926  0.5744  0.0775  0.9229
  153SAPE   O3216952   1.364   4.924   6.876  0.4627 -0.3936  0.0752
  153SAPE   C3216953   1.506   4.827   7.056  0.6843 -0.1119 -0.5021
  153SAPE   H2X16954   1.594   4.892   7.039 -0.2696  1.0198 -1.2923
  153SAPE   H2Y16955   1.539   4.722   7.069  2.7471  0.5573 -0.0350
  153SAPE   C2316956   1.176   4.406   7.057 -0.2719 -0.2755  0.2661
  153SAPE   H3R16957   1.151   4.512   7.038  0.2455  0.0283  1.1631
  153SAPE   H3S16958   1.279   4.395   7.100  0.2045 -3.7987 -1.4529
  153SAPE   C2416959   1.080   4.365   7.174  0.5670  0.1549 -0.1291
  153SAPE   H4R16960   0.988   4.329   7.123 -0.1622  1.9311 -0.1143
  153SAPE   H4S16961   1.054   4.455   7.234  1.0536 -0.2178  0.6551
  153SAPE   C2516962   1.139   4.267   7.267  0.8340 -0.1579 -0.8865
  153SAPE   H5R16963   1.150   4.162   7.238  1.1352 -0.0236 -1.2750
  153SAPE   C2616964   1.173   4.295   7.397 -0.0788 -0.5448  0.3697
  153SAPE   H6R16965   1.195   4.208   7.460 -2.6887  0.9085  3.6505
  153SAPE   C2716966   1.166   4.430   7.470 -0.1110 -0.1341  0.5870
  153SAPE   H7R16967   1.180   4.507   7.391  0.0340 -0.9691 -0.2121
  153SAPE   H7S16968   1.249   4.446   7.542  0.6845 -0.0609 -0.3273
  153SAPE   C2816969   1.033   4.454   7.535  0.2707 -0.3933 -0.7544
  153SAPE   H8R16970   0.948   4.406   7.484 -0.8967  2.0359 -1.2891
  153SAPE   C2916971   1.004   4.541   7.635 -0.0472  0.3770 -0.5075
  153SAPE   H9R16972   0.900   4.533   7.670  0.8131 -1.2263  1.9408
  153SAPE  C21016973   1.104   4.627   7.712 -0.3671  0.3281 -0.3718
  153SAPE  H10R16974   1.101   4.720   7.652  0.9706  0.1613 -0.7478
  153SAPE  H10S16975   1.206   4.582   7.712 -0.8847 -0.9440  1.1850
  153SAPE  C21116976   1.053   4.650   7.852 -0.7221  0.7628 -0.4563
  153SAPE  H11R16977   0.971   4.722   7.864  0.5701  2.2676 -0.2159
  153SAPE  C21216978   1.107   4.590   7.959 -0.3543  0.4107 -0.0144
  153SAPE  H12R16979   1.067   4.609   8.060  0.8026  1.7934  0.2067
  153SAPE  C21316980   1.214   4.483   7.948  0.0899  0.3926 -0.2690
  153SAPE  H13R16981   1.310   4.519   7.903  0.9164  0.5252  1.5029
  153SAPE  H13S16982   1.189   4.403   7.876  3.0353  1.8189 -3.1741
  153SAPE  C21416983   1.242   4.416   8.074  1.0744 -0.0847  0.0962
  153SAPE  H14R16984   1.168   4.339   8.105  0.8809  0.6286  1.5010
  153SAPE  C21516985   1.351   4.421   8.154  0.3122 -0.1255  0.2610
  153SAPE  H15R16986   1.359   4.357   8.243  0.0690 -1.6323 -0.7643
  153SAPE  C21616987   1.469   4.512   8.134 -0.2770  0.4930 -0.4869
  153SAPE  H16R16988   1.460   4.578   8.046  0.9595 -0.8591 -1.6875
  153SAPE  H16S16989   1.557   4.450   8.106 -1.7187 -0.2248 -3.9670
  153SAPE  C21716990   1.501   4.601   8.264 -0.2008 -1.2001  0.2655
  153SAPE  H17R16991   1.524   4.539   8.353  1.2555  0.5278  1.1576
  153SAPE  H17S16992   1.408   4.654   8.296 -0.5526 -0.1549 -2.1973
  153SAPE  C21816993   1.605   4.708   8.224 -0.7653 -0.3100 -0.5024
  153SAPE  H18R16994   1.640   4.779   8.302 -3.9332  1.1951 -0.2764
  153SAPE  H18S16995   1.565   4.764   8.137  2.1840  0.3033 -1.5906
  153SAPE  C21916996   1.742   4.653   8.167 -0.6482  0.9264 -0.4594
  153SAPE  H19R16997   1.807   4.743   8.159  0.5172  0.7223  3.9276
  153SAPE  H19S16998   1.729   4.607   8.067  0.7477 -0.8752  0.1456
  153SAPE  C22016999   1.813   4.539   8.251 -0.7836 -1.0851 -0.1437
  153SAPE  H20R17000   1.843   4.575   8.352 -0.9853  0.9450 -0.7803
  153SAPE  H20S17001   1.905   4.504   8.200 -0.0885 -0.8210  0.8990
  153SAPE  H20T17002   1.752   4.447   8.267 -0.8890 -1.0999 -0.6365
  153SAPE   C3317003   1.421   4.875   7.178 -0.1274  0.0839  0.7775
  153SAPE   H3X17004   1.333   4.808   7.183 -1.3472  1.7137  2.0807
  153SAPE   H3Y17005   1.380   4.975   7.153  1.3675  0.0975 -2.0445
  153SAPE   C3417006   1.503   4.885   7.305 -0.2844  0.4595  0.4821
  153SAPE   H4X17007   1.552   4.985   7.306  0.3902  0.1325  0.5666
  153SAPE   H4Y17008   1.579   4.804   7.304 -0.9841 -0.2152  0.7699
  153SAPE   C3517009   1.408   4.863   7.420 -0.1071  0.4236  0.5994
  153SAPE   H5X17010   1.369   4.759   7.428  1.1571 -0.0043  1.3619
  153SAPE   H5Y17011   1.323   4.934   7.404 -0.3756 -0.1200 -0.5486
  153SAPE   C3617012   1.475   4.905   7.544  0.1487  0.1562 -1.0203
  153SAPE   H6X17013   1.544   4.991   7.528 -0.6730  0.9521 -0.3851
  153SAPE   H6Y17014   1.544   4.823   7.570  1.1609  1.3686  0.2995
  153SAPE   C3717015   1.380   4.948   7.663  0.2267  0.5653 -0.2569
  153SAPE   H7X17016   1.319   4.860   7.691 -0.0488  0.7401 -0.2957
  153SAPE   H7Y17017   1.313   5.033   7.638 -1.5009 -0.6369  0.1218
  153SAPE   C3817018   1.473   4.996   7.781  1.0709  0.1707 -0.0132
  153SAPE   H8X17019   1.540   5.070   7.732  1.7488 -1.9920 -2.6342
  153SAPE   H8Y17020   1.542   4.914   7.812 -0.7725 -1.9880 -1.2352
  153SAPE   C3917021   1.407   5.052   7.908  0.2126  0.3208  0.4218
  153SAPE   H9X17022   1.327   4.985   7.944  1.2464 -0.1162  1.9892
  153SAPE   H9Y17023   1.361   5.151   7.887  2.4678  1.3400 -0.0377
  153SAPE  C31017024   1.506   5.070   8.025  0.7480 -0.3267  0.6926
  153SAPE  H10X17025   1.591   5.133   7.990 -0.4286 -0.6050 -2.9978
  153SAPE  H10Y17026   1.540   4.972   8.065 -0.7478  0.0663  3.1697
  153SAPE  C31117027   1.457   5.152   8.154 -0.1366  0.0250  0.4646
  153SAPE  H11X17028   1.418   5.251   8.124  0.7395  0.0484 -0.7106
  153SAPE  H11Y17029   1.550   5.156   8.213  0.9941  1.5538 -1.3099
  153SAPE  C31217030   1.357   5.070   8.229 -0.1605  0.1158 -0.4793
  153SAPE  H12X17031   1.394   4.968   8.253  1.4897  0.4409 -1.5063
  153SAPE  H12Y17032   1.277   5.039   8.159 -0.2909 -3.1854  0.9326
  153SAPE  C31317033   1.291   5.150   8.338  0.5123  0.0836  0.0663
  153SAPE  H13X17034   1.217   5.077   8.376 -1.4520  1.7825 -0.2965
  153SAPE  H13Y17035   1.237   5.241   8.305  3.6357  2.1998  0.3084
  153SAPE  C31417036   1.382   5.197   8.449  0.3618 -0.2444 -0.2521
  153SAPE  H14X17037   1.444   5.284   8.417  1.2508 -1.5657 -2.3761
  153SAPE  H14Y17038   1.460   5.128   8.489  0.5034  1.0503  1.8430
  153SAPE  C31517039   1.297   5.241   8.567  0.4096  0.2377  0.7106
  153SAPE  H15X17040   1.246   5.150   8.604  0.2759  0.2139  0.4751
  153SAPE  H15Y17041   1.225   5.323   8.542 -0.3131  0.6286  3.7419
  153SAPE  C31617042   1.377   5.309   8.687  0.3775 -0.0430 -0.3980
  153SAPE  H16X17043   1.428   5.234   8.751  0.5920  2.1803  2.2598
  153SAPE  H16Y17044   1.298   5.341   8.759  1.1016 -0.0699  0.4255
  153SAPE  C31717045   1.453   5.436   8.651  0.2386 -0.3612  0.3592
  153SAPE  H17X17046   1.449   5.507   8.736  0.0892 -2.2140  1.9499
  153SAPE  H17Y17047   1.416   5.484   8.558  1.5430 -0.9940 -0.5209
  153SAPE  C31817048   1.604   5.419   8.619 -0.0965  0.4454  0.4884
  153SAPE  H18X17049   1.615   5.348   8.534  0.4368  0.0329  0.8957
  153SAPE  H18Y17050   1.661   5.377   8.704 -0.4883 -1.0905  0.0412
  153SAPE  H18Z17051   1.651   5.516   8.593 -0.3762  0.3252 -0.5259
  154SAPE     N17052   6.713   5.924   6.484  0.3778 -0.4056 -0.3132
  154SAPE   HN117053   6.766   5.858   6.424  2.8958 -1.1343  2.4182
  154SAPE   HN217054   6.629   5.947   6.428  0.2636 -1.7387 -0.7253
  154SAPE   HN317055   6.770   6.011   6.491  1.0937 -0.9325  0.8791
  154SAPE   C1217056   6.669   5.870   6.620  0.4358 -0.2692 -0.3847
  154SAPE  H12A17057   6.585   5.934   6.654  0.2345 -0.3047 -0.8194
  154SAPE  H12B17058   6.751   5.881   6.695 -0.3246  2.2156  0.1968
  154SAPE   C1117059   6.631   5.719   6.613 -0.4449  0.1865  0.0532
  154SAPE  H11A17060   6.625   5.685   6.719 -0.2819 -1.1390 -0.3519
  154SAPE  H11B17061   6.713   5.666   6.561  0.7033  0.8196  1.1686
  154SAPE     P17062   6.487   5.636   6.415  0.3476 -0.2270 -0.2157
  154SAPE   O1317063   6.373   5.712   6.356  0.2184  0.0365 -0.0075
  154SAPE   O1417064   6.621   5.638   6.345  0.2016  0.1608 -0.4921
  154SAPE   O1217065   6.501   5.694   6.559  0.0251  0.4258 -0.3650
  154SAPE   O1117066   6.442   5.489   6.444 -0.5612  0.0457  0.4367
  154SAPE    C117067   6.542   5.400   6.501  0.2300 -0.5512  0.5670
  154SAPE    HA17068   6.566   5.318   6.431  1.8667 -0.3057  0.8019
  154SAPE    HB17069   6.642   5.444   6.523  1.1513 -2.5740  0.6252
  154SAPE    C217070   6.489   5.327   6.635  0.3011  0.3849 -0.3997
  154SAPE    HS17071   6.402   5.264   6.606 -0.7716  1.0349  1.2850
  154SAPE   O2117072   6.452   5.429   6.725 -0.6144 -0.1957 -0.4155
  154SAPE   C2117073   6.327   5.465   6.710 -0.6874  0.1582  0.2433
  154SAPE   O2217074   6.242   5.424   6.636 -0.4064 -0.3677 -0.3567
  154SAPE   C2217075   6.292   5.589   6.799  0.2537 -0.3860 -0.7742
  154SAPE   H2R17076   6.329   5.670   6.732 -1.6451 -0.7913 -2.4173
  154SAPE   H2S17077   6.181   5.602   6.793 -0.0564 -0.8167  2.5459
  154SAPE    C317078   6.602   5.237   6.683 -0.3060  0.2071  0.4987
  154SAPE    HX17079   6.681   5.290   6.740  0.1069 -2.0677  2.1711
  154SAPE    HY17080   6.663   5.184   6.607  2.0510 -1.0051  3.1004
  154SAPE   O3117081   6.543   5.124   6.757  0.6398  0.1918  0.0767
  154SAPE   C3117082   6.625   5.049   6.824 -0.1540 -0.2819 -0.7101
  154SAPE   O3217083   6.746   5.060   6.820  0.1796 -0.2617  0.2530
  154SAPE   C3217084   6.555   4.941   6.901 -0.1225 -0.6594  0.9430
  154SAPE   H2X17085   6.511   4.882   6.817 -0.1693 -1.0850  1.2604
  154SAPE   H2Y17086   6.471   4.986   6.959 -2.0453 -0.8352 -1.5318
  154SAPE   C2317087   6.344   5.591   6.942  0.7190 -0.2069 -0.5093
  154SAPE   H3R17088   6.338   5.685   7.001  0.8043 -1.1849  1.1212
  154SAPE   H3S17089   6.453   5.569   6.944  0.8063  0.2388 -0.0969
  154SAPE   C2417090   6.271   5.474   7.027 -0.1976  0.2241  0.4626
  154SAPE   H4R17091   6.329   5.477   7.122  0.2657  1.8310  0.1559
  154SAPE   H4S17092   6.307   5.378   6.986 -0.8634  0.2370 -0.1640
  154SAPE   C2517093   6.116   5.479   7.020 -0.3528 -0.0718  0.3100
  154SAPE   H5R17094   6.077   5.464   6.918 -0.7384 -0.0847  0.4550
  154SAPE   C2617095   6.036   5.486   7.125  0.1964  0.1578 -0.0655
  154SAPE   H6R17096   5.927   5.481   7.108  0.3006 -0.9477 -0.5193
  154SAPE   C2717097   6.081   5.483   7.261  0.7625 -0.6067  0.1981
  154SAPE   H7R17098   5.999   5.514   7.329  0.8744  0.4757 -0.1516
  154SAPE   H7S17099   6.165   5.553   7.279  2.8097 -2.4755 -1.5086
  154SAPE   C2817100   6.133   5.345   7.313 -0.6205  0.7243 -0.3076
  154SAPE   H8R17101   6.125   5.260   7.244  1.4874  0.1962  0.0412
  154SAPE   C2917102   6.190   5.328   7.438  0.4451  0.6956 -0.3628
  154SAPE   H9R17103   6.217   5.227   7.472  0.0464  0.2637 -1.2941
  154SAPE  C21017104   6.205   5.435   7.538  0.0407  0.5015  0.8816
  154SAPE  H10R17105   6.215   5.534   7.490  1.6274 -0.2351 -0.4172
  154SAPE  H10S17106   6.300   5.418   7.594 -0.2664 -1.6846  0.8514
  154SAPE  C21117107   6.107   5.447   7.650 -0.5934  0.5790 -0.0823
  154SAPE  H11R17108   6.007   5.452   7.606  0.5743  0.6516 -2.9988
  154SAPE  C21217109   6.135   5.485   7.771  0.1491 -0.4242  0.2762
  154SAPE  H12R17110   6.049   5.493   7.839  1.0140  0.1994  1.3459
  154SAPE  C21317111   6.267   5.508   7.835  0.0627  0.0092 -0.9887
  154SAPE  H13R17112   6.354   5.518   7.766  1.0344 -2.8854 -0.3535
  154SAPE  H13S17113   6.286   5.413   7.891 -0.7208  0.7571  0.5862
  154SAPE  C21417114   6.274   5.632   7.920  0.3493 -0.1864 -0.7258
  154SAPE  H14R17115   6.301   5.724   7.865 -2.4762  1.8632  1.0766
  154SAPE  C21517116   6.239   5.657   8.057  0.0217  0.1821  0.5828
  154SAPE  H15R17117   6.233   5.761   8.092 -1.2421  0.1705  0.4277
  154SAPE  C21617118   6.176   5.551   8.143 -0.1711  0.0299  0.4605
  154SAPE  H16R17119   6.126   5.476   8.079  1.1199 -1.8071  1.4985
  154SAPE  H16S17120   6.098   5.598   8.206  0.5345 -0.0863  1.4464
  154SAPE  C21717121   6.272   5.465   8.228 -0.2149 -0.2655 -0.2538
  154SAPE  H17R17122   6.325   5.529   8.302 -2.8183  2.1185 -0.2943
  154SAPE  H17S17123   6.349   5.417   8.164  1.4379  0.6999  0.9238
  154SAPE  C21817124   6.198   5.361   8.316 -0.5523 -0.0812 -0.2878
  154SAPE  H18R17125   6.146   5.298   8.240 -1.6995  0.9474 -0.3908
  154SAPE  H18S17126   6.128   5.416   8.382  0.1151  0.7100 -0.2191
  154SAPE  C21917127   6.287   5.280   8.404  0.1288  0.5692 -0.2392
  154SAPE  H19R17128   6.318   5.353   8.482  0.4402  1.8716 -1.5259
  154SAPE  H19S17129   6.383   5.247   8.358 -1.3558 -2.6889 -1.2506
  154SAPE  C22017130   6.209   5.156   8.456  0.3900 -0.4324 -0.5130
  154SAPE  H20R17131   6.111   5.187   8.497  1.0911 -2.5587  3.1695
  154SAPE  H20S17132   6.266   5.097   8.531 -1.6364  0.8362  2.1833
  154SAPE  H20T17133   6.198   5.089   8.368 -2.2327  0.1112 -0.6746
  154SAPE   C3317134   6.652   4.850   6.973  0.1181 -0.5262  0.2896
  154SAPE   H3X17135   6.746   4.835   6.915  1.5614  2.5840  1.5527
  154SAPE   H3Y17136   6.603   4.753   6.994  1.2996 -1.3664 -0.6485
  154SAPE   C3417137   6.699   4.907   7.103  0.3642 -0.0628 -0.0340
  154SAPE   H4X17138   6.751   5.003   7.083 -1.5746  0.8123 -1.1745
  154SAPE   H4Y17139   6.780   4.842   7.144 -0.3848 -0.6756  0.5174
  154SAPE   C3517140   6.594   4.918   7.208  0.6614  0.7158 -0.2928
  154SAPE   H5X17141   6.553   4.816   7.220 -0.3207  1.1492  0.0927
  154SAPE   H5Y17142   6.510   4.977   7.165 -0.1208 -0.4161 -0.3463
  154SAPE   C3617143   6.642   4.947   7.346  0.3905 -0.5474  0.1823
  154SAPE   H6X17144   6.556   5.003   7.389  1.4378  0.8023  0.5809
  154SAPE   H6Y17145   6.716   5.029   7.345 -0.2245  0.0432 -1.9679
  154SAPE   C3717146   6.677   4.832   7.438 -0.2112  0.0991 -0.2332
  154SAPE   H7X17147   6.779   4.793   7.417 -0.7547 -1.0896 -0.7781
  154SAPE   H7Y17148   6.611   4.744   7.423  1.0512 -0.6748 -1.4322
  154SAPE   C3817149   6.650   4.861   7.587  0.4575  0.0879 -0.4714
  154SAPE   H8X17150   6.540   4.871   7.600  0.5954  0.3521  0.6093
  154SAPE   H8Y17151   6.701   4.955   7.617  0.1644  0.0579  0.1229
  154SAPE   C3917152   6.686   4.743   7.674 -0.3669 -0.7875 -0.7391
  154SAPE   H9X17153   6.792   4.726   7.643 -0.3259  0.9723 -1.7240
  154SAPE   H9Y17154   6.626   4.652   7.656  0.2156 -0.9842 -1.8007
  154SAPE  C31017155   6.682   4.792   7.825  0.4984  0.3421 -0.4024
  154SAPE  H10X17156   6.753   4.875   7.846 -1.2570  1.1203  3.2103
  154SAPE  H10Y17157   6.727   4.718   7.895 -1.4951  0.8214  1.4727
  154SAPE  C31117158   6.546   4.821   7.887  0.0207  0.1662 -0.0620
  154SAPE  H11X17159   6.473   4.739   7.871  0.0170  0.3156 -0.8761
  154SAPE  H11Y17160   6.499   4.910   7.839 -1.7003 -0.1214  0.9896
  154SAPE  C31217161   6.554   4.837   8.040 -0.8204 -0.0088  0.4205
  154SAPE  H12X17162   6.618   4.926   8.061 -0.7480 -0.1058  0.6147
  154SAPE  H12Y17163   6.603   4.742   8.069  0.9981  0.8152  0.1946
  154SAPE  C31317164   6.420   4.856   8.116  0.2689 -0.2756 -0.3439
  154SAPE  H13X17165   6.342   4.782   8.085 -0.1933  0.2094 -0.3620
  154SAPE  H13Y17166   6.390   4.958   8.085 -0.1667 -0.0261  0.8340
  154SAPE  C31417167   6.429   4.856   8.284  0.1047 -0.0985 -0.3197
  154SAPE  H14X17168   6.488   4.765   8.311  0.1465  0.1969  0.6273
  154SAPE  H14Y17169   6.331   4.844   8.335  1.4754 -0.7482  2.3833
  154SAPE  C31517170   6.509   4.971   8.338  0.4200  0.0071  1.2471
  154SAPE  H15X17171   6.441   5.058   8.351 -1.2281 -0.9297 -0.5450
  154SAPE  H15Y17172   6.584   4.990   8.258 -0.5894 -0.8448  0.0473
  154SAPE  C31617173   6.573   4.949   8.484  0.4757 -0.4168 -0.1724
  154SAPE  H16X17174   6.492   4.923   8.555  1.4841  1.6788  1.8832
  154SAPE  H16Y17175   6.618   5.045   8.519  0.6675 -1.1062  1.5620
  154SAPE  C31717176   6.693   4.856   8.496 -0.2865  0.3659 -0.4578
  154SAPE  H17X17177   6.779   4.895   8.436  0.6940 -1.2901 -0.1876
  154SAPE  H17Y17178   6.659   4.755   8.467  1.8472 -0.2882 -0.8848
  154SAPE  C31817179   6.736   4.849   8.643 -0.0907  0.3575 -0.3351
  154SAPE  H18X17180   6.731   4.953   8.682  0.0904  0.6888 -1.1729
  154SAPE  H18Y17181   6.836   4.807   8.667 -0.1172 -0.8490 -2.1699
  154SAPE  H18Z17182   6.666   4.782   8.698  1.9153 -1.3832  0.2220
  155SAPE     N17183   1.224   4.087   6.444 -0.5746  0.2879  0.6081
  155SAPE   HN117184   1.175   4.033   6.517 -0.8212 -0.7758 -0.3100
  155SAPE   HN217185   1.314   4.120   6.485 -0.2551 -0.1941  0.3099
  155SAPE   HN317186   1.161   4.169   6.436 -2.9759 -1.3012  1.9728
  155SAPE   C1217187   1.241   4.005   6.314  0.2708 -0.0397 -0.6691
  155SAPE  H12A17188   1.236   3.898   6.342 -0.1239 -0.1114 -1.0134
  155SAPE  H12B17189   1.343   4.025   6.273 -0.2971 -1.8327 -3.2266
  155SAPE   C1117190   1.129   4.051   6.219  0.5854 -0.4884 -0.6253
  155SAPE  H11A17191   1.139   3.986   6.130 -1.8036 -0.7488 -0.7687
  155SAPE  H11B17192   1.143   4.160   6.200  1.2850  0.1022  2.6595
  155SAPE     P17193   0.922   3.896   6.250 -0.1683  0.2494  0.4850
  155SAPE   O1317194   0.883   3.890   6.108  0.3696  0.7680  0.2339
  155SAPE   O1417195   0.999   3.776   6.293  0.0513 -0.3707 -0.7354
  155SAPE   O1217196   1.004   4.022   6.281 -0.0547  0.2302 -0.4293
  155SAPE   O1117197   0.791   3.905   6.335  0.0475 -0.2927  0.0664
  155SAPE    C117198   0.727   4.029   6.379  0.0212  0.5577 -0.1686
  155SAPE    HA17199   0.740   4.114   6.309  0.8163  0.7709  0.2289
  155SAPE    HB17200   0.617   4.014   6.382  0.0285  0.2851 -1.0795
  155SAPE    C217201   0.794   4.068   6.514  0.5694 -0.1488  0.2166
  155SAPE    HS17202   0.891   4.110   6.480 -0.3811  0.5244 -1.8752
  155SAPE   O2117203   0.798   3.970   6.610 -0.4818 -0.3300  0.3000
  155SAPE   C2117204   0.921   3.943   6.661  0.1248 -0.4167 -0.1946
  155SAPE   O2217205   1.024   3.977   6.612  0.2360  0.2350 -0.2679
  155SAPE   C2217206   0.905   3.871   6.794 -0.6339  0.3275 -0.2106
  155SAPE   H2R17207   0.795   3.861   6.806 -0.9104  1.6534 -1.3979
  155SAPE   H2S17208   0.946   3.769   6.778 -0.3347  0.6540 -1.6808
  155SAPE    C317209   0.715   4.191   6.568 -0.3160  0.1955  0.6606
  155SAPE    HX17210   0.714   4.268   6.487  1.1734  0.2411  0.6695
  155SAPE    HY17211   0.778   4.242   6.644  1.7844 -1.3802  0.0465
  155SAPE   O3117212   0.590   4.155   6.626 -0.1828  1.1045  0.0358
  155SAPE   C3117213   0.519   4.244   6.693 -0.0318  0.3289  0.3905
  155SAPE   O3217214   0.538   4.362   6.685  0.1465 -0.3887  0.0623
  155SAPE   C3217215   0.395   4.171   6.745 -0.7206 -0.3580  0.7792
  155SAPE   H2X17216   0.356   4.114   6.658 -1.3714 -0.4424  1.1183
  155SAPE   H2Y17217   0.319   4.243   6.783  0.6333  1.9136 -0.5533
  155SAPE   C2317218   0.978   3.932   6.917  0.1942  0.3517  0.1635
  155SAPE   H3R17219   1.086   3.948   6.895 -0.2417  0.0825 -2.4364
  155SAPE   H3S17220   0.969   3.852   6.994 -3.4785  0.2755 -0.1762
  155SAPE   C2417221   0.908   4.052   6.983  0.2946  0.7114  0.0123
  155SAPE   H4R17222   0.893   4.130   6.905  1.3167 -1.3166 -2.3678
  155SAPE   H4S17223   0.979   4.096   7.055  0.6750 -0.2923  0.2680
  155SAPE   C2517224   0.777   4.022   7.047 -0.2322 -0.1960  0.3278
  155SAPE   H5R17225   0.694   4.009   6.976  0.7356  0.6833 -1.0203
  155SAPE   C2617226   0.745   4.027   7.180  0.3369 -0.9264  0.3470
  155SAPE   H6R17227   0.638   4.036   7.206 -0.0210 -0.6660 -1.1470
  155SAPE   C2717228   0.836   4.052   7.299  0.4693 -0.7662  0.5279
  155SAPE   H7R17229   0.832   4.157   7.335  0.6289 -0.4314 -0.4009
  155SAPE   H7S17230   0.944   4.053   7.273  0.3437  1.1347 -0.0821
  155SAPE   C2817231   0.834   3.944   7.399  0.5566  0.8549 -0.0013
  155SAPE   H8R17232   0.855   3.838   7.377  0.5856  0.7136  0.6583
  155SAPE   C2917233   0.814   3.960   7.532 -0.2723  0.4866  0.2277
  155SAPE   H9R17234   0.819   3.873   7.600 -2.7391  2.9832  4.0110
  155SAPE  C21017235   0.766   4.095   7.591 -0.0769  0.2099 -0.2171
  155SAPE  H10R17236   0.677   4.081   7.656  1.7477  1.1650  2.6319
  155SAPE  H10S17237   0.741   4.162   7.506  2.9861 -0.7329 -2.0254
  155SAPE  C21117238   0.875   4.164   7.672  0.5969 -0.6353  0.2130
  155SAPE  H11R17239   0.956   4.199   7.607  0.1992  0.2310  0.1744
  155SAPE  C21217240   0.877   4.204   7.796  0.6010 -0.3985 -0.4607
  155SAPE  H12R17241   0.969   4.240   7.844 -0.2921 -1.5594  2.3457
  155SAPE  C21317242   0.761   4.195   7.891 -0.1220  0.2776  0.3362
  155SAPE  H13R17243   0.760   4.103   7.953  1.5392 -1.2575 -1.7855
  155SAPE  H13S17244   0.664   4.183   7.839  0.7320  2.2132 -1.8878
  155SAPE  C21417245   0.753   4.320   7.973  0.2324  0.4392 -0.0095
  155SAPE  H14R17246   0.750   4.402   7.900  0.2108  1.1131  0.7322
  155SAPE  C21517247   0.759   4.356   8.100 -0.1984  0.0337 -0.2174
  155SAPE  H15R17248   0.746   4.461   8.130  0.3024 -0.1755  0.7749
  155SAPE  C21617249   0.789   4.257   8.209 -0.0996 -0.0570 -0.6618
  155SAPE  H16R17250   0.750   4.159   8.176 -2.3174  0.4420  0.2754
  155SAPE  H16S17251   0.736   4.289   8.302 -0.2558  0.8807 -1.0584
  155SAPE  C21717252   0.941   4.253   8.238  0.4384  0.4110  0.1718
  155SAPE  H17R17253   0.989   4.353   8.244  0.3406  0.4539  0.2448
  155SAPE  H17S17254   0.994   4.194   8.160 -0.1726 -0.4279  0.3694
  155SAPE  C21817255   0.979   4.190   8.378  0.9514 -0.5882  0.3353
  155SAPE  H18R17256   0.919   4.260   8.441 -0.6428 -1.9811  0.4451
  155SAPE  H18S17257   1.087   4.196   8.400  0.5197 -0.1381  2.5786
  155SAPE  C21917258   0.911   4.056   8.405  0.2126  0.5613 -0.0684
  155SAPE  H19R17259   0.957   3.974   8.346  0.3532  0.3345  0.3559
  155SAPE  H19S17260   0.805   4.050   8.372 -0.0588 -0.1639  0.9152
  155SAPE  C22017261   0.924   4.015   8.552 -0.2331  0.1662 -0.2724
  155SAPE  H20R17262   1.025   3.982   8.583  1.6207  3.5215 -2.1612
  155SAPE  H20S17263   0.851   3.933   8.572 -1.0211  1.0193  0.4429
  155SAPE  H20T17264   0.887   4.098   8.615 -3.0603 -0.7331 -0.5985
  155SAPE   C3317265   0.427   4.071   6.858  0.3733  0.4049 -0.0844
  155SAPE   H3X17266   0.532   4.036   6.859  0.1102 -0.5157  2.5202
  155SAPE   H3Y17267   0.375   3.975   6.841 -0.5493  0.8969 -0.1120
  155SAPE   C3417268   0.392   4.135   6.997  0.0997 -0.3593  0.4973
  155SAPE   H4X17269   0.299   4.194   6.984 -0.6789 -1.0629  2.4467
  155SAPE   H4Y17270   0.475   4.203   7.025 -1.9062  1.7204  1.7603
  155SAPE   C3517271   0.376   4.029   7.113 -0.1394 -0.1269  0.0586
  155SAPE   H5X17272   0.462   3.959   7.105  2.4354  2.7446  0.4180
  155SAPE   H5Y17273   0.277   3.980   7.106  0.7729 -1.8812 -1.6666
  155SAPE   C3617274   0.365   4.094   7.251  0.1051  0.2681  0.1986
  155SAPE   H6X17275   0.281   4.166   7.255  0.6491  0.8973  0.5628
  155SAPE   H6Y17276   0.456   4.157   7.261 -0.2619  0.9923 -0.7964
  155SAPE   C3717277   0.374   4.000   7.376 -0.0955 -0.0053  0.2314
  155SAPE   H7X17278   0.476   3.957   7.371  0.1506  0.6504 -0.5660
  155SAPE   H7Y17279   0.305   3.916   7.358 -0.9847  0.5648  0.8755
  155SAPE   C3817280   0.332   4.058   7.518 -0.3973 -0.4217  0.4648
  155SAPE   H8X17281   0.231   4.103   7.508 -1.0101 -1.2156  2.5753
  155SAPE   H8Y17282   0.416   4.126   7.545  1.2207 -1.7885 -0.9108
  155SAPE   C3917283   0.321   3.952   7.632 -0.6839  0.5702 -0.9860
  155SAPE   H9X17284   0.415   3.894   7.623 -0.2694  1.2457 -1.0212
  155SAPE   H9Y17285   0.235   3.884   7.611 -4.2449  3.3643  2.8312
  155SAPE  C31017286   0.297   3.995   7.781  0.0580  0.0075 -0.7287
  155SAPE  H10X17287   0.322   3.911   7.850  1.6570 -0.0838 -1.3839
  155SAPE  H10Y17288   0.192   4.025   7.802  0.1649  3.0084 -3.7951
  155SAPE  C31117289   0.393   4.108   7.822 -0.4422  0.0065  0.6934
  155SAPE  H11X17290   0.389   4.185   7.743 -0.5607 -1.7802 -1.1399
  155SAPE  H11Y17291   0.498   4.070   7.819  0.4096  2.3273 -1.5975
  155SAPE  C31217292   0.381   4.174   7.958  0.0992 -0.5363  0.7898
  155SAPE  H12X17293   0.287   4.233   7.960  0.1792 -0.4205  2.5997
  155SAPE  H12Y17294   0.468   4.240   7.982 -0.1675  0.6477 -1.2169
  155SAPE  C31317295   0.356   4.072   8.075 -0.4796  0.6736  0.4755
  155SAPE  H13X17296   0.435   3.995   8.083 -0.3104  0.3374 -2.9582
  155SAPE  H13Y17297   0.271   4.007   8.045 -1.4085  1.8742  0.4370
  155SAPE  C31417298   0.325   4.126   8.217  0.4959  0.0515  0.5547
  155SAPE  H14X17299   0.300   4.043   8.288 -0.5449  0.2445  0.4331
  155SAPE  H14Y17300   0.236   4.192   8.217 -0.9649 -1.7268  2.9501
  155SAPE  C31517301   0.437   4.211   8.276 -0.0812  0.2431  0.4377
  155SAPE  H15X17302   0.467   4.297   8.211  1.8848 -0.4039  0.4475
  155SAPE  H15Y17303   0.529   4.150   8.287  1.2281  1.9612 -0.5181
  155SAPE  C31617304   0.398   4.257   8.425 -0.1968  0.4670  0.4277
  155SAPE  H16X17305   0.491   4.297   8.471  1.6540  1.2279 -3.5636
  155SAPE  H16Y17306   0.366   4.169   8.484 -0.4950  0.2008 -0.1258
  155SAPE  C31717307   0.292   4.361   8.448 -0.1623 -0.2877  0.3310
  155SAPE  H17X17308   0.192   4.332   8.408 -0.3247  0.9597 -0.2424
  155SAPE  H17Y17309   0.320   4.447   8.383 -0.5758 -1.1782 -1.0878
  155SAPE  C31817310   0.283   4.409   8.593 -0.3377  0.2976 -0.4689
  155SAPE  H18X17311   0.209   4.492   8.605 -0.3298  0.4723 -1.4768
  155SAPE  H18Y17312   0.384   4.446   8.620  0.2100 -1.7865  0.4988
  155SAPE  H18Z17313   0.259   4.325   8.661 -0.6106  1.3826  0.8272
  156SAPE     N17314   4.364   6.370   6.578  0.3620  0.0517  0.3458
  156SAPE   HN117315   4.408   6.459   6.608  1.1048  0.4488 -1.7544
  156SAPE   HN217316   4.437   6.309   6.535  0.5674 -1.1488  2.2894
  156SAPE   HN317317   4.291   6.402   6.511  1.4256  1.6978 -0.0873
  156SAPE   C1217318   4.297   6.314   6.698 -0.0447  0.4517 -0.6373
  156SAPE  H12A17319   4.354   6.223   6.728  0.4652 -0.0029 -2.7527
  156SAPE  H12B17320   4.196   6.280   6.668 -0.4100  1.2588 -0.3527
  156SAPE   C1117321   4.288   6.411   6.816  0.8738  0.4377  0.9587
  156SAPE  H11A17322   4.386   6.443   6.857 -0.2497  2.6287  2.0923
  156SAPE  H11B17323   4.231   6.361   6.897 -3.1467  0.5420 -1.4947
  156SAPE     P17324   4.064   6.539   6.770  0.6362 -0.2632 -0.4880
  156SAPE   O1317325   4.029   6.684   6.769  0.3484  0.2661 -0.3331
  156SAPE   O1417326   4.019   6.455   6.661  0.3486  0.2052  0.0834
  156SAPE   O1217327   4.221   6.532   6.776 -0.3652 -0.2850 -0.1564
  156SAPE   O1117328   4.024   6.472   6.912 -0.1951  0.0005 -0.3119
  156SAPE    C117329   3.892   6.443   6.938 -0.0810  0.3691  0.2998
  156SAPE    HA17330   3.816   6.501   6.882  0.7789  2.7909  1.5097
  156SAPE    HB17331   3.879   6.336   6.911  0.6303  0.8010 -1.9969
  156SAPE    C217332   3.850   6.467   7.082 -0.0034  0.3049  0.7187
  156SAPE    HS17333   3.750   6.421   7.093  0.7064 -1.0512  1.9491
  156SAPE   O2117334   3.841   6.604   7.116  0.1969  0.1977  0.5436
  156SAPE   C2117335   3.769   6.676   7.036  0.6695  0.2285 -0.5517
  156SAPE   O2217336   3.677   6.649   6.958 -0.4645  0.3606  0.4613
  156SAPE   C2217337   3.812   6.817   7.065  0.2904 -0.3514 -0.1647
  156SAPE   H2R17338   3.868   6.850   6.974  0.7824  0.2826  0.3659
  156SAPE   H2S17339   3.729   6.890   7.074  0.1233 -0.6552  0.8335
  156SAPE    C317340   3.960   6.399   7.177 -0.1027  0.1044  0.8057
  156SAPE    HX17341   4.059   6.449   7.174  0.0912 -0.0642  2.7737
  156SAPE    HY17342   3.980   6.299   7.133  0.9195  1.3716 -1.8454
  156SAPE   O3117343   3.914   6.414   7.313  0.1887 -0.2621  0.5245
  156SAPE   C3117344   3.827   6.319   7.355  0.3908 -0.2722 -0.5043
  156SAPE   O3217345   3.782   6.224   7.289  0.3845 -0.1363 -0.1363
  156SAPE   C3217346   3.792   6.351   7.499  0.0438 -0.5229  0.0875
  156SAPE   H2X17347   3.684   6.376   7.496 -0.5112 -2.7723 -0.9382
  156SAPE   H2Y17348   3.849   6.438   7.537 -1.7108  1.7942 -2.2142
  156SAPE   C2317349   3.904   6.830   7.189 -0.6471  1.0148 -0.7187
  156SAPE   H3R17350   4.009   6.799   7.170 -0.5851 -0.0769  1.1627
  156SAPE   H3S17351   3.851   6.773   7.268  0.1941 -1.7760 -2.0537
  156SAPE   C2417352   3.919   6.973   7.243  0.0861 -0.5436 -0.0417
  156SAPE   H4R17353   3.963   6.956   7.344  2.7152  0.9239 -0.8329
  156SAPE   H4S17354   3.815   7.011   7.253 -0.4730 -2.0540  0.0018
  156SAPE   C2517355   4.007   7.052   7.154  0.6372 -0.0217 -0.5586
  156SAPE   H5R17356   3.994   7.035   7.046  1.8733 -2.3822 -0.4098
  156SAPE   C2617357   4.108   7.125   7.208 -0.3914 -1.1326 -0.4349
  156SAPE   H6R17358   4.175   7.184   7.143  0.9947 -1.9064  0.2357
  156SAPE   C2717359   4.139   7.142   7.360  0.1648  0.6419  0.1375
  156SAPE   H7R17360   4.049   7.147   7.426  2.1137  1.7247  2.8725
  156SAPE   H7S17361   4.190   7.240   7.354  1.5170 -0.0854 -0.7014
  156SAPE   C2817362   4.236   7.042   7.410  0.6581 -0.3105 -0.0544
  156SAPE   H8R17363   4.291   6.987   7.332  3.1910  0.5176  1.0263
  156SAPE   C2917364   4.242   7.007   7.537  0.0100  0.0448 -0.7174
  156SAPE   H9R17365   4.309   6.926   7.569 -1.2388 -1.3040 -1.3924
  156SAPE  C21017366   4.162   7.069   7.653 -0.1904  0.1410  0.4014
  156SAPE  H10R17367   4.137   7.174   7.626 -0.1093 -0.1730 -1.0082
  156SAPE  H10S17368   4.213   7.062   7.751 -0.6265 -2.8721  0.5019
  156SAPE  C21117369   4.021   7.013   7.665 -0.1805 -0.0630 -0.6196
  156SAPE  H11R17370   3.975   6.971   7.574 -0.9550  0.8653 -0.6666
  156SAPE  C21217371   3.949   6.993   7.778  0.2119 -0.2373 -0.3528
  156SAPE  H12R17372   3.860   6.930   7.764  0.1239 -0.3718  0.7728
  156SAPE  C21317373   3.981   7.030   7.920 -0.4915 -0.3161  0.7935
  156SAPE  H13R17374   3.893   7.062   7.980  1.6785  1.8188  3.1421
  156SAPE  H13S17375   4.039   7.125   7.919 -0.2588 -0.4527  1.0100
  156SAPE  C21417376   4.062   6.929   7.997 -0.0253 -0.4882 -0.4901
  156SAPE  H14R17377   4.070   6.829   7.953  1.0269 -0.2431 -0.8651
  156SAPE  C21517378   4.134   6.954   8.113  0.6501 -0.2408  0.4234
  156SAPE  H15R17379   4.180   6.859   8.144 -1.9199 -1.7658 -0.0956
  156SAPE  C21617380   4.159   7.083   8.194  0.5159 -0.2184  0.3251
  156SAPE  H16R17381   4.134   7.170   8.130 -2.1425 -0.7870  0.4528
  156SAPE  H16S17382   4.265   7.100   8.222  0.7745 -0.4598 -0.5034
  156SAPE  C21717383   4.063   7.095   8.312  0.1813 -0.3818 -0.0628
  156SAPE  H17R17384   3.964   7.080   8.264 -0.5339  0.6357  1.0580
  156SAPE  H17S17385   4.079   7.194   8.359 -0.5390 -0.9874  1.5281
  156SAPE  C21817386   4.092   6.990   8.416  1.2043 -1.0975 -0.2950
  156SAPE  H18R17387   4.193   7.004   8.460  0.9290 -2.4880  0.8812
  156SAPE  H18S17388   4.077   6.892   8.365 -2.2979 -1.8028  1.7290
  156SAPE  C21917389   3.989   7.007   8.526 -0.0324  0.1156 -0.2202
  156SAPE  H19R17390   4.001   7.109   8.569 -1.4794 -1.1139  3.4512
  156SAPE  H19S17391   4.007   6.939   8.612 -0.5566  0.5806  0.2644
  156SAPE  C22017392   3.844   6.973   8.482 -0.0447 -0.5102  0.0937
  156SAPE  H20R17393   3.798   7.053   8.419  1.9009 -1.2972 -2.5119
  156SAPE  H20S17394   3.791   6.950   8.576  0.8253 -1.7047  0.3142
  156SAPE  H20T17395   3.840   6.879   8.423 -1.0310 -0.1784 -0.4015
  156SAPE   C3317396   3.800   6.218   7.573 -0.0264 -0.0343  1.3029
  156SAPE   H3X17397   3.900   6.176   7.551 -0.4941  0.9283 -4.1558
  156SAPE   H3Y17398   3.732   6.148   7.520  1.5484 -0.6238 -0.0142
  156SAPE   C3417399   3.774   6.213   7.722  0.0096  0.6949  0.6957
  156SAPE   H4X17400   3.676   6.251   7.757 -0.7844 -0.2848 -0.4044
  156SAPE   H4Y17401   3.838   6.291   7.769  0.0843  0.6963  0.5906
  156SAPE   C3517402   3.797   6.078   7.783 -0.5058 -0.0620 -0.0053
  156SAPE   H5X17403   3.903   6.057   7.806 -1.0514 -2.2616  0.7056
  156SAPE   H5Y17404   3.756   5.999   7.716 -0.4735  0.8524 -1.1485
  156SAPE   C3617405   3.745   6.054   7.920 -0.5911  0.0458 -0.4443
  156SAPE   H6X17406   3.757   5.945   7.937 -0.0671  0.4382  2.0042
  156SAPE   H6Y17407   3.641   6.087   7.942 -0.3053 -0.8851  2.7282
  156SAPE   C3717408   3.830   6.118   8.028  0.4884  0.5090  0.4029
  156SAPE   H7X17409   3.803   6.226   8.027  0.0063  0.4218 -2.0954
  156SAPE   H7Y17410   3.939   6.119   8.011  0.4623 -1.0075  0.0352
  156SAPE   C3817411   3.812   6.050   8.162  0.3320  0.1204 -0.1129
  156SAPE   H8X17412   3.864   6.113   8.237 -1.0925 -1.5122  2.3552
  156SAPE   H8Y17413   3.860   5.951   8.150 -2.2964 -1.4340  1.3127
  156SAPE   C3917414   3.669   6.033   8.202  1.5797 -0.0222  0.2781
  156SAPE   H9X17415   3.679   5.976   8.297 -1.0522 -1.0615  0.0150
  156SAPE   H9Y17416   3.602   5.978   8.132  0.0561  2.4523 -0.3578
  156SAPE  C31017417   3.595   6.168   8.220  0.0311 -0.0597 -0.3808
  156SAPE  H10X17418   3.570   6.221   8.125  0.0007  0.0352 -0.3203
  156SAPE  H10Y17419   3.664   6.230   8.281 -0.2608 -0.5409  0.4535
  156SAPE  C31117420   3.466   6.156   8.298 -0.2673 -0.6795 -0.4361
  156SAPE  H11X17421   3.397   6.077   8.260  0.6339 -2.4166  1.3672
  156SAPE  H11Y17422   3.414   6.254   8.285 -0.3297 -0.7614 -0.8092
  156SAPE  C31217423   3.477   6.137   8.454 -0.3919 -0.0888  0.7093
  156SAPE  H12X17424   3.580   6.165   8.485 -0.4447  0.7317  0.1848
  156SAPE  H12Y17425   3.466   6.030   8.481  1.1118 -0.5948 -0.5242
  156SAPE  C31317426   3.373   6.218   8.539 -0.5588  0.4123  0.2294
  156SAPE  H13X17427   3.272   6.172   8.532  0.2370 -1.1680 -1.8262
  156SAPE  H13Y17428   3.371   6.324   8.506 -1.6050  0.5975  0.8526
  156SAPE  C31417429   3.416   6.211   8.688 -0.8311  0.3872  0.0313
  156SAPE  H14X17430   3.525   6.228   8.696 -0.6130  0.8568 -2.9964
  156SAPE  H14Y17431   3.394   6.117   8.743  1.2066  0.5367  1.1937
  156SAPE  C31517432   3.349   6.314   8.774 -0.2782 -0.0395  0.2704
  156SAPE  H15X17433   3.241   6.294   8.760 -0.2729  0.6667 -0.9270
  156SAPE  H15Y17434   3.376   6.416   8.739  2.7855 -1.0519 -0.6320
  156SAPE  C31617435   3.382   6.302   8.921  0.0526 -0.2191  0.4909
  156SAPE  H16X17436   3.425   6.200   8.927  0.8992  0.1010 -0.0389
  156SAPE  H16Y17437   3.301   6.317   8.996  0.3280  1.2236  0.5204
  156SAPE  C31717438   3.482   6.414   8.970  0.7927  0.1593  0.2530
  156SAPE  H17X17439   3.425   6.510   8.974 -1.4462 -1.1593  2.0809
  156SAPE  H17Y17440   3.554   6.418   8.885  1.1800  0.9224  0.6058
  156SAPE  C31817441   3.566   6.384   9.091 -0.0391  0.2215  0.8805
  156SAPE  H18X17442   3.517   6.385   9.191  0.9857 -4.1863  1.6604
  156SAPE  H18Y17443   3.653   6.452   9.092  0.5328 -0.4853  0.3167
  156SAPE  H18Z17444   3.595   6.277   9.084 -2.6736 -0.6864  2.2728
  157SAPE     N17445   2.075   1.398   6.321  0.3771  0.0979  0.4321
  157SAPE   HN117446   2.010   1.345   6.259 -0.8351  1.7921  0.1865
  157SAPE   HN217447   2.025   1.489   6.326  1.2295  0.5824  0.2323
  157SAPE   HN317448   2.160   1.419   6.264  0.0771  2.6593  0.7982
  157SAPE   C1217449   2.100   1.345   6.458  0.3133  0.7473  0.6429
  157SAPE  H12A17450   2.077   1.236   6.454 -2.3403  1.1215  2.7760
  157SAPE  H12B17451   2.034   1.396   6.531 -3.3213 -1.3600 -0.9058
  157SAPE   C1117452   2.246   1.374   6.500  0.4982  1.1499 -0.5683
  157SAPE  H11A17453   2.306   1.295   6.450  0.2462  0.5806  0.0087
  157SAPE  H11B17454   2.265   1.350   6.607  1.6788  0.5237 -0.9019
  157SAPE     P17455   2.291   1.629   6.546  0.4793  0.2573  0.2535
  157SAPE   O1317456   2.348   1.733   6.452 -0.6383  0.6022 -0.9062
  157SAPE   O1417457   2.154   1.644   6.597 -0.3243  0.2674 -0.3550
  157SAPE   O1217458   2.296   1.502   6.460  0.3517  0.5297  0.6912
  157SAPE   O1117459   2.386   1.591   6.666  0.3492  0.5862  0.0216
  157SAPE    C117460   2.493   1.498   6.666 -0.7648  0.4523 -0.0961
  157SAPE    HA17461   2.462   1.407   6.721  2.4018 -2.3229 -2.5403
  157SAPE    HB17462   2.511   1.463   6.562  0.7958  0.1269  0.2644
  157SAPE    C217463   2.623   1.563   6.728  0.5903 -0.1423 -0.6683
  157SAPE    HS17464   2.702   1.485   6.727  1.6927  0.8488  1.8233
  157SAPE   O2117465   2.604   1.606   6.865 -0.3134  0.5146  0.0977
  157SAPE   C2117466   2.595   1.509   6.956  0.1731 -0.1346  0.8314
  157SAPE   O2217467   2.597   1.388   6.932 -0.3774 -0.3173 -0.7555
  157SAPE   C2217468   2.585   1.575   7.092 -0.4159 -0.0126  0.4244
  157SAPE   H2R17469   2.499   1.646   7.092  0.1070  0.6854 -1.4749
  157SAPE   H2S17470   2.565   1.495   7.167  0.6357 -1.3454 -0.6503
  157SAPE    C317471   2.680   1.683   6.644  0.3745  0.5881 -0.3967
  157SAPE    HX17472   2.606   1.763   6.666 -1.3605 -1.0812  0.0523
  157SAPE    HY17473   2.678   1.651   6.538  1.2502 -0.5381 -0.0995
  157SAPE   O3117474   2.818   1.712   6.686 -0.1111 -0.0211 -0.3717
  157SAPE   C3117475   2.858   1.837   6.672  0.0875  0.1050 -0.3803
  157SAPE   O3217476   2.787   1.928   6.624  0.2907 -0.2216 -0.1136
  157SAPE   C3217477   2.987   1.852   6.742 -0.5198 -0.1138 -0.4065
  157SAPE   H2X17478   3.066   1.862   6.664 -0.3024 -1.9289 -0.4655
  157SAPE   H2Y17479   3.009   1.757   6.796 -1.4807 -0.0236  0.1531
  157SAPE   C2317480   2.717   1.654   7.140 -0.2645  0.3150 -0.5036
  157SAPE   H3R17481   2.731   1.736   7.066 -0.7151  0.3626 -0.5378
  157SAPE   H3S17482   2.801   1.582   7.125 -0.3864  0.5509 -2.6129
  157SAPE   C2417483   2.715   1.710   7.286 -0.9257  0.4614 -0.2014
  157SAPE   H4R17484   2.622   1.769   7.295 -2.4276 -1.6606 -0.8539
  157SAPE   H4S17485   2.808   1.767   7.309 -1.2184  0.0796  2.0907
  157SAPE   C2517486   2.710   1.592   7.379  0.1262  0.2025  0.0106
  157SAPE   H5R17487   2.727   1.497   7.327  3.2981  0.6155  0.0601
  157SAPE   C2617488   2.696   1.600   7.515  0.2675 -0.0506  0.0776
  157SAPE   H6R17489   2.708   1.510   7.577  0.4589  0.6646  1.1001
  157SAPE   C2717490   2.672   1.724   7.603 -0.1252  0.0570  0.0661
  157SAPE   H7R17491   2.578   1.711   7.659 -0.8211  0.4615 -0.9625
  157SAPE   H7S17492   2.658   1.815   7.540  1.4574 -1.2389 -2.3204
  157SAPE   C2817493   2.778   1.744   7.706  0.8480  0.2383  0.3186
  157SAPE   H8R17494   2.835   1.838   7.694 -0.5902  0.9572 -1.2103
  157SAPE   C2917495   2.806   1.665   7.816 -0.4699 -0.4829  0.9051
  157SAPE   H9R17496   2.888   1.689   7.886  0.7859 -0.4001 -0.5624
  157SAPE  C21017497   2.741   1.540   7.860  1.0828  0.0431 -0.5721
  157SAPE  H10R17498   2.812   1.459   7.829  0.5699 -0.4980 -0.3428
  157SAPE  H10S17499   2.651   1.518   7.798  0.4583 -0.4060  0.4704
  157SAPE  C21117500   2.706   1.536   8.004  0.2619  0.0600 -0.1009
  157SAPE  H11R17501   2.615   1.595   8.027 -0.0242 -0.3568 -0.1467
  157SAPE  C21217502   2.763   1.469   8.104 -0.2787 -0.0231  0.7549
  157SAPE  H12R17503   2.729   1.471   8.209  1.6845 -2.4155  1.5326
  157SAPE  C21317504   2.889   1.385   8.101  0.3137 -0.3133  0.0755
  157SAPE  H13R17505   2.941   1.398   8.004  0.6540 -4.9809 -0.5700
  157SAPE  H13S17506   2.857   1.279   8.109 -1.1514 -0.0579 -1.8484
  157SAPE  C21417507   2.970   1.425   8.219 -1.1004  0.0302  0.0154
  157SAPE  H14R17508   3.028   1.518   8.213  0.3244 -0.8411 -0.4286
  157SAPE  C21517509   3.014   1.352   8.320  0.2242 -0.0079 -0.3204
  157SAPE  H15R17510   3.085   1.405   8.386  0.6870 -1.1445  0.1150
  157SAPE  C21617511   2.985   1.207   8.354 -0.0808 -0.5270 -0.0804
  157SAPE  H16R17512   3.044   1.190   8.447  1.8411 -0.3667 -1.2183
  157SAPE  H16S17513   3.036   1.138   8.283 -0.2399 -0.9267  0.1855
  157SAPE  C21717514   2.835   1.159   8.362  0.4778 -0.6700 -0.3816
  157SAPE  H17R17515   2.845   1.050   8.344  2.3401 -0.6887  0.4982
  157SAPE  H17S17516   2.768   1.203   8.285  1.8848 -0.9687 -1.8437
  157SAPE  C21817517   2.778   1.175   8.512  0.8812 -0.1269 -0.2485
  157SAPE  H18R17518   2.774   1.280   8.547  0.0532 -0.5219  0.8979
  157SAPE  H18S17519   2.838   1.125   8.591  0.1292  1.5162  1.4460
  157SAPE  C21917520   2.635   1.118   8.524  0.5307 -0.0620 -0.3096
  157SAPE  H19R17521   2.578   1.169   8.444 -1.4526 -1.6211  0.0278
  157SAPE  H19S17522   2.599   1.159   8.621 -0.0637 -1.6789  0.1803
  157SAPE  C22017523   2.619   0.969   8.519  0.3369 -0.4316  0.6890
  157SAPE  H20R17524   2.517   0.944   8.554 -0.2819  0.9602 -0.0260
  157SAPE  H20S17525   2.701   0.926   8.579  1.6208  2.4253  1.1320
  157SAPE  H20T17526   2.617   0.940   8.412 -1.5288  1.8069  0.0118
  157SAPE   C3317527   3.001   1.960   6.846  0.8888  0.4569 -0.1645
  157SAPE   H3X17528   2.929   1.945   6.929  0.0080  0.3303 -0.9271
  157SAPE   H3Y17529   2.979   2.059   6.801  0.0755  0.4240  0.1459
  157SAPE   C3417530   3.144   1.966   6.917  0.7835 -0.1905 -0.5424
  157SAPE   H4X17531   3.203   2.028   6.846 -0.8780  0.9489 -0.9785
  157SAPE   H4Y17532   3.188   1.865   6.909  0.0821 -0.4104 -1.8449
  157SAPE   C3517533   3.144   2.029   7.061  0.6385  0.7503  0.3513
  157SAPE   H5X17534   3.068   2.109   7.074 -0.3451 -0.2480  0.8655
  157SAPE   H5Y17535   3.247   2.060   7.089  1.3661 -2.7920  2.2715
  157SAPE   C3617536   3.103   1.920   7.169  0.1098 -0.8076 -0.3850
  157SAPE   H6X17537   3.177   1.838   7.180  2.7971  1.4850 -0.1584
  157SAPE   H6Y17538   3.010   1.867   7.141 -0.1935 -1.6269  1.9425
  157SAPE   C3717539   3.094   1.975   7.312 -0.0130  0.6550  0.3854
  157SAPE   H7X17540   2.992   2.016   7.328 -0.3122  0.0398  0.0638
  157SAPE   H7Y17541   3.166   2.058   7.327 -1.7554  2.5020 -1.0508
  157SAPE   C3817542   3.127   1.873   7.421 -0.2472 -0.6245  0.1348
  157SAPE   H8X17543   3.232   1.837   7.417 -0.5973 -1.7499  0.7046
  157SAPE   H8Y17544   3.058   1.786   7.414  0.0137 -0.7038 -2.5039
  157SAPE   C3917545   3.125   1.931   7.564  0.2171 -0.2037  0.2265
  157SAPE   H9X17546   3.022   1.970   7.581  0.1002 -1.0767  1.7530
  157SAPE   H9Y17547   3.200   2.012   7.572 -0.5561  0.3936  1.9108
  157SAPE  C31017548   3.162   1.827   7.668  0.0055 -0.1664 -0.3962
  157SAPE  H10X17549   3.256   1.775   7.639  0.9942  0.7341  1.0165
  157SAPE  H10Y17550   3.084   1.748   7.672 -0.2311  0.1084  0.8002
  157SAPE  C31117551   3.173   1.883   7.813  0.0135 -0.1932  0.1927
  157SAPE  H11X17552   3.080   1.934   7.847  0.9175  1.6106  0.1055
  157SAPE  H11Y17553   3.246   1.965   7.830 -1.8055  1.7501 -0.8883
  157SAPE  C31217554   3.204   1.761   7.901 -0.2695 -0.1574 -0.0698
  157SAPE  H12X17555   3.308   1.730   7.876 -0.4987 -1.7349  0.7766
  157SAPE  H12Y17556   3.137   1.677   7.870 -3.3775  1.3435  2.0671
  157SAPE  C31317557   3.203   1.789   8.051  0.2479 -0.1570  0.3249
  157SAPE  H13X17558   3.280   1.866   8.073 -0.1031  0.3643 -0.2466
  157SAPE  H13Y17559   3.234   1.697   8.105  0.9713  0.9092  1.7797
  157SAPE  C31417560   3.066   1.833   8.112  0.3330  0.1923 -0.2543
  157SAPE  H14X17561   2.981   1.776   8.068  1.7346 -2.0920 -0.2012
  157SAPE  H14Y17562   3.048   1.940   8.089 -2.8874 -0.3923 -0.8688
  157SAPE  C31517563   3.066   1.818   8.267  0.2495  0.0611  0.4741
  157SAPE  H15X17564   3.140   1.886   8.314  0.6623  0.6609 -0.9822
  157SAPE  H15Y17565   3.090   1.714   8.296  0.4567  0.0748  0.3536
  157SAPE  C31617566   2.930   1.851   8.323  0.0178 -0.2184 -0.2723
  157SAPE  H16X17567   2.859   1.775   8.284 -0.7575 -0.0484  0.7721
  157SAPE  H16Y17568   2.909   1.957   8.296  4.8135  0.2676 -3.4423
  157SAPE  C31717569   2.922   1.849   8.474  0.0622  0.2360  0.4543
  157SAPE  H17X17570   2.817   1.852   8.510 -0.1648  0.6575 -0.2199
  157SAPE  H17Y17571   2.981   1.936   8.507 -1.0331  1.3566 -0.4286
  157SAPE  C31817572   2.977   1.719   8.536 -0.3301 -0.6737  0.2620
  157SAPE  H18X17573   2.965   1.738   8.644 -2.1552 -2.2660  0.3954
  157SAPE  H18Y17574   3.084   1.712   8.508  0.1452 -2.0111  2.2675
  157SAPE  H18Z17575   2.926   1.626   8.503 -1.0194  0.1668 -1.1793
  158SAPE     N17576   2.456   4.347   6.457  0.2164  0.3103 -0.5426
  158SAPE   HN117577   2.412   4.404   6.382  0.7455  2.4314  0.6536
  158SAPE   HN217578   2.440   4.246   6.438  0.2323  0.0214  0.8184
  158SAPE   HN317579   2.384   4.362   6.531  0.2632 -1.1018 -0.1843
  158SAPE   C1217580   2.593   4.381   6.496 -0.0528  0.0744 -0.2385
  158SAPE  H12A17581   2.652   4.392   6.403  2.0335 -0.6533  0.9346
  158SAPE  H12B17582   2.638   4.297   6.553 -0.0984 -1.2779 -2.1046
  158SAPE   C1117583   2.598   4.517   6.571  0.3338  0.1496 -0.0423
  158SAPE  H11A17584   2.708   4.528   6.584  0.3976  0.7765 -0.9995
  158SAPE  H11B17585   2.557   4.506   6.673  0.5173 -0.5202 -0.0343
  158SAPE     P17586   2.622   4.727   6.414  0.1771  0.4447  0.2247
  158SAPE   O1317587   2.758   4.679   6.399 -0.3671  0.0325  0.1587
  158SAPE   O1417588   2.563   4.740   6.275 -0.3401 -0.3278  0.2411
  158SAPE   O1217589   2.539   4.628   6.503  0.9765  0.1239 -0.4507
  158SAPE   O1117590   2.610   4.865   6.483 -0.3889 -0.1355 -0.3631
  158SAPE    C117591   2.481   4.933   6.478  0.6370 -0.3819 -0.5187
  158SAPE    HA17592   2.475   5.011   6.399  0.6952  0.7519  0.5553
  158SAPE    HB17593   2.394   4.865   6.469  0.8907 -1.0431  1.4826
  158SAPE    C217594   2.453   5.013   6.607  0.0613  0.2392 -0.7957
  158SAPE    HS17595   2.517   5.102   6.622  1.0878 -0.3757 -1.4063
  158SAPE   O2117596   2.448   4.925   6.718 -0.7264 -0.4562 -0.3288
  158SAPE   C2117597   2.567   4.909   6.775  0.3311  0.2123 -0.1510
  158SAPE   O2217598   2.667   4.968   6.752  0.0043  0.0965 -0.2487
  158SAPE   C2217599   2.554   4.806   6.882  0.0935 -0.1525 -0.1680
  158SAPE   H2R17600   2.452   4.777   6.914  1.0210 -2.9742  0.5400
  158SAPE   H2S17601   2.613   4.719   6.845 -1.3795 -2.0099  1.6591
  158SAPE    C317602   2.312   5.074   6.584  0.9347  0.6473  0.3280
  158SAPE    HX17603   2.244   4.988   6.600 -0.0683  1.8627  3.4165
  158SAPE    HY17604   2.295   5.114   6.482 -0.6586 -0.4648  0.1178
  158SAPE   O3117605   2.281   5.171   6.685  0.3267 -0.1873  0.1980
  158SAPE   C3117606   2.308   5.298   6.656 -0.0739 -0.4072  0.3185
  158SAPE   O3217607   2.340   5.336   6.543  0.9000  0.4642  0.1791
  158SAPE   C3217608   2.275   5.383   6.784 -0.3676  0.3587  0.1622
  158SAPE   H2X17609   2.170   5.418   6.770  0.5326  2.5028 -1.9092
  158SAPE   H2Y17610   2.346   5.468   6.780 -1.3959  1.2024 -0.6357
  158SAPE   C2317611   2.645   4.846   7.009  0.1436  0.0286  0.3635
  158SAPE   H3R17612   2.748   4.858   6.968  0.5156  1.2644  1.5845
  158SAPE   H3S17613   2.639   4.765   7.084  2.0997 -1.5557 -1.0757
  158SAPE   C2417614   2.594   4.971   7.075  0.1172  0.0740  0.0226
  158SAPE   H4R17615   2.601   5.064   7.014  3.7963 -0.4341 -0.5576
  158SAPE   H4S17616   2.674   4.983   7.152 -1.1309  1.5165  1.1807
  158SAPE   C2517617   2.451   4.956   7.129  0.0306  0.4251 -0.3873
  158SAPE   H5R17618   2.376   4.975   7.051  1.7087  0.3055 -2.1038
  158SAPE   C2617619   2.408   4.952   7.257  0.1658 -0.0876 -0.4538
  158SAPE   H6R17620   2.301   4.938   7.280  0.5919 -0.1743  1.6459
  158SAPE   C2717621   2.495   4.949   7.385  0.3506  0.0726 -1.0468
  158SAPE   H7R17622   2.504   5.055   7.416  0.5872 -0.7608  1.9920
  158SAPE   H7S17623   2.598   4.918   7.358  0.1100 -2.2938  0.5101
  158SAPE   C2817624   2.442   4.854   7.495 -0.4470 -0.2519 -1.0712
  158SAPE   H8R17625   2.429   4.748   7.470 -0.2137 -0.6273  0.3105
  158SAPE   C2917626   2.414   4.891   7.624  0.3900 -0.7585  0.9002
  158SAPE   H9R17627   2.357   4.827   7.693 -4.0697  1.1934 -0.6064
  158SAPE  C21017628   2.414   5.038   7.677 -0.1199 -0.3016 -1.0030
  158SAPE  H10R17629   2.348   5.104   7.618  1.6478  2.4997 -0.0502
  158SAPE  H10S17630   2.510   5.091   7.660  0.9425 -0.9400  2.3172
  158SAPE  C21117631   2.378   5.063   7.816 -0.3661 -0.2910 -0.2451
  158SAPE  H11R17632   2.272   5.090   7.826  0.0459  1.6013 -0.6520
  158SAPE  C21217633   2.443   5.050   7.931  0.0315  0.3486 -0.2575
  158SAPE  H12R17634   2.388   5.093   8.015  0.0761  4.7715 -2.2112
  158SAPE  C21317635   2.585   4.998   7.932  0.1308 -0.6277  0.4751
  158SAPE  H13R17636   2.657   5.082   7.924 -1.1376  0.5953  1.4301
  158SAPE  H13S17637   2.610   4.933   7.845  2.2301 -0.1959  0.7040
  158SAPE  C21417638   2.607   4.920   8.052  0.5845 -0.0752  0.0129
  158SAPE  H14R17639   2.600   4.813   8.028  1.9794 -0.0537 -0.5383
  158SAPE  C21517640   2.662   4.970   8.170  0.0601 -0.6270  1.0502
  158SAPE  H15R17641   2.660   4.917   8.266 -1.4561  3.8426  3.7691
  158SAPE  C21617642   2.702   5.114   8.203  0.0191  0.3172 -0.3597
  158SAPE  H16R17643   2.681   5.182   8.118  1.0026  0.5102 -0.4618
  158SAPE  H16S17644   2.811   5.120   8.223 -0.2631 -0.2735  1.5041
  158SAPE  C21717645   2.615   5.160   8.323  0.3807 -0.5455 -0.3120
  158SAPE  H17R17646   2.673   5.242   8.370  1.6270 -1.7198  0.2773
  158SAPE  H17S17647   2.602   5.089   8.407  1.7178 -0.7865 -0.2811
  158SAPE  C21817648   2.475   5.212   8.279 -0.0975  0.0736  0.5852
  158SAPE  H18R17649   2.418   5.122   8.246  0.8826 -0.5909  0.6525
  158SAPE  H18S17650   2.488   5.273   8.188  2.3349 -0.2936  0.6145
  158SAPE  C21917651   2.378   5.279   8.378 -0.3287  0.3470  1.1907
  158SAPE  H19R17652   2.277   5.294   8.334 -0.0370  0.3475  0.5004
  158SAPE  H19S17653   2.420   5.378   8.406 -0.1116  0.7880 -0.5592
  158SAPE  C22017654   2.350   5.195   8.498  0.0222  0.0760  0.1326
  158SAPE  H20R17655   2.292   5.102   8.477  0.0577 -0.1984  1.1804
  158SAPE  H20S17656   2.275   5.246   8.561  0.2361  0.3069  0.2010
  158SAPE  H20T17657   2.439   5.158   8.555 -0.1512 -1.7630 -0.6985
  158SAPE   C3317658   2.283   5.304   6.916 -0.5149 -0.2707 -0.2827
  158SAPE   H3X17659   2.375   5.242   6.923  1.8718  3.1811  2.3743
  158SAPE   H3Y17660   2.194   5.241   6.937 -1.9602  0.9708 -2.3199
  158SAPE   C3417661   2.298   5.399   7.036 -0.4380  0.5359 -0.2311
  158SAPE   H4X17662   2.197   5.437   7.063 -0.9356 -1.0621  0.2372
  158SAPE   H4Y17663   2.361   5.484   7.002 -0.5686  0.9137  0.4343
  158SAPE   C3517664   2.358   5.330   7.162  0.2093 -0.2949 -0.6437
  158SAPE   H5X17665   2.440   5.259   7.138 -0.3256 -1.1166 -0.0907
  158SAPE   H5Y17666   2.281   5.263   7.204  3.0947 -2.1688  2.0700
  158SAPE   C3617667   2.400   5.431   7.270  0.7753 -0.6285  0.1675
  158SAPE   H6X17668   2.319   5.506   7.275  1.4386  0.1625 -0.5197
  158SAPE   H6Y17669   2.493   5.486   7.242 -0.2228  1.1189  0.1390
  158SAPE   C3717670   2.427   5.367   7.407 -1.0939  0.8152 -0.0775
  158SAPE   H7X17671   2.333   5.311   7.425 -1.2662  0.6848 -1.3229
  158SAPE   H7Y17672   2.517   5.304   7.395  0.0601  2.6936 -1.9898
  158SAPE   C3817673   2.442   5.460   7.528  0.6355 -0.1347 -0.5316
  158SAPE   H8X17674   2.356   5.530   7.532  0.3608 -0.2834 -2.7880
  158SAPE   H8Y17675   2.536   5.518   7.514  1.2892 -0.4686  1.8929
  158SAPE   C3917676   2.451   5.412   7.671  0.1442 -0.6153  0.2262
  158SAPE   H9X17677   2.542   5.348   7.677 -0.2739 -1.5873 -2.3558
  158SAPE   H9Y17678   2.364   5.343   7.681  0.0868 -1.0803 -2.5724
  158SAPE  C31017679   2.458   5.520   7.779  0.3051 -0.3769  0.0569
  158SAPE  H10X17680   2.381   5.596   7.751  0.6812  0.1267  0.3744
  158SAPE  H10Y17681   2.559   5.562   7.761  0.3004  1.6141  3.6933
  158SAPE  C31117682   2.430   5.463   7.917  0.0660  0.3350  0.3949
  158SAPE  H11X17683   2.462   5.537   7.994 -0.1328 -0.4264  1.2218
  158SAPE  H11Y17684   2.491   5.371   7.929 -2.0876 -1.2117 -0.0528
  158SAPE  C31217685   2.285   5.425   7.938 -0.2251 -0.0107  0.6133
  158SAPE  H12X17686   2.294   5.350   8.019  0.7968 -1.5642 -0.8663
  158SAPE  H12Y17687   2.250   5.360   7.856 -0.0364  0.7200 -0.0644
  158SAPE  C31317688   2.187   5.544   7.956  0.7391  0.1858 -0.0003
  158SAPE  H13X17689   2.159   5.599   7.864 -0.0204  3.2195  1.9069
  158SAPE  H13Y17690   2.220   5.622   8.028 -3.3034 -1.4556  4.0962
  158SAPE  C31417691   2.051   5.504   8.015  0.0274 -0.1606 -0.1159
  158SAPE  H14X17692   1.998   5.426   7.955 -0.4921 -1.2935  1.7111
  158SAPE  H14Y17693   1.987   5.593   8.000 -1.8044 -1.5796 -1.2271
  158SAPE  C31517694   2.053   5.474   8.165  0.4754  0.2632 -0.2195
  158SAPE  H15X17695   2.111   5.563   8.196  2.8935 -1.7041  1.2221
  158SAPE  H15Y17696   2.103   5.380   8.196 -2.6824 -1.2461  0.8281
  158SAPE  C31617697   1.916   5.482   8.227 -0.6058 -0.3242  0.0989
  158SAPE  H16X17698   1.873   5.580   8.194 -0.5584 -0.9635 -2.0362
  158SAPE  H16Y17699   1.930   5.481   8.337 -0.4948 -1.7379  0.0818
  158SAPE  C31717700   1.817   5.366   8.203  0.5843 -0.1228 -0.2758
  158SAPE  H17X17701   1.776   5.389   8.103  1.0586  2.0232 -0.0263
  158SAPE  H17Y17702   1.737   5.365   8.280  0.8306  0.1742 -0.0150
  158SAPE  C31817703   1.878   5.226   8.203  0.3483 -0.0814 -0.2158
  158SAPE  H18X17704   1.938   5.218   8.110  1.3268 -0.3414  0.4141
  158SAPE  H18Y17705   1.797   5.150   8.212 -0.9956  1.4526  1.3085
  158SAPE  H18Z17706   1.954   5.226   8.284 -0.3434 -2.1417  0.5043
  159SAPE     N17707   5.145   2.058   6.079  0.2006 -0.1784  0.2076
  159SAPE   HN117708   5.231   2.020   6.033 -0.4852  0.2117 -1.4737
  159SAPE   HN217709   5.078   1.979   6.085 -0.0857 -0.0293 -0.8962
  159SAPE   HN317710   5.115   2.122   6.003 -1.2668 -2.5300 -1.3197
  159SAPE   C1217711   5.155   2.135   6.205  0.4623  0.6461  0.4154
  159SAPE  H12A17712   5.234   2.211   6.189 -1.1670  1.9148 -2.2192
  159SAPE  H12B17713   5.185   2.066   6.288 -0.8355 -0.1003  0.2897
  159SAPE   C1117714   5.011   2.196   6.229 -0.1784  0.3506  0.3615
  159SAPE  H11A17715   4.966   2.224   6.132 -2.2869 -0.7098  0.9917
  159SAPE  H11B17716   5.031   2.286   6.292  0.7611 -1.3037  2.5745
  159SAPE     P17717   4.931   2.072   6.455 -0.1348  0.3003 -0.1809
  159SAPE   O1317718   4.870   2.190   6.519  0.4220  0.0060 -0.0532
  159SAPE   O1417719   4.872   1.940   6.492 -0.1107 -0.1419 -0.1829
  159SAPE   O1217720   4.931   2.099   6.302  0.0414  0.0716  0.0844
  159SAPE   O1117721   5.085   2.079   6.494  0.1952  0.3441  0.4258
  159SAPE    C117722   5.148   1.994   6.591 -0.5210  0.3868  0.5384
  159SAPE    HA17723   5.098   1.896   6.576 -1.3721  1.1398 -2.1667
  159SAPE    HB17724   5.252   1.982   6.556 -0.5602 -0.5915  0.7159
  159SAPE    C217725   5.133   2.034   6.742 -0.9805  1.0854  0.6075
  159SAPE    HS17726   5.022   2.039   6.753 -1.0781  1.3827 -0.4453
  159SAPE   O2117727   5.197   2.168   6.757  0.3149 -0.2148  0.0996
  159SAPE   C2117728   5.134   2.251   6.841  0.4890  0.1738  0.1316
  159SAPE   O2217729   5.024   2.227   6.888 -0.1469 -0.6087  0.1538
  159SAPE   C2217730   5.230   2.361   6.881  0.0287 -0.2094  0.0397
  159SAPE   H2R17731   5.312   2.318   6.942 -0.0312 -0.1051  0.1946
  159SAPE   H2S17732   5.272   2.411   6.792  0.7120  1.6278  1.3214
  159SAPE    C317733   5.189   1.923   6.837  0.2148 -0.2390  0.6119
  159SAPE    HX17734   5.298   1.934   6.822  0.3376 -1.4480  0.5382
  159SAPE    HY17735   5.161   1.820   6.808 -3.8041  0.9666 -0.5394
  159SAPE   O3117736   5.165   1.952   6.974 -0.7700 -0.3503 -0.1382
  159SAPE   C3117737   5.035   1.955   7.010 -0.3151  0.0502 -0.5442
  159SAPE   O3217738   4.947   1.899   6.950 -0.2840  0.6777 -0.3457
  159SAPE   C3217739   5.022   2.044   7.138  0.0350 -0.5604  0.2992
  159SAPE   H2X17740   5.076   2.141   7.122 -1.6735  0.9597  3.0420
  159SAPE   H2Y17741   5.062   1.972   7.212  2.9136  0.1933 -0.3821
  159SAPE   C2317742   5.169   2.462   6.980 -0.4962 -0.6831  0.2696
  159SAPE   H3R17743   5.160   2.421   7.083  1.8837  0.0642  0.8340
  159SAPE   H3S17744   5.074   2.499   6.936  0.1457 -1.3969 -1.8607
  159SAPE   C2417745   5.262   2.580   6.998  0.7200  0.1946  0.4846
  159SAPE   H4R17746   5.299   2.605   6.896 -0.9796 -1.7060 -0.6671
  159SAPE   H4S17747   5.355   2.556   7.052  1.6413 -1.2470 -1.6089
  159SAPE   C2517748   5.195   2.703   7.054 -0.0724  0.4468 -1.1526
  159SAPE   H5R17749   5.188   2.790   6.987  0.6979  0.4291 -1.2668
  159SAPE   C2617750   5.175   2.736   7.185  0.6033  0.2686 -0.0257
  159SAPE   H6R17751   5.117   2.829   7.201 -0.4327 -0.2430 -0.6819
  159SAPE   C2717752   5.209   2.664   7.315 -0.2004 -0.7913  0.6678
  159SAPE   H7R17753   5.252   2.563   7.304  0.1502 -0.6164  0.4192
  159SAPE   H7S17754   5.116   2.665   7.376 -0.6297  0.5940  0.0496
  159SAPE   C2817755   5.306   2.756   7.388 -0.1982  0.3365 -0.0351
  159SAPE   H8R17756   5.407   2.767   7.346 -0.6950  2.5623 -0.8166
  159SAPE   C2917757   5.288   2.826   7.499  0.4490  0.2157 -0.2073
  159SAPE   H9R17758   5.372   2.879   7.547 -0.0947 -1.0872  2.3584
  159SAPE  C21017759   5.158   2.818   7.583 -0.6513  0.0019  0.6438
  159SAPE  H10R17760   5.086   2.737   7.560  0.8407 -1.1156 -0.2782
  159SAPE  H10S17761   5.109   2.915   7.559  0.9607  0.1136 -2.9186
  159SAPE  C21117762   5.189   2.798   7.730 -0.1478  0.1796  0.2855
  159SAPE  H11R17763   5.217   2.694   7.751 -1.4338 -0.5663 -1.4832
  159SAPE  C21217764   5.187   2.887   7.825  0.2708 -0.7659 -0.5249
  159SAPE  H12R17765   5.204   2.848   7.926 -1.7802  0.0951  0.1922
  159SAPE  C21317766   5.164   3.037   7.812  0.1253  0.6546 -0.1203
  159SAPE  H13R17767   5.124   3.069   7.713 -0.8074 -1.5643 -0.5274
  159SAPE  H13S17768   5.266   3.078   7.822 -0.0934  0.6273  3.5239
  159SAPE  C21417769   5.067   3.081   7.922  0.5582 -0.4877  0.8163
  159SAPE  H14R17770   4.961   3.061   7.900  0.9606 -1.5293 -0.2567
  159SAPE  C21517771   5.098   3.137   8.040 -0.3755  0.4523 -0.1474
  159SAPE  H15R17772   5.026   3.169   8.116  0.0085 -3.1860  1.9717
  159SAPE  C21617773   5.240   3.159   8.094 -0.3755 -0.5195  0.1945
  159SAPE  H16R17774   5.246   3.262   8.134 -0.4650 -0.8896  1.1860
  159SAPE  H16S17775   5.311   3.149   8.010  0.8408 -2.6838  1.4045
  159SAPE  C21717776   5.266   3.069   8.219  0.2931 -0.7628 -0.7779
  159SAPE  H17R17777   5.181   3.087   8.289  0.3385  0.3620 -0.9851
  159SAPE  H17S17778   5.355   3.102   8.276 -1.1988 -2.3804  2.7594
  159SAPE  C21817779   5.279   2.931   8.178 -0.1097  0.4224 -0.2227
  159SAPE  H18R17780   5.355   2.929   8.097 -0.3281  0.9101 -0.4477
  159SAPE  H18S17781   5.187   2.895   8.127  0.3889  0.4963 -1.1904
  159SAPE  C21917782   5.310   2.847   8.300  1.1024 -0.1307 -0.3618
  159SAPE  H19R17783   5.239   2.877   8.381  1.1261 -1.5798  0.2189
  159SAPE  H19S17784   5.410   2.878   8.336  1.7948 -2.5392 -0.0530
  159SAPE  C22017785   5.301   2.698   8.279  0.3032  0.3787  0.3242
  159SAPE  H20R17786   5.209   2.665   8.226  0.6877 -2.5700  1.2964
  159SAPE  H20S17787   5.310   2.647   8.377  1.6435 -0.0088  0.0172
  159SAPE  H20T17788   5.391   2.655   8.230  1.8489  1.7206  1.8649
  159SAPE   C3317789   4.873   2.075   7.174 -0.1224 -0.1981 -0.1180
  159SAPE   H3X17790   4.821   1.980   7.200  0.1603 -0.5366 -0.7732
  159SAPE   H3Y17791   4.820   2.122   7.088 -1.0564 -1.8347 -0.4928
  159SAPE   C3417792   4.857   2.174   7.295 -0.5642 -0.0222  0.4690
  159SAPE   H4X17793   4.900   2.126   7.386 -0.5714  0.4353  0.7196
  159SAPE   H4Y17794   4.750   2.196   7.315 -0.9672 -0.5406 -0.9650
  159SAPE   C3517795   4.933   2.316   7.281  0.2943  0.5022 -0.6243
  159SAPE   H5X17796   4.913   2.354   7.178 -2.5278  1.9624  0.3398
  159SAPE   H5Y17797   5.036   2.300   7.318  0.2135  0.6898 -0.3154
  159SAPE   C3617798   4.875   2.427   7.377  0.9414 -0.1785 -0.6085
  159SAPE   H6X17799   4.773   2.462   7.349  1.2538  0.7301 -0.6566
  159SAPE   H6Y17800   4.947   2.508   7.353 -0.8079  1.0442 -2.0270
  159SAPE   C3717801   4.873   2.388   7.525 -0.2047 -0.4769 -0.3865
  159SAPE   H7X17802   4.973   2.344   7.544  0.0473 -0.1715 -0.9823
  159SAPE   H7Y17803   4.791   2.318   7.549  0.7622 -1.0485  1.4486
  159SAPE   C3817804   4.846   2.504   7.616  0.2803 -0.1077  0.6851
  159SAPE   H8X17805   4.746   2.547   7.592  0.4962  0.8594  1.4371
  159SAPE   H8Y17806   4.922   2.582   7.594  1.9409 -1.7970  0.1900
  159SAPE   C3917807   4.830   2.471   7.762 -0.2040 -0.2615  1.1457
  159SAPE   H9X17808   4.903   2.403   7.811 -0.6693  0.3867  2.8120
  159SAPE   H9Y17809   4.728   2.429   7.776 -0.1219 -0.5879  0.7964
  159SAPE  C31017810   4.831   2.601   7.847  0.0746 -0.5896 -0.2200
  159SAPE  H10X17811   4.741   2.659   7.818 -0.1980 -1.2763 -0.7454
  159SAPE  H10Y17812   4.918   2.662   7.812 -1.2068  1.5622  0.1589
  159SAPE  C31117813   4.842   2.581   7.997  0.2474  0.1495 -0.6201
  159SAPE  H11X17814   4.926   2.520   8.036  0.2165  1.5109  1.7680
  159SAPE  H11Y17815   4.747   2.535   8.030  1.4995 -2.1456 -0.0464
  159SAPE  C31217816   4.857   2.708   8.069 -0.2004  0.6487  0.5052
  159SAPE  H12X17817   4.767   2.771   8.053 -1.0576 -0.2656  1.5577
  159SAPE  H12Y17818   4.941   2.770   8.029 -0.5529  0.2436 -0.9207
  159SAPE  C31317819   4.896   2.693   8.223  0.2555 -0.3161  0.1029
  159SAPE  H13X17820   4.920   2.793   8.264  1.5894 -0.6251  0.1148
  159SAPE  H13Y17821   4.984   2.627   8.211 -0.3013 -1.1247  0.3917
  159SAPE  C31417822   4.789   2.630   8.308 -0.2028 -0.7537 -0.1982
  159SAPE  H14X17823   4.768   2.526   8.277 -3.5733 -0.6857  1.3258
  159SAPE  H14Y17824   4.704   2.703   8.302 -0.0901 -0.6915 -1.2796
  159SAPE  C31517825   4.836   2.609   8.449 -0.7987 -0.1471 -0.8926
  159SAPE  H15X17826   4.752   2.569   8.511 -0.6302  0.5230 -0.2117
  159SAPE  H15Y17827   4.856   2.706   8.500  0.2397 -1.0478  0.5017
  159SAPE  C31617828   4.949   2.507   8.465  0.1981  0.3248 -0.4689
  159SAPE  H16X17829   5.039   2.516   8.400  1.2788 -4.1421  0.0295
  159SAPE  H16Y17830   4.912   2.405   8.441  2.8182 -0.9108  0.2652
  159SAPE  C31717831   4.998   2.494   8.611 -0.5553  0.5918  0.2250
  159SAPE  H17X17832   4.918   2.483   8.688  0.2438 -3.9004  0.6835
  159SAPE  H17Y17833   5.053   2.585   8.643  0.6069  0.6159 -1.6836
  159SAPE  C31817834   5.089   2.375   8.627  0.6432  0.2951  0.0050
  159SAPE  H18X17835   5.175   2.389   8.558  0.4268 -0.4852 -0.4379
  159SAPE  H18Y17836   5.042   2.277   8.605  1.6681  0.1043 -1.4609
  159SAPE  H18Z17837   5.126   2.372   8.732 -0.7142  1.6507  0.5730
  160SAPE     N17838   3.470   6.479   6.810  0.2746  0.1177 -0.2289
  160SAPE   HN117839   3.373   6.442   6.816  0.3697 -0.0992 -0.0110
  160SAPE   HN217840   3.527   6.460   6.895  1.1420 -1.6017 -1.1320
  160SAPE   HN317841   3.464   6.582   6.800  2.2553  0.3539  0.6556
  160SAPE   C1217842   3.544   6.425   6.695 -0.3225  0.0802  0.9334
  160SAPE  H12A17843   3.505   6.325   6.666  1.8324 -1.2414  2.2975
  160SAPE  H12B17844   3.653   6.416   6.716  0.2907  1.9786 -1.0337
  160SAPE   C1117845   3.539   6.519   6.571 -0.3495 -0.1483  0.0662
  160SAPE  H11A17846   3.574   6.459   6.485 -3.2869 -0.2046 -1.1954
  160SAPE  H11B17847   3.609   6.605   6.581 -0.9800  0.4020 -0.1376
  160SAPE     P17848   3.333   6.699   6.578  0.0802  0.3283 -0.2903
  160SAPE   O1317849   3.432   6.803   6.551 -0.3454  0.5112  0.2740
  160SAPE   O1417850   3.197   6.711   6.511 -0.0836 -0.2231  0.1801
  160SAPE   O1217851   3.403   6.560   6.547  0.5060  0.5541  0.3063
  160SAPE   O1117852   3.315   6.700   6.735 -0.1421  0.2934 -0.6275
  160SAPE    C117853   3.285   6.814   6.818 -0.3052  0.4738 -0.4072
  160SAPE    HA17854   3.339   6.808   6.914 -0.5171 -0.7171 -0.3516
  160SAPE    HB17855   3.314   6.908   6.766  3.1838 -0.8999 -1.2159
  160SAPE    C217856   3.132   6.815   6.854  0.3449 -0.2118 -0.3230
  160SAPE    HS17857   3.077   6.835   6.760  0.0065 -3.4386 -0.9122
  160SAPE   O2117858   3.103   6.895   6.970 -0.3609  0.0402 -0.5135
  160SAPE   C2117859   3.095   7.023   6.929  0.2768 -0.5414 -0.7138
  160SAPE   O2217860   3.099   7.059   6.811 -0.2629  0.5257  0.1296
  160SAPE   C2217861   3.078   7.111   7.055  0.6857  0.2364  0.0747
  160SAPE   H2R17862   3.137   7.203   7.032 -1.0522  1.2587 -0.4691
  160SAPE   H2S17863   2.973   7.148   7.057  0.7732  0.4687  0.7064
  160SAPE    C317864   3.088   6.671   6.892  0.0374  0.1274 -0.2895
  160SAPE    HX17865   3.168   6.629   6.957  0.5106 -2.9967 -2.6427
  160SAPE    HY17866   3.085   6.616   6.795 -3.0524  2.8355 -1.9644
  160SAPE   O3117867   2.961   6.677   6.961 -0.3836 -0.2611  0.2741
  160SAPE   C3117868   2.933   6.567   7.030  0.0845 -0.2557  0.3554
  160SAPE   O3217869   3.002   6.467   7.023  0.0692  0.5364 -0.3863
  160SAPE   C3217870   2.818   6.588   7.122 -0.4369  0.1546 -0.1945
  160SAPE   H2X17871   2.744   6.507   7.103 -1.7319  1.5204 -1.2588
  160SAPE   H2Y17872   2.769   6.683   7.091 -0.6579  0.1149  0.0279
  160SAPE   C2317873   3.113   7.054   7.195  0.6154  0.1220  0.3000
  160SAPE   H3R17874   3.218   7.018   7.193  0.3875 -0.6012  0.9624
  160SAPE   H3S17875   3.038   6.978   7.224 -0.2323  1.6370  2.3363
  160SAPE   C2417876   3.105   7.156   7.306  0.0453  0.3192 -0.9045
  160SAPE   H4R17877   3.002   7.195   7.316  0.9026  2.0515  3.7341
  160SAPE   H4S17878   3.169   7.243   7.280  0.5352  0.2151 -0.0713
  160SAPE   C2517879   3.144   7.095   7.441 -0.2676 -0.2633  1.4760
  160SAPE   H5R17880   3.231   7.027   7.442  0.4425  0.6302  2.2315
  160SAPE   C2617881   3.082   7.094   7.563 -0.2566 -0.6683  0.1671
  160SAPE   H6R17882   3.124   7.027   7.639 -0.4221 -0.0891  0.7755
  160SAPE   C2717883   2.950   7.168   7.604  0.0850  0.3539  0.7070
  160SAPE   H7R17884   2.888   7.087   7.649  1.3190 -0.9725  0.1059
  160SAPE   H7S17885   2.900   7.200   7.511  1.0419 -1.6143 -0.5543
  160SAPE   C2817886   2.975   7.274   7.708  0.0506 -0.2735  0.0236
  160SAPE   H8R17887   2.985   7.373   7.660 -1.7787 -0.6595 -1.2680
  160SAPE   C2917888   2.993   7.254   7.845 -0.2490 -0.3109  0.2472
  160SAPE   H9R17889   3.014   7.343   7.907  0.6842  0.2045 -0.7517
  160SAPE  C21017890   3.000   7.118   7.921 -0.1094  0.4584  0.1828
  160SAPE  H10R17891   3.061   7.040   7.870 -0.4687  1.4798 -1.9340
  160SAPE  H10S17892   2.907   7.064   7.896  1.0201 -0.3300 -2.7309
  160SAPE  C21117893   3.028   7.132   8.068 -0.3711 -0.1010  0.1686
  160SAPE  H11R17894   3.137   7.123   8.077 -0.3586 -0.5691 -0.3780
  160SAPE  C21217895   2.946   7.151   8.172 -0.2291 -0.9214  0.3172
  160SAPE  H12R17896   2.992   7.165   8.271  0.3232  0.7368 -0.1294
  160SAPE  C21317897   2.796   7.172   8.162  0.1798  0.2324  0.8003
  160SAPE  H13R17898   2.743   7.095   8.222  1.7279 -0.9528  0.7094
  160SAPE  H13S17899   2.772   7.152   8.055 -1.7175 -1.0897  1.4233
  160SAPE  C21417900   2.747   7.314   8.194  0.1789  0.7499 -0.4400
  160SAPE  H14R17901   2.793   7.397   8.139 -3.2355  2.5133 -0.9098
  160SAPE  C21517902   2.680   7.348   8.300 -0.6915  0.5146 -0.2815
  160SAPE  H15R17903   2.646   7.452   8.313 -0.9398  0.4269 -0.2249
  160SAPE  C21617904   2.618   7.258   8.405 -0.0593 -0.1208  0.1002
  160SAPE  H16R17905   2.645   7.300   8.504  0.1388  0.3292 -0.1389
  160SAPE  H16S17906   2.662   7.157   8.416  3.0118  1.2389  1.3296
  160SAPE  C21717907   2.469   7.241   8.393  0.1927  0.1940 -0.3105
  160SAPE  H17R17908   2.462   7.160   8.317  0.0331  0.0949 -0.1915
  160SAPE  H17S17909   2.407   7.328   8.361 -1.4586 -0.9327 -0.3159
  160SAPE  C21817910   2.417   7.190   8.529 -0.1008  0.2543  0.5520
  160SAPE  H18R17911   2.438   7.274   8.599 -2.0219  0.7955  0.5278
  160SAPE  H18S17912   2.486   7.106   8.551  0.7521  0.7868 -0.0312
  160SAPE  C21917913   2.266   7.149   8.533  0.8151  0.2628  0.0621
  160SAPE  H19R17914   2.202   7.231   8.496 -1.1780 -0.6783  1.2929
  160SAPE  H19S17915   2.232   7.124   8.635 -3.9747 -1.4483 -1.6573
  160SAPE  C22017916   2.234   7.011   8.464 -0.3230  0.2508  0.4138
  160SAPE  H20R17917   2.269   7.021   8.359 -0.5777  1.0292  0.3974
  160SAPE  H20S17918   2.125   6.995   8.483 -0.3546 -0.3150 -0.1808
  160SAPE  H20T17919   2.288   6.929   8.516  0.4916 -0.2491 -1.1394
  160SAPE   C3317920   2.852   6.589   7.273 -0.0847 -0.0612 -1.3081
  160SAPE   H3X17921   2.889   6.492   7.311 -1.2056  0.0489  0.1547
  160SAPE   H3Y17922   2.756   6.601   7.327  0.3442  0.7674 -0.6777
  160SAPE   C3417923   2.949   6.707   7.319  0.2651  0.0673  0.0968
  160SAPE   H4X17924   2.919   6.809   7.288  0.4881 -0.5430 -2.3567
  160SAPE   H4Y17925   3.049   6.688   7.274  1.3377  1.1452  1.9286
  160SAPE   C3517926   2.976   6.717   7.467  0.1434  0.0286  0.2370
  160SAPE   H5X17927   3.043   6.805   7.480  0.0894 -0.0263  0.9672
  160SAPE   H5Y17928   3.024   6.627   7.512  1.7666  1.2315  1.0272
  160SAPE   C3617929   2.846   6.751   7.549 -0.0699  0.0186 -0.0740
  160SAPE   H6X17930   2.764   6.677   7.536 -0.6070  0.6559 -0.3738
  160SAPE   H6Y17931   2.805   6.841   7.498  0.7776 -0.6147 -1.9918
  160SAPE   C3717932   2.881   6.761   7.690 -0.0725  0.1925 -0.1769
  160SAPE   H7X17933   2.978   6.815   7.699 -0.0098 -0.0279  0.5757
  160SAPE   H7Y17934   2.893   6.657   7.728  0.9907  0.8736  1.5112
  160SAPE   C3817935   2.786   6.827   7.788  0.9749  0.6290  0.6101
  160SAPE   H8X17936   2.681   6.794   7.770  0.7983  1.2867  0.4385
  160SAPE   H8Y17937   2.780   6.936   7.768  0.7236  0.9329  2.2108
  160SAPE   C3917938   2.823   6.786   7.933  0.7180  0.1436  0.1396
  160SAPE   H9X17939   2.918   6.841   7.955 -1.0661  3.0295  1.1930
  160SAPE   H9Y17940   2.831   6.676   7.927 -0.2670 -0.1998  3.3938
  160SAPE  C31017941   2.718   6.832   8.042  0.0308  0.4552  0.3483
  160SAPE  H10X17942   2.634   6.766   8.012  1.6446 -1.0374 -1.1438
  160SAPE  H10Y17943   2.703   6.941   8.034  3.7931  1.1333  0.6659
  160SAPE  C31117944   2.757   6.790   8.179 -0.0148 -0.1020  0.5798
  160SAPE  H11X17945   2.849   6.844   8.211  2.3882 -2.6981 -1.5059
  160SAPE  H11Y17946   2.802   6.689   8.190  0.0656 -0.0908  0.3661
  160SAPE  C31217947   2.644   6.794   8.280  0.0461  0.3910 -0.2500
  160SAPE  H12X17948   2.573   6.716   8.245 -0.3455  0.4626  0.3691
  160SAPE  H12Y17949   2.593   6.893   8.272  1.2904  0.9833 -1.2209
  160SAPE  C31317950   2.702   6.749   8.416 -0.3614 -0.6586 -0.2261
  160SAPE  H13X17951   2.741   6.645   8.410  0.9901 -0.2458  0.8036
  160SAPE  H13Y17952   2.618   6.763   8.488 -0.3076  2.6366 -0.6303
  160SAPE  C31417953   2.814   6.839   8.476 -0.2548  0.4118 -0.1780
  160SAPE  H14X17954   2.771   6.941   8.482 -0.2228  0.4059  0.1828
  160SAPE  H14Y17955   2.903   6.849   8.410  1.6377 -0.0739  2.1518
  160SAPE  C31517956   2.860   6.794   8.617  0.9868  0.2454  0.2224
  160SAPE  H15X17957   2.776   6.747   8.672 -0.9553  0.0865 -2.6363
  160SAPE  H15Y17958   2.919   6.874   8.667  0.7187 -0.1695  1.2029
  160SAPE  C31617959   2.956   6.675   8.591 -0.0447  0.1473 -0.2481
  160SAPE  H16X17960   3.045   6.720   8.541  1.4505 -1.7893  0.5283
  160SAPE  H16Y17961   2.916   6.590   8.532 -2.0921  2.3015 -2.1730
  160SAPE  C31717962   3.002   6.631   8.734  0.3632 -0.8006 -0.1043
  160SAPE  H17X17963   3.003   6.521   8.746  0.8834 -0.7079  0.8037
  160SAPE  H17Y17964   2.927   6.667   8.808  1.0447  0.5488 -0.0360
  160SAPE  C31817965   3.134   6.686   8.784 -0.5052  0.5372  0.1861
  160SAPE  H18X17966   3.147   6.657   8.891  0.4829  0.8101  0.1461
  160SAPE  H18Y17967   3.145   6.797   8.787  0.3007  0.4650  0.0750
  160SAPE  H18Z17968   3.209   6.644   8.715 -0.0768  0.6889  0.5564
  161SOPE     N17969   1.159   4.749  10.753 -0.2938 -0.3768 -0.2185
  161SOPE   HN117970   1.254   4.757  10.796  0.6033 -2.7154 -1.5952
  161SOPE   HN217971   1.117   4.837  10.718 -1.2968  0.1159  2.0690
  161SOPE   HN317972   1.096   4.711  10.827 -0.7655 -2.7666 -1.7401
  161SOPE   C1217973   1.156   4.629  10.663  0.2840 -0.3799  0.0756
  161SOPE  H12A17974   1.203   4.545  10.717  2.8083  1.2523  0.6259
  161SOPE  H12B17975   1.224   4.650  10.577 -0.9223  2.4450 -0.3075
  161SOPE   C1117976   1.014   4.586  10.616  0.2700 -0.9499 -0.3644
  161SOPE  H11A17977   1.035   4.514  10.535 -1.6934 -0.7565 -1.1036
  161SOPE  H11B17978   0.965   4.682  10.588  1.8613 -0.3552 -1.2232
  161SOPE     P17979   0.857   4.593  10.832  0.0508 -0.2749  0.2643
  161SOPE   O1317980   0.948   4.676  10.911 -0.3286  0.6690 -0.0747
  161SOPE   O1417981   0.766   4.497  10.895 -0.4386  0.5925  0.1666
  161SOPE   O1217982   0.945   4.517  10.718  0.4456 -0.2015  0.6043
  161SOPE   O1117983   0.770   4.684  10.743  0.0785 -0.3082  0.5782
  161SOPE    C117984   0.638   4.636  10.693 -0.1475 -0.0417 -0.6322
  161SOPE    HA17985   0.587   4.721  10.642  1.6440 -0.6256 -3.6070
  161SOPE    HB17986   0.575   4.614  10.781  1.6891  1.4983  1.1631
  161SOPE    C217987   0.635   4.520  10.602 -0.1089 -0.1918  0.7083
  161SOPE    HS17988   0.681   4.433  10.654  0.3811 -1.5145 -1.7638
  161SOPE   O2117989   0.716   4.551  10.484 -0.7583 -0.1514 -0.8571
  161SOPE   C2117990   0.721   4.466  10.400 -0.3993  0.5366 -0.3274
  161SOPE   O2217991   0.680   4.352  10.411  0.0549  0.6294 -0.0910
  161SOPE   C2217992   0.787   4.532  10.275 -0.9936  0.1157 -0.0826
  161SOPE   H2R17993   0.882   4.567  10.319 -2.0403  1.3275  1.3137
  161SOPE   H2S17994   0.746   4.632  10.248  0.8897  0.8062 -0.5287
  161SOPE    C317995   0.491   4.484  10.560  0.2180  0.0147 -0.2553
  161SOPE    HX17996   0.430   4.486  10.652 -1.2611 -0.5609 -1.1821
  161SOPE    HY17997   0.485   4.377  10.532  0.0458 -0.4348  1.4040
  161SOPE   O3117998   0.437   4.571  10.453 -0.1333  0.4873 -0.2596
  161SOPE   C3117999   0.309   4.536  10.426 -0.2072  0.4547  0.3256
  161SOPE   O3218000   0.242   4.464  10.499  0.2909  0.0392 -0.1658
  161SOPE   C3218001   0.263   4.627  10.302  0.4624 -0.0297  0.3949
  161SOPE   H2X18002   0.354   4.673  10.257  0.3668  1.6129  1.7573
  161SOPE   H2Y18003   0.202   4.712  10.340 -2.5806 -1.6116 -0.6339
  161SOPE   C2318004   0.813   4.445  10.149  1.4514  0.0689  0.2899
  161SOPE   H3R18005   0.830   4.337  10.170  2.4892  0.1388 -0.1585
  161SOPE   H3S18006   0.907   4.483  10.104  0.9091 -0.1917 -1.1297
  161SOPE   C2418007   0.705   4.471  10.046  0.5581 -0.2475 -0.5805
  161SOPE   H4R18008   0.603   4.453  10.086  0.5411  1.5694  0.3223
  161SOPE   H4S18009   0.704   4.581  10.027 -1.5098  0.1804  1.5881
  161SOPE   C2518010   0.755   4.408   9.916  0.2415  0.4123  0.0666
  161SOPE   H5R18011   0.859   4.440   9.894  0.7682 -0.6896  0.8901
  161SOPE   H5S18012   0.760   4.297   9.921  0.8836  0.5064  2.6906
  161SOPE   C2618013   0.660   4.442   9.802 -0.1693 -0.0419 -0.4082
  161SOPE   H6R18014   0.559   4.433   9.849  1.1954 -3.2099  2.2971
  161SOPE   H6S18015   0.679   4.549   9.778  2.0197 -0.2156  0.3785
  161SOPE   C2718016   0.677   4.363   9.673 -0.2361 -0.3818  0.3783
  161SOPE   H7R18017   0.679   4.255   9.697 -2.4809 -0.0310  2.5455
  161SOPE   H7S18018   0.593   4.387   9.604  0.5015  0.2107 -0.3387
  161SOPE   C2818019   0.817   4.389   9.608  0.5491 -0.0370  0.3900
  161SOPE   H8R18020   0.907   4.362   9.667  1.0227  1.1195  0.2183
  161SOPE   H8S18021   0.841   4.317   9.526  1.3244 -0.1994  0.7545
  161SOPE   C2918022   0.819   4.533   9.565 -0.1140 -0.1462  0.1769
  161SOPE   H9118023   0.869   4.602   9.635 -2.3845  1.8320 -0.0141
  161SOPE  C21018024   0.759   4.593   9.461  0.1313 -0.3641 -0.1647
  161SOPE  H10118025   0.778   4.700   9.443 -1.5837  0.0846  0.5174
  161SOPE  C21118026   0.688   4.509   9.355 -0.0960 -0.3939 -0.2314
  161SOPE  H11R18027   0.577   4.508   9.369 -0.3769  1.2571 -1.8733
  161SOPE  H11S18028   0.736   4.410   9.347  3.5986  1.2520 -0.3323
  161SOPE  C21218029   0.723   4.570   9.212 -0.5815  0.3067 -0.8396
  161SOPE  H12R18030   0.689   4.494   9.139  0.2344 -0.5225 -0.3775
  161SOPE  H12S18031   0.833   4.580   9.205 -0.7778  1.2314 -3.9769
  161SOPE  C21318032   0.661   4.711   9.190  0.6136  0.2535 -0.6276
  161SOPE  H13R18033   0.660   4.750   9.294 -0.5877 -0.7034 -0.2584
  161SOPE  H13S18034   0.554   4.692   9.169  0.4131  0.4487  0.1693
  161SOPE  C21418035   0.736   4.806   9.097  0.2103  0.4178  0.7246
  161SOPE  H14R18036   0.842   4.810   9.132 -0.0015 -2.0044  1.8079
  161SOPE  H14S18037   0.697   4.908   9.116 -1.0989  0.3854 -1.5284
  161SOPE  C21518038   0.716   4.784   8.942  0.7613 -0.8753 -1.1542
  161SOPE  H15R18039   0.618   4.831   8.921  1.8176  1.4255 -1.1681
  161SOPE  H15S18040   0.716   4.673   8.933 -0.9490 -0.9921 -0.2392
  161SOPE  C21618041   0.818   4.853   8.850  0.5426 -0.0212  0.7068
  161SOPE  H16R18042   0.812   4.962   8.871  0.4510 -0.0607  0.8886
  161SOPE  H16S18043   0.798   4.822   8.745  0.0675 -0.2418  0.8569
  161SOPE  C21718044   0.966   4.819   8.865 -0.1741  1.0320  0.1686
  161SOPE  H17R18045   0.988   4.711   8.858  0.4780  1.2781 -3.4291
  161SOPE  H17S18046   0.992   4.862   8.964  0.9772  0.6583  0.0418
  161SOPE  C21818047   1.043   4.882   8.748 -0.3151  0.4118  0.2861
  161SOPE  H18R18048   1.012   4.989   8.747 -0.7239  0.2961  0.5614
  161SOPE  H18S18049   1.015   4.836   8.650  0.1954 -1.7669  1.1077
  161SOPE  H18T18050   1.151   4.882   8.772 -0.6876  3.6172  2.6896
  161SOPE   C3318051   0.176   4.547  10.208 -0.0494  0.5758  0.2186
  161SOPE   H3X18052   0.119   4.603  10.130  0.0631 -0.1747 -0.4117
  161SOPE   H3Y18053   0.093   4.495  10.260 -0.5725  1.0958 -0.0792
  161SOPE   C3418054   0.248   4.437  10.124  0.0138 -0.4401 -0.6322
  161SOPE   H4X18055   0.176   4.360  10.087 -0.6474 -0.5760  0.8332
  161SOPE   H4Y18056   0.317   4.379  10.189 -1.0259 -0.4963  0.4642
  161SOPE   C3518057   0.323   4.489   9.998  0.1422 -0.3271 -0.5143
  161SOPE   H5X18058   0.409   4.424   9.973  1.1107  0.4284  0.7244
  161SOPE   H5Y18059   0.369   4.588  10.023  1.5486 -1.0097 -0.3334
  161SOPE   C3618060   0.227   4.497   9.874 -0.0052  0.2768 -0.3580
  161SOPE   H6X18061   0.133   4.547   9.906  0.3646 -0.2952  1.7630
  161SOPE   H6Y18062   0.205   4.393   9.843  0.3015 -0.2648  1.1378
  161SOPE   C3718063   0.291   4.578   9.762  0.1434  0.6067 -0.0671
  161SOPE   H7X18064   0.383   4.522   9.737  0.1878  0.9141 -0.6130
  161SOPE   H7Y18065   0.319   4.676   9.806  0.8699 -0.1943  1.3007
  161SOPE   C3818066   0.195   4.604   9.646  0.1533 -0.1923  0.5303
  161SOPE   H8X18067   0.142   4.701   9.653 -0.5747 -0.6573  1.6710
  161SOPE   H8Y18068   0.107   4.536   9.646 -1.3177  1.6213  1.0666
  161SOPE   C3918069   0.267   4.593   9.508  0.5058  0.2348 -0.4497
  161SOPE   H9X18070   0.316   4.494   9.508 -1.1941 -0.6406 -0.3341
  161SOPE   H9Y18071   0.347   4.670   9.498  0.6534  0.0399 -0.7867
  161SOPE  C31018072   0.177   4.604   9.381  0.3235 -0.3973  0.0114
  161SOPE  H10X18073   0.139   4.706   9.358 -0.6983 -0.9042 -0.6223
  161SOPE  H10Y18074   0.089   4.539   9.403  0.0279  0.4655  1.4935
  161SOPE  C31118075   0.243   4.553   9.255 -0.4517 -0.4854  0.3386
  161SOPE  H11X18076   0.258   4.443   9.257 -0.5656 -0.5173 -0.3366
  161SOPE  H11Y18077   0.348   4.591   9.250 -0.4498 -0.3940  0.9725
  161SOPE  C31218078   0.171   4.599   9.134  0.0786  0.2929 -0.1174
  161SOPE  H12X18079   0.227   4.562   9.046 -2.0835  1.5232 -2.1556
  161SOPE  H12Y18080   0.177   4.710   9.123 -4.0420  0.6258 -0.5178
  161SOPE  C31318081   0.031   4.532   9.125 -0.8198  0.3182  0.2040
  161SOPE  H13X18082  -0.033   4.557   9.212 -1.7076 -0.9213 -0.0628
  161SOPE  H13Y18083   0.056   4.423   9.127  2.7675  0.9637 -1.1671
  161SOPE  C31418084  -0.038   4.566   8.998  0.7858 -0.3240  0.1851
  161SOPE  H14X18085   0.013   4.521   8.910  2.1632  0.9933  0.2610
  161SOPE  H14Y18086  -0.037   4.676   8.980  1.9579 -0.0909  1.5076
  161SOPE  C31518087  -0.173   4.492   8.995  0.0656 -0.5159 -0.6519
  161SOPE  H15X18088  -0.213   4.478   9.098  0.2029 -1.4149 -0.7160
  161SOPE  H15Y18089  -0.160   4.393   8.946 -0.9848 -0.6914 -0.6156
  161SOPE  C31618090  -0.282   4.582   8.928  0.2836  0.7970  0.6871
  161SOPE  H16X18091  -0.221   4.650   8.864  2.0740 -0.0135  1.4642
  161SOPE  H16Y18092  -0.326   4.641   9.011  0.5481  1.7952  0.1443
  161SOPE  C31718093  -0.375   4.501   8.846  0.4472  0.2038  0.0146
  161SOPE  H17X18094  -0.310   4.435   8.784 -1.2000 -1.4844 -0.0133
  161SOPE  H17Y18095  -0.417   4.561   8.762  1.1565 -0.5926 -0.9322
  161SOPE  C31818096  -0.488   4.422   8.924 -0.1169  0.4807  0.3131
  161SOPE  H18X18097  -0.547   4.376   8.842 -0.6401  0.4502  0.6977
  161SOPE  H18Y18098  -0.545   4.502   8.976 -0.8265  1.8232 -2.3884
  161SOPE  H18Z18099  -0.444   4.347   8.994  1.0067  1.0218  0.2042
  162SOPE     N18100   0.407   3.001  11.624 -0.1665  0.2355  0.5491
  162SOPE   HN118101   0.493   3.019  11.569 -0.2212  1.0460  0.7170
  162SOPE   HN218102   0.329   3.037  11.565  0.3286  0.9087  0.3038
  162SOPE   HN318103   0.404   3.059  11.710 -1.0189 -0.5976  1.1081
  162SOPE   C1218104   0.384   2.850  11.655  0.7250  0.5833  0.1835
  162SOPE  H12A18105   0.299   2.858  11.725  1.2535  4.7250  0.5733
  162SOPE  H12B18106   0.478   2.822  11.708  0.5634  0.3958  0.3754
  162SOPE   C1118107   0.367   2.759  11.534  0.0710 -0.3176  0.2050
  162SOPE  H11A18108   0.272   2.785  11.483  0.2069 -1.4205 -0.6523
  162SOPE  H11B18109   0.358   2.653  11.567 -4.6253 -0.3772 -0.5470
  162SOPE     P18110   0.478   2.818  11.296  0.0364 -0.5715 -0.6705
  162SOPE   O1318111   0.597   2.760  11.221 -0.1230 -0.9816 -0.4063
  162SOPE   O1418112   0.461   2.960  11.279 -0.2597 -0.2179  0.1006
  162SOPE   O1218113   0.480   2.786  11.448  0.3001 -0.4563  0.0181
  162SOPE   O1118114   0.351   2.749  11.236 -0.3253  0.3892  0.4485
  162SOPE    C118115   0.321   2.609  11.234  0.0577 -0.7671  0.1308
  162SOPE    HA18116   0.254   2.591  11.321  1.4272 -0.5070  1.2883
  162SOPE    HB18117   0.419   2.555  11.239  1.3535  1.4437 -0.1569
  162SOPE    C218118   0.259   2.580  11.096 -0.3974  0.2142  0.9236
  162SOPE    HS18119   0.263   2.469  11.084  2.1201  0.2690  0.7985
  162SOPE   O2118120   0.331   2.650  10.996  0.0975  0.0109 -0.8326
  162SOPE   C2118121   0.440   2.581  10.961  0.0671 -0.8218 -0.3951
  162SOPE   O2218122   0.473   2.472  11.002  0.2771 -0.0269 -0.4208
  162SOPE   C2218123   0.515   2.663  10.850  0.1827 -0.4762  0.4853
  162SOPE   H2R18124   0.557   2.755  10.895 -0.4625  0.2789 -0.4195
  162SOPE   H2S18125   0.446   2.695  10.769  2.9043  0.3627 -1.6621
  162SOPE    C318126   0.104   2.605  11.082 -0.4704  0.3219  0.2516
  162SOPE    HX18127   0.101   2.715  11.069  1.4501  0.5852  1.5766
  162SOPE    HY18128   0.055   2.589  11.180  2.4958 -1.5603  1.5555
  162SOPE   O3118129   0.044   2.525  10.983  0.1887  0.0747 -0.6544
  162SOPE   C3118130  -0.016   2.587  10.883 -0.5547  0.4050  0.5555
  162SOPE   O3218131  -0.012   2.711  10.871 -0.1282  0.3366  0.6129
  162SOPE   C3218132  -0.071   2.484  10.785 -0.5662 -0.5817  0.4020
  162SOPE   H2X18133  -0.163   2.444  10.832  0.5941 -1.0131  2.4816
  162SOPE   H2Y18134   0.002   2.399  10.785  0.0731 -0.0499 -0.4917
  162SOPE   C2318135   0.628   2.587  10.781  0.0685  0.8982 -0.1260
  162SOPE   H3R18136   0.579   2.518  10.708 -1.7069  0.3797  1.4419
  162SOPE   H3S18137   0.679   2.520  10.854 -1.6236 -0.0492  0.2562
  162SOPE   C2418138   0.726   2.678  10.707  0.5172  0.2570  0.5943
  162SOPE   H4R18139   0.680   2.752  10.637  0.6098 -0.2319  0.0037
  162SOPE   H4S18140   0.793   2.743  10.768  3.3796  0.1574 -2.1449
  162SOPE   C2518141   0.835   2.597  10.633  0.6193 -0.0163  0.0036
  162SOPE   H5R18142   0.919   2.669  10.620  0.5276  0.2757  0.9108
  162SOPE   H5S18143   0.866   2.518  10.704 -0.2010 -0.0368  0.3519
  162SOPE   C2618144   0.791   2.531  10.499  0.3008 -0.5360  0.2119
  162SOPE   H6R18145   0.853   2.447  10.462 -0.1852 -0.5635 -0.5672
  162SOPE   H6S18146   0.690   2.487  10.518 -0.8740  1.6418 -0.6824
  162SOPE   C2718147   0.780   2.627  10.377  0.3537 -0.5107 -0.2135
  162SOPE   H7R18148   0.696   2.700  10.383 -0.0265 -0.9988  0.7103
  162SOPE   H7S18149   0.867   2.695  10.385 -0.3044  0.5065 -1.3800
  162SOPE   C2818150   0.762   2.558  10.238  0.2460 -0.3758  0.2551
  162SOPE   H8R18151   0.679   2.484  10.238 -1.5017  1.5035  0.9379
  162SOPE   H8S18152   0.728   2.641  10.173 -0.4357 -1.7125 -1.1728
  162SOPE   C2918153   0.896   2.507  10.191  0.1613  0.0082  0.0929
  162SOPE   H9118154   0.964   2.478  10.273  0.0301 -0.5705  0.0017
  162SOPE  C21018155   0.953   2.508  10.070 -0.1181  0.3764  0.6721
  162SOPE  H10118156   1.057   2.472  10.059 -0.6172 -0.8155 -0.3462
  162SOPE  C21118157   0.880   2.553   9.943  0.4320  0.3029 -0.4673
  162SOPE  H11R18158   0.783   2.601   9.969 -1.0402 -1.4599 -2.3485
  162SOPE  H11S18159   0.862   2.463   9.879 -2.5971  0.2482  0.3215
  162SOPE  C21218160   0.983   2.631   9.863  0.2587 -0.2945 -0.0831
  162SOPE  H12R18161   1.071   2.569   9.835 -0.0227 -1.3068  1.1757
  162SOPE  H12S18162   1.030   2.713   9.921  1.7564 -0.1011 -1.5072
  162SOPE  C21318163   0.928   2.695   9.732  0.9487 -0.6133  0.5284
  162SOPE  H13R18164   1.001   2.742   9.663 -0.8487 -0.6583 -1.5416
  162SOPE  H13S18165   0.857   2.779   9.751  2.0721  0.3521  0.5215
  162SOPE  C21418166   0.853   2.594   9.644  0.7767  0.4968  0.7398
  162SOPE  H14R18167   0.756   2.571   9.693 -0.5036  0.2357 -1.7456
  162SOPE  H14S18168   0.901   2.496   9.623 -1.4004 -0.4744  0.0145
  162SOPE  C21518169   0.806   2.642   9.506 -0.0394  0.4660  0.0011
  162SOPE  H15R18170   0.774   2.558   9.442  0.3039 -0.0894  0.5502
  162SOPE  H15S18171   0.892   2.684   9.449  0.4597 -2.1688 -1.3266
  162SOPE  C21618172   0.695   2.745   9.517  0.0050  0.2480  0.4847
  162SOPE  H16R18173   0.702   2.815   9.604 -0.2818  2.0778 -0.9116
  162SOPE  H16S18174   0.602   2.684   9.527  0.5338 -0.6435 -0.0075
  162SOPE  C21718175   0.673   2.833   9.395  0.5640  0.7396 -0.4132
  162SOPE  H17R18176   0.566   2.860   9.392  0.2459 -0.5313 -2.6005
  162SOPE  H17S18177   0.682   2.771   9.303  0.6045  1.2777 -0.7787
  162SOPE  C21818178   0.764   2.960   9.390 -0.2305 -0.8567 -0.1884
  162SOPE  H18R18179   0.722   3.034   9.318  0.9234  0.5447  0.5397
  162SOPE  H18S18180   0.867   2.936   9.357 -0.2067  0.0889 -0.8665
  162SOPE  H18T18181   0.769   3.009   9.489  0.3988 -0.9635 -0.1639
  162SOPE   C3318182  -0.081   2.543  10.647 -0.0698 -0.8015 -0.3759
  162SOPE   H3X18183   0.014   2.593  10.618  0.2430 -0.2194  1.5515
  162SOPE   H3Y18184  -0.154   2.626  10.641  0.0142 -0.6187  0.8813
  162SOPE   C3418185  -0.126   2.444  10.539 -0.2219  0.0141 -0.3338
  162SOPE   H4X18186  -0.231   2.417  10.562  0.1475 -0.7714  0.5024
  162SOPE   H4Y18187  -0.064   2.352  10.528 -0.3329 -0.2411  1.0048
  162SOPE   C3518188  -0.118   2.509  10.394  0.2649 -0.0697  0.4140
  162SOPE   H5X18189  -0.034   2.580  10.379 -2.1158  3.2612  1.5846
  162SOPE   H5Y18190  -0.217   2.556  10.372 -0.2329 -2.2571 -2.5095
  162SOPE   C3618191  -0.106   2.392  10.291  0.3615  0.3946 -0.4244
  162SOPE   H6X18192  -0.195   2.326  10.304  0.5407 -0.0754 -1.5046
  162SOPE   H6Y18193  -0.010   2.341  10.313 -0.1223  0.2870  1.6116
  162SOPE   C3718194  -0.095   2.452  10.155 -0.1294  0.7948 -0.4734
  162SOPE   H7X18195  -0.034   2.545  10.156  2.6660 -0.9144  0.0395
  162SOPE   H7Y18196  -0.198   2.476  10.123  0.2859 -0.2611 -2.8408
  162SOPE   C3818197  -0.036   2.346  10.054 -0.7501 -0.0160  0.7087
  162SOPE   H8X18198  -0.102   2.256  10.046  0.2656 -0.6416 -1.6690
  162SOPE   H8Y18199   0.069   2.319  10.078  0.2302 -1.2243 -3.9165
  162SOPE   C3918200  -0.039   2.404   9.913 -0.2980  1.0420  0.8574
  162SOPE   H9X18201   0.039   2.482   9.903  0.2175  0.8902  3.1156
  162SOPE   H9Y18202  -0.138   2.450   9.889 -1.2799 -0.8790  1.0082
  162SOPE  C31018203  -0.025   2.299   9.798  0.1475 -0.1277  0.6493
  162SOPE  H10X18204  -0.115   2.234   9.797  0.8099 -1.0655  0.5364
  162SOPE  H10Y18205   0.064   2.235   9.814  0.1139  0.1069  1.8721
  162SOPE  C31118206  -0.009   2.374   9.666 -0.7420  0.9319 -0.4662
  162SOPE  H11X18207   0.078   2.439   9.687 -1.6787  1.5254  1.9058
  162SOPE  H11Y18208  -0.097   2.435   9.637 -0.0464  2.3393  0.3239
  162SOPE  C31218209   0.006   2.266   9.560  0.2487 -0.4588  1.0168
  162SOPE  H12X18210  -0.082   2.200   9.560  0.7619 -1.1560  1.0270
  162SOPE  H12Y18211   0.090   2.200   9.592 -0.8440 -1.8568  1.0749
  162SOPE  C31318212   0.016   2.319   9.414  0.5469  0.0800  0.3139
  162SOPE  H13X18213   0.113   2.368   9.396  0.8387 -0.5281  0.2018
  162SOPE  H13Y18214  -0.073   2.383   9.396  0.9329  0.2539 -1.0203
  162SOPE  C31418215   0.025   2.190   9.322  0.1523  0.2760 -0.2202
  162SOPE  H14X18216  -0.055   2.116   9.339  0.0898  0.4024  0.0427
  162SOPE  H14Y18217   0.118   2.134   9.348 -0.1864  0.2582  1.0509
  162SOPE  C31518218   0.030   2.227   9.175  0.5120 -0.2727  0.2408
  162SOPE  H15X18219   0.109   2.303   9.159 -0.0448  0.1665 -0.5263
  162SOPE  H15Y18220  -0.065   2.281   9.155  1.2579  1.0148  0.0884
  162SOPE  C31618221   0.063   2.114   9.079 -0.2452  0.5263 -0.2253
  162SOPE  H16X18222  -0.022   2.043   9.081 -2.1217  2.6966  0.6720
  162SOPE  H16Y18223   0.154   2.061   9.115 -0.8529  0.2394  0.9417
  162SOPE  C31718224   0.088   2.164   8.938 -0.5886  0.1734 -0.0149
  162SOPE  H17X18225   0.186   2.214   8.922  1.2708 -2.6472  1.5473
  162SOPE  H17Y18226   0.011   2.240   8.914 -1.8050 -1.3706 -1.1734
  162SOPE  C31818227   0.064   2.053   8.829 -0.0470 -0.0255 -0.2786
  162SOPE  H18X18228   0.102   1.957   8.868  0.5732  0.1810 -0.3499
  162SOPE  H18Y18229   0.106   2.092   8.734 -1.3311 -0.2408 -0.9513
  162SOPE  H18Z18230  -0.046   2.042   8.829  0.0236 -0.8807  0.7554
  163SOPE     N18231   2.601   5.551  10.880  0.7162  0.4465  0.4949
  163SOPE   HN118232   2.567   5.600  10.796 -0.0154 -1.0723 -0.1414
  163SOPE   HN218233   2.523   5.503  10.929  0.2010  1.6912  0.9214
  163SOPE   HN318234   2.658   5.607  10.946 -0.2552  0.9316  0.9284
  163SOPE   C1218235   2.707   5.458  10.827  0.3386  0.1433  0.0550
  163SOPE  H12A18236   2.670   5.398  10.741 -0.4334  0.1648  0.3567
  163SOPE  H12B18237   2.735   5.389  10.910  0.1158 -1.5590 -1.2190
  163SOPE   C1118238   2.820   5.551  10.792  0.6509  0.1736 -0.3666
  163SOPE  H11A18239   2.775   5.614  10.712 -0.1673 -0.2753 -0.2691
  163SOPE  H11B18240   2.906   5.490  10.757  1.4071  1.3209 -0.5700
  163SOPE     P18241   2.958   5.607  11.020 -0.0867 -0.0178 -0.3085
  163SOPE   O1318242   2.938   5.474  11.089 -0.7865 -0.5687 -0.3805
  163SOPE   O1418243   2.953   5.730  11.107 -0.6636  0.4264 -0.1629
  163SOPE   O1218244   2.853   5.630  10.907  0.8128 -0.1739  0.4694
  163SOPE   O1118245   3.092   5.604  10.939  0.0269 -0.0556 -0.0758
  163SOPE    C118246   3.160   5.725  10.910  0.1177  0.3362 -0.1397
  163SOPE    HA18247   3.261   5.721  10.956 -1.3085 -1.1189  3.2035
  163SOPE    HB18248   3.114   5.815  10.955 -2.7905 -1.7169  1.3120
  163SOPE    C218249   3.173   5.757  10.757 -0.6592  1.1535  0.4089
  163SOPE    HS18250   3.240   5.843  10.737 -0.9803  1.5515  1.0168
  163SOPE   O2118251   3.046   5.791  10.710  0.6120 -0.2290 -0.3492
  163SOPE   C2118252   2.998   5.914  10.745 -0.0178 -0.6206 -0.2503
  163SOPE   O2218253   3.054   5.999  10.811  0.2053  0.5023  0.0326
  163SOPE   C2218254   2.854   5.928  10.683 -0.4063  0.1934 -0.2164
  163SOPE   H2R18255   2.827   6.034  10.700  2.7165  1.2437 -1.0974
  163SOPE   H2S18256   2.780   5.865  10.736 -1.8871  1.8633 -0.2115
  163SOPE    C318257   3.224   5.631  10.676 -0.8039  0.0202 -0.8705
  163SOPE    HX18258   3.153   5.551  10.705  0.7991 -1.2025 -0.1148
  163SOPE    HY18259   3.325   5.599  10.710  0.5121  1.3657 -3.2372
  163SOPE   O3118260   3.240   5.653  10.533 -0.4620  0.6113  1.1351
  163SOPE   C3118261   3.248   5.539  10.465 -0.1993 -0.1325  0.1614
  163SOPE   O3218262   3.227   5.428  10.511  1.0500 -0.1279 -0.3443
  163SOPE   C3218263   3.275   5.591  10.327 -0.2567  0.6493  0.4540
  163SOPE   H2X18264   3.289   5.511  10.251  0.0522  2.0624 -1.0273
  163SOPE   H2Y18265   3.364   5.658  10.328 -0.5097  1.0041  1.9302
  163SOPE   C2318266   2.855   5.900  10.527 -0.2809 -0.3501  0.1393
  163SOPE   H3R18267   2.892   5.795  10.519 -1.8323 -0.8380 -1.3038
  163SOPE   H3S18268   2.926   5.965  10.472  0.2362 -1.7641 -0.9405
  163SOPE   C2418269   2.727   5.909  10.452 -0.4555  0.2793  0.4284
  163SOPE   H4R18270   2.659   5.830  10.490  0.6184 -1.6395 -1.4654
  163SOPE   H4S18271   2.675   6.007  10.460  0.2014  0.7620 -0.9320
  163SOPE   C2518272   2.752   5.865  10.305  1.0128 -0.3532 -0.3141
  163SOPE   H5R18273   2.830   5.928  10.257 -1.5691  2.9543 -0.5563
  163SOPE   H5S18274   2.769   5.756  10.304 -1.1822 -0.7486  0.0563
  163SOPE   C2618275   2.618   5.871  10.218  0.6781  0.0365 -1.0652
  163SOPE   H6R18276   2.531   5.828  10.272 -0.2474  0.9996 -1.7601
  163SOPE   H6S18277   2.595   5.977  10.196  0.2559  0.3468  0.7026
  163SOPE   C2718278   2.625   5.798  10.080  0.2925 -1.1937 -0.4609
  163SOPE   H7R18279   2.725   5.804  10.032  1.4439  2.6184  1.9527
  163SOPE   H7S18280   2.600   5.691  10.099 -1.7811 -0.5327  0.9468
  163SOPE   C2818281   2.518   5.854   9.987  0.3206 -0.5569  0.4664
  163SOPE   H8R18282   2.515   5.791   9.895 -0.8244  0.4033 -0.1791
  163SOPE   H8S18283   2.412   5.860  10.020 -0.8599  1.0817 -3.2186
  163SOPE   C2918284   2.548   6.000   9.942  0.2624  0.6637  0.1387
  163SOPE   H9118285   2.616   6.062  10.002 -1.5647  0.7095  2.2826
  163SOPE  C21018286   2.491   6.056   9.832  0.1097 -0.4065 -0.7264
  163SOPE  H10118287   2.522   6.157   9.800 -1.9077  0.3994 -0.3395
  163SOPE  C21118288   2.396   5.989   9.743 -0.6626 -0.8792 -0.1975
  163SOPE  H11R18289   2.308   6.055   9.730 -0.8042 -0.8688  0.7342
  163SOPE  H11S18290   2.361   5.895   9.791 -0.2007 -1.4047 -0.8754
  163SOPE  C21218291   2.453   5.950   9.612 -0.5363  0.0403 -0.7258
  163SOPE  H12R18292   2.556   5.909   9.623 -0.1121  0.6580 -2.1923
  163SOPE  H12S18293   2.465   6.047   9.559 -1.4246  0.3827 -0.3155
  163SOPE  C21318294   2.371   5.849   9.530 -0.3762  0.2639  0.2664
  163SOPE  H13R18295   2.266   5.884   9.525 -1.4925 -2.4389  2.0683
  163SOPE  H13S18296   2.357   5.760   9.595  0.9177 -0.4733 -0.4217
  163SOPE  C21418297   2.404   5.808   9.389 -0.6846  0.8956  0.3598
  163SOPE  H14R18298   2.338   5.739   9.333  0.1986  1.6226 -1.6808
  163SOPE  H14S18299   2.506   5.770   9.371 -1.2550 -0.5231  0.0149
  163SOPE  C21518300   2.382   5.921   9.282 -0.1028  0.3217 -0.3558
  163SOPE  H15R18301   2.395   5.869   9.185 -0.2553 -1.7042  0.6444
  163SOPE  H15S18302   2.463   5.996   9.296  0.3460  0.0926 -1.5987
  163SOPE  C21618303   2.245   5.989   9.278 -0.2262  0.0654 -0.5391
  163SOPE  H16R18304   2.239   6.050   9.371 -1.5631  0.4078 -0.8290
  163SOPE  H16S18305   2.158   5.921   9.267  0.5673 -0.8135 -1.5341
  163SOPE  C21718306   2.219   6.087   9.156 -0.6358  0.3788  0.4958
  163SOPE  H17R18307   2.212   6.025   9.065  0.3383  2.1070 -0.8027
  163SOPE  H17S18308   2.301   6.161   9.151 -1.4674  1.2893 -0.0027
  163SOPE  C21818309   2.084   6.169   9.176 -0.1670 -0.2638  0.0847
  163SOPE  H18R18310   2.088   6.218   9.276  1.8002  0.3928 -0.2650
  163SOPE  H18S18311   1.997   6.100   9.178  1.5416 -2.5153  0.7344
  163SOPE  H18T18312   2.060   6.237   9.092  1.5608  1.0891  0.6203
  163SOPE   C3318313   3.167   5.671  10.268  0.8133 -0.0291  0.0767
  163SOPE   H3X18314   3.186   5.725  10.173 -1.3314  0.8850  0.0983
  163SOPE   H3Y18315   3.149   5.757  10.336 -0.3118  0.2744 -0.5791
  163SOPE   C3418316   3.043   5.584  10.257 -0.5684 -0.5911 -0.2212
  163SOPE   H4X18317   2.966   5.660  10.232 -1.6986 -1.5395  0.2769
  163SOPE   H4Y18318   3.017   5.546  10.358 -3.1538 -1.2877 -1.0614
  163SOPE   C3518319   3.042   5.475  10.153 -0.1191 -0.8377  0.2184
  163SOPE   H5X18320   3.120   5.404  10.187  0.3241 -0.6568 -0.4135
  163SOPE   H5Y18321   3.070   5.515  10.053 -0.8801  1.0665  0.7042
  163SOPE   C3618322   2.908   5.406  10.128 -0.4173  0.2136  0.0023
  163SOPE   H6X18323   2.826   5.474  10.096 -0.6917 -0.5829 -1.0608
  163SOPE   H6Y18324   2.876   5.366  10.227  0.4110 -0.1468  0.1380
  163SOPE   C3718325   2.921   5.292  10.022  0.1512  0.3252 -0.2461
  163SOPE   H7X18326   2.964   5.198  10.065 -1.6499 -0.3278  0.2355
  163SOPE   H7Y18327   2.988   5.321   9.938 -0.0065 -1.4165 -1.0334
  163SOPE   C3818328   2.789   5.261   9.948  0.3076  0.3108  0.4811
  163SOPE   H8X18329   2.740   5.355   9.915  0.2760  0.3172  0.5473
  163SOPE   H8Y18330   2.718   5.214  10.020 -0.7965  2.1585  0.6693
  163SOPE   C3918331   2.804   5.167   9.826 -0.1336 -0.9321 -0.6179
  163SOPE   H9X18332   2.864   5.083   9.867 -1.0371  0.1193  3.2938
  163SOPE   H9Y18333   2.853   5.227   9.746  1.1899 -2.1140 -0.7258
  163SOPE  C31018334   2.674   5.133   9.765  0.4604 -0.1392 -0.3156
  163SOPE  H10X18335   2.611   5.223   9.752  1.0724  0.3316 -0.1320
  163SOPE  H10Y18336   2.614   5.072   9.835  1.1012 -0.5678 -0.1290
  163SOPE  C31118337   2.693   5.044   9.635  0.3730 -0.7753 -0.4508
  163SOPE  H11X18338   2.769   4.964   9.648 -1.5288 -2.3167  2.4161
  163SOPE  H11Y18339   2.722   5.123   9.564 -1.2283  0.9819  0.7392
  163SOPE  C31218340   2.554   4.982   9.587 -0.1882 -0.5800  0.2904
  163SOPE  H12X18341   2.477   5.063   9.589 -0.2814 -0.5196 -2.6424
  163SOPE  H12Y18342   2.516   4.909   9.662  0.3765 -1.9186 -0.7037
  163SOPE  C31318343   2.563   4.911   9.453 -0.7229 -0.6892 -0.1288
  163SOPE  H13X18344   2.636   4.828   9.457 -1.4184 -1.5927 -3.0090
  163SOPE  H13Y18345   2.609   4.975   9.375  1.0663 -1.9051 -0.1184
  163SOPE  C31418346   2.436   4.857   9.394 -0.0305  0.5143 -0.2880
  163SOPE  H14X18347   2.374   4.944   9.363 -0.8706  0.1738  0.4050
  163SOPE  H14Y18348   2.377   4.795   9.464 -1.3101  1.5455 -0.4207
  163SOPE  C31518349   2.460   4.784   9.263 -0.0547 -0.4365  0.4836
  163SOPE  H15X18350   2.513   4.691   9.293  3.1465  1.4173  0.9956
  163SOPE  H15Y18351   2.534   4.836   9.199 -1.7761 -0.5045 -1.6620
  163SOPE  C31618352   2.329   4.759   9.192  0.9169 -0.0138  0.1836
  163SOPE  H16X18353   2.306   4.855   9.141 -3.0653 -1.8022 -1.8199
  163SOPE  H16Y18354   2.252   4.732   9.268  1.3613 -1.1638  0.2485
  163SOPE  C31718355   2.336   4.640   9.087 -0.8156 -0.4539  0.2571
  163SOPE  H17X18356   2.416   4.671   9.017 -1.2583 -0.1554 -0.1248
  163SOPE  H17Y18357   2.250   4.651   9.017 -0.7136  0.7665  0.3061
  163SOPE  C31818358   2.348   4.501   9.150  0.4934 -0.2095 -0.0073
  163SOPE  H18X18359   2.262   4.475   9.215  0.1210 -0.2245 -0.4997
  163SOPE  H18Y18360   2.443   4.494   9.208  0.3743  3.4963  0.9374
  163SOPE  H18Z18361   2.344   4.427   9.068  2.3755  1.7107 -1.9747
  164SOPE     N18362   4.001   4.099  11.079  0.5052 -0.4815 -0.0550
  164SOPE   HN118363   3.903   4.132  11.068  1.1950  2.1287  0.8220
  164SOPE   HN218364   4.011   4.004  11.121  1.0051  0.3885  1.9341
  164SOPE   HN318365   4.058   4.159  11.142 -0.6110 -1.0657  1.5773
  164SOPE   C1218366   4.065   4.100  10.936 -0.0534 -0.0574 -0.0615
  164SOPE  H12A18367   3.998   4.163  10.874  0.7381  1.1599  0.2899
  164SOPE  H12B18368   4.074   3.992  10.910  0.4518 -0.5346  1.9101
  164SOPE   C1118369   4.200   4.181  10.935 -0.0568 -0.1398  0.0183
  164SOPE  H11A18370   4.234   4.153  10.833  3.0094 -0.0573  0.9206
  164SOPE  H11B18371   4.269   4.140  11.011  0.4431  0.3820 -0.1495
  164SOPE     P18372   4.321   4.410  10.956 -0.2438 -0.2085 -0.1271
  164SOPE   O1318373   4.424   4.326  11.016  0.7789  0.5442  0.4527
  164SOPE   O1418374   4.302   4.541  11.020  0.2548  0.5686  0.0148
  164SOPE   O1218375   4.185   4.323  10.953 -0.1036  0.1990 -0.2487
  164SOPE   O1118376   4.359   4.430  10.806 -0.2912 -0.4724  0.1495
  164SOPE    C118377   4.257   4.506  10.727 -0.0277  0.2993  0.8169
  164SOPE    HA18378   4.304   4.602  10.697  2.4083 -1.2792 -0.7255
  164SOPE    HB18379   4.156   4.511  10.772 -0.4006  0.9735 -0.0514
  164SOPE    C218380   4.239   4.430  10.587 -0.5214  0.5431  0.1726
  164SOPE    HS18381   4.201   4.330  10.615 -0.2212  0.2443 -0.4687
  164SOPE   O2118382   4.367   4.439  10.529 -0.0347 -0.3067  0.3186
  164SOPE   C2118383   4.402   4.335  10.455 -0.1944  0.0237  0.5803
  164SOPE   O2218384   4.345   4.225  10.448 -0.4935  0.1363 -0.0977
  164SOPE   C2218385   4.518   4.377  10.368  0.2060  0.0977  0.3369
  164SOPE   H2R18386   4.610   4.320  10.393  0.6541  0.1420 -1.0888
  164SOPE   H2S18387   4.553   4.481  10.381  1.7764 -0.6483  2.7969
  164SOPE    C318388   4.136   4.498  10.495  1.5493  0.0345  1.0539
  164SOPE    HX18389   4.171   4.599  10.465 -2.2419  0.7214 -1.9533
  164SOPE    HY18390   4.050   4.525  10.560  1.0957  1.7802 -0.1830
  164SOPE   O3118391   4.100   4.427  10.368 -0.3337 -0.4047 -0.4726
  164SOPE   C3118392   4.039   4.316  10.391 -0.1623  0.1534 -0.4563
  164SOPE   O3218393   3.977   4.284  10.494 -0.0229  0.3546  0.0775
  164SOPE   C3218394   4.047   4.235  10.262 -0.6079  1.0636  0.6035
  164SOPE   H2X18395   3.976   4.150  10.268 -0.7666  1.0285 -1.2195
  164SOPE   H2Y18396   4.146   4.183  10.271 -0.9163  0.5866  1.4476
  164SOPE   C2318397   4.480   4.355  10.215 -0.1627 -0.0733  0.2896
  164SOPE   H3R18398   4.534   4.432  10.155  0.3925 -0.7222 -0.0526
  164SOPE   H3S18399   4.373   4.373  10.192 -0.0103  2.0791  1.0354
  164SOPE   C2418400   4.515   4.210  10.168 -0.1335 -0.5096  0.6280
  164SOPE   H4R18401   4.615   4.215  10.120  0.4099  0.5760  1.8171
  164SOPE   H4S18402   4.520   4.144  10.258 -2.3542  0.8533  1.8494
  164SOPE   C2518403   4.418   4.154  10.068  0.8244  0.3963  0.5089
  164SOPE   H5R18404   4.318   4.139  10.115  0.7961 -1.5654 -0.0911
  164SOPE   H5S18405   4.396   4.232   9.992 -0.7241 -1.8058 -1.4692
  164SOPE   C2618406   4.456   4.019   9.994 -0.2702 -0.4398 -0.0158
  164SOPE   H6R18407   4.555   4.031   9.944 -0.1624  0.6083  0.4266
  164SOPE   H6S18408   4.465   3.940  10.071  3.5742 -1.4618 -1.2614
  164SOPE   C2718409   4.347   3.964   9.894 -0.1048 -0.6967 -0.0783
  164SOPE   H7R18410   4.348   3.854   9.881 -0.2776 -0.5704 -1.2683
  164SOPE   H7S18411   4.250   3.986   9.943 -0.4658  0.6012 -1.2964
  164SOPE   C2818412   4.348   4.027   9.759 -0.6497  0.3248 -0.0534
  164SOPE   H8R18413   4.258   4.014   9.695 -0.4808  1.5402 -0.5588
  164SOPE   H8S18414   4.346   4.138   9.771  0.5931  0.2233  1.3275
  164SOPE   C2918415   4.458   3.991   9.658 -0.2317  0.6648 -0.5785
  164SOPE   H9118416   4.537   3.918   9.685  1.1199  1.4860 -2.1040
  164SOPE  C21018417   4.457   4.026   9.533 -0.7672  0.2448 -0.2283
  164SOPE  H10118418   4.540   3.984   9.473 -2.2482  0.2427 -2.3751
  164SOPE  C21118419   4.354   4.105   9.463 -1.0789 -0.1373 -0.2025
  164SOPE  H11R18420   4.392   4.208   9.454  0.1923 -0.6346 -0.7875
  164SOPE  H11S18421   4.260   4.105   9.522 -1.2264 -0.4361 -0.4349
  164SOPE  C21218422   4.329   4.041   9.328 -0.0236  0.1282  0.1774
  164SOPE  H12R18423   4.279   3.942   9.342 -0.3637 -0.1168 -2.2527
  164SOPE  H12S18424   4.426   4.010   9.284  1.4065  0.4086  2.8919
  164SOPE  C21318425   4.238   4.118   9.232 -0.0718 -0.1187 -0.1810
  164SOPE  H13R18426   4.297   4.211   9.217 -3.1393  1.9182 -0.5039
  164SOPE  H13S18427   4.150   4.153   9.291 -0.6278 -1.6671 -0.0469
  164SOPE  C21418428   4.194   4.038   9.109  0.2584  0.5476  0.5243
  164SOPE  H14R18429   4.108   3.973   9.131 -2.1940  2.8681 -1.4847
  164SOPE  H14S18430   4.277   3.978   9.066 -0.0864 -0.2793  1.0000
  164SOPE  C21518431   4.143   4.129   8.995  0.3971 -0.8987  0.1672
  164SOPE  H15R18432   4.228   4.184   8.948 -0.1632  0.6131  0.8608
  164SOPE  H15S18433   4.071   4.203   9.037 -1.8245 -2.3770 -0.8538
  164SOPE  C21618434   4.072   4.049   8.881 -0.1095  0.4860 -0.1967
  164SOPE  H16R18435   3.962   4.057   8.892 -0.2635 -1.5323  0.1652
  164SOPE  H16S18436   4.094   3.942   8.905  0.2001  0.6625  0.3326
  164SOPE  C21718437   4.103   4.105   8.741  0.1145 -0.3045 -0.1131
  164SOPE  H17R18438   4.213   4.119   8.731  0.2265  0.1486  1.5571
  164SOPE  H17S18439   4.056   4.206   8.738 -0.6234 -0.6048  1.0033
  164SOPE  C21818440   4.045   4.028   8.617  0.2383 -0.2227 -0.7715
  164SOPE  H18R18441   3.941   3.996   8.642  0.2003  0.9511  0.7144
  164SOPE  H18S18442   4.098   3.933   8.595  1.3671  0.4160 -0.8767
  164SOPE  H18T18443   4.059   4.099   8.533  1.0387  1.2328  0.5291
  164SOPE   C3318444   4.018   4.311  10.139 -0.0543 -0.4238 -0.9188
  164SOPE   H3X18445   4.096   4.388  10.123 -0.9685  0.7973  0.2347
  164SOPE   H3Y18446   3.923   4.367  10.157  1.2726  1.2437  1.4597
  164SOPE   C3418447   4.024   4.228  10.015 -0.3869  0.1509  0.6896
  164SOPE   H4X18448   3.966   4.137  10.042 -3.6227  2.0824  0.7246
  164SOPE   H4Y18449   4.128   4.193   9.996 -0.0395  1.7949 -0.7358
  164SOPE   C3518450   3.955   4.297   9.894 -0.1238  0.2877 -0.3550
  164SOPE   H5X18451   4.004   4.397   9.882 -1.9760  1.3134  0.3207
  164SOPE   H5Y18452   3.850   4.317   9.922 -0.4883 -1.0311 -0.7359
  164SOPE   C3618453   3.959   4.202   9.769 -0.1121 -0.1309 -0.5613
  164SOPE   H6X18454   3.885   4.118   9.772 -1.1901  0.7569  3.4309
  164SOPE   H6Y18455   4.063   4.165   9.762  0.1871  0.6224 -0.1109
  164SOPE   C3718456   3.907   4.265   9.636  0.1185  1.1679  0.2135
  164SOPE   H7X18457   3.956   4.361   9.609 -0.5147  1.5237  0.3043
  164SOPE   H7Y18458   3.798   4.285   9.632 -0.2140 -0.4611  0.3147
  164SOPE   C3818459   3.945   4.169   9.516 -0.3570 -0.0462  0.1956
  164SOPE   H8X18460   3.895   4.071   9.529  1.3404 -1.1594 -1.1474
  164SOPE   H8Y18461   4.053   4.147   9.527 -0.0168  1.2815 -0.2748
  164SOPE   C3918462   3.923   4.227   9.374  0.0252 -0.6705  0.3896
  164SOPE   H9X18463   3.941   4.153   9.293 -2.2182 -0.7455 -0.1242
  164SOPE   H9Y18464   3.985   4.319   9.367 -1.2719  0.1762 -0.3886
  164SOPE  C31018465   3.779   4.289   9.361  0.2740  0.4494  1.0572
  164SOPE  H10X18466   3.747   4.337   9.456 -0.8779 -2.1953  2.1055
  164SOPE  H10Y18467   3.705   4.209   9.338  0.7371  0.6235 -1.3321
  164SOPE  C31118468   3.744   4.394   9.250 -0.5807  0.5649  0.3118
  164SOPE  H11X18469   3.633   4.394   9.249 -0.5964  0.0257  1.0631
  164SOPE  H11Y18470   3.783   4.359   9.152  1.3277  1.3551  0.7458
  164SOPE  C31218471   3.801   4.525   9.270 -0.5954 -0.2506 -0.4358
  164SOPE  H12X18472   3.908   4.516   9.296 -0.7902  1.0047  0.9597
  164SOPE  H12Y18473   3.766   4.573   9.364  1.7442 -1.2427  1.0291
  164SOPE  C31318474   3.767   4.615   9.147  0.2508  0.0476 -0.5524
  164SOPE  H13X18475   3.658   4.610   9.124  0.3443 -0.3309 -0.9344
  164SOPE  H13Y18476   3.822   4.574   9.059 -0.5749  1.1824 -1.6437
  164SOPE  C31418477   3.805   4.758   9.171  0.1825  0.0361 -0.0114
  164SOPE  H14X18478   3.915   4.752   9.181  0.2276 -2.6930 -1.3849
  164SOPE  H14Y18479   3.766   4.787   9.271  1.4053 -0.2619  0.5724
  164SOPE  C31518480   3.762   4.852   9.057 -0.0717  0.2347  0.4987
  164SOPE  H15X18481   3.799   4.954   9.077  2.2710 -0.3452 -0.6083
  164SOPE  H15Y18482   3.651   4.847   9.058 -0.1178  0.7807 -0.6136
  164SOPE  C31618483   3.821   4.820   8.909 -0.7032 -0.1333  0.5639
  164SOPE  H16X18484   3.778   4.895   8.840 -0.5847 -1.2117 -0.7309
  164SOPE  H16Y18485   3.782   4.720   8.879 -1.1427 -0.0422  0.8321
  164SOPE  C31718486   3.976   4.831   8.904  0.2520 -0.1071 -0.3583
  164SOPE  H17X18487   4.021   4.734   8.935  0.1815 -0.0251  0.0019
  164SOPE  H17Y18488   4.006   4.912   8.974 -1.5804  1.4248 -1.2561
  164SOPE  C31818489   4.010   4.878   8.761  0.2057 -0.1140  0.5305
  164SOPE  H18X18490   3.978   4.984   8.757 -1.2572 -0.5704 -1.2467
  164SOPE  H18Y18491   3.950   4.820   8.687  1.4683 -0.6391 -0.1164
  164SOPE  H18Z18492   4.119   4.877   8.742  0.5774 -0.0705  2.5134
  165SOPE     N18493   3.222   3.423  10.848  0.0878  0.1348 -0.2872
  165SOPE   HN118494   3.226   3.461  10.751 -0.4420 -0.2274 -0.4576
  165SOPE   HN218495   3.224   3.319  10.837  0.4479  0.3689 -3.5394
  165SOPE   HN318496   3.128   3.449  10.884  0.0749  1.0752 -0.9577
  165SOPE   C1218497   3.333   3.482  10.928 -0.5194 -0.0247 -0.2845
  165SOPE  H12A18498   3.427   3.429  10.901 -1.0268 -0.5846 -1.0043
  165SOPE  H12B18499   3.296   3.474  11.032  0.5143  3.0606  0.4262
  165SOPE   C1118500   3.348   3.635  10.906  0.7809 -0.0832  0.2500
  165SOPE  H11A18501   3.388   3.635  10.802  0.1349  1.5987 -0.0166
  165SOPE  H11B18502   3.422   3.676  10.978 -0.1973  2.9544 -0.3558
  165SOPE     P18503   3.150   3.777  10.791 -0.1800  0.3178 -0.1953
  165SOPE   O1318504   3.067   3.889  10.841  0.7623 -0.2027  0.0079
  165SOPE   O1418505   3.080   3.668  10.723  0.2917 -0.3639  1.3691
  165SOPE   O1218506   3.224   3.699  10.916  0.2135  0.1266 -0.7736
  165SOPE   O1118507   3.264   3.839  10.698 -0.1094  0.1268  0.2565
  165SOPE    C118508   3.323   3.960  10.746  0.2503  0.0714 -0.5923
  165SOPE    HA18509   3.386   3.940  10.836  2.2354  2.6914 -1.2689
  165SOPE    HB18510   3.254   4.043  10.774 -1.7974 -1.3483 -1.2445
  165SOPE    C218511   3.408   4.024  10.636  0.3158  1.0357  0.0577
  165SOPE    HS18512   3.449   4.124  10.662  0.6443  0.8807  0.1386
  165SOPE   O2118513   3.335   4.031  10.513  0.3663  0.1341 -0.0971
  165SOPE   C2118514   3.234   4.116  10.516  0.5344  0.0220 -0.9787
  165SOPE   O2218515   3.196   4.185  10.611 -0.1668 -0.1822  0.2535
  165SOPE   C2218516   3.155   4.108  10.388  0.3605  0.4486  0.3163
  165SOPE   H2R18517   3.232   4.121  10.309  0.2410  1.9328  0.4146
  165SOPE   H2S18518   3.078   4.186  10.367  0.9567  1.1705  0.8059
  165SOPE    C318519   3.542   3.937  10.619  0.0186  0.0863 -0.0993
  165SOPE    HX18520   3.517   3.828  10.625 -0.6217  0.1953 -0.6581
  165SOPE    HY18521   3.602   3.958  10.710  0.9274 -2.1837 -0.1103
  165SOPE   O3118522   3.619   3.973  10.501  0.5438 -0.2113  0.2972
  165SOPE   C3118523   3.596   3.899  10.387  0.3311 -0.0911  0.4493
  165SOPE   O3218524   3.507   3.813  10.373 -0.6398 -0.3503  0.3756
  165SOPE   C3218525   3.700   3.934  10.283 -0.4652  0.6807 -0.0157
  165SOPE   H2X18526   3.801   3.912  10.325  0.5439  0.1291 -2.5094
  165SOPE   H2Y18527   3.698   4.044  10.264  1.8636  0.5899 -1.1255
  165SOPE   C2318528   3.080   3.969  10.379 -0.1313  0.1775 -0.2191
  165SOPE   H3R18529   3.027   3.962  10.477  0.3847  0.9766  0.1267
  165SOPE   H3S18530   3.149   3.882  10.373 -1.2662 -0.7074 -0.8714
  165SOPE   C2418531   2.976   3.948  10.269  0.6161  0.1435  0.0044
  165SOPE   H4R18532   2.912   3.865  10.304 -1.3239  0.8171 -1.7516
  165SOPE   H4S18533   2.911   4.038  10.264 -0.2845 -0.4853  0.3676
  165SOPE   C2518534   3.030   3.926  10.128 -0.2640  0.0355  0.3541
  165SOPE   H5R18535   2.959   3.937  10.043  0.8622 -0.5200 -0.6862
  165SOPE   H5S18536   3.104   4.006  10.108 -0.5133  0.0844 -0.3883
  165SOPE   C2618537   3.102   3.786  10.117 -0.7353 -0.5344  0.7512
  165SOPE   H6R18538   3.199   3.795  10.172 -0.4899  1.0069  0.1085
  165SOPE   H6S18539   3.054   3.702  10.171 -0.9400 -0.6166  0.4399
  165SOPE   C2718540   3.126   3.748   9.973  0.4904 -0.0010 -0.2073
  165SOPE   H7R18541   3.167   3.645   9.967  1.9259  0.4611  1.0997
  165SOPE   H7S18542   3.030   3.762   9.918  1.0833  0.6008 -1.1096
  165SOPE   C2818543   3.233   3.832   9.905 -0.4902  0.3360  0.3961
  165SOPE   H8R18544   3.215   3.941   9.903 -0.7332  0.4123  2.8563
  165SOPE   H8S18545   3.330   3.826   9.959 -0.6137  0.7228  0.6687
  165SOPE   C2918546   3.261   3.778   9.767  0.7227  0.2069  0.2190
  165SOPE   H9118547   3.351   3.717   9.750 -0.1778 -0.6086 -2.1621
  165SOPE  C21018548   3.192   3.814   9.656 -0.4956 -0.7630 -0.0729
  165SOPE  H10118549   3.217   3.783   9.553  1.7595  0.2274  0.1321
  165SOPE  C21118550   3.087   3.926   9.642 -0.5220  0.2188 -0.8140
  165SOPE  H11R18551   3.151   4.014   9.615  2.5702 -1.8802 -0.8602
  165SOPE  H11S18552   3.028   3.947   9.734  0.5621 -1.2387  0.2546
  165SOPE  C21218553   3.009   3.919   9.512  0.6837  0.9526  0.6702
  165SOPE  H12R18554   2.916   3.979   9.516 -0.3234 -0.4349 -0.4990
  165SOPE  H12S18555   2.965   3.817   9.498  0.6464  0.7759  1.9710
  165SOPE  C21318556   3.088   3.970   9.389  0.5957 -0.2655 -0.7727
  165SOPE  H13R18557   3.190   3.928   9.377  0.3127 -0.9091 -0.9337
  165SOPE  H13S18558   3.102   4.079   9.404  0.6142 -0.2382 -0.9894
  165SOPE  C21418559   3.005   3.968   9.257  0.6488  0.3764  0.1065
  165SOPE  H14R18560   2.907   4.021   9.266  0.3304  0.0741 -1.2583
  165SOPE  H14S18561   2.985   3.864   9.224  0.9100  0.2909  0.2193
  165SOPE  C21518562   3.083   4.021   9.141 -0.3541  0.5016  0.0562
  165SOPE  H15R18563   3.180   3.972   9.119 -1.8881 -1.2633 -3.8024
  165SOPE  H15S18564   3.088   4.130   9.163 -2.0122  1.1807 -2.4159
  165SOPE  C21618565   3.004   4.005   9.013  0.7720  0.2991  0.0996
  165SOPE  H16R18566   2.904   4.052   9.027  0.3462 -0.0139 -1.7135
  165SOPE  H16S18567   3.007   3.896   8.992  1.6611  0.2305  0.5315
  165SOPE  C21718568   3.072   4.071   8.895  0.5263  0.0711 -0.1752
  165SOPE  H17R18569   3.169   4.017   8.890 -0.4514 -1.8623  0.6761
  165SOPE  H17S18570   3.099   4.178   8.908 -0.1571  0.6073 -2.5799
  165SOPE  C21818571   2.989   4.065   8.768  0.6818  0.0486 -0.0316
  165SOPE  H18R18572   2.947   3.965   8.743 -0.0453  1.0978 -3.5863
  165SOPE  H18S18573   3.051   4.089   8.679 -1.3355  0.7034 -1.3398
  165SOPE  H18T18574   2.910   4.142   8.776 -1.0212 -1.6536  0.3486
  165SOPE   C3318575   3.676   3.879  10.137 -0.0930 -0.1575  0.0525
  165SOPE   H3X18576   3.586   3.923  10.089  0.4489  0.3660 -0.4930
  165SOPE   H3Y18577   3.659   3.769  10.137  0.1117 -0.2655  2.6110
  165SOPE   C3418578   3.789   3.909  10.038  0.2744  0.0747  0.6414
  165SOPE   H4X18579   3.885   3.859  10.062 -0.0267 -1.9207 -1.9377
  165SOPE   H4Y18580   3.815   4.017  10.026 -0.5518  0.4952  2.2145
  165SOPE   C3518581   3.772   3.848   9.899 -0.3489  0.1023  0.0330
  165SOPE   H5X18582   3.742   3.744   9.923 -0.6138  0.3691  0.9048
  165SOPE   H5Y18583   3.863   3.850   9.835 -0.2593 -2.0800  0.0248
  165SOPE   C3618584   3.657   3.922   9.821  0.3424 -0.0851 -0.3311
  165SOPE   H6X18585   3.665   4.033   9.823 -3.3347  0.2908  0.1771
  165SOPE   H6Y18586   3.561   3.901   9.874 -0.4999  0.3817 -1.6233
  165SOPE   C3718587   3.662   3.888   9.672 -0.7492 -0.5350 -0.1381
  165SOPE   H7X18588   3.626   3.784   9.661 -0.7226 -0.8634  2.2708
  165SOPE   H7Y18589   3.766   3.893   9.636 -1.1967 -1.5743 -1.6286
  165SOPE   C3818590   3.570   3.984   9.589 -0.3022  0.6884  0.8376
  165SOPE   H8X18591   3.603   4.088   9.613 -1.3140  1.4061 -0.7469
  165SOPE   H8Y18592   3.468   3.970   9.632  0.1109 -0.7031  1.4034
  165SOPE   C3918593   3.568   3.959   9.439 -0.0247 -0.5963  0.2267
  165SOPE   H9X18594   3.551   3.853   9.412  2.1438 -0.9034 -0.0614
  165SOPE   H9Y18595   3.668   3.982   9.397  0.1049  0.5013  1.0928
  165SOPE  C31018596   3.470   4.060   9.375  0.1370  0.2290 -0.7327
  165SOPE  H10X18597   3.507   4.163   9.393  1.1239 -0.1686 -0.4514
  165SOPE  H10Y18598   3.372   4.056   9.426 -0.4632 -0.5235 -1.8882
  165SOPE  C31118599   3.445   4.027   9.227 -0.3689  0.1094  0.5162
  165SOPE  H11X18600   3.342   4.049   9.191 -0.2052 -1.1558 -0.8528
  165SOPE  H11Y18601   3.456   3.923   9.188 -1.3988  0.1058  0.1927
  165SOPE  C31218602   3.540   4.108   9.132  0.5472  0.8903 -0.0210
  165SOPE  H12X18603   3.647   4.077   9.129  0.3597  0.2824 -0.6426
  165SOPE  H12Y18604   3.538   4.218   9.147 -1.9797  0.9509 -0.2997
  165SOPE  C31318605   3.503   4.075   8.984 -0.5870 -0.2408  0.0459
  165SOPE  H13X18606   3.394   4.060   8.973 -0.3086 -2.3363 -0.2685
  165SOPE  H13Y18607   3.548   3.979   8.949 -0.7582  0.3206 -1.8049
  165SOPE  C31418608   3.551   4.178   8.883 -0.5132 -0.3320  0.2527
  165SOPE  H14X18609   3.544   4.283   8.918 -1.6581  1.0594 -3.6966
  165SOPE  H14Y18610   3.476   4.172   8.802  0.0128  1.1723 -0.3754
  165SOPE  C31518611   3.698   4.155   8.834  0.5209  0.5314  0.1616
  165SOPE  H15X18612   3.707   4.047   8.807 -0.2972  0.3336  0.6171
  165SOPE  H15Y18613   3.769   4.163   8.919  2.1586 -3.1701 -0.6511
  165SOPE  C31618614   3.740   4.247   8.724  0.0419  0.1142 -0.8595
  165SOPE  H16X18615   3.669   4.244   8.639  0.1695  1.0519 -1.0116
  165SOPE  H16Y18616   3.837   4.209   8.684  0.9305  1.0350  0.3368
  165SOPE  C31718617   3.762   4.387   8.773 -0.2071 -0.5434 -0.7441
  165SOPE  H17X18618   3.802   4.385   8.876 -2.1676  0.6096  0.0982
  165SOPE  H17Y18619   3.661   4.433   8.779 -1.9111 -4.1291  2.2502
  165SOPE  C31818620   3.845   4.470   8.678 -0.1211  0.0782  0.5764
  165SOPE  H18X18621   3.812   4.455   8.573 -0.2130  0.9115  0.4772
  165SOPE  H18Y18622   3.952   4.444   8.692  1.0527  4.2535  0.5817
  165SOPE  H18Z18623   3.856   4.578   8.703  0.3918 -0.2169  1.6939
  166SOPE     N18624   6.677   1.368  10.934 -0.2203 -0.5458 -0.1773
  166SOPE   HN118625   6.672   1.447  11.002 -1.7184 -1.1859  0.5047
  166SOPE   HN218626   6.712   1.286  10.988  1.2945  1.4548  2.0740
  166SOPE   HN318627   6.745   1.395  10.861 -0.1599 -0.6196 -0.1491
  166SOPE   C1218628   6.533   1.361  10.890  0.8560 -0.3297  0.0220
  166SOPE  H12A18629   6.536   1.302  10.797  1.6870  1.4817 -1.1660
  166SOPE  H12B18630   6.499   1.466  10.875 -1.2251 -0.8289  0.8391
  166SOPE   C1118631   6.453   1.293  10.994  0.4488  0.4721  0.1176
  166SOPE  H11A18632   6.346   1.303  10.967  0.1196 -3.1297 -0.3805
  166SOPE  H11B18633   6.451   1.351  11.089 -0.6443  0.2323  0.2583
  166SOPE     P18634   6.398   1.043  10.989 -0.0989  0.2854  0.0275
  166SOPE   O1318635   6.269   1.058  11.060  0.3082 -0.6039  0.0337
  166SOPE   O1418636   6.474   0.922  11.025 -0.6694  0.0013  0.1865
  166SOPE   O1218637   6.499   1.161  11.021 -0.2482  0.0580 -0.8161
  166SOPE   O1118638   6.377   1.047  10.831 -0.3592 -0.3581 -0.0917
  166SOPE    C118639   6.330   0.924  10.775 -0.8028  0.3128  0.0794
  166SOPE    HA18640   6.240   0.883  10.826 -0.6435 -0.5608 -0.3216
  166SOPE    HB18641   6.416   0.852  10.773 -0.4710  0.7115 -1.7118
  166SOPE    C218642   6.290   0.934  10.625  0.7238 -0.1584 -0.3735
  166SOPE    HS18643   6.206   0.864  10.605  0.4540 -0.8648  2.7184
  166SOPE   O2118644   6.412   0.915  10.552  0.5448  0.1515  0.4423
  166SOPE   C2118645   6.396   0.844  10.448 -0.1249  0.4962  0.1005
  166SOPE   O2218646   6.289   0.806  10.403 -0.3598 -0.6421 -0.0689
  166SOPE   C2218647   6.534   0.777  10.422  0.4697 -0.9360  0.5534
  166SOPE   H2R18648   6.573   0.743  10.521  0.4283 -0.9092  0.5788
  166SOPE   H2S18649   6.606   0.847  10.375  0.5649 -0.7025  1.0425
  166SOPE    C318650   6.242   1.078  10.592  0.0326  0.6525  0.3979
  166SOPE    HX18651   6.321   1.150  10.623  0.8665  0.8164 -1.8961
  166SOPE    HY18652   6.165   1.089  10.672 -1.3935  2.8687 -1.1598
  166SOPE   O3118653   6.182   1.088  10.458 -0.0187  0.2739 -0.0901
  166SOPE   C3118654   6.249   1.150  10.366 -1.0782 -0.3079 -0.2272
  166SOPE   O3218655   6.372   1.188  10.373  0.2653  0.5326 -0.2510
  166SOPE   C3218656   6.162   1.158  10.241 -0.4579  0.0058  0.3461
  166SOPE   H2X18657   6.098   1.247  10.259 -1.3192 -0.5392  0.0030
  166SOPE   H2Y18658   6.093   1.071  10.248  0.3582 -0.6094  0.9254
  166SOPE   C2318659   6.523   0.651  10.329 -0.2756 -0.5144  0.1852
  166SOPE   H3R18660   6.447   0.579  10.367  0.3835 -0.8419  0.9035
  166SOPE   H3S18661   6.614   0.588  10.337  1.1448  1.3822 -0.5338
  166SOPE   C2418662   6.504   0.692  10.189  0.7012  0.7678 -0.0460
  166SOPE   H4R18663   6.404   0.740  10.192  0.9726  1.4412 -1.1318
  166SOPE   H4S18664   6.565   0.779  10.156  0.9795  2.2241  3.7983
  166SOPE   C2518665   6.506   0.580  10.088 -0.5780  0.3745 -0.0432
  166SOPE   H5R18666   6.612   0.565  10.060 -0.5565  1.3699 -0.5542
  166SOPE   H5S18667   6.462   0.487  10.130 -0.4380  0.9077  1.3498
  166SOPE   C2618668   6.425   0.618   9.963 -0.2666  0.4088  0.2136
  166SOPE   H6R18669   6.317   0.630   9.984 -0.1576 -1.5577  2.3145
  166SOPE   H6S18670   6.465   0.717   9.932 -0.8539  1.2568  2.0661
  166SOPE   C2718671   6.428   0.509   9.855  0.1047  0.7458 -0.3083
  166SOPE   H7R18672   6.531   0.467   9.851 -0.0150  0.0962  1.8283
  166SOPE   H7S18673   6.375   0.424   9.903  1.1381 -0.2646 -0.9101
  166SOPE   C2818674   6.364   0.555   9.724  0.4876  0.4211  0.7048
  166SOPE   H8R18675   6.421   0.644   9.691  1.1012 -0.1279  0.2690
  166SOPE   H8S18676   6.382   0.476   9.648 -0.6383  0.9588 -0.1601
  166SOPE   C2918677   6.212   0.584   9.737  0.8343 -0.5098  0.0835
  166SOPE   H9118678   6.186   0.646   9.825  0.1164 -0.6232 -0.0459
  166SOPE  C21018679   6.121   0.542   9.645  0.4234 -0.1321  0.4637
  166SOPE  H10118680   6.021   0.581   9.667 -0.6369 -1.7387 -1.2996
  166SOPE  C21118681   6.151   0.465   9.520  0.4765  0.0690 -0.5327
  166SOPE  H11R18682   6.077   0.382   9.513 -3.3839  3.0420  0.8864
  166SOPE  H11S18683   6.256   0.430   9.519  0.7037  0.7096  0.1110
  166SOPE  C21218684   6.134   0.567   9.403 -0.2274  0.2529 -0.8240
  166SOPE  H12R18685   6.226   0.629   9.416  0.1335 -0.6812  1.6137
  166SOPE  H12S18686   6.042   0.628   9.416 -0.5690 -0.6186  1.3316
  166SOPE  C21318687   6.140   0.497   9.269  0.2843  0.4706 -0.2381
  166SOPE  H13R18688   6.048   0.435   9.257  0.7690  0.0777 -2.5367
  166SOPE  H13S18689   6.222   0.423   9.262  1.4079  1.7813 -1.6688
  166SOPE  C21418690   6.141   0.592   9.154  0.2249  0.1913  0.1860
  166SOPE  H14R18691   6.214   0.675   9.168  0.8628 -0.0653 -1.3861
  166SOPE  H14S18692   6.040   0.630   9.128  0.4978 -0.1130 -1.4403
  166SOPE  C21518693   6.182   0.529   9.016 -0.6512 -0.7069 -0.0990
  166SOPE  H15R18694   6.285   0.489   9.028 -0.9170 -1.1534  0.8288
  166SOPE  H15S18695   6.187   0.608   8.938 -0.3571 -1.0780 -0.4581
  166SOPE  C21618696   6.087   0.423   8.964 -0.3967  0.2759 -0.5768
  166SOPE  H16R18697   5.986   0.459   8.934 -0.1521  0.3068 -1.3927
  166SOPE  H16S18698   6.080   0.334   9.030  2.1945 -0.6124 -1.3645
  166SOPE  C21718699   6.149   0.353   8.846  0.0193  0.0161  0.0764
  166SOPE  H17R18700   6.098   0.258   8.817  0.7836  0.0208 -1.4042
  166SOPE  H17S18701   6.253   0.331   8.877  0.2419  0.0609 -0.6343
  166SOPE  C21818702   6.147   0.433   8.717 -0.6180 -0.3852 -0.0713
  166SOPE  H18R18703   6.040   0.460   8.701 -0.4382 -0.8171 -2.2634
  166SOPE  H18S18704   6.179   0.382   8.624 -1.0709 -2.0992  0.6602
  166SOPE  H18T18705   6.198   0.531   8.729 -0.0672 -0.5774 -0.8230
  166SOPE   C3318706   6.238   1.170  10.106  0.1849  0.1544  0.6535
  166SOPE   H3X18707   6.324   1.239  10.115 -0.8184  1.9738 -2.3959
  166SOPE   H3Y18708   6.175   1.218  10.028  0.6769  0.1960  0.2753
  166SOPE   C3418709   6.291   1.035  10.064 -0.1987 -0.0489  0.8218
  166SOPE   H4X18710   6.213   0.957  10.067  2.0035 -2.4108  4.1078
  166SOPE   H4Y18711   6.380   1.011  10.126  0.6193  2.1883  0.6434
  166SOPE   C3518712   6.346   1.044   9.925  0.1827 -0.0864  0.7163
  166SOPE   H5X18713   6.419   0.965   9.899 -1.8830 -1.9404  0.2982
  166SOPE   H5Y18714   6.403   1.140   9.924 -2.3701  1.5425 -0.8558
  166SOPE   C3618715   6.245   1.016   9.806 -0.2814 -0.5611  0.0290
  166SOPE   H6X18716   6.166   1.094   9.820  1.7887  1.7226 -0.3304
  166SOPE   H6Y18717   6.202   0.913   9.808 -0.5199 -0.6170 -3.1380
  166SOPE   C3718718   6.309   1.028   9.668 -0.1536  0.1187  0.1208
  166SOPE   H7X18719   6.381   1.113   9.661 -0.4681  0.4162  0.4949
  166SOPE   H7Y18720   6.221   1.055   9.606 -0.4555  0.7928  0.8306
  166SOPE   C3818721   6.367   0.898   9.621  0.0837 -0.1870 -0.9806
  166SOPE   H8X18722   6.291   0.817   9.618  1.1083 -1.2351 -0.2246
  166SOPE   H8Y18723   6.426   0.867   9.710 -1.6036  1.3312  0.7634
  166SOPE   C3918724   6.447   0.911   9.491 -0.3883  0.5826 -0.2443
  166SOPE   H9X18725   6.533   0.977   9.517 -1.7355  3.0436 -1.5794
  166SOPE   H9Y18726   6.385   0.963   9.414  1.5524  0.1243 -2.2223
  166SOPE  C31018727   6.494   0.772   9.424  0.0215  1.2895 -0.2927
  166SOPE  H10X18728   6.410   0.729   9.365  1.3094 -0.0396 -1.2428
  166SOPE  H10Y18729   6.537   0.701   9.498 -2.6281 -0.8852 -0.6926
  166SOPE  C31118730   6.600   0.788   9.317 -0.4958  0.1875 -0.1870
  166SOPE  H11X18731   6.684   0.840   9.369 -2.2895 -0.2810  3.4671
  166SOPE  H11Y18732   6.557   0.858   9.242  2.0195 -0.2733 -2.2049
  166SOPE  C31218733   6.659   0.654   9.259  0.1160  0.5408 -0.0295
  166SOPE  H12X18734   6.610   0.560   9.292 -0.6681  0.6945 -0.7318
  166SOPE  H12Y18735   6.762   0.653   9.300 -0.6598 -1.0096  2.0701
  166SOPE  C31318736   6.688   0.649   9.109 -0.1056 -0.0794  0.0941
  166SOPE  H13X18737   6.591   0.642   9.056 -1.3699 -0.0385  2.2620
  166SOPE  H13Y18738   6.743   0.556   9.088  0.0293  0.5081 -2.3953
  166SOPE  C31418739   6.773   0.773   9.065  0.0278  0.2283  0.6847
  166SOPE  H14X18740   6.856   0.781   9.138  2.2381  0.6287 -1.7301
  166SOPE  H14Y18741   6.721   0.869   9.086  0.3126  0.5719 -0.1577
  166SOPE  C31518742   6.824   0.751   8.924  0.4796  0.3466  0.3782
  166SOPE  H15X18743   6.742   0.760   8.849 -0.3527 -0.2747  1.1827
  166SOPE  H15Y18744   6.870   0.650   8.926 -2.1650 -1.0189 -1.5839
  166SOPE  C31618745   6.932   0.855   8.897 -0.4511  0.4194 -0.4551
  166SOPE  H16X18746   6.960   0.847   8.790 -1.5535 -0.9392 -0.6557
  166SOPE  H16Y18747   7.026   0.836   8.954  0.4626  1.5898 -1.5107
  166SOPE  C31718748   6.888   0.998   8.927 -0.2951  1.1991 -0.3837
  166SOPE  H17X18749   6.858   1.010   9.033  0.5522  0.2928 -0.0317
  166SOPE  H17Y18750   6.797   1.020   8.867 -0.8263 -0.2275 -0.1399
  166SOPE  C31818751   6.989   1.110   8.910 -0.2490  0.1759  0.0040
  166SOPE  H18X18752   6.932   1.206   8.910 -0.2480  0.1778 -0.5658
  166SOPE  H18Y18753   7.043   1.108   8.813  0.4142  3.2879  0.1935
  166SOPE  H18Z18754   7.058   1.099   8.997 -1.5910 -0.6000  1.0000
  167SOPE     N18755   1.452   2.566   6.168  0.9362  0.0273  0.1362
  167SOPE   HN118756   1.431   2.655   6.119 -0.7760 -1.3061 -1.7576
  167SOPE   HN218757   1.527   2.518   6.114 -0.7052 -0.5372 -1.7758
  167SOPE   HN318758   1.372   2.501   6.153 -0.0933  1.2931  0.0098
  167SOPE   C1218759   1.480   2.591   6.313  0.0995 -0.5408  0.7830
  167SOPE  H12A18760   1.407   2.667   6.349 -0.6543  0.0527 -1.7696
  167SOPE  H12B18761   1.581   2.638   6.317  0.7838 -1.5158 -2.4078
  167SOPE   C1118762   1.476   2.453   6.389  0.4186  0.7684  0.0172
  167SOPE  H11A18763   1.369   2.424   6.392  0.8851 -1.1389 -0.1923
  167SOPE  H11B18764   1.506   2.478   6.494 -2.8267  0.8171  1.0421
  167SOPE     P18765   1.708   2.325   6.367 -0.1081 -0.3810  0.0784
  167SOPE   O1318766   1.794   2.416   6.294 -0.0038 -0.0882  0.4876
  167SOPE   O1418767   1.746   2.184   6.359  0.1720  0.4826 -0.5224
  167SOPE   O1218768   1.559   2.354   6.324 -0.0931  0.2083  0.3233
  167SOPE   O1118769   1.714   2.370   6.525  0.5891  0.2534 -0.0504
  167SOPE    C118770   1.660   2.287   6.629 -0.8556  0.0699 -0.1723
  167SOPE    HA18771   1.567   2.233   6.601 -0.2527 -0.3944 -1.3336
  167SOPE    HB18772   1.660   2.353   6.718  1.7700 -0.4983  0.3442
  167SOPE    C218773   1.763   2.181   6.669 -0.3032 -0.0010 -0.3474
  167SOPE    HS18774   1.768   2.101   6.592  3.3935 -0.2433 -0.0441
  167SOPE   O2118775   1.714   2.123   6.793 -0.2249  0.9631 -0.1415
  167SOPE   C2118776   1.788   2.014   6.847 -0.1670 -0.2159  0.3122
  167SOPE   O2218777   1.874   1.953   6.787  0.1030  0.4833  0.2810
  167SOPE   C2218778   1.748   1.978   6.988  0.3170 -0.0385 -0.8378
  167SOPE   H2R18779   1.651   2.026   7.014 -0.4891 -2.0933  0.1484
  167SOPE   H2S18780   1.832   2.008   7.053 -0.8432  1.7484 -0.0752
  167SOPE    C318781   1.911   2.233   6.677 -0.6493 -0.6436 -0.3745
  167SOPE    HX18782   1.941   2.281   6.582 -0.5477 -0.1789 -0.1075
  167SOPE    HY18783   1.980   2.148   6.694 -1.8494 -1.5982 -0.0987
  167SOPE   O3118784   1.916   2.328   6.786  0.5478  0.4793 -0.2119
  167SOPE   C3118785   2.031   2.347   6.839 -0.4799 -0.2635 -0.4948
  167SOPE   O3218786   2.138   2.307   6.795 -0.6450  0.3463 -0.0679
  167SOPE   C3218787   2.009   2.414   6.984 -0.3843 -0.0294  0.0928
  167SOPE   H2X18788   2.093   2.377   7.047 -1.4776 -0.1579  1.5208
  167SOPE   H2Y18789   1.914   2.374   7.024  0.3679 -1.7732  0.2337
  167SOPE   C2318790   1.729   1.825   7.012 -0.1690  0.5137  0.4257
  167SOPE   H3R18791   1.829   1.777   7.003  0.6350  2.0107  0.9506
  167SOPE   H3S18792   1.650   1.764   6.963  1.2776  0.2759 -1.6930
  167SOPE   C2418793   1.695   1.802   7.159  0.1214 -0.2526 -0.2912
  167SOPE   H4R18794   1.606   1.869   7.164  1.1431  1.7508 -4.5327
  167SOPE   H4S18795   1.667   1.695   7.167  0.7787 -0.3989  0.1120
  167SOPE   C2518796   1.797   1.838   7.267 -0.3178 -0.6044 -0.0482
  167SOPE   H5R18797   1.881   1.767   7.260  1.4462  1.2923  0.7604
  167SOPE   H5S18798   1.848   1.936   7.257  0.8310 -1.1745  0.1241
  167SOPE   C2618799   1.729   1.834   7.403 -0.0825 -0.1018 -0.0479
  167SOPE   H6R18800   1.629   1.881   7.413 -0.2920 -0.5946  0.2208
  167SOPE   H6S18801   1.718   1.723   7.413 -0.1919 -0.0307  0.6758
  167SOPE   C2718802   1.828   1.881   7.517  0.3144 -0.0804  0.0924
  167SOPE   H7R18803   1.918   1.818   7.532  0.5018  0.2975  0.5776
  167SOPE   H7S18804   1.851   1.986   7.488 -2.3114  0.6469  0.3448
  167SOPE   C2818805   1.753   1.908   7.648 -0.3955 -0.5177 -0.1810
  167SOPE   H8R18806   1.811   1.973   7.717 -1.7449  1.8442 -1.1405
  167SOPE   H8S18807   1.664   1.965   7.615 -0.1245 -0.6469 -1.1666
  167SOPE   C2918808   1.706   1.789   7.718  0.1791 -0.0584  0.5850
  167SOPE   H9118809   1.632   1.732   7.660 -0.8950  2.1288 -0.3101
  167SOPE  C21018810   1.743   1.739   7.845  0.0500 -0.5443  0.2486
  167SOPE  H10118811   1.694   1.644   7.869  1.1135 -1.5304 -1.2929
  167SOPE  C21118812   1.843   1.790   7.948 -0.6888 -0.1224 -0.2771
  167SOPE  H11R18813   1.900   1.881   7.920 -2.1367  0.6944 -0.6765
  167SOPE  H11S18814   1.910   1.703   7.963 -1.0310 -0.0865  1.7497
  167SOPE  C21218815   1.782   1.845   8.074  0.1683 -0.3950 -0.0876
  167SOPE  H12R18816   1.731   1.766   8.134 -0.0750  0.6519  1.1530
  167SOPE  H12S18817   1.703   1.918   8.046  1.3089  0.3762 -1.3956
  167SOPE  C21318818   1.885   1.910   8.168 -0.0604  0.2355 -0.5196
  167SOPE  H13R18819   1.903   2.016   8.141 -0.3581  0.4383  0.0668
  167SOPE  H13S18820   1.976   1.846   8.165 -1.4283 -1.7718 -1.1973
  167SOPE  C21418821   1.848   1.906   8.317  0.4582  0.4112  0.3296
  167SOPE  H14R18822   1.812   1.807   8.351 -2.3506  1.1545 -0.2257
  167SOPE  H14S18823   1.760   1.974   8.325  0.6147  0.4181  3.0261
  167SOPE  C21518824   1.940   1.973   8.421  0.5173 -0.6159  0.3832
  167SOPE  H15R18825   2.042   1.931   8.410  1.2396  1.0004  0.6036
  167SOPE  H15S18826   1.897   1.959   8.522 -0.2509  1.9800  0.4837
  167SOPE  C21618827   1.957   2.126   8.389  0.1061  0.0027 -0.1945
  167SOPE  H16R18828   1.858   2.174   8.375  0.7960  1.2857 -0.7598
  167SOPE  H16S18829   2.005   2.134   8.289 -2.6809  0.1698 -1.6239
  167SOPE  C21718830   2.042   2.204   8.490 -0.2101 -1.2199  0.3594
  167SOPE  H17R18831   1.996   2.212   8.591 -0.5147  1.5655  0.0823
  167SOPE  H17S18832   2.043   2.311   8.458  0.8618 -1.2122  0.3868
  167SOPE  C21818833   2.181   2.154   8.516  0.5312 -0.1739 -0.0848
  167SOPE  H18R18834   2.224   2.196   8.608 -0.4682 -0.3091  0.4629
  167SOPE  H18S18835   2.249   2.186   8.434  0.3222 -0.8120 -0.5213
  167SOPE  H18T18836   2.175   2.044   8.525 -2.9245 -0.1189 -0.0952
  167SOPE   C3318837   2.024   2.571   6.969 -0.0084  0.0127  0.9063
  167SOPE   H3X18838   1.930   2.605   6.922  1.3660  2.2133 -0.4479
  167SOPE   H3Y18839   2.108   2.604   6.903  0.8044 -0.4741  1.6685
  167SOPE   C3418840   2.031   2.641   7.100  0.3987  0.0350 -0.8625
  167SOPE   H4X18841   2.029   2.751   7.086  0.9690  0.4033  1.4752
  167SOPE   H4Y18842   2.130   2.621   7.147  0.4663 -0.0445 -1.0400
  167SOPE   C3518843   1.918   2.622   7.213  0.0285  0.1607  0.5105
  167SOPE   H5X18844   1.928   2.705   7.286 -0.2399  0.3358  0.3491
  167SOPE   H5Y18845   1.941   2.525   7.261  1.7434  0.0702 -0.4085
  167SOPE   C3618846   1.779   2.624   7.149 -0.0570 -0.6926 -0.4951
  167SOPE   H6X18847   1.776   2.535   7.083  0.6008  1.0460 -2.9975
  167SOPE   H6Y18848   1.776   2.718   7.091  1.1486  0.6742  1.5296
  167SOPE   C3718849   1.662   2.612   7.244 -0.7030  0.4314  0.1657
  167SOPE   H7X18850   1.659   2.505   7.273 -0.5761 -0.4771 -2.8221
  167SOPE   H7Y18851   1.571   2.630   7.183 -0.0820  0.0682 -0.9021
  167SOPE   C3818852   1.660   2.711   7.367 -0.8155 -0.0026 -0.1917
  167SOPE   H8X18853   1.647   2.814   7.328 -3.6656 -0.0188  0.4807
  167SOPE   H8Y18854   1.751   2.708   7.430  0.1786 -2.3108 -1.6088
  167SOPE   C3918855   1.529   2.695   7.463 -0.0072 -0.6744  0.1832
  167SOPE   H9X18856   1.522   2.599   7.519  1.0918 -0.4924  0.6463
  167SOPE   H9Y18857   1.438   2.713   7.402 -0.4808 -0.8515  0.8138
  167SOPE  C31018858   1.533   2.802   7.579  0.8426 -0.6318  0.2117
  167SOPE  H10X18859   1.529   2.904   7.535  1.9347 -0.0940  1.2935
  167SOPE  H10Y18860   1.626   2.793   7.640 -0.6847  1.5172  3.0858
  167SOPE  C31118861   1.413   2.790   7.691 -0.0759  0.4942  0.3747
  167SOPE  H11X18862   1.448   2.706   7.755  0.5168 -0.2425 -0.8825
  167SOPE  H11Y18863   1.318   2.764   7.639 -0.2596 -0.5222  1.1905
  167SOPE  C31218864   1.391   2.919   7.767  0.3881  0.2031 -0.3557
  167SOPE  H12X18865   1.353   3.003   7.705 -2.9447 -1.9541 -1.4895
  167SOPE  H12Y18866   1.496   2.942   7.797  0.8291 -2.1296  0.0840
  167SOPE  C31318867   1.294   2.893   7.884  0.8403  0.0237 -0.3704
  167SOPE  H13X18868   1.204   2.851   7.834  0.0196  1.2250  0.0552
  167SOPE  H13Y18869   1.270   2.994   7.923 -1.3338  0.2763 -2.1865
  167SOPE  C31418870   1.359   2.816   8.003  0.1865  0.0090  0.5934
  167SOPE  H14X18871   1.458   2.864   8.018 -0.2169  0.7664  0.9567
  167SOPE  H14Y18872   1.374   2.709   7.977 -0.8354  0.6548 -3.3736
  167SOPE  C31518873   1.272   2.829   8.133  0.2405 -0.1562 -0.0313
  167SOPE  H15X18874   1.288   2.743   8.200  1.3917  1.7559  2.2992
  167SOPE  H15Y18875   1.168   2.836   8.097  0.4186  0.8659 -0.3906
  167SOPE  C31618876   1.313   2.937   8.239  0.1824  0.4888  0.1023
  167SOPE  H16X18877   1.352   3.027   8.186 -1.7156  0.8986 -0.6863
  167SOPE  H16Y18878   1.389   2.901   8.312 -0.6384 -0.9060  0.3083
  167SOPE  C31718879   1.196   2.983   8.319 -0.3108 -0.8762  0.6612
  167SOPE  H17X18880   1.181   2.896   8.387  1.8549 -0.7496  1.3705
  167SOPE  H17Y18881   1.103   3.002   8.262  0.6604 -0.0185 -0.6788
  167SOPE  C31818882   1.227   3.106   8.404  0.2738 -0.2240 -0.1448
  167SOPE  H18X18883   1.244   3.190   8.333  1.5304 -1.4231 -1.3165
  167SOPE  H18Y18884   1.319   3.083   8.462  0.5538 -0.4990 -0.6860
  167SOPE  H18Z18885   1.150   3.146   8.474 -0.3183 -1.2445 -0.1807
  168SOPE     N18886   0.465   0.014   6.522  0.5931  0.4053  0.0510
  168SOPE   HN118887   0.437   0.017   6.422 -0.1282 -0.2658  0.2183
  168SOPE   HN218888   0.566  -0.004   6.539  0.7017  2.5484  2.1770
  168SOPE   HN318889   0.407  -0.054   6.576  1.0986 -0.5245 -0.5403
  168SOPE   C1218890   0.433   0.149   6.578  0.0470 -0.0714 -0.5111
  168SOPE  H12A18891   0.324   0.167   6.568  0.2361  0.6335 -1.3806
  168SOPE  H12B18892   0.485   0.226   6.517 -1.4578  0.5708 -1.0438
  168SOPE   C1118893   0.494   0.144   6.722 -0.8247 -0.3855 -0.3564
  168SOPE  H11A18894   0.466   0.057   6.785  1.9995 -1.0720  0.0697
  168SOPE  H11B18895   0.448   0.235   6.765  0.3418  1.3659 -2.5959
  168SOPE     P18896   0.726   0.269   6.780 -0.1255  0.2584  0.4987
  168SOPE   O1318897   0.683   0.387   6.711 -0.3616 -0.3189  0.7177
  168SOPE   O1418898   0.866   0.223   6.755  0.2307 -0.1086  0.4523
  168SOPE   O1218899   0.634   0.152   6.721 -1.0006 -0.1137  0.4499
  168SOPE   O1118900   0.701   0.265   6.932 -0.1757 -0.4143  0.0717
  168SOPE    C118901   0.790   0.288   7.041  0.0020 -0.1137  0.0078
  168SOPE    HA18902   0.740   0.348   7.120 -1.2177  0.0388 -0.8516
  168SOPE    HB18903   0.884   0.340   7.015 -0.1082  0.2180  0.2677
  168SOPE    C218904   0.822   0.152   7.112  0.0607 -0.7642 -0.9471
  168SOPE    HS18905   0.896   0.105   7.044  1.9934 -0.1811  0.6404
  168SOPE   O2118906   0.698   0.082   7.133  0.0236 -0.0110 -0.2616
  168SOPE   C2118907   0.713  -0.045   7.159 -0.2264  0.0568 -0.8239
  168SOPE   O2218908   0.816  -0.105   7.144 -0.2081  0.7595 -0.1073
  168SOPE   C2218909   0.593  -0.122   7.206  0.5315 -0.1656  0.2489
  168SOPE   H2R18910   0.532  -0.150   7.118 -1.9032  2.1048  1.0785
  168SOPE   H2S18911   0.522  -0.055   7.259  0.1890 -0.3557  0.0344
  168SOPE    C318912   0.898   0.170   7.246  0.4326  0.2317 -0.4562
  168SOPE    HX18913   0.983   0.238   7.221  0.6914 -0.3739 -1.2738
  168SOPE    HY18914   0.932   0.069   7.277 -1.0013 -0.8461 -2.1760
  168SOPE   O3118915   0.815   0.231   7.347 -0.6063 -0.5943 -0.3489
  168SOPE   C3118916   0.864   0.218   7.472 -0.5801 -1.0482 -0.7221
  168SOPE   O3218917   0.974   0.170   7.497 -0.4944 -0.0770  0.3090
  168SOPE   C3218918   0.763   0.268   7.581 -0.4065 -0.5403 -0.1561
  168SOPE   H2X18919   0.676   0.202   7.600 -2.8349  2.7342  1.1145
  168SOPE   H2Y18920   0.710   0.362   7.555 -0.1486  0.5394  2.7588
  168SOPE   C2318921   0.619  -0.244   7.290 -0.9352 -0.2404  0.0186
  168SOPE   H3R18922   0.682  -0.313   7.229 -1.4087  1.0333 -2.0008
  168SOPE   H3S18923   0.526  -0.296   7.318 -1.0071  0.5161  1.2970
  168SOPE   C2418924   0.695  -0.208   7.421  0.1343 -0.5294 -0.8290
  168SOPE   H4R18925   0.730  -0.307   7.455  3.3979  0.7359 -0.1342
  168SOPE   H4S18926   0.790  -0.150   7.414 -0.0263  0.0829  1.5221
  168SOPE   C2518927   0.598  -0.151   7.530 -0.2581 -0.6570 -0.3500
  168SOPE   H5R18928   0.591  -0.043   7.505 -0.9248 -0.3129  1.2075
  168SOPE   H5S18929   0.500  -0.204   7.521  0.7655 -2.6348 -0.3992
  168SOPE   C2618930   0.672  -0.152   7.668  0.6238 -0.2348  0.5667
  168SOPE   H6R18931   0.697  -0.254   7.704  0.6233 -0.1529  0.8003
  168SOPE   H6S18932   0.773  -0.109   7.656  1.2344 -2.0273 -1.2734
  168SOPE   C2718933   0.585  -0.095   7.777 -0.5935 -0.0791 -0.0580
  168SOPE   H7R18934   0.546   0.007   7.758 -1.3166 -0.7799 -2.6536
  168SOPE   H7S18935   0.489  -0.148   7.791 -1.5702  1.1209 -1.8235
  168SOPE   C2818936   0.654  -0.097   7.919  0.0147  0.4493  0.5515
  168SOPE   H8R18937   0.732  -0.018   7.925  0.8811 -0.4758  2.0741
  168SOPE   H8S18938   0.570  -0.068   7.986 -0.0591  1.6136 -0.0297
  168SOPE   C2918939   0.722  -0.224   7.956  1.0759  0.9236  0.5962
  168SOPE   H9118940   0.790  -0.268   7.882 -0.4958  2.8055 -2.1143
  168SOPE  C21018941   0.709  -0.286   8.073 -0.0062  0.4411  0.7568
  168SOPE  H10118942   0.759  -0.382   8.094 -0.9319 -0.6089 -1.4075
  168SOPE  C21118943   0.626  -0.249   8.190  0.5500  0.5747  0.0017
  168SOPE  H11R18944   0.537  -0.316   8.198 -0.0220  1.4375  1.2162
  168SOPE  H11S18945   0.600  -0.141   8.184 -0.3658  0.3454 -0.3698
  168SOPE  C21218946   0.690  -0.271   8.331  0.5119 -0.0173 -0.0973
  168SOPE  H12R18947   0.777  -0.203   8.344  2.1677 -2.4156  2.8508
  168SOPE  H12S18948   0.722  -0.378   8.330  0.5797  0.0043 -0.5744
  168SOPE  C21318949   0.588  -0.253   8.450  0.1260 -0.2066 -0.2847
  168SOPE  H13R18950   0.505  -0.326   8.442 -0.4272  0.2066  1.3176
  168SOPE  H13S18951   0.554  -0.147   8.455  2.2769  0.6142 -1.6131
  168SOPE  C21418952   0.662  -0.291   8.580 -0.9640 -0.0229  0.6882
  168SOPE  H14R18953   0.745  -0.219   8.600 -0.9734  0.1297  0.1887
  168SOPE  H14S18954   0.719  -0.384   8.562 -0.6190  0.2590  0.2965
  168SOPE  C21518955   0.572  -0.302   8.702 -0.3210 -0.4091 -0.0393
  168SOPE  H15R18956   0.625  -0.358   8.782  0.9514  2.6654  1.4084
  168SOPE  H15S18957   0.483  -0.360   8.670 -1.1269  0.7838 -0.0126
  168SOPE  C21618958   0.525  -0.166   8.758 -0.5895 -0.0189  0.1507
  168SOPE  H16R18959   0.511  -0.092   8.676  1.3667  0.8715  0.5712
  168SOPE  H16S18960   0.607  -0.122   8.817  1.6002 -1.4577 -1.6500
  168SOPE  C21718961   0.400  -0.168   8.849  0.6383  0.1691  0.3394
  168SOPE  H17R18962   0.317  -0.199   8.783 -0.3119  0.1635  1.5030
  168SOPE  H17S18963   0.376  -0.066   8.884 -0.3763  0.6193 -1.5329
  168SOPE  C21818964   0.412  -0.266   8.969 -0.4383 -0.1558  0.1365
  168SOPE  H18R18965   0.322  -0.239   9.029 -0.3163  3.6164 -1.0861
  168SOPE  H18S18966   0.508  -0.246   9.020  0.2554 -1.2910 -0.6738
  168SOPE  H18T18967   0.408  -0.372   8.935 -0.1673 -0.4397  0.9725
  168SOPE   C3318968   0.843   0.295   7.718  0.1806 -0.0533  0.6369
  168SOPE   H3X18969   0.894   0.393   7.711  0.9058 -0.4319  0.5826
  168SOPE   H3Y18970   0.920   0.216   7.730 -0.2440 -0.4595  0.6948
  168SOPE   C3418971   0.747   0.277   7.837 -0.0349 -0.2735 -0.0220
  168SOPE   H4X18972   0.694   0.183   7.813 -2.2745  1.4321 -2.2942
  168SOPE   H4Y18973   0.672   0.359   7.849 -0.0230 -0.4901  1.8010
  168SOPE   C3518974   0.828   0.275   7.974  0.5351  1.2602 -0.9654
  168SOPE   H5X18975   0.866   0.373   8.007  2.9553 -0.5283  2.0228
  168SOPE   H5Y18976   0.920   0.218   7.950  0.2965  1.1330 -1.6051
  168SOPE   C3618977   0.754   0.216   8.100 -0.0821 -0.2287 -0.8512
  168SOPE   H6X18978   0.707   0.116   8.086 -1.7420  0.3227  0.4361
  168SOPE   H6Y18979   0.662   0.279   8.107 -1.1779 -1.9287  1.4920
  168SOPE   C3718980   0.846   0.205   8.219  0.4790 -0.1378 -0.1515
  168SOPE   H7X18981   0.875   0.310   8.244 -0.9996 -0.1179  1.7556
  168SOPE   H7Y18982   0.938   0.145   8.198 -1.4631 -3.2940 -0.3239
  168SOPE   C3818983   0.785   0.148   8.348  0.1062 -0.1619  0.6551
  168SOPE   H8X18984   0.745   0.046   8.331 -0.9992  0.3390  0.1397
  168SOPE   H8Y18985   0.699   0.216   8.366 -0.8307 -1.1107 -0.0661
  168SOPE   C3918986   0.876   0.131   8.471 -0.0636  0.3753 -0.9267
  168SOPE   H9X18987   0.935   0.226   8.478  0.0012  0.3065 -0.5133
  168SOPE   H9Y18988   0.940   0.043   8.450  0.5952  0.8827 -1.0694
  168SOPE  C31018989   0.811   0.101   8.603  0.4960  0.0880  0.1556
  168SOPE  H10X18990   0.727   0.032   8.582 -0.9614  1.9222 -0.2766
  168SOPE  H10Y18991   0.771   0.191   8.654 -0.0762  0.4692 -0.9300
  168SOPE  C31118992   0.910   0.034   8.703  0.0600  0.0145 -0.5770
  168SOPE  H11X18993   0.942  -0.064   8.661  1.4873  0.8898 -1.6394
  168SOPE  H11Y18994   0.854   0.011   8.796  0.1869  0.4824 -0.3809
  168SOPE  C31218995   1.036   0.110   8.748  0.0285  0.4142 -0.1535
  168SOPE  H12X18996   1.108   0.127   8.665 -0.7747 -0.1785 -0.9931
  168SOPE  H12Y18997   1.078   0.040   8.823  0.8530  0.8851 -0.1653
  168SOPE  C31318998   1.013   0.241   8.807  0.5130  0.0013 -0.0261
  168SOPE  H13X18999   0.939   0.256   8.888 -0.5404 -3.1957 -0.2598
  168SOPE  H13Y19000   0.986   0.313   8.727 -0.5808  0.9823  1.1722
  168SOPE  C31419001   1.143   0.313   8.857 -0.1245  0.0470  0.2803
  168SOPE  H14X19002   1.234   0.276   8.804  0.5786 -0.7422  1.9616
  168SOPE  H14Y19003   1.158   0.291   8.965  1.7483 -0.2414  0.0009
  168SOPE  C31519004   1.129   0.465   8.847  0.0156 -0.8679  0.0520
  168SOPE  H15X19005   1.061   0.515   8.919  2.0775  3.0632 -0.4352
  168SOPE  H15Y19006   1.097   0.491   8.744  2.5033 -1.0164 -0.8333
  168SOPE  C31619007   1.270   0.531   8.867 -0.1533  0.3497  0.6610
  168SOPE  H16X19008   1.327   0.531   8.771  0.9925 -1.8572  1.2738
  168SOPE  H16Y19009   1.324   0.475   8.946 -0.7666 -0.3401  0.5973
  168SOPE  C31719010   1.257   0.675   8.907 -0.1732 -0.6624 -0.5390
  168SOPE  H17X19011   1.221   0.687   9.011 -0.1934  1.4103 -0.7438
  168SOPE  H17Y19012   1.188   0.717   8.831 -0.7290 -0.1423  0.2512
  168SOPE  C31819013   1.393   0.748   8.888 -0.6618 -0.0500 -0.6583
  168SOPE  H18X19014   1.412   0.772   8.781 -0.6217 -0.4021 -0.7317
  168SOPE  H18Y19015   1.476   0.697   8.941 -1.6833 -0.5644  0.4995
  168SOPE  H18Z19016   1.388   0.850   8.931 -2.4288 -0.9617  1.4938
  169SOPE     N19017   5.055   3.402   6.231  0.1044  0.0281 -0.5558
  169SOPE   HN119018   5.056   3.493   6.282 -1.5160 -1.3337  2.1487
  169SOPE   HN219019   5.149   3.381   6.190  0.0188 -0.1093 -0.6830
  169SOPE   HN319020   4.989   3.404   6.151  0.5005 -1.2951 -0.9444
  169SOPE   C1219021   5.014   3.300   6.332  0.0341 -0.2074  0.4693
  169SOPE  H12A19022   4.998   3.204   6.279 -0.0491 -0.1809  0.4465
  169SOPE  H12B19023   4.915   3.325   6.375  1.0313  1.9860  1.6711
  169SOPE   C1119024   5.122   3.298   6.447  0.8212 -0.1315  0.2867
  169SOPE  H11A19025   5.210   3.272   6.384  0.5634  0.5270 -0.3707
  169SOPE  H11B19026   5.104   3.222   6.525  1.5413  1.2095  1.8250
  169SOPE     P19027   5.244   3.457   6.605 -0.2000 -0.0113  0.0091
  169SOPE   O1319028   5.254   3.602   6.618 -0.2434 -0.7396 -0.9754
  169SOPE   O1419029   5.365   3.390   6.555  0.0724  0.3584  0.0020
  169SOPE   O1219030   5.126   3.430   6.509  0.2499  0.2718  0.2440
  169SOPE   O1119031   5.207   3.386   6.742 -0.1693 -0.7026  0.7447
  169SOPE    C119032   5.272   3.419   6.867  0.1693  0.6206  0.1458
  169SOPE    HA19033   5.378   3.452   6.855  0.8880 -1.8480 -0.9537
  169SOPE    HB19034   5.266   3.335   6.940  1.5436 -0.3156 -0.7541
  169SOPE    C219035   5.198   3.539   6.935  0.7441 -0.3851  0.2644
  169SOPE    HS19036   5.213   3.623   6.865 -0.4454  0.1217  0.5946
  169SOPE   O2119037   5.250   3.569   7.066 -0.2082 -0.2780  0.2122
  169SOPE   C2119038   5.331   3.671   7.072  0.4520 -0.9758 -0.2489
  169SOPE   O2219039   5.366   3.744   6.980 -0.0857 -0.4886  0.1580
  169SOPE   C2219040   5.376   3.689   7.220 -0.0074 -0.5391  0.4814
  169SOPE   H2R19041   5.293   3.698   7.292  0.6186 -1.8249  1.4183
  169SOPE   H2S19042   5.444   3.777   7.219  0.0060 -0.5393 -0.5991
  169SOPE    C319043   5.047   3.515   6.951 -0.1658 -0.1661  0.6641
  169SOPE    HX19044   5.000   3.482   6.856  1.3574 -0.6848  0.0621
  169SOPE    HY19045   4.993   3.608   6.979  1.2919  0.2813  2.1008
  169SOPE   O3119046   5.019   3.407   7.042 -0.0562  0.3319  0.6887
  169SOPE   C3119047   5.010   3.450   7.169  0.1311  0.0793 -0.1981
  169SOPE   O3219048   5.002   3.566   7.205 -0.8771  0.1917 -0.3559
  169SOPE   C3219049   5.023   3.332   7.271 -1.0024 -0.3137  0.3460
  169SOPE   H2X19050   5.104   3.264   7.238 -1.3767 -1.2045  1.1998
  169SOPE   H2Y19051   4.944   3.254   7.272  0.3482 -1.7945 -1.5053
  169SOPE   C2319052   5.455   3.563   7.262 -0.3961 -0.4264 -0.0035
  169SOPE   H3R19053   5.549   3.572   7.204  0.1948  0.7530  1.0935
  169SOPE   H3S19054   5.401   3.466   7.250  0.2971 -0.5301 -3.0841
  169SOPE   C2419055   5.482   3.548   7.418  0.3117 -0.8436  0.2478
  169SOPE   H4R19056   5.405   3.485   7.467  1.6156 -0.2164  3.3231
  169SOPE   H4S19057   5.582   3.502   7.430  1.5442  1.6810  0.3776
  169SOPE   C2519058   5.487   3.687   7.491  0.0630 -0.0341 -0.4937
  169SOPE   H5R19059   5.557   3.743   7.426  0.7131 -0.2662 -0.0068
  169SOPE   H5S19060   5.386   3.730   7.482  0.6158  1.0968 -1.4895
  169SOPE   C2619061   5.540   3.694   7.641  0.1660 -0.5518  0.1995
  169SOPE   H6R19062   5.643   3.654   7.627  0.3040  0.1067 -0.7682
  169SOPE   H6S19063   5.533   3.803   7.659 -1.7931 -0.6444  0.2575
  169SOPE   C2719064   5.451   3.610   7.736 -0.2754 -0.1387 -0.2525
  169SOPE   H7R19065   5.344   3.633   7.718 -0.0029  0.2050 -1.5492
  169SOPE   H7S19066   5.460   3.502   7.712 -2.3235 -0.3889 -0.1121
  169SOPE   C2819067   5.495   3.639   7.881  0.1426 -0.4618 -0.2873
  169SOPE   H8R19068   5.512   3.748   7.891 -2.3711  0.1945 -2.2963
  169SOPE   H8S19069   5.415   3.607   7.950  1.1449 -0.9345  0.6921
  169SOPE   C2919070   5.630   3.579   7.907 -0.4750  1.0349 -0.3930
  169SOPE   H9119071   5.710   3.620   7.844 -2.1107  3.7682 -0.8491
  169SOPE  C21019072   5.657   3.489   8.006 -0.1219  0.4874  0.5051
  169SOPE  H10119073   5.759   3.449   8.013  0.6304  1.9656 -1.3430
  169SOPE  C21119074   5.563   3.431   8.102  0.7264  0.3745 -0.6384
  169SOPE  H11R19075   5.584   3.323   8.110  2.6282  0.5494 -2.3218
  169SOPE  H11S19076   5.455   3.454   8.098  0.4967 -0.8313 -2.0239
  169SOPE  C21219077   5.592   3.494   8.242 -0.0218 -0.5950  0.0865
  169SOPE  H12R19078   5.698   3.477   8.269 -0.0657  1.5303  1.8386
  169SOPE  H12S19079   5.527   3.446   8.319 -0.7997  3.4499  2.1910
  169SOPE  C21319080   5.575   3.640   8.254  0.0152 -0.7300 -0.0870
  169SOPE  H13R19081   5.470   3.676   8.241  0.6770  2.2495  1.7890
  169SOPE  H13S19082   5.642   3.693   8.182  0.3308  1.2060  1.5384
  169SOPE  C21419083   5.615   3.699   8.389  0.3178  0.4822 -0.1754
  169SOPE  H14R19084   5.551   3.649   8.465  0.7537  0.9933  0.5467
  169SOPE  H14S19085   5.581   3.805   8.391 -0.1340  0.3243  0.8835
  169SOPE  C21519086   5.760   3.690   8.434 -0.0354  0.0761  0.2808
  169SOPE  H15R19087   5.832   3.729   8.359  1.0027  0.0564  1.2424
  169SOPE  H15S19088   5.789   3.583   8.439 -0.5490 -0.0252  1.3400
  169SOPE  C21619089   5.790   3.743   8.575  0.0822  0.0756 -0.4780
  169SOPE  H16R19090   5.790   3.854   8.573  1.7335  0.1158  0.0371
  169SOPE  H16S19091   5.900   3.731   8.585  0.1763 -0.1498 -1.6147
  169SOPE  C21719092   5.711   3.685   8.687  0.7508 -0.0882 -0.2244
  169SOPE  H17R19093   5.603   3.712   8.682  0.8849  0.3194 -1.1277
  169SOPE  H17S19094   5.748   3.732   8.780  0.6004  1.4636 -0.9073
  169SOPE  C21819095   5.716   3.531   8.710  0.2512 -0.1028 -0.2440
  169SOPE  H18R19096   5.674   3.480   8.620 -0.5093  1.3735 -0.7695
  169SOPE  H18S19097   5.657   3.507   8.801 -0.7706  1.4383 -0.4728
  169SOPE  H18T19098   5.820   3.503   8.737 -0.2300 -1.9686 -0.1760
  169SOPE   C3319099   5.064   3.397   7.401 -0.2264 -0.3537  0.2075
  169SOPE   H3X19100   4.981   3.468   7.421 -0.2323  0.7213 -3.0252
  169SOPE   H3Y19101   5.163   3.447   7.398 -0.0812 -0.6744 -0.4101
  169SOPE   C3419102   5.085   3.305   7.520  0.7547 -0.6549 -0.5606
  169SOPE   H4X19103   5.175   3.244   7.498  1.2165  0.3923 -1.6611
  169SOPE   H4Y19104   5.000   3.238   7.543 -1.5039  1.0891 -3.2560
  169SOPE   C3519105   5.115   3.369   7.658 -0.1138 -0.1037 -0.0260
  169SOPE   H5X19106   5.192   3.449   7.655  2.6479 -2.5647  0.2331
  169SOPE   H5Y19107   5.170   3.293   7.718 -1.1227 -0.9441 -0.1469
  169SOPE   C3619108   4.982   3.410   7.734  0.4015 -0.1594 -0.9862
  169SOPE   H6X19109   4.916   3.322   7.742  1.4425 -0.9254 -0.5862
  169SOPE   H6Y19110   4.946   3.491   7.667  2.0937 -0.1982 -2.0024
  169SOPE   C3719111   4.995   3.467   7.879  0.1514 -0.0536  0.1941
  169SOPE   H7X19112   5.006   3.386   7.954  0.1252  0.4342  0.7263
  169SOPE   H7Y19113   4.900   3.523   7.897  0.1254 -0.0002 -0.0875
  169SOPE   C3819114   5.105   3.565   7.900 -0.9116  0.3459 -0.1559
  169SOPE   H8X19115   5.198   3.509   7.879 -0.6166  0.5056  0.6528
  169SOPE   H8Y19116   5.098   3.645   7.823  0.1598 -0.2641 -0.9035
  169SOPE   C3919117   5.104   3.639   8.036  0.5363  0.4807  0.4781
  169SOPE   H9X19118   5.005   3.675   8.069 -0.4482 -0.7604 -0.9566
  169SOPE   H9Y19119   5.166   3.730   8.018  2.2128 -0.7027 -0.0508
  169SOPE  C31019120   5.172   3.566   8.156 -0.1590  0.7802  0.0092
  169SOPE  H10X19121   5.275   3.528   8.141  0.0863 -0.3492  3.6513
  169SOPE  H10Y19122   5.109   3.481   8.189  3.9360 -1.4863  2.9784
  169SOPE  C31119123   5.182   3.655   8.280 -0.3102  0.0239 -0.9088
  169SOPE  H11X19124   5.082   3.700   8.295 -1.0448 -1.4376 -1.1775
  169SOPE  H11Y19125   5.252   3.740   8.269 -1.8317  1.2110 -1.6407
  169SOPE  C31219126   5.224   3.589   8.412 -0.0914  0.3795 -0.1433
  169SOPE  H12X19127   5.320   3.532   8.411  0.0547  0.5743  1.2849
  169SOPE  H12Y19128   5.161   3.499   8.428 -0.8347  0.8629 -0.3421
  169SOPE  C31319129   5.226   3.682   8.535  0.0493 -0.1105 -0.3439
  169SOPE  H13X19130   5.289   3.765   8.495 -1.4875  0.5739 -1.4532
  169SOPE  H13Y19131   5.293   3.637   8.611  0.4050 -0.3158 -0.7756
  169SOPE  C31419132   5.083   3.733   8.576 -1.4099  0.5467  0.2047
  169SOPE  H14X19133   5.025   3.771   8.490  1.3686  1.2268 -1.4964
  169SOPE  H14Y19134   5.099   3.825   8.636 -2.7525  0.5588  0.5704
  169SOPE  C31519135   4.996   3.635   8.660  0.3764 -0.2013  0.2254
  169SOPE  H15X19136   5.060   3.580   8.733  0.0891 -0.1361  0.5285
  169SOPE  H15Y19137   4.967   3.566   8.578  0.3767  1.1267 -0.9131
  169SOPE  C31619138   4.875   3.697   8.731  0.0499 -0.0410 -0.1478
  169SOPE  H16X19139   4.816   3.744   8.649  0.9133 -0.0107 -0.7728
  169SOPE  H16Y19140   4.899   3.776   8.805  0.8764 -1.3221  0.9960
  169SOPE  C31719141   4.789   3.595   8.806 -0.0477  0.6398 -0.0332
  169SOPE  H17X19142   4.696   3.651   8.832  1.2000  1.9568  1.8203
  169SOPE  H17Y19143   4.835   3.558   8.900  1.0134 -1.5694 -1.3633
  169SOPE  C31819144   4.752   3.466   8.736 -0.2585 -0.8785  0.5038
  169SOPE  H18X19145   4.844   3.405   8.726  0.1904 -0.4365  1.8398
  169SOPE  H18Y19146   4.710   3.500   8.639 -0.3666  0.7523  1.0932
  169SOPE  H18Z19147   4.680   3.406   8.795 -0.4515 -1.5468 -0.3822
  170SOPE     N19148   0.029   1.207   6.266 -0.4350  0.1488 -0.0706
  170SOPE   HN119149   0.077   1.287   6.311  1.3287  0.0567 -1.6524
  170SOPE   HN219150   0.077   1.122   6.303  0.2328  0.8207  0.6284
  170SOPE   HN319151   0.034   1.224   6.163 -1.9032  2.1550  0.1298
  170SOPE   C1219152  -0.113   1.229   6.298  1.2213 -0.4908  0.2182
  170SOPE  H12A19153  -0.166   1.156   6.233  1.0768  2.6091 -3.4935
  170SOPE  H12B19154  -0.154   1.325   6.261 -1.6612 -0.7276  2.4699
  170SOPE   C1119155  -0.134   1.202   6.446 -0.7176 -0.1939 -0.9383
  170SOPE  H11A19156  -0.112   1.097   6.476 -0.9970  0.5524  2.1993
  170SOPE  H11B19157  -0.241   1.217   6.475 -0.6597 -1.0328 -0.2478
  170SOPE     P19158  -0.069   1.434   6.548  0.1457  0.0636 -0.0404
  170SOPE   O1319159  -0.073   1.501   6.418  0.7932  0.2889 -0.2041
  170SOPE   O1419160   0.039   1.473   6.644 -0.3322  0.3114  0.6226
  170SOPE   O1219161  -0.044   1.278   6.528  0.3400 -0.2946 -0.6583
  170SOPE   O1119162  -0.207   1.439   6.612 -0.5461  0.2922  0.3989
  170SOPE    C119163  -0.224   1.398   6.748 -0.2553 -0.1750 -1.2804
  170SOPE    HA19164  -0.148   1.322   6.773  1.0442  0.8530 -1.9801
  170SOPE    HB19165  -0.329   1.363   6.761 -0.1824  0.2571  0.7452
  170SOPE    C219166  -0.229   1.519   6.852 -0.1258 -0.4105  0.2404
  170SOPE    HS19167  -0.130   1.565   6.877  1.0431 -1.3718 -2.2698
  170SOPE   O2119168  -0.312   1.483   6.965 -0.3303 -0.2235 -0.1059
  170SOPE   C2119169  -0.251   1.429   7.070 -0.6181 -0.3541 -0.5141
  170SOPE   O2219170  -0.128   1.401   7.073  1.0206 -0.1162  0.1468
  170SOPE   C2219171  -0.361   1.415   7.175 -0.1758  0.6609  0.7958
  170SOPE   H2R19172  -0.439   1.351   7.126 -0.4862  1.5151  0.1404
  170SOPE   H2S19173  -0.413   1.512   7.191  1.5379  1.9540 -0.9809
  170SOPE    C319174  -0.315   1.631   6.787 -0.2095  0.4802 -0.3837
  170SOPE    HX19175  -0.411   1.591   6.749  0.5971 -1.0726 -0.8548
  170SOPE    HY19176  -0.253   1.667   6.703  0.0898 -3.2252 -1.9143
  170SOPE   O3119177  -0.343   1.743   6.872  0.0077 -0.0040  0.0763
  170SOPE   C3119178  -0.239   1.828   6.897  0.4412  0.3490  0.0602
  170SOPE   O3219179  -0.133   1.821   6.844  0.2238 -0.1752  0.0244
  170SOPE   C3219180  -0.263   1.922   7.013 -0.1234  0.0809 -0.5358
  170SOPE   H2X19181  -0.364   1.968   7.002 -0.8026 -1.0420  0.6447
  170SOPE   H2Y19182  -0.179   1.993   7.001 -1.3888  1.3729 -2.2655
  170SOPE   C2319183  -0.301   1.351   7.298 -1.0283  0.0283  0.5822
  170SOPE   H3R19184  -0.377   1.362   7.378  0.2022 -2.4173  2.2000
  170SOPE   H3S19185  -0.211   1.408   7.328 -0.7013 -0.2505  0.1427
  170SOPE   C2419186  -0.263   1.202   7.291 -0.2978  0.0500  0.2322
  170SOPE   H4R19187  -0.361   1.150   7.296 -0.4521  0.2565 -0.5837
  170SOPE   H4S19188  -0.227   1.161   7.194 -0.7859 -2.4597  1.0322
  170SOPE   C2519189  -0.180   1.146   7.405  0.0152 -0.1586 -0.4907
  170SOPE   H5R19190  -0.199   1.037   7.417 -0.8236  0.0177 -0.1321
  170SOPE   H5S19191  -0.072   1.162   7.386  0.7834 -1.6529  2.1238
  170SOPE   C2619192  -0.205   1.224   7.541 -0.4939  0.6004  0.4044
  170SOPE   H6R19193  -0.175   1.329   7.524  0.4802 -0.0566 -2.7152
  170SOPE   H6S19194  -0.313   1.217   7.564 -0.6578  2.9138  0.5043
  170SOPE   C2719195  -0.135   1.158   7.658 -0.0202 -0.8487  0.6550
  170SOPE   H7R19196  -0.170   1.053   7.657  0.5376 -1.0583 -1.2426
  170SOPE   H7S19197  -0.031   1.145   7.622 -0.6282  0.5378 -1.7905
  170SOPE   C2819198  -0.159   1.232   7.787 -0.6235  0.3917 -0.7425
  170SOPE   H8R19199  -0.094   1.188   7.865  0.9969  1.1140 -1.6440
  170SOPE   H8S19200  -0.119   1.335   7.789  0.9677 -0.2130  0.1445
  170SOPE   C2919201  -0.302   1.222   7.833  0.4406 -0.5714 -0.0277
  170SOPE   H9119202  -0.365   1.277   7.762  1.8756  0.4071 -0.5943
  170SOPE  C21019203  -0.350   1.156   7.941 -0.0653  0.2509  0.0035
  170SOPE  H10119204  -0.456   1.145   7.969 -0.1460 -0.4802 -0.5815
  170SOPE  C21119205  -0.269   1.083   8.045 -0.7283  0.0912  0.4840
  170SOPE  H11R19206  -0.161   1.091   8.019 -0.4726  0.9430  1.6935
  170SOPE  H11S19207  -0.286   0.974   8.037 -1.5076  0.2293  0.1111
  170SOPE  C21219208  -0.300   1.127   8.187 -0.7495 -1.1323 -0.0411
  170SOPE  H12R19209  -0.410   1.132   8.199 -0.9717 -0.8060 -1.8771
  170SOPE  H12S19210  -0.259   1.230   8.186 -0.6063 -1.1819 -1.3257
  170SOPE  C21319211  -0.235   1.052   8.299 -0.3102 -0.3504 -0.3761
  170SOPE  H13R19212  -0.124   1.051   8.295 -0.0733 -3.8877  2.3983
  170SOPE  H13S19213  -0.266   0.946   8.295  2.5663 -1.2931  0.3319
  170SOPE  C21419214  -0.275   1.124   8.440 -0.2459 -0.5956  0.8593
  170SOPE  H14R19215  -0.247   1.230   8.419  1.0957 -1.0225  0.3868
  170SOPE  H14S19216  -0.211   1.081   8.520 -1.5227 -0.7333  1.8281
  170SOPE  C21519217  -0.422   1.108   8.481 -0.6124 -0.5356  0.2996
  170SOPE  H15R19218  -0.493   1.103   8.396 -0.0510 -0.1131 -0.2001
  170SOPE  H15S19219  -0.456   1.195   8.541 -1.3111 -0.6098  0.0313
  170SOPE  C21619220  -0.454   0.981   8.573  0.5682 -0.3259  0.4712
  170SOPE  H16R19221  -0.542   1.002   8.638 -1.3098  0.3877 -2.1059
  170SOPE  H16S19222  -0.362   0.955   8.629  2.9310  2.3822 -1.8156
  170SOPE  C21719223  -0.503   0.859   8.501 -0.8534 -0.0545 -0.6101
  170SOPE  H17R19224  -0.410   0.818   8.456 -0.2932  0.0969  0.3840
  170SOPE  H17S19225  -0.574   0.883   8.419 -1.9098 -1.5021 -0.1626
  170SOPE  C21819226  -0.563   0.755   8.600 -0.9618 -0.1612  0.6281
  170SOPE  H18R19227  -0.660   0.800   8.628 -0.4444  0.5868  1.2928
  170SOPE  H18S19228  -0.485   0.739   8.678  2.4164  0.9961 -2.1935
  170SOPE  H18T19229  -0.584   0.663   8.542 -0.7614 -0.0296  0.3417
  170SOPE   C3319230  -0.264   1.855   7.156 -0.1130 -0.0707 -0.3634
  170SOPE   H3X19231  -0.347   1.782   7.152 -0.6146  0.4517  0.2726
  170SOPE   H3Y19232  -0.297   1.929   7.232 -2.0120 -0.7470 -0.4944
  170SOPE   C3419233  -0.133   1.792   7.199 -0.5562 -0.2621  0.3493
  170SOPE   H4X19234  -0.056   1.872   7.194 -1.3183  0.4832  0.1923
  170SOPE   H4Y19235  -0.103   1.713   7.127  1.2504 -1.2855  2.1343
  170SOPE   C3519236  -0.139   1.734   7.341 -0.2226  0.4098  0.0990
  170SOPE   H5X19237  -0.072   1.645   7.352 -1.5694 -0.8216 -1.1836
  170SOPE   H5Y19238  -0.243   1.710   7.372 -0.0778  0.6006  0.7399
  170SOPE   C3619239  -0.101   1.836   7.448 -0.3913 -0.0910 -0.3996
  170SOPE   H6X19240  -0.169   1.924   7.452 -0.6157 -0.2629 -0.3704
  170SOPE   H6Y19241  -0.000   1.871   7.418 -0.8260  0.9459 -0.6956
  170SOPE   C3719242  -0.084   1.781   7.595 -0.1001 -0.5379  0.0585
  170SOPE   H7X19243  -0.022   1.855   7.649 -0.7150  0.8616 -1.0953
  170SOPE   H7Y19244  -0.033   1.683   7.598 -1.4596 -1.2709  2.6768
  170SOPE   C3819245  -0.219   1.746   7.675 -0.1335  0.2190 -0.2953
  170SOPE   H8X19246  -0.280   1.672   7.619  2.0317 -1.7661 -0.2064
  170SOPE   H8Y19247  -0.271   1.839   7.708 -0.3845  0.2970 -0.9060
  170SOPE   C3919248  -0.178   1.671   7.803 -0.1817 -0.2134 -0.8854
  170SOPE   H9X19249  -0.134   1.743   7.874 -0.7840  0.1047 -0.8335
  170SOPE   H9Y19250  -0.110   1.583   7.796 -0.3031 -0.2711 -1.4654
  170SOPE  C31019251  -0.299   1.623   7.883 -0.6187  0.3193 -0.3531
  170SOPE  H10X19252  -0.355   1.554   7.816  1.0575 -2.3824  0.8383
  170SOPE  H10Y19253  -0.354   1.717   7.902  0.2601  0.6893  0.4675
  170SOPE  C31119254  -0.260   1.559   8.016  0.6023  0.2629  0.1543
  170SOPE  H11X19255  -0.171   1.614   8.051 -0.1738  1.6832  0.0052
  170SOPE  H11Y19256  -0.235   1.452   8.000 -3.7078 -1.0342  0.7005
  170SOPE  C31219257  -0.371   1.561   8.119 -0.2397 -0.0854 -0.3465
  170SOPE  H12X19258  -0.434   1.472   8.098  0.3168 -1.8221  4.1522
  170SOPE  H12Y19259  -0.430   1.655   8.114  2.2720  1.5747 -0.5629
  170SOPE  C31319260  -0.315   1.536   8.263  0.1183 -0.8729 -0.3398
  170SOPE  H13X19261  -0.240   1.614   8.289  0.4276 -1.2552 -0.0831
  170SOPE  H13Y19262  -0.261   1.439   8.269  2.9156  0.5646 -0.4988
  170SOPE  C31419263  -0.432   1.545   8.364  0.0271  0.2080  0.3774
  170SOPE  H14X19264  -0.524   1.487   8.346 -0.6680  1.1157  0.9344
  170SOPE  H14Y19265  -0.472   1.648   8.363 -1.8964 -0.4382  2.5608
  170SOPE  C31519266  -0.389   1.517   8.506  0.2186 -0.5388 -0.0835
  170SOPE  H15X19267  -0.303   1.583   8.532  1.7402 -2.5398  0.1896
  170SOPE  H15Y19268  -0.350   1.413   8.514  2.8571  0.4100  0.2645
  170SOPE  C31619269  -0.510   1.542   8.610 -0.2556  0.6799  0.9543
  170SOPE  H16X19270  -0.588   1.478   8.563  1.3391 -1.4205  1.0131
  170SOPE  H16Y19271  -0.529   1.651   8.599  0.0454  0.6769  0.3522
  170SOPE  C31719272  -0.493   1.489   8.748  0.1489 -0.3177 -0.4036
  170SOPE  H17X19273  -0.383   1.488   8.767  0.0318  3.4823  1.6470
  170SOPE  H17Y19274  -0.540   1.389   8.748  2.1264 -1.3245 -2.2040
  170SOPE  C31819275  -0.552   1.581   8.854 -0.3043 -0.0640 -0.2198
  170SOPE  H18X19276  -0.531   1.538   8.954 -0.3354 -0.5829 -0.4353
  170SOPE  H18Y19277  -0.662   1.596   8.847 -0.6113 -1.0802  1.5963
  170SOPE  H18Z19278  -0.501   1.679   8.846 -0.0606  0.0753  2.2738
  171SOPE     N19279   3.539   3.786   6.010 -0.5169 -0.1584 -0.5983
  171SOPE   HN119280   3.470   3.711   5.989 -0.0557 -0.6419 -0.3930
  171SOPE   HN219281   3.479   3.871   6.014 -0.9401 -0.4471 -0.7633
  171SOPE   HN319282   3.604   3.790   5.928  0.4558 -0.8449  0.1118
  171SOPE   C1219283   3.593   3.761   6.148  0.7415 -0.6728 -0.7270
  171SOPE  H12A19284   3.688   3.818   6.155  0.1543  0.4607 -1.8200
  171SOPE  H12B19285   3.636   3.658   6.159 -2.0473 -2.0282 -1.6697
  171SOPE   C1119286   3.485   3.804   6.248 -0.8714 -0.9241  0.2595
  171SOPE  H11A19287   3.536   3.790   6.346  2.2428  0.6908 -0.9953
  171SOPE  H11B19288   3.396   3.740   6.233 -2.1852  1.1658 -1.5175
  171SOPE     P19289   3.323   3.995   6.322  0.2126 -0.2588  0.4078
  171SOPE   O1319290   3.222   3.891   6.341  0.2102  1.2232  0.5557
  171SOPE   O1419291   3.284   4.126   6.271  0.1960 -0.1635  0.4137
  171SOPE   O1219292   3.447   3.942   6.243  0.3702 -0.3109 -0.9744
  171SOPE   O1119293   3.377   4.021   6.467  0.6889  0.0627 -0.4797
  171SOPE    C119294   3.508   4.074   6.497 -0.2055  0.1989  0.1701
  171SOPE    HA19295   3.524   4.161   6.430 -2.3740 -0.2125 -0.9755
  171SOPE    HB19296   3.587   3.999   6.479 -1.4582 -0.9809 -0.6344
  171SOPE    C219297   3.521   4.110   6.641 -0.2508  0.1953 -0.8189
  171SOPE    HS19298   3.626   4.129   6.673 -0.3855  0.9150 -0.7702
  171SOPE   O2119299   3.461   4.010   6.731 -0.4019 -0.2096  0.2982
  171SOPE   C2119300   3.527   3.896   6.738 -0.1273 -0.7226  0.8206
  171SOPE   O2219301   3.644   3.884   6.705  0.6246  0.5603 -0.0124
  171SOPE   C2219302   3.435   3.787   6.785 -0.1863  0.0066 -0.6156
  171SOPE   H2R19303   3.391   3.729   6.701 -1.5225 -0.3186  0.2619
  171SOPE   H2S19304   3.347   3.826   6.841 -0.7430 -0.8162 -0.8825
  171SOPE    C319305   3.452   4.243   6.667  0.1503 -0.8917 -0.6734
  171SOPE    HX19306   3.349   4.235   6.625 -1.1196 -0.0140  2.0021
  171SOPE    HY19307   3.500   4.326   6.612  1.1683 -1.2602 -0.3582
  171SOPE   O3119308   3.457   4.258   6.813  0.6762  0.8500 -0.4364
  171SOPE   C3119309   3.338   4.242   6.872 -0.7002 -0.6793  0.0290
  171SOPE   O3219310   3.234   4.215   6.817 -0.3963 -0.1530  0.1965
  171SOPE   C3219311   3.358   4.269   7.020  0.4877 -0.5249  0.6430
  171SOPE   H2X19312   3.417   4.363   7.025 -1.8391  1.0713  0.1234
  171SOPE   H2Y19313   3.418   4.186   7.063 -0.0236  0.2919  3.1349
  171SOPE   C2319314   3.488   3.673   6.877 -0.4408  0.4588 -0.1467
  171SOPE   H3R19315   3.554   3.599   6.827 -1.8428 -0.5854 -0.5077
  171SOPE   H3S19316   3.397   3.619   6.912 -0.5092  0.5668 -0.1549
  171SOPE   C2419317   3.557   3.731   7.003  0.3491 -0.8243  0.3423
  171SOPE   H4R19318   3.567   3.649   7.077 -0.9005 -0.7916  0.5769
  171SOPE   H4S19319   3.661   3.766   6.989  1.7348 -4.5327  0.2067
  171SOPE   C2519320   3.487   3.851   7.076  0.0697  0.1499  0.7370
  171SOPE   H5R19321   3.505   3.945   7.019  1.8650  0.8278  2.3004
  171SOPE   H5S19322   3.379   3.826   7.074 -0.0578  0.3817  2.5800
  171SOPE   C2619323   3.536   3.880   7.216  0.1933 -0.1919 -0.0587
  171SOPE   H6R19324   3.641   3.914   7.230 -0.0099  0.5886 -0.4058
  171SOPE   H6S19325   3.464   3.952   7.260  1.0483  0.5579  0.1424
  171SOPE   C2719326   3.529   3.761   7.313  0.7558 -0.1344  0.4354
  171SOPE   H7R19327   3.425   3.722   7.319  0.2302  1.3982  1.9931
  171SOPE   H7S19328   3.594   3.683   7.268  1.0790  0.5111 -0.2445
  171SOPE   C2819329   3.589   3.786   7.451 -0.6254 -0.5971  0.4316
  171SOPE   H8R19330   3.583   3.685   7.496  0.2456 -1.3231 -1.0106
  171SOPE   H8S19331   3.699   3.799   7.444 -0.3488 -2.3443  1.0186
  171SOPE   C2919332   3.528   3.896   7.533 -0.9280 -0.6812 -0.5473
  171SOPE   H9119333   3.545   3.999   7.498  0.1889 -1.0163 -1.0120
  171SOPE  C21019334   3.452   3.889   7.641  0.0450  0.2177 -0.2043
  171SOPE  H10119335   3.402   3.979   7.681 -0.6587 -0.6520  0.9484
  171SOPE  C21119336   3.415   3.759   7.702  0.2817  0.5797  0.3721
  171SOPE  H11R19337   3.486   3.676   7.684  0.9443  1.2076  0.0669
  171SOPE  H11S19338   3.314   3.723   7.672  1.1685 -1.6539 -0.1273
  171SOPE  C21219339   3.388   3.782   7.860 -0.0598  0.3081 -0.1063
  171SOPE  H12R19340   3.376   3.890   7.883 -1.1434 -0.0163  0.9867
  171SOPE  H12S19341   3.480   3.739   7.906  0.3178  0.5172 -0.6667
  171SOPE  C21319342   3.275   3.692   7.927 -0.4505 -0.6972  0.6881
  171SOPE  H13R19343   3.323   3.592   7.937  3.6698  0.4934 -3.7880
  171SOPE  H13S19344   3.195   3.676   7.851  0.4246 -1.9953  0.0124
  171SOPE  C21419345   3.209   3.756   8.052 -0.1879  0.1602 -0.6014
  171SOPE  H14R19346   3.128   3.687   8.081  0.8467 -0.5079  0.7810
  171SOPE  H14S19347   3.160   3.854   8.032 -1.2008 -0.4878 -1.4092
  171SOPE  C21519348   3.305   3.762   8.169  0.0232  0.6573  0.8667
  171SOPE  H15R19349   3.385   3.831   8.136  0.5042  0.1575  0.9615
  171SOPE  H15S19350   3.345   3.663   8.200 -1.2132 -0.3953 -0.7316
  171SOPE  C21619351   3.239   3.828   8.294  0.6307 -0.5629  0.5423
  171SOPE  H16R19352   3.183   3.921   8.268 -0.3970 -1.0756  0.8457
  171SOPE  H16S19353   3.319   3.853   8.366  0.1623 -2.1269  1.6799
  171SOPE  C21719354   3.139   3.746   8.385 -0.6101  0.0662  0.0501
  171SOPE  H17R19355   3.204   3.665   8.425  0.8898  0.2426 -1.8702
  171SOPE  H17S19356   3.056   3.704   8.325  0.0022 -1.4713  0.2165
  171SOPE  C21819357   3.066   3.823   8.493 -0.3854  0.6220 -0.2022
  171SOPE  H18R19358   3.013   3.908   8.445 -0.8823 -0.9704 -2.6551
  171SOPE  H18S19359   3.142   3.868   8.560 -0.4511  1.8578 -0.9242
  171SOPE  H18T19360   2.989   3.759   8.542 -0.6798  0.4234 -0.9090
  171SOPE   C3319361   3.226   4.283   7.098  0.0346 -0.2345  0.0058
  171SOPE   H3X19362   3.145   4.218   7.060 -1.9161  1.3320  1.3257
  171SOPE   H3Y19363   3.193   4.389   7.095 -1.7325 -0.7209  1.0067
  171SOPE   C3419364   3.245   4.242   7.239 -0.1119 -0.1477 -0.0251
  171SOPE   H4X19365   3.306   4.149   7.241  0.7634  0.3103 -2.0354
  171SOPE   H4Y19366   3.142   4.226   7.278 -0.0748 -0.6202 -0.1101
  171SOPE   C3519367   3.293   4.346   7.334  0.5137 -0.2765 -0.0469
  171SOPE   H5X19368   3.230   4.438   7.339 -2.9185 -2.5138  0.8129
  171SOPE   H5Y19369   3.396   4.375   7.301 -0.1794  1.7107 -0.6039
  171SOPE   C3619370   3.320   4.288   7.480  0.4533  0.5207  0.2020
  171SOPE   H6X19371   3.356   4.184   7.463  1.3743  0.4630  2.3051
  171SOPE   H6Y19372   3.223   4.288   7.534  1.1679 -0.4226  1.5328
  171SOPE   C3719373   3.414   4.383   7.556 -0.5217 -0.4464  0.1314
  171SOPE   H7X19374   3.366   4.483   7.555 -0.2693 -0.3218  0.2673
  171SOPE   H7Y19375   3.508   4.403   7.501 -1.8179  1.4043 -1.5502
  171SOPE   C3819376   3.446   4.319   7.690 -0.2497 -0.1756  0.2272
  171SOPE   H8X19377   3.549   4.343   7.724  0.3988 -1.3364 -0.8375
  171SOPE   H8Y19378   3.441   4.208   7.690 -1.2382 -0.1415 -0.1782
  171SOPE   C3919379   3.355   4.360   7.806 -0.0172 -0.1071 -0.2104
  171SOPE   H9X19380   3.249   4.353   7.774 -0.4923 -0.1841  1.3139
  171SOPE   H9Y19381   3.372   4.464   7.840  1.4010 -0.4615  0.2295
  171SOPE  C31019382   3.364   4.266   7.925  0.7402  1.0614 -0.6020
  171SOPE  H10X19383   3.465   4.277   7.972 -0.5927  1.6821  2.3551
  171SOPE  H10Y19384   3.363   4.159   7.895 -1.0531  0.7088  0.6077
  171SOPE  C31119385   3.255   4.289   8.033 -0.1372  0.1813 -0.6125
  171SOPE  H11X19386   3.154   4.291   7.986 -0.1213 -0.6607 -0.6934
  171SOPE  H11Y19387   3.277   4.389   8.076  0.4526  0.2544 -1.0733
  171SOPE  C31219388   3.259   4.184   8.145 -0.7782  0.2584 -0.6678
  171SOPE  H12X19389   3.360   4.174   8.189 -1.5719  2.6645  2.0107
  171SOPE  H12Y19390   3.245   4.080   8.106 -1.4156 -1.1207  2.8816
  171SOPE  C31319391   3.154   4.209   8.253  0.0278 -0.5482  0.1437
  171SOPE  H13X19392   3.165   4.130   8.330  2.3955 -1.1182 -0.6931
  171SOPE  H13Y19393   3.055   4.199   8.204 -0.0378 -0.0973  0.1843
  171SOPE  C31419394   3.173   4.350   8.324  0.3847 -0.0757 -0.3979
  171SOPE  H14X19395   3.157   4.433   8.252 -2.6849 -0.0220  0.2220
  171SOPE  H14Y19396   3.275   4.348   8.370  0.7173  2.1638 -0.8977
  171SOPE  C31519397   3.079   4.360   8.449  0.2946  0.5368 -0.2458
  171SOPE  H15X19398   3.096   4.285   8.530 -1.1647 -0.7289 -1.0471
  171SOPE  H15Y19399   2.969   4.365   8.431  0.0965 -1.6356  0.0440
  171SOPE  C31619400   3.116   4.484   8.529  1.2312 -0.7015  0.4809
  171SOPE  H16X19401   3.227   4.491   8.539  1.2880 -0.4411 -0.2678
  171SOPE  H16Y19402   3.064   4.479   8.627  2.5047  1.6445  1.3525
  171SOPE  C31719403   3.050   4.616   8.469  0.8541 -0.5226 -0.0712
  171SOPE  H17X19404   2.944   4.591   8.445  0.6627 -0.5607  0.8056
  171SOPE  H17Y19405   3.103   4.630   8.372 -0.4156 -0.2056 -0.7363
  171SOPE  C31819406   3.063   4.735   8.570 -0.2611 -0.1878  0.6436
  171SOPE  H18X19407   3.029   4.704   8.671 -1.1330 -0.4375  0.2856
  171SOPE  H18Y19408   2.994   4.814   8.534  0.2230 -0.1224 -0.1599
  171SOPE  H18Z19409   3.166   4.775   8.577  0.0320 -0.9683  0.8957
  172SOPE     N19410   4.915   0.093   6.610  0.1509 -0.2300 -0.1018
  172SOPE   HN119411   4.920   0.195   6.627  2.2876 -0.7186  3.1095
  172SOPE   HN219412   5.007   0.061   6.572  0.7039 -1.9316  2.4476
  172SOPE   HN319413   4.841   0.069   6.542  0.3553 -1.7585  0.1814
  172SOPE   C1219414   4.882   0.028   6.738 -0.1786 -0.0575 -0.0545
  172SOPE  H12A19415   4.955   0.060   6.816 -2.0074  0.2984  1.5746
  172SOPE  H12B19416   4.883  -0.081   6.716  2.2591  0.1002 -1.0804
  172SOPE   C1119417   4.738   0.079   6.777 -0.2187  0.0232  0.4394
  172SOPE  H11A19418   4.740   0.190   6.780 -2.5983  0.1096  0.1942
  172SOPE  H11B19419   4.724   0.047   6.883  0.1858  1.0277  0.8083
  172SOPE     P19420   4.561  -0.101   6.716 -0.2433  0.2779  0.3362
  172SOPE   O1319421   4.669  -0.202   6.724 -0.2837 -0.5600  0.1399
  172SOPE   O1419422   4.451  -0.134   6.624  0.0269  0.0423 -0.3912
  172SOPE   O1219423   4.632   0.039   6.688 -0.9463  0.3205  0.2298
  172SOPE   O1119424   4.506  -0.083   6.865  0.1149 -0.4503  0.5143
  172SOPE    C119425   4.404   0.016   6.880  0.3650 -0.0467 -0.2002
  172SOPE    HA19426   4.309  -0.004   6.827  0.2296 -1.4391  0.5200
  172SOPE    HB19427   4.448   0.114   6.853 -0.0416  0.4042  0.7278
  172SOPE    C219428   4.360   0.026   7.027 -0.9044  0.3115 -0.0812
  172SOPE    HS19429   4.292   0.113   7.043 -3.0649 -1.7873  3.8648
  172SOPE   O2119430   4.478   0.054   7.109  0.0837  1.2008 -0.7731
  172SOPE   C2119431   4.504   0.177   7.154  0.4912 -0.1252  0.4117
  172SOPE   O2219432   4.436   0.278   7.137 -0.2982  0.2850 -0.0985
  172SOPE   C2219433   4.636   0.173   7.237  0.0723  0.1196  0.1285
  172SOPE   H2R19434   4.666   0.275   7.266  1.9303  0.2619 -1.9816
  172SOPE   H2S19435   4.718   0.133   7.173 -0.5667  0.7297 -1.1268
  172SOPE    C319436   4.269  -0.096   7.070 -1.0324 -0.3174 -0.3330
  172SOPE    HX19437   4.323  -0.190   7.047  0.2507  0.0609  0.9842
  172SOPE    HY19438   4.174  -0.083   7.013 -1.5838  4.9708  1.1625
  172SOPE   O3119439   4.227  -0.089   7.206 -0.6020 -0.1749  0.3202
  172SOPE   C3119440   4.284  -0.173   7.291 -0.7856 -0.0782 -0.0057
  172SOPE   O3219441   4.374  -0.254   7.270 -0.1571  0.4754 -0.3084
  172SOPE   C3219442   4.201  -0.164   7.424 -0.0993 -0.0750  0.1646
  172SOPE   H2X19443   4.095  -0.179   7.396  0.1168  0.9393 -1.3654
  172SOPE   H2Y19444   4.219  -0.061   7.462 -0.0895  0.8874 -2.2502
  172SOPE   C2319445   4.635   0.079   7.365 -0.0216 -0.3308  0.0644
  172SOPE   H3R19446   4.743   0.058   7.379 -0.2492 -2.5501 -1.1284
  172SOPE   H3S19447   4.589  -0.021   7.351 -0.7575 -0.0499  0.4139
  172SOPE   C2419448   4.595   0.161   7.498 -0.0547  0.0532  0.0918
  172SOPE   H4R19449   4.655   0.254   7.500 -1.0108  0.6869  0.8289
  172SOPE   H4S19450   4.495   0.203   7.470  0.5959  0.8361 -1.1265
  172SOPE   C2519451   4.599   0.076   7.632 -1.0388  0.3252  0.0649
  172SOPE   H5R19452   4.531  -0.010   7.617 -0.7971 -0.1767  1.6581
  172SOPE   H5S19453   4.698   0.029   7.652 -1.5006  0.0274  1.7971
  172SOPE   C2619454   4.550   0.153   7.752 -0.2586  0.5603  0.2383
  172SOPE   H6R19455   4.632   0.217   7.792 -0.9267  1.5167  0.1200
  172SOPE   H6S19456   4.473   0.230   7.726  0.7335  1.3327 -0.4940
  172SOPE   C2719457   4.506   0.062   7.863  0.1125  0.1318 -0.3556
  172SOPE   H7R19458   4.411   0.019   7.826 -0.2454  2.9913 -3.1403
  172SOPE   H7S19459   4.582  -0.019   7.871 -0.1566 -0.0056  1.2956
  172SOPE   C2819460   4.486   0.125   7.998  0.2609  0.6622 -0.0255
  172SOPE   H8R19461   4.427   0.218   7.992  0.3168  0.6606 -0.5972
  172SOPE   H8S19462   4.424   0.052   8.054 -1.4615  1.2208 -1.1543
  172SOPE   C2919463   4.614   0.166   8.070 -0.2534  0.2950  0.4815
  172SOPE   H9119464   4.675   0.240   8.017 -1.7384  0.7321 -0.6880
  172SOPE  C21019465   4.643   0.134   8.195 -0.2322 -0.1175  0.4319
  172SOPE  H10119466   4.740   0.164   8.236  0.0480  0.5688 -0.7074
  172SOPE  C21119467   4.562   0.042   8.282 -0.0653  0.0913  0.1951
  172SOPE  H11R19468   4.612  -0.051   8.315  0.0438 -0.3914 -1.2647
  172SOPE  H11S19469   4.461   0.014   8.245 -0.3876  0.2118  0.9690
  172SOPE  C21219470   4.538   0.106   8.423  0.0444 -0.3325  0.3123
  172SOPE  H12R19471   4.455   0.059   8.478 -0.8405  0.3958 -0.3758
  172SOPE  H12S19472   4.529   0.216   8.409  1.7422 -0.4199 -2.1203
  172SOPE  C21319473   4.666   0.087   8.512 -0.5914  0.2393  0.1965
  172SOPE  H13R19474   4.747   0.133   8.451 -0.0689  1.8519  2.0164
  172SOPE  H13S19475   4.690  -0.020   8.531  0.6244  0.8728  2.6773
  172SOPE  C21419476   4.642   0.146   8.647  0.1884  0.0502 -0.2063
  172SOPE  H14R19477   4.610   0.251   8.636 -1.8042 -0.5754 -0.7885
  172SOPE  H14S19478   4.739   0.144   8.700  0.7668  1.5641 -1.1611
  172SOPE  C21519479   4.533   0.077   8.727  0.4250 -0.5745 -0.1576
  172SOPE  H15R19480   4.557  -0.031   8.738 -2.0348 -1.0845  0.9098
  172SOPE  H15S19481   4.433   0.089   8.681 -0.3584 -0.1725  1.5893
  172SOPE  C21619482   4.532   0.123   8.876 -0.4169 -0.4654 -0.6903
  172SOPE  H16R19483   4.553   0.231   8.863 -1.3728  0.0322  1.5348
  172SOPE  H16S19484   4.620   0.088   8.935  1.1053  3.4194 -0.3762
  172SOPE  C21719485   4.396   0.110   8.945  0.0557 -0.3785 -0.2978
  172SOPE  H17R19486   4.379   0.001   8.959 -0.6468 -0.8665 -4.0710
  172SOPE  H17S19487   4.317   0.149   8.877  0.3700 -0.4879 -0.7243
  172SOPE  C21819488   4.390   0.201   9.070 -0.1103 -0.2200  0.4643
  172SOPE  H18R19489   4.485   0.197   9.127  0.5457  3.1330 -0.1635
  172SOPE  H18S19490   4.306   0.180   9.140  0.3350 -0.5203  0.9138
  172SOPE  H18T19491   4.374   0.304   9.033  2.1882 -0.0853 -0.3307
  172SOPE   C3319492   4.260  -0.256   7.532 -0.1143  0.2375 -0.4037
  172SOPE   H3X19493   4.339  -0.205   7.590 -1.3827 -1.9412  3.6711
  172SOPE   H3Y19494   4.306  -0.352   7.499  1.0074  0.6418 -0.0465
  172SOPE   C3419495   4.162  -0.275   7.643  0.0143 -0.5276  0.2471
  172SOPE   H4X19496   4.086  -0.350   7.616  0.2786 -0.8335  0.3457
  172SOPE   H4Y19497   4.115  -0.179   7.674 -2.7805 -1.8994  0.4566
  172SOPE   C3519498   4.221  -0.334   7.770 -0.2810 -0.4387 -0.0498
  172SOPE   H5X19499   4.302  -0.273   7.815 -0.6775  0.1408 -0.1091
  172SOPE   H5Y19500   4.261  -0.436   7.750  0.8560  0.1308 -0.7422
  172SOPE   C3619501   4.120  -0.338   7.891  0.8031  1.0850  0.1494
  172SOPE   H6X19502   4.041  -0.411   7.864  2.2272 -0.2274 -0.6504
  172SOPE   H6Y19503   4.067  -0.241   7.904 -1.4017 -0.5127  5.2681
  172SOPE   C3719504   4.182  -0.378   8.027  0.3276 -0.4770  0.2348
  172SOPE   H7X19505   4.261  -0.304   8.051  1.7191 -1.4772 -1.0979
  172SOPE   H7Y19506   4.225  -0.480   8.021 -1.7442 -1.3493 -0.7320
  172SOPE   C3819507   4.085  -0.384   8.146 -0.0611 -0.5715  0.1442
  172SOPE   H8X19508   4.140  -0.417   8.236  4.1302  1.0305 -1.5804
  172SOPE   H8Y19509   3.998  -0.452   8.131  0.3069 -1.0038 -0.0555
  172SOPE   C3919510   4.028  -0.248   8.178  0.2096 -0.6558 -0.3834
  172SOPE   H9X19511   3.941  -0.233   8.109 -1.6124 -1.9697  1.4861
  172SOPE   H9Y19512   4.095  -0.164   8.152 -1.8642  0.8332 -1.2277
  172SOPE  C31019513   3.985  -0.234   8.328 -0.3366 -0.3597  0.5522
  172SOPE  H10X19514   3.921  -0.320   8.358 -0.8949 -0.9273 -2.0762
  172SOPE  H10Y19515   3.920  -0.146   8.345 -0.9433 -0.7293  0.1872
  172SOPE  C31119516   4.100  -0.211   8.424  0.3941  0.4170 -0.5474
  172SOPE  H11X19517   4.159  -0.123   8.392  3.1023 -0.6094  1.2428
  172SOPE  H11Y19518   4.167  -0.300   8.422 -1.0235 -0.6796 -1.0679
  172SOPE  C31219519   4.047  -0.188   8.566  0.5775 -0.4318 -0.0176
  172SOPE  H12X19520   3.987  -0.275   8.601  1.3848 -0.6818  0.8009
  172SOPE  H12Y19521   3.982  -0.098   8.559  2.4722  1.0849  1.0258
  172SOPE  C31319522   4.156  -0.176   8.673  0.0572  0.2225 -0.0438
  172SOPE  H13X19523   4.233  -0.103   8.641  2.2986 -2.5488 -1.3531
  172SOPE  H13Y19524   4.206  -0.274   8.689 -0.4753 -0.0572 -0.0471
  172SOPE  C31419525   4.101  -0.146   8.812 -0.0772 -0.5020  0.3946
  172SOPE  H14X19526   4.189  -0.123   8.874 -1.2131  1.2265  1.4351
  172SOPE  H14Y19527   4.048  -0.232   8.858  2.0785  0.2419  4.7229
  172SOPE  C31519528   4.016  -0.019   8.809 -0.1463 -0.5201 -0.4313
  172SOPE  H15X19529   3.941  -0.032   8.728  3.1044 -3.2178 -3.3370
  172SOPE  H15Y19530   4.088   0.064   8.792 -0.0696 -0.2729  0.9722
  172SOPE  C31619531   3.951   0.006   8.945 -0.7123  0.5464  0.1858
  172SOPE  H16X19532   3.867  -0.064   8.965  0.2439 -0.4738  0.7844
  172SOPE  H16Y19533   3.909   0.108   8.952  0.2606  0.9212  0.7247
  172SOPE  C31719534   4.048  -0.028   9.062 -0.5769  0.2354  0.8366
  172SOPE  H17X19535   4.148   0.011   9.035 -0.1475 -1.5226 -0.3292
  172SOPE  H17Y19536   4.061  -0.138   9.070 -1.1143  0.2354  1.7780
  172SOPE  C31819537   4.008   0.038   9.189  0.0104 -0.4860 -0.6757
  172SOPE  H18X19538   4.017  -0.034   9.273 -1.2054  1.0449  0.8521
  172SOPE  H18Y19539   3.900   0.065   9.187  0.1088  1.3167  4.3742
  172SOPE  H18Z19540   4.083   0.118   9.208  0.2824 -1.2553  1.8693
  173SAPI   C1219541   1.132   4.463  11.219 -0.0444 -0.2968 -0.1794
  173SAPI    H219542   1.180   4.563  11.224  1.1591 -0.8366 -0.5736
  173SAPI    O219543   1.186   4.400  11.330  0.0744  0.0772 -0.1262
  173SAPI   HO219544   1.278   4.429  11.325 -1.2503  5.4337  0.8583
  173SAPI   C1319545   0.986   4.476  11.231 -0.2294  0.1482 -0.3502
  173SAPI    H319546   0.948   4.532  11.143 -1.2217  1.8556  1.0866
  173SAPI    O319547   0.944   4.564  11.340  0.3440  0.4149  0.4328
  173SAPI   HO319548   0.995   4.541  11.418  0.5862 -1.8197 -0.3249
  173SAPI   C1419549   0.922   4.336  11.224  0.2990  0.4341  0.3216
  173SAPI    H419550   0.968   4.263  11.293 -1.2212 -0.9213 -0.0048
  173SAPI    O419551   0.779   4.333  11.248  0.0350  0.2232  0.4794
  173SAPI   HO419552   0.749   4.284  11.325 -1.7791  0.1624 -0.2346
  173SAPI   C1519553   0.964   4.274  11.091 -0.1092 -0.0438  0.0864
  173SAPI    H519554   0.909   4.340  11.020  0.2859  0.2066  0.0115
  173SAPI    O519555   0.924   4.138  11.089 -0.1563  1.1078  0.4381
  173SAPI   HO519556   0.857   4.121  11.155  0.1936 -1.7825  0.1822
  173SAPI   C1619557   1.117   4.278  11.073  0.0948  0.2480  0.8102
  173SAPI    H619558   1.176   4.221  11.148  1.4520  0.4309 -0.0843
  173SAPI    O619559   1.155   4.238  10.938  0.1671  0.8789  0.2970
  173SAPI   HO619560   1.249   4.257  10.935  0.1806  0.6956 -0.6814
  173SAPI   C1119561   1.165   4.417  11.083  0.1464 -0.3596 -0.6374
  173SAPI    H119562   1.111   4.485  11.015 -0.3085  1.5953  1.5502
  173SAPI     P19563   1.382   4.548  10.990  0.0431  0.5320  0.1039
  173SAPI   O1319564   1.513   4.574  11.037 -0.5091 -0.5173  0.5026
  173SAPI   O1419565   1.289   4.667  11.006 -0.2585  0.6981 -0.0389
  173SAPI   O1219566   1.309   4.424  11.066 -0.7264 -0.5329  0.6055
  173SAPI   O1119567   1.386   4.503  10.841  0.5710 -0.3630 -0.2980
  173SAPI    C119568   1.487   4.415  10.792 -0.0981  0.3722  0.0023
  173SAPI    HA19569   1.550   4.363  10.868 -0.1372 -3.3814 -2.2937
  173SAPI    HB19570   1.458   4.348  10.709 -1.0185  0.4257  0.2713
  173SAPI    C219571   1.604   4.499  10.736  0.1661 -1.0598  0.1229
  173SAPI    HS19572   1.639   4.569  10.814  1.0465  0.9022 -1.9219
  173SAPI   O2119573   1.556   4.572  10.620  0.2643 -0.1206 -0.7511
  173SAPI   C2119574   1.639   4.658  10.572 -0.3749  0.4846  0.4568
  173SAPI   O2219575   1.733   4.704  10.632  0.6062  0.2627  0.1299
  173SAPI   C2219576   1.587   4.702  10.436  0.6342  0.1548 -0.5666
  173SAPI   H2R19577   1.586   4.610  10.373 -3.7169 -1.0426  0.9288
  173SAPI   H2S19578   1.480   4.718  10.457  0.8533 -1.4011  2.1490
  173SAPI    C319579   1.733   4.416  10.703 -0.1953  0.3214  0.1820
  173SAPI    HX19580   1.786   4.394  10.798  1.9079  0.9423 -0.7752
  173SAPI    HY19581   1.808   4.472  10.643  0.8133  0.1161  1.2343
  173SAPI   O3119582   1.706   4.291  10.633  0.3032 -0.2934 -0.3657
  173SAPI   C3119583   1.714   4.299  10.506  0.5188 -0.2450 -0.7017
  173SAPI   O3219584   1.741   4.398  10.442 -0.1740 -0.6813 -0.3251
  173SAPI   C3219585   1.670   4.165  10.448  0.1275  0.1761 -0.1307
  173SAPI   H2X19586   1.574   4.134  10.495 -0.7745  1.3340 -1.1340
  173SAPI   H2Y19587   1.749   4.096  10.485  1.1750  0.0198 -2.5225
  173SAPI   C2319588   1.668   4.820  10.377 -0.4942  0.1876  0.1416
  173SAPI   H3R19589   1.766   4.778  10.346 -1.2796 -0.5392 -1.5193
  173SAPI   H3S19590   1.670   4.899  10.454 -0.3817 -0.6845  1.0579
  173SAPI   C2419591   1.611   4.865  10.246 -0.1766 -0.5370  0.2843
  173SAPI   H4R19592   1.588   4.779  10.180 -2.6950  0.9793 -0.9380
  173SAPI   H4S19593   1.690   4.920  10.189  0.0418  0.3768  1.4356
  173SAPI   C2519594   1.501   4.964  10.266  0.1858 -0.1159  0.2349
  173SAPI   H5R19595   1.541   5.058  10.307  0.6922  0.0768 -0.6583
  173SAPI   C2619596   1.370   4.950  10.235  0.0040  0.3522  0.3530
  173SAPI   H6R19597   1.294   5.027  10.252  0.1916  0.7670 -0.6322
  173SAPI   C2719598   1.319   4.823  10.174 -0.1791  1.0951 -0.2327
  173SAPI   H7R19599   1.379   4.729  10.181 -1.8014  0.0877  0.7522
  173SAPI   H7S19600   1.285   4.826  10.069  0.2407  0.4227 -0.3919
  173SAPI   C2819601   1.197   4.788  10.267  0.4045 -0.2982 -1.0013
  173SAPI   H8R19602   1.222   4.711  10.342 -0.7513  0.6746  0.4435
  173SAPI   C2919603   1.069   4.836  10.265 -0.1149  0.6376  0.0439
  173SAPI   H9R19604   1.006   4.786  10.340  0.9416 -1.3036 -0.3058
  173SAPI  C21019605   1.016   4.934  10.167  0.6306 -0.2742 -0.0492
  173SAPI  H10R19606   1.083   4.970  10.086 -1.8859  1.3693 -1.5632
  173SAPI  H10S19607   1.000   5.023  10.231 -0.4226 -0.6944  0.2972
  173SAPI  C21119608   0.890   4.890  10.103  0.2563  1.1355 -0.3603
  173SAPI  H11R19609   0.801   4.893  10.168  1.0410 -1.2984  0.9594
  173SAPI  C21219610   0.875   4.826   9.979  0.7631 -0.8696  0.0403
  173SAPI  H12R19611   0.775   4.784   9.963  1.8298 -3.1877 -1.1924
  173SAPI  C21319612   0.987   4.791   9.879  0.1897  0.9141 -0.0627
  173SAPI  H13R19613   0.955   4.694   9.835  1.0575  0.3123  0.6005
  173SAPI  H13S19614   1.085   4.778   9.929 -0.1358 -0.9887  0.1435
  173SAPI  C21419615   0.990   4.882   9.762  0.1928 -0.3518 -0.7093
  173SAPI  H14R19616   0.909   4.957   9.755 -1.3058 -1.7751  0.5540
  173SAPI  C21519617   1.058   4.875   9.646 -0.0904 -0.7283 -0.0375
  173SAPI  H15R19618   1.028   4.950   9.572 -1.9297 -1.8926 -0.5373
  173SAPI  C21619619   1.154   4.767   9.614  0.0481  0.1132  0.0264
  173SAPI  H16R19620   1.124   4.670   9.659  0.4727  0.3354  0.8074
  173SAPI  H16S19621   1.261   4.790   9.637  0.3734 -1.4222  0.1341
  173SAPI  C21719622   1.144   4.764   9.454 -0.6334 -0.0722  0.2083
  173SAPI  H17R19623   1.038   4.774   9.423 -0.4755  1.0231 -0.0071
  173SAPI  H17S19624   1.175   4.661   9.424 -1.9962  0.3344 -3.0510
  173SAPI  C21819625   1.222   4.877   9.397 -0.0743  0.1973  0.7689
  173SAPI  H18R19626   1.329   4.865   9.424 -0.3428 -0.6453  1.4658
  173SAPI  H18S19627   1.185   4.977   9.429 -0.8684 -0.3001  1.4239
  173SAPI  C21919628   1.216   4.878   9.246 -0.0327 -1.0210 -0.2918
  173SAPI  H19R19629   1.110   4.874   9.212 -0.3689  1.7279  0.2212
  173SAPI  H19S19630   1.262   4.782   9.213  3.3274 -0.8179  3.1265
  173SAPI  C22019631   1.275   5.007   9.193  0.3459  0.4038 -0.6077
  173SAPI  H20R19632   1.282   5.010   9.082  0.1747  1.4405 -0.6046
  173SAPI  H20S19633   1.380   5.026   9.226  0.2222  0.5039 -0.2660
  173SAPI  H20T19634   1.220   5.099   9.222  0.7090 -0.1222  2.0104
  173SAPI   C3319635   1.649   4.168  10.292 -0.2767  0.5991 -0.0151
  173SAPI   H3X19636   1.742   4.195  10.238 -0.7527  1.2013 -0.5530
  173SAPI   H3Y19637   1.577   4.243  10.252  0.3609  1.3818  0.2930
  173SAPI   C3419638   1.599   4.029  10.261  0.1114 -0.0100  0.2336
  173SAPI   H4X19639   1.489   4.030  10.274  0.2313 -0.4667  1.4200
  173SAPI   H4Y19640   1.637   3.952  10.331 -1.1410  2.0542  3.4021
  173SAPI   C3519641   1.641   3.992  10.114  0.1590  0.0221 -0.3430
  173SAPI   H5X19642   1.588   3.900  10.082 -0.4101  0.0606  0.4585
  173SAPI   H5Y19643   1.748   3.960  10.112 -0.2313 -1.3058 -1.9847
  173SAPI   C3619644   1.608   4.099  10.006  0.8649 -0.5009 -0.9554
  173SAPI   H6X19645   1.672   4.188  10.025 -1.5184  0.8193  1.7005
  173SAPI   H6Y19646   1.506   4.142  10.020  2.5096  3.7734 -0.7792
  173SAPI   C3719647   1.630   4.036   9.867 -0.3038 -0.1253  0.0802
  173SAPI   H7X19648   1.573   3.940   9.871 -0.4293 -0.1053 -1.0256
  173SAPI   H7Y19649   1.738   4.011   9.858 -0.4546 -1.1432  0.7900
  173SAPI   C3819650   1.577   4.122   9.752 -0.3380 -1.1257  0.2701
  173SAPI   H8X19651   1.631   4.219   9.752 -1.4468 -0.4639 -1.9246
  173SAPI   H8Y19652   1.469   4.144   9.764 -0.5933 -1.6263 -0.9480
  173SAPI   C3919653   1.604   4.058   9.607 -1.0214  0.2345 -0.0230
  173SAPI   H9X19654   1.533   3.972   9.601  0.4065 -0.9490 -0.7522
  173SAPI   H9Y19655   1.708   4.022   9.597 -0.5525  1.7845 -0.9937
  173SAPI  C31019656   1.572   4.162   9.498 -0.2441 -0.2476 -0.1182
  173SAPI  H10X19657   1.645   4.244   9.517  1.0911 -1.4157 -0.0165
  173SAPI  H10Y19658   1.469   4.202   9.507  0.5126  2.9269 -3.1694
  173SAPI  C31119659   1.591   4.100   9.367  0.2489  0.5889 -0.0950
  173SAPI  H11X19660   1.514   4.022   9.347  1.9513 -1.1983  0.0519
  173SAPI  H11Y19661   1.693   4.057   9.372  0.6006  1.5222  0.9601
  173SAPI  C31219662   1.573   4.205   9.258 -0.2105 -0.0832  0.0917
  173SAPI  H12X19663   1.639   4.293   9.273 -1.3442  0.5483  1.5706
  173SAPI  H12Y19664   1.468   4.240   9.267 -0.7619 -1.6845  0.1895
  173SAPI  C31319665   1.606   4.146   9.115 -0.2182  0.5277 -0.1022
  173SAPI  H13X19666   1.540   4.062   9.087  1.0712 -1.0028  1.2710
  173SAPI  H13Y19667   1.709   4.104   9.117 -0.8843 -1.1508 -0.1379
  173SAPI  C31419668   1.593   4.246   8.998 -0.3860  0.0646  0.1145
  173SAPI  H14X19669   1.689   4.297   8.976 -0.2071 -1.4934 -3.3135
  173SAPI  H14Y19670   1.522   4.326   9.025 -0.6291 -0.3224  0.6527
  173SAPI  C31519671   1.549   4.169   8.874 -0.6980  0.2476 -0.1434
  173SAPI  H15X19672   1.449   4.121   8.883 -0.3102 -0.8072 -1.1556
  173SAPI  H15Y19673   1.627   4.091   8.860 -0.3340  0.8954 -1.9021
  173SAPI  C31619674   1.546   4.265   8.755 -0.5124  0.5423  0.2686
  173SAPI  H16X19675   1.647   4.310   8.743 -0.7853  0.5615 -2.6491
  173SAPI  H16Y19676   1.479   4.349   8.783 -0.2150  0.6304  0.7205
  173SAPI  C31719677   1.501   4.217   8.612 -0.3456  0.3497  0.3820
  173SAPI  H17X19678   1.392   4.196   8.623 -0.8400  3.2286  2.0687
  173SAPI  H17Y19679   1.553   4.123   8.583 -2.5693 -0.2210 -2.1889
  173SAPI  C31819680   1.535   4.332   8.510 -0.7168  0.3856  0.3617
  173SAPI  H18X19681   1.642   4.328   8.483 -1.4013 -0.2809 -2.5962
  173SAPI  H18Y19682   1.521   4.430   8.561  0.4598  1.1904 -0.8119
  173SAPI  H18Z19683   1.475   4.323   8.417  1.8391  2.0936 -1.5627
  174SAPI   C1219684   2.061   3.315  10.935 -0.3039 -0.2554 -0.3124
  174SAPI    H219685   1.988   3.246  10.888 -2.1405 -0.4374  2.5835
  174SAPI    O219686   2.160   3.361  10.840  0.3506  0.6869  0.1527
  174SAPI   HO219687   2.164   3.296  10.769 -2.2533  2.2149 -1.5502
  174SAPI   C1319688   1.978   3.429  10.998  0.5778 -0.6187  0.0509
  174SAPI    H319689   1.904   3.380  11.065  1.2613 -1.6228  0.0781
  174SAPI    O319690   1.903   3.508  10.898  0.2403 -0.7107 -0.1961
  174SAPI   HO319691   1.970   3.561  10.852 -0.2606 -0.7984 -1.0593
  174SAPI   C1419692   2.060   3.519  11.090 -0.0328 -0.4048  0.0975
  174SAPI    H419693   2.138   3.566  11.026  0.9928 -0.7532  1.0509
  174SAPI    O419694   1.985   3.627  11.142 -0.5790 -0.1616 -1.1587
  174SAPI   HO419695   1.982   3.693  11.073  3.3992  1.3548 -0.1606
  174SAPI   C1519696   2.135   3.442  11.191  0.6092  0.1232  0.0738
  174SAPI    H519697   2.059   3.393  11.256  2.1819 -0.3244  1.6595
  174SAPI    O519698   2.215   3.519  11.283 -0.8781  0.6731 -0.5920
  174SAPI   HO519699   2.290   3.554  11.235  0.1545 -0.7291 -0.0873
  174SAPI   C1619700   2.216   3.324  11.128  0.1046 -0.9611 -0.6934
  174SAPI    H619701   2.294   3.373  11.065  1.8677 -0.7587  1.5429
  174SAPI    O619702   2.285   3.243  11.224 -0.0439 -0.1252 -0.0839
  174SAPI   HO619703   2.273   3.154  11.189  2.1690  0.2857 -2.1172
  174SAPI   C1119704   2.130   3.235  11.048  0.2051  0.0436  0.1642
  174SAPI    H119705   2.040   3.201  11.104 -1.0147 -0.5379 -1.9897
  174SAPI     P19706   2.170   2.999  10.903 -0.2888  0.3574 -0.2643
  174SAPI   O1319707   2.028   2.964  10.937  0.5955  0.4078  0.3444
  174SAPI   O1419708   2.263   2.884  10.915  0.3242 -0.0575  0.5084
  174SAPI   O1219709   2.218   3.128  11.004 -0.6799  0.1648  0.0537
  174SAPI   O1119710   2.176   3.065  10.766  0.5212 -0.1258  1.2795
  174SAPI    C119711   2.125   3.004  10.647 -0.1893 -0.0555  0.1946
  174SAPI    HA19712   2.203   2.928  10.624 -0.8257 -0.9782  0.9688
  174SAPI    HB19713   2.029   2.952  10.670 -0.8195  1.2611  0.6375
  174SAPI    C219714   2.091   3.111  10.545  0.1099 -1.0402  0.4801
  174SAPI    HS19715   2.086   3.062  10.445  1.8124  1.3698 -0.9245
  174SAPI   O2119716   2.190   3.217  10.541  0.5298  0.3240 -0.8179
  174SAPI   C2119717   2.317   3.184  10.506  0.5755 -0.0995 -0.1268
  174SAPI   O2219718   2.356   3.077  10.478  0.1422  0.0607  0.3190
  174SAPI   C2219719   2.413   3.307  10.521 -0.1490  0.9470 -0.0492
  174SAPI   H2R19720   2.391   3.368  10.612 -1.4118  0.4236  0.0108
  174SAPI   H2S19721   2.514   3.262  10.531 -0.1050 -0.1850 -3.8867
  174SAPI    C319722   1.955   3.183  10.584 -0.7531 -0.2255  0.7225
  174SAPI    HX19723   1.955   3.270  10.653  2.4299  1.1512 -0.8243
  174SAPI    HY19724   1.904   3.104  10.643  0.6732 -0.9267  1.0513
  174SAPI   O3119725   1.889   3.227  10.462 -0.0184  0.3275  0.5290
  174SAPI   C3119726   1.760   3.199  10.443 -0.3550  0.0778  0.2920
  174SAPI   O3219727   1.685   3.141  10.516 -0.1871 -0.4836 -0.2095
  174SAPI   C3219728   1.729   3.248  10.303 -0.5510  0.0047  0.2383
  174SAPI   H2X19729   1.734   3.359  10.302  1.8380 -0.0564 -2.1449
  174SAPI   H2Y19730   1.621   3.221  10.291 -1.1735  2.0892  0.7489
  174SAPI   C2319731   2.397   3.406  10.404  0.1548  0.0257 -0.5101
  174SAPI   H3R19732   2.444   3.500  10.439  0.0370 -0.1818  0.2091
  174SAPI   H3S19733   2.295   3.449  10.389 -0.4854 -0.2974  2.3029
  174SAPI   C2419734   2.470   3.365  10.276  0.2372  0.5160 -0.2302
  174SAPI   H4R19735   2.576   3.351  10.305 -0.5062  2.0733  3.8460
  174SAPI   H4S19736   2.487   3.449  10.206 -0.7792  0.8686 -0.0723
  174SAPI   C2519737   2.422   3.250  10.194  0.5000  0.5381 -0.0623
  174SAPI   H5R19738   2.427   3.151  10.244  1.8695  0.2509 -0.7336
  174SAPI   C2619739   2.368   3.245  10.070  0.1913  0.9854  0.1566
  174SAPI   H6R19740   2.336   3.149  10.027 -1.9546  1.2927  0.9327
  174SAPI   C2719741   2.342   3.370   9.993 -0.4288  0.2557  0.0117
  174SAPI   H7R19742   2.436   3.411   9.950  0.2151  1.0029  2.0012
  174SAPI   H7S19743   2.312   3.451  10.063  2.4269  0.3743  1.2008
  174SAPI   C2819744   2.236   3.349   9.890 -0.1592  0.7466  0.5715
  174SAPI   H8R19745   2.133   3.330   9.922 -0.1290  1.5034  1.1311
  174SAPI   C2919746   2.249   3.366   9.759 -0.2660 -0.2989  0.5799
  174SAPI   H9R19747   2.162   3.358   9.692  0.2842 -1.4471 -0.0247
  174SAPI  C21019748   2.377   3.397   9.691  0.1283 -0.1230 -0.0930
  174SAPI  H10R19749   2.459   3.418   9.763  0.1278 -0.7054  0.0823
  174SAPI  H10S19750   2.368   3.474   9.612  0.8295 -0.9401 -0.9976
  174SAPI  C21119751   2.412   3.272   9.610  0.1774  0.5995  0.5108
  174SAPI  H11R19752   2.429   3.183   9.672 -2.5084  1.1672  2.2342
  174SAPI  C21219753   2.415   3.252   9.482 -0.2280  0.2699  0.9705
  174SAPI  H12R19754   2.437   3.151   9.445  2.3146  1.0494  0.1705
  174SAPI  C21319755   2.389   3.353   9.374  0.6156 -0.4363 -0.0599
  174SAPI  H13R19756   2.463   3.329   9.295 -0.5846  0.3999 -1.4917
  174SAPI  H13S19757   2.414   3.458   9.404 -0.9262  0.5919 -2.1060
  174SAPI  C21419758   2.245   3.351   9.325 -0.1924  0.4018 -0.7062
  174SAPI  H14R19759   2.170   3.308   9.393 -0.1135  2.5074  0.8092
  174SAPI  C21519760   2.206   3.398   9.203 -0.6198  0.6084  0.7095
  174SAPI  H15R19761   2.101   3.383   9.175 -0.7776  0.3987  1.3817
  174SAPI  C21619762   2.296   3.463   9.096  0.0425  0.7660  0.2272
  174SAPI  H16R19763   2.379   3.528   9.131  0.7270  1.3844 -2.3290
  174SAPI  H16S19764   2.220   3.526   9.045 -2.9372  0.4320  3.7583
  174SAPI  C21719765   2.353   3.367   8.989 -0.0548  0.1270 -0.4798
  174SAPI  H17R19766   2.264   3.333   8.931  0.9313 -1.4181 -1.1440
  174SAPI  H17S19767   2.412   3.282   9.029 -1.3416 -0.5313  0.1010
  174SAPI  C21819768   2.438   3.453   8.896  0.3986 -0.3474  0.0864
  174SAPI  H18R19769   2.518   3.507   8.950 -1.2082  0.6467  1.5713
  174SAPI  H18S19770   2.391   3.537   8.841 -1.5861  0.0097  2.1850
  174SAPI  C21919771   2.511   3.370   8.789  0.8986  0.3697  0.5182
  174SAPI  H19R19772   2.560   3.442   8.720 -0.1559 -0.7035 -1.4695
  174SAPI  H19S19773   2.437   3.326   8.719  1.0937  1.0715 -0.1455
  174SAPI  C22019774   2.614   3.273   8.845 -0.2962  0.0619  0.0552
  174SAPI  H20R19775   2.571   3.187   8.901 -3.0823  1.4052  0.1512
  174SAPI  H20S19776   2.685   3.323   8.914 -0.5014  0.3254  0.0780
  174SAPI  H20T19777   2.677   3.233   8.764 -1.0378  1.0703 -1.0508
  174SAPI   C3319778   1.822   3.181  10.193  0.1330 -0.0320 -0.9088
  174SAPI   H3X19779   1.828   3.071  10.206  1.8295  0.0869 -0.4920
  174SAPI   H3Y19780   1.928   3.211  10.209 -0.6559  3.6571 -1.6573
  174SAPI   C3419781   1.793   3.227  10.047  0.1952  0.2066  0.9984
  174SAPI   H4X19782   1.879   3.191   9.988  0.2838  1.6061  0.2218
  174SAPI   H4Y19783   1.801   3.335  10.023 -3.5864  0.5052  0.4313
  174SAPI   C3519784   1.670   3.158   9.984  0.5698  1.0142 -0.5377
  174SAPI   H5X19785   1.586   3.218  10.024 -0.5427  0.5866 -2.1518
  174SAPI   H5Y19786   1.666   3.051  10.012 -2.4648  0.1240 -3.7516
  174SAPI   C3619787   1.663   3.173   9.833 -1.0503 -0.7081  0.5831
  174SAPI   H6X19788   1.703   3.275   9.813 -1.6840 -0.5365  0.1898
  174SAPI   H6Y19789   1.561   3.172   9.791  0.2691  0.5456 -3.0062
  174SAPI   C3719790   1.762   3.079   9.750  0.7494 -0.3991  0.0209
  174SAPI   H7X19791   1.733   2.978   9.785 -0.7370  0.4726  1.4388
  174SAPI   H7Y19792   1.868   3.087   9.783  0.4367 -0.4431  1.0498
  174SAPI   C3819793   1.735   3.095   9.596  0.6438  0.2270 -0.8521
  174SAPI   H8X19794   1.627   3.078   9.580  0.6332 -1.7336  0.9764
  174SAPI   H8Y19795   1.778   3.003   9.551 -1.4950 -0.3372 -1.8371
  174SAPI   C3919796   1.796   3.227   9.540  0.2304  0.3100 -0.1214
  174SAPI   H9X19797   1.907   3.222   9.542  0.3050  0.4099 -2.1217
  174SAPI   H9Y19798   1.761   3.319   9.592  0.1966  0.2032  0.0464
  174SAPI  C31019799   1.757   3.257   9.399 -0.1586  0.6133 -0.2014
  174SAPI  H10X19800   1.797   3.361   9.394  3.0897 -0.3605  2.0565
  174SAPI  H10Y19801   1.647   3.262   9.386  0.0460  0.9996 -2.0562
  174SAPI  C31119802   1.834   3.170   9.296 -0.0460  0.3270  0.5978
  174SAPI  H11X19803   1.818   3.067   9.334  2.3138  0.1591  1.2536
  174SAPI  H11Y19804   1.944   3.188   9.301 -0.2176  2.0409 -0.7051
  174SAPI  C31219805   1.786   3.174   9.149  0.2469  0.8617 -0.2647
  174SAPI  H12X19806   1.678   3.195   9.139 -0.7046 -3.7705 -2.2818
  174SAPI  H12Y19807   1.807   3.081   9.093 -0.5970  0.9357 -0.7185
  174SAPI  C31319808   1.864   3.278   9.067  0.0082  0.6352  0.1958
  174SAPI  H13X19809   1.966   3.238   9.085 -0.6895 -1.6699 -0.6580
  174SAPI  H13Y19810   1.842   3.382   9.100 -0.0159  0.1625  1.7234
  174SAPI  C31419811   1.830   3.259   8.915  0.1497 -0.1450  0.7673
  174SAPI  H14X19812   1.720   3.253   8.899  0.2131 -2.6227  0.8520
  174SAPI  H14Y19813   1.861   3.161   8.872 -1.5604 -0.1953 -0.4751
  174SAPI  C31519814   1.879   3.382   8.840  0.4078 -0.5157 -0.1053
  174SAPI  H15X19815   1.853   3.472   8.900 -0.7151 -0.6254 -0.3981
  174SAPI  H15Y19816   1.806   3.394   8.757 -0.6851 -0.7246  0.7873
  174SAPI  C31619817   2.028   3.380   8.800  0.3113  0.1640 -0.0220
  174SAPI  H16X19818   2.061   3.274   8.786 -0.2997  0.0418 -0.5892
  174SAPI  H16Y19819   2.068   3.426   8.892 -2.5796  1.8492  0.5268
  174SAPI  C31719820   2.055   3.461   8.672 -0.7473 -1.5516  0.0100
  174SAPI  H17X19821   2.068   3.568   8.700 -1.0220 -1.3858 -0.4823
  174SAPI  H17Y19822   1.962   3.461   8.611 -0.1386  0.8750 -1.0341
  174SAPI  C31819823   2.165   3.404   8.593 -0.0684  0.5746  0.0331
  174SAPI  H18X19824   2.258   3.413   8.653  1.6933 -1.9086 -2.1115
  174SAPI  H18Y19825   2.186   3.448   8.493  1.5366 -1.6644 -0.6960
  174SAPI  H18Z19826   2.153   3.297   8.565 -2.8061  0.0285  2.7139
  175SAPI   C1219827   5.437   4.808   6.288  0.6253  0.0083  0.3864
  175SAPI    H219828   5.519   4.757   6.343 -0.4270 -1.6822  0.4539
  175SAPI    O219829   5.495   4.876   6.171  1.0966 -0.1130 -0.8468
  175SAPI   HO219830   5.589   4.892   6.182  1.3251 -0.6715 -1.8613
  175SAPI   C1319831   5.348   4.695   6.248  0.1754  0.3466 -0.1961
  175SAPI    H319832   5.317   4.638   6.339 -1.4476 -2.0576 -2.1200
  175SAPI    O319833   5.412   4.604   6.159  0.1928  0.0155 -0.7205
  175SAPI   HO319834   5.474   4.655   6.106 -1.1886  3.2448  0.5004
  175SAPI   C1419835   5.221   4.745   6.188  0.5666  0.2107  0.3817
  175SAPI    H419836   5.237   4.797   6.092  0.8272 -0.7828 -0.1235
  175SAPI    O419837   5.129   4.637   6.159  0.3212 -0.4873  0.0463
  175SAPI   HO419838   5.050   4.643   6.214  0.3360  0.6896 -0.0514
  175SAPI   C1519839   5.151   4.864   6.271  0.1597  0.5012 -0.3946
  175SAPI    H519840   5.121   4.818   6.367 -2.2598  4.0725  0.7529
  175SAPI    O519841   5.034   4.918   6.207  0.8701 -0.1581  0.6946
  175SAPI   HO519842   4.982   4.975   6.264 -0.3916  0.6907 -1.1757
  175SAPI   C1619843   5.246   4.971   6.304 -0.9981  0.5905 -0.2309
  175SAPI    H619844   5.277   5.024   6.211 -2.1755 -0.1629 -1.0658
  175SAPI    O619845   5.186   5.064   6.390  0.0081  0.1968 -0.3859
  175SAPI   HO619846   5.211   5.149   6.353  1.1183 -0.5671 -1.4500
  175SAPI   C1119847   5.369   4.911   6.381  0.0394  0.0559  0.7149
  175SAPI    H119848   5.331   4.846   6.463  0.1350 -3.1684 -1.6062
  175SAPI     P19849   5.562   4.978   6.560 -0.4020 -0.0601 -0.5026
  175SAPI   O1319850   5.650   5.100   6.566 -0.4072  0.0126  0.3603
  175SAPI   O1419851   5.635   4.847   6.546  0.1218 -0.1618  0.9636
  175SAPI   O1219852   5.453   5.013   6.430 -0.0253  0.4612 -0.1941
  175SAPI   O1119853   5.476   4.966   6.695  0.0719  0.4551  0.3572
  175SAPI    C119854   5.422   5.075   6.770 -0.1844 -0.0236  0.8137
  175SAPI    HA19855   5.367   5.137   6.696 -0.6072 -2.9365 -1.5345
  175SAPI    HB19856   5.340   5.032   6.831  0.4418 -1.5733  0.6250
  175SAPI    C219857   5.521   5.154   6.852  0.3227  0.6895 -0.2084
  175SAPI    HS19858   5.611   5.176   6.791 -0.1404  1.5709 -0.6021
  175SAPI   O2119859   5.557   5.070   6.956 -0.4119 -0.0771 -0.6675
  175SAPI   C2119860   5.673   5.105   7.010 -0.0875 -0.9620 -0.1698
  175SAPI   O2219861   5.741   5.198   6.974  0.6766 -0.4923 -0.4843
  175SAPI   C2219862   5.711   5.009   7.127  0.1125  0.0567  0.4333
  175SAPI   H2R19863   5.617   4.952   7.144 -0.7090  0.9920 -0.7202
  175SAPI   H2S19864   5.779   4.934   7.083  1.2286  0.5651  1.2317
  175SAPI    C319865   5.471   5.294   6.897 -0.0522  0.4063 -0.4248
  175SAPI    HX19866   5.424   5.347   6.812 -1.8993 -0.8734 -0.2767
  175SAPI    HY19867   5.552   5.364   6.928 -0.8222  0.2414  2.1713
  175SAPI   O3119868   5.378   5.276   7.005 -0.4294 -0.0366 -0.4707
  175SAPI   C3119869   5.281   5.373   7.010 -0.2840  0.1928 -0.6163
  175SAPI   O3219870   5.280   5.476   6.945 -0.4360 -0.6088 -0.4388
  175SAPI   C3219871   5.165   5.321   7.099 -0.1118 -0.3020 -0.8072
  175SAPI   H2X19872   5.157   5.213   7.077 -2.5667  0.0082 -1.7029
  175SAPI   H2Y19873   5.080   5.383   7.064 -1.4744 -0.5070  1.8603
  175SAPI   C2319874   5.767   5.087   7.247 -0.5393  0.2045  0.3172
  175SAPI   H3R19875   5.864   5.135   7.224  0.3776 -1.5514  0.3526
  175SAPI   H3S19876   5.788   5.018   7.331 -0.1339  1.2662  1.1088
  175SAPI   C2419877   5.677   5.203   7.294 -0.1492 -0.4053  0.2131
  175SAPI   H4R19878   5.649   5.270   7.211  0.3661  0.8272  1.0044
  175SAPI   H4S19879   5.744   5.263   7.360 -1.4864  3.0715 -1.3819
  175SAPI   C2519880   5.571   5.160   7.393 -0.6200  0.0386  0.3833
  175SAPI   H5R19881   5.476   5.120   7.355  0.2645 -2.0593  0.2695
  175SAPI   C2619882   5.585   5.153   7.528  0.4502  0.6713 -0.3444
  175SAPI   H6R19883   5.495   5.132   7.588  0.0894 -0.3579 -1.2263
  175SAPI   C2719884   5.691   5.207   7.620 -0.3030  0.0606  0.2768
  175SAPI   H7R19885   5.784   5.182   7.564 -0.0246 -0.1472  0.8292
  175SAPI   H7S19886   5.691   5.142   7.710  1.7942  0.5178  0.6633
  175SAPI   C2819887   5.674   5.356   7.659 -0.4147  0.1466  0.0983
  175SAPI   H8R19888   5.618   5.414   7.584  0.0119 -1.5560 -1.6263
  175SAPI   C2919889   5.701   5.420   7.775  0.0218  0.1048  0.6416
  175SAPI   H9R19890   5.694   5.530   7.774  0.9732  0.1760 -0.2013
  175SAPI  C21019891   5.755   5.366   7.901 -0.3769 -0.4679  0.2151
  175SAPI  H10R19892   5.852   5.417   7.922 -0.6401 -0.4073  1.3411
  175SAPI  H10S19893   5.776   5.256   7.900  0.1219 -0.3829  0.9745
  175SAPI  C21119894   5.654   5.383   8.007  0.4271  0.3859 -0.0323
  175SAPI  H11R19895   5.556   5.342   7.979  0.5482  0.4822 -0.5985
  175SAPI  C21219896   5.665   5.449   8.127  0.1457  0.3364  0.7758
  175SAPI  H12R19897   5.581   5.437   8.198 -1.5259 -0.8221 -1.2723
  175SAPI  C21319898   5.787   5.517   8.175 -0.7753 -0.1049 -0.4816
  175SAPI  H13R19899   5.865   5.534   8.098 -0.1131 -1.0514 -0.0422
  175SAPI  H13S19900   5.844   5.457   8.250  0.5176 -2.0369 -2.8809
  175SAPI  C21419901   5.737   5.644   8.235  0.2744 -0.7876  0.0909
  175SAPI  H14R19902   5.701   5.715   8.159  1.5218 -0.2632 -0.0248
  175SAPI  C21519903   5.737   5.686   8.363 -0.3473 -0.4080 -0.4081
  175SAPI  H15R19904   5.686   5.782   8.380 -0.4289 -0.5466  0.1452
  175SAPI  C21619905   5.794   5.619   8.480  0.0911 -0.6030 -0.3929
  175SAPI  H16R19906   5.867   5.679   8.538  0.2415 -1.4804  0.3501
  175SAPI  H16S19907   5.860   5.533   8.454 -0.5618 -1.1783 -0.1681
  175SAPI  C21719908   5.692   5.570   8.589 -0.5072  0.4164  0.6871
  175SAPI  H17R19909   5.637   5.485   8.542 -0.2620 -0.2044  1.4920
  175SAPI  H17S19910   5.614   5.648   8.599 -0.2556  0.6985  0.4683
  175SAPI  C21819911   5.758   5.545   8.726  0.0034 -0.0883 -0.7217
  175SAPI  H18R19912   5.815   5.632   8.764  0.4612 -0.3259 -0.8474
  175SAPI  H18S19913   5.828   5.458   8.721 -3.2044 -2.9349 -0.3318
  175SAPI  C21919914   5.651   5.500   8.835 -0.4508 -0.0952  0.4040
  175SAPI  H19R19915   5.581   5.582   8.861  1.3749  1.8990 -0.6936
  175SAPI  H19S19916   5.709   5.479   8.927  0.6459  1.4085  0.0958
  175SAPI  C22019917   5.583   5.371   8.786  0.2375  0.9909 -0.5980
  175SAPI  H20R19918   5.657   5.301   8.740 -0.7454  0.0630 -0.8074
  175SAPI  H20S19919   5.511   5.389   8.704  0.8661  0.0613 -1.3782
  175SAPI  H20T19920   5.536   5.311   8.867  1.4996 -2.0446 -1.9347
  175SAPI   C3319921   5.181   5.344   7.249 -1.0658  0.0392  0.0478
  175SAPI   H3X19922   5.247   5.263   7.288  0.4431  0.9965 -0.4459
  175SAPI   H3Y19923   5.085   5.338   7.304 -0.4964 -0.0703  1.0620
  175SAPI   C3419924   5.230   5.494   7.275  0.4150 -0.0704 -0.1928
  175SAPI   H4X19925   5.181   5.573   7.215 -0.2918 -0.4100 -0.0733
  175SAPI   H4Y19926   5.336   5.500   7.242  0.3835  1.5162 -0.0828
  175SAPI   C3519927   5.226   5.546   7.421 -0.4287  0.2161 -0.0344
  175SAPI   H5X19928   5.118   5.552   7.445 -0.9523  1.5146 -2.4200
  175SAPI   H5Y19929   5.268   5.649   7.428  2.4732 -0.9769  3.1616
  175SAPI   C3619930   5.290   5.458   7.530 -0.8828  0.4181  0.1446
  175SAPI   H6X19931   5.379   5.420   7.476 -1.3144  1.5003 -1.4236
  175SAPI   H6Y19932   5.221   5.375   7.555  0.3363 -0.9971 -0.9965
  175SAPI   C3719933   5.347   5.510   7.666 -0.2723  0.6460  0.1181
  175SAPI   H7X19934   5.423   5.590   7.651 -0.9663  1.5321  1.1058
  175SAPI   H7Y19935   5.397   5.433   7.727  0.2919  0.5294 -0.4812
  175SAPI   C3819936   5.234   5.573   7.749  0.2764 -0.9834  0.1128
  175SAPI   H8X19937   5.151   5.499   7.747  0.0076 -0.7676  1.5878
  175SAPI   H8Y19938   5.208   5.669   7.701  0.6220 -0.0764  1.6590
  175SAPI   C3919939   5.261   5.597   7.902  0.7593  0.0819  0.3785
  175SAPI   H9X19940   5.361   5.638   7.924  1.4573 -0.9380 -0.7560
  175SAPI   H9Y19941   5.266   5.499   7.953  2.2118  0.9078  1.9019
  175SAPI  C31019942   5.153   5.688   7.954  0.2286  0.2092  0.1712
  175SAPI  H10X19943   5.061   5.626   7.962  1.0721 -1.0501  0.2755
  175SAPI  H10Y19944   5.118   5.768   7.885 -1.6101 -0.8974 -0.2449
  175SAPI  C31119945   5.182   5.747   8.093  0.5015  0.0807  0.2153
  175SAPI  H11X19946   5.096   5.805   8.133  0.8264  0.2354  0.6925
  175SAPI  H11Y19947   5.262   5.819   8.068  0.4774 -0.5131 -1.7211
  175SAPI  C31219948   5.227   5.643   8.203  0.3647  0.4289  0.2605
  175SAPI  H12X19949   5.323   5.596   8.173 -0.6069 -0.8064 -1.0361
  175SAPI  H12Y19950   5.161   5.555   8.219 -0.8161  1.3793  0.7482
  175SAPI  C31319951   5.234   5.720   8.336  0.3598 -0.1954 -0.1187
  175SAPI  H13X19952   5.131   5.757   8.356 -0.0652 -0.2155 -2.0016
  175SAPI  H13Y19953   5.286   5.814   8.305  0.0129 -0.6214 -2.1913
  175SAPI  C31419954   5.296   5.646   8.452 -0.2644  0.1525 -0.5541
  175SAPI  H14X19955   5.400   5.631   8.415 -0.3843  1.1536 -1.3433
  175SAPI  H14Y19956   5.245   5.550   8.471 -2.3069  1.0514 -1.2467
  175SAPI  C31519957   5.300   5.721   8.580  0.4837 -0.8728 -0.2169
  175SAPI  H15X19958   5.197   5.759   8.595  1.3669  1.3745  0.5738
  175SAPI  H15Y19959   5.363   5.811   8.571  0.8964 -1.1310  0.0653
  175SAPI  C31619960   5.330   5.642   8.706  0.3633 -0.5608 -0.5905
  175SAPI  H16X19961   5.370   5.711   8.784  0.8072  0.5740 -1.7987
  175SAPI  H16Y19962   5.406   5.567   8.678  0.2812 -1.3025  1.0598
  175SAPI  C31719963   5.202   5.572   8.756 -0.1235  0.1646  0.4600
  175SAPI  H17X19964   5.181   5.492   8.683 -0.4631 -1.2479  2.0415
  175SAPI  H17Y19965   5.112   5.636   8.756 -1.1984 -1.2325  2.2024
  175SAPI  C31819966   5.216   5.514   8.893 -0.0378  1.0194  0.0897
  175SAPI  H18X19967   5.135   5.439   8.904  1.2508 -0.7869 -1.9545
  175SAPI  H18Y19968   5.199   5.591   8.972 -2.5331  0.5994  0.0524
  175SAPI  H18Z19969   5.312   5.461   8.907 -0.4444  0.2635  0.0760
  176SAPI   C1219970   0.669   2.260   6.666  0.2526  0.0699 -0.4340
  176SAPI    H219971   0.621   2.168   6.707 -0.8562 -0.0733 -1.9816
  176SAPI    O219972   0.653   2.255   6.526 -0.2652 -0.7468 -0.0613
  176SAPI   HO219973   0.570   2.211   6.508 -0.3361 -1.0249  0.9044
  176SAPI   C1319974   0.611   2.389   6.720  0.0367 -0.5939 -0.6457
  176SAPI    H319975   0.631   2.401   6.829  0.8597  1.1500 -0.9607
  176SAPI    O319976   0.474   2.393   6.695  0.2968  0.5898 -0.2678
  176SAPI   HO319977   0.436   2.468   6.741  0.0384  0.1905  0.1646
  176SAPI   C1419978   0.685   2.503   6.655  0.3777 -0.1951  0.5651
  176SAPI    H419979   0.681   2.503   6.544  1.4229  0.3494  0.5064
  176SAPI    O419980   0.620   2.631   6.690 -0.4352  0.3492 -0.8323
  176SAPI   HO419981   0.608   2.643   6.785 -1.1592 -2.7518 -0.4461
  176SAPI   C1519982   0.842   2.502   6.684 -0.3898  0.7794 -0.0462
  176SAPI    H519983   0.852   2.530   6.791 -2.4002  2.1266 -0.1685
  176SAPI    O519984   0.900   2.609   6.611 -0.4891  0.3549 -0.0886
  176SAPI   HO519985   0.900   2.697   6.650 -1.8540  0.4181 -0.1547
  176SAPI   C1619986   0.892   2.367   6.647 -0.3201 -0.7604 -0.0398
  176SAPI    H619987   0.900   2.347   6.538  0.8312  0.7312 -0.2614
  176SAPI    O619988   1.027   2.363   6.690 -0.5548  0.1071 -0.0282
  176SAPI   HO619989   1.051   2.270   6.686 -1.5651 -0.2994  2.1771
  176SAPI   C1119990   0.822   2.248   6.713 -0.5009 -0.3971 -0.2003
  176SAPI    H119991   0.835   2.267   6.821  2.4973  2.1708 -0.8609
  176SAPI     P19992   0.895   2.008   6.796  0.1026 -0.4214 -0.2729
  176SAPI   O1319993   0.944   1.885   6.740 -0.0695 -0.0789  0.2593
  176SAPI   O1419994   0.764   1.993   6.870  0.3968 -0.1956 -0.2870
  176SAPI   O1219995   0.887   2.127   6.679 -0.8221  0.1316  0.0275
  176SAPI   O1119996   1.014   2.057   6.898 -0.5383 -0.4526 -0.0536
  176SAPI    C119997   0.996   2.027   7.040  0.3810  0.1380 -0.0194
  176SAPI    HA19998   0.925   1.944   7.062 -0.2493  1.0870  1.7419
  176SAPI    HB19999   1.095   2.010   7.087 -0.8600 -0.4369  2.5633
  176SAPI    C220000   0.936   2.155   7.109 -0.5081  0.7374  0.0898
  176SAPI    HS20001   0.833   2.166   7.068 -1.1694 -1.1047  1.1463
  176SAPI   O2120002   1.022   2.264   7.083  0.0710  0.1017  0.0848
  176SAPI   C2120003   0.968   2.374   7.028 -0.1627  0.2838  0.2559
  176SAPI   O2220004   0.851   2.390   7.016  0.4479 -0.1242 -0.6254
  176SAPI   C2220005   1.076   2.478   7.000  0.0162  0.1340 -0.9714
  176SAPI   H2R20006   1.157   2.431   6.940 -0.3578 -1.3431 -0.3717
  176SAPI   H2S20007   1.036   2.554   6.931  0.5456  0.4428 -0.9433
  176SAPI    C320008   0.927   2.136   7.260  0.3313 -0.3841 -0.3964
  176SAPI    HX20009   1.032   2.160   7.288  0.3051  0.8850 -1.3029
  176SAPI    HY20010   0.905   2.031   7.289  1.3635 -0.3093  0.7534
  176SAPI   O3120011   0.841   2.239   7.322 -0.6973 -0.6487 -0.5158
  176SAPI   C3120012   0.707   2.215   7.311 -0.2436 -0.4474  0.4297
  176SAPI   O3220013   0.666   2.130   7.235 -0.2445 -0.2067  0.6470
  176SAPI   C3220014   0.625   2.301   7.409  0.5546 -0.4711 -0.3414
  176SAPI   H2X20015   0.612   2.400   7.360 -2.4282 -1.1580 -1.1323
  176SAPI   H2Y20016   0.684   2.317   7.502  0.3161  0.4591 -0.3346
  176SAPI   C2320017   1.136   2.530   7.132 -0.2171  0.0300  0.1193
  176SAPI   H3R20018   1.227   2.585   7.098 -1.0379  0.3091 -1.7331
  176SAPI   H3S20019   1.169   2.444   7.195 -1.0980 -1.1278 -0.9596
  176SAPI   C2420020   1.049   2.622   7.215  0.1023 -0.0606 -0.4183
  176SAPI   H4R20021   0.957   2.565   7.241  0.9432 -0.4243  2.1075
  176SAPI   H4S20022   1.016   2.709   7.155 -0.6645  0.3153  0.5215
  176SAPI   C2520023   1.124   2.650   7.344 -0.5518 -0.7401 -0.0694
  176SAPI   H5R20024   1.213   2.710   7.320 -1.1650  0.9531  1.6338
  176SAPI   C2620025   1.106   2.613   7.469 -0.5399  0.1864  0.4729
  176SAPI   H6R20026   1.176   2.642   7.549 -0.5467 -0.6907  0.8141
  176SAPI   C2720027   0.994   2.524   7.512 -0.3727 -0.3051 -0.0796
  176SAPI   H7R20028   1.010   2.425   7.464  0.7692 -0.4631  0.5785
  176SAPI   H7S20029   0.894   2.547   7.470 -1.6487 -1.6307  2.0856
  176SAPI   C2820030   0.969   2.515   7.664  0.3189 -0.5882 -0.2003
  176SAPI   H8R20031   0.887   2.582   7.694  1.0467  0.3827 -0.3095
  176SAPI   C2920032   1.041   2.459   7.765  0.9111 -0.1135  0.1815
  176SAPI   H9R20033   0.997   2.470   7.865  0.7597  0.9816  0.0168
  176SAPI  C21020034   1.168   2.378   7.748  0.0537 -0.5633  0.1982
  176SAPI  H10R20035   1.191   2.360   7.641 -0.4908  0.5954 -0.1320
  176SAPI  H10S20036   1.147   2.276   7.786  2.3055 -0.6751  1.2745
  176SAPI  C21120037   1.282   2.448   7.807 -0.0917 -0.3226  0.3875
  176SAPI  H11R20038   1.298   2.542   7.752  1.3610 -0.1853  1.0020
  176SAPI  C21220039   1.360   2.414   7.908 -0.2193  0.3608 -0.2781
  176SAPI  H12R20040   1.437   2.483   7.944  0.8140 -0.7239 -0.3492
  176SAPI  C21320041   1.359   2.290   7.987  0.2305  0.4403  0.1170
  176SAPI  H13R20042   1.259   2.291   8.035  0.9354  0.7227  1.6729
  176SAPI  H13S20043   1.438   2.295   8.065 -1.0075  0.3185  1.4212
  176SAPI  C21420044   1.374   2.158   7.913  0.0761  0.2481  0.9964
  176SAPI  H14R20045   1.447   2.172   7.832 -0.6833 -2.7727 -0.3527
  176SAPI  C21520046   1.318   2.038   7.938  0.0891  0.5059 -0.7560
  176SAPI  H15R20047   1.336   1.951   7.874 -0.3467 -1.8153  2.0657
  176SAPI  C21620048   1.212   2.012   8.047 -0.3903 -0.1097 -0.0083
  176SAPI  H16R20049   1.144   1.942   7.994 -0.2896 -0.0759 -0.1822
  176SAPI  H16S20050   1.154   2.103   8.076  0.2856 -0.0549  1.2479
  176SAPI  C21720051   1.265   1.945   8.172 -0.7301  0.4469 -0.3234
  176SAPI  H17R20052   1.271   1.840   8.137  0.0210  0.3725  0.0181
  176SAPI  H17S20053   1.194   1.950   8.257 -1.8804  1.4901 -1.2891
  176SAPI  C21820054   1.403   1.988   8.220  0.5661 -0.7074  0.0635
  176SAPI  H18R20055   1.398   2.098   8.208  1.5436 -0.5807  0.6926
  176SAPI  H18S20056   1.471   1.959   8.137  1.6011 -0.8405  0.9334
  176SAPI  C21920057   1.450   1.949   8.362 -0.0712 -0.0770 -0.4191
  176SAPI  H19R20058   1.555   1.984   8.370 -0.1769  1.1459 -3.1011
  176SAPI  H19S20059   1.456   1.838   8.361  1.3618 -0.0168 -0.6443
  176SAPI  C22020060   1.364   1.991   8.484  0.1150  0.0527  0.0806
  176SAPI  H20R20061   1.416   1.958   8.577  1.2213 -0.3813 -0.6625
  176SAPI  H20S20062   1.261   1.951   8.488  1.3254 -3.3229  1.1859
  176SAPI  H20T20063   1.361   2.102   8.493 -1.1300 -0.0184  0.6981
  176SAPI   C3320064   0.480   2.240   7.441  0.3897  0.3770 -0.2778
  176SAPI   H3X20065   0.446   2.177   7.356  1.0718 -0.8143  0.3032
  176SAPI   H3Y20066   0.406   2.320   7.461  0.2746  0.0852  0.4901
  176SAPI   C3420067   0.495   2.153   7.566  0.2211 -0.5755 -0.2761
  176SAPI   H4X20068   0.553   2.216   7.637 -0.0704  0.2313 -0.7453
  176SAPI   H4Y20069   0.542   2.059   7.531  2.2442  1.1363 -2.4947
  176SAPI   C3520070   0.366   2.112   7.635  0.7882  0.3566  0.2341
  176SAPI   H5X20071   0.298   2.050   7.572 -0.0467  0.6952  0.7871
  176SAPI   H5Y20072   0.309   2.205   7.655  0.7407  0.8077 -1.7722
  176SAPI   C3620073   0.376   2.036   7.763 -0.1899 -0.2930 -0.1615
  176SAPI   H6X20074   0.433   2.092   7.840  0.2954  1.2291 -1.5573
  176SAPI   H6Y20075   0.431   1.940   7.754 -1.1518 -0.8988  0.3489
  176SAPI   C3720076   0.245   2.009   7.821  0.8772  0.2598  0.3575
  176SAPI   H7X20077   0.194   1.952   7.740  2.0062  1.0109 -0.9278
  176SAPI   H7Y20078   0.182   2.101   7.834  1.6709  0.6164  1.8656
  176SAPI   C3820079   0.250   1.933   7.953 -0.4399 -0.5203  0.0419
  176SAPI   H8X20080   0.310   1.840   7.950 -1.3854 -1.1957  1.3495
  176SAPI   H8Y20081   0.148   1.898   7.978  0.1314 -0.9743  1.9435
  176SAPI   C3920082   0.306   2.019   8.073  0.3683  0.2995  0.0694
  176SAPI   H9X20083   0.254   2.117   8.067 -4.2196 -1.8053  0.9338
  176SAPI   H9Y20084   0.417   2.023   8.077  0.3653 -0.4766  2.5681
  176SAPI  C31020085   0.269   1.939   8.202 -0.1270  0.0612  0.1892
  176SAPI  H10X20086   0.295   1.831   8.191 -2.3083 -0.3277 -2.0907
  176SAPI  H10Y20087   0.158   1.949   8.206 -0.2617 -0.4884 -1.3792
  176SAPI  C31120088   0.320   1.996   8.340  0.3987  0.1767 -0.4573
  176SAPI  H11X20089   0.417   1.950   8.369  0.4460 -1.0709 -2.4089
  176SAPI  H11Y20090   0.247   1.973   8.421  0.5324  0.7610 -0.1720
  176SAPI  C31220091   0.321   2.145   8.344  0.2057  0.1416 -0.1849
  176SAPI  H12X20092   0.223   2.192   8.324  0.0090 -0.1195  0.1530
  176SAPI  H12Y20093   0.383   2.179   8.258 -0.5973  0.7346 -0.5425
  176SAPI  C31320094   0.393   2.207   8.469 -0.3449  0.2805 -0.2842
  176SAPI  H13X20095   0.495   2.165   8.463 -0.5559 -0.3936  0.5669
  176SAPI  H13Y20096   0.341   2.156   8.553  1.2415  0.0762  0.6104
  176SAPI  C31420097   0.377   2.359   8.479  0.5557  0.7411 -0.5237
  176SAPI  H14X20098   0.273   2.398   8.491  0.4280 -0.4103  3.8811
  176SAPI  H14Y20099   0.416   2.383   8.378  2.8363 -1.0153 -0.1244
  176SAPI  C31520100   0.478   2.426   8.575  0.7270  0.3023 -1.0997
  176SAPI  H15X20101   0.478   2.536   8.561  1.2346  0.5088  0.3778
  176SAPI  H15Y20102   0.581   2.389   8.554  0.8975 -0.4922  0.9192
  176SAPI  C31620103   0.444   2.393   8.729 -0.0245 -0.3313 -0.4279
  176SAPI  H16X20104   0.463   2.284   8.733  2.5445  0.0104 -1.4140
  176SAPI  H16Y20105   0.339   2.416   8.756  0.3230  0.1527  0.5612
  176SAPI  C31720106   0.530   2.476   8.825  0.1709 -0.7397 -0.2254
  176SAPI  H17X20107   0.507   2.585   8.822 -1.1012 -1.0079 -1.1478
  176SAPI  H17Y20108   0.637   2.464   8.794  0.0594 -2.4005 -0.0124
  176SAPI  C31820109   0.518   2.449   8.973 -0.1660  0.1047 -0.0420
  176SAPI  H18X20110   0.421   2.493   9.005  0.0627  0.3325  0.3462
  176SAPI  H18Y20111   0.605   2.489   9.029 -0.5648  1.0020 -0.0518
  176SAPI  H18Z20112   0.524   2.341   8.999 -2.2448 -0.6228 -2.2702
  177SLPC     N20113   5.024   5.450  11.244  0.0234 -0.0109  0.1392
  177SLPC   C1320114   4.930   5.353  11.322 -0.3107 -0.2920  0.7658
  177SLPC  H13A20115   4.978   5.342  11.417 -2.1305  1.6147  2.0105
  177SLPC  H13B20116   4.829   5.392  11.328 -0.3820 -0.5802  1.5753
  177SLPC  H13C20117   4.934   5.259  11.270  2.3857 -0.0436  0.4177
  177SLPC   C1420118   5.158   5.394  11.277  0.6464  0.6575 -0.5611
  177SLPC  H14A20119   5.226   5.438  11.206  1.5822  0.4064  0.1571
  177SLPC  H14B20120   5.191   5.401  11.380  1.7090  2.4612 -0.9838
  177SLPC  H14C20121   5.150   5.290  11.248 -1.2022  0.9282 -1.1841
  177SLPC   C1520122   5.013   5.593  11.300 -0.6021  0.0896 -0.6034
  177SLPC  H15A20123   4.916   5.632  11.272 -0.9145 -1.3439 -1.6488
  177SLPC  H15B20124   5.032   5.591  11.406  1.0154  1.1130 -0.8428
  177SLPC  H15C20125   5.091   5.660  11.267 -0.9675 -0.1292 -1.9669
  177SLPC   C1220126   5.007   5.453  11.093 -0.7817 -0.6593  1.0265
  177SLPC  H12A20127   4.905   5.483  11.074 -0.8848 -0.3726  1.9822
  177SLPC  H12B20128   5.027   5.357  11.048 -2.9600 -0.4902 -0.4409
  177SLPC   C1120129   5.097   5.568  11.034  0.0486 -0.4217 -0.3169
  177SLPC  H11A20130   5.054   5.666  11.063 -2.2706 -1.2644 -0.7551
  177SLPC  H11B20131   5.078   5.548  10.927 -1.0646  0.5392 -0.3192
  177SLPC     P20132   5.332   5.463  10.962 -0.0667 -0.5865 -0.2260
  177SLPC   O1320133   5.470   5.501  10.991 -0.5197  0.4649  0.2155
  177SLPC   O1420134   5.282   5.323  10.992  0.2705 -0.1805  0.6607
  177SLPC   O1220135   5.240   5.562  11.051 -0.0421  0.2675 -0.1905
  177SLPC   O1120136   5.291   5.497  10.811 -0.6317  0.0785  0.2771
  177SLPC    C120137   5.295   5.630  10.752  0.0816 -0.0659  0.1731
  177SLPC    HA20138   5.211   5.693  10.789  1.1772  1.8610 -0.5006
  177SLPC    HB20139   5.384   5.685  10.789  0.3562 -1.6305  2.0549
  177SLPC    C220140   5.298   5.635  10.593 -0.3319 -0.7461 -0.2084
  177SLPC    HS20141   5.198   5.604  10.556 -2.2932  1.2642  2.9563
  177SLPC   O2120142   5.397   5.545  10.538  0.3519  0.1504 -0.6268
  177SLPC   C2120143   5.365   5.417  10.546 -0.2887  0.1516 -0.6744
  177SLPC   O2220144   5.256   5.370  10.559  0.1996  0.0990 -0.4316
  177SLPC   C2220145   5.490   5.321  10.541  0.5427  0.5309 -0.4386
  177SLPC   H2R20146   5.582   5.380  10.522 -0.8158  2.0672 -2.6972
  177SLPC   H2S20147   5.497   5.250  10.627  1.2069 -0.4683 -1.2792
  177SLPC    C320148   5.336   5.780  10.547 -0.2664 -0.7146  0.6912
  177SLPC    HX20149   5.442   5.794  10.578  0.3237 -0.4146 -1.2660
  177SLPC    HY20150   5.276   5.856  10.600 -0.2565 -1.3249  1.6093
  177SLPC   O3120151   5.337   5.805  10.405 -0.4172  0.0740  0.4086
  177SLPC   C3120152   5.225   5.802  10.346  0.6193 -0.1301  0.7002
  177SLPC   O3220153   5.118   5.775  10.390  0.2568  0.6947 -0.0603
  177SLPC   C3220154   5.243   5.824  10.200 -0.5675 -0.6830  0.1128
  177SLPC   H2X20155   5.270   5.727  10.153  0.4703 -1.4630  2.1837
  177SLPC   H2Y20156   5.332   5.888  10.182  0.0041 -1.8191 -1.3309
  177SLPC   C2320157   5.468   5.223  10.415 -0.4343 -1.0213 -0.0899
  177SLPC   H3R20158   5.367   5.185  10.389 -0.1623 -0.5844 -1.9869
  177SLPC   H3S20159   5.546   5.144  10.405  2.0200  1.3433 -1.0175
  177SLPC   C2420160   5.510   5.298  10.283 -0.1012  0.5064  0.1043
  177SLPC   H4R20161   5.610   5.348  10.282  0.5057 -0.6913 -0.0752
  177SLPC   H4S20162   5.437   5.382  10.278 -1.1115 -0.3227  0.5978
  177SLPC   C2520163   5.484   5.213  10.154  0.3934  0.1330 -0.4794
  177SLPC   H5R20164   5.387   5.159  10.156 -0.0951  0.9895  1.0163
  177SLPC   H5S20165   5.559   5.131  10.160  2.0087  1.4780 -1.4435
  177SLPC   C2620166   5.500   5.292  10.019 -0.0447  0.4297  0.3995
  177SLPC   H6R20167   5.605   5.323  10.002  0.5567 -0.8423  1.5649
  177SLPC   H6S20168   5.431   5.379  10.022 -0.3348  0.1909  1.0948
  177SLPC   C2720169   5.487   5.186   9.909  0.1130 -0.0929  0.1793
  177SLPC   H7R20170   5.382   5.151   9.915 -0.0923  0.7028  3.0503
  177SLPC   H7S20171   5.558   5.104   9.929  2.3056  0.7915 -3.1598
  177SLPC   C2820172   5.513   5.241   9.768 -0.6831  0.3814 -0.5725
  177SLPC   H8R20173   5.620   5.268   9.774 -0.9999  1.3130  2.2183
  177SLPC   H8S20174   5.448   5.328   9.742 -2.5699 -1.2457 -1.5883
  177SLPC   C2920175   5.496   5.143   9.651  0.3329 -0.3988  0.1849
  177SLPC   H9R20176   5.472   5.038   9.670 -3.1982  0.4261  0.9245
  177SLPC  C21020177   5.481   5.180   9.521 -0.8069  0.5204  0.3865
  177SLPC  H10R20178   5.473   5.100   9.446  0.6195 -1.0977  1.8843
  177SLPC  C21120179   5.505   5.314   9.469 -0.5717 -0.2522 -0.2396
  177SLPC  H11R20180   5.447   5.331   9.376  2.8834  3.4854 -2.0058
  177SLPC  H11S20181   5.478   5.391   9.544  1.3086 -1.7463  2.1149
  177SLPC  C21220182   5.645   5.359   9.440 -0.3551 -0.3825  0.8533
  177SLPC  H12R20183   5.680   5.437   9.510 -2.0710  2.5094 -1.2746
  177SLPC  C21320184   5.722   5.323   9.333 -0.5311 -0.3684 -0.5036
  177SLPC  H13R20185   5.825   5.359   9.322  0.0149 -1.1364  1.5718
  177SLPC  C21420186   5.673   5.233   9.226  0.4552 -0.4597  0.4704
  177SLPC  H14R20187   5.659   5.290   9.132  3.7466  0.0556  0.1898
  177SLPC  H14S20188   5.575   5.185   9.247  0.5175 -1.5587 -1.5242
  177SLPC  C21520189   5.778   5.118   9.208  0.0531  0.0652  0.5251
  177SLPC  H15R20190   5.782   5.074   9.310 -0.9411  0.9879  0.9882
  177SLPC  H15S20191   5.884   5.147   9.192 -0.2016  0.4685 -0.4761
  177SLPC  C21620192   5.742   5.010   9.106  0.3428  0.2337 -0.2055
  177SLPC  H16R20193   5.638   4.981   9.134  1.3093 -1.4837  1.9344
  177SLPC  H16S20194   5.799   4.919   9.134 -1.2307 -0.0602  2.4760
  177SLPC  C21720195   5.762   5.040   8.962  0.3681  0.4923  0.6364
  177SLPC  H17R20196   5.863   5.060   8.922  0.2683 -1.4080 -0.7564
  177SLPC  H17S20197   5.707   5.133   8.935  0.9662  0.2280 -1.7601
  177SLPC  C21820198   5.717   4.923   8.879  0.4470 -0.0893  0.2241
  177SLPC  H18R20199   5.609   4.905   8.899 -0.3875  1.6574 -2.2484
  177SLPC  H18S20200   5.761   4.823   8.900 -2.2798 -1.6703 -0.9988
  177SLPC  H18T20201   5.725   4.939   8.769  3.3754 -0.6085  0.2875
  177SLPC   C3320202   5.114   5.887  10.145  0.0826 -0.2903 -0.1602
  177SLPC   H3X20203   5.071   5.966  10.210 -4.8082 -2.3938 -0.3323
  177SLPC   H3Y20204   5.036   5.807  10.139  1.8419 -2.0447 -0.6482
  177SLPC   C3420205   5.149   5.953  10.008  0.0330 -1.0309 -0.4745
  177SLPC   H4X20206   5.244   6.009  10.007  0.7615 -2.2026 -2.0008
  177SLPC   H4Y20207   5.068   6.023   9.977 -0.2811 -1.6970 -1.1848
  177SLPC   C3520208   5.147   5.872   9.879 -0.5379  0.3372  0.7185
  177SLPC   H5X20209   5.050   5.819   9.866 -0.3539  0.2354 -0.3325
  177SLPC   H5Y20210   5.227   5.798   9.905 -0.2279  0.7036  0.8191
  177SLPC   C3620211   5.184   5.951   9.753  0.4816 -0.0670 -0.8262
  177SLPC   H6X20212   5.238   5.886   9.682  0.0048 -1.1297 -0.2347
  177SLPC   H6Y20213   5.250   6.038   9.777  2.2434 -1.4656 -0.4121
  177SLPC   C3720214   5.055   5.985   9.683 -0.0241 -0.2692  0.0768
  177SLPC   H7X20215   5.010   6.051   9.760 -0.9330 -2.3441  1.4087
  177SLPC   H7Y20216   4.985   5.899   9.680 -0.7077 -0.0771  4.5515
  177SLPC   C3820217   5.082   6.063   9.551 -0.2783 -0.7880  0.6207
  177SLPC   H8X20218   5.122   6.003   9.467 -1.8547  1.0916 -1.5905
  177SLPC   H8Y20219   5.153   6.146   9.570 -0.6822  0.2054 -1.8383
  177SLPC   C3920220   4.957   6.121   9.486 -0.3842 -0.1691 -0.0987
  177SLPC   H9X20221   4.992   6.188   9.405  0.0105  0.3247  0.4748
  177SLPC   H9Y20222   4.893   6.180   9.555 -0.7019  2.2329 -2.2823
  177SLPC  C31020223   4.858   6.018   9.430  0.7490 -0.3106 -0.0706
  177SLPC  H10X20224   4.805   5.962   9.511 -0.2589 -0.3048 -0.7073
  177SLPC  H10Y20225   4.918   5.946   9.370 -0.8293  0.2393 -2.4381
  177SLPC  C31120226   4.752   6.082   9.337  0.4938  1.0205  0.0948
  177SLPC  H11X20227   4.692   6.155   9.396  0.0559 -0.7693  1.9589
  177SLPC  H11Y20228   4.676   6.005   9.314  0.0567  0.6770  2.4925
  177SLPC  C31220229   4.811   6.136   9.208  0.8700  0.4272 -0.8710
  177SLPC  H12X20230   4.880   6.220   9.232 -0.6331  1.1025  1.4603
  177SLPC  H12Y20231   4.728   6.186   9.153  1.1262 -0.6723 -2.2946
  177SLPC  C31320232   4.872   6.027   9.119  0.9988  0.0154  0.3390
  177SLPC  H13X20233   4.784   5.963   9.095  0.9103  0.5467 -0.7900
  177SLPC  H13Y20234   4.941   5.956   9.170 -1.2397 -1.7083  1.1682
  177SLPC  C31420235   4.939   6.076   8.988 -0.1923 -0.6506 -0.4857
  177SLPC  H14X20236   5.028   6.139   9.014 -0.3733  0.3446 -2.1313
  177SLPC  H14Y20237   4.864   6.122   8.920  0.1140 -3.1893 -2.6763
  177SLPC  C31520238   4.996   5.948   8.933 -0.7832 -0.0916 -0.6436
  177SLPC  H15X20239   4.911   5.879   8.912 -0.0972 -1.3731  0.5647
  177SLPC  H15Y20240   5.072   5.904   9.002 -1.1665 -0.0214 -0.1686
  177SLPC  C31620241   5.068   5.976   8.801  0.3298 -0.6715 -0.4252
  177SLPC  H16X20242   4.986   5.996   8.728  1.4741  0.5703 -1.4255
  177SLPC  H16Y20243   5.112   5.880   8.768 -1.0387 -1.4872  0.0574
  177SLPC  C31720244   5.177   6.081   8.784  0.2640 -0.1766 -0.6026
  177SLPC  H17X20245   5.258   6.062   8.857 -0.1825 -2.2119 -0.5847
  177SLPC  H17Y20246   5.137   6.179   8.816  1.1499  0.4241 -1.2778
  177SLPC  C31820247   5.249   6.086   8.654 -0.0483  0.4112  0.1089
  177SLPC  H18X20248   5.308   5.996   8.628 -2.7039 -1.4212  0.0948
  177SLPC  H18Y20249   5.323   6.169   8.645 -0.1100  0.5014  0.4130
  177SLPC  H18Z20250   5.173   6.085   8.574 -0.8532  1.0252  0.8441
  178SLPC     N20251   0.286   0.849  11.007 -0.1648  0.4406 -0.2637
  178SLPC   C1320252   0.161   0.778  11.012  0.3061 -1.0617  0.7354
  178SLPC  H13A20253   0.097   0.827  11.084 -1.1434  1.0323 -1.8127
  178SLPC  H13B20254   0.109   0.796  10.920  3.1381 -1.4093 -1.0453
  178SLPC  H13C20255   0.165   0.675  11.045  2.1015 -0.8894  1.1953
  178SLPC   C1420256   0.359   0.826  11.141  0.4139  0.1939  0.1969
  178SLPC  H14A20257   0.361   0.718  11.148  1.5259  0.0594 -1.5109
  178SLPC  H14B20258   0.464   0.846  11.125  0.5010 -1.6608 -2.1303
  178SLPC  H14C20259   0.309   0.863  11.229 -3.7535 -2.2325 -0.8705
  178SLPC   C1520260   0.256   0.995  10.986 -0.0872 -0.4408  0.5339
  178SLPC  H15A20261   0.202   1.031  11.072 -0.3991 -0.9825  0.5738
  178SLPC  H15B20262   0.344   1.055  10.970 -0.3550  1.0900  4.0391
  178SLPC  H15C20263   0.197   1.015  10.897  1.4825 -0.9433 -0.6576
  178SLPC   C1220264   0.368   0.795  10.887  0.1473 -0.4004 -0.7512
  178SLPC  H12A20265   0.293   0.807  10.810 -4.0890 -0.0436  3.0059
  178SLPC  H12B20266   0.394   0.691  10.898  1.1552  0.1554  3.6908
  178SLPC   C1120267   0.502   0.865  10.848 -0.1824  0.1349  0.7062
  178SLPC  H11A20268   0.488   0.970  10.814 -3.1776 -0.7071 -0.9932
  178SLPC  H11B20269   0.532   0.811  10.756  3.1088  0.8229  1.2338
  178SLPC     P20270   0.693   0.716  10.981  0.1497  0.0960 -0.1340
  178SLPC   O1320271   0.822   0.772  11.037  0.1385  0.5089 -0.1040
  178SLPC   O1420272   0.614   0.634  11.072 -0.3208 -0.0101 -0.5029
  178SLPC   O1220273   0.609   0.847  10.948 -0.4360 -0.0787  0.5410
  178SLPC   O1120274   0.714   0.649  10.843  0.1462 -0.1136 -0.3046
  178SLPC    C120275   0.842   0.621  10.793 -0.7722  0.2871 -0.0286
  178SLPC    HA20276   0.912   0.610  10.878 -0.8895  0.1633  0.0524
  178SLPC    HB20277   0.842   0.531  10.728 -0.5342  0.9603 -0.9864
  178SLPC    C220278   0.906   0.741  10.710  0.3693 -0.0023 -0.1957
  178SLPC    HS20279   0.920   0.823  10.783 -2.5750  0.6246 -0.1830
  178SLPC   O2120280   0.819   0.787  10.609 -0.3837  0.2784 -0.1395
  178SLPC   C2120281   0.861   0.888  10.539  0.1674 -0.3557  0.3919
  178SLPC   O2220282   0.957   0.966  10.554 -0.3493 -0.2712  0.0021
  178SLPC   C2220283   0.763   0.924  10.431  0.5721 -0.2101  0.0992
  178SLPC   H2R20284   0.664   0.902  10.476  0.9898 -0.9459  0.6641
  178SLPC   H2S20285   0.765   1.034  10.414 -0.4525 -0.3078 -0.7942
  178SLPC    C320286   1.047   0.699  10.660 -0.0021 -0.2601  0.1992
  178SLPC    HX20287   1.074   0.638  10.749 -0.3231  1.4662  1.5385
  178SLPC    HY20288   1.106   0.793  10.650 -0.8952  0.2550 -0.3368
  178SLPC   O3120289   1.047   0.627  10.537 -0.0284 -0.5194 -0.5801
  178SLPC   C3120290   1.150   0.547  10.520 -1.0003 -0.0518 -0.7650
  178SLPC   O3220291   1.243   0.526  10.597  0.0599 -0.2448 -0.2454
  178SLPC   C3220292   1.145   0.470  10.389 -0.0825 -0.0539  0.1193
  178SLPC   H2X20293   1.077   0.528  10.322  0.8645 -0.4990 -1.2657
  178SLPC   H2Y20294   1.100   0.374  10.423  2.0478 -0.6867  1.2652
  178SLPC   C2320295   0.770   0.858  10.293  0.5466 -0.1942  0.0938
  178SLPC   H3R20296   0.670   0.888  10.254  0.9404  4.1313  1.9131
  178SLPC   H3S20297   0.781   0.747  10.287 -1.4928 -0.5048  0.9534
  178SLPC   C2420298   0.874   0.909  10.193 -0.0829 -0.4424  0.7012
  178SLPC   H4R20299   0.976   0.886  10.230  0.2540 -0.5592 -0.2612
  178SLPC   H4S20300   0.852   1.014  10.162  0.9342  0.2398  2.1340
  178SLPC   C2520301   0.850   0.843  10.055 -0.2394 -0.0896  0.3433
  178SLPC   H5R20302   0.753   0.868  10.007  0.4960 -0.1979 -1.2860
  178SLPC   H5S20303   0.858   0.733  10.062  2.1941 -0.0954 -1.2817
  178SLPC   C2620304   0.958   0.869   9.954 -0.1976 -0.6641 -0.4791
  178SLPC   H6R20305   1.054   0.833   9.997 -0.9635 -1.4736  0.5981
  178SLPC   H6S20306   0.972   0.978   9.936 -1.6529 -0.8104 -2.9872
  178SLPC   C2720307   0.941   0.802   9.824  0.0601 -0.2527 -0.0036
  178SLPC   H7R20308   0.841   0.832   9.785 -0.4030 -1.6381  0.0554
  178SLPC   H7S20309   0.937   0.693   9.844  1.9749 -0.0417  1.9428
  178SLPC   C2820310   1.052   0.843   9.723  0.0281  0.0428 -0.4877
  178SLPC   H8R20311   1.054   0.954   9.723  2.5006  0.0603 -1.1933
  178SLPC   H8S20312   1.027   0.817   9.618 -0.8310  3.2019 -1.1690
  178SLPC   C2920313   1.189   0.790   9.760  0.4181  0.2630  0.3407
  178SLPC   H9R20314   1.191   0.731   9.852 -2.3386  1.6663  1.4174
  178SLPC  C21020315   1.294   0.805   9.681 -0.0303  0.2708  0.4385
  178SLPC  H10R20316   1.390   0.753   9.695 -0.2135  0.0493  0.9064
  178SLPC  C21120317   1.290   0.866   9.546  0.4934  0.5038 -0.0289
  178SLPC  H11R20318   1.274   0.975   9.555  0.8564  0.4716  1.2527
  178SLPC  H11S20319   1.200   0.825   9.494  1.5180 -2.3180  0.2131
  178SLPC  C21220320   1.417   0.845   9.461  0.4506 -0.0011 -0.0020
  178SLPC  H12R20321   1.448   0.740   9.444 -3.1106 -1.5428  1.9905
  178SLPC  C21320322   1.473   0.939   9.386  0.0815 -0.0721 -0.5109
  178SLPC  H13R20323   1.558   0.908   9.324  2.1687  3.5476  0.2274
  178SLPC  C21420324   1.444   1.085   9.374  0.2599  0.4163  0.5642
  178SLPC  H14R20325   1.520   1.139   9.435  1.0207  0.4683 -0.4144
  178SLPC  H14S20326   1.341   1.111   9.407 -0.4201 -0.2979 -0.9211
  178SLPC  C21520327   1.454   1.117   9.224  0.3561 -0.3470  0.2933
  178SLPC  H15R20328   1.399   1.207   9.189  0.7072  0.0219  0.6841
  178SLPC  H15S20329   1.411   1.036   9.160  1.7258  0.4969 -1.8137
  178SLPC  C21620330   1.599   1.141   9.191 -0.8655  0.0821 -0.2081
  178SLPC  H16R20331   1.659   1.048   9.196  3.5878  2.7173  1.2395
  178SLPC  H16S20332   1.632   1.210   9.272 -0.4790 -0.1474 -0.1663
  178SLPC  C21720333   1.615   1.192   9.053  0.2696 -0.6119 -0.0402
  178SLPC  H17R20334   1.512   1.219   9.022  0.6222  0.9948  0.1342
  178SLPC  H17S20335   1.646   1.112   8.982 -1.9769 -1.0411 -0.6146
  178SLPC  C21820336   1.708   1.314   9.042  0.2883 -0.3240 -0.0891
  178SLPC  H18R20337   1.818   1.299   9.053  0.0144 -1.3411  1.5751
  178SLPC  H18S20338   1.680   1.385   9.123  1.5956 -0.2483  0.3214
  178SLPC  H18T20339   1.688   1.373   8.950  2.4648  1.5012  0.5010
  178SLPC   C3320340   1.286   0.450  10.316  0.0602 -0.3834  0.0404
  178SLPC   H3X20341   1.254   0.386  10.230 -0.2820 -0.1277 -0.0259
  178SLPC   H3Y20342   1.346   0.380  10.377 -0.1483 -0.4439  0.1761
  178SLPC   C3420343   1.353   0.575  10.264  0.0076  0.1843 -0.0376
  178SLPC   H4X20344   1.443   0.550  10.204 -0.0146  2.9974 -1.4132
  178SLPC   H4Y20345   1.394   0.633  10.350 -0.9229 -0.2708  0.7453
  178SLPC   C3520346   1.258   0.656  10.172 -0.1753  0.7643 -0.3645
  178SLPC   H5X20347   1.167   0.686  10.229  0.6553  1.4052  0.6764
  178SLPC   H5Y20348   1.230   0.585  10.092  0.7604 -0.1684  0.1236
  178SLPC   C3620349   1.330   0.783  10.128 -0.0949  0.5698  0.1613
  178SLPC   H6X20350   1.385   0.812  10.220  0.0670 -0.6136  0.4576
  178SLPC   H6Y20351   1.256   0.862  10.103 -1.6864 -0.7337  0.5998
  178SLPC   C3720352   1.445   0.751  10.028 -0.6112  0.0073 -0.3371
  178SLPC   H7X20353   1.406   0.683   9.949 -0.6567 -0.3515 -0.0071
  178SLPC   H7Y20354   1.525   0.688  10.073  0.1978 -0.3865 -2.2303
  178SLPC   C3820355   1.500   0.876   9.970  0.0437 -0.6570  0.3903
  178SLPC   H8X20356   1.534   0.942  10.052  1.7674 -0.9687 -0.0435
  178SLPC   H8Y20357   1.420   0.933   9.917 -0.8567 -1.5493  0.7511
  178SLPC   C3920358   1.618   0.846   9.862  0.0612  0.0002 -0.6543
  178SLPC   H9X20359   1.580   0.768   9.794  0.2477 -1.0865  0.4435
  178SLPC   H9Y20360   1.702   0.807   9.924 -0.7263 -0.2335  0.2994
  178SLPC  C31020361   1.658   0.973   9.788 -0.0629  0.1427  0.4571
  178SLPC  H10X20362   1.706   1.044   9.859  0.7826 -0.0665  0.0952
  178SLPC  H10Y20363   1.558   1.014   9.762  1.2917  2.7467 -1.0530
  178SLPC  C31120364   1.762   0.957   9.674  0.0023 -0.0686 -0.0541
  178SLPC  H11X20365   1.716   0.890   9.598  0.9469 -0.0557 -0.6478
  178SLPC  H11Y20366   1.849   0.900   9.714 -0.9243 -0.3841  1.6220
  178SLPC  C31220367   1.803   1.081   9.609 -0.6161  0.6073 -0.3916
  178SLPC  H12X20368   1.892   1.134   9.648 -0.1575 -0.7677  0.5009
  178SLPC  H12Y20369   1.718   1.150   9.629 -2.2992 -1.6113  0.5881
  178SLPC  C31320370   1.816   1.062   9.457  0.4799 -0.2349 -0.2484
  178SLPC  H13X20371   1.824   1.161   9.407 -2.2881 -0.5527 -1.5389
  178SLPC  H13Y20372   1.727   1.016   9.409  0.1992 -1.1821  1.1408
  178SLPC  C31420373   1.936   0.979   9.406 -0.5814 -0.2810 -0.0253
  178SLPC  H14X20374   1.937   0.888   9.470 -0.6521 -0.4250 -0.2256
  178SLPC  H14Y20375   2.028   1.034   9.436 -0.5794 -0.7969  0.9567
  178SLPC  C31520376   1.935   0.958   9.253  1.0075  0.0173  0.2807
  178SLPC  H15X20377   1.857   0.881   9.233  1.2638 -0.2918  0.4707
  178SLPC  H15Y20378   1.905   1.052   9.202 -0.7236 -1.2175 -1.0971
  178SLPC  C31620379   2.067   0.903   9.196 -0.2110  0.3118  0.8215
  178SLPC  H16X20380   2.095   0.811   9.249  0.2419 -0.0888 -0.0895
  178SLPC  H16Y20381   2.150   0.971   9.224 -0.5514  0.3902  1.6721
  178SLPC  C31720382   2.074   0.880   9.042  0.4758  0.5730 -0.0757
  178SLPC  H17X20383   2.033   0.964   8.982 -0.1126  2.0864  2.3133
  178SLPC  H17Y20384   1.996   0.805   9.016  0.6945  0.3116  0.0210
  178SLPC  C31820385   2.204   0.830   8.980  0.3569  0.3301  0.1389
  178SLPC  H18X20386   2.183   0.818   8.871  1.0021  2.3438 -0.2498
  178SLPC  H18Y20387   2.229   0.733   9.028  1.6132  0.3791 -0.3930
  178SLPC  H18Z20388   2.282   0.908   8.995 -1.3128  2.0195  0.4759
  179SLPC     N20389   1.263   2.687  10.966  0.4091 -0.5328 -0.1466
  179SLPC   C1320390   1.368   2.652  10.858  0.3699 -0.0036 -0.1889
  179SLPC  H13A20391   1.307   2.647  10.769 -2.1940  0.7458  1.3954
  179SLPC  H13B20392   1.442   2.730  10.864  1.9423 -1.4768  0.3705
  179SLPC  H13C20393   1.434   2.570  10.881  1.7822  0.7212 -1.4553
  179SLPC   C1420394   1.335   2.698  11.098 -0.4798  0.3055  0.2061
  179SLPC  H14A20395   1.382   2.606  11.130  0.4013 -0.3638 -2.6709
  179SLPC  H14B20396   1.395   2.787  11.100  0.3136 -0.2233  1.2735
  179SLPC  H14C20397   1.263   2.719  11.176 -1.2501  2.1353 -0.9336
  179SLPC   C1520398   1.168   2.565  10.972 -0.4843 -0.5639  0.4082
  179SLPC  H15A20399   1.222   2.481  11.012 -1.3344 -0.1771  2.4442
  179SLPC  H15B20400   1.086   2.583  11.039 -1.5987 -0.7894 -0.8487
  179SLPC  H15C20401   1.127   2.531  10.878 -0.6030  0.3953  0.1061
  179SLPC   C1220402   1.190   2.815  10.938 -0.2464 -0.7847  0.1594
  179SLPC  H12A20403   1.261   2.897  10.938 -1.2697  0.1608 -1.3916
  179SLPC  H12B20404   1.130   2.851  11.021 -0.7338 -0.6423 -0.2511
  179SLPC   C1120405   1.111   2.826  10.811  0.7959 -0.2997 -0.3950
  179SLPC  H11A20406   1.048   2.918  10.805  1.8196  0.4311 -0.2050
  179SLPC  H11B20407   1.040   2.740  10.809  2.2997 -1.5905 -0.3617
  179SLPC     P20408   1.236   2.940  10.616 -0.6645  0.2694 -0.3459
  179SLPC   O1320409   1.283   3.034  10.716 -0.6684 -0.5271 -0.1392
  179SLPC   O1420410   1.326   2.889  10.509  0.0817  0.2902 -0.3946
  179SLPC   O1220411   1.190   2.808  10.689 -0.0051 -0.6679  0.0380
  179SLPC   O1120412   1.097   2.996  10.561  0.0737  0.1438  0.5814
  179SLPC    C120413   1.040   2.921  10.451  0.4482  0.0193 -0.4906
  179SLPC    HA20414   1.046   2.811  10.460 -2.7562 -0.1813  0.6132
  179SLPC    HB20415   0.929   2.928  10.451  0.2974 -1.7864 -1.9464
  179SLPC    C220416   1.073   2.985  10.313 -0.8270  0.0741 -0.0183
  179SLPC    HS20417   1.182   2.972  10.292 -1.0064 -0.8860 -0.4113
  179SLPC   O2120418   1.027   3.120  10.303  0.1045  0.1345 -0.1209
  179SLPC   C2120419   1.107   3.221  10.313 -0.3377 -0.8388 -0.1071
  179SLPC   O2220420   1.228   3.217  10.316 -0.5258 -0.6018 -0.0744
  179SLPC   C2220421   1.021   3.351  10.313  0.2452  0.5162  0.3810
  179SLPC   H2R20422   0.959   3.354  10.405 -2.5848 -0.0778 -1.3859
  179SLPC   H2S20423   1.085   3.442  10.306 -0.8965  1.3267  0.1868
  179SLPC    C320424   1.016   2.899  10.195 -0.0277  0.8391 -0.1848
  179SLPC    HX20425   0.907   2.893  10.215 -0.2707  1.5591 -1.2183
  179SLPC    HY20426   1.062   2.798  10.203  2.0233  1.6403 -1.0373
  179SLPC   O3120427   1.038   2.966  10.080 -0.5176 -0.0392  0.4384
  179SLPC   C3120428   1.157   2.963  10.013 -0.4447  0.6075  0.1948
  179SLPC   O3220429   1.249   2.891  10.055  0.1789  0.2769  0.6401
  179SLPC   C3220430   1.167   3.067   9.904  0.2216 -0.6499 -0.8704
  179SLPC   H2X20431   1.270   3.109   9.897  0.6116 -1.2465  0.8607
  179SLPC   H2Y20432   1.101   3.150   9.936  1.1870 -0.2549  0.1579
  179SLPC   C2320433   0.922   3.361  10.191  0.2155  0.1444 -0.0082
  179SLPC   H3R20434   0.841   3.434  10.213  2.1518  2.3421  0.1982
  179SLPC   H3S20435   0.872   3.261  10.186 -0.0507  0.2033  1.2384
  179SLPC   C2420436   0.986   3.402  10.057  0.1150 -0.3928  0.3251
  179SLPC   H4R20437   1.069   3.330  10.038 -1.8864 -2.3246 -1.8023
  179SLPC   H4S20438   1.034   3.500  10.080 -0.0141 -0.9734  3.5806
  179SLPC   C2520439   0.896   3.393   9.933 -0.2058 -0.1082 -0.7186
  179SLPC   H5R20440   0.807   3.450   9.966  0.1546 -0.4820  0.9915
  179SLPC   H5S20441   0.850   3.291   9.928 -2.0663  0.6748 -0.5439
  179SLPC   C2620442   0.946   3.454   9.805  0.2821  0.5666 -0.6308
  179SLPC   H6R20443   1.047   3.412   9.787  0.8372  2.0689 -1.1380
  179SLPC   H6S20444   0.969   3.562   9.819 -1.6674  0.9041  0.2885
  179SLPC   C2720445   0.859   3.455   9.680  0.0511  0.2446  0.3107
  179SLPC   H7R20446   0.778   3.528   9.701  0.6339  1.2635 -0.8338
  179SLPC   H7S20447   0.812   3.354   9.684 -0.3462  0.4665  1.2687
  179SLPC   C2820448   0.945   3.490   9.555  0.4544  0.1457 -0.1233
  179SLPC   H8R20449   1.011   3.401   9.549 -2.1383 -1.8357 -1.0826
  179SLPC   H8S20450   1.012   3.576   9.574  0.6169 -0.1837  0.8260
  179SLPC   C2920451   0.853   3.512   9.442 -0.9544  0.6373  0.2022
  179SLPC   H9R20452   0.789   3.598   9.468 -1.7600  0.8364 -2.2057
  179SLPC  C21020453   0.844   3.439   9.329 -0.5337  0.2835 -0.1982
  179SLPC  H10R20454   0.760   3.458   9.261 -1.6124 -0.7930  0.7860
  179SLPC  C21120455   0.917   3.313   9.292 -0.3681  0.0385 -0.1137
  179SLPC  H11R20456   0.887   3.228   9.357  0.1528  0.6460  0.9411
  179SLPC  H11S20457   1.024   3.311   9.320 -0.9648 -0.5563  2.4351
  179SLPC  C21220458   0.902   3.275   9.146 -0.5478  0.2195  0.1525
  179SLPC  H12R20459   0.849   3.179   9.135 -4.4268  2.0767  0.7058
  179SLPC  C21320460   0.934   3.350   9.043  0.7689 -0.5569 -0.4519
  179SLPC  H13R20461   0.894   3.317   8.946 -0.4174  1.1023 -0.5767
  179SLPC  C21420462   0.990   3.490   9.037 -0.2296 -0.4292  0.0759
  179SLPC  H14R20463   1.082   3.486   8.976  0.2655  2.2675  0.5187
  179SLPC  H14S20464   1.027   3.528   9.135  1.4130 -3.8071  0.9051
  179SLPC  C21520465   0.882   3.592   8.988  0.0396 -0.3594 -1.0336
  179SLPC  H15R20466   0.791   3.569   9.047 -1.0626  0.7085 -2.2495
  179SLPC  H15S20467   0.863   3.585   8.879 -0.3711  1.6339 -1.1347
  179SLPC  C21620468   0.920   3.742   8.998  0.0744  0.0320  0.1503
  179SLPC  H16R20469   1.024   3.752   8.960 -1.0477  0.7892 -2.9750
  179SLPC  H16S20470   0.923   3.779   9.103 -3.3606  0.8067  0.1008
  179SLPC  C21720471   0.827   3.833   8.919 -0.5273 -0.5452 -0.0256
  179SLPC  H17R20472   0.722   3.823   8.956 -1.4821 -1.3490 -2.6833
  179SLPC  H17S20473   0.835   3.807   8.811 -3.4999  3.4053 -1.4592
  179SLPC  C21820474   0.868   3.984   8.946  0.0444 -0.0716 -0.0696
  179SLPC  H18R20475   0.973   3.997   8.912  0.3709 -2.3061 -0.0679
  179SLPC  H18S20476   0.867   3.998   9.056  0.0152  1.6568 -0.2705
  179SLPC  H18T20477   0.791   4.047   8.897 -1.1620 -2.4192 -1.3856
  179SLPC   C3320478   1.118   3.006   9.775  0.0120  0.5686 -0.3138
  179SLPC   H3X20479   1.020   2.957   9.795 -0.1177  1.0525  0.2655
  179SLPC   H3Y20480   1.188   2.923   9.754 -1.6513 -1.5039  1.8421
  179SLPC   C3420481   1.089   3.105   9.661 -0.0015  1.0318  0.3591
  179SLPC   H4X20482   1.020   3.184   9.700 -2.4844  0.1673 -1.9636
  179SLPC   H4Y20483   1.034   3.043   9.587  1.7216  0.1970 -0.2755
  179SLPC   C3520484   1.216   3.153   9.600  0.3913 -0.2609  0.3100
  179SLPC   H5X20485   1.279   3.214   9.669  1.3536 -1.4070  0.4893
  179SLPC   H5Y20486   1.176   3.214   9.517 -0.2233  0.2548  0.9809
  179SLPC   C3620487   1.309   3.058   9.533 -0.2948 -0.8644  0.6778
  179SLPC   H6X20488   1.260   2.966   9.495 -2.7266  0.3005  0.7931
  179SLPC   H6Y20489   1.406   3.033   9.582  1.2580 -0.0005 -1.7355
  179SLPC   C3720490   1.373   3.123   9.408  0.4600  0.4888  0.2758
  179SLPC   H7X20491   1.450   3.046   9.384  0.3253 -0.2734  2.1061
  179SLPC   H7Y20492   1.426   3.212   9.449 -1.2062  1.2063  0.9822
  179SLPC   C3820493   1.281   3.152   9.293 -0.1437 -0.5830  0.7246
  179SLPC   H8X20494   1.220   3.239   9.325 -1.0282 -1.7117  2.2402
  179SLPC   H8Y20495   1.213   3.065   9.283  0.7991 -1.1605 -1.2248
  179SLPC   C3920496   1.350   3.164   9.158 -0.2387  0.2938 -0.0527
  179SLPC   H9X20497   1.391   3.063   9.137  1.1392  1.1232 -1.7115
  179SLPC   H9Y20498   1.438   3.233   9.161 -0.1558  0.1720  0.2649
  179SLPC  C31020499   1.267   3.211   9.040 -0.2800  0.1498  0.1614
  179SLPC  H10X20500   1.220   3.310   9.061 -1.1395 -0.1563 -0.2659
  179SLPC  H10Y20501   1.185   3.140   9.015  0.0690  0.7488 -3.1749
  179SLPC  C31120502   1.340   3.238   8.905  0.4811 -0.2264 -0.5513
  179SLPC  H11X20503   1.377   3.341   8.925 -0.1218 -0.0113 -0.5072
  179SLPC  H11Y20504   1.267   3.245   8.821 -1.2313  0.0030  0.8912
  179SLPC  C31220505   1.455   3.139   8.868 -0.8952 -0.3441  0.0331
  179SLPC  H12X20506   1.423   3.038   8.902  1.1116 -0.8810  0.4457
  179SLPC  H12Y20507   1.540   3.155   8.937  0.5853 -1.5057 -1.4316
  179SLPC  C31320508   1.507   3.151   8.727 -0.7953  0.2334  0.8705
  179SLPC  H13X20509   1.554   3.247   8.698 -0.7259 -0.3578 -1.1230
  179SLPC  H13Y20510   1.425   3.131   8.655  0.0906 -2.3329  0.4816
  179SLPC  C31420511   1.606   3.040   8.695  0.3079  0.1526  0.5298
  179SLPC  H14X20512   1.687   3.038   8.771  0.5051  0.8423  0.3438
  179SLPC  H14Y20513   1.659   3.059   8.600 -3.1717  2.8190 -1.1131
  179SLPC  C31520514   1.531   2.905   8.673 -0.2389  0.7311 -0.0949
  179SLPC  H15X20515   1.480   2.893   8.576  0.5065 -1.7555 -0.2561
  179SLPC  H15Y20516   1.454   2.903   8.753 -0.4204  1.4351 -0.2471
  179SLPC  C31620517   1.617   2.782   8.688  0.6234  0.6012 -0.0995
  179SLPC  H16X20518   1.677   2.791   8.781  1.4431 -0.0328 -0.5486
  179SLPC  H16Y20519   1.693   2.791   8.608 -1.9777  5.0763 -2.4702
  179SLPC  C31720520   1.540   2.651   8.674 -0.1108 -0.1745  0.3561
  179SLPC  H17X20521   1.487   2.655   8.576 -1.1893 -0.5570  0.9228
  179SLPC  H17Y20522   1.464   2.659   8.754 -0.7089 -0.6224 -0.1563
  179SLPC  C31820523   1.638   2.531   8.683 -0.2482  0.1316  0.3509
  179SLPC  H18X20524   1.698   2.520   8.590  2.0946 -2.7597  2.0332
  179SLPC  H18Y20525   1.584   2.435   8.695 -1.2562  0.3583 -1.7806
  179SLPC  H18Z20526   1.716   2.552   8.759  0.2613 -0.0165 -0.1199
  180SLPC     N20527   2.632   3.303  11.203 -0.5734 -0.0233 -0.7272
  180SLPC   C1320528   2.578   3.409  11.292 -0.1047  0.0341  1.1115
  180SLPC  H13A20529   2.641   3.440  11.374  0.3442  0.0949  0.7453
  180SLPC  H13B20530   2.577   3.505  11.243  1.5476 -0.8144 -0.7445
  180SLPC  H13C20531   2.477   3.388  11.325 -0.0520  0.2279  1.4028
  180SLPC   C1420532   2.614   3.175  11.276  0.2629 -0.8363 -0.1838
  180SLPC  H14A20533   2.663   3.178  11.373 -0.6670  1.9415  0.2924
  180SLPC  H14B20534   2.510   3.150  11.285 -0.3215  1.8461  2.0652
  180SLPC  H14C20535   2.653   3.100  11.209  1.5068  0.1075 -0.5572
  180SLPC   C1520536   2.777   3.334  11.193  0.0438 -0.0043  0.3734
  180SLPC  H15A20537   2.825   3.329  11.290  1.3606 -0.2790 -0.2778
  180SLPC  H15B20538   2.822   3.269  11.119 -2.8611 -2.1298  0.2789
  180SLPC  H15C20539   2.785   3.437  11.163  3.8981 -0.6251 -1.3529
  180SLPC   C1220540   2.555   3.289  11.073  0.5080  1.0780  0.0913
  180SLPC  H12A20541   2.576   3.375  11.012 -1.2830  1.5447  0.0554
  180SLPC  H12B20542   2.447   3.285  11.086  0.0622 -1.3370 -3.2421
  180SLPC   C1120543   2.577   3.158  10.979 -0.2396  0.7082  0.0861
  180SLPC  H11A20544   2.525   3.180  10.883 -0.3127 -1.6258 -0.4589
  180SLPC  H11B20545   2.523   3.073  11.024  1.4207 -0.2750  0.3024
  180SLPC     P20546   2.796   3.158  10.841  0.1742 -0.1058 -0.1641
  180SLPC   O1320547   2.805   3.305  10.833  0.1982  0.1318  0.2659
  180SLPC   O1420548   2.926   3.085  10.837  0.0889  0.1668  0.5462
  180SLPC   O1220549   2.712   3.123  10.966  0.0791 -0.4034  0.4403
  180SLPC   O1120550   2.701   3.107  10.723 -0.0010 -0.5186  0.5920
  180SLPC    C120551   2.655   2.975  10.725  0.7945 -0.1671 -0.1307
  180SLPC    HA20552   2.698   2.917  10.810  0.7317 -1.1080 -0.7262
  180SLPC    HB20553   2.546   2.974  10.745  0.4272 -1.4180 -1.9490
  180SLPC    C220554   2.696   2.891  10.600 -0.0007 -0.1020  0.2508
  180SLPC    HS20555   2.679   2.787  10.638 -2.5988  0.0434 -0.3391
  180SLPC   O2120556   2.829   2.907  10.551 -0.1907 -0.8541 -0.2402
  180SLPC   C2120557   2.923   2.837  10.612  0.0887 -0.3616 -0.0884
  180SLPC   O2220558   2.900   2.760  10.707 -0.1730 -0.9433  0.2029
  180SLPC   C2220559   3.058   2.881  10.568 -1.1687 -0.3281  0.7387
  180SLPC   H2R20560   3.049   2.986  10.532 -1.2893  0.2465  2.3914
  180SLPC   H2S20561   3.123   2.882  10.658 -0.2908  0.3109  0.1256
  180SLPC    C320562   2.601   2.911  10.482  0.0552  0.3895  0.5418
  180SLPC    HX20563   2.627   3.012  10.442 -0.7489  0.5934  0.5048
  180SLPC    HY20564   2.498   2.909  10.523 -0.3431 -0.0329 -0.4578
  180SLPC   O3120565   2.622   2.814  10.377  0.0603 -0.3460  0.2069
  180SLPC   C3120566   2.517   2.732  10.339 -0.1143  0.0095  0.0009
  180SLPC   O3220567   2.413   2.725  10.399 -0.8836  0.8318  0.1411
  180SLPC   C3220568   2.549   2.676  10.207 -0.6339 -0.3222  0.4314
  180SLPC   H2X20569   2.455   2.634  10.165  0.2401 -2.5206  0.5552
  180SLPC   H2Y20570   2.620   2.590  10.218 -0.6327 -0.4163 -0.2663
  180SLPC   C2320571   3.115   2.797  10.452 -0.7172  0.5937  0.0131
  180SLPC   H3R20572   3.038   2.779  10.375 -0.3211 -0.1206 -0.2266
  180SLPC   H3S20573   3.141   2.696  10.492  1.6126  0.5988 -1.3231
  180SLPC   C2420574   3.244   2.865  10.398  0.3651  0.3443 -0.3437
  180SLPC   H4R20575   3.314   2.884  10.482 -0.9226 -0.5087  0.9770
  180SLPC   H4S20576   3.214   2.963  10.356 -0.8437 -0.8876 -2.5528
  180SLPC   C2520577   3.317   2.791  10.287  0.3423  0.3219  0.0232
  180SLPC   H5R20578   3.346   2.689  10.319  0.7235  0.5304  0.3548
  180SLPC   H5S20579   3.412   2.848  10.277  0.7733  0.2078  2.7459
  180SLPC   C2620580   3.242   2.803  10.153  0.2217  0.0819 -0.1627
  180SLPC   H6R20581   3.214   2.909  10.137  1.1495  0.1810 -1.2229
  180SLPC   H6S20582   3.156   2.735  10.167  1.1034 -0.9000  0.6877
  180SLPC   C2720583   3.319   2.752  10.033  0.0116 -0.2538  0.1371
  180SLPC   H7R20584   3.331   2.641  10.033 -2.3561 -0.5781 -0.2571
  180SLPC   H7S20585   3.418   2.798  10.048 -0.1659  0.7000 -1.4262
  180SLPC   C2820586   3.247   2.798   9.900 -0.2043  0.3747 -0.7254
  180SLPC   H8R20587   3.138   2.781   9.912 -0.5353  2.1347 -0.9057
  180SLPC   H8S20588   3.294   2.739   9.818 -2.1223 -0.3399 -1.3620
  180SLPC   C2920589   3.278   2.942   9.859  0.1257 -0.1793  0.0460
  180SLPC   H9R20590   3.284   3.011   9.945 -2.4665 -0.9294  0.9391
  180SLPC  C21020591   3.289   2.984   9.730 -0.1290 -1.0953 -0.3745
  180SLPC  H10R20592   3.324   3.087   9.714 -0.8367 -1.0052 -1.4200
  180SLPC  C21120593   3.270   2.914   9.606  0.2748 -1.3232 -0.0112
  180SLPC  H11R20594   3.235   2.815   9.641 -2.2524  0.2466  2.3548
  180SLPC  H11S20595   3.365   2.907   9.549 -0.9009 -0.7336 -2.1711
  180SLPC  C21220596   3.182   3.000   9.515 -0.2577  0.1589  0.2481
  180SLPC  H12R20597   3.107   3.052   9.577  2.6363  4.2841  0.7454
  180SLPC  C21320598   3.177   3.015   9.384 -0.0272 -0.2734 -0.3324
  180SLPC  H13R20599   3.098   3.075   9.337  1.9778  1.9075 -1.0607
  180SLPC  C21420600   3.275   2.949   9.285 -0.0325  0.7273  0.0140
  180SLPC  H14R20601   3.244   2.846   9.258 -0.8224  0.6283  1.2432
  180SLPC  H14S20602   3.376   2.946   9.331 -0.8429 -0.6277  1.7883
  180SLPC  C21520603   3.299   3.024   9.146  0.7717 -0.0699 -0.3612
  180SLPC  H15R20604   3.201   3.050   9.101  1.2808 -0.1944 -1.5812
  180SLPC  H15S20605   3.349   2.945   9.086 -0.4175 -0.3209 -1.0367
  180SLPC  C21620606   3.389   3.149   9.168  0.0914 -0.6977 -0.4873
  180SLPC  H16R20607   3.338   3.210   9.246 -1.5009  0.6095 -2.4185
  180SLPC  H16S20608   3.383   3.210   9.075  2.6493 -1.0024 -0.9173
  180SLPC  C21720609   3.535   3.131   9.202  0.5446  0.2496 -0.7002
  180SLPC  H17R20610   3.554   3.061   9.288 -0.8396 -0.8707 -1.2725
  180SLPC  H17S20611   3.572   3.229   9.238 -0.2542 -0.5387  2.6959
  180SLPC  C21820612   3.619   3.089   9.082 -0.2188 -0.0745 -0.0463
  180SLPC  H18R20613   3.600   2.981   9.070 -2.3732 -0.0591  2.5054
  180SLPC  H18S20614   3.727   3.111   9.093 -0.7315  1.5616  2.5118
  180SLPC  H18T20615   3.573   3.129   8.989 -2.5937 -0.7422  0.7739
  180SLPC   C3320616   2.622   2.768  10.098  0.3378  0.4057  0.0122
  180SLPC   H3X20617   2.722   2.792  10.142  0.1245 -0.4963  1.0267
  180SLPC   H3Y20618   2.562   2.859  10.079 -1.2156 -1.0644 -2.7359
  180SLPC   C3420619   2.627   2.707   9.956  0.3878  0.3094 -0.2908
  180SLPC   H4X20620   2.522   2.688   9.923  0.5246  0.5182 -0.8482
  180SLPC   H4Y20621   2.683   2.612   9.972  1.0356  0.8926  1.0744
  180SLPC   C3520622   2.693   2.796   9.853  0.6153 -0.7377  0.9476
  180SLPC   H5X20623   2.799   2.802   9.888  0.6176 -0.3903  0.8812
  180SLPC   H5Y20624   2.646   2.896   9.842  2.6110  0.0585 -1.5098
  180SLPC   C3620625   2.689   2.744   9.710  0.3038  0.2927 -0.2112
  180SLPC   H6X20626   2.588   2.716   9.674  0.4415  0.9418 -1.1098
  180SLPC   H6Y20627   2.753   2.652   9.711 -0.9953 -0.6663  1.7317
  180SLPC   C3720628   2.757   2.837   9.602 -0.4082  0.3841  0.1897
  180SLPC   H7X20629   2.865   2.851   9.627 -0.7391  0.6246  1.5423
  180SLPC   H7Y20630   2.711   2.937   9.611 -0.4459  0.5646 -1.5991
  180SLPC   C3820631   2.752   2.789   9.459  1.2123  0.5537  0.5754
  180SLPC   H8X20632   2.650   2.808   9.421  0.0195 -3.3066  1.3800
  180SLPC   H8Y20633   2.764   2.678   9.461  0.4748  0.4114 -1.1838
  180SLPC   C3920634   2.858   2.833   9.365 -0.2926  0.3055  1.1108
  180SLPC   H9X20635   2.961   2.820   9.405  1.4372  1.4126 -2.5493
  180SLPC   H9Y20636   2.839   2.941   9.347 -0.0784  0.2023  0.2443
  180SLPC  C31020637   2.836   2.766   9.227  0.1897 -0.4489  0.1032
  180SLPC  H10X20638   2.728   2.740   9.221 -0.4194  1.4453  1.6224
  180SLPC  H10Y20639   2.893   2.671   9.232  2.3030  0.5197 -2.7453
  180SLPC  C31120640   2.884   2.855   9.116  0.4597 -0.9667 -0.3742
  180SLPC  H11X20641   2.990   2.885   9.124  0.1524 -0.0424  0.3618
  180SLPC  H11Y20642   2.834   2.954   9.116  0.8221 -0.7812 -0.1855
  180SLPC  C31220643   2.870   2.792   8.984  0.0618 -0.3817 -0.1919
  180SLPC  H12X20644   2.764   2.784   8.951  0.3104 -3.5633 -0.6005
  180SLPC  H12Y20645   2.900   2.686   9.003  0.9760 -0.6163 -2.5650
  180SLPC  C31320646   2.955   2.851   8.876 -0.6124 -1.2958  0.3891
  180SLPC  H13X20647   2.944   2.799   8.779  0.8275 -1.1443  0.1235
  180SLPC  H13Y20648   3.062   2.854   8.906 -0.9436 -0.0278  1.6138
  180SLPC  C31420649   2.919   2.996   8.844  0.1313  0.4000 -0.2466
  180SLPC  H14X20650   2.949   3.062   8.928 -0.3105  0.4131 -0.0975
  180SLPC  H14Y20651   2.811   3.015   8.829  0.0108  1.3409  1.5011
  180SLPC  C31520652   2.995   3.048   8.718 -0.2137 -0.1437 -0.5447
  180SLPC  H15X20653   2.950   3.148   8.702 -0.7438 -0.1934  0.5421
  180SLPC  H15Y20654   2.962   2.988   8.631  0.6491 -0.1590 -0.8726
  180SLPC  C31620655   3.148   3.069   8.734  0.0296  0.0907 -0.2849
  180SLPC  H16X20656   3.183   2.965   8.756 -1.0117  0.0454  1.2710
  180SLPC  H16Y20657   3.164   3.136   8.821 -0.8714 -2.3469  1.8906
  180SLPC  C31720658   3.218   3.116   8.609  0.2470 -1.0018  0.7374
  180SLPC  H17X20659   3.183   3.215   8.574  0.0416 -0.6618  1.8701
  180SLPC  H17Y20660   3.188   3.047   8.527 -1.0965  2.1099 -1.5740
  180SLPC  C31820661   3.375   3.113   8.613  0.5676 -0.2992 -0.1280
  180SLPC  H18X20662   3.412   3.212   8.646 -1.0831  0.3474 -0.1486
  180SLPC  H18Y20663   3.419   3.096   8.513 -0.4119  0.8373 -0.7733
  180SLPC  H18Z20664   3.416   3.038   8.685  1.5305 -0.0117 -0.3706
  181SLPC     N20665   5.989   6.662  11.289  0.5112  1.0864  0.1598
  181SLPC   C1320666   6.082   6.552  11.329  0.2278 -0.4965  0.5035
  181SLPC  H13A20667   6.173   6.549  11.270  0.1293  0.4821  0.2865
  181SLPC  H13B20668   6.124   6.558  11.428  2.2559 -1.0061 -0.2809
  181SLPC  H13C20669   6.035   6.455  11.322 -0.3929 -0.0963 -2.3655
  181SLPC   C1420670   5.982   6.675  11.138  0.0385  0.7639 -0.3364
  181SLPC  H14A20671   5.927   6.762  11.104 -0.1688 -0.1127 -2.3751
  181SLPC  H14B20672   6.080   6.684  11.094  1.7874 -0.7194  2.8933
  181SLPC  H14C20673   5.930   6.590  11.096  0.9716 -0.9257  1.7221
  181SLPC   C1520674   6.046   6.787  11.349 -0.0794  0.3127  0.1573
  181SLPC  H15A20675   6.133   6.812  11.291  0.0808 -3.0085 -1.2276
  181SLPC  H15B20676   5.971   6.865  11.349  0.6080  1.0077  1.1127
  181SLPC  H15C20677   6.072   6.784  11.454  1.6729  1.7635 -0.1972
  181SLPC   C1220678   5.843   6.641  11.348 -0.9429 -0.1481  0.2123
  181SLPC  H12A20679   5.794   6.737  11.344 -0.6304  0.1540  2.3382
  181SLPC  H12B20680   5.854   6.628  11.455  1.9260 -2.6272 -0.2415
  181SLPC   C1120681   5.752   6.531  11.291  0.5191  0.2160 -0.7346
  181SLPC  H11A20682   5.739   6.543  11.182  0.1315 -0.9573 -0.8323
  181SLPC  H11B20683   5.649   6.541  11.332  0.9403 -0.5335  0.5918
  181SLPC     P20684   5.730   6.268  11.333 -0.4015 -0.2293  0.1276
  181SLPC   O1320685   5.836   6.173  11.366  0.2771  0.1327 -0.4758
  181SLPC   O1420686   5.620   6.291  11.425 -0.3276  0.5895  0.0109
  181SLPC   O1220687   5.812   6.403  11.307 -0.1403 -0.3350  0.0025
  181SLPC   O1120688   5.670   6.239  11.191  0.3927  0.1750 -0.3099
  181SLPC    C120689   5.763   6.201  11.086  0.6160 -0.0834 -0.7097
  181SLPC    HA20690   5.851   6.268  11.078  2.0563 -1.7927  0.0480
  181SLPC    HB20691   5.800   6.100  11.114  0.0821  0.1198  0.8258
  181SLPC    C220692   5.701   6.202  10.936 -0.8229 -0.1453  0.2988
  181SLPC    HS20693   5.782   6.220  10.861 -0.9945  0.1385  0.1791
  181SLPC   O2120694   5.603   6.307  10.935  0.1983 -0.5116 -0.5796
  181SLPC   C2120695   5.657   6.423  10.926 -0.4017 -0.7321 -0.0997
  181SLPC   O2220696   5.778   6.444  10.920  0.4819 -0.2127 -0.5062
  181SLPC   C2220697   5.551   6.535  10.953  0.1255  0.2723 -0.4313
  181SLPC   H2R20698   5.542   6.536  11.064  0.5374 -2.5817 -0.2964
  181SLPC   H2S20699   5.586   6.632  10.913 -1.0086  0.6968 -0.4260
  181SLPC    C320700   5.634   6.058  10.897  0.4507 -0.1257 -0.1311
  181SLPC    HX20701   5.556   6.035  10.973 -1.1074  0.0791 -1.5964
  181SLPC    HY20702   5.714   5.983  10.910 -0.0058 -0.8772 -1.4650
  181SLPC   O3120703   5.594   6.049  10.754 -0.2045  0.0222 -0.4515
  181SLPC   C3120704   5.469   6.063  10.735 -0.4456  0.3247 -0.2996
  181SLPC   O3220705   5.374   6.046  10.809  0.0692 -0.8224 -0.2407
  181SLPC   C3220706   5.452   6.076  10.584 -0.2564  0.0006 -0.0646
  181SLPC   H2X20707   5.484   5.979  10.540 -0.4134 -0.1055  0.0529
  181SLPC   H2Y20708   5.522   6.153  10.545 -0.2673 -0.2940 -0.6778
  181SLPC   C2320709   5.416   6.513  10.878 -0.0522 -0.6364  0.1363
  181SLPC   H3R20710   5.343   6.589  10.914  2.7289  1.8751  0.9237
  181SLPC   H3S20711   5.386   6.412  10.912  0.4340 -0.6596  0.5189
  181SLPC   C2420712   5.426   6.518  10.725 -0.3473  0.0977 -0.2868
  181SLPC   H4R20713   5.482   6.428  10.693  1.0129  0.4964  0.8720
  181SLPC   H4S20714   5.468   6.618  10.702  0.6761 -0.1974  0.2161
  181SLPC   C2520715   5.282   6.514  10.661 -0.3339 -0.1571 -0.1783
  181SLPC   H5R20716   5.225   6.428  10.703  2.1382 -3.5957 -3.2529
  181SLPC   H5S20717   5.302   6.485  10.556 -1.1273 -0.4372 -0.2595
  181SLPC   C2620718   5.213   6.648  10.657  0.7000 -0.0203  0.5419
  181SLPC   H6R20719   5.288   6.730  10.655  1.4489 -0.6828  0.9612
  181SLPC   H6S20720   5.166   6.665  10.756  1.7930  0.5260  0.9807
  181SLPC   C2720721   5.099   6.657  10.551  0.5632  0.4105 -0.0912
  181SLPC   H7R20722   5.019   6.582  10.562 -1.2945  2.3583  0.3215
  181SLPC   H7S20723   5.151   6.636  10.456 -1.3158 -1.2979 -0.8008
  181SLPC   C2820724   5.021   6.790  10.547  0.6671  0.2074  1.0579
  181SLPC   H8R20725   5.094   6.869  10.516  2.2158 -1.7094 -0.4527
  181SLPC   H8S20726   4.969   6.817  10.641 -0.9653  0.5058  0.0995
  181SLPC   C2920727   4.923   6.793  10.426  0.0432  0.2380 -0.7619
  181SLPC   H9R20728   4.946   6.723  10.345  0.7431 -1.5459  0.9208
  181SLPC  C21020729   4.812   6.874  10.422 -0.5367  0.2826  0.0555
  181SLPC  H10R20730   4.745   6.858  10.336  1.7858 -1.2556 -1.6158
  181SLPC  C21120731   4.764   6.967  10.533  0.3211  0.0647 -0.3236
  181SLPC  H11R20732   4.840   6.988  10.611 -0.1167  3.4159 -0.6497
  181SLPC  H11S20733   4.689   6.906  10.589  0.4631 -0.7851 -1.0322
  181SLPC  C21220734   4.702   7.089  10.473 -0.4722  0.5943  0.1725
  181SLPC  H12R20735   4.780   7.162  10.447  2.0545 -2.0672 -0.3431
  181SLPC  C21320736   4.576   7.107  10.432 -0.1107  0.0175 -0.2707
  181SLPC  H13R20737   4.547   7.205  10.391 -0.3473  0.2602  0.4525
  181SLPC  C21420738   4.466   7.008  10.430  0.1780  0.1041 -0.1519
  181SLPC  H14R20739   4.384   7.045  10.495  0.6570  0.4082  0.2741
  181SLPC  H14S20740   4.491   6.909  10.475  1.5112  0.3261 -0.3651
  181SLPC  C21520741   4.415   6.995  10.286  0.0676  0.3121  0.5692
  181SLPC  H15R20742   4.368   7.092  10.259 -4.1251 -1.5109  0.5099
  181SLPC  H15S20743   4.340   6.913  10.290  0.1634  0.2349  0.7505
  181SLPC  C21620744   4.522   6.960  10.178 -0.2705  0.7707 -0.2125
  181SLPC  H16R20745   4.555   6.861  10.215 -0.3967  0.2937 -1.3477
  181SLPC  H16S20746   4.611   7.027  10.184  1.1183 -1.0493  0.4580
  181SLPC  C21720747   4.472   6.950  10.034  0.2063  0.5784  0.6982
  181SLPC  H17R20748   4.432   7.051  10.008 -1.9742 -0.5625 -0.7421
  181SLPC  H17S20749   4.376   6.895  10.035  0.9028 -0.6618  0.8119
  181SLPC  C21820750   4.568   6.896   9.932 -1.0911 -0.6575  0.0250
  181SLPC  H18R20751   4.519   6.901   9.833 -1.5534  1.7747  0.3251
  181SLPC  H18S20752   4.612   6.796   9.953  1.5855  0.9723  3.2172
  181SLPC  H18T20753   4.651   6.970   9.926 -0.8068 -0.9031  0.8055
  181SLPC   C3320754   5.310   6.131  10.548 -0.7929  0.0369  0.2834
  181SLPC   H3X20755   5.284   6.217  10.613 -2.3829 -0.7708  0.7806
  181SLPC   H3Y20756   5.235   6.058  10.586  0.5534 -0.3310  2.3296
  181SLPC   C3420757   5.296   6.170  10.399 -0.3095 -0.0083 -0.2577
  181SLPC   H4X20758   5.277   6.078  10.338 -0.1065  1.4648 -2.6837
  181SLPC   H4Y20759   5.387   6.225  10.365 -1.2099  1.3746 -0.5045
  181SLPC   C3520760   5.164   6.234  10.371  0.0436  0.5436 -0.9171
  181SLPC   H5X20761   5.155   6.331  10.425 -1.4791  0.1809 -0.4806
  181SLPC   H5Y20762   5.094   6.155  10.406  3.0397 -2.0150 -0.2322
  181SLPC   C3620763   5.141   6.266  10.222  0.0775 -0.5774 -0.7448
  181SLPC   H6X20764   5.151   6.180  10.152 -1.0411 -0.9075 -0.5204
  181SLPC   H6Y20765   5.199   6.353  10.184  0.4977  0.0049  1.1220
  181SLPC   C3720766   4.995   6.317  10.209 -0.0421 -0.9856  0.5898
  181SLPC   H7X20767   4.966   6.370  10.302 -2.3958 -0.9721 -0.0901
  181SLPC   H7Y20768   4.930   6.227  10.216  0.7248 -1.3924  3.6415
  181SLPC   C3820769   4.966   6.404  10.094 -0.0274  0.3827 -0.6177
  181SLPC   H8X20770   5.007   6.355  10.003 -0.0136 -0.2704 -0.2607
  181SLPC   H8Y20771   5.020   6.499  10.116  3.4397 -0.8141 -3.1543
  181SLPC   C3920772   4.820   6.435  10.075 -0.9473 -0.0430  0.4306
  181SLPC   H9X20773   4.779   6.481  10.167  1.7030 -0.3136  1.8319
  181SLPC   H9Y20774   4.779   6.333  10.055 -0.2817 -0.1663 -0.3617
  181SLPC  C31020775   4.791   6.523   9.947 -0.5082  0.6857 -0.2901
  181SLPC  H10X20776   4.828   6.627   9.957  0.3747  0.3021  0.7502
  181SLPC  H10Y20777   4.683   6.534   9.925 -0.9774  0.5204  1.6902
  181SLPC  C31120778   4.844   6.449   9.822  0.4776  0.2740  0.1868
  181SLPC  H11X20779   4.801   6.346   9.822  0.3409  0.3312  0.2746
  181SLPC  H11Y20780   4.954   6.443   9.834  0.4711  0.4101  0.3184
  181SLPC  C31220781   4.809   6.522   9.692  0.0793  0.2838  0.0871
  181SLPC  H12X20782   4.806   6.631   9.713 -1.9867  0.1826  0.5372
  181SLPC  H12Y20783   4.713   6.483   9.650  0.4695  1.1260 -1.6865
  181SLPC  C31320784   4.921   6.494   9.584 -0.0175  0.1857  0.2758
  181SLPC  H13X20785   4.953   6.388   9.579  2.0490  0.8110 -0.5234
  181SLPC  H13Y20786   5.011   6.559   9.591  0.9807 -0.2585 -4.7883
  181SLPC  C31420787   4.856   6.528   9.449  0.4043 -0.2039 -0.2504
  181SLPC  H14X20788   4.811   6.629   9.443  0.7867 -0.1168 -2.0023
  181SLPC  H14Y20789   4.775   6.452   9.438  0.6676 -0.5418  0.1197
  181SLPC  C31520790   4.951   6.506   9.333  0.2149 -0.3080 -0.1111
  181SLPC  H15X20791   4.914   6.449   9.246 -1.1874 -0.8220  0.7886
  181SLPC  H15Y20792   5.031   6.438   9.369 -0.5405 -0.1537  2.0135
  181SLPC  C31620793   5.025   6.636   9.298 -1.5566  0.1847 -0.1348
  181SLPC  H16X20794   5.084   6.665   9.387  0.9856 -0.7638 -1.4307
  181SLPC  H16Y20795   4.955   6.721   9.286 -0.7345  0.8110 -0.5221
  181SLPC  C31720796   5.124   6.628   9.174  0.0102 -0.2786  0.6552
  181SLPC  H17X20797   5.174   6.529   9.165 -0.5114 -0.3824 -2.4428
  181SLPC  H17Y20798   5.201   6.708   9.180 -1.4094  1.0923  1.5130
  181SLPC  C31820799   5.055   6.639   9.033  0.1864  0.4467 -0.8526
  181SLPC  H18X20800   4.985   6.725   9.024 -0.9047 -0.3675 -0.5006
  181SLPC  H18Y20801   5.005   6.543   9.008 -0.2454  0.5487 -0.4001
  181SLPC  H18Z20802   5.135   6.642   8.956  0.8657  0.5449 -0.1559
  182SLPC     N20803   3.634   1.100  11.381 -0.0898 -0.1429  0.1075
  182SLPC   C1320804   3.648   1.254  11.356  0.2079  0.6126 -0.0481
  182SLPC  H13A20805   3.550   1.298  11.344  0.7391  1.5512 -1.1228
  182SLPC  H13B20806   3.667   1.297  11.453 -0.8198  1.7733 -0.3299
  182SLPC  H13C20807   3.713   1.291  11.278 -0.3427  1.7963  0.0351
  182SLPC   C1420808   3.553   1.072  11.508 -0.3522 -0.4364 -0.0210
  182SLPC  H14A20809   3.459   1.125  11.513 -0.1242  0.1728 -1.5355
  182SLPC  H14B20810   3.542   0.964  11.511 -1.3949 -0.3198  1.8307
  182SLPC  H14C20811   3.610   1.104  11.594 -0.3231  1.7092 -0.7793
  182SLPC   C1520812   3.769   1.045  11.397  0.8125 -0.0437 -0.0210
  182SLPC  H15A20813   3.834   1.097  11.466  2.1669 -0.0897 -1.2091
  182SLPC  H15B20814   3.763   0.940  11.423 -1.2022 -0.1318 -0.6874
  182SLPC  H15C20815   3.817   1.042  11.301  0.4555 -3.4389 -0.2214
  182SLPC   C1220816   3.562   1.036  11.257  0.1602  0.4400 -0.0783
  182SLPC  H12A20817   3.463   1.077  11.248 -0.5676 -0.9266  1.2662
  182SLPC  H12B20818   3.545   0.935  11.294  2.4250 -0.2867 -0.8478
  182SLPC   C1120819   3.624   1.040  11.119  0.1176  0.4276 -0.7515
  182SLPC  H11A20820   3.559   0.990  11.044 -1.3328 -1.0741  1.3656
  182SLPC  H11B20821   3.715   0.976  11.122 -0.5378 -0.5543 -1.1681
  182SLPC     P20822   3.534   1.266  11.022 -0.1408 -0.0180 -0.2343
  182SLPC   O1320823   3.404   1.198  11.035 -0.4503  0.1951  0.0373
  182SLPC   O1420824   3.550   1.396  11.094  0.1502  0.0497 -0.1937
  182SLPC   O1220825   3.651   1.169  11.067  0.0640 -0.6473  0.0660
  182SLPC   O1120826   3.568   1.293  10.874 -0.0166  0.1333 -0.3961
  182SLPC    C120827   3.698   1.330  10.823  0.4112 -0.0135 -0.2360
  182SLPC    HA20828   3.685   1.416  10.753 -2.4583 -0.9223 -0.9549
  182SLPC    HB20829   3.772   1.361  10.900 -1.0499  0.9687  0.8376
  182SLPC    C220830   3.763   1.216  10.741 -0.0003 -0.6329  0.2672
  182SLPC    HS20831   3.866   1.244  10.709 -0.7928  0.2162 -1.7015
  182SLPC   O2120832   3.678   1.190  10.624 -0.4405  0.8427  0.2407
  182SLPC   C2120833   3.701   1.268  10.525 -0.3461 -0.4172 -0.7867
  182SLPC   O2220834   3.773   1.369  10.538  0.0227 -0.1607 -0.1615
  182SLPC   C2220835   3.616   1.231  10.399 -0.0031  0.2457  0.3549
  182SLPC   H2R20836   3.610   1.120  10.405 -0.9174  0.2986  0.5273
  182SLPC   H2S20837   3.513   1.268  10.420  0.0671  0.3875  0.4479
  182SLPC    C320838   3.777   1.082  10.810  0.0684  0.0778 -0.1368
  182SLPC    HX20839   3.675   1.062  10.848  0.3039 -0.5575  0.1915
  182SLPC    HY20840   3.843   1.081  10.900 -1.1163  0.0790  0.7620
  182SLPC   O3120841   3.822   0.980  10.722  0.1477  0.6595  0.0560
  182SLPC   C3120842   3.807   0.856  10.783  0.2861  0.1063  0.2327
  182SLPC   O3220843   3.782   0.850  10.901  0.2683  0.3116  0.2071
  182SLPC   C3220844   3.805   0.732  10.689  0.2492 -0.5166  0.2735
  182SLPC   H2X20845   3.887   0.666  10.725 -0.9035 -1.5866  1.0008
  182SLPC   H2Y20846   3.846   0.759  10.589  0.1847 -2.5149 -0.3454
  182SLPC   C2320847   3.677   1.289  10.266  0.6181 -0.4955  0.0371
  182SLPC   H3R20848   3.779   1.246  10.253  0.8668  0.2780 -0.6234
  182SLPC   H3S20849   3.690   1.399  10.273  2.2139 -0.5766 -1.0669
  182SLPC   C2420850   3.585   1.249  10.147 -0.4938 -0.2832  0.5294
  182SLPC   H4R20851   3.486   1.298  10.160 -0.5816 -0.4936  0.6488
  182SLPC   H4S20852   3.562   1.140  10.149  0.4971 -0.4958  0.7709
  182SLPC   C2520853   3.642   1.294  10.016 -0.4720 -0.0521  0.0755
  182SLPC   H5R20854   3.752   1.287  10.030 -0.3031  1.4103 -0.3673
  182SLPC   H5S20855   3.622   1.403  10.012  1.3048  0.3260  0.6066
  182SLPC   C2620856   3.599   1.217   9.889 -0.4916  0.6930 -0.4366
  182SLPC   H6R20857   3.488   1.231   9.886 -0.5645  0.4114  0.5292
  182SLPC   H6S20858   3.624   1.109   9.896  0.2394  0.8169 -1.0232
  182SLPC   C2720859   3.660   1.270   9.761 -0.7728 -0.8103  0.1294
  182SLPC   H7R20860   3.768   1.249   9.753 -0.5635  0.4542 -0.7666
  182SLPC   H7S20861   3.652   1.381   9.758 -0.1056 -0.7564  0.1751
  182SLPC   C2820862   3.592   1.220   9.637 -0.5200 -0.1872  0.0129
  182SLPC   H8R20863   3.483   1.238   9.634 -0.8373 -2.0517 -1.1029
  182SLPC   H8S20864   3.605   1.110   9.622 -0.5157 -0.2105  0.1890
  182SLPC   C2920865   3.648   1.292   9.514  0.7282  0.2867 -0.3585
  182SLPC   H9R20866   3.736   1.356   9.525  0.5449  0.3829  0.6303
  182SLPC  C21020867   3.595   1.281   9.385  0.1892 -0.3567 -0.2649
  182SLPC  H10R20868   3.646   1.344   9.311  2.4314 -0.3959  1.1471
  182SLPC  C21120869   3.474   1.197   9.360 -0.0432 -0.0582 -0.3002
  182SLPC  H11R20870   3.382   1.259   9.372 -0.8305 -1.6577  3.7926
  182SLPC  H11S20871   3.468   1.117   9.438 -4.3954 -0.7439 -1.0856
  182SLPC  C21220872   3.481   1.150   9.216 -0.0799  0.3285  0.1117
  182SLPC  H12R20873   3.467   1.232   9.144  1.1572  2.4103  2.0947
  182SLPC  C21320874   3.505   1.020   9.176 -0.2230 -0.5487 -0.3806
  182SLPC  H13R20875   3.520   0.982   9.074  3.0062 -1.1203  0.2183
  182SLPC  C21420876   3.517   0.898   9.265 -0.1967 -0.0415  0.2348
  182SLPC  H14R20877   3.517   0.928   9.372 -0.3662  0.1882  0.1718
  182SLPC  H14S20878   3.611   0.842   9.247  0.9415  1.2931  1.7176
  182SLPC  C21520879   3.395   0.810   9.264  0.3692  0.5309  0.6170
  182SLPC  H15R20880   3.305   0.866   9.297  1.3768  2.1702  0.6606
  182SLPC  H15S20881   3.410   0.732   9.341  1.7202 -0.1760 -0.3110
  182SLPC  C21620882   3.374   0.743   9.129  0.1130  0.2459 -0.6803
  182SLPC  H16R20883   3.438   0.653   9.133  2.7890  2.0712  0.9451
  182SLPC  H16S20884   3.417   0.800   9.044  1.1622  2.3847  1.1538
  182SLPC  C21720885   3.224   0.705   9.114  0.8319 -0.2345  0.3962
  182SLPC  H17R20886   3.160   0.796   9.112  2.4577  0.9341 -1.0528
  182SLPC  H17S20887   3.201   0.651   9.208  0.8117 -0.7792  0.0828
  182SLPC  C21820888   3.208   0.607   8.991  0.3644  0.0206 -0.7682
  182SLPC  H18R20889   3.173   0.653   8.897 -2.6955  0.5613  0.5053
  182SLPC  H18S20890   3.131   0.535   9.025  1.3260 -0.1522  1.2264
  182SLPC  H18T20891   3.294   0.538   8.976 -0.4106 -1.0355 -0.5154
  182SLPC   C3320892   3.672   0.653  10.682  0.0425  0.2856 -0.4458
  182SLPC   H3X20893   3.650   0.610  10.782  2.9295  1.8583  0.9852
  182SLPC   H3Y20894   3.693   0.569  10.612 -0.2594 -0.3947  0.2760
  182SLPC   C3420895   3.552   0.732  10.635 -0.2448 -0.1147  0.5494
  182SLPC   H4X20896   3.543   0.820  10.702  0.8442 -0.1571  0.7612
  182SLPC   H4Y20897   3.464   0.671  10.666 -0.8348 -0.2865 -1.3341
  182SLPC   C3520898   3.547   0.771  10.486 -0.1784  0.5218 -0.1215
  182SLPC   H5X20899   3.653   0.805  10.481 -0.7366  2.4646  0.3769
  182SLPC   H5Y20900   3.480   0.859  10.482  0.3159  0.9042 -0.0668
  182SLPC   C3620901   3.496   0.657  10.397 -0.0344 -0.4514  0.4844
  182SLPC   H6X20902   3.387   0.645  10.413 -0.1679  0.1322  0.0128
  182SLPC   H6Y20903   3.554   0.565  10.421  0.2947 -0.5858 -0.7564
  182SLPC   C3720904   3.520   0.700  10.249  0.4569  1.0773  0.0828
  182SLPC   H7X20905   3.499   0.808  10.239  0.0968  0.9162 -1.0565
  182SLPC   H7Y20906   3.432   0.657  10.196 -0.9050  1.6321  1.7974
  182SLPC   C3820907   3.653   0.660  10.185  0.0723 -0.2707  0.7974
  182SLPC   H8X20908   3.663   0.549  10.188 -1.5747 -0.6306 -2.5094
  182SLPC   H8Y20909   3.725   0.718  10.247 -0.9652  1.5870  0.3533
  182SLPC   C3920910   3.658   0.706  10.043  0.2781  0.2289 -0.4288
  182SLPC   H9X20911   3.762   0.686  10.007  0.1453  0.9044 -1.2180
  182SLPC   H9Y20912   3.637   0.815  10.044  1.1652  0.4022 -0.2188
  182SLPC  C31020913   3.549   0.642   9.958  0.3658 -0.1176  0.2242
  182SLPC  H10X20914   3.449   0.684   9.983  1.2570  1.1899  1.7967
  182SLPC  H10Y20915   3.548   0.534   9.982 -0.7154 -0.4193 -1.0177
  182SLPC  C31120916   3.577   0.673   9.815 -0.3777 -0.0105 -0.1825
  182SLPC  H11X20917   3.687   0.675   9.802 -0.2152 -0.9773  0.9344
  182SLPC  H11Y20918   3.542   0.773   9.781  2.1087  0.7964 -0.5564
  182SLPC  C31220919   3.536   0.576   9.707  0.4622  0.4470  0.0322
  182SLPC  H12X20920   3.425   0.572   9.696  0.5873 -0.0082 -1.1974
  182SLPC  H12Y20921   3.560   0.479   9.754  2.8924 -0.0137 -1.9719
  182SLPC  C31320922   3.606   0.592   9.577 -0.4342  0.2102 -0.0454
  182SLPC  H13X20923   3.715   0.597   9.600 -0.7456  1.3836  1.3500
  182SLPC  H13Y20924   3.581   0.690   9.530  1.6065 -0.1610 -2.1308
  182SLPC  C31420925   3.575   0.471   9.494  0.0337 -0.2604 -0.9753
  182SLPC  H14X20926   3.469   0.446   9.517  0.2586 -0.9979 -0.7095
  182SLPC  H14Y20927   3.648   0.397   9.534  0.4232 -0.1303 -1.4326
  182SLPC  C31520928   3.592   0.478   9.341  0.1373 -0.9446 -0.2071
  182SLPC  H15X20929   3.504   0.534   9.303 -0.4670  0.4768  2.9656
  182SLPC  H15Y20930   3.582   0.371   9.314 -1.9266 -0.9054  0.2428
  182SLPC  C31620931   3.712   0.550   9.301 -0.9517 -0.5681  0.3575
  182SLPC  H16X20932   3.699   0.653   9.341 -0.1435 -0.2888 -0.0802
  182SLPC  H16Y20933   3.715   0.557   9.190  2.2469 -0.3693  0.3809
  182SLPC  C31720934   3.836   0.495   9.355  0.0765 -0.2245  0.0041
  182SLPC  H17X20935   3.829   0.465   9.462  2.3006 -0.6465  0.0984
  182SLPC  H17Y20936   3.909   0.579   9.355  0.1619 -0.2171  2.5129
  182SLPC  C31820937   3.878   0.372   9.285 -0.3217  0.7995  0.5539
  182SLPC  H18X20938   3.979   0.335   9.315  0.2167  3.0090  1.7361
  182SLPC  H18Y20939   3.880   0.379   9.175  1.5406 -1.8435  0.3118
  182SLPC  H18Z20940   3.813   0.285   9.309  0.3484 -0.5668 -2.2134
  183SLPC     N20941   6.144   2.347  11.296 -0.2721 -0.2188 -0.1672
  183SLPC   C1320942   6.055   2.242  11.242 -0.0527  0.6126 -0.4533
  183SLPC  H13A20943   6.111   2.179  11.174  0.4925  2.0871 -1.4159
  183SLPC  H13B20944   6.013   2.180  11.320 -1.9543  1.6611 -0.5826
  183SLPC  H13C20945   5.963   2.280  11.201 -0.0787  0.7323 -0.2849
  183SLPC   C1420946   6.066   2.439  11.393 -0.1078  0.5107  0.3300
  183SLPC  H14A20947   6.129   2.511  11.444  1.1066  0.1960 -0.7069
  183SLPC  H14B20948   5.984   2.479  11.335 -0.3602 -2.7775 -1.8049
  183SLPC  H14C20949   6.028   2.388  11.481  0.8449  1.2843  1.2212
  183SLPC   C1520950   6.186   2.435  11.181 -0.4656 -0.2518 -0.3663
  183SLPC  H15A20951   6.254   2.385  11.114  2.5422  2.9528  0.0509
  183SLPC  H15B20952   6.098   2.467  11.127 -0.3346  0.9513  0.1160
  183SLPC  H15C20953   6.252   2.514  11.213  1.9571 -2.1149 -0.5088
  183SLPC   C1220954   6.262   2.278  11.370 -0.0768 -0.2711 -0.1487
  183SLPC  H12A20955   6.223   2.215  11.448 -1.8087  1.5105  0.4784
  183SLPC  H12B20956   6.314   2.363  11.412 -0.3004  0.0032 -0.4281
  183SLPC   C1120957   6.348   2.185  11.287  0.4019  0.5104 -0.0919
  183SLPC  H11A20958   6.295   2.096  11.245  1.7031  0.3425 -1.4968
  183SLPC  H11B20959   6.433   2.141  11.344  0.9071 -1.2503 -2.0602
  183SLPC     P20960   6.519   2.350  11.173  0.2429  0.3688  0.6434
  183SLPC   O1320961   6.494   2.472  11.095  0.3010  0.1278  0.0677
  183SLPC   O1420962   6.558   2.380  11.314  0.4119  0.4426  0.3129
  183SLPC   O1220963   6.390   2.254  11.164 -0.5381  0.4795  0.0899
  183SLPC   O1120964   6.630   2.280  11.091 -0.4295 -0.3561  1.0812
  183SLPC    C120965   6.665   2.141  11.090  0.2397  0.0810 -0.1259
  183SLPC    HA20966   6.744   2.127  11.166 -0.2688  1.8023  0.7801
  183SLPC    HB20967   6.584   2.079  11.134 -0.9913 -0.2615 -2.6777
  183SLPC    C220968   6.704   2.079  10.953 -0.9520  0.5851 -0.1127
  183SLPC    HS20969   6.735   1.972  10.959 -0.0771  0.7923 -0.6379
  183SLPC   O2120970   6.800   2.157  10.882  0.5176 -0.0047  0.0070
  183SLPC   C2120971   6.921   2.145  10.937 -0.4002  0.1698 -0.0729
  183SLPC   O2220972   6.958   2.075  11.031  0.3859 -0.2097  0.5306
  183SLPC   C2220973   7.011   2.244  10.863 -0.3480 -0.4959  0.3359
  183SLPC   H2R20974   7.000   2.349  10.899 -2.0097 -0.7650  0.6890
  183SLPC   H2S20975   7.115   2.211  10.888 -0.4818 -0.4008  1.0411
  183SLPC    C320976   6.572   2.065  10.868  1.1612 -0.2745  1.0893
  183SLPC    HX20977   6.545   2.166  10.832  1.7784  0.0217  1.4429
  183SLPC    HY20978   6.494   2.026  10.938 -0.0644  0.8381  0.3964
  183SLPC   O3120979   6.596   1.971  10.760 -0.0492  0.0943 -0.0381
  183SLPC   C3120980   6.566   2.025  10.638  0.6186  0.0919 -0.1262
  183SLPC   O3220981   6.523   2.135  10.614  0.4855 -0.2657 -0.2972
  183SLPC   C3220982   6.579   1.914  10.533  0.1538  0.0293 -0.4688
  183SLPC   H2X20983   6.478   1.866  10.537  0.8407 -1.3848  0.9473
  183SLPC   H2Y20984   6.655   1.840  10.565 -0.2264 -0.4194 -0.5831
  183SLPC   C2320985   6.995   2.250  10.716 -0.4185  0.7739  0.0884
  183SLPC   H3R20986   6.891   2.265  10.678 -0.4685 -0.2608 -0.2273
  183SLPC   H3S20987   7.015   2.151  10.668 -0.4153  0.4970  0.6470
  183SLPC   C2420988   7.080   2.352  10.646  0.3338 -0.2393  0.4415
  183SLPC   H4R20989   7.187   2.325  10.640 -0.0553 -1.6622 -0.6742
  183SLPC   H4S20990   7.080   2.444  10.707  1.8066  0.2887 -0.3194
  183SLPC   C2520991   7.016   2.394  10.510  0.6116 -0.1109  0.0677
  183SLPC   H5R20992   6.923   2.454  10.518  0.7670  0.1914 -0.3887
  183SLPC   H5S20993   6.983   2.297  10.466 -0.7374  0.2242  0.2945
  183SLPC   C2620994   7.105   2.468  10.416  0.3885  0.0321  1.0662
  183SLPC   H6R20995   7.072   2.466  10.309  1.0400 -0.9244  0.8633
  183SLPC   H6S20996   7.200   2.413  10.401 -0.2664 -0.5474 -1.6969
  183SLPC   C2720997   7.135   2.604  10.465 -0.1759  0.0512 -0.0034
  183SLPC   H7R20998   7.227   2.603  10.527  0.8591  1.5216 -1.4142
  183SLPC   H7S20999   7.056   2.657  10.523 -1.3501  0.2393 -1.6992
  183SLPC   C2821000   7.172   2.691  10.341  0.7571 -0.2896  0.3550
  183SLPC   H8R21001   7.249   2.651  10.273  1.1283 -0.5189  0.9085
  183SLPC   H8S21002   7.220   2.779  10.389 -0.2108 -0.4026  1.5981
  183SLPC   C2921003   7.050   2.741  10.272  0.1428 -0.0895  0.4297
  183SLPC   H9R21004   6.978   2.800  10.330  2.4583  1.4635  1.9107
  183SLPC  C21021005   7.013   2.717  10.144 -0.1382  0.3772 -0.2346
  183SLPC  H10R21006   6.923   2.770  10.109 -0.9845 -1.1398 -0.4229
  183SLPC  C21121007   7.088   2.636  10.045 -0.3144  0.1384 -0.0631
  183SLPC  H11R21008   7.023   2.588   9.969 -0.7272  1.3280 -0.4933
  183SLPC  H11S21009   7.141   2.554  10.099  0.9004 -0.0096 -1.4181
  183SLPC  C21221010   7.201   2.705   9.969  0.2705  0.5690 -0.2371
  183SLPC  H12R21011   7.266   2.762  10.036  2.0184 -2.0854  0.4650
  183SLPC  C21321012   7.241   2.670   9.851  0.0915  0.1052 -0.1000
  183SLPC  H13R21013   7.336   2.716   9.819  0.8383 -1.7222 -0.6524
  183SLPC  C21421014   7.186   2.571   9.751 -0.7948  0.2132  0.2122
  183SLPC  H14R21015   7.111   2.510   9.806 -1.1456  0.4287 -0.0240
  183SLPC  H14S21016   7.276   2.514   9.717 -0.9091  0.7868 -1.1137
  183SLPC  C21521017   7.116   2.639   9.628 -0.2821  0.4875 -0.4293
  183SLPC  H15R21018   7.180   2.723   9.593 -0.9557  1.5155  0.7079
  183SLPC  H15S21019   7.020   2.679   9.668 -0.7066 -0.0660 -0.8906
  183SLPC  C21621020   7.084   2.550   9.510 -0.1603 -0.3569  0.4842
  183SLPC  H16R21021   7.027   2.459   9.538 -0.7407 -0.8003 -1.9250
  183SLPC  H16S21022   7.187   2.528   9.473 -0.4959  2.2462 -2.3559
  183SLPC  C21721023   7.026   2.621   9.384 -0.3013  0.2468  0.2894
  183SLPC  H17R21024   7.052   2.729   9.387 -1.3354  0.5401 -0.5753
  183SLPC  H17S21025   6.916   2.624   9.402 -0.6726 -2.3898 -1.0038
  183SLPC  C21821026   7.060   2.549   9.251 -0.2371  0.4556  1.0598
  183SLPC  H18R21027   7.006   2.452   9.262 -0.0133  0.1530 -0.3084
  183SLPC  H18S21028   7.169   2.528   9.247 -0.4846 -0.8072 -2.6553
  183SLPC  H18T21029   7.032   2.609   9.162 -0.7603  0.5720  1.3012
  183SLPC   C3321030   6.614   1.961  10.391  0.0599 -0.4819 -0.1306
  183SLPC   H3X21031   6.553   2.052  10.378 -1.0281 -0.9544  1.3506
  183SLPC   H3Y21032   6.587   1.887  10.313 -0.2614 -0.7631  0.2418
  183SLPC   C3421033   6.758   2.002  10.376 -0.6513 -0.0522  0.2771
  183SLPC   H4X21034   6.834   1.928  10.409 -0.3062 -0.3273 -1.0766
  183SLPC   H4Y21035   6.782   2.094  10.433 -0.4494  0.2683 -0.3139
  183SLPC   C3521036   6.790   2.046  10.235 -0.2090 -0.3722  0.2990
  183SLPC   H5X21037   6.882   2.107  10.221  0.4689 -1.1412  1.2850
  183SLPC   H5Y21038   6.709   2.111  10.195  2.0474  2.1635 -0.4845
  183SLPC   C3621039   6.821   1.925  10.143 -0.0242  0.3949  0.1967
  183SLPC   H6X21040   6.755   1.838  10.166  2.3624 -1.9252 -1.1797
  183SLPC   H6Y21041   6.928   1.893  10.145 -0.3143 -0.5900  0.8518
  183SLPC   C3721042   6.776   1.952   9.993  0.0004 -0.1049 -0.3167
  183SLPC   H7X21043   6.812   2.055   9.974 -0.4941 -0.1196 -1.4864
  183SLPC   H7Y21044   6.665   1.945   9.986 -0.0082 -0.5790  0.2362
  183SLPC   C3821045   6.845   1.857   9.887  0.5880 -0.0615 -0.6792
  183SLPC   H8X21046   6.794   1.759   9.898 -1.1509  0.8684 -0.0835
  183SLPC   H8Y21047   6.954   1.856   9.910  0.4887 -1.4807 -0.1465
  183SLPC   C3921048   6.834   1.903   9.738 -0.5449 -1.0534  0.4506
  183SLPC   H9X21049   6.867   2.007   9.720 -1.5436 -0.7122  0.5238
  183SLPC   H9Y21050   6.728   1.912   9.706 -0.3199 -3.4805 -1.2581
  183SLPC  C31021051   6.889   1.799   9.645 -0.6171 -0.4834  0.8085
  183SLPC  H10X21052   6.834   1.704   9.663 -1.3976  0.1007  1.5868
  183SLPC  H10Y21053   6.996   1.783   9.670 -0.2575  0.4318 -0.0424
  183SLPC  C31121054   6.892   1.846   9.498  0.1396  0.4775  0.4039
  183SLPC  H11X21055   6.954   1.937   9.491  0.7830 -0.0109 -0.5036
  183SLPC  H11Y21056   6.791   1.868   9.460 -0.2375 -0.9834  0.4834
  183SLPC  C31221057   6.971   1.756   9.401  0.2709 -0.1001 -0.1549
  183SLPC  H12X21058   7.078   1.743   9.425 -0.1009 -0.3533  1.4636
  183SLPC  H12Y21059   6.970   1.790   9.295 -1.8420  0.3164 -0.0450
  183SLPC  C31321060   6.913   1.606   9.393  0.3646  0.5658  0.1678
  183SLPC  H13X21061   6.803   1.618   9.385  0.4829  1.2982 -0.5473
  183SLPC  H13Y21062   6.923   1.544   9.484 -0.5964  0.4879  0.2208
  183SLPC  C31421063   6.952   1.536   9.258 -1.1329 -0.5133  0.3586
  183SLPC  H14X21064   6.941   1.611   9.177  1.4745 -1.3754 -0.8901
  183SLPC  H14Y21065   6.876   1.456   9.244 -1.2704 -0.6440  1.6408
  183SLPC  C31521066   7.096   1.473   9.272  0.4147  0.9249  0.7873
  183SLPC  H15X21067   7.095   1.403   9.358 -0.2656  0.4521  0.3994
  183SLPC  H15Y21068   7.179   1.548   9.267 -0.6539  2.0717 -1.0904
  183SLPC  C31621069   7.132   1.386   9.148  0.4655 -0.1709  0.1295
  183SLPC  H16X21070   7.113   1.460   9.067 -2.1410  1.0207  1.6836
  183SLPC  H16Y21071   7.057   1.305   9.142 -0.2949  0.5188  0.0801
  183SLPC  C31721072   7.278   1.337   9.156  0.1664  0.2423 -0.1340
  183SLPC  H17X21073   7.287   1.276   9.248  3.4775  0.5793 -0.1151
  183SLPC  H17Y21074   7.333   1.432   9.174 -1.1656  1.0072  0.0640
  183SLPC  C31821075   7.329   1.258   9.037 -0.2014  0.2553 -0.0285
  183SLPC  H18X21076   7.439   1.249   9.048 -0.0460  2.1477  0.2338
  183SLPC  H18Y21077   7.310   1.311   8.942  3.5138  2.5261  0.3035
  183SLPC  H18Z21078   7.286   1.156   9.027 -1.3960  0.8227 -0.9662
  184SLPC     N21079   5.185   1.398  11.238 -0.8290  0.5216  0.2784
  184SLPC   C1321080   5.160   1.411  11.090  0.2991  0.3370  0.4351
  184SLPC  H13A21081   5.233   1.357  11.031 -0.6433 -0.1984 -0.2507
  184SLPC  H13B21082   5.064   1.374  11.059 -0.4339  1.0640  1.7756
  184SLPC  H13C21083   5.177   1.513  11.057  0.1597  1.1047  2.5880
  184SLPC   C1421084   5.203   1.254  11.266 -0.4165 -0.9426  0.6876
  184SLPC  H14A21085   5.109   1.201  11.271 -0.3165 -1.2364 -0.3024
  184SLPC  H14B21086   5.260   1.197  11.194 -0.0495  0.4221 -0.1448
  184SLPC  H14C21087   5.251   1.246  11.362  0.0422  0.0172  0.5482
  184SLPC   C1521088   5.087   1.459  11.319 -0.0144 -0.2348  0.1319
  184SLPC  H15A21089   4.990   1.421  11.290  0.4292  0.0672 -1.8900
  184SLPC  H15B21090   5.095   1.452  11.426 -1.1027  1.9172  0.4029
  184SLPC  H15C21091   5.081   1.565  11.302  0.5135 -0.1332  0.5616
  184SLPC   C1221092   5.327   1.462  11.262  1.3386  1.2431  0.7052
  184SLPC  H12A21093   5.394   1.407  11.198 -1.0724 -1.8891  0.6573
  184SLPC  H12B21094   5.347   1.455  11.368 -2.0675 -0.4296  1.3817
  184SLPC   C1121095   5.343   1.615  11.220  0.0904  0.5813  0.0967
  184SLPC  H11A21096   5.449   1.644  11.238 -0.3090  1.0296  1.9445
  184SLPC  H11B21097   5.274   1.663  11.293  0.8005  0.0523  1.1345
  184SLPC     P21098   5.304   1.780  11.016  0.2083 -0.5609  0.5939
  184SLPC   O1321099   5.167   1.835  11.021  0.4317  0.1530 -0.2813
  184SLPC   O1421100   5.403   1.871  11.073  0.5624  0.2526  0.1682
  184SLPC   O1221101   5.309   1.643  11.079 -0.3061  0.7050 -0.2771
  184SLPC   O1121102   5.335   1.743  10.867  0.4399  0.1391 -0.0863
  184SLPC    C121103   5.451   1.667  10.838  0.0159  0.3628  0.1535
  184SLPC    HA21104   5.535   1.731  10.802  1.3509 -2.6867 -2.6906
  184SLPC    HB21105   5.484   1.601  10.921 -0.6118  0.3268  0.3787
  184SLPC    C221106   5.419   1.587  10.706  0.0755 -0.2705 -0.0724
  184SLPC    HS21107   5.496   1.507  10.703  0.2094 -0.1900  0.9345
  184SLPC   O2121108   5.418   1.682  10.591 -0.0577  0.2314 -0.9721
  184SLPC   C2121109   5.469   1.629  10.484 -0.1097  0.5280  0.1515
  184SLPC   O2221110   5.522   1.519  10.480  0.4528  0.7220  0.6205
  184SLPC   C2221111   5.450   1.727  10.365  0.6094 -0.4079 -0.6146
  184SLPC   H2R21112   5.343   1.752  10.350  0.6926  0.4040  0.1051
  184SLPC   H2S21113   5.501   1.824  10.384  0.6480 -0.4593 -0.4481
  184SLPC    C321114   5.279   1.517  10.710  0.5962 -0.0329  0.1092
  184SLPC    HX21115   5.211   1.601  10.683  1.7713  1.2127  0.8998
  184SLPC    HY21116   5.259   1.478  10.812  1.1404  0.1320  0.2839
  184SLPC   O3121117   5.261   1.419  10.608  0.4056  0.1571 -0.1684
  184SLPC   C3121118   5.257   1.289  10.636  0.9068 -0.0662  0.0401
  184SLPC   O3221119   5.265   1.244  10.749 -0.9778 -0.1823 -0.3372
  184SLPC   C3221120   5.252   1.201  10.508 -0.0466 -0.5364 -0.6473
  184SLPC   H2X21121   5.161   1.138  10.513 -0.7708  0.5436  0.3915
  184SLPC   H2Y21122   5.340   1.136  10.521  0.7825  0.4860 -0.9967
  184SLPC   C2321123   5.512   1.672  10.230 -0.2514  0.4150 -0.4106
  184SLPC   H3R21124   5.461   1.577  10.204  0.4622 -0.4240  1.1139
  184SLPC   H3S21125   5.622   1.652  10.228  0.1479  1.7468 -5.0161
  184SLPC   C2421126   5.490   1.765  10.113  0.3102 -0.5968 -0.1703
  184SLPC   H4R21127   5.506   1.870  10.147  0.2312 -0.9774  1.0963
  184SLPC   H4S21128   5.383   1.755  10.082 -0.6552  1.1157  2.2391
  184SLPC   C2521129   5.592   1.748   9.999 -0.1561 -0.1982  0.6903
  184SLPC   H5R21130   5.693   1.758  10.044  0.1048  0.8509 -0.0855
  184SLPC   H5S21131   5.573   1.832   9.928 -2.2536 -1.7275 -0.6734
  184SLPC   C2621132   5.574   1.617   9.923  0.5993  0.3714 -0.6805
  184SLPC   H6R21133   5.464   1.599   9.920  0.2861  1.7718  0.9450
  184SLPC   H6S21134   5.620   1.541   9.989 -0.4877 -1.4320 -1.9195
  184SLPC   C2721135   5.630   1.610   9.787 -0.2520 -0.3363 -0.6029
  184SLPC   H7R21136   5.616   1.505   9.753  1.0197 -0.9184  0.5615
  184SLPC   H7S21137   5.738   1.638   9.791 -0.9354  2.5434  1.6283
  184SLPC   C2821138   5.568   1.707   9.681 -0.6967 -0.0539  0.2526
  184SLPC   H8R21139   5.600   1.811   9.705 -1.8602  0.6765 -1.1846
  184SLPC   H8S21140   5.458   1.721   9.687 -0.4428  2.0591  0.7613
  184SLPC   C2921141   5.607   1.672   9.541 -0.2638 -0.0686 -0.8333
  184SLPC   H9R21142   5.556   1.586   9.496 -0.7887  0.9918 -2.3285
  184SLPC  C21021143   5.678   1.749   9.468 -0.0276  0.0294 -0.3724
  184SLPC  H10R21144   5.720   1.703   9.378  2.5737  1.4596  0.0176
  184SLPC  C21121145   5.742   1.878   9.498 -0.0177 -0.0243 -0.0042
  184SLPC  H11R21146   5.665   1.932   9.557 -0.8015 -0.4507 -0.6240
  184SLPC  H11S21147   5.762   1.924   9.399 -2.0932  2.8205  0.7589
  184SLPC  C21221148   5.862   1.854   9.589 -0.1839  0.1695 -0.3099
  184SLPC  H12R21149   5.843   1.822   9.692 -1.5261 -0.5253 -0.7612
  184SLPC  C21321150   5.995   1.868   9.561 -0.9619  0.4242  0.0285
  184SLPC  H13R21151   6.065   1.853   9.645 -0.8994 -0.3248 -0.1520
  184SLPC  C21421152   6.056   1.896   9.424 -0.2379 -0.0759 -0.3423
  184SLPC  H14R21153   6.164   1.915   9.437 -0.2018 -0.6320  0.2449
  184SLPC  H14S21154   6.009   1.990   9.388 -1.1320  0.2870  1.6243
  184SLPC  C21521155   6.053   1.777   9.327  0.3321 -0.0672 -0.0774
  184SLPC  H15R21156   5.948   1.740   9.327 -0.7601  2.8018  0.1769
  184SLPC  H15S21157   6.115   1.696   9.372 -1.6333 -2.3835 -1.2983
  184SLPC  C21621158   6.107   1.798   9.192 -0.0094 -0.0752 -0.1496
  184SLPC  H16R21159   6.135   1.699   9.151  1.7377  0.1974  0.2864
  184SLPC  H16S21160   6.206   1.849   9.199 -0.7444  1.2935  0.7532
  184SLPC  C21721161   6.014   1.883   9.104  0.2895  0.0818  0.4146
  184SLPC  H17R21162   5.979   1.980   9.144 -1.7999 -1.0804  1.5957
  184SLPC  H17S21163   5.920   1.825   9.088 -0.1470  0.4561  1.4721
  184SLPC  C21821164   6.083   1.909   8.977  0.0816  0.5803 -0.5943
  184SLPC  H18R21165   6.123   1.815   8.932 -2.6368 -1.8026  1.5859
  184SLPC  H18S21166   6.171   1.976   8.989  0.7705  0.0365 -2.2882
  184SLPC  H18T21167   6.014   1.949   8.899 -1.2099  2.8892  1.6012
  184SLPC   C3321168   5.289   1.266  10.374 -0.1968 -0.4507 -0.2552
  184SLPC   H3X21169   5.383   1.323  10.392 -0.8326  0.4504  0.2725
  184SLPC   H3Y21170   5.204   1.330  10.342 -1.5038 -2.0553 -0.1295
  184SLPC   C3421171   5.314   1.164  10.262 -1.1185 -0.5160  0.1185
  184SLPC   H4X21172   5.229   1.098  10.235  0.7347 -2.5389 -1.0429
  184SLPC   H4Y21173   5.404   1.100  10.272  1.1384  2.5979  1.5112
  184SLPC   C3521174   5.330   1.237  10.133  0.3222  0.2174  0.2568
  184SLPC   H5X21175   5.406   1.314  10.109 -1.5174  1.6360 -1.4778
  184SLPC   H5Y21176   5.230   1.282  10.112  1.0686  1.8218 -0.0050
  184SLPC   C3621177   5.349   1.131  10.015 -0.2449  0.0408 -0.0038
  184SLPC   H6X21178   5.286   1.040  10.029 -0.4615  0.3432  1.0631
  184SLPC   H6Y21179   5.452   1.094  10.034 -0.4736  0.3860  2.2327
  184SLPC   C3721180   5.328   1.195   9.878  0.4325  0.0020 -0.4862
  184SLPC   H7X21181   5.419   1.257   9.868  1.2796 -1.4706 -2.4416
  184SLPC   H7Y21182   5.234   1.254   9.888 -0.4664 -1.0660 -2.1664
  184SLPC   C3821183   5.327   1.113   9.751  0.8283 -0.1733  0.2075
  184SLPC   H8X21184   5.244   1.040   9.758  1.4790 -1.1626 -1.6532
  184SLPC   H8Y21185   5.429   1.069   9.747  0.6544 -0.5705  0.1350
  184SLPC   C3921186   5.295   1.197   9.628  0.2358 -0.2612 -0.1844
  184SLPC   H9X21187   5.332   1.298   9.657 -0.7180 -0.3897  1.6540
  184SLPC   H9Y21188   5.186   1.199   9.609  0.5253 -1.5138 -2.3624
  184SLPC  C31021189   5.368   1.144   9.504  0.2704  0.9450 -0.1929
  184SLPC  H10X21190   5.325   1.044   9.484  0.9382  0.5219  0.4417
  184SLPC  H10Y21191   5.475   1.149   9.533 -0.0634 -3.0724  2.5118
  184SLPC  C31121192   5.335   1.224   9.377  0.6605 -0.2322  0.5390
  184SLPC  H11X21193   5.386   1.321   9.391 -1.5668  1.0098  0.4468
  184SLPC  H11Y21194   5.226   1.239   9.365  0.7719  0.6495  0.5884
  184SLPC  C31221195   5.380   1.146   9.252  0.1777  0.1635  0.0158
  184SLPC  H12X21196   5.348   1.211   9.167 -1.3633  0.3636  0.7109
  184SLPC  H12Y21197   5.323   1.051   9.249 -0.6939  0.6615  0.4195
  184SLPC  C31321198   5.532   1.129   9.248  0.4700  0.2019 -0.5834
  184SLPC  H13X21199   5.555   1.074   9.343 -2.5948  1.9337  1.3293
  184SLPC  H13Y21200   5.573   1.232   9.256  0.5038  0.2161 -0.9459
  184SLPC  C31421201   5.596   1.076   9.124 -0.5313  0.5865 -0.2114
  184SLPC  H14X21202   5.578   1.146   9.040  0.0896  0.3861 -0.5213
  184SLPC  H14Y21203   5.548   0.980   9.095  1.7568 -0.2574 -1.4694
  184SLPC  C31521204   5.745   1.044   9.138 -0.2908  0.0319  0.9134
  184SLPC  H15X21205   5.751   0.956   9.205  0.3032 -1.2886 -0.7747
  184SLPC  H15Y21206   5.803   1.125   9.187 -0.6037  1.4000 -0.8662
  184SLPC  C31621207   5.796   1.002   8.997  0.2628  0.0720  0.5741
  184SLPC  H16X21208   5.793   1.078   8.916 -2.9522 -1.9314 -1.4022
  184SLPC  H16Y21209   5.726   0.924   8.961 -0.4744  1.3362 -0.8690
  184SLPC  C31721210   5.940   0.951   9.014 -0.0771 -0.4701 -0.1913
  184SLPC  H17X21211   5.937   0.904   9.115  0.0947  2.0976  1.0812
  184SLPC  H17Y21212   6.014   1.033   9.010 -1.3418  0.7945  1.0530
  184SLPC  C31821213   5.983   0.849   8.909  0.1261 -0.6276 -0.3844
  184SLPC  H18X21214   6.089   0.820   8.924  0.8853  2.4955  0.9015
  184SLPC  H18Y21215   5.977   0.888   8.805 -2.1502  1.9654  0.5881
  184SLPC  H18Z21216   5.915   0.761   8.917 -0.4936 -0.0817  0.5673
  185SLPC     N21217   6.338   0.691   6.201  0.0308  0.5000  0.2078
  185SLPC   C1321218   6.455   0.712   6.117 -1.0286 -0.5587  0.0075
  185SLPC  H13A21219   6.548   0.712   6.170 -1.0871  0.5011  0.1435
  185SLPC  H13B21220   6.459   0.637   6.040 -1.6436 -1.8848  1.2153
  185SLPC  H13C21221   6.442   0.809   6.070 -0.5354  0.6636  2.2561
  185SLPC   C1421222   6.353   0.548   6.255 -0.1936 -0.4538  0.3444
  185SLPC  H14A21223   6.347   0.480   6.171  3.7869 -0.3137 -0.2293
  185SLPC  H14B21224   6.448   0.544   6.306  0.6917 -0.3073 -1.2311
  185SLPC  H14C21225   6.277   0.526   6.329  1.1845 -0.4524  1.7986
  185SLPC   C1521226   6.214   0.691   6.122  0.3603  0.4930 -0.7348
  185SLPC  H15A21227   6.186   0.793   6.100 -1.1262  0.8573  2.2669
  185SLPC  H15B21228   6.220   0.619   6.042  1.0835 -1.7335  1.1964
  185SLPC  H15C21229   6.133   0.655   6.184 -1.1840  2.8360 -1.2558
  185SLPC   C1221230   6.334   0.794   6.312  0.0302 -0.0495 -0.1537
  185SLPC  H12A21231   6.423   0.778   6.371  0.7101  0.3555 -1.0275
  185SLPC  H12B21232   6.261   0.768   6.386  1.9940  0.0889  1.9493
  185SLPC   C1121233   6.325   0.945   6.281 -0.9190  1.2609 -0.1395
  185SLPC  H11A21234   6.369   0.958   6.179 -1.9328  0.1088 -0.7518
  185SLPC  H11B21235   6.392   1.000   6.350 -1.7823  1.4149  0.5902
  185SLPC     P21236   6.104   0.985   6.408  0.5952  0.2472  0.1777
  185SLPC   O1321237   6.000   1.091   6.391  0.5424  0.0172 -0.0070
  185SLPC   O1421238   6.070   0.843   6.408 -0.0121  0.0909  0.2964
  185SLPC   O1221239   6.195   0.995   6.278  0.1220 -0.7155 -0.1785
  185SLPC   O1121240   6.206   1.007   6.527 -0.8189 -0.2012 -0.2216
  185SLPC    C121241   6.228   1.140   6.587 -0.1455  0.4024 -0.9453
  185SLPC    HA21242   6.328   1.174   6.552 -0.2707  0.4991 -1.2134
  185SLPC    HB21243   6.142   1.208   6.572  0.6551  1.4969 -0.6816
  185SLPC    C221244   6.249   1.120   6.737 -0.1704  0.6015 -0.9081
  185SLPC    HS21245   6.288   1.219   6.769  2.5787 -1.2820  2.1543
  185SLPC   O2121246   6.351   1.023   6.766  0.7071  0.8035  0.2526
  185SLPC   C2121247   6.402   1.027   6.892  0.1829 -0.0931  0.0356
  185SLPC   O2221248   6.403   1.122   6.966  0.0759 -0.3341 -0.3523
  185SLPC   C2221249   6.469   0.887   6.922 -0.2461 -0.5203  0.0773
  185SLPC   H2R21250   6.424   0.802   6.867 -0.5956  0.2020 -0.7786
  185SLPC   H2S21251   6.573   0.897   6.884  0.4753  1.3546  2.3079
  185SLPC    C321252   6.114   1.104   6.817 -0.0904  0.7852 -0.6975
  185SLPC    HX21253   6.086   1.002   6.784 -2.5977  1.6606 -1.4886
  185SLPC    HY21254   6.033   1.170   6.778 -1.9601 -0.9917 -0.0329
  185SLPC   O3121255   6.128   1.104   6.960 -0.3015  0.0259 -0.5084
  185SLPC   C3121256   6.098   1.218   7.025 -0.6564  0.2229 -0.2913
  185SLPC   O3221257   6.068   1.321   6.970 -0.2477 -0.3452  0.3773
  185SLPC   C3221258   6.099   1.202   7.182  0.0054 -0.3576  0.9496
  185SLPC   H2X21259   6.198   1.176   7.225  0.6544  0.4827  0.0040
  185SLPC   H2Y21260   6.049   1.104   7.192  0.3292 -0.5740  0.4207
  185SLPC   C2321261   6.457   0.861   7.068 -0.3567 -0.2371  0.3453
  185SLPC   H3R21262   6.479   0.955   7.123 -0.9175 -0.5457  1.1157
  185SLPC   H3S21263   6.524   0.784   7.110 -0.6674 -0.9477 -0.4426
  185SLPC   C2421264   6.309   0.820   7.107 -0.1560  0.0978  0.2247
  185SLPC   H4R21265   6.288   0.734   7.039  1.0066 -0.8055  0.9668
  185SLPC   H4S21266   6.237   0.904   7.096  0.3197  1.0384  3.3107
  185SLPC   C2521267   6.298   0.759   7.252 -0.0282 -0.1075  0.4457
  185SLPC   H5R21268   6.359   0.666   7.252  0.7594  0.2578 -3.0958
  185SLPC   H5S21269   6.192   0.729   7.261  0.0323 -1.8333 -3.0063
  185SLPC   C2621270   6.336   0.851   7.371  0.2752  0.0613 -0.8723
  185SLPC   H6R21271   6.302   0.953   7.342  0.3861 -0.1566 -1.8173
  185SLPC   H6S21272   6.447   0.847   7.376  0.2042 -1.2361  0.2029
  185SLPC   C2721273   6.281   0.795   7.505 -0.3542 -0.6682  1.0292
  185SLPC   H7R21274   6.322   0.692   7.507  1.2747 -0.0676  0.2002
  185SLPC   H7S21275   6.175   0.783   7.475 -0.4689  0.1096  1.1074
  185SLPC   C2821276   6.303   0.885   7.616  0.1562 -0.3365  0.0780
  185SLPC   H8R21277   6.248   0.981   7.604 -2.3312 -1.7919 -1.0608
  185SLPC   H8S21278   6.409   0.915   7.627 -0.0077  1.2940 -1.9566
  185SLPC   C2921279   6.261   0.806   7.744 -0.4361 -0.2757 -0.0817
  185SLPC   H9R21280   6.329   0.720   7.750  1.2635  0.8583 -1.8920
  185SLPC  C21021281   6.146   0.826   7.819 -0.4048 -0.1002 -0.6891
  185SLPC  H10R21282   6.127   0.765   7.908 -4.1734  0.1682 -1.1666
  185SLPC  C21121283   6.043   0.931   7.805  0.7433 -0.4995  0.4950
  185SLPC  H11R21284   6.065   1.003   7.723 -0.3381 -1.5382 -0.7446
  185SLPC  H11S21285   6.044   1.003   7.890 -1.1990 -0.6000  0.6565
  185SLPC  C21221286   5.905   0.860   7.799  0.0967 -0.1093  0.1088
  185SLPC  H12R21287   5.867   0.884   7.698  0.8251  2.4441  0.3543
  185SLPC  C21321288   5.832   0.794   7.888  0.6036  0.0579 -0.2575
  185SLPC  H13R21289   5.737   0.749   7.856  0.7112 -0.1466 -0.2867
  185SLPC  C21421290   5.855   0.769   8.035  0.4571  0.1445 -0.2841
  185SLPC  H14R21291   5.963   0.779   8.060  0.5052 -2.0897  0.6361
  185SLPC  H14S21292   5.835   0.663   8.062  1.2141  0.0377 -0.1027
  185SLPC  C21521293   5.780   0.870   8.130 -0.0092  0.2383  0.0844
  185SLPC  H15R21294   5.670   0.860   8.121  0.2530 -1.5562 -1.9268
  185SLPC  H15S21295   5.806   0.974   8.102  1.0518 -0.0701 -0.1538
  185SLPC  C21621296   5.804   0.831   8.282 -0.0494  0.6201  0.4000
  185SLPC  H16R21297   5.908   0.838   8.320  0.0959 -0.0538  0.1454
  185SLPC  H16S21298   5.774   0.725   8.294  0.0593  0.6311  0.7654
  185SLPC  C21721299   5.714   0.908   8.377  0.2405  0.0377  0.0059
  185SLPC  H17R21300   5.606   0.895   8.357  0.3477  1.0000 -1.3677
  185SLPC  H17S21301   5.733   1.017   8.366 -1.4152  0.3495  0.0234
  185SLPC  C21821302   5.716   0.863   8.525  0.6422  0.1001  0.1185
  185SLPC  H18R21303   5.671   0.761   8.523  1.6092 -0.3250 -1.9394
  185SLPC  H18S21304   5.659   0.937   8.585 -0.5684  0.1144 -1.0091
  185SLPC  H18T21305   5.822   0.862   8.558  0.7172  2.4404  0.0624
  185SLPC   C3321306   6.013   1.319   7.238 -0.0227  0.3640 -0.2568
  185SLPC   H3X21307   5.911   1.299   7.200 -1.6603  0.6267  3.5945
  185SLPC   H3Y21308   6.051   1.420   7.210  3.9750 -0.0024  2.8785
  185SLPC   C3421309   6.000   1.330   7.389 -0.0890 -0.2087 -0.8133
  185SLPC   H4X21310   5.942   1.247   7.434 -0.0737  0.4492  0.4749
  185SLPC   H4Y21311   5.932   1.411   7.426 -1.1793 -2.5348  2.8456
  185SLPC   C3521312   6.135   1.344   7.464  0.6502 -0.8509 -0.3618
  185SLPC   H5X21313   6.186   1.412   7.392  0.8374  1.4155  1.7825
  185SLPC   H5Y21314   6.181   1.244   7.481 -1.2631 -1.5667  0.8818
  185SLPC   C3621315   6.127   1.403   7.603 -0.1648 -0.5326 -0.4180
  185SLPC   H6X21316   6.076   1.501   7.596  0.3872 -0.3226 -2.0570
  185SLPC   H6Y21317   6.225   1.431   7.648  0.5498  0.3977 -2.4198
  185SLPC   C3721318   6.046   1.321   7.704  0.1276 -0.3852 -0.0888
  185SLPC   H7X21319   6.101   1.232   7.743  1.6695  1.2171  1.6651
  185SLPC   H7Y21320   5.961   1.300   7.637  2.5326  0.3902 -3.7066
  185SLPC   C3821321   6.004   1.401   7.828 -0.7000 -0.4862  0.3616
  185SLPC   H8X21322   5.925   1.339   7.875  0.2178 -2.7919 -0.9192
  185SLPC   H8Y21323   5.952   1.493   7.794  0.4534  0.3088  0.6816
  185SLPC   C3921324   6.113   1.431   7.932 -0.5194 -1.3212  0.0479
  185SLPC   H9X21325   6.148   1.534   7.905 -2.7540 -0.8396 -1.2452
  185SLPC   H9Y21326   6.204   1.368   7.938  0.0765 -0.3616  1.7938
  185SLPC  C31021327   6.055   1.413   8.069 -0.2408 -0.2818 -0.3755
  185SLPC  H10X21328   5.946   1.395   8.055  0.2033 -1.1046 -3.4822
  185SLPC  H10Y21329   6.067   1.499   8.138 -0.1177 -1.5247  1.2268
  185SLPC  C31121330   6.105   1.290   8.152  0.1142 -0.1859  0.3069
  185SLPC  H11X21331   6.197   1.308   8.211 -1.0898  0.4671  2.0926
  185SLPC  H11Y21332   6.117   1.208   8.078  1.9821  0.1044  0.2446
  185SLPC  C31221333   6.006   1.255   8.260  0.5234  0.1843  0.8289
  185SLPC  H12X21334   6.041   1.164   8.314 -2.4773 -0.1581  2.4315
  185SLPC  H12Y21335   5.913   1.215   8.213  0.3022  2.2904 -0.6751
  185SLPC  C31321336   5.976   1.357   8.370  0.8201  0.1764  0.7786
  185SLPC  H13X21337   5.964   1.458   8.326  3.6476  0.7629  1.2092
  185SLPC  H13Y21338   6.068   1.349   8.430  1.2075 -2.8073 -0.0173
  185SLPC  C31421339   5.852   1.307   8.441  0.5329  0.3895  0.2741
  185SLPC  H14X21340   5.875   1.202   8.470  1.1713  0.1164 -1.1087
  185SLPC  H14Y21341   5.753   1.293   8.393 -1.1186  0.7837  3.2943
  185SLPC  C31521342   5.819   1.399   8.563 -0.6762  0.5496 -0.2600
  185SLPC  H15X21343   5.788   1.498   8.523 -0.1432  1.9040  2.4356
  185SLPC  H15Y21344   5.916   1.412   8.617 -0.5241  2.9733 -0.9897
  185SLPC  C31621345   5.711   1.344   8.648  0.4796 -0.5124 -0.5683
  185SLPC  H16X21346   5.757   1.251   8.689 -0.2693 -0.2790  0.8266
  185SLPC  H16Y21347   5.622   1.319   8.586 -0.2432  1.3033 -0.3011
  185SLPC  C31721348   5.681   1.450   8.762 -0.4322  0.4499  0.2167
  185SLPC  H17X21349   5.592   1.416   8.819 -0.1370  0.9287  0.9841
  185SLPC  H17Y21350   5.653   1.546   8.713 -3.3505  1.1097  2.8349
  185SLPC  C31821351   5.787   1.469   8.868  0.0344 -0.3410 -1.2294
  185SLPC  H18X21352   5.861   1.540   8.827 -0.1620  1.2996  1.0551
  185SLPC  H18Y21353   5.841   1.377   8.898 -0.3949 -0.0871  0.4245
  185SLPC  H18Z21354   5.735   1.508   8.958 -2.7416 -1.2855 -2.3088
  186SLPC     N21355   6.369   3.626   6.367 -0.0814  0.2318 -0.1008
  186SLPC   C1321356   6.251   3.573   6.288  0.1430 -0.5165  0.3527
  186SLPC  H13A21357   6.219   3.479   6.330  0.6108 -1.4399 -1.2611
  186SLPC  H13B21358   6.168   3.639   6.308 -0.1529 -0.5688 -0.6482
  186SLPC  H13C21359   6.263   3.570   6.181  1.6719 -0.8445  0.4993
  186SLPC   C1421360   6.337   3.624   6.514  0.6034 -0.8102  0.0561
  186SLPC  H14A21361   6.328   3.521   6.546 -0.2600 -0.9042 -0.4573
  186SLPC  H14B21362   6.411   3.672   6.576 -0.5371 -0.4447  1.1640
  186SLPC  H14C21363   6.240   3.670   6.529  0.6748  0.1208 -2.0316
  186SLPC   C1521364   6.402   3.767   6.324 -0.1333 -0.2241  0.5346
  186SLPC  H15A21365   6.435   3.773   6.222 -0.7912  1.5831  0.3829
  186SLPC  H15B21366   6.319   3.835   6.341  0.7157  1.0872 -0.3945
  186SLPC  H15C21367   6.493   3.800   6.371  2.0995 -0.9488 -2.9744
  186SLPC   C1221368   6.489   3.540   6.338 -0.1164  0.2164 -0.1076
  186SLPC  H12A21369   6.577   3.598   6.359 -0.3194  0.8142 -0.8481
  186SLPC  H12B21370   6.498   3.532   6.230  1.3332  0.7707 -0.0574
  186SLPC   C1121371   6.496   3.393   6.387  0.4842  0.5618 -0.5541
  186SLPC  H11A21372   6.516   3.384   6.496 -0.6221  0.2921 -0.3574
  186SLPC  H11B21373   6.584   3.346   6.337 -0.1482 -1.2066 -0.1031
  186SLPC     P21374   6.285   3.251   6.438 -0.0387  0.3254 -0.5929
  186SLPC   O1321375   6.260   3.342   6.555 -0.2537  0.5389 -0.5912
  186SLPC   O1421376   6.157   3.207   6.366 -0.0979 -0.3223 -0.5121
  186SLPC   O1221377   6.382   3.316   6.337  0.1065 -0.2024  0.5034
  186SLPC   O1121378   6.371   3.128   6.480  0.2380  0.5052 -0.7161
  186SLPC    C121379   6.303   3.018   6.539 -0.0426  0.2294  0.5017
  186SLPC    HA21380   6.202   3.004   6.497 -0.2050  1.3562  0.4895
  186SLPC    HB21381   6.357   2.923   6.520 -1.1397 -0.8758  2.5608
  186SLPC    C221382   6.293   3.019   6.695  0.0736 -0.0957  0.8924
  186SLPC    HS21383   6.250   2.919   6.714 -2.0114  0.1318 -1.8934
  186SLPC   O2121384   6.202   3.119   6.748 -0.0095  0.0131 -0.4773
  186SLPC   C2121385   6.071   3.116   6.716  0.0371  0.2205  1.0282
  186SLPC   O2221386   6.027   3.044   6.624 -0.1530  0.4163 -0.0437
  186SLPC   C2221387   5.998   3.209   6.810 -0.2036 -0.1932 -0.0342
  186SLPC   H2R21388   6.067   3.276   6.865  1.1165 -0.6654 -1.0834
  186SLPC   H2S21389   5.924   3.267   6.751  1.0646  0.0666 -1.4252
  186SLPC    C321390   6.429   3.022   6.767 -0.8929  0.0302  0.1470
  186SLPC    HX21391   6.486   3.113   6.741  2.9018 -2.6942 -2.1875
  186SLPC    HY21392   6.488   2.940   6.720 -0.7085  1.4069 -2.1651
  186SLPC   O3121393   6.412   2.993   6.902  0.1882  0.3968  0.1060
  186SLPC   C3121394   6.440   3.081   6.987 -0.3369 -0.4592  0.5257
  186SLPC   O3221395   6.462   3.198   6.965 -0.1292  0.0528 -0.4435
  186SLPC   C3221396   6.443   3.005   7.121  0.3275  0.1131 -0.3193
  186SLPC   H2X21397   6.534   2.941   7.123 -1.9148 -3.3280  0.1908
  186SLPC   H2Y21398   6.354   2.939   7.118  1.5047 -1.5222 -1.0859
  186SLPC   C2321399   5.921   3.122   6.917 -0.5955 -0.8905  0.3093
  186SLPC   H3R21400   5.856   3.048   6.865 -1.5597 -0.4621  0.8921
  186SLPC   H3S21401   5.866   3.191   6.984 -0.9611 -0.1184 -0.7625
  186SLPC   C2421402   6.024   3.044   7.007 -0.0222  0.7359 -0.1610
  186SLPC   H4R21403   6.088   3.121   7.054  0.6010 -0.0816  0.3542
  186SLPC   H4S21404   6.083   2.982   6.937 -1.8048 -1.0565 -0.1672
  186SLPC   C2521405   5.956   2.958   7.112 -0.3500  0.8274  0.4300
  186SLPC   H5R21406   5.893   2.884   7.060  1.4509 -0.5130  0.0908
  186SLPC   H5S21407   5.889   3.019   7.177 -0.0588 -0.0210  1.5669
  186SLPC   C2621408   6.063   2.897   7.205  0.8976  0.0924  0.6655
  186SLPC   H6R21409   6.136   2.974   7.239 -2.2577  2.4473  2.7268
  186SLPC   H6S21410   6.117   2.815   7.154  0.5086  0.5311 -0.4809
  186SLPC   C2721411   5.978   2.847   7.326 -0.0412 -0.6934 -0.2975
  186SLPC   H7R21412   6.037   2.769   7.379 -0.7122 -1.7393 -1.0255
  186SLPC   H7S21413   5.890   2.791   7.285 -2.3549  1.3144  1.6012
  186SLPC   C2821414   5.939   2.961   7.433  0.4709  0.5161  0.5763
  186SLPC   H8R21415   5.856   3.021   7.389 -0.4888 -2.7957 -2.6086
  186SLPC   H8S21416   6.027   3.027   7.448 -0.4437  2.2460 -1.2279
  186SLPC   C2921417   5.907   2.904   7.568  0.1259  0.6708 -1.0108
  186SLPC   H9R21418   5.837   2.820   7.575  3.0018 -1.7547  1.9358
  186SLPC  C21021419   5.950   2.937   7.688 -0.0370 -0.1574  0.2267
  186SLPC  H10R21420   5.905   2.891   7.778  1.9097 -2.9480 -0.0861
  186SLPC  C21121421   6.052   3.046   7.719 -0.3538 -0.3115 -0.3567
  186SLPC  H11R21422   6.025   3.066   7.825  0.4391  0.5687 -0.3016
  186SLPC  H11S21423   6.029   3.144   7.672  1.1884 -0.3358 -1.2463
  186SLPC  C21221424   6.201   3.019   7.728 -0.1898  0.2906 -0.1872
  186SLPC  H12R21425   6.253   3.033   7.632 -0.8653 -0.8629 -0.7409
  186SLPC  C21321426   6.276   3.001   7.842  0.5993  1.1214 -0.8148
  186SLPC  H13R21427   6.385   2.987   7.845  0.7725  2.2750 -1.4620
  186SLPC  C21421428   6.223   2.978   7.986  0.1659  0.0036  0.8136
  186SLPC  H14R21429   6.113   2.987   7.995  0.3123  0.1738  2.6803
  186SLPC  H14S21430   6.269   3.057   8.049  1.7387  2.9124 -3.4776
  186SLPC  C21521431   6.247   2.836   8.033  0.4647 -0.5935 -0.9139
  186SLPC  H15R21432   6.216   2.774   7.946  0.1024 -0.1037 -1.1356
  186SLPC  H15S21433   6.183   2.814   8.121 -0.3310  1.7628 -0.8456
  186SLPC  C21621434   6.401   2.813   8.058 -0.4458 -0.8425 -0.0095
  186SLPC  H16R21435   6.434   2.890   8.132 -2.5663 -0.5515  0.6888
  186SLPC  H16S21436   6.456   2.836   7.964 -0.4780  1.2976  0.4366
  186SLPC  C21721437   6.443   2.679   8.109 -0.0157 -0.1567  0.3074
  186SLPC  H17R21438   6.554   2.676   8.112 -0.0306 -1.4498 -0.2390
  186SLPC  H17S21439   6.394   2.598   8.052 -3.1506  1.2520  0.7570
  186SLPC  C21821440   6.404   2.660   8.259  0.4196  0.0138  0.0862
  186SLPC  H18R21441   6.451   2.563   8.289 -4.1147 -2.3965  0.2662
  186SLPC  H18S21442   6.296   2.635   8.263  0.2509  0.4606 -1.2319
  186SLPC  H18T21443   6.442   2.744   8.321 -2.8587  1.7767 -0.0709
  186SLPC   C3321444   6.430   3.099   7.235 -0.0122 -0.0690  0.6617
  186SLPC   H3X21445   6.347   3.169   7.216 -0.9282 -1.4447 -0.5884
  186SLPC   H3Y21446   6.526   3.155   7.237  0.4765 -0.7019 -1.7303
  186SLPC   C3421447   6.422   3.033   7.370  1.0004  0.1776 -0.4751
  186SLPC   H4X21448   6.328   2.974   7.367 -0.0244  1.7760 -0.7254
  186SLPC   H4Y21449   6.406   3.110   7.448 -0.8621  0.4157 -1.0464
  186SLPC   C3521450   6.536   2.934   7.407  0.2734  0.0048 -0.7396
  186SLPC   H5X21451   6.633   2.985   7.389  0.6123  0.4879  2.0788
  186SLPC   H5Y21452   6.532   2.849   7.336  1.2834  0.0063 -0.8142
  186SLPC   C3621453   6.533   2.895   7.554  0.5797 -0.0387  0.5740
  186SLPC   H6X21454   6.438   2.841   7.575 -0.2110  0.3137 -1.7905
  186SLPC   H6Y21455   6.524   2.989   7.612  1.3696  0.8697 -0.7252
  186SLPC   C3721456   6.649   2.805   7.592 -0.1115  0.5391 -0.0806
  186SLPC   H7X21457   6.743   2.855   7.562 -0.1116  0.9697  0.6098
  186SLPC   H7Y21458   6.642   2.712   7.532  3.3986 -0.0014  0.1608
  186SLPC   C3821459   6.666   2.760   7.736  0.7569 -0.2813  0.0041
  186SLPC   H8X21460   6.565   2.744   7.779  0.9242 -1.1996  0.0722
  186SLPC   H8Y21461   6.710   2.840   7.800 -0.0661  0.0338  0.1927
  186SLPC   C3921462   6.753   2.633   7.742  0.2231  0.1188  0.1181
  186SLPC   H9X21463   6.859   2.661   7.723  0.4610 -0.1899  0.8998
  186SLPC   H9Y21464   6.729   2.566   7.657 -1.6150  0.3359  0.4218
  186SLPC  C31021465   6.750   2.552   7.868 -0.6880  0.4831 -0.6704
  186SLPC  H10X21466   6.656   2.495   7.879 -0.7176  0.9590  2.1658
  186SLPC  H10Y21467   6.755   2.620   7.956 -0.0450 -0.3975 -0.0021
  186SLPC  C31121468   6.861   2.449   7.877 -0.1391  0.6772 -0.2053
  186SLPC  H11X21469   6.957   2.502   7.895  1.7930 -2.1831 -1.4358
  186SLPC  H11Y21470   6.875   2.388   7.786 -0.8839 -0.6003  0.5035
  186SLPC  C31221471   6.852   2.346   8.001  0.6685  0.3470 -0.4260
  186SLPC  H12X21472   6.929   2.270   7.975 -0.9483 -0.9982 -1.5037
  186SLPC  H12Y21473   6.753   2.296   8.010  0.3579  1.2510  1.5453
  186SLPC  C31321474   6.899   2.416   8.129 -0.0426 -0.9762  0.6834
  186SLPC  H13X21475   6.954   2.509   8.105  0.4585 -1.4871 -0.2267
  186SLPC  H13Y21476   6.971   2.357   8.190  0.5129 -0.2881  0.7096
  186SLPC  C31421477   6.786   2.451   8.220  0.1862  0.0568 -0.3135
  186SLPC  H14X21478   6.704   2.503   8.165 -3.0560 -1.2893  2.8016
  186SLPC  H14Y21479   6.826   2.530   8.288 -2.4135  1.0053  0.2473
  186SLPC  C31521480   6.742   2.327   8.304 -0.1563 -0.0090  0.2643
  186SLPC  H15X21481   6.833   2.306   8.364  0.4538  1.4859 -0.0849
  186SLPC  H15Y21482   6.720   2.242   8.237 -0.9289 -1.3154  2.1004
  186SLPC  C31621483   6.610   2.336   8.386 -0.1022 -0.0462 -0.1429
  186SLPC  H16X21484   6.582   2.249   8.448 -0.1537 -0.0186 -0.1256
  186SLPC  H16Y21485   6.522   2.355   8.320 -0.1879 -1.2227 -0.3785
  186SLPC  C31721486   6.627   2.452   8.488  0.1542 -0.5507 -0.3680
  186SLPC  H17X21487   6.540   2.520   8.495  1.1860  0.8287 -0.4808
  186SLPC  H17Y21488   6.700   2.532   8.466 -1.6500  0.8956 -1.3245
  186SLPC  C31821489   6.659   2.415   8.632 -0.3074  0.7210 -0.2938
  186SLPC  H18X21490   6.615   2.315   8.654  1.8724 -0.1954  0.1543
  186SLPC  H18Y21491   6.614   2.496   8.694 -0.6546  1.1388 -1.0768
  186SLPC  H18Z21492   6.768   2.404   8.648 -0.5814  0.6924  1.9663
  187SLPC     N21493   3.210   6.407   6.247 -0.1737  0.3186 -0.3909
  187SLPC   C1321494   3.135   6.298   6.178  0.8144 -0.0479 -0.2392
  187SLPC  H13A21495   3.029   6.319   6.166  0.9429  0.8456  0.1081
  187SLPC  H13B21496   3.183   6.283   6.082 -1.3214  2.9869 -2.0042
  187SLPC  H13C21497   3.126   6.214   6.245  1.3395  0.5891  0.6554
  187SLPC   C1421498   3.210   6.535   6.167  0.2759 -0.0355 -0.1697
  187SLPC  H14A21499   3.120   6.595   6.173  2.5582  3.6984  0.0678
  187SLPC  H14B21500   3.274   6.616   6.197 -1.2196  1.0488  0.1968
  187SLPC  H14C21501   3.233   6.507   6.065 -2.5285 -3.6995  0.0007
  187SLPC   C1521502   3.357   6.360   6.262  0.1430  0.0769  0.6182
  187SLPC  H15A21503   3.357   6.266   6.316  1.6785 -0.6914 -0.6464
  187SLPC  H15B21504   3.384   6.328   6.163 -0.6314  0.0641  0.4052
  187SLPC  H15C21505   3.423   6.428   6.315  0.8581  0.0150 -0.1673
  187SLPC   C1221506   3.150   6.422   6.385 -0.1735  0.1342 -0.1135
  187SLPC  H12A21507   3.047   6.456   6.387  0.3758  1.8508  0.7253
  187SLPC  H12B21508   3.211   6.505   6.417 -0.9419  0.5804  0.2469
  187SLPC   C1121509   3.157   6.310   6.491  0.1558 -0.3943 -0.0481
  187SLPC  H11A21510   3.086   6.229   6.463  1.1536 -1.6589  0.9393
  187SLPC  H11B21511   3.124   6.351   6.589 -3.0841 -1.9753 -0.3533
  187SLPC     P21512   3.304   6.119   6.581 -0.4512 -0.0155 -0.1190
  187SLPC   O1321513   3.224   6.007   6.521 -0.3187  0.1112 -0.2953
  187SLPC   O1421514   3.448   6.102   6.600  0.2229 -0.8306 -0.4590
  187SLPC   O1221515   3.286   6.243   6.496 -0.5677 -0.2213 -0.4468
  187SLPC   O1121516   3.243   6.157   6.722  0.5473  0.7083  0.0219
  187SLPC    C121517   3.170   6.044   6.788 -0.1515  0.3365 -0.5948
  187SLPC    HA21518   3.202   5.941   6.761  1.0096  0.4881  0.1353
  187SLPC    HB21519   3.192   6.051   6.896 -0.0891 -3.5437 -0.2164
  187SLPC    C221520   3.012   6.055   6.776 -0.5222 -0.2803 -0.0442
  187SLPC    HS21521   2.994   6.015   6.674 -1.0169  0.1218 -0.1174
  187SLPC   O2121522   2.950   6.184   6.805 -0.2299 -0.1115  0.3436
  187SLPC   C2121523   2.824   6.203   6.762 -0.5761  0.0736  0.0641
  187SLPC   O2221524   2.759   6.119   6.703  0.2704 -0.3374 -0.5202
  187SLPC   C2221525   2.790   6.350   6.790 -0.6568  0.0052 -0.6763
  187SLPC   H2R21526   2.786   6.365   6.900 -1.4162 -1.6335 -0.4479
  187SLPC   H2S21527   2.881   6.401   6.752 -1.6810  2.3397 -0.1520
  187SLPC    C321528   2.949   5.949   6.876  0.1730 -0.3703 -0.6893
  187SLPC    HX21529   2.962   5.840   6.854 -1.4773 -0.7996  0.3046
  187SLPC    HY21530   2.838   5.948   6.871  0.2252 -1.2954 -2.2797
  187SLPC   O3121531   2.991   5.977   7.013 -0.0840 -0.0688  0.0321
  187SLPC   C3121532   2.925   6.054   7.088 -0.6745 -0.1929  0.3440
  187SLPC   O3221533   2.818   6.108   7.066 -0.2767 -0.2461  0.7404
  187SLPC   C3221534   3.014   6.100   7.205  0.4973  0.2749 -0.1337
  187SLPC   H2X21535   3.103   6.154   7.168  0.4202  1.8533  1.8465
  187SLPC   H2Y21536   3.056   6.011   7.257  1.7945  0.2481 -1.1992
  187SLPC   C2321537   2.651   6.394   6.746  0.8127  0.2279 -0.1549
  187SLPC   H3R21538   2.642   6.365   6.639  0.9482  3.0379 -1.0117
  187SLPC   H3S21539   2.649   6.504   6.759 -0.4436  0.4361 -1.8480
  187SLPC   C2421540   2.520   6.352   6.816  0.0078  0.5725  0.0642
  187SLPC   H4R21541   2.480   6.255   6.780 -0.0058  0.4142  0.4986
  187SLPC   H4S21542   2.440   6.426   6.795 -0.1509 -0.0990 -1.8681
  187SLPC   C2521543   2.550   6.346   6.966  0.7716 -0.2672  0.3486
  187SLPC   H5R21544   2.576   6.450   6.996 -2.2269  0.2983  1.3784
  187SLPC   H5S21545   2.629   6.275   6.997  1.0087  0.1899  0.8080
  187SLPC   C2621546   2.429   6.300   7.054 -0.5692  0.6908 -0.1019
  187SLPC   H6R21547   2.409   6.192   7.038  0.4011  0.4225  0.4579
  187SLPC   H6S21548   2.339   6.348   7.008 -2.0748 -0.8575  1.1042
  187SLPC   C2721549   2.437   6.337   7.203 -0.2463 -0.2008 -0.0284
  187SLPC   H7R21550   2.340   6.370   7.246  0.0322  1.0514 -0.3129
  187SLPC   H7S21551   2.512   6.418   7.218 -1.1412  0.2891  2.2302
  187SLPC   C2821552   2.483   6.215   7.283  0.7609 -0.4010  0.4179
  187SLPC   H8R21553   2.575   6.160   7.253  1.2163  0.9682 -0.7979
  187SLPC   H8S21554   2.398   6.145   7.267  0.5506 -0.4114  1.5326
  187SLPC   C2921555   2.483   6.256   7.424 -0.4456 -0.4290 -0.9387
  187SLPC   H9R21556   2.581   6.295   7.456 -2.7172  4.0623  1.5153
  187SLPC  C21021557   2.402   6.238   7.526 -0.6836  0.0926  0.3884
  187SLPC  H10R21558   2.428   6.286   7.622  3.1261  1.5628 -1.1905
  187SLPC  C21121559   2.276   6.160   7.511 -0.2136  0.0343  0.5545
  187SLPC  H11R21560   2.300   6.052   7.494 -0.8370  0.1661 -1.4878
  187SLPC  H11S21561   2.233   6.190   7.413 -1.7261 -0.8309  0.9168
  187SLPC  C21221562   2.165   6.180   7.604  0.7657  0.7311 -0.9386
  187SLPC  H12R21563   2.091   6.258   7.580  0.4806  0.4639 -0.9413
  187SLPC  C21321564   2.143   6.095   7.709  0.0687 -0.2374 -0.2284
  187SLPC  H13R21565   2.051   6.112   7.767  0.2917  1.7802 -0.4098
  187SLPC  C21421566   2.221   5.966   7.751 -0.0440 -0.3234  0.3063
  187SLPC  H14R21567   2.260   5.917   7.659  0.2284  0.9066 -0.2511
  187SLPC  H14S21568   2.142   5.898   7.788 -1.0736  0.8996  0.4175
  187SLPC  C21521569   2.328   6.004   7.850 -1.2392 -1.0344  0.0046
  187SLPC  H15R21570   2.285   6.069   7.930 -1.0040  0.7028 -1.2087
  187SLPC  H15S21571   2.406   6.067   7.801 -1.4529 -0.4423  0.4111
  187SLPC  C21621572   2.383   5.886   7.910 -0.2393  0.5861 -0.1708
  187SLPC  H16R21573   2.409   5.802   7.842 -1.3148 -0.9480  1.2009
  187SLPC  H16S21574   2.310   5.829   7.972  1.0899 -0.1534  0.7797
  187SLPC  C21721575   2.509   5.902   7.996 -0.1628  0.3336  0.0105
  187SLPC  H17R21576   2.601   5.913   7.935 -0.9756  0.2010 -1.2572
  187SLPC  H17S21577   2.526   5.813   8.060 -0.9011 -0.2452 -0.5801
  187SLPC  C21821578   2.502   6.020   8.090 -0.5052  0.5404 -0.2156
  187SLPC  H18R21579   2.416   5.997   8.157 -0.5064 -1.7213 -0.9069
  187SLPC  H18S21580   2.483   6.117   8.039  0.2717  0.7865 -0.0487
  187SLPC  H18T21581   2.590   6.039   8.155 -0.6608 -2.7028  1.1372
  187SLPC   C3321582   2.949   6.196   7.308 -0.2628  0.0694  0.4259
  187SLPC   H3X21583   2.857   6.144   7.342  1.2187 -2.4421  0.8090
  187SLPC   H3Y21584   2.933   6.294   7.257  3.2078  0.2149 -0.6143
  187SLPC   C3421585   3.042   6.220   7.431 -0.5314 -0.4868  0.6385
  187SLPC   H4X21586   3.148   6.246   7.409 -0.4079 -1.2120  0.3589
  187SLPC   H4Y21587   3.045   6.127   7.492  1.3820  0.1438  1.5906
  187SLPC   C3521588   2.985   6.315   7.528 -0.3466  0.3266 -0.6642
  187SLPC   H5X21589   2.954   6.408   7.477  1.5648  0.9541 -0.7562
  187SLPC   H5Y21590   3.070   6.342   7.595 -1.0587 -1.1264  0.8810
  187SLPC   C3621591   2.864   6.262   7.601  0.4932  0.4040  0.1325
  187SLPC   H6X21592   2.873   6.156   7.633 -1.3617  0.6075  1.5255
  187SLPC   H6Y21593   2.782   6.274   7.526 -0.0658 -1.1373  0.4690
  187SLPC   C3721594   2.826   6.341   7.722  0.3331 -0.3718  0.1994
  187SLPC   H7X21595   2.908   6.319   7.793  0.8734 -1.3668 -0.7127
  187SLPC   H7Y21596   2.821   6.451   7.708 -0.4572 -0.6991 -2.7280
  187SLPC   C3821597   2.687   6.300   7.784 -0.3234 -0.3678  0.2151
  187SLPC   H8X21598   2.677   6.190   7.795 -1.1299 -0.2528  0.7049
  187SLPC   H8Y21599   2.610   6.333   7.711 -0.6233 -3.0336 -0.7700
  187SLPC   C3921600   2.659   6.374   7.918  0.2520 -0.2626 -0.1896
  187SLPC   H9X21601   2.558   6.336   7.948 -0.2215 -0.8066 -2.3391
  187SLPC   H9Y21602   2.660   6.484   7.904  1.3740 -0.2947 -0.4322
  187SLPC  C31021603   2.763   6.344   8.024 -0.4209 -0.7082 -1.0062
  187SLPC  H10X21604   2.845   6.417   8.012 -0.5722 -0.6299 -1.6052
  187SLPC  H10Y21605   2.813   6.246   8.009  2.9776  0.6305  0.6442
  187SLPC  C31121606   2.716   6.359   8.168 -0.4908 -0.3193 -0.3022
  187SLPC  H11X21607   2.634   6.286   8.186  0.7684 -1.2909  1.8016
  187SLPC  H11Y21608   2.685   6.465   8.185 -1.0908  0.0674 -3.2212
  187SLPC  C31221609   2.825   6.316   8.282  0.5612 -0.6090  0.1096
  187SLPC  H12X21610   2.908   6.390   8.282  1.0224 -1.1067  1.0644
  187SLPC  H12Y21611   2.848   6.212   8.251 -1.3193 -0.8543 -0.6094
  187SLPC  C31321612   2.774   6.315   8.430 -0.7826  0.1817  0.0892
  187SLPC  H13X21613   2.747   6.420   8.454 -1.5167 -0.0016  0.0697
  187SLPC  H13Y21614   2.865   6.286   8.487 -0.6243 -0.5306 -0.5131
  187SLPC  C31421615   2.663   6.209   8.461 -0.4833 -0.1753  0.5583
  187SLPC  H14X21616   2.566   6.237   8.416  0.2246 -0.0295 -0.9337
  187SLPC  H14Y21617   2.648   6.212   8.571  0.3594 -0.0668  0.6737
  187SLPC  C31521618   2.699   6.071   8.425  0.0880  0.3056 -0.0433
  187SLPC  H15X21619   2.796   6.042   8.470  1.1583  0.9443 -1.8607
  187SLPC  H15Y21620   2.719   6.049   8.318 -0.2680  0.6795 -0.1905
  187SLPC  C31621621   2.587   5.988   8.479 -0.1375 -0.6104  0.1841
  187SLPC  H16X21622   2.487   6.018   8.441 -0.2759 -0.7466  0.4418
  187SLPC  H16Y21623   2.595   6.010   8.588 -0.7401  1.3344 -0.1196
  187SLPC  C31721624   2.599   5.828   8.452 -0.4740 -0.4580  0.2025
  187SLPC  H17X21625   2.690   5.778   8.490 -0.3480 -0.5217 -0.1817
  187SLPC  H17Y21626   2.605   5.813   8.342  1.4581 -0.4585  0.2828
  187SLPC  C31821627   2.486   5.755   8.507  0.1554  0.5153 -0.4044
  187SLPC  H18X21628   2.481   5.770   8.617  0.5890  1.4167 -0.4994
  187SLPC  H18Y21629   2.492   5.645   8.493  1.1101  0.5804 -0.5264
  187SLPC  H18Z21630   2.384   5.771   8.466  0.2115  1.4862 -0.1783
  188SLPC     N21631   1.037   1.420   6.226  0.8808  0.3345 -0.2798
  188SLPC   C1321632   1.045   1.496   6.101  0.0001  0.4738  0.5681
  188SLPC  H13A21633   0.985   1.585   6.100  1.0220  1.1744  0.1309
  188SLPC  H13B21634   1.141   1.545   6.088 -1.0996  2.6928  0.4725
  188SLPC  H13C21635   1.025   1.428   6.020 -2.3836  1.7718 -0.0047
  188SLPC   C1421636   1.111   1.295   6.202 -0.0909  0.8742 -0.0501
  188SLPC  H14A21637   1.207   1.308   6.153  1.4638  1.0340  2.8202
  188SLPC  H14B21638   1.144   1.253   6.295  1.2407 -3.1783 -2.1139
  188SLPC  H14C21639   1.048   1.215   6.166 -1.1455 -0.3106  3.9716
  188SLPC   C1521640   0.892   1.374   6.245  0.0239 -0.2928 -0.3664
  188SLPC  H15A21641   0.831   1.463   6.258  0.3574 -0.3189  1.6460
  188SLPC  H15B21642   0.852   1.325   6.158  0.3357  0.7031 -1.1028
  188SLPC  H15C21643   0.891   1.302   6.326 -0.3177 -1.3850 -1.3214
  188SLPC   C1221644   1.093   1.498   6.344  0.6424  0.2581 -0.2260
  188SLPC  H12A21645   1.055   1.599   6.338 -2.5979 -0.7799  0.8695
  188SLPC  H12B21646   1.199   1.510   6.324  0.5401  1.1790 -0.2539
  188SLPC   C1121647   1.068   1.442   6.483  0.1479  0.6745  0.1968
  188SLPC  H11A21648   0.959   1.418   6.491  0.3155 -0.3509 -0.3505
  188SLPC  H11B21649   1.091   1.519   6.560 -0.3475 -0.3247  1.3873
  188SLPC     P21650   1.301   1.342   6.512  0.0965  0.2290  0.1301
  188SLPC   O1321651   1.357   1.242   6.420 -0.3061  0.0593  0.1113
  188SLPC   O1421652   1.349   1.480   6.495  0.4191 -0.3081  0.1074
  188SLPC   O1221653   1.145   1.324   6.504 -1.0040  0.0690 -0.0663
  188SLPC   O1121654   1.338   1.297   6.663  0.0502 -0.4216 -0.6223
  188SLPC    C121655   1.303   1.166   6.714 -0.5634  0.3947 -0.7127
  188SLPC    HA21656   1.196   1.144   6.695 -1.3100  0.9330  2.3834
  188SLPC    HB21657   1.364   1.090   6.660  0.2346  1.3135 -1.1325
  188SLPC    C221658   1.311   1.171   6.866  0.1193  0.0194  0.1634
  188SLPC    HS21659   1.417   1.200   6.884 -0.1663  2.5756 -1.6871
  188SLPC   O2121660   1.271   1.049   6.926 -0.0347  0.1418  0.6823
  188SLPC   C2121661   1.372   0.961   6.935  0.8655 -0.2279  0.1900
  188SLPC   O2221662   1.480   0.974   6.882 -0.4524 -0.3190  0.2063
  188SLPC   C2221663   1.330   0.862   7.045 -0.5757 -0.4241  0.4033
  188SLPC   H2R21664   1.259   0.919   7.108 -2.6579 -2.0102 -0.3767
  188SLPC   H2S21665   1.277   0.776   6.997 -0.7931 -1.1240  1.8508
  188SLPC    C321666   1.223   1.290   6.915 -0.3158 -0.2765 -0.7176
  188SLPC    HX21667   1.146   1.297   6.836  0.4289  0.1141 -1.4261
  188SLPC    HY21668   1.283   1.383   6.918  2.4845 -1.9837 -0.4795
  188SLPC   O3121669   1.161   1.267   7.043  0.4020 -0.1083  0.1867
  188SLPC   C3121670   1.244   1.257   7.146 -0.9923 -0.1923 -0.1263
  188SLPC   O3221671   1.365   1.278   7.144  0.2919  0.6116 -0.1552
  188SLPC   C3221672   1.159   1.229   7.273 -0.4687  0.2997 -0.4324
  188SLPC   H2X21673   1.095   1.139   7.265  0.7460 -0.5897 -0.5089
  188SLPC   H2Y21674   1.098   1.319   7.295  0.6427  0.8421  0.5440
  188SLPC   C2321675   1.455   0.809   7.124 -1.2212 -0.6402 -0.1648
  188SLPC   H3R21676   1.538   0.769   7.062  0.3192  1.1149  0.6704
  188SLPC   H3S21677   1.414   0.719   7.175 -0.5503  0.2066  1.9455
  188SLPC   C2421678   1.500   0.909   7.230  0.0787 -0.2208 -0.7058
  188SLPC   H4R21679   1.411   0.956   7.278  2.1815  3.5898 -0.0666
  188SLPC   H4S21680   1.556   0.990   7.179  1.9845 -2.4029 -2.2758
  188SLPC   C2521681   1.588   0.855   7.338 -0.0859 -0.2280 -1.0860
  188SLPC   H5R21682   1.669   0.785   7.306 -0.3573 -1.0353 -0.0740
  188SLPC   H5S21683   1.517   0.797   7.401  0.1961  1.3704  0.8219
  188SLPC   C2621684   1.655   0.969   7.415  0.0178 -0.2853 -0.9548
  188SLPC   H6R21685   1.580   1.051   7.428  0.2165 -0.4043  1.3476
  188SLPC   H6S21686   1.734   1.003   7.345  0.7953  0.8534  0.4199
  188SLPC   C2721687   1.719   0.929   7.548  0.6551  0.0030  0.3096
  188SLPC   H7R21688   1.779   1.017   7.577 -1.5439  2.0381 -0.9702
  188SLPC   H7S21689   1.789   0.847   7.522  2.8894  2.3570 -1.6496
  188SLPC   C2821690   1.624   0.880   7.656  0.4680  0.1629  0.4995
  188SLPC   H8R21691   1.689   0.868   7.745 -0.7911 -1.5472  1.2421
  188SLPC   H8S21692   1.600   0.773   7.637  2.1623 -0.3598  1.1659
  188SLPC   C2921693   1.497   0.959   7.682 -0.4097  0.1671 -0.2109
  188SLPC   H9R21694   1.443   1.001   7.596  0.3512 -0.9823 -1.2836
  188SLPC  C21021695   1.454   0.985   7.810 -0.1791 -0.5940 -0.1769
  188SLPC  H10R21696   1.368   1.052   7.824  1.1130  1.0923  0.1351
  188SLPC  C21121697   1.511   0.944   7.946 -0.5405 -0.3876 -0.0217
  188SLPC  H11R21698   1.619   0.916   7.940 -0.4857 -0.4879  1.1265
  188SLPC  H11S21699   1.454   0.858   7.987 -0.2076 -0.2570  0.7375
  188SLPC  C21221700   1.512   1.060   8.050 -0.2554  0.1982 -0.1349
  188SLPC  H12R21701   1.596   1.131   8.054  0.4438 -0.5647 -0.8214
  188SLPC  C21321702   1.411   1.078   8.140  0.1394  0.0011  0.0539
  188SLPC  H13R21703   1.429   1.147   8.224 -1.6705 -1.0812  1.3947
  188SLPC  C21421704   1.290   0.997   8.157  0.1443 -0.5010 -0.1379
  188SLPC  H14R21705   1.263   0.950   8.060  0.1240  0.0031 -0.3789
  188SLPC  H14S21706   1.203   1.062   8.181 -0.3839 -1.2642  0.0747
  188SLPC  C21521707   1.307   0.895   8.273  0.5776  0.7193  0.3948
  188SLPC  H15R21708   1.404   0.843   8.255 -0.0472  0.2226 -1.9145
  188SLPC  H15S21709   1.219   0.830   8.253  0.9336  0.8648 -2.0133
  188SLPC  C21621710   1.321   0.967   8.411 -0.3467 -0.1067  0.3677
  188SLPC  H16R21711   1.246   1.049   8.402  0.5135  0.8845  1.7585
  188SLPC  H16S21712   1.420   1.017   8.420  0.2436 -0.5455 -2.6898
  188SLPC  C21721713   1.285   0.872   8.524 -0.6139 -0.0369  0.5115
  188SLPC  H17R21714   1.382   0.859   8.576 -0.9305  0.6733  1.3075
  188SLPC  H17S21715   1.255   0.774   8.480  0.2869  0.7460 -2.0133
  188SLPC  C21821716   1.185   0.930   8.622  0.1902 -0.0879  0.1764
  188SLPC  H18R21717   1.089   0.955   8.572 -1.2614 -0.7590  2.4947
  188SLPC  H18S21718   1.231   1.020   8.668 -0.4559 -0.7571  2.2438
  188SLPC  H18T21719   1.160   0.854   8.698  2.8409 -1.3496 -0.1020
  188SLPC   C3321720   1.249   1.204   7.402 -0.1463  0.2181  1.2125
  188SLPC   H3X21721   1.326   1.132   7.367 -0.3048  0.2388  0.8139
  188SLPC   H3Y21722   1.187   1.164   7.485 -1.0979 -0.1206  0.3577
  188SLPC   C3421723   1.318   1.338   7.442 -0.2342  0.1272  0.3803
  188SLPC   H4X21724   1.237   1.415   7.447  0.0339  0.5237 -0.9403
  188SLPC   H4Y21725   1.396   1.368   7.369 -0.0270  0.7963  0.8604
  188SLPC   C3521726   1.372   1.338   7.588  0.3758 -0.3370  0.5409
  188SLPC   H5X21727   1.452   1.262   7.594 -0.3982 -1.2676 -0.4932
  188SLPC   H5Y21728   1.284   1.302   7.644 -0.7455 -0.9428 -1.5124
  188SLPC   C3621729   1.423   1.470   7.655  0.7210 -0.3252  0.0792
  188SLPC   H6X21730   1.340   1.544   7.656  1.4100  0.4723 -0.4816
  188SLPC   H6Y21731   1.501   1.521   7.595  1.0205  2.1344  2.3537
  188SLPC   C3721732   1.466   1.462   7.805  0.8013  0.7614  0.0410
  188SLPC   H7X21733   1.559   1.517   7.829  1.4839 -0.3055 -0.0744
  188SLPC   H7Y21734   1.498   1.357   7.825 -0.4491  0.6621  1.8477
  188SLPC   C3821735   1.351   1.476   7.904 -0.4726  0.2221 -0.0238
  188SLPC   H8X21736   1.270   1.401   7.887 -1.1651  0.1621  2.9615
  188SLPC   H8Y21737   1.307   1.576   7.885  0.7427  0.8214  0.2342
  188SLPC   C3921738   1.377   1.464   8.058 -0.3506 -0.1757  0.7751
  188SLPC   H9X21739   1.418   1.363   8.081  0.8657 -0.3204 -1.6306
  188SLPC   H9Y21740   1.289   1.495   8.118 -0.4815 -1.6854  1.4072
  188SLPC  C31021741   1.493   1.548   8.101 -0.6846  0.7893 -0.2958
  188SLPC  H10X21742   1.472   1.652   8.070  0.0218  1.1051  0.2712
  188SLPC  H10Y21743   1.591   1.530   8.052  0.5179  3.5159  0.9076
  188SLPC  C31121744   1.506   1.553   8.254  0.1722  0.3933 -0.6391
  188SLPC  H11X21745   1.419   1.605   8.297  0.1062 -2.2416  2.9093
  188SLPC  H11Y21746   1.598   1.608   8.284 -0.0332 -0.6063  2.1446
  188SLPC  C31221747   1.512   1.406   8.316  0.6955 -0.3774 -0.3513
  188SLPC  H12X21748   1.598   1.348   8.277  0.6646 -0.7027  0.0611
  188SLPC  H12Y21749   1.415   1.357   8.292  0.1083  0.6863 -0.1984
  188SLPC  C31321750   1.516   1.419   8.467 -0.0198  0.4723 -0.0661
  188SLPC  H13X21751   1.418   1.465   8.490 -0.8953 -1.6908  0.7686
  188SLPC  H13Y21752   1.597   1.483   8.509 -0.3149 -0.7255  2.5358
  188SLPC  C31421753   1.533   1.294   8.556  0.6923  0.6651  1.1097
  188SLPC  H14X21754   1.449   1.228   8.526  1.5417  0.8042 -1.8249
  188SLPC  H14Y21755   1.525   1.336   8.659  0.6483 -0.2462  1.4839
  188SLPC  C31521756   1.660   1.222   8.541 -0.0338  0.4135 -0.7303
  188SLPC  H15X21757   1.744   1.289   8.572  0.1914 -0.4720  0.6697
  188SLPC  H15Y21758   1.664   1.197   8.433  1.7536 -0.3726 -0.5321
  188SLPC  C31621759   1.661   1.098   8.628  0.0324 -0.4246  0.0427
  188SLPC  H16X21760   1.580   1.023   8.615 -0.1441  0.2073 -3.4933
  188SLPC  H16Y21761   1.658   1.135   8.733  1.0818  3.7472 -1.2038
  188SLPC  C31721762   1.787   1.009   8.599  0.1840  0.3849  0.4645
  188SLPC  H17X21763   1.778   0.965   8.498  0.9065  0.0467  0.5417
  188SLPC  H17Y21764   1.777   0.925   8.671  0.1533  0.5025  0.5994
  188SLPC  C31821765   1.927   1.069   8.625  0.2631  0.2404 -0.5414
  188SLPC  H18X21766   1.934   1.122   8.723  0.2846  2.7016 -1.7804
  188SLPC  H18Y21767   1.944   1.154   8.555 -0.7538  1.3221  0.4682
  188SLPC  H18Z21768   2.013   0.999   8.622 -0.3409 -0.6825  1.8346
  189SLPC     N21769   3.928   5.343   6.700  0.2090  0.0692  0.3003
  189SLPC   C1321770   4.047   5.366   6.785 -0.2763 -0.0832  0.4203
  189SLPC  H13A21771   4.136   5.392   6.729  0.7575 -2.2602  0.9346
  189SLPC  H13B21772   4.022   5.448   6.850 -0.4287  0.7213 -0.6292
  189SLPC  H13C21773   4.078   5.286   6.851  1.2824 -1.3054 -1.6339
  189SLPC   C1421774   3.893   5.465   6.628  0.1089 -0.6838 -0.4306
  189SLPC  H14A21775   3.834   5.450   6.539  0.2275 -4.1121 -0.0595
  189SLPC  H14B21776   3.856   5.548   6.686 -0.1815 -1.0920 -0.0257
  189SLPC  H14C21777   3.985   5.505   6.587  1.9486 -2.4969  1.6135
  189SLPC   C1521778   3.809   5.308   6.793 -0.1017 -0.7108 -0.1056
  189SLPC  H15A21779   3.813   5.202   6.814  0.1480 -1.0124 -1.5970
  189SLPC  H15B21780   3.811   5.367   6.883  1.2700 -2.1208  0.8562
  189SLPC  H15C21781   3.721   5.322   6.733  0.9367 -0.5866 -1.6574
  189SLPC   C1221782   3.960   5.235   6.604  0.7042  0.0570 -0.1211
  189SLPC  H12A21783   4.003   5.154   6.661 -1.4878 -0.4504  0.9028
  189SLPC  H12B21784   4.039   5.272   6.539  2.3046  0.1983  1.8157
  189SLPC   C1121785   3.844   5.187   6.521 -0.1570  0.3902  0.1519
  189SLPC  H11A21786   3.824   5.258   6.438 -0.0708  1.0768  0.7135
  189SLPC  H11B21787   3.754   5.183   6.586  0.1284  0.9999  0.6028
  189SLPC     P21788   3.903   4.924   6.528 -0.2961  0.1999  0.0253
  189SLPC   O1321789   3.860   4.806   6.446 -0.1176  0.2721 -0.0015
  189SLPC   O1421790   4.044   4.935   6.566 -0.6067 -0.1839  0.2314
  189SLPC   O1221791   3.869   5.058   6.459  0.5779  0.7973  0.1640
  189SLPC   O1121792   3.818   4.922   6.655 -0.0643  0.0168 -0.2669
  189SLPC    C121793   3.778   4.805   6.728 -0.4589  0.5386  0.3950
  189SLPC    HA21794   3.693   4.760   6.672  0.1596  0.4792 -0.5126
  189SLPC    HB21795   3.864   4.737   6.743 -0.8250 -0.4661 -1.6953
  189SLPC    C221796   3.720   4.848   6.867 -0.2732 -0.1931 -1.2072
  189SLPC    HS21797   3.691   4.954   6.850 -0.0620  0.5582  2.3000
  189SLPC   O2121798   3.822   4.838   6.974  0.2621  0.1812  0.1545
  189SLPC   C2121799   3.884   4.953   7.003  0.6393  0.4819  0.1753
  189SLPC   O2221800   3.871   5.058   6.940  0.3246  0.4442  0.0812
  189SLPC   C2221801   3.977   4.937   7.127  0.1598  0.2307  0.6684
  189SLPC   H2R21802   3.956   4.834   7.164  0.1278 -0.0016  0.0237
  189SLPC   H2S21803   4.077   4.965   7.087 -0.3824  1.3639  0.0677
  189SLPC    C321804   3.589   4.782   6.909  0.7049  0.1290 -0.5902
  189SLPC    HX21805   3.610   4.672   6.908  0.9747  0.0997  1.6998
  189SLPC    HY21806   3.501   4.802   6.844 -2.6274  1.9152  3.9409
  189SLPC   O3121807   3.549   4.824   7.040  0.2600  0.9363 -0.3364
  189SLPC   C3121808   3.509   4.730   7.132 -0.0938 -0.3029  0.7366
  189SLPC   O3221809   3.461   4.627   7.094 -0.4105 -0.2748 -0.1393
  189SLPC   C3221810   3.521   4.779   7.273  0.2477  1.2243  1.1932
  189SLPC   H2X21811   3.420   4.804   7.312 -0.5036 -0.6810  0.5917
  189SLPC   H2Y21812   3.588   4.867   7.276  1.6617  0.2884 -0.8951
  189SLPC   C2321813   3.964   5.046   7.235  0.5069 -0.1454 -0.6487
  189SLPC   H3R21814   3.866   5.098   7.221 -1.8949 -3.6147  1.6221
  189SLPC   H3S21815   4.042   5.123   7.214 -0.2055  0.9165  0.4383
  189SLPC   C2421816   3.983   4.982   7.379  0.0735 -0.4034  0.3927
  189SLPC   H4R21817   4.073   4.916   7.373  1.2125  1.0785  0.5054
  189SLPC   H4S21818   3.896   4.922   7.412 -1.4936  1.3729 -0.3329
  189SLPC   C2521819   4.018   5.086   7.487 -0.0452 -0.0026  0.7939
  189SLPC   H5R21820   3.929   5.151   7.497  0.4725  1.7524 -3.6610
  189SLPC   H5S21821   4.107   5.141   7.449 -0.5273 -0.6297 -1.4068
  189SLPC   C2621822   4.047   5.009   7.619  0.6133 -0.5325 -0.1458
  189SLPC   H6R21823   4.152   4.974   7.628  0.4444 -0.7503  1.2818
  189SLPC   H6S21824   3.988   4.916   7.636  1.9921 -1.0171  2.7511
  189SLPC   C2721825   4.030   5.097   7.749 -0.8138 -0.2031 -0.3625
  189SLPC   H7R21826   3.927   5.138   7.760 -0.0156  1.9198 -0.3723
  189SLPC   H7S21827   4.095   5.187   7.741  0.3387 -0.9990 -0.1629
  189SLPC   C2821828   4.059   5.023   7.883  0.0433 -0.1289 -0.2980
  189SLPC   H8R21829   4.078   5.101   7.960  1.2940  0.3525 -1.0581
  189SLPC   H8S21830   4.158   4.973   7.868 -0.4679 -0.7655 -1.7287
  189SLPC   C2921831   3.970   4.907   7.928  0.2426 -0.0499 -0.5843
  189SLPC   H9R21832   3.970   4.814   7.869 -1.4166 -0.1533 -0.4920
  189SLPC  C21021833   3.893   4.899   8.035 -0.1799  0.0573  0.7952
  189SLPC  H10R21834   3.834   4.807   8.046  1.0298 -1.0166 -1.1095
  189SLPC  C21121835   3.872   5.004   8.141  0.6266  0.2362  0.8426
  189SLPC  H11R21836   3.769   5.043   8.134  1.3066  1.9491 -0.1400
  189SLPC  H11S21837   3.931   5.091   8.105  2.2924 -1.3625 -0.5578
  189SLPC  C21221838   3.898   4.952   8.276  0.9235  0.2773 -0.3451
  189SLPC  H12R21839   3.811   4.930   8.339  1.0779 -0.9377 -0.5198
  189SLPC  C21321840   4.019   4.951   8.342  0.2569  0.2496 -0.1062
  189SLPC  H13R21841   4.032   4.891   8.433 -0.2134  2.4154  1.4698
  189SLPC  C21421842   4.148   4.992   8.282 -0.1855 -0.1326 -0.0814
  189SLPC  H14R21843   4.138   5.036   8.181  2.2247  2.6120  0.7426
  189SLPC  H14S21844   4.214   4.903   8.277 -0.0068 -0.1212  1.5348
  189SLPC  C21521845   4.230   5.095   8.364 -0.5309 -0.1290  0.9450
  189SLPC  H15R21846   4.268   5.047   8.457  0.7199  2.6604  1.9782
  189SLPC  H15S21847   4.167   5.185   8.385 -0.9861 -0.0641 -0.6001
  189SLPC  C21621848   4.359   5.134   8.284 -0.1234 -0.9203 -0.5368
  189SLPC  H16R21849   4.327   5.151   8.179 -0.2107 -1.7087 -0.6465
  189SLPC  H16S21850   4.431   5.049   8.282  0.7120 -0.2242 -1.8372
  189SLPC  C21721851   4.432   5.262   8.344 -0.0799  0.5390  0.5215
  189SLPC  H17R21852   4.346   5.316   8.388 -0.1758 -0.0640  1.0911
  189SLPC  H17S21853   4.473   5.315   8.255 -0.3815 -1.0142 -0.5815
  189SLPC  C21821854   4.533   5.218   8.442  0.2615  0.3324 -0.2669
  189SLPC  H18R21855   4.630   5.193   8.393 -0.3177 -0.3685 -1.0882
  189SLPC  H18S21856   4.497   5.137   8.508  1.2615 -1.6118 -1.9831
  189SLPC  H18T21857   4.557   5.300   8.513 -4.9798  0.9223  1.2383
  189SLPC   C3321858   3.596   4.666   7.355  0.2780  0.4843  0.2056
  189SLPC   H3X21859   3.693   4.673   7.302  0.8219  3.9116  1.3953
  189SLPC   H3Y21860   3.559   4.561   7.347  1.2397  0.1454 -0.0221
  189SLPC   C3421861   3.612   4.706   7.499  0.8434  0.3114  0.1824
  189SLPC   H4X21862   3.513   4.702   7.550 -0.5345  0.4727 -2.3127
  189SLPC   H4Y21863   3.624   4.816   7.497  0.1574  0.4403  1.6187
  189SLPC   C3521864   3.733   4.629   7.555  0.0953 -0.8462  0.3508
  189SLPC   H5X21865   3.824   4.635   7.492  0.8698  0.9211  1.5475
  189SLPC   H5Y21866   3.695   4.525   7.560 -1.5748 -0.2682  0.1117
  189SLPC   C3621867   3.791   4.688   7.693 -0.1037 -0.1564 -0.2124
  189SLPC   H6X21868   3.779   4.799   7.692 -3.5475 -0.4470 -1.2791
  189SLPC   H6Y21869   3.900   4.679   7.674 -0.0532  0.0603 -0.0300
  189SLPC   C3721870   3.738   4.629   7.816  0.0574  0.5932 -0.3128
  189SLPC   H7X21871   3.805   4.667   7.896  0.5861  2.2455 -1.4879
  189SLPC   H7Y21872   3.753   4.519   7.822  3.3370  1.0302  2.6867
  189SLPC   C3821873   3.594   4.685   7.844  0.4203 -0.0508 -0.0247
  189SLPC   H8X21874   3.520   4.605   7.825 -0.7542  1.1591 -0.7422
  189SLPC   H8Y21875   3.568   4.782   7.796 -0.1290  0.9395  2.1341
  189SLPC   C3921876   3.563   4.733   7.987  0.5987 -0.2574  0.0640
  189SLPC   H9X21877   3.457   4.768   7.996  0.8884  1.3625 -2.0354
  189SLPC   H9Y21878   3.634   4.809   8.025  0.2376 -0.8350  2.0042
  189SLPC  C31021879   3.561   4.612   8.084  0.2710 -0.0499 -0.0559
  189SLPC  H10X21880   3.658   4.559   8.092  0.1834  0.0136  1.8164
  189SLPC  H10Y21881   3.489   4.542   8.037  1.3455 -0.8459 -0.5683
  189SLPC  C31121882   3.527   4.655   8.227  0.7015  0.3426  0.6634
  189SLPC  H11X21883   3.507   4.566   8.291  0.5123 -0.5371 -0.5953
  189SLPC  H11Y21884   3.437   4.720   8.228 -1.4953 -2.4849  0.5010
  189SLPC  C31221885   3.628   4.744   8.303 -0.1778 -0.0803  0.4734
  189SLPC  H12X21886   3.653   4.835   8.245 -0.1555 -0.8436 -0.7368
  189SLPC  H12Y21887   3.723   4.686   8.304  0.2123  0.5153  2.2614
  189SLPC  C31321888   3.590   4.760   8.448  0.3795 -0.4440 -0.3435
  189SLPC  H13X21889   3.686   4.772   8.503  0.4815 -0.2262 -0.5649
  189SLPC  H13Y21890   3.548   4.661   8.475  0.1829  0.0481  1.2935
  189SLPC  C31421891   3.500   4.876   8.478 -0.4065  0.0972  0.4505
  189SLPC  H14X21892   3.406   4.857   8.421 -0.4829 -0.9016  0.8854
  189SLPC  H14Y21893   3.550   4.961   8.427 -0.9884 -0.1428 -0.5568
  189SLPC  C31521894   3.485   4.898   8.625 -0.0185  0.1983 -0.2031
  189SLPC  H15X21895   3.399   4.968   8.629 -0.6999 -0.5928 -0.5798
  189SLPC  H15Y21896   3.580   4.943   8.660 -0.7968  1.3441  0.4975
  189SLPC  C31621897   3.450   4.786   8.730  0.5044  0.2442 -0.0974
  189SLPC  H16X21898   3.530   4.708   8.730  2.3513  2.0368 -1.1438
  189SLPC  H16Y21899   3.354   4.734   8.710  0.0550  1.0512 -0.0681
  189SLPC  C31721900   3.440   4.857   8.868  0.2595  0.2695  0.0993
  189SLPC  H17X21901   3.525   4.929   8.865  0.6180 -0.1496  0.1144
  189SLPC  H17Y21902   3.465   4.786   8.950 -0.1727  0.6839  0.5931
  189SLPC  C31821903   3.309   4.932   8.895 -0.3446 -0.3997  0.2146
  189SLPC  H18X21904   3.213   4.876   8.906 -1.5242  1.8047  2.0105
  189SLPC  H18Y21905   3.299   5.018   8.826  1.5664 -0.0658  0.3007
  189SLPC  H18Z21906   3.323   4.988   8.990  1.6829  0.0267 -0.2790
  190SLPC     N21907   4.316   3.787   6.504 -0.6779  0.8745 -0.2542
  190SLPC   C1321908   4.362   3.878   6.612 -0.7734 -0.5310 -0.0712
  190SLPC  H13A21909   4.373   3.979   6.576  0.7992 -0.6482  0.0279
  190SLPC  H13B21910   4.292   3.879   6.695  1.6450  0.4571  2.0685
  190SLPC  H13C21911   4.456   3.843   6.649 -0.2087  1.6233  0.6637
  190SLPC   C1421912   4.419   3.761   6.395  0.2434  0.0160 -0.3984
  190SLPC  H14A21913   4.468   3.851   6.361 -0.6727  1.3955  1.6990
  190SLPC  H14B21914   4.501   3.706   6.438  1.1694  0.5614 -1.4108
  190SLPC  H14C21915   4.389   3.697   6.314 -1.1162 -0.3731  0.3854
  190SLPC   C1521916   4.195   3.861   6.443 -0.4468 -0.0531 -0.3361
  190SLPC  H15A21917   4.117   3.883   6.514 -1.5911 -3.4637 -0.3567
  190SLPC  H15B21918   4.227   3.951   6.392 -0.4848 -0.4367 -1.0552
  190SLPC  H15C21919   4.146   3.795   6.372 -2.0858 -1.6932  2.1595
  190SLPC   C1221920   4.280   3.653   6.565  0.2747  0.3813 -0.0472
  190SLPC  H12A21921   4.224   3.671   6.656 -0.6820 -0.7597 -0.3789
  190SLPC  H12B21922   4.374   3.606   6.589  1.7259  3.0966 -0.0000
  190SLPC   C1121923   4.206   3.552   6.472  0.3116  0.3697 -0.3289
  190SLPC  H11A21924   4.114   3.607   6.446  0.0137  1.5276  2.8185
  190SLPC  H11B21925   4.167   3.471   6.537 -0.0762  1.0848  0.3321
  190SLPC     P21926   4.390   3.391   6.364  0.4199 -0.3839 -0.1408
  190SLPC   O1321927   4.333   3.265   6.304 -0.2344  0.3608  0.1151
  190SLPC   O1421928   4.507   3.437   6.293  0.3957 -0.6536 -0.2444
  190SLPC   O1221929   4.280   3.502   6.362 -0.1647 -0.3075  0.3462
  190SLPC   O1121930   4.422   3.375   6.520  0.3947 -0.2648 -0.4438
  190SLPC    C121931   4.371   3.277   6.608 -0.0252 -0.4970 -0.4639
  190SLPC    HA21932   4.272   3.235   6.580  0.1786 -1.3186 -0.0005
  190SLPC    HB21933   4.446   3.195   6.614  1.6962  1.0157 -0.3445
  190SLPC    C221934   4.335   3.329   6.750 -0.2245 -1.0292 -0.2606
  190SLPC    HS21935   4.266   3.416   6.748  0.1505 -0.6326  1.8866
  190SLPC   O2121936   4.455   3.356   6.820  0.4728 -0.5820  0.1034
  190SLPC   C2121937   4.483   3.485   6.847 -0.3975 -0.0101  0.4523
  190SLPC   O2221938   4.414   3.580   6.816  0.1620 -0.2357 -0.5441
  190SLPC   C2221939   4.633   3.492   6.886 -0.2670 -0.5786  0.0918
  190SLPC   H2R21940   4.666   3.390   6.915 -0.9779 -1.1817 -1.1391
  190SLPC   H2S21941   4.691   3.546   6.808 -1.2978  0.6929  0.1736
  190SLPC    C321942   4.257   3.218   6.832 -0.1140  0.7675  0.2280
  190SLPC    HX21943   4.309   3.121   6.823 -0.2793  0.6789  0.2333
  190SLPC    HY21944   4.164   3.212   6.772  0.2446  1.6809 -0.4473
  190SLPC   O3121945   4.234   3.259   6.969  0.0597  0.5334 -0.4019
  190SLPC   C3121946   4.264   3.169   7.064  0.4116  0.0875  0.9076
  190SLPC   O3221947   4.300   3.057   7.041  0.4589  0.4902  0.1599
  190SLPC   C3221948   4.239   3.230   7.199 -0.0663  0.1008 -0.9827
  190SLPC   H2X21949   4.130   3.252   7.194 -0.3866 -1.4067 -0.9366
  190SLPC   H2Y21950   4.291   3.328   7.202 -0.0466  0.1188 -1.7354
  190SLPC   C2321951   4.652   3.592   7.006  0.2479  0.0447 -0.4380
  190SLPC   H3R21952   4.606   3.689   6.979 -1.2175 -0.4208  0.2813
  190SLPC   H3S21953   4.761   3.612   7.015  0.9993 -2.8318 -1.9189
  190SLPC   C2421954   4.592   3.539   7.141 -0.8726 -0.0616 -0.3115
  190SLPC   H4R21955   4.671   3.471   7.179  1.6806  2.0415 -1.5577
  190SLPC   H4S21956   4.492   3.492   7.130 -0.6774 -0.9329  1.3562
  190SLPC   C2521957   4.579   3.652   7.238  0.1081 -0.6879  0.2235
  190SLPC   H5R21958   4.487   3.707   7.208 -0.0524 -1.2380 -0.2968
  190SLPC   H5S21959   4.663   3.724   7.225  0.1899 -0.9999 -1.0162
  190SLPC   C2621960   4.579   3.606   7.386  0.8027 -0.0786 -0.5867
  190SLPC   H6R21961   4.672   3.548   7.402  0.2296 -0.7583  0.4191
  190SLPC   H6S21962   4.488   3.543   7.399 -0.4375  1.3729 -1.9067
  190SLPC   C2721963   4.571   3.714   7.493  0.8496 -0.0420  0.1251
  190SLPC   H7R21964   4.475   3.769   7.490  0.8579 -0.0740 -1.1650
  190SLPC   H7S21965   4.655   3.783   7.469  1.2944 -0.8003 -0.5618
  190SLPC   C2821966   4.590   3.646   7.636  0.0850 -1.0407  0.2357
  190SLPC   H8R21967   4.686   3.592   7.622  0.3857 -0.4562  0.0058
  190SLPC   H8S21968   4.504   3.578   7.654 -0.1421 -0.7478  0.2613
  190SLPC   C2921969   4.601   3.744   7.746  0.2851 -0.6405  0.2680
  190SLPC   H9R21970   4.654   3.838   7.725  1.1118 -1.4639 -1.5962
  190SLPC  C21021971   4.565   3.728   7.877  0.6562 -0.3223  0.6350
  190SLPC  H10R21972   4.575   3.808   7.952  1.1544 -1.5259  1.8997
  190SLPC  C21121973   4.517   3.599   7.935  0.7887  0.1589 -0.9261
  190SLPC  H11R21974   4.588   3.515   7.923 -1.7702 -2.6410  1.7343
  190SLPC  H11S21975   4.424   3.578   7.877  0.1598  0.4925 -0.0538
  190SLPC  C21221976   4.467   3.598   8.076 -0.0903 -0.9249  0.3755
  190SLPC  H12R21977   4.360   3.576   8.084  0.4003 -2.9918  1.7939
  190SLPC  C21321978   4.532   3.619   8.191  0.3776  0.7191  0.1087
  190SLPC  H13R21979   4.477   3.618   8.286  0.3923  2.4382  0.1687
  190SLPC  C21421980   4.685   3.641   8.205  0.2657  0.0674  0.3126
  190SLPC  H14R21981   4.707   3.693   8.301 -1.3559 -0.4170  0.9713
  190SLPC  H14S21982   4.711   3.710   8.122  1.0934 -0.9179 -0.2743
  190SLPC  C21521983   4.767   3.517   8.177  0.1330  0.0704 -0.5411
  190SLPC  H15R21984   4.868   3.554   8.148  1.2226 -1.1150  1.5317
  190SLPC  H15S21985   4.738   3.446   8.097 -0.7183  0.3096 -0.4596
  190SLPC  C21621986   4.783   3.435   8.309  0.6233 -0.5306 -0.5840
  190SLPC  H16R21987   4.684   3.407   8.349  1.2974  0.7927  2.2920
  190SLPC  H16S21988   4.825   3.489   8.397  0.9542 -1.2669 -0.2864
  190SLPC  C21721989   4.869   3.308   8.286 -0.3114 -0.5385 -0.2197
  190SLPC  H17R21990   4.967   3.349   8.250  0.8879 -0.0581  3.2406
  190SLPC  H17S21991   4.821   3.242   8.211  0.8347 -1.1821 -0.4178
  190SLPC  C21821992   4.903   3.216   8.407 -0.0253 -0.0647  0.0004
  190SLPC  H18R21993   4.978   3.136   8.388  0.8138  0.6399  0.2615
  190SLPC  H18S21994   4.816   3.168   8.457 -0.6300  0.2377 -0.7423
  190SLPC  H18T21995   4.954   3.277   8.484 -1.6951 -1.3856  2.2588
  190SLPC   C3321996   4.274   3.126   7.314  0.0868  0.0545 -0.2181
  190SLPC   H3X21997   4.385   3.128   7.322  0.2347  3.1397 -1.6725
  190SLPC   H3Y21998   4.228   3.027   7.293 -0.9008  0.5618 -0.5152
  190SLPC   C3421999   4.217   3.176   7.451 -0.0400 -0.0834 -0.2008
  190SLPC   H4X22000   4.107   3.190   7.445  0.0168  0.4763 -0.0120
  190SLPC   H4Y22001   4.273   3.273   7.454 -0.5990  0.2341  0.0817
  190SLPC   C3522002   4.249   3.071   7.565 -0.7518 -0.8747  0.0476
  190SLPC   H5X22003   4.359   3.065   7.576 -0.6333 -0.9975 -1.0683
  190SLPC   H5Y22004   4.213   2.969   7.538  1.0959 -1.5024 -0.2043
  190SLPC   C3622005   4.194   3.127   7.696  0.0256 -0.6946 -0.9077
  190SLPC   H6X22006   4.227   3.233   7.704  1.1223 -0.8792 -2.5299
  190SLPC   H6Y22007   4.235   3.082   7.789 -2.2499  3.0063  2.2227
  190SLPC   C3722008   4.039   3.136   7.710 -0.3461  0.8547 -0.3681
  190SLPC   H7X22009   3.988   3.038   7.719 -0.8957  1.0997 -0.7305
  190SLPC   H7Y22010   3.989   3.199   7.633 -1.4137 -0.4382 -0.7781
  190SLPC   C3822011   3.993   3.199   7.845  0.3604  0.4299 -0.1564
  190SLPC   H8X22012   3.887   3.230   7.831 -0.1394 -0.6703  0.9885
  190SLPC   H8Y22013   4.051   3.291   7.867  0.1339  0.7388 -0.8445
  190SLPC   C3922014   3.996   3.112   7.970  1.0514 -0.5726  0.7173
  190SLPC   H9X22015   4.101   3.080   7.985  1.8876  0.0399 -2.8940
  190SLPC   H9Y22016   3.941   3.022   7.937  2.6023 -0.5720 -2.1807
  190SLPC  C31022017   3.923   3.163   8.090 -0.5147  0.0854 -0.6350
  190SLPC  H10X22018   3.819   3.199   8.073 -0.0223  2.5460  1.0295
  190SLPC  H10Y22019   3.986   3.252   8.113  0.5544 -0.3893 -1.6078
  190SLPC  C31122020   3.927   3.065   8.205 -1.3281  0.2405  0.4294
  190SLPC  H11X22021   4.033   3.041   8.227 -1.9241 -1.6214  1.5104
  190SLPC  H11Y22022   3.902   2.962   8.171  1.7435 -0.5280  0.1840
  190SLPC  C31222023   3.840   3.100   8.328 -0.3686  0.3334 -0.8638
  190SLPC  H12X22024   3.737   3.105   8.288 -1.4734 -1.3989  1.5214
  190SLPC  H12Y22025   3.872   3.197   8.370 -1.7750  0.1895  0.6630
  190SLPC  C31322026   3.852   2.988   8.433  0.2227 -0.4747  0.0942
  190SLPC  H13X22027   3.960   2.961   8.435  0.4762  0.4733  2.0128
  190SLPC  H13Y22028   3.785   2.902   8.415 -2.1245  0.8247  1.9229
  190SLPC  C31422029   3.812   3.036   8.576  0.3007  0.2186  0.1863
  190SLPC  H14X22030   3.705   3.062   8.570  0.4310  1.8375  3.1792
  190SLPC  H14Y22031   3.865   3.131   8.601  0.7212 -0.1074  0.5403
  190SLPC  C31522032   3.841   2.949   8.695 -0.6154 -0.3299  0.3313
  190SLPC  H15X22033   3.788   2.855   8.668 -1.6693  0.5375 -0.7346
  190SLPC  H15Y22034   3.794   2.992   8.787  0.5157  1.1270  0.2569
  190SLPC  C31622035   3.982   2.926   8.730 -0.5620 -0.7014 -0.5403
  190SLPC  H16X22036   4.042   3.018   8.743 -2.4018  0.8348 -2.2678
  190SLPC  H16Y22037   4.025   2.882   8.637 -2.4132 -2.4185 -0.6569
  190SLPC  C31722038   4.014   2.825   8.839 -0.0291 -0.4948 -0.5390
  190SLPC  H17X22039   4.119   2.790   8.837 -0.5793 -2.2295 -1.2538
  190SLPC  H17Y22040   3.961   2.728   8.829 -3.3860  1.0998  0.2004
  190SLPC  C31822041   4.000   2.878   8.979 -0.5083  0.1091  0.4133
  190SLPC  H18X22042   3.892   2.893   9.000 -0.9876 -1.1650 -0.9509
  190SLPC  H18Y22043   4.050   2.977   8.984  0.4581 -0.3667  0.2805
  190SLPC  H18Z22044   4.034   2.815   9.064  0.7467  0.9587  0.5593
  191SLPC     N22045   2.190   6.531   5.855 -0.8411  0.3168 -0.5421
  191SLPC   C1322046   2.145   6.423   5.762  0.3483  0.5053 -0.2412
  191SLPC  H13A22047   2.209   6.418   5.675 -0.6496  0.4434 -0.9853
  191SLPC  H13B22048   2.141   6.322   5.800  0.0958 -0.4046 -2.5028
  191SLPC  H13C22049   2.046   6.445   5.726  0.2861  0.9322  0.1819
  191SLPC   C1422050   2.212   6.662   5.782  0.2284 -0.3645  0.9257
  191SLPC  H14A22051   2.245   6.740   5.849 -1.0546  1.4452 -0.4388
  191SLPC  H14B22052   2.285   6.646   5.705 -0.4572  0.9419 -0.0384
  191SLPC  H14C22053   2.127   6.711   5.737  0.7848 -0.1725  0.0659
  191SLPC   C1522054   2.327   6.482   5.900  0.5557 -1.1050 -0.7165
  191SLPC  H15A22055   2.318   6.375   5.915 -1.2504 -0.9972 -0.8490
  191SLPC  H15B22056   2.399   6.504   5.822  0.8900 -0.7366 -0.3061
  191SLPC  H15C22057   2.351   6.528   5.994 -2.8756 -2.5240  1.0148
  191SLPC   C1222058   2.094   6.533   5.965  0.3144 -0.7900 -0.1529
  191SLPC  H12A22059   2.089   6.436   6.013  1.0372 -0.7835 -0.0481
  191SLPC  H12B22060   1.998   6.558   5.924  0.2844  1.4037  1.0962
  191SLPC   C1122061   2.118   6.635   6.078 -0.3120  1.1414 -0.1390
  191SLPC  H11A22062   2.029   6.646   6.143 -1.0058 -1.6233 -0.4735
  191SLPC  H11B22063   2.126   6.735   6.031  0.4410  0.3192 -1.8439
  191SLPC     P22064   2.232   6.479   6.256 -0.0248 -0.3873 -0.1253
  191SLPC   O1322065   2.192   6.350   6.190 -0.0210 -0.1593 -0.2262
  191SLPC   O1422066   2.353   6.470   6.337 -0.0143 -0.2699 -0.1693
  191SLPC   O1222067   2.235   6.605   6.156  0.2886 -0.2138  0.2751
  191SLPC   O1122068   2.115   6.518   6.354 -0.2759  0.1415 -0.1485
  191SLPC    C122069   2.108   6.649   6.414 -0.4241  0.1833  0.4494
  191SLPC    HA22070   2.186   6.721   6.382  0.1307 -0.3793  0.5287
  191SLPC    HB22071   2.023   6.705   6.370  0.3567  2.7640  2.0154
  191SLPC    C222072   2.097   6.640   6.569  0.5055 -0.8262 -0.7022
  191SLPC    HS22073   2.202   6.635   6.604  0.4751 -0.1790 -0.4975
  191SLPC   O2122074   2.018   6.528   6.617  0.0564  0.1300 -0.1073
  191SLPC   C2122075   2.082   6.434   6.679 -0.3239  0.2607 -0.5809
  191SLPC   O2222076   2.204   6.434   6.701  0.2863  0.1891  0.5077
  191SLPC   C2222077   1.987   6.318   6.733 -0.4076 -0.2621 -0.4196
  191SLPC   H2R22078   1.964   6.347   6.838  1.6280 -3.5867  1.1080
  191SLPC   H2S22079   1.891   6.326   6.678 -1.4918 -1.0469  1.2721
  191SLPC    C322080   2.032   6.772   6.636 -0.0175 -0.2926  0.3930
  191SLPC    HX22081   1.927   6.765   6.601  0.2485  1.9920 -1.0775
  191SLPC    HY22082   2.081   6.854   6.580 -3.8110  1.0970 -1.2544
  191SLPC   O3122083   2.051   6.763   6.784  0.0681  0.0939  0.0750
  191SLPC   C3122084   2.064   6.870   6.850  0.0539 -0.4393  0.7112
  191SLPC   O3222085   2.065   6.987   6.809  0.1531  0.6277  0.0045
  191SLPC   C3222086   2.079   6.830   6.999  0.1634  0.2914  0.1300
  191SLPC   H2X22087   2.162   6.896   7.031 -1.4694  0.8641  3.5444
  191SLPC   H2Y22088   2.113   6.724   7.006 -1.6842 -0.3178  0.4600
  191SLPC   C2322089   2.047   6.179   6.723 -0.0682  0.2086 -0.5081
  191SLPC   H3R22090   2.136   6.176   6.657  1.2815 -0.5507  1.2621
  191SLPC   H3S22091   1.972   6.109   6.681  0.2244 -0.2322 -0.2940
  191SLPC   C2422092   2.086   6.117   6.858 -0.3630  0.0584  0.4600
  191SLPC   H4R22093   1.996   6.139   6.921 -0.4818  0.2696  0.2162
  191SLPC   H4S22094   2.184   6.151   6.896  0.0222 -0.1752 -0.3143
  191SLPC   C2522095   2.102   5.963   6.844 -0.6287  0.4845 -0.6221
  191SLPC   H5R22096   2.176   5.941   6.764 -1.7253 -2.2794 -0.9873
  191SLPC   H5S22097   2.004   5.917   6.822 -1.4783 -0.4199  3.9035
  191SLPC   C2622098   2.153   5.897   6.973 -0.5921  0.0087  1.0190
  191SLPC   H6R22099   2.229   5.967   7.014 -0.2003  1.3392 -1.7775
  191SLPC   H6S22100   2.189   5.792   6.963 -1.6468 -0.3364  0.7044
  191SLPC   C2722101   2.040   5.892   7.081  0.0962  0.1594  1.0628
  191SLPC   H7R22102   1.961   5.826   7.040  2.4906 -0.9038 -2.3381
  191SLPC   H7S22103   2.004   5.995   7.099  0.4206  0.3844  0.4594
  191SLPC   C2822104   2.093   5.827   7.217  0.0921 -0.3491  0.4084
  191SLPC   H8R22105   2.010   5.843   7.289  0.7017 -1.3553  1.3561
  191SLPC   H8S22106   2.188   5.881   7.236  0.8945 -0.7247 -2.1009
  191SLPC   C2922107   2.108   5.679   7.204  0.0144 -0.0688 -0.1931
  191SLPC   H9R22108   2.203   5.657   7.152  0.8716  1.5736  0.5849
  191SLPC  C21022109   2.032   5.575   7.252 -0.0197 -0.7315 -0.3462
  191SLPC  H10R22110   2.072   5.478   7.221  1.5089 -0.5300  0.8638
  191SLPC  C21122111   1.905   5.580   7.332 -0.0265  0.6549  0.1283
  191SLPC  H11R22112   1.825   5.649   7.296 -1.0799 -0.0328  1.1063
  191SLPC  H11S22113   1.943   5.618   7.429  0.3495  0.0494  0.2176
  191SLPC  C21222114   1.842   5.441   7.341  0.4142  0.4378  0.3635
  191SLPC  H12R22115   1.843   5.398   7.442 -2.7982  0.6080  0.5724
  191SLPC  C21322116   1.776   5.377   7.240 -0.3825 -0.9379  0.5728
  191SLPC  H13R22117   1.734   5.276   7.252  1.7151 -1.8690  0.5031
  191SLPC  C21422118   1.769   5.433   7.099  0.0757 -0.0166  0.5010
  191SLPC  H14R22119   1.782   5.543   7.094 -1.3072  0.1383  0.0455
  191SLPC  H14S22120   1.665   5.417   7.063  0.6216  1.7048 -2.1295
  191SLPC  C21522121   1.870   5.368   7.007  0.5276  0.3327  0.5885
  191SLPC  H15R22122   1.868   5.257   7.002  0.7195  0.3896 -1.0865
  191SLPC  H15S22123   1.970   5.390   7.050  0.1516  1.9979  0.6615
  191SLPC  C21622124   1.868   5.415   6.856  0.1472  0.7722  0.5764
  191SLPC  H16R22125   1.779   5.381   6.799 -0.0654 -1.5135  2.1378
  191SLPC  H16S22126   1.959   5.371   6.809  0.6755  1.1496  1.2181
  191SLPC  C21722127   1.890   5.565   6.847 -0.1961  0.2248 -0.0824
  191SLPC  H17R22128   1.966   5.605   6.918 -2.7563  2.5996  1.5298
  191SLPC  H17S22129   1.798   5.614   6.883 -1.8300 -2.1285 -0.8230
  191SLPC  C21822130   1.932   5.617   6.705  0.3527 -0.2941 -0.1187
  191SLPC  H18R22131   2.041   5.605   6.686  0.4815  2.8325 -2.1380
  191SLPC  H18S22132   1.916   5.726   6.706 -0.4827 -0.4044 -0.6543
  191SLPC  H18T22133   1.862   5.582   6.626  0.7693 -0.8509 -0.2491
  191SLPC   C3322134   1.957   6.858   7.081 -0.4996  0.6415 -0.1389
  191SLPC   H3X22135   1.881   6.781   7.054 -0.7391  1.3642 -1.6328
  191SLPC   H3Y22136   1.894   6.949   7.064  1.1572  1.7331 -0.6373
  191SLPC   C3422137   2.003   6.859   7.226  0.0582 -0.6323  0.8479
  191SLPC   H4X22138   2.065   6.950   7.241 -2.6961  1.6344 -0.3607
  191SLPC   H4Y22139   2.070   6.770   7.227 -1.1083 -1.5634  0.1069
  191SLPC   C3522140   1.884   6.850   7.322  0.1386  0.1953 -0.1159
  191SLPC   H5X22141   1.807   6.783   7.278  0.8303 -0.7009  0.0113
  191SLPC   H5Y22142   1.827   6.945   7.321 -1.7587 -0.8995 -0.2224
  191SLPC   C3622143   1.928   6.801   7.463  0.2802  0.1975  0.3748
  191SLPC   H6X22144   2.017   6.861   7.494 -0.8894  1.5219  1.2730
  191SLPC   H6Y22145   1.963   6.697   7.448  0.1587  0.2322 -0.1599
  191SLPC   C3722146   1.827   6.805   7.580  0.0276  0.5037 -0.9216
  191SLPC   H7X22147   1.875   6.741   7.657  0.9448  0.4608 -1.5183
  191SLPC   H7Y22148   1.733   6.751   7.554  0.2008 -0.9061  1.1119
  191SLPC   C3822149   1.806   6.941   7.637 -0.3120 -0.4562  0.4496
  191SLPC   H8X22150   1.762   7.003   7.556  2.1393  1.1049  0.1923
  191SLPC   H8Y22151   1.908   6.983   7.652  0.0867  0.2099 -3.2045
  191SLPC   C3922152   1.717   6.949   7.756 -0.4958 -1.0297  0.2487
  191SLPC   H9X22153   1.754   7.042   7.806  0.2535 -0.8747 -0.5649
  191SLPC   H9Y22154   1.735   6.864   7.825  0.7933 -0.2794  0.8784
  191SLPC  C31022155   1.575   6.961   7.716  1.1070  0.2696 -0.3312
  191SLPC  H10X22156   1.540   6.885   7.643  1.6004 -1.1982  0.8947
  191SLPC  H10Y22157   1.562   7.059   7.666  2.1211  1.7253  2.0808
  191SLPC  C31122158   1.477   6.984   7.836  0.0107  0.8678  0.1242
  191SLPC  H11X22159   1.537   7.050   7.902  2.2230 -1.1663  0.3002
  191SLPC  H11Y22160   1.467   6.890   7.895  2.0045  0.1700 -0.5466
  191SLPC  C31222161   1.335   7.023   7.805 -0.2891  0.2192 -0.7953
  191SLPC  H12X22162   1.279   6.934   7.771 -0.3302 -0.0308 -0.0825
  191SLPC  H12Y22163   1.330   7.108   7.733 -2.8315  1.4768  0.6898
  191SLPC  C31322164   1.271   7.059   7.931 -0.1114 -0.4844 -0.5770
  191SLPC  H13X22165   1.327   7.008   8.012  2.7576  0.7442 -1.6731
  191SLPC  H13Y22166   1.169   7.015   7.927 -0.5585  0.5851 -1.4840
  191SLPC  C31422167   1.260   7.210   7.956  0.7129 -0.6027  0.3225
  191SLPC  H14X22168   1.175   7.247   7.894  1.2342  1.2079  0.6251
  191SLPC  H14Y22169   1.351   7.259   7.917  1.5824 -0.8746  1.9139
  191SLPC  C31522170   1.253   7.251   8.097 -0.9434 -0.1546 -0.0124
  191SLPC  H15X22171   1.265   7.361   8.109  0.3634 -0.5205  2.7012
  191SLPC  H15Y22172   1.335   7.207   8.157 -2.6806 -1.4835  1.5206
  191SLPC  C31622173   1.123   7.208   8.164 -0.2303  0.1230  0.6614
  191SLPC  H16X22174   1.109   7.099   8.149 -1.4390  0.2868  0.4898
  191SLPC  H16Y22175   1.040   7.261   8.112  1.0597 -0.3364 -2.0040
  191SLPC  C31722176   1.114   7.233   8.312  0.4443  0.4647 -0.5461
  191SLPC  H17X22177   1.008   7.235   8.345 -0.1543 -2.5781 -1.9573
  191SLPC  H17Y22178   1.168   7.330   8.325  2.1929 -0.1226 -2.8287
  191SLPC  C31822179   1.181   7.120   8.397  0.6225 -0.4579  0.2387
  191SLPC  H18X22180   1.159   7.134   8.505  2.7482 -1.1411  0.8025
  191SLPC  H18Y22181   1.290   7.121   8.380  0.6754 -1.7260  0.4194
  191SLPC  H18Z22182   1.151   7.016   8.371 -1.0941  0.2323 -0.7357
  192SLPC     N22183   4.409   1.471   6.275  0.0813 -0.0796 -0.1185
  192SLPC   C1322184   4.442   1.478   6.124 -0.1594 -0.0655 -1.0634
  192SLPC  H13A22185   4.540   1.439   6.100 -0.1884  0.1206 -1.4849
  192SLPC  H13B22186   4.368   1.424   6.068 -1.3619 -0.9946  1.2765
  192SLPC  H13C22187   4.448   1.579   6.087 -0.9163 -0.5066 -2.4694
  192SLPC   C1422188   4.371   1.332   6.309  0.6748 -0.2086 -0.0940
  192SLPC  H14A22189   4.451   1.264   6.282  3.1481  2.7581 -0.8862
  192SLPC  H14B22190   4.349   1.317   6.414  0.5219  0.9993  0.0630
  192SLPC  H14C22191   4.287   1.293   6.256  0.4916 -1.0217  0.7665
  192SLPC   C1522192   4.283   1.556   6.297 -0.2021  0.1232 -0.1842
  192SLPC  H15A22193   4.246   1.548   6.398  1.1626  0.6192  0.3788
  192SLPC  H15B22194   4.285   1.657   6.258  0.4050 -0.1433 -0.8658
  192SLPC  H15C22195   4.210   1.510   6.232  0.7433 -0.5392 -0.8065
  192SLPC   C1222196   4.512   1.516   6.364  0.5237  0.3942 -0.5009
  192SLPC  H12A22197   4.470   1.522   6.463 -2.5896 -1.5331 -1.5493
  192SLPC  H12B22198   4.527   1.621   6.347 -0.9943  0.5474 -0.9410
  192SLPC   C1122199   4.656   1.457   6.369 -0.2629 -0.7070 -0.0894
  192SLPC  H11A22200   4.711   1.515   6.446 -0.7890 -2.4160  1.6567
  192SLPC  H11B22201   4.693   1.463   6.264 -0.0855 -3.8969 -0.3271
  192SLPC     P22202   4.775   1.244   6.469  0.2663  0.2783 -0.3403
  192SLPC   O1322203   4.736   1.105   6.504  0.5552  0.0587 -0.2485
  192SLPC   O1422204   4.881   1.265   6.366  0.1081  0.0050 -0.0738
  192SLPC   O1222205   4.649   1.322   6.410  0.0894 -0.1556 -0.3235
  192SLPC   O1122206   4.807   1.326   6.604  0.2784  1.0457 -0.4819
  192SLPC    C122207   4.942   1.353   6.639  0.1470 -0.6462  0.7626
  192SLPC    HA22208   5.002   1.379   6.550  1.1319  0.9325  1.8322
  192SLPC    HB22209   4.953   1.434   6.714 -2.1309  1.9314 -1.5003
  192SLPC    C222210   5.018   1.239   6.713  0.4554  0.2289  0.3583
  192SLPC    HS22211   5.000   1.152   6.647  0.8210 -1.3328  2.2047
  192SLPC   O2122212   4.956   1.209   6.837  0.5158 -0.2829 -0.7438
  192SLPC   C2122213   4.979   1.087   6.900 -0.3465  0.0974  0.0390
  192SLPC   O2222214   5.041   0.995   6.841 -0.5217 -0.0318 -0.0065
  192SLPC   C2222215   4.917   1.088   7.035  0.4344  0.3588  0.1333
  192SLPC   H2R22216   4.941   1.191   7.068 -0.1671  0.7970 -0.7599
  192SLPC   H2S22217   4.807   1.083   7.021  0.0114 -4.1215  3.1195
  192SLPC    C322218   5.173   1.262   6.729 -0.5298 -0.8863  0.9808
  192SLPC    HX22219   5.211   1.285   6.627  0.2582  3.7442  2.0829
  192SLPC    HY22220   5.229   1.175   6.769 -2.0398 -2.2072  0.2973
  192SLPC   O3122221   5.200   1.385   6.799  0.1877  0.5186  0.0768
  192SLPC   C3122222   5.197   1.378   6.928  0.8239 -0.8488 -0.9059
  192SLPC   O3222223   5.182   1.279   6.998  0.3856  0.7961  0.0111
  192SLPC   C3222224   5.214   1.516   6.986  0.7575 -0.0273 -0.4611
  192SLPC   H2X22225   5.114   1.558   7.008  0.0508 -2.4131  1.3875
  192SLPC   H2Y22226   5.266   1.578   6.910 -0.6761  0.2363 -1.2533
  192SLPC   C2322227   4.982   0.989   7.136 -0.7466 -0.6951 -0.1255
  192SLPC   H3R22228   5.090   1.005   7.158 -0.6027  0.0729 -1.3202
  192SLPC   H3S22229   4.965   0.882   7.111  0.1550 -0.4112 -2.1027
  192SLPC   C2422230   4.909   1.003   7.277  0.3306 -0.7114  0.2525
  192SLPC   H4R22231   4.801   0.985   7.260  0.4440 -0.8819 -0.2985
  192SLPC   H4S22232   4.913   1.105   7.320 -0.5096  0.4022 -2.1512
  192SLPC   C2522233   4.960   0.908   7.393 -0.3957  0.3544  0.2057
  192SLPC   H5R22234   5.071   0.907   7.385 -0.4760 -0.4101 -1.1685
  192SLPC   H5S22235   4.926   0.806   7.369 -1.2864  0.4090  1.1779
  192SLPC   C2622236   4.906   0.945   7.530 -0.0742 -0.1777 -0.5924
  192SLPC   H6R22237   4.797   0.961   7.518 -0.5647 -1.9883  0.9464
  192SLPC   H6S22238   4.962   1.031   7.574 -0.4350 -0.5848  0.7049
  192SLPC   C2722239   4.936   0.834   7.632 -0.5106 -0.5579 -0.0138
  192SLPC   H7R22240   5.039   0.799   7.610 -0.0251  0.2270  0.9092
  192SLPC   H7S22241   4.877   0.741   7.618 -1.1809 -0.0639 -0.5563
  192SLPC   C2822242   4.917   0.876   7.776 -0.1781  0.6958 -0.3883
  192SLPC   H8R22243   5.001   0.946   7.799 -0.1361  1.4189 -2.5316
  192SLPC   H8S22244   4.925   0.786   7.840 -0.1819  0.4504 -0.7285
  192SLPC   C2922245   4.784   0.941   7.798 -0.0389 -0.3179  0.0957
  192SLPC   H9R22246   4.694   0.901   7.749 -0.1068  0.2738 -0.2805
  192SLPC  C21022247   4.759   1.043   7.878 -0.4994 -0.1711 -0.1402
  192SLPC  H10R22248   4.660   1.086   7.904 -0.2090  0.3053  0.2066
  192SLPC  C21122249   4.871   1.108   7.953 -0.1640 -0.0804 -0.2771
  192SLPC  H11R22250   4.953   1.152   7.892 -0.9909 -0.1216 -1.4556
  192SLPC  H11S22251   4.926   1.041   8.022  0.7464  0.3877 -0.5289
  192SLPC  C21222252   4.804   1.222   8.032 -0.1964  0.5383 -0.7903
  192SLPC  H12R22253   4.798   1.324   7.992 -0.4388  0.5660 -0.6808
  192SLPC  C21322254   4.739   1.204   8.151  0.5091  0.0066  0.3458
  192SLPC  H13R22255   4.689   1.287   8.203 -1.2902 -1.6881  1.4652
  192SLPC  C21422256   4.718   1.077   8.231  0.0011 -0.1053 -0.8300
  192SLPC  H14R22257   4.780   0.995   8.192 -0.9904 -0.5191 -1.5754
  192SLPC  H14S22258   4.619   1.033   8.208  0.8622 -2.8760  0.4528
  192SLPC  C21522259   4.741   1.075   8.384  0.2058  0.0419 -0.0199
  192SLPC  H15R22260   4.848   1.088   8.413  0.2542  1.9104 -0.9399
  192SLPC  H15S22261   4.709   0.976   8.423  2.4765 -0.6245  0.3038
  192SLPC  C21622262   4.684   1.194   8.460 -0.4077 -0.5911 -0.9342
  192SLPC  H16R22263   4.579   1.210   8.426 -0.6761  1.2146  0.5824
  192SLPC  H16S22264   4.738   1.286   8.427  0.1362  0.1074  1.6669
  192SLPC  C21722265   4.687   1.188   8.612 -0.5114  0.3597  0.5338
  192SLPC  H17R22266   4.644   1.092   8.647 -0.8662 -0.6159 -2.3071
  192SLPC  H17S22267   4.794   1.183   8.642 -0.3424  1.0125  0.0713
  192SLPC  C21822268   4.622   1.309   8.681  0.1101  0.2226  0.0619
  192SLPC  H18R22269   4.513   1.311   8.662  0.4492  0.5758 -2.0939
  192SLPC  H18S22270   4.666   1.401   8.638 -0.1399  1.3486  2.0528
  192SLPC  H18T22271   4.640   1.301   8.791  2.0062 -0.9145 -0.2741
  192SLPC   C3322272   5.276   1.510   7.125 -0.2435 -0.1499  0.0202
  192SLPC   H3X22273   5.379   1.470   7.128 -0.9765 -2.0632  0.8524
  192SLPC   H3Y22274   5.213   1.454   7.198 -0.4332  0.5450  0.3995
  192SLPC   C3422275   5.290   1.652   7.178 -0.5315  0.2519  0.2265
  192SLPC   H4X22276   5.194   1.706   7.169 -0.9012 -0.3990  0.1886
  192SLPC   H4Y22277   5.373   1.709   7.132  0.3979  0.1312  1.7024
  192SLPC   C3522278   5.331   1.640   7.327  0.1497  0.5440 -0.4422
  192SLPC   H5X22279   5.380   1.736   7.356 -0.8889  1.0131 -0.2030
  192SLPC   H5Y22280   5.411   1.564   7.340  1.3561  1.9175  0.5699
  192SLPC   C3622281   5.226   1.643   7.432  0.2639  0.2396 -0.0042
  192SLPC   H6X22282   5.158   1.557   7.411 -0.9393  0.6236  2.0682
  192SLPC   H6Y22283   5.158   1.731   7.431  0.2795  0.2567  0.2717
  192SLPC   C3722284   5.287   1.645   7.576 -0.2686  0.3157 -0.0373
  192SLPC   H7X22285   5.339   1.742   7.592  1.7584 -0.8768  0.9806
  192SLPC   H7Y22286   5.371   1.573   7.586  1.4713  1.9517 -1.8366
  192SLPC   C3822287   5.182   1.620   7.680  0.5687  0.6347 -0.2072
  192SLPC   H8X22288   5.152   1.515   7.664 -0.6408  1.2014 -1.8643
  192SLPC   H8Y22289   5.089   1.673   7.651  1.6984  2.3965 -0.7841
  192SLPC   C3922290   5.227   1.653   7.823  0.7847  0.0031  0.0640
  192SLPC   H9X22291   5.241   1.763   7.825 -1.0250  0.2600  0.8767
  192SLPC   H9Y22292   5.323   1.603   7.848  0.9393  0.0944 -0.3380
  192SLPC  C31022293   5.104   1.640   7.920 -0.4573 -0.1170  0.9027
  192SLPC  H10X22294   5.065   1.536   7.910  1.1804 -0.9116  2.2604
  192SLPC  H10Y22295   5.032   1.712   7.875 -1.1243 -1.5467 -0.4500
  192SLPC  C31122296   5.121   1.683   8.070  0.2966  0.6517  0.3475
  192SLPC  H11X22297   5.164   1.785   8.064 -1.1272  1.4217  2.2828
  192SLPC  H11Y22298   5.205   1.630   8.120  0.9281  3.1959  2.2380
  192SLPC  C31222299   4.986   1.693   8.144  0.2663 -0.4007  0.3039
  192SLPC  H12X22300   4.932   1.598   8.123  0.5192 -0.9729  2.0301
  192SLPC  H12Y22301   4.931   1.780   8.103 -1.3608 -1.6492 -0.2938
  192SLPC  C31322302   5.004   1.705   8.294  0.2323 -0.1564 -0.2623
  192SLPC  H13X22303   5.057   1.801   8.315 -2.2854  1.9719 -2.7966
  192SLPC  H13Y22304   5.058   1.621   8.342  0.1983  0.3278  0.6450
  192SLPC  C31422305   4.864   1.712   8.371 -0.5532 -0.3667  0.4761
  192SLPC  H14X22306   4.843   1.612   8.414  1.2264 -0.0246  2.3052
  192SLPC  H14Y22307   4.782   1.723   8.297 -0.3956 -1.0835  0.1853
  192SLPC  C31522308   4.865   1.810   8.490  1.0508  0.1281 -0.2656
  192SLPC  H15X22309   4.768   1.808   8.544  0.9524  0.3923 -0.4284
  192SLPC  H15Y22310   4.875   1.906   8.436 -0.1958 -1.5930 -3.9268
  192SLPC  C31622311   4.985   1.799   8.583 -0.1675 -0.0819  0.0591
  192SLPC  H16X22312   5.086   1.806   8.537 -0.4170 -1.7411 -0.8315
  192SLPC  H16Y22313   4.984   1.693   8.619 -0.6749 -0.4485 -0.9977
  192SLPC  C31722314   4.980   1.904   8.692  0.1551 -0.0625 -0.3279
  192SLPC  H17X22315   4.889   1.884   8.752  0.5220 -1.4657 -0.1831
  192SLPC  H17Y22316   4.973   2.008   8.654 -0.0528  0.2510  0.5523
  192SLPC  C31822317   5.092   1.893   8.792 -0.0504 -0.5618  0.5375
  192SLPC  H18X22318   5.063   1.941   8.888 -0.8349 -1.5626  0.8165
  192SLPC  H18Y22319   5.180   1.941   8.745 -1.5779 -0.4352 -2.3859
  192SLPC  H18Z22320   5.109   1.788   8.823 -0.1315 -0.7082  0.0941
  193SOD    SOD22321   0.306   3.774   0.868 -0.2694 -0.0902 -0.0300
  194SOD    SOD22322   1.234   1.732   2.532 -0.0162 -0.4128  0.1155
  195SOD    SOD22323   5.372   6.604   1.144 -0.2802  0.0531 -0.3045
  196SOD    SOD22324   5.754   6.022  16.291  0.0740  0.1825 -0.0451
  197SOD    SOD22325   5.443   1.100  12.843 -0.2200  0.3416 -0.1421
  198SOD    SOD22326   2.113   1.429   5.952  0.1382  0.1403  0.3260
  199SOD    SOD22327   2.140   2.276  17.216 -0.0212 -0.2304  0.2094
  200SOD    SOD22328   0.145   1.311   0.696 -0.4404 -0.1881  0.2623
  201SOD    SOD22329   5.974   4.705  11.584 -0.0744 -0.3302 -0.1194
  202SOD    SOD22330   3.655   0.051   5.948  0.2437 -0.6419 -0.2921
  203SOD    SOD22331   5.781   4.644  16.140 -0.1327 -0.2889 -0.1867
  204SOD    SOD22332   2.806   3.729   0.780 -0.3569  0.1010  0.0512
  205SOD    SOD22333   4.658   1.025   0.463  0.1362 -0.0454  0.0945
  206SOD    SOD22334   6.243   3.221  13.097  0.0007 -0.0631  0.0542
  207SOD    SOD22335   5.970   1.249  14.448 -0.2661 -0.0503  0.5559
  208SOD    SOD22336   3.074   2.612   5.870 -0.0979  0.2852 -0.2424
  209SOD    SOD22337   1.536   1.276  14.523 -0.4026 -0.9450 -0.5772
  210SOD    SOD22338   4.910   4.064  17.267 -0.4725 -0.6938 -0.9272
  211SOD    SOD22339   5.006   2.466  15.282 -0.1828  0.1114 -0.4256
  212SOD    SOD22340   5.711   6.566   5.430 -0.0998  0.0996 -0.4370
  213SOD    SOD22341   6.231   0.491   4.134  0.4680  0.1073  0.4816
  214SOD    SOD22342   2.794   5.119   5.880  0.1061  0.2074  0.7360
  215SOD    SOD22343   3.704   2.351   6.261 -0.1550  0.1819  0.3784
  216SOD    SOD22344   6.410   4.945   5.471 -0.3083  0.3432 -0.2829
  217SOD    SOD22345   1.880   3.040  14.885  0.0353  0.1694 -0.4318
  218SOD    SOD22346   4.782   6.645  15.473  0.3432  0.3897  0.5649
  219SOD    SOD22347   6.350   4.750  10.869  0.3462 -0.1519 -0.2611
  220SOD    SOD22348   6.453   6.747  11.602  0.0454 -0.0275 -0.0242
  221SOD    SOD22349   6.703   2.915  10.826  0.4183 -0.2684 -0.2254
  222SOD    SOD22350   2.553   3.077  15.976  0.0582  0.7980  0.0903
  223SOD    SOD22351   2.301   5.337   6.092  0.0405  0.2029  0.7286
  224SOD    SOD22352   1.564   0.384   1.100  0.1034  0.8701 -0.2458
  225SOD    SOD22353   6.656   0.097   5.480 -0.0812 -0.1374 -0.5758
  226SOD    SOD22354   2.459   3.031   4.311  0.2262  0.6462  0.7849
  227SOD    SOD22355   1.334   4.857  12.604  0.5999  0.2526  0.1638
  228SOD    SOD22356   1.773   2.713  11.198  0.0846  0.4038  0.1484
  229SOD    SOD22357   1.850   4.835  11.686 -0.1882 -0.1207 -0.0387
  230SOD    SOD22358   3.193   3.943   1.134  0.2827 -0.6892  0.3077
  231SOD    SOD22359   4.607   1.230  12.521  0.1438  0.1346 -0.5637
  232SOD    SOD22360   4.575   2.784   2.992  0.0901  0.5452  0.2232
  233SOD    SOD22361   3.361   6.307   5.767 -0.4119 -0.3094 -0.6701
  234SOD    SOD22362   1.792   3.535   5.181 -0.4348 -0.0121  0.3219
  235SOD    SOD22363   3.526   0.788   3.070 -0.1549  0.2325 -0.1878
  236SOD    SOD22364   4.582   4.512  16.046 -0.0566 -0.4167  0.2455
  237SOD    SOD22365   3.950   5.015  11.876 -0.1610  0.3208 -0.4393
  238SOD    SOD22366   4.711   5.561   0.445 -0.2108  0.1851 -0.1451
  239SOD    SOD22367   0.484   3.693  15.996  0.0545  0.1348 -0.6384
  240SOD    SOD22368   1.942   4.708   5.822 -0.3680  0.2478 -0.5982
  241SOD    SOD22369   5.253   6.064  11.000 -0.2790 -0.3836  0.1492
  242SOD    SOD22370   0.803   3.142  13.155  0.4207 -0.3594  0.2998
  243SOD    SOD22371   3.453   4.479  16.458 -0.2613  0.7747  0.1834
  244SOD    SOD22372   2.032   1.818   6.668  0.5400  0.3049 -0.1649
  245SOD    SOD22373   5.995   3.072  11.580  0.0004  0.1942 -0.0666
  246SOD    SOD22374   0.322   0.756  14.380 -0.0961 -0.0015  0.0322
  247SOD    SOD22375   1.923   6.059  15.119  0.2264 -0.1763 -0.1521
  248SOD    SOD22376   0.955   4.241  14.010 -0.0549  0.4663 -0.3164
  249SOD    SOD22377   1.468   2.424   3.161  0.2507 -0.2142 -0.3584
  250SOD    SOD22378   0.641   0.164   3.761  0.1745  0.2170  0.1588
  251SOD    SOD22379   2.843   5.725   3.896  0.2702 -0.0568  0.2347
  252SOD    SOD22380   2.396   0.985  17.332  0.0791  0.5256  0.3910
  253SOD    SOD22381   0.046   5.026  13.363  0.1034 -0.0007  0.1460
  254SOD    SOD22382   3.944   2.335   3.776 -0.6524 -0.6321 -0.2127
  255SOD    SOD22383   0.653   5.759  11.035  0.4929 -0.1132 -0.5472
  256SOD    SOD22384   6.521   3.213  15.597 -0.2889 -0.6518 -0.4656
  257SOD    SOD22385   0.524   1.041  11.699  0.2850  0.1986 -0.2059
  258SOD    SOD22386   6.608   4.227   1.763  0.4402  0.6359 -0.0894
  259SOD    SOD22387   2.912   1.378   3.744 -0.3621  0.0721 -0.3428
  260SOD    SOD22388   1.169   3.247   4.910  0.0148 -0.2314  0.2183
  261SOD    SOD22389   5.132   3.953  16.536  0.2468 -0.3655  0.6013
  262SOD    SOD22390   0.290   2.116  14.217 -0.0903 -0.2216  0.3818
  263SOD    SOD22391   4.562   4.412  12.728  0.0643 -0.2997  0.3949
  264SOD    SOD22392   6.551   3.279  15.087 -0.1367  0.0227  0.4012
  265SOD    SOD22393   2.846   4.998  10.841 -0.0881  0.6412 -0.3863
  266CLA    CLA22394   1.424   5.877  15.813  0.0728  0.0384 -0.1408
  267CLA    CLA22395   0.450   1.631   0.317  0.0080  0.2649  0.2504
  268CLA    CLA22396   0.783   2.749   1.787 -0.3672 -0.4930  0.2012
  269CLA    CLA22397   5.145   6.370  17.155 -0.1607 -0.0913 -0.3157
  270CLA    CLA22398   6.521   1.885  15.707 -0.2167 -0.2680 -0.1167
  271CLA    CLA22399   5.697   6.137   2.607 -0.0032  0.1840  0.2621
  272CLA    CLA22400   5.490   0.651  17.166 -0.4216  0.1663 -0.0321
  273CLA    CLA22401   3.965   6.302  15.736 -0.0049 -0.0491 -0.0745
  274CLA    CLA22402   4.226   0.889  15.535  0.1945 -0.2993  0.1590
  275CLA    CLA22403   1.545   1.529  16.820 -0.2185  0.3232 -0.0458
  276CLA    CLA22404   3.602   1.449   5.681  0.0903 -0.0741 -0.2645
  277CLA    CLA22405   0.301   4.318  12.741 -0.0093  0.3648  0.4406
  278CLA    CLA22406   6.512   1.132  12.418 -0.1584 -0.1017  0.1271
  279CLA    CLA22407   3.244   4.168  13.662 -0.1423 -0.0453 -0.0418
  280CLA    CLA22408   3.851   4.787  14.299 -0.8607 -0.0719  0.2796
  281CLA    CLA22409   4.010   3.888   0.798  0.1660 -0.6947 -0.0982
  282CLA    CLA22410   5.866   6.206  12.888  0.0432 -0.0321  0.3124
  283CLA    CLA22411   6.692   4.513   1.402 -0.0641  0.1222 -0.1243
  284CLA    CLA22412   5.453   2.965   0.972 -0.1912  0.3193 -0.1693
  285CLA    CLA22413   1.822   0.850  17.097 -0.0011 -0.1315 -0.4107
  286CLA    CLA22414   6.148   3.521  16.126  0.3269 -0.3864  0.0964
  287CLA    CLA22415   0.687   0.764  13.865 -0.4213 -0.0164 -0.0435
  288CLA    CLA22416   6.069   3.982  12.966 -0.0558  0.4535 -0.1701
  289CLA    CLA22417   3.719   6.082   3.432 -0.6198  0.3734  0.5479
  290CLA    CLA22418   1.106   3.292   5.389  0.2719 -0.5170  0.0925
  291CLA    CLA22419   1.620   2.986   3.739  0.1704 -0.1598  0.1369
  292CLA    CLA22420   3.461   1.710   0.057  0.3137  0.1623 -0.0664
  293CLA    CLA22421   1.431   0.220   5.687  0.4114 -0.2591 -0.3355
  294CLA    CLA22422   6.132   3.941   1.432  0.4887  0.0023 -0.0969
  295CLA    CLA22423   5.944   4.853   5.306  0.4014 -0.5118 -0.5326
  296CLA    CLA22424   6.538   2.906  12.525  0.4207 -0.2052 -0.1742
  297CLA    CLA22425   0.691   3.654  12.628 -0.2918  0.4401  0.0717
  298CLA    CLA22426   5.650   5.202   4.755 -0.1213  0.0419  0.0079
  299CLA    CLA22427   3.212   0.729  17.139  0.0617 -0.2891 -0.0716
  300CLA    CLA22428   5.556   0.073  14.482  0.0652  0.2135 -0.6250
  301CLA    CLA22429   3.578   2.779  13.462  0.5026 -0.1612  0.0386
  302CLA    CLA22430   6.447   5.927   4.808 -0.0060  0.3229 -0.3511
  303CLA    CLA22431   4.825   1.089   0.643  0.0504  0.1934 -0.0075
  304CLA    CLA22432   2.848   2.456   1.121 -0.1006  0.1680  0.4398
  305CLA    CLA22433   3.136   0.717   3.482  0.0825  0.0768 -0.0662
  306CLA    CLA22434   2.276   0.538  15.969  0.6866  0.3407 -0.1398
  307CLA    CLA22435   1.344   4.822  11.696  0.4422  0.3949  0.0416
  308CLA    CLA22436   5.324   4.487   4.542  0.0356  0.1140 -0.3452
  309CLA    CLA22437   2.840   3.666  15.503 -0.0311 -0.3554 -0.1441
  310CLA    CLA22438   5.426   3.726  16.842 -0.3318 -0.1465  0.1529
  311CLA    CLA22439   5.168   4.873   3.421  0.1390 -0.4387 -0.0420
  312CLA    CLA22440   6.548   3.411  14.093  0.0206 -0.2350  0.0621
  313CLA    CLA22441   0.357   2.800  16.639  0.2589 -0.2611  0.1069
  314CLA    CLA22442   1.449   4.417  13.190  0.1859 -0.2679 -0.3470
  315CLA    CLA22443   5.271   5.013  15.909  0.4122 -0.0563  0.5201
  316CLA    CLA22444   2.936   3.925   1.235 -0.1753 -0.4539  0.4691
  317CLA    CLA22445   0.376   1.676   2.595 -0.0350 -0.1696 -0.1573
  318CLA    CLA22446   4.420   2.608  11.441  0.7927  0.1758  0.0612
  319TIP3   OH222447   1.338   2.398   2.621  0.4450 -0.5104 -0.3598
  319TIP3    H122448   1.393   2.330   2.581 -0.0503 -1.2786  0.2324
  319TIP3    H222449   1.349   2.474   2.565  2.9396 -0.3013  0.3175
  320TIP3   OH222450   6.646   5.788   6.136 -0.1911 -0.3376 -0.2024
  320TIP3    H122451   6.633   5.731   6.212  0.6723 -0.5994 -0.2360
  320TIP3    H222452   6.741   5.803   6.134 -0.1712 -0.5609 -1.3855
  321TIP3   OH222453   0.715   4.810   2.416 -0.5347  0.2054 -0.1704
  321TIP3    H122454   0.643   4.748   2.420  0.4022 -1.0071 -1.1647
  321TIP3    H222455   0.771   4.778   2.345  0.0367  2.1479 -0.6724
  322TIP3   OH222456   4.614   1.473  12.948 -0.2600  0.2897  0.0095
  322TIP3    H122457   4.594   1.560  12.913 -0.4063 -0.1245 -0.9646
  322TIP3    H222458   4.549   1.459  13.016 -0.0015  1.0930  0.4434
  323TIP3   OH222459   1.963   4.311  12.200  0.3603 -0.6174 -0.2028
  323TIP3    H122460   1.981   4.317  12.294 -1.0297 -3.4684  0.3616
  323TIP3    H222461   2.045   4.280  12.162  1.6781  2.7446 -0.4099
  324TIP3   OH222462   4.988   3.427  11.878 -0.1182  0.5937 -0.0671
  324TIP3    H122463   4.899   3.400  11.900  1.3867 -2.4745  3.3747
  324TIP3    H222464   5.001   3.510  11.923 -0.5392 -0.1532  1.4754
  325TIP3   OH222465   4.357   2.851  15.915  0.2111 -0.7692  0.1778
  325TIP3    H122466   4.424   2.916  15.890 -0.7488  0.8038  1.4823
  325TIP3    H222467   4.377   2.830  16.006 -0.6666 -0.7843  0.3760
  326TIP3   OH222468   3.287   6.535  10.868  0.2459 -0.5093 -0.2429
  326TIP3    H122469   3.227   6.572  10.803 -0.4918  0.6750  1.0464
  326TIP3    H222470   3.275   6.440  10.860 -0.0233 -0.3814 -1.6289
  327TIP3   OH222471   3.604   4.803   6.047  0.4226  0.4895  0.1193
  327TIP3    H122472   3.546   4.794   6.122  2.1094 -1.4522  1.2938
  327TIP3    H222473   3.689   4.827   6.084  1.3961 -0.8958 -1.0648
  328TIP3   OH222474   4.954   0.283   6.082  0.9093  0.3038 -0.4189
  328TIP3    H122475   5.006   0.239   6.149 -0.0794  1.5747  1.2695
  328TIP3    H222476   5.010   0.354   6.051  0.3202  1.5707  1.2781
  329TIP3   OH222477   0.275   2.360   3.448  0.0422  0.2193  0.1909
  329TIP3    H122478   0.301   2.362   3.540 -0.9757  0.6845  0.4844
  329TIP3    H222479   0.180   2.371   3.450 -0.2246 -1.5056 -0.8261
  330TIP3   OH222480   4.375   2.730   3.101 -0.4949 -0.3983 -0.0490
  330TIP3    H122481   4.315   2.805   3.101 -0.9804 -0.7824  0.2467
  330TIP3    H222482   4.320   2.656   3.077 -0.0944 -0.7237  0.0345
  331TIP3   OH222483   4.639   2.765  17.260  0.1160 -0.2895  0.0905
  331TIP3    H122484   4.557   2.759  17.310  0.1513  2.8899  0.7554
  331TIP3    H222485   4.696   2.820  17.315  1.7386 -0.2566 -1.5403
  332TIP3   OH222486   2.262   3.539   0.864 -0.3831  0.3119  0.2965
  332TIP3    H122487   2.285   3.566   0.775 -3.0890  1.5104 -0.1170
  332TIP3    H222488   2.297   3.609   0.920  1.1388 -0.3412  0.2049
  333TIP3   OH222489   1.802   5.191  16.431  0.4198 -0.4481 -0.1129
  333TIP3    H122490   1.873   5.251  16.455 -0.5671  0.8143 -0.2252
  333TIP3    H222491   1.805   5.123  16.498  1.9390 -0.6316 -0.3125
  334TIP3   OH222492   4.128   0.801   3.827  0.3182  0.2061 -0.6976
  334TIP3    H122493   4.163   0.797   3.916  0.8292  2.3891 -0.7610
  334TIP3    H222494   4.089   0.714   3.813 -1.5549  0.4185  2.3544
  335TIP3   OH222495   5.735   5.524   5.631  0.0878  0.1954 -0.2308
  335TIP3    H122496   5.776   5.474   5.560 -1.3764 -2.1642  0.4868
  335TIP3    H222497   5.805   5.583   5.661  1.3726 -0.1879 -2.2585
  336TIP3   OH222498   2.371   0.200  13.027 -0.1807 -0.3616  0.2106
  336TIP3    H122499   2.292   0.241  13.063  0.2236  1.0032 -0.4034
  336TIP3    H222500   2.373   0.229  12.935  0.4865 -1.2293 -0.0606
  337TIP3   OH222501   1.935   4.114   1.674  0.5510 -0.3017 -0.0255
  337TIP3    H122502   1.974   4.198   1.649  0.0672  0.1428  0.6866
  337TIP3    H222503   1.964   4.054   1.605  0.9787  0.4204 -0.5020
  338TIP3   OH222504   6.270   1.338   2.881 -0.2605 -0.2878  0.4843
  338TIP3    H122505   6.240   1.344   2.972 -1.1425  1.7446  0.1151
  338TIP3    H222506   6.316   1.421   2.865  3.3596 -2.1620  0.1786
  339TIP3   OH222507   2.979   0.119  16.674  0.3272  0.9029  0.0687
  339TIP3    H122508   3.020   0.159  16.751 -1.1418 -0.5416  1.7000
  339TIP3    H222509   2.900   0.170  16.660  0.8183  1.4471 -0.8177
  340TIP3   OH222510   4.110   3.394  14.469  0.6624 -0.3433  0.3024
  340TIP3    H122511   4.095   3.426  14.380  1.8110 -0.7150 -0.0484
  340TIP3    H222512   4.181   3.449  14.503 -0.3854  0.4175  1.3562
  341TIP3   OH222513   5.737   4.845  15.738  0.3289  0.4249  0.4080
  341TIP3    H122514   5.808   4.793  15.699  2.6074  1.9262  2.3038
  341TIP3    H222515   5.731   4.923  15.683  0.0562  0.2832  0.2273
  342TIP3   OH222516   6.581   6.703  12.521 -0.2892 -0.6893 -0.4444
  342TIP3    H122517   6.499   6.711  12.569  0.9500  0.7012  1.5976
  342TIP3    H222518   6.582   6.779  12.463  0.4697  0.5718  1.1357
  343TIP3   OH222519   4.998   4.870  17.275 -0.2894 -0.7195  0.2822
  343TIP3    H122520   4.961   4.898  17.192 -0.4899 -1.3865  0.1394
  343TIP3    H222521   4.984   4.944  17.334 -2.3932 -1.1663  0.4058
  344TIP3   OH222522   2.430   4.442  12.432 -0.5323  0.0096 -0.3684
  344TIP3    H122523   2.375   4.373  12.470 -0.3688 -0.6439 -1.2911
  344TIP3    H222524   2.398   4.450  12.342  2.9027 -2.6954 -2.0796
  345TIP3   OH222525   4.685   4.328   5.676 -0.9131 -0.8289 -0.1372
  345TIP3    H122526   4.730   4.295   5.753 -2.1323 -0.5697  0.7196
  345TIP3    H222527   4.723   4.278   5.603 -1.2920 -2.7217  0.8816
  346TIP3   OH222528   1.574   4.209  12.269 -0.4066  0.1547  0.0083
  346TIP3    H122529   1.523   4.219  12.188 -0.1991 -0.5914 -0.2253
  346TIP3    H222530   1.509   4.190  12.336 -0.3377 -3.2828 -0.7247
  347TIP3   OH222531   2.265   1.617  10.562  0.5938  0.1399  0.3345
  347TIP3    H122532   2.348   1.574  10.580  0.8928  1.0338  1.1877
  347TIP3    H222533   2.288   1.689  10.503  0.6179  1.0424  1.4133
  348TIP3   OH222534   1.287   5.734   5.708 -0.2205 -0.0331  0.0806
  348TIP3    H122535   1.230   5.803   5.743 -0.8438 -1.1196  1.2832
  348TIP3    H222536   1.372   5.777   5.698 -0.8434  1.1909 -0.2052
  349TIP3   OH222537   2.896   2.131  15.056 -0.3202  0.6352  0.4801
  349TIP3    H122538   2.874   2.216  15.017 -1.1288  0.1657 -0.1036
  349TIP3    H222539   2.824   2.073  15.032  0.4119 -0.3313  0.5414
  350TIP3   OH222540   3.153   3.978   2.355  0.1506  0.1061 -0.6315
  350TIP3    H122541   3.168   4.010   2.444  0.8883 -2.3693  0.2094
  350TIP3    H222542   3.076   3.921   2.362  0.5950 -0.6220 -1.4387
  351TIP3   OH222543   6.334   2.951   4.400 -0.0107 -0.2752 -0.0615
  351TIP3    H122544   6.316   3.014   4.469  0.6905  0.4954 -0.5556
  351TIP3    H222545   6.365   2.873   4.445 -1.0789 -0.3495  0.5696
  352TIP3   OH222546   0.931   3.911   4.846 -0.0680  0.1639  0.4739
  352TIP3    H122547   0.951   3.949   4.760 -0.1839 -0.5908  0.1059
  352TIP3    H222548   0.984   3.961   4.908  1.3875 -0.4644 -0.2376
  353TIP3   OH222549   2.116   4.585  16.611  0.1433 -0.0510  0.3844
  353TIP3    H122550   2.191   4.525  16.606  0.8327  0.7550  0.8214
  353TIP3    H222551   2.042   4.533  16.581  1.2896 -0.1506 -2.5445
  354TIP3   OH222552   3.549   3.877   1.436 -0.7018  0.2982  0.4495
  354TIP3    H122553   3.524   3.968   1.420  2.0119  1.0733  0.1399
  354TIP3    H222554   3.639   3.882   1.467 -0.2069 -2.3392 -0.3080
  355TIP3   OH222555   2.463   6.745  14.414 -0.0477  0.2555  0.0544
  355TIP3    H122556   2.479   6.775  14.504 -0.6858 -0.0938  0.2847
  355TIP3    H222557   2.521   6.670  14.404  0.1416  0.3912  0.1204
  356TIP3   OH222558   6.279   4.123  15.789 -0.0455  0.5840 -0.0019
  356TIP3    H122559   6.276   4.030  15.813 -2.2368  0.2304 -1.3759
  356TIP3    H222560   6.304   4.168  15.869  2.0678 -1.2159  0.4767
  357TIP3   OH222561   0.318   5.725   4.609  0.0613  0.3010 -0.4648
  357TIP3    H122562   0.285   5.708   4.521 -0.7297 -0.4787 -0.0345
  357TIP3    H222563   0.350   5.815   4.606 -0.0390  0.3101 -1.5222
  358TIP3   OH222564   2.445   6.315   2.268  0.3398 -0.0053 -0.1881
  358TIP3    H122565   2.370   6.256   2.275  0.3209 -0.1208 -1.1909
  358TIP3    H222566   2.445   6.364   2.350  0.6832 -1.7730  0.9435
  359TIP3   OH222567   4.124   3.438  16.943  0.1527  0.2993 -0.3874
  359TIP3    H122568   4.036   3.432  16.981  0.4930  0.9212  0.5213
  359TIP3    H222569   4.176   3.375  16.994 -0.3715 -2.3877 -2.8570
  360TIP3   OH222570   4.057   0.676  12.649  1.2708  0.2141 -0.0088
  360TIP3    H122571   4.082   0.586  12.625  0.8873 -0.0085  0.4302
  360TIP3    H222572   3.980   0.666  12.704  0.4191  0.8803 -1.0332
  361TIP3   OH222573   2.627   0.591   0.704  0.3646 -0.2186 -0.0456
  361TIP3    H122574   2.691   0.651   0.665  0.1922  0.6482  0.9366
  361TIP3    H222575   2.680   0.520   0.740  0.6684 -0.1597 -0.3763
  362TIP3   OH222576   1.047   1.598  12.219  0.1923  0.1085 -0.0494
  362TIP3    H122577   1.108   1.570  12.151 -1.2764 -0.1300 -1.3184
  362TIP3    H222578   1.028   1.689  12.198 -2.4585 -0.7493 -1.7383
  363TIP3   OH222579   4.382   0.924  11.184 -0.0869 -0.6192 -0.2763
  363TIP3    H122580   4.421   0.862  11.245  0.2408 -0.4099 -0.2685
  363TIP3    H222581   4.430   0.911  11.102 -0.1031 -0.4722 -0.3105
  364TIP3   OH222582   5.138   5.909  14.803  0.5113  0.1713 -0.6400
  364TIP3    H122583   5.223   5.896  14.760 -0.1124 -0.7802 -1.6623
  364TIP3    H222584   5.095   5.975  14.749  0.3156  0.0968 -0.5733
  365TIP3   OH222585   0.640   0.575  14.147  0.4910 -0.5669  0.1053
  365TIP3    H122586   0.654   0.616  14.062  0.9962  1.6381  1.1617
  365TIP3    H222587   0.723   0.586  14.193  0.5622 -2.6381  0.5827
  366TIP3   OH222588   4.493   0.863  17.008 -0.3688  0.6236  0.1635
  366TIP3    H122589   4.440   0.923  17.061  0.3051  2.0684 -0.7332
  366TIP3    H222590   4.454   0.868  16.921  0.5830  0.9043 -0.2572
  367TIP3   OH222591   5.193   1.322   1.165 -0.4420 -0.1442 -0.0971
  367TIP3    H122592   5.266   1.329   1.104 -0.0770 -0.2095  0.3288
  367TIP3    H222593   5.139   1.399   1.147  0.8468  1.0855  1.0323
  368TIP3   OH222594   2.894   4.101   0.637 -0.2621 -0.1084  0.2721
  368TIP3    H122595   2.948   4.160   0.690  0.4655  0.4991 -1.0943
  368TIP3    H222596   2.812   4.093   0.686 -0.9868  3.2573 -0.1804
  369TIP3   OH222597   2.538   2.286  12.815 -0.3155 -0.0939 -0.1328
  369TIP3    H122598   2.536   2.336  12.897  0.3900  0.3935 -0.3991
  369TIP3    H222599   2.584   2.205  12.837  2.2365  1.1140 -0.5726
  370TIP3   OH222600   5.196   6.748   3.500  0.0765 -0.1188 -0.2000
  370TIP3    H122601   5.175   6.660   3.530 -0.7581  0.2986  0.4877
  370TIP3    H222602   5.111   6.792   3.493  0.5351  0.8974  0.3350
  371TIP3   OH222603   3.297   5.542   1.399  0.1889  0.1429 -0.3982
  371TIP3    H122604   3.275   5.623   1.353  0.5084  1.1671  1.1749
  371TIP3    H222605   3.392   5.535   1.390  0.4199  1.0118  1.0858
  372TIP3   OH222606   0.432   1.459  15.816 -0.0526 -0.3867 -0.0136
  372TIP3    H122607   0.470   1.458  15.728  4.1026  2.2919  1.4454
  372TIP3    H222608   0.364   1.527  15.812 -1.2031 -1.5549 -1.4862
  373TIP3   OH222609   5.280   4.140  14.492 -0.3607  0.4678 -0.3831
  373TIP3    H122610   5.293   4.233  14.475 -0.7640  0.3695 -1.3162
  373TIP3    H222611   5.325   4.096  14.420 -0.2493 -0.0570  0.0019
  374TIP3   OH222612   6.321   3.685  15.896 -0.1150  0.3573  0.0949
  374TIP3    H122613   6.307   3.651  15.985  0.7241 -0.7669 -0.1819
  374TIP3    H222614   6.237   3.725  15.873 -1.4614 -2.2025  0.1705
  375TIP3   OH222615   5.970   4.615  17.240  0.1075 -0.6224 -0.3304
  375TIP3    H122616   6.034   4.684  17.260 -0.1916 -1.0328  2.3988
  375TIP3    H222617   5.887   4.662  17.229 -0.1648 -0.4864  1.8734
  376TIP3   OH222618   1.481   5.075  11.791  0.1906  0.2899  0.5150
  376TIP3    H122619   1.463   5.032  11.875 -0.7644  2.2943  1.4045
  376TIP3    H222620   1.421   5.033  11.729 -0.3344 -0.0491  1.2399
  377TIP3   OH222621   1.494   3.097  13.066 -0.7049 -0.1761  0.3775
  377TIP3    H122622   1.554   3.097  13.140  0.3155 -0.1386 -0.4172
  377TIP3    H222623   1.417   3.050  13.097 -0.2863 -0.1824  1.4420
  378TIP3   OH222624   6.449   3.839  13.805 -0.5532 -0.3416 -0.1667
  378TIP3    H122625   6.529   3.787  13.808  0.2298  0.6713 -1.7966
  378TIP3    H222626   6.398   3.800  13.735 -1.3014 -0.7026  0.5682
  379TIP3   OH222627   3.144   3.395   3.538 -0.3908 -0.6229  0.6441
  379TIP3    H122628   3.160   3.473   3.485  0.5153 -1.4497 -0.3388
  379TIP3    H222629   3.159   3.424   3.629 -0.2583  0.3780  0.3166
  380TIP3   OH222630   1.568   5.767  16.543 -0.1652 -0.5125  0.2505
  380TIP3    H122631   1.549   5.715  16.465  1.7697  0.2755 -0.8213
  380TIP3    H222632   1.543   5.857  16.519  1.0859 -0.1491  0.2639
  381TIP3   OH222633   2.228   3.638  14.277 -0.1944 -0.0500  0.1263
  381TIP3    H122634   2.146   3.619  14.232  0.1165 -0.6810 -0.1856
  381TIP3    H222635   2.254   3.555  14.316 -1.2242  0.7797  2.7885
  382TIP3   OH222636   1.277   0.325   3.241  0.1847  0.4675 -0.2907
  382TIP3    H122637   1.313   0.340   3.153  0.5480 -0.4021 -0.2960
  382TIP3    H222638   1.352   0.296   3.293 -0.6510 -2.6208 -0.6073
  383TIP3   OH222639   0.343   0.583   4.925  0.4540 -0.2337  0.0436
  383TIP3    H122640   0.281   0.621   4.988  0.6712 -0.4500  0.3891
  383TIP3    H222641   0.392   0.658   4.892 -1.1487  0.1925 -1.5341
  384TIP3   OH222642   5.061   2.126  17.316 -0.0034  0.3222 -0.3966
  384TIP3    H122643   5.089   2.171  17.236  1.8468  0.2967  0.1745
  384TIP3    H222644   5.143   2.110  17.363 -0.5808 -3.2288 -0.3219
  385TIP3   OH222645   0.958   3.075   4.335  0.1111  0.3935 -0.0031
  385TIP3    H122646   0.987   3.115   4.253  0.1010 -0.9670 -0.6911
  385TIP3    H222647   0.928   2.988   4.311 -2.0581  0.7703  1.1155
  386TIP3   OH222648   1.044   1.197   4.979 -0.1770 -0.4488 -0.0356
  386TIP3    H122649   1.004   1.157   4.902 -0.7510 -0.7294  0.3993
  386TIP3    H222650   1.076   1.282   4.948 -0.5261 -0.4999 -0.5524
  387TIP3   OH222651   0.418   5.407   5.686  0.4573 -0.8189 -0.2427
  387TIP3    H122652   0.471   5.333   5.716 -0.6563 -1.7795 -0.5604
  387TIP3    H222653   0.334   5.395   5.731  0.4635  0.6395  0.2078
  388TIP3   OH222654   0.145   4.318   2.381  0.3125  0.5532  0.9453
  388TIP3    H122655   0.109   4.230   2.390  0.6217  0.4327  1.0276
  388TIP3    H222656   0.238   4.303   2.360  0.1244  0.8406 -0.1420
  389TIP3   OH222657   4.310   0.241   1.587 -0.4280  0.2114 -0.0817
  389TIP3    H122658   4.395   0.283   1.577 -0.7610  0.7795 -0.5725
  389TIP3    H222659   4.295   0.241   1.682 -0.2252  0.8037 -0.0476
  390TIP3   OH222660   1.642   4.483  14.903 -0.0618  0.0765 -0.0729
  390TIP3    H122661   1.626   4.389  14.900  0.1275  0.0720 -2.6109
  390TIP3    H222662   1.737   4.492  14.912  0.2562 -0.0736 -2.5505
  391TIP3   OH222663   4.178   6.675   5.482 -0.4195  0.1349  0.2456
  391TIP3    H122664   4.257   6.655   5.433 -0.8189 -2.0725  0.3985
  391TIP3    H222665   4.209   6.723   5.559  0.8759 -1.2810  0.6447
  392TIP3   OH222666   6.745   4.417   1.781  0.0993  0.1122  0.0803
  392TIP3    H122667   6.811   4.429   1.713  0.8316  0.3721  0.8281
  392TIP3    H222668   6.795   4.404   1.862 -0.7351 -1.0532  0.4476
  393TIP3   OH222669   4.820   2.797   1.608  0.1147  0.4047  0.3940
  393TIP3    H122670   4.881   2.766   1.541 -1.0697  0.0592 -0.5517
  393TIP3    H222671   4.859   2.766   1.691  0.7130 -0.6802 -0.2613
  394TIP3   OH222672   0.965   5.038  14.292  0.2617  0.1569 -0.0740
  394TIP3    H122673   0.910   5.020  14.217 -0.4960  1.2986  0.1824
  394TIP3    H222674   0.905   5.046  14.366  0.8131  0.8419  0.3208
  395TIP3   OH222675   6.523   4.569  13.647 -0.2941 -0.4020 -0.4063
  395TIP3    H122676   6.509   4.620  13.567  0.7379  0.4431 -0.0656
  395TIP3    H222677   6.587   4.619  13.697  0.4350 -1.8245  0.1412
  396TIP3   OH222678   3.821   1.133   1.442  0.5739 -0.3798 -0.0713
  396TIP3    H122679   3.769   1.189   1.385  2.4820  0.4190 -1.1007
  396TIP3    H222680   3.864   1.193   1.503  1.4097 -0.8581 -0.1708
  397TIP3   OH222681   5.098   2.933  16.331  0.4806 -0.1754  0.4075
  397TIP3    H122682   5.016   2.974  16.359  0.0953 -1.4409  1.2504
  397TIP3    H222683   5.167   2.984  16.374  0.0598  0.0672  0.8049
  398TIP3   OH222684   5.911   2.197   1.808  0.0050  0.5725 -0.6448
  398TIP3    H122685   5.893   2.282   1.768 -0.3626  0.7803 -0.0539
  398TIP3    H222686   5.838   2.142   1.782  0.9190  0.0076 -2.1747
  399TIP3   OH222687   6.156   5.708   1.600 -0.0371 -0.1450  0.1855
  399TIP3    H122688   6.089   5.645   1.630  2.1944 -1.9846  1.6564
  399TIP3    H222689   6.215   5.656   1.545  0.1604  1.4831 -1.2483
  400TIP3   OH222690   1.042   0.632   2.599 -0.1503  0.0591  0.3602
  400TIP3    H122691   0.962   0.653   2.552  1.6308 -0.2404 -3.0877
  400TIP3    H222692   1.100   0.595   2.533  3.1609  1.0289  2.4983
  401TIP3   OH222693   3.762   3.798  15.182 -0.1150  0.8531 -0.4038
  401TIP3    H122694   3.717   3.716  15.160  1.2426 -0.4728  1.4029
  401TIP3    H222695   3.847   3.790  15.138 -0.3559  1.7917 -1.0555
  402TIP3   OH222696   5.008   2.907   6.258 -0.3527 -0.2885 -0.3619
  402TIP3    H122697   5.001   2.844   6.330 -1.4836 -0.8954 -0.9727
  402TIP3    H222698   4.918   2.934   6.240 -0.1407 -0.3927 -1.7518
  403TIP3   OH222699   1.891   6.395  14.117  0.4159  0.5170  0.2190
  403TIP3    H122700   1.839   6.474  14.106 -0.0628  0.6148  2.6223
  403TIP3    H222701   1.832   6.324  14.092 -0.1540  0.7697  0.8039
  404TIP3   OH222702   0.641   4.829   5.809  0.3673 -0.4870 -0.1642
  404TIP3    H122703   0.569   4.767   5.801  0.0495 -0.4953  2.1390
  404TIP3    H222704   0.627   4.891   5.737 -0.4020 -1.9368 -1.3314
  405TIP3   OH222705   4.019   4.278  17.282 -0.6650  0.1040 -0.0933
  405TIP3    H122706   3.976   4.225  17.214 -0.3024 -0.2374 -0.0634
  405TIP3    H222707   4.039   4.361  17.239  0.1614 -0.3448 -0.6183
  406TIP3   OH222708   6.661   1.758   4.672 -0.4217  0.2150  0.5667
  406TIP3    H122709   6.653   1.853   4.672  0.6066  0.3190  0.2866
  406TIP3    H222710   6.698   1.737   4.586  0.5172 -0.3156  1.0791
  407TIP3   OH222711   1.286   0.502  15.223  0.0493  0.3613  0.1536
  407TIP3    H122712   1.325   0.518  15.309 -0.8469 -1.0200  0.8520
  407TIP3    H222713   1.209   0.559  15.220  1.1099  1.8141 -0.5323
  408TIP3   OH222714   4.145   1.593  14.952  0.3778 -0.0967 -0.2141
  408TIP3    H122715   4.149   1.527  15.021 -1.2926 -0.7352 -0.6841
  408TIP3    H222716   4.082   1.559  14.889 -1.2219  2.3107 -0.0639
  409TIP3   OH222717   3.839   5.230   5.040  0.1488 -0.1082 -0.6278
  409TIP3    H122718   3.868   5.258   4.953  2.7872  1.8320  0.7204
  409TIP3    H222719   3.891   5.151   5.058 -0.2913 -0.4264 -0.7356
  410TIP3   OH222720   6.308   3.229  15.172  0.4528 -0.2674 -0.0928
  410TIP3    H122721   6.280   3.138  15.181 -0.7649 -0.0437 -1.3739
  410TIP3    H222722   6.231   3.275  15.139  1.0607  1.2327  0.4964
  411TIP3   OH222723   1.788   4.412  14.639 -0.5764 -0.1878 -0.0385
  411TIP3    H122724   1.751   4.355  14.706  1.6969 -1.7635 -0.0131
  411TIP3    H222725   1.745   4.496  14.652 -0.3828 -0.4846  3.2803
  412TIP3   OH222726   3.524   5.251  11.745 -0.0762  0.0060 -0.1772
  412TIP3    H122727   3.565   5.333  11.719 -0.0977 -0.6533 -2.5460
  412TIP3    H222728   3.542   5.191  11.672 -1.7974 -1.4840  0.5434
  413TIP3   OH222729   4.160   4.708  15.015 -0.3693  0.3953 -0.6367
  413TIP3    H122730   4.155   4.706  15.110 -2.3867 -0.6637 -0.7013
  413TIP3    H222731   4.183   4.799  14.994 -0.0995  0.6857  0.8439
  414TIP3   OH222732   5.508   1.321   4.768  0.0865  0.7276 -0.1603
  414TIP3    H122733   5.597   1.347   4.790 -0.5559  2.7236  0.3106
  414TIP3    H222734   5.466   1.306   4.853 -0.2154  0.4689 -0.3526
  415TIP3   OH222735   6.056   5.667   0.615  0.0794 -0.4638 -0.3499
  415TIP3    H122736   6.084   5.610   0.686 -1.9638 -3.2524 -1.6161
  415TIP3    H222737   6.018   5.743   0.660  1.1078 -0.9455  1.4534
  416TIP3   OH222738   0.949   0.462  16.811  0.3039 -0.0044 -0.5567
  416TIP3    H122739   0.968   0.389  16.871 -1.0793 -1.0047 -1.2846
  416TIP3    H222740   0.948   0.422  16.724 -0.0671  0.9746 -1.0121
  417TIP3   OH222741   3.820   3.611   4.931  0.2914 -0.3257  0.1117
  417TIP3    H122742   3.870   3.687   4.960 -0.4574  0.0698  0.3963
  417TIP3    H222743   3.822   3.551   5.006  0.7597 -0.5305 -0.0608
  418TIP3   OH222744   6.222   3.460   4.949 -0.0302 -0.7971  0.1226
  418TIP3    H122745   6.309   3.454   4.908 -0.4868 -2.5782 -0.6660
  418TIP3    H222746   6.220   3.548   4.986  0.2382  1.2512 -4.1298
  419TIP3   OH222747   3.572   6.106  11.480 -0.3800  0.0131  0.1970
  419TIP3    H122748   3.487   6.064  11.484 -1.0174  1.3081  1.1017
  419TIP3    H222749   3.578   6.156  11.562  1.2861 -0.1175  0.2035
  420TIP3   OH222750   2.020   4.508   5.892  0.0051 -0.0568 -0.3589
  420TIP3    H122751   1.953   4.477   5.953  0.4782  0.2157  0.3091
  420TIP3    H222752   2.102   4.503   5.942  0.1600  1.8775 -0.3392
  421TIP3   OH222753   3.658   6.330   0.892  0.5779 -0.8346  0.0843
  421TIP3    H122754   3.721   6.354   0.824  0.2301 -0.6941 -0.1840
  421TIP3    H222755   3.713   6.294   0.962  1.0042 -0.2908  0.0384
  422TIP3   OH222756   1.872   3.469   0.213 -0.5434  0.2145  0.1811
  422TIP3    H122757   1.885   3.532   0.143 -0.4834  0.7414  0.6604
  422TIP3    H222758   1.777   3.464   0.223 -0.5287  0.9758  0.8001
  423TIP3   OH222759   6.629   2.403   6.091  0.8089  0.1101 -0.3846
  423TIP3    H122760   6.578   2.395   6.171 -1.2528  2.7095 -1.2494
  423TIP3    H222761   6.617   2.320   6.045 -1.4158  0.0662  0.1911
  424TIP3   OH222762   0.231   5.358  14.705 -0.6108 -0.2985  0.1502
  424TIP3    H122763   0.246   5.433  14.762 -2.5034  1.7307 -1.7847
  424TIP3    H222764   0.318   5.328  14.680  0.2919  2.3602 -0.2776
  425TIP3   OH222765   2.865   6.462   5.499 -0.8116  0.1878  0.0819
  425TIP3    H122766   2.834   6.372   5.510  0.7790 -0.5633 -1.1326
  425TIP3    H222767   2.799   6.504   5.445 -2.2979  0.2113  1.8334
  426TIP3   OH222768   0.479   4.445   1.232 -0.4172 -0.3253  0.4832
  426TIP3    H122769   0.572   4.443   1.210 -0.4797 -0.2226  0.2146
  426TIP3    H222770   0.436   4.395   1.163 -0.7880  1.3102 -0.5253
  427TIP3   OH222771   1.148   1.833  15.181  0.6185  0.1064  0.1782
  427TIP3    H122772   1.134   1.739  15.193 -0.0047  0.3258  1.3272
  427TIP3    H222773   1.110   1.851  15.095 -0.5914 -0.4573  0.5599
  428TIP3   OH222774   4.266   0.595  16.255 -0.0632 -0.2611 -0.5809
  428TIP3    H122775   4.316   0.581  16.335  0.2779  0.5664 -0.6402
  428TIP3    H222776   4.317   0.550  16.187  0.0200 -0.3537 -0.4572
  429TIP3   OH222777   2.055   4.701   5.593  0.5358 -0.4495 -0.1964
  429TIP3    H122778   2.041   4.696   5.498 -0.6063 -2.9718  0.0320
  429TIP3    H222779   2.133   4.646   5.608 -0.8551 -2.3273  0.5395
  430TIP3   OH222780   3.463   6.425   5.605 -0.2155  0.0153  0.1327
  430TIP3    H122781   3.404   6.491   5.567  0.1185  0.0709 -0.2900
  430TIP3    H222782   3.550   6.449   5.574  0.0029 -0.2215  0.5473
  431TIP3   OH222783   5.674   4.996  15.460 -0.0276 -0.3219 -0.4776
  431TIP3    H122784   5.709   5.069  15.509 -1.9138  0.7688 -0.6495
  431TIP3    H222785   5.592   4.975  15.504 -0.4927 -1.0126 -1.6168
  432TIP3   OH222786   5.843   0.887   0.532  0.4719  0.3809 -0.1452
  432TIP3    H122787   5.927   0.845   0.553 -0.4876 -1.2071  0.7206
  432TIP3    H222788   5.824   0.942   0.608 -0.8366 -1.8827  1.2654
  433TIP3   OH222789   0.587   0.921  11.394  0.1405  0.2974  0.1996
  433TIP3    H122790   0.667   0.869  11.382  2.1059  3.1657 -0.1929
  433TIP3    H222791   0.616   1.012  11.382 -3.5164  1.4021 -1.7142
  434TIP3   OH222792   2.315   5.112   6.188  0.0477  0.6685  0.1194
  434TIP3    H122793   2.238   5.056   6.183 -0.4424  1.4431 -1.7996
  434TIP3    H222794   2.388   5.054   6.166  0.1934 -0.2198  2.5429
  435TIP3   OH222795   5.515   5.000   0.564 -0.6431  0.4914 -0.5358
  435TIP3    H122796   5.559   4.925   0.604 -0.3140  0.7051 -0.4896
  435TIP3    H222797   5.577   5.034   0.500 -1.8101 -0.8654 -2.4965
  436TIP3   OH222798   0.605   6.422  14.984 -0.6762 -0.5554 -0.1676
  436TIP3    H122799   0.675   6.357  14.971 -0.0934 -0.0869  0.5330
  436TIP3    H222800   0.636   6.475  15.057 -0.7965  0.9672 -1.1732
  437TIP3   OH222801   1.259   3.687   5.334 -0.4154 -0.2868 -0.2241
  437TIP3    H122802   1.281   3.779   5.347 -3.4740  0.1631  3.7656
  437TIP3    H222803   1.182   3.688   5.277 -0.2223 -0.4481 -0.4935
  438TIP3   OH222804   0.891   5.928   5.084 -0.3380  0.2176  0.8562
  438TIP3    H122805   0.897   6.021   5.062 -1.3436  0.3492  1.1051
  438TIP3    H222806   0.805   5.918   5.125 -1.4237 -1.3011 -1.5259
  439TIP3   OH222807   0.472   1.504  14.078  0.2672  0.0428 -0.0052
  439TIP3    H122808   0.436   1.476  13.994  2.0669  0.0251 -0.8293
  439TIP3    H222809   0.397   1.507  14.137 -0.7142 -2.0999 -1.0248
  440TIP3   OH222810   5.386   0.406   0.345 -0.5809 -0.2192  0.1685
  440TIP3    H122811   5.311   0.466   0.348  0.3750  0.9905  1.2588
  440TIP3    H222812   5.407   0.390   0.437 -0.3887 -1.7246 -0.1157
  441TIP3   OH222813   6.736   6.119   0.985 -0.6972  0.0168 -0.3640
  441TIP3    H122814   6.781   6.183   1.040 -0.5280  1.1358 -1.7376
  441TIP3    H222815   6.648   6.155   0.972 -1.0714 -0.7468 -0.0060
  442TIP3   OH222816   3.502   6.704  15.301 -0.3235  0.2576 -0.0391
  442TIP3    H122817   3.461   6.704  15.215 -0.1453  0.2146 -0.1233
  442TIP3    H222818   3.516   6.612  15.323 -0.4689  0.2650  0.0826
  443TIP3   OH222819   5.213   6.403  13.775 -0.2934 -0.3161 -0.1823
  443TIP3    H122820   5.278   6.472  13.771 -0.2876 -0.3468 -0.6669
  443TIP3    H222821   5.262   6.323  13.755  0.5445 -1.0858  4.1116
  444TIP3   OH222822   4.863   1.881   2.258  0.6847 -0.5037  0.0878
  444TIP3    H122823   4.946   1.834   2.255  1.9974  1.5290  1.6291
  444TIP3    H222824   4.832   1.880   2.167  1.6186 -2.5577 -0.2604
  445TIP3   OH222825   2.958   4.054  12.604 -0.0572 -0.1505 -0.1904
  445TIP3    H122826   3.029   4.010  12.558  1.8599  0.8610  1.6463
  445TIP3    H222827   2.984   4.054  12.696 -0.7100  3.2743  0.1362
  446TIP3   OH222828   0.918   1.785  13.366 -0.0456  0.4187 -0.1739
  446TIP3    H122829   0.900   1.878  13.354 -1.4028  0.6361  2.6091
  446TIP3    H222830   1.013   1.782  13.383  0.0487  1.2684 -0.4785
  447TIP3   OH222831   2.575   0.347   1.091 -0.3918  0.1376 -0.0557
  447TIP3    H122832   2.620   0.272   1.129 -1.4027 -1.0864 -1.1711
  447TIP3    H222833   2.600   0.421   1.146  1.4267 -0.8260  0.4924
  448TIP3   OH222834   4.995   5.521  12.782 -0.3710  0.4137 -0.4322
  448TIP3    H122835   4.921   5.481  12.827 -0.4225 -0.1765 -1.0238
  448TIP3    H222836   5.068   5.461  12.798  0.2342  1.4501  0.9254
  449TIP3   OH222837   3.844   6.398   3.442  0.0322  0.6934 -0.2634
  449TIP3    H122838   3.843   6.421   3.349 -0.6500 -0.6705 -0.6273
  449TIP3    H222839   3.778   6.329   3.450 -2.3614  3.0346  1.8776
  450TIP3   OH222840   2.475   2.589  15.113 -0.5899  0.2448  0.1512
  450TIP3    H122841   2.452   2.682  15.117 -1.5947 -0.0091  0.6533
  450TIP3    H222842   2.417   2.553  15.045  0.4893  0.1613 -0.7497
  451TIP3   OH222843   2.062   6.565  14.942  0.6778 -0.5134 -0.3458
  451TIP3    H122844   2.025   6.631  15.000 -0.2621 -0.4219 -1.0250
  451TIP3    H222845   2.155   6.560  14.966  0.7436  0.9821 -0.2185
  452TIP3   OH222846   5.911   3.455   3.221 -0.5279 -0.0853  0.2488
  452TIP3    H122847   5.881   3.427   3.308 -0.4379 -0.5457  0.1381
  452TIP3    H222848   5.915   3.373   3.170  0.5920  0.0107  0.1595
  453TIP3   OH222849   0.419   5.430   6.219  0.2544  0.4731 -0.2621
  453TIP3    H122850   0.482   5.458   6.285 -0.2216  0.9636 -0.0025
  453TIP3    H222851   0.341   5.483   6.236  0.4282  1.2755 -1.7873
  454TIP3   OH222852   2.023   5.580   5.869  0.5191 -0.2710 -0.8008
  454TIP3    H122853   1.952   5.627   5.825  1.3716 -0.1483 -2.0970
  454TIP3    H222854   1.987   5.494   5.887  0.0599 -0.2378 -1.5194
  455TIP3   OH222855   2.595   0.604   1.957  0.1517  0.2457 -0.1834
  455TIP3    H122856   2.578   0.563   2.042  1.3174 -0.0041 -0.0602
  455TIP3    H222857   2.530   0.674   1.951 -1.9228 -1.5724 -0.3881
  456TIP3   OH222858   2.059   5.030   3.323  0.3718 -0.2331  0.2868
  456TIP3    H122859   2.045   4.975   3.246  1.7013  2.1235 -1.7861
  456TIP3    H222860   2.151   5.016   3.345  0.4881  0.4799  0.2679
  457TIP3   OH222861   6.356   1.474   4.577  0.7292 -0.6964  0.2365
  457TIP3    H122862   6.390   1.527   4.505 -0.0296 -0.7407 -0.1659
  457TIP3    H222863   6.274   1.438   4.543  0.9391 -1.6487  0.7160
  458TIP3   OH222864   5.127   4.839   5.682 -0.0049 -0.4048  0.2661
  458TIP3    H122865   5.164   4.777   5.744  0.9349  0.2482  0.3706
  458TIP3    H222866   5.119   4.921   5.731  0.0605 -0.0806 -0.2575
  459TIP3   OH222867   2.897   1.383   2.225  0.0529  0.0215 -0.1079
  459TIP3    H122868   2.965   1.429   2.175 -0.7330  2.5533  0.9888
  459TIP3    H222869   2.933   1.378   2.314 -1.3622  2.0028  0.6495
  460TIP3   OH222870   1.620   4.096   6.192  0.1555  0.0025 -0.2853
  460TIP3    H122871   1.665   4.051   6.263 -1.5650  0.2702  1.0364
  460TIP3    H222872   1.635   4.189   6.208 -0.0313  0.0571 -0.4180
  461TIP3   OH222873   0.419   3.616  12.978  0.0359 -0.3399 -0.0465
  461TIP3    H122874   0.363   3.645  12.906  2.8284  2.4111 -1.3402
  461TIP3    H222875   0.391   3.668  13.054 -0.1369 -0.0769 -0.2888
  462TIP3   OH222876   2.516   0.916  13.275 -0.3369 -0.2109  0.4891
  462TIP3    H122877   2.442   0.953  13.324 -1.7636 -0.7439 -1.1692
  462TIP3    H222878   2.516   0.823  13.299  0.4088 -0.0281  1.2147
  463TIP3   OH222879   5.254   1.615  14.183 -0.0983 -0.1509 -0.2512
  463TIP3    H122880   5.162   1.604  14.208 -0.6689  1.0318 -1.6922
  463TIP3    H222881   5.267   1.710  14.183  1.5018 -0.3183  1.1335
  464TIP3   OH222882   0.071   3.920   6.111 -0.3716  0.1451 -0.2103
  464TIP3    H122883   0.010   3.950   6.179 -1.0561  1.6998 -1.4455
  464TIP3    H222884   0.083   3.996   6.054 -0.5236 -1.3164 -2.3365
  465TIP3   OH222885   1.139   1.042  12.574 -0.4020 -0.7545 -0.7152
  465TIP3    H122886   1.081   1.068  12.503  1.2933  0.5201 -1.6867
  465TIP3    H222887   1.223   1.023  12.532  0.4331 -0.7310  0.8490
  466TIP3   OH222888   3.696   5.634   2.027 -0.2236  1.1292 -0.3949
  466TIP3    H122889   3.715   5.607   2.117 -0.2317 -0.5532 -0.8672
  466TIP3    H222890   3.764   5.697   2.006 -0.3681  1.7308  0.8677
  467TIP3   OH222891   3.943   2.406   6.316 -0.1868  0.3868  0.1167
  467TIP3    H122892   3.977   2.494   6.329 -1.1925  0.7551  0.3320
  467TIP3    H222893   4.018   2.348   6.333  0.5632  1.2027 -0.3585
  468TIP3   OH222894   4.256   5.622   2.199 -0.2974  0.4646 -0.2405
  468TIP3    H122895   4.349   5.606   2.212 -0.2939  0.9497  0.4457
  468TIP3    H222896   4.234   5.688   2.265 -1.1881  0.1497 -0.2043
  469TIP3   OH222897   3.580   0.110  11.949  0.3638 -0.0875  0.0312
  469TIP3    H122898   3.533   0.184  11.988 -1.7606 -0.7356 -1.1217
  469TIP3    H222899   3.657   0.150  11.907 -0.3986  1.3996 -0.0350
  470TIP3   OH222900   5.245   4.813   2.591  0.2616 -0.5349 -0.1533
  470TIP3    H122901   5.335   4.783   2.581  0.0717 -1.1631 -0.0294
  470TIP3    H222902   5.250   4.908   2.581  0.6572 -0.7248 -2.1818
  471TIP3   OH222903   2.405   3.394   5.765  0.2199  0.2365  0.5657
  471TIP3    H122904   2.471   3.333   5.798  0.3668 -0.9328 -1.6996
  471TIP3    H222905   2.425   3.477   5.808  2.1460 -0.4926  1.1812
  472TIP3   OH222906   2.742   0.738  16.095 -0.1267 -0.3043 -0.5081
  472TIP3    H122907   2.741   0.827  16.059 -1.1091 -0.2481 -0.3637
  472TIP3    H222908   2.714   0.682  16.023 -2.1390 -0.1868  0.1101
  473TIP3   OH222909   5.902   1.286   3.696 -0.3670 -0.2456  0.4777
  473TIP3    H122910   5.858   1.242   3.623 -1.4081  0.8695  0.4199
  473TIP3    H222911   5.995   1.280   3.674 -0.5209 -1.7441  0.1039
  474TIP3   OH222912   1.578   4.162   4.554  0.1565  0.4240  0.8018
  474TIP3    H122913   1.545   4.092   4.497 -1.9063  0.4241  1.9326
  474TIP3    H222914   1.663   4.129   4.585 -0.3153 -1.1412  0.5305
  475TIP3   OH222915   3.298   1.120   5.881  0.0117  0.2947 -0.1960
  475TIP3    H122916   3.209   1.135   5.910 -0.7462  1.1608 -2.7323
  475TIP3    H222917   3.342   1.205   5.892  0.7029 -0.2319  1.4392
  476TIP3   OH222918   4.632   1.198   3.404 -0.0867  0.3461  0.0632
  476TIP3    H122919   4.569   1.178   3.335  1.0258 -1.3622 -0.5475
  476TIP3    H222920   4.694   1.124   3.401  1.2994  1.3939  1.3587
  477TIP3   OH222921   4.268   6.234  15.791 -0.3461 -0.4334 -0.0597
  477TIP3    H122922   4.291   6.323  15.818 -0.6864 -0.0529 -0.9777
  477TIP3    H222923   4.174   6.228  15.804 -0.1952 -0.9953  0.8993
  478TIP3   OH222924   3.827   6.679   4.346 -0.0926 -0.8712 -0.0812
  478TIP3    H122925   3.819   6.767   4.382  1.0549 -0.5643 -0.5353
  478TIP3    H222926   3.907   6.645   4.385 -0.4964 -1.7007  0.0412
  479TIP3   OH222927   4.688   5.299   2.285 -0.4743  0.2780  0.6456
  479TIP3    H122928   4.693   5.344   2.370 -0.2706  1.3479  0.0779
  479TIP3    H222929   4.693   5.206   2.308 -1.1192  0.5130  1.8589
  480TIP3   OH222930   0.705   3.117  16.743  0.2738  0.3379 -0.4629
  480TIP3    H122931   0.645   3.139  16.814  0.2500 -1.4053  0.0933
  480TIP3    H222932   0.689   3.025  16.725  3.0653 -0.3351 -0.0017
  481TIP3   OH222933   5.160   5.966   1.062 -0.0952 -0.0799 -0.0886
  481TIP3    H122934   5.210   5.891   1.096  0.4865  1.3372  2.3999
  481TIP3    H222935   5.153   5.949   0.968  1.6474 -2.3075  0.0966
  482TIP3   OH222936   3.516   3.965  17.061  0.4446 -0.0435  0.1638
  482TIP3    H122937   3.562   4.020  16.997 -0.3987  1.5737  0.8900
  482TIP3    H222938   3.467   3.903  17.008 -1.0031  1.8606 -0.8739
  483TIP3   OH222939   0.613   2.480   6.031  0.3463 -0.2632 -0.1869
  483TIP3    H122940   0.594   2.412   6.096 -1.5564  1.0986  0.7948
  483TIP3    H222941   0.557   2.459   5.957  1.4789 -1.0253 -0.8561
  484TIP3   OH222942   5.365   0.774   2.376  0.6340 -0.0798  0.3449
  484TIP3    H122943   5.382   0.843   2.439 -0.8625  0.4160  0.2371
  484TIP3    H222944   5.408   0.696   2.414 -0.8211  0.0215  2.3604
  485TIP3   OH222945   0.137   5.589  13.809  0.4871  0.1399 -0.5403
  485TIP3    H122946   0.085   5.580  13.889  2.3740  0.8544  0.8182
  485TIP3    H222947   0.074   5.572  13.738 -1.3237 -0.1372  1.0509
  486TIP3   OH222948   6.580   4.233   5.784  0.1048  0.1505  0.2210
  486TIP3    H122949   6.551   4.322   5.803  1.8945  0.3720  2.4394
  486TIP3    H222950   6.521   4.177   5.835 -0.5066  0.1024 -0.5248
  487TIP3   OH222951   4.431   2.381   3.989 -0.4042 -0.1453 -0.3376
  487TIP3    H122952   4.393   2.454   4.037  0.3876  0.5369 -0.7232
  487TIP3    H222953   4.514   2.415   3.955 -0.1084 -1.1672 -0.6769
  488TIP3   OH222954   6.541   3.860  15.883  0.6076 -0.8679  0.4761
  488TIP3    H122955   6.551   3.926  15.814 -2.4768  1.6935  2.1668
  488TIP3    H222956   6.470   3.804  15.853 -1.1426  0.6025  1.6234
  489TIP3   OH222957   1.544   1.499  14.481 -0.5855 -0.8249 -0.3411
  489TIP3    H122958   1.632   1.532  14.499 -0.9518 -0.2834  0.4873
  489TIP3    H222959   1.514   1.552  14.407 -1.1555  0.7509  0.9503
  490TIP3   OH222960   5.547   6.068   3.006 -0.3330  0.1758  0.1209
  490TIP3    H122961   5.579   5.980   3.027  1.5535  0.5296 -1.0264
  490TIP3    H222962   5.613   6.127   3.042 -0.4649  1.0134 -0.9369
  491TIP3   OH222963   6.462   4.669   3.944  0.2893 -0.2375 -0.0419
  491TIP3    H122964   6.436   4.725   4.017 -1.2161 -0.6516 -0.2220
  491TIP3    H222965   6.501   4.592   3.985  1.3781  0.4499  0.2393
  492TIP3   OH222966   5.819   6.236  17.122 -0.4082  0.3026  0.9299
  492TIP3    H122967   5.734   6.199  17.144 -1.5194  3.0738  1.7099
  492TIP3    H222968   5.841   6.198  17.037 -2.0011 -1.0908  1.0873
  493TIP3   OH222969   1.299   1.785   1.044  0.1359  0.8138 -0.9299
  493TIP3    H122970   1.372   1.846   1.055  0.8124 -0.1214 -0.0253
  493TIP3    H222971   1.279   1.755   1.132 -0.7793  0.4019 -1.2677
  494TIP3   OH222972   3.224   3.778   0.139 -0.0731 -0.3850  0.0950
  494TIP3    H122973   3.270   3.820   0.067 -0.9740 -0.9300 -0.8138
  494TIP3    H222974   3.274   3.698   0.156  0.2022 -0.2012  0.1596
  495TIP3   OH222975   1.380   3.157   5.470  0.3147 -0.1245  0.6304
  495TIP3    H122976   1.348   3.073   5.502  0.1671  0.5418  2.3262
  495TIP3    H222977   1.302   3.212   5.465  0.5644  0.2178  0.4788
  496TIP3   OH222978   6.505   2.957  16.986 -0.6525  0.2627  0.1134
  496TIP3    H122979   6.550   2.996  17.061  2.0498 -0.2671 -1.0993
  496TIP3    H222980   6.500   2.864  17.006 -1.0098  0.2810  0.1227
  497TIP3   OH222981   0.265   3.227  14.647 -0.1752 -0.1818  0.1309
  497TIP3    H122982   0.352   3.267  14.640  0.3068 -1.0833  0.7557
  497TIP3    H222983   0.281   3.143  14.689 -1.2595 -0.7187 -0.4980
  498TIP3   OH222984   0.822   4.993  17.514  0.1104 -0.0498 -0.3139
  498TIP3    H122985   0.775   5.076  17.512  0.7508  0.3323  0.0910
  498TIP3    H222986   0.910   5.016  17.545 -0.4304 -1.1845  2.3971
  499TIP3   OH222987   0.906   6.346  15.590  0.2261  0.0208  0.3951
  499TIP3    H122988   0.880   6.315  15.504 -0.5442  0.0205  0.6274
  499TIP3    H222989   0.980   6.290  15.615  1.8401  1.3347 -1.1406
  500TIP3   OH222990   2.439   0.156   0.841 -0.2257  0.5661  0.0188
  500TIP3    H122991   2.446   0.114   0.926  0.7130  1.0810  0.2157
  500TIP3    H222992   2.389   0.236   0.858  1.0767  1.3337  0.3652
  501TIP3   OH222993   3.431   1.859   5.257  0.6051 -0.0533 -0.1850
  501TIP3    H122994   3.497   1.790   5.269  1.3135  0.6261 -0.0527
  501TIP3    H222995   3.347   1.813   5.263  1.0412 -0.7998  0.6241
  502TIP3   OH222996   0.184   1.751  14.622 -0.4450 -0.2446 -0.3587
  502TIP3    H122997   0.182   1.830  14.676 -3.4274 -0.5990  0.2255
  502TIP3    H222998   0.237   1.689  14.673  2.9326  1.5539 -1.3466
  503TIP3   OH222999   6.316   1.957   5.157 -0.2856 -0.6753  0.2885
  503TIP3    H123000   6.392   1.963   5.099 -1.5388 -0.6196 -1.4475
  503TIP3    H223001   6.328   1.875   5.205  0.5707 -0.9666 -0.4024
  504TIP3   OH223002   1.231   5.032   2.132 -0.2385 -0.4179  0.0126
  504TIP3    H123003   1.220   5.048   2.038  1.0655  1.5961  0.1406
  504TIP3    H223004   1.156   5.074   2.173  0.4976  0.9694 -0.0025
  505TIP3   OH223005   3.544   2.450   3.091 -0.3269  0.3001 -0.3364
  505TIP3    H123006   3.503   2.399   3.021  0.3960  0.7195 -1.0810
  505TIP3    H223007   3.485   2.525   3.103 -0.2646  0.4216 -0.7634
  506TIP3   OH223008   4.092   1.395  13.121 -0.7681  0.6951 -0.6675
  506TIP3    H123009   4.056   1.422  13.206 -0.3709  1.0943 -0.6250
  506TIP3    H223010   4.021   1.345  13.081 -0.1362 -1.6090  0.9053
  507TIP3   OH223011   4.281   0.582  15.492 -0.0089 -0.5520  0.3574
  507TIP3    H123012   4.305   0.539  15.574 -3.8486 -0.0782  1.9654
  507TIP3    H223013   4.303   0.674  15.505 -0.1543 -0.5606  0.6726
  508TIP3   OH223014   1.467   0.427  15.759  0.5560 -0.3060  0.1908
  508TIP3    H123015   1.453   0.517  15.788  2.3694  0.2857 -0.6453
  508TIP3    H223016   1.477   0.377  15.840 -0.0142  0.3148  0.6519
  509TIP3   OH223017   2.950   1.228   0.115  0.2074  0.5753  0.1933
  509TIP3    H123018   3.038   1.192   0.102  0.4830  1.3205 -0.0797
  509TIP3    H223019   2.892   1.161   0.080  0.7188  0.4850 -0.5183
  510TIP3   OH223020   5.045   3.470  17.173 -0.1200 -0.0132 -0.1429
  510TIP3    H123021   5.116   3.509  17.122  0.1152 -1.8946 -1.3391
  510TIP3    H223022   5.088   3.422  17.243 -0.1473 -1.3464 -1.0024
  511TIP3   OH223023   1.231   0.943  10.429 -0.2274 -0.0994 -0.5847
  511TIP3    H123024   1.136   0.955  10.429 -0.3998 -1.3711 -0.5623
  511TIP3    H223025   1.264   1.020  10.382 -1.0841  1.5182  1.2797
  512TIP3   OH223026   2.353   5.373  12.134  0.3135  0.1156  0.2875
  512TIP3    H123027   2.345   5.402  12.224 -1.5559  1.2928 -0.2094
  512TIP3    H223028   2.343   5.278  12.138 -1.1494  0.2819  1.2001
  513TIP3   OH223029   2.195   1.278   4.841  0.6312  0.0293  0.2468
  513TIP3    H123030   2.255   1.344   4.807 -0.3604  0.7979 -0.0688
  513TIP3    H223031   2.246   1.230   4.906  1.4865  0.8569  0.2021
  514TIP3   OH223032   2.344   4.976  12.434 -0.6370  0.2587 -0.1339
  514TIP3    H123033   2.252   4.948  12.428 -0.8570  0.6975  0.9395
  514TIP3    H223034   2.392   4.909  12.386 -1.4288 -0.5119  0.0990
  515TIP3   OH223035   2.542   0.283   4.549  0.0702 -0.4040  0.0090
  515TIP3    H123036   2.512   0.342   4.618  1.6176  1.1911 -0.6154
  515TIP3    H223037   2.583   0.210   4.596 -0.5388 -0.2491  0.7874
  516TIP3   OH223038   4.752   4.608   0.839 -0.1828 -0.4666 -0.6498
  516TIP3    H123039   4.835   4.655   0.834 -0.1568 -0.5404 -0.9103
  516TIP3    H223040   4.725   4.618   0.930  2.5404 -4.4648  0.9215
  517TIP3   OH223041   2.494   5.947   3.753  0.3159  0.1853 -0.2319
  517TIP3    H123042   2.478   6.033   3.792 -1.3130 -0.2989  0.2154
  517TIP3    H223043   2.561   5.907   3.808 -1.7043 -0.3635  1.9634
  518TIP3   OH223044   6.138   2.822   4.165  0.6460  0.7096 -0.2493
  518TIP3    H123045   6.111   2.763   4.236 -0.0815  1.6335  0.2588
  518TIP3    H223046   6.225   2.791   4.140 -0.0584 -1.1093 -0.5826
  519TIP3   OH223047   3.603   3.239  11.259 -0.5815  0.6049 -0.3889
  519TIP3    H123048   3.626   3.248  11.351 -1.3807 -0.9850 -0.0034
  519TIP3    H223049   3.664   3.296  11.213  0.7048  0.3940  1.0005
  520TIP3   OH223050   1.571   1.662  15.401  0.2124 -0.4404  0.2117
  520TIP3    H123051   1.620   1.729  15.448 -0.7891  1.4949 -1.3610
  520TIP3    H223052   1.635   1.621  15.344  0.3874  0.9274 -0.6220
  521TIP3   OH223053   1.364   4.550   3.515 -0.0947 -0.4976  0.4880
  521TIP3    H123054   1.284   4.573   3.563  0.3271  0.8510  0.5668
  521TIP3    H223055   1.333   4.499   3.440 -1.0561  0.2174  0.3786
  522TIP3   OH223056   2.230   5.682   6.518 -0.2404 -0.0476  0.4107
  522TIP3    H123057   2.234   5.773   6.490 -0.5427 -0.4900 -1.1820
  522TIP3    H223058   2.319   5.661   6.547  0.4172  0.1344 -1.3523
  523TIP3   OH223059   5.316   4.255  14.036  0.1410 -0.2201  0.2018
  523TIP3    H123060   5.292   4.163  14.046 -0.6685 -0.1627 -0.9442
  523TIP3    H223061   5.237   4.304  14.058 -1.1486 -0.0404 -3.8597
  524TIP3   OH223062   1.217   0.439   1.811 -0.3444  0.6151 -0.0815
  524TIP3    H123063   1.277   0.507   1.781 -0.0314  0.2167 -0.3896
  524TIP3    H223064   1.245   0.361   1.762  0.4146 -0.1627  1.5105
  525TIP3   OH223065   3.456   3.774  15.909 -0.1693 -0.6296 -0.1503
  525TIP3    H123066   3.451   3.714  15.835  1.3111  0.9073 -1.5651
  525TIP3    H223067   3.385   3.837  15.895 -0.7502 -1.1135  0.5120
  526TIP3   OH223068   0.505   6.642  12.387 -0.1943  0.0437 -0.6886
  526TIP3    H123069   0.417   6.646  12.349 -0.5483 -1.9656 -0.2251
  526TIP3    H223070   0.490   6.620  12.479  0.7829 -2.1720 -0.9877
  527TIP3   OH223071   0.650   3.351  16.598 -0.2013  0.0098  0.4893
  527TIP3    H123072   0.658   3.270  16.649 -1.0649 -0.5238 -0.1959
  527TIP3    H223073   0.667   3.324  16.507 -1.8150  0.3149  0.0680
  528TIP3   OH223074   5.978   2.183  17.409 -0.0112  0.2352 -0.1587
  528TIP3    H123075   5.984   2.088  17.409 -0.6340  0.1887  0.4754
  528TIP3    H223076   6.034   2.211  17.336 -1.0547 -0.6914 -1.3450
  529TIP3   OH223077   5.903   5.147   6.533  0.1730  0.0174 -0.1768
  529TIP3    H123078   5.811   5.119   6.528 -0.2494  1.4278 -0.7389
  529TIP3    H223079   5.910   5.191   6.618 -0.9725  4.0657 -1.9724
  530TIP3   OH223080   5.726   6.618   3.922 -0.2581  0.5098 -0.5094
  530TIP3    H123081   5.756   6.708   3.911  1.5924 -0.1123 -1.0325
  530TIP3    H223082   5.806   6.569   3.941 -1.2795 -0.9712  0.1187
  531TIP3   OH223083   3.046   6.433  12.850  0.3390  0.0399  0.9256
  531TIP3    H123084   2.987   6.441  12.925 -0.7109 -0.6516  0.2150
  531TIP3    H223085   3.045   6.340  12.829 -0.4335  0.3703 -0.7187
  532TIP3   OH223086   2.601   5.240   2.923  0.0149 -0.1371 -0.1246
  532TIP3    H123087   2.666   5.251   2.853  1.8645 -2.0690  1.1623
  532TIP3    H223088   2.553   5.160   2.899  0.8535 -0.9765  0.8890
  533TIP3   OH223089   4.443   4.440  13.368 -0.1742 -0.1121 -0.3838
  533TIP3    H123090   4.476   4.468  13.282  0.8073 -0.6173 -0.1945
  533TIP3    H223091   4.521   4.437  13.423 -0.7248 -0.2664  0.3972
  534TIP3   OH223092   2.376   5.952  12.191 -0.0080 -0.1194 -0.5116
  534TIP3    H123093   2.395   5.977  12.282  1.4274  0.1114 -0.8605
  534TIP3    H223094   2.455   5.974  12.143 -0.7229 -0.3269 -1.8213
  535TIP3   OH223095   2.128   6.336  15.390  0.7031 -0.8927  0.0230
  535TIP3    H123096   2.113   6.417  15.437  1.3015  0.1051 -1.4344
  535TIP3    H223097   2.176   6.280  15.451  0.7728  0.0469  0.8425
  536TIP3   OH223098   5.267   3.992  14.052 -0.4043 -0.5055 -0.1764
  536TIP3    H123099   5.171   3.985  14.044 -0.3008 -2.8376  0.1608
  536TIP3    H223100   5.300   3.954  13.971  0.2773  1.5734 -0.9360
  537TIP3   OH223101   0.489   3.650   4.354 -0.1408  0.1422 -0.1165
  537TIP3    H123102   0.502   3.739   4.386 -0.3341 -0.0904  0.6295
  537TIP3    H223103   0.405   3.623   4.391  0.4913 -0.7926  0.7179
  538TIP3   OH223104   5.173   6.662  14.634 -0.2220 -0.0547 -0.4763
  538TIP3    H123105   5.216   6.627  14.713  1.2935  0.6506 -0.9506
  538TIP3    H223106   5.234   6.642  14.563 -0.6745  0.9673 -1.1757
  539TIP3   OH223107   5.216   1.039  16.799 -0.3270 -0.1926  0.1196
  539TIP3    H123108   5.121   1.051  16.796 -0.4130 -0.9401 -0.8060
  539TIP3    H223109   5.249   1.084  16.721 -0.2899 -2.5833 -1.3671
  540TIP3   OH223110   1.656   2.440   2.950 -0.0630 -0.2364  0.0989
  540TIP3    H123111   1.612   2.425   2.866  0.2789 -1.4189  0.1094
  540TIP3    H223112   1.708   2.361   2.964  0.3380  0.1952  1.1515
  541TIP3   OH223113   6.291   4.243   6.415  0.4545  0.3455  0.9719
  541TIP3    H123114   6.200   4.265   6.434  0.2664  0.6099 -0.1691
  541TIP3    H223115   6.306   4.161   6.462 -0.5102  0.0574  0.7888
  542TIP3   OH223116   3.928   6.461   0.849  0.7106 -0.4654  0.3142
  542TIP3    H123117   4.015   6.422   0.863  0.8697 -0.1316  0.2649
  542TIP3    H223118   3.925   6.535   0.911  0.0737 -1.0746  1.0366
  543TIP3   OH223119   6.058   2.492  14.974  0.3718  0.0585 -0.0573
  543TIP3    H123120   5.974   2.496  14.929  0.3966  0.4278 -0.0765
  543TIP3    H223121   6.060   2.405  15.013  0.6659 -0.5333 -1.3571
  544TIP3   OH223122   1.215   3.934  13.659  0.3086  0.1511 -0.2693
  544TIP3    H123123   1.248   4.022  13.680 -2.8397  1.1095  1.2620
  544TIP3    H223124   1.189   3.898  13.744 -2.3083 -0.5340 -1.2717
  545TIP3   OH223125   2.553   6.648   0.976  0.1621 -0.0517  0.2883
  545TIP3    H123126   2.581   6.629   0.886 -1.7850 -0.8079 -0.1975
  545TIP3    H223127   2.626   6.697   1.013  1.5350 -0.7672 -1.3129
  546TIP3   OH223128   0.441   4.629  11.568  0.4756 -0.6593  0.2792
  546TIP3    H123129   0.434   4.713  11.523  2.8312  0.7790  2.3356
  546TIP3    H223130   0.526   4.595  11.540  0.2465 -1.5998  0.6878
  547TIP3   OH223131   3.438   1.515  13.283 -0.2981  0.1296  0.5863
  547TIP3    H123132   3.364   1.573  13.302  0.1872  0.7444  0.6642
  547TIP3    H223133   3.505   1.541  13.346  0.4618  0.5082 -0.3483
  548TIP3   OH223134   2.277   2.797  17.305 -0.0583 -0.0482  0.0949
  548TIP3    H123135   2.342   2.777  17.372  0.0146  0.4455  0.1707
  548TIP3    H223136   2.300   2.739  17.232 -1.3407 -2.0609  1.1942
  549TIP3   OH223137   6.191   0.295   3.686 -0.5694  0.2150 -0.0596
  549TIP3    H123138   6.202   0.309   3.592 -0.8489  1.6784  0.0995
  549TIP3    H223139   6.279   0.274   3.718  0.0718  2.3233 -0.2724
  550TIP3   OH223140   2.196   4.812  14.380  0.1648 -0.4224 -0.0391
  550TIP3    H123141   2.126   4.830  14.318 -0.8346 -0.6833  0.9842
  550TIP3    H223142   2.261   4.880  14.363 -0.2562 -0.2780 -1.1182
  551TIP3   OH223143   5.814   5.806  14.544  0.0057 -0.4417 -0.2615
  551TIP3    H123144   5.719   5.792  14.553 -0.2244  0.8128 -0.4506
  551TIP3    H223145   5.850   5.778  14.628 -0.5813 -0.5722 -0.0408
  552TIP3   OH223146   3.893   3.894   0.087  0.1345 -0.5490 -1.0677
  552TIP3    H123147   3.852   3.980   0.099  0.6931 -0.6508  2.7688
  552TIP3    H223148   3.987   3.913   0.079  0.1938 -0.7401 -0.8522
  553TIP3   OH223149   2.692   1.649   2.970 -0.3382  0.2258  0.5059
  553TIP3    H123150   2.684   1.556   2.994 -0.4367  0.2896  0.7251
  553TIP3    H223151   2.736   1.689   3.045 -1.0549  0.5130  0.7885
  554TIP3   OH223152   4.676   1.770   5.323 -0.2951 -0.0202  0.2753
  554TIP3    H123153   4.639   1.708   5.260  0.6562 -1.8146  1.3955
  554TIP3    H223154   4.614   1.842   5.325 -1.5540 -1.0147 -0.9723
  555TIP3   OH223155   2.410   0.517   3.485  0.3814  0.5494 -0.5168
  555TIP3    H123156   2.493   0.475   3.461  0.4770  0.0357  0.6698
  555TIP3    H223157   2.435   0.607   3.506  0.4624  0.6963 -1.2044
  556TIP3   OH223158   1.168   5.575  12.988 -0.1068  0.2480  0.0236
  556TIP3    H123159   1.129   5.579  12.900 -0.1678 -2.2653 -0.1325
  556TIP3    H223160   1.095   5.554  13.046  0.2444  0.0701  0.4026
  557TIP3   OH223161   5.985   3.671  13.032 -0.5874 -0.4751  0.1432
  557TIP3    H123162   6.016   3.616  12.960 -0.2416  0.0898 -0.1478
  557TIP3    H223163   6.027   3.756  13.017 -0.6392 -0.3059  0.9212
  558TIP3   OH223164   4.973   6.691  15.029 -0.4694 -0.0786  0.1086
  558TIP3    H123165   4.911   6.703  15.100  1.4717  1.6907  1.6342
  558TIP3    H223166   5.044   6.639  15.067 -0.3494 -0.9154 -1.1782
  559TIP3   OH223167   2.833   3.323   5.240  0.3882  0.0876 -0.1297
  559TIP3    H123168   2.769   3.283   5.300 -1.1360  0.2131 -1.6078
  559TIP3    H223169   2.856   3.406   5.281  1.9718 -1.2398  1.9227
  560TIP3   OH223170   2.722   2.902  11.084 -0.2430  0.5061  0.0413
  560TIP3    H123171   2.710   2.980  11.029 -0.2473 -0.5066 -1.4584
  560TIP3    H223172   2.663   2.837  11.046 -1.3722  0.2045  2.2045
  561TIP3   OH223173   2.879   6.105   6.365  0.1843  0.0246  0.1477
  561TIP3    H123174   2.791   6.066   6.369  0.8958 -1.6120  2.1875
  561TIP3    H223175   2.864   6.199   6.375 -1.4178  0.0073 -1.5016
  562TIP3   OH223176   0.417   2.727  15.177  0.2751 -0.4747 -0.0849
  562TIP3    H123177   0.466   2.646  15.190 -1.9146 -1.7385  0.8273
  562TIP3    H223178   0.477   2.796  15.204  0.9242 -2.0822  3.0741
  563TIP3   OH223179   5.450   6.599   2.152 -0.1047 -0.1942 -0.2967
  563TIP3    H123180   5.364   6.616   2.191  1.0907  0.4086  2.2972
  563TIP3    H223181   5.495   6.683   2.154  0.9490 -0.7247 -0.5278
  564TIP3   OH223182   6.029   3.834  16.188 -0.2453  0.3350  0.2625
  564TIP3    H123183   5.975   3.819  16.265  1.8794 -1.1588  1.5862
  564TIP3    H223184   6.040   3.747  16.149  0.4295  0.7470 -0.4956
  565TIP3   OH223185   0.349   6.743  15.090  0.2241  0.1448 -0.3592
  565TIP3    H123186   0.302   6.765  15.170  0.4490 -0.5410 -0.0317
  565TIP3    H223187   0.416   6.680  15.118  2.6800  2.5632 -0.4548
  566TIP3   OH223188   0.554   3.413  12.871  0.8127  0.1376  0.0001
  566TIP3    H123189   0.545   3.421  12.776 -2.0766  0.1222  0.1840
  566TIP3    H223190   0.524   3.497  12.905  0.6569 -0.2852  0.9249
  567TIP3   OH223191   5.549   4.226   6.166  0.1972 -0.1558 -0.3209
  567TIP3    H123192   5.611   4.297   6.154  0.5237 -0.1653  1.1385
  567TIP3    H223193   5.465   4.271   6.182  0.2543 -0.1046 -0.1599
  568TIP3   OH223194   4.540   6.159   2.082 -0.0378 -0.0312 -0.3811
  568TIP3    H123195   4.608   6.180   2.147  0.6534 -1.2023 -0.7059
  568TIP3    H223196   4.589   6.142   2.001 -0.8421  0.6539 -1.0353
  569TIP3   OH223197   4.355   1.774  15.046 -0.6558  0.2842 -0.4648
  569TIP3    H123198   4.284   1.715  15.023 -1.8981  1.7126 -0.4091
  569TIP3    H223199   4.321   1.862  15.029  0.4377  1.1047  1.2492
  570TIP3   OH223200   2.256   2.541  11.658 -0.0912 -0.0392  0.1864
  570TIP3    H123201   2.251   2.606  11.728 -0.8277 -0.6586  0.7313
  570TIP3    H223202   2.335   2.564  11.609 -1.1455  2.2399 -0.6169
  571TIP3   OH223203   1.798   3.055   2.941 -0.3479  0.1576 -0.0860
  571TIP3    H123204   1.739   3.044   3.015  1.6403 -1.7959  1.3214
  571TIP3    H223205   1.801   3.150   2.927 -1.1099  0.5493  2.0315
  572TIP3   OH223206   6.517   1.171  13.855  0.1388  0.0022 -0.5329
  572TIP3    H123207   6.559   1.121  13.785 -0.5160 -0.7862 -0.3793
  572TIP3    H223208   6.425   1.177  13.829 -0.5587 -2.0444  1.1821
  573TIP3   OH223209   5.734   5.786   5.063  0.1821  0.3352  0.2533
  573TIP3    H123210   5.791   5.722   5.021 -0.9345  0.2581 -1.2513
  573TIP3    H223211   5.701   5.742   5.141  1.7148  0.1808  0.8292
  574TIP3   OH223212   2.221   2.899  13.814  0.0406 -0.1110 -0.0865
  574TIP3    H123213   2.228   2.815  13.769 -0.1443 -0.0668 -0.1968
  574TIP3    H223214   2.127   2.911  13.828  0.1386 -0.5852  1.1624
  575TIP3   OH223215   0.609   1.625  15.457  0.2529  0.1443 -0.1024
  575TIP3    H123216   0.681   1.642  15.518 -0.2825 -1.0976  0.9316
  575TIP3    H223217   0.561   1.553  15.497 -1.0360  0.3377 -1.2377
  576TIP3   OH223218   5.822   3.212  11.513  1.2366 -0.2148  0.1606
  576TIP3    H123219   5.832   3.294  11.465  2.2874  0.0992  0.8847
  576TIP3    H223220   5.727   3.201  11.523  1.1061  1.5291  1.0981
  577TIP3   OH223221   1.375   5.278  17.348  0.1271 -0.0978  0.1326
  577TIP3    H123222   1.318   5.203  17.333 -0.7391  0.2184  1.6139
  577TIP3    H223223   1.452   5.241  17.392 -0.1422 -0.1852  0.5414
  578TIP3   OH223224   3.527   5.727  10.946 -0.3639  0.3175  0.1914
  578TIP3    H123225   3.603   5.681  10.910 -0.9076 -1.0031  0.6846
  578TIP3    H223226   3.506   5.793  10.880  0.8777  0.3432 -0.2030
  579TIP3   OH223227   1.153   3.833   3.778 -0.6346  0.5270  0.1256
  579TIP3    H123228   1.228   3.836   3.837 -0.6097 -0.8068  0.1911
  579TIP3    H223229   1.077   3.830   3.836 -0.6730  0.5365  0.0755
  580TIP3   OH223230   4.186   2.204   5.496 -0.0429 -0.1760  0.1601
  580TIP3    H123231   4.210   2.173   5.408 -1.7628  0.3479 -0.5468
  580TIP3    H223232   4.134   2.282   5.480 -0.4880 -0.1403  1.6578
  581TIP3   OH223233   5.192   5.625   0.479  0.4982 -0.0851  0.3884
  581TIP3    H123234   5.217   5.555   0.539  2.0647  1.6742  1.9305
  581TIP3    H223235   5.270   5.640   0.425 -0.1506 -0.1507 -0.6066
  582TIP3   OH223236   0.980   5.595  12.163  0.5674 -0.0218 -0.4688
  582TIP3    H123237   1.019   5.669  12.116 -2.1523  1.8560 -0.0549
  582TIP3    H223238   0.887   5.618  12.169  0.3454 -1.2117  3.7619
  583TIP3   OH223239   0.765   6.003  12.344 -0.5868  0.0495  0.2452
  583TIP3    H123240   0.803   5.919  12.370  1.2232  1.2420  1.7837
  583TIP3    H223241   0.711   6.029  12.419 -1.5165  0.0487 -0.4185
  584TIP3   OH223242   1.003   4.746  17.441  0.7593  0.0677 -0.5276
  584TIP3    H123243   0.916   4.785  17.437  0.3886 -0.4010  1.5731
  584TIP3    H223244   1.050   4.800  17.504  0.9099 -1.5671  0.8231
  585TIP3   OH223245   4.065   5.087   1.225  0.1500 -0.2503 -0.0700
  585TIP3    H123246   4.026   5.107   1.310 -0.0145  0.9503 -0.4195
  585TIP3    H223247   4.151   5.051   1.246  0.5345  1.0155  0.5805
  586TIP3   OH223248   5.437   3.940  13.419 -0.1234  0.3323  0.5137
  586TIP3    H123249   5.529   3.952  13.443  0.8583 -0.6872 -2.2873
  586TIP3    H223250   5.408   4.027  13.390  0.3725  0.4001  0.2091
  587TIP3   OH223251   5.795   4.767   3.098 -0.7155 -0.5834  0.2598
  587TIP3    H123252   5.759   4.797   3.181 -0.7695 -1.2368  0.4812
  587TIP3    H223253   5.852   4.838   3.069 -1.6610  0.1997  0.2307
  588TIP3   OH223254   1.904   3.996  11.916  0.1617 -0.3794  0.6688
  588TIP3    H123255   1.877   3.961  11.831 -0.9797  2.0041 -0.0386
  588TIP3    H223256   1.852   3.947  11.980  1.2956 -2.4467  0.1020
  589TIP3   OH223257   5.697   0.184  11.785 -0.2536  0.0513  0.1298
  589TIP3    H123258   5.728   0.243  11.853  0.5100  0.2872 -0.4046
  589TIP3    H223259   5.620   0.142  11.823 -0.2299  0.6584  0.8860
  590TIP3   OH223260   3.088   6.073  11.078  0.3618  0.1058 -0.3181
  590TIP3    H123261   3.025   6.136  11.111  0.3667 -0.6757  1.2675
  590TIP3    H223262   3.058   6.052  10.989 -1.0578  0.4555  0.0633
  591TIP3   OH223263   1.458   3.725  12.403 -0.1246  0.3234 -0.9596
  591TIP3    H123264   1.514   3.780  12.458 -0.8724  1.5480 -1.3984
  591TIP3    H223265   1.399   3.681  12.465  0.8028 -0.3954 -0.5651
  592TIP3   OH223266   3.844   6.105  11.691  0.1069 -0.4869  0.0263
  592TIP3    H123267   3.805   6.072  11.772  0.0954 -1.3218 -0.3090
  592TIP3    H223268   3.854   6.027  11.636  0.8656 -0.0563 -0.4620
  593TIP3   OH223269   0.955   1.160   2.080  0.2159  0.0593 -0.8128
  593TIP3    H123270   0.863   1.149   2.106  0.5596 -1.4223 -0.1245
  593TIP3    H223271   0.995   1.075   2.098  2.1633  1.2142  0.6509
  594TIP3   OH223272   6.118   1.227   3.162 -0.3960  0.8134  0.5341
  594TIP3    H123273   6.213   1.225   3.158 -0.4389 -0.0496 -0.3063
  594TIP3    H223274   6.095   1.320   3.159  0.3431  0.9678 -1.3820
  595TIP3   OH223275   0.754   1.293  15.666 -0.3937  0.0548 -0.2938
  595TIP3    H123276   0.713   1.238  15.599 -0.4261  0.5290 -0.6715
  595TIP3    H223277   0.756   1.381  15.627  1.2123  0.0053 -0.4046
  596TIP3   OH223278   1.077   1.911   4.069 -0.3554  0.0133 -0.1661
  596TIP3    H123279   1.155   1.866   4.037  1.7711  3.1788  0.1226
  596TIP3    H223280   1.035   1.946   3.990 -1.7447 -1.8945 -0.3461
  597TIP3   OH223281   0.257   3.500   4.407 -0.3110  0.2133 -0.2371
  597TIP3    H123282   0.211   3.523   4.327 -1.2071  0.1050  0.2269
  597TIP3    H223283   0.214   3.419   4.437  0.0238  0.2366  0.3334
  598TIP3   OH223284   3.493   1.032  14.466  0.1575  0.1296 -0.1157
  598TIP3    H123285   3.489   1.127  14.480  0.6646  0.5875 -2.5211
  598TIP3    H223286   3.401   1.005  14.463  0.0214  0.3661  1.4642
  599TIP3   OH223287   3.889   0.624  17.300  0.1918 -0.0830  0.2244
  599TIP3    H123288   3.922   0.654  17.215 -1.4428 -0.4561 -0.5850
  599TIP3    H223289   3.876   0.530  17.289 -1.8666  0.1587  0.2042
  600TIP3   OH223290   2.921   6.576   4.714  0.4908 -0.1844 -0.1256
  600TIP3    H123291   2.909   6.577   4.809 -0.2121  0.3865 -0.2126
  600TIP3    H223292   2.852   6.633   4.680 -0.4227 -1.8026 -1.1099
  601TIP3   OH223293   0.264   5.393   4.016  0.7015 -0.4180 -0.2684
  601TIP3    H123294   0.356   5.389   3.991  0.6835  2.8635 -1.3327
  601TIP3    H223295   0.220   5.333   3.956  1.8463  0.0645 -1.6461
  602TIP3   OH223296   6.299   5.563   0.514  0.0794  0.4558  0.2125
  602TIP3    H123297   6.210   5.589   0.537  0.3096  0.5482  1.0445
  602TIP3    H223298   6.328   5.630   0.452  0.2676  1.5902  1.4738
  603TIP3   OH223299   4.244   6.033   0.311 -0.3347  0.1058 -0.1222
  603TIP3    H123300   4.224   6.013   0.403 -0.1005 -0.6152 -0.2251
  603TIP3    H223301   4.260   6.127   0.311 -4.3661  0.9990 -0.1362
  604TIP3   OH223302   3.403   3.371   1.624 -0.1976  0.3088 -0.1641
  604TIP3    H123303   3.422   3.310   1.553 -1.0879  1.5716 -1.5312
  604TIP3    H223304   3.421   3.458   1.587 -0.8776  1.0155  1.0907
  605TIP3   OH223305   0.710   0.935   0.092 -0.4455  0.2303  0.3921
  605TIP3    H123306   0.625   0.910   0.127 -0.6575  0.9905  0.4272
  605TIP3    H223307   0.764   0.951   0.170 -0.3084 -0.1206  0.3701
  606TIP3   OH223308   2.380   2.378   2.617 -0.5200 -0.2771  0.1682
  606TIP3    H123309   2.341   2.291   2.631  0.2460 -0.8052 -0.8187
  606TIP3    H223310   2.470   2.359   2.590 -0.6866  0.7758 -1.2481
  607TIP3   OH223311   3.103   4.646  11.155  0.1714 -0.0806  0.3605
  607TIP3    H123312   3.011   4.646  11.127  0.1595  0.7630  0.3551
  607TIP3    H223313   3.147   4.704  11.092  0.8330 -0.9703 -0.0047
  608TIP3   OH223314   3.710   3.102  15.043  0.0026 -0.0361 -0.1407
  608TIP3    H123315   3.630   3.145  15.074  0.0739  0.2000 -0.2843
  608TIP3    H223316   3.720   3.026  15.101  0.1989  0.4665  0.4880
  609TIP3   OH223317   4.964   6.277   3.532 -0.3596 -0.4656 -0.0571
  609TIP3    H123318   4.883   6.248   3.573 -0.4631 -1.4614 -0.9208
  609TIP3    H223319   5.028   6.209   3.553  0.2374  0.2514  0.5178
  610TIP3   OH223320   4.181   4.241   4.416  0.0853  0.1791  0.2831
  610TIP3    H123321   4.098   4.224   4.372  0.4152  0.9519 -0.6748
  610TIP3    H223322   4.220   4.154   4.428 -1.2439 -0.2678  1.5678
  611TIP3   OH223323   1.855   2.842  11.385 -0.1062  0.1141 -0.1002
  611TIP3    H123324   1.929   2.809  11.436 -1.3696 -1.1964  0.9921
  611TIP3    H223325   1.790   2.868  11.450 -0.9148  0.5154 -1.0312
  612TIP3   OH223326   5.918   4.320  11.156 -0.4339 -0.1990  0.5634
  612TIP3    H123327   5.829   4.292  11.177 -0.2989 -0.6906  0.4810
  612TIP3    H223328   5.973   4.277  11.221 -0.1411 -0.7681 -0.0562
  613TIP3   OH223329   3.358   5.734  12.639  0.1972 -0.5982 -0.3295
  613TIP3    H123330   3.449   5.706  12.630 -0.0420 -1.8814  0.8979
  613TIP3    H223331   3.308   5.675  12.582  0.1964  0.7709 -1.8234
  614TIP3   OH223332   0.694   6.281   1.290 -0.2738  0.2462 -0.0977
  614TIP3    H123333   0.713   6.350   1.353 -0.7925 -0.5024  0.9099
  614TIP3    H223334   0.700   6.324   1.205  2.2913  0.8528  0.3102
  615TIP3   OH223335   5.439   6.385  13.030  0.0189  0.5572 -0.6206
  615TIP3    H123336   5.481   6.406  12.947 -0.0528  1.0692 -0.5301
  615TIP3    H223337   5.458   6.292  13.044 -0.7344  0.2283 -1.6457
  616TIP3   OH223338   4.164   6.430  14.789  0.2397  0.3327  0.3283
  616TIP3    H123339   4.224   6.365  14.824  1.0476  0.9755  0.1503
  616TIP3    H223340   4.220   6.498  14.752 -0.5906  0.6130 -0.4652
  617TIP3   OH223341   4.208   5.581   3.659 -0.7061 -0.1934 -0.1994
  617TIP3    H123342   4.118   5.550   3.666 -0.6013 -1.0049 -2.0157
  617TIP3    H223343   4.238   5.550   3.574  1.4554 -0.3365  0.5542
  618TIP3   OH223344   0.928   2.755  13.420 -0.1018  0.2113 -0.6148
  618TIP3    H123345   0.854   2.709  13.460 -0.0224 -0.2626 -1.0077
  618TIP3    H223346   0.996   2.687  13.412  0.6666  0.8191  0.4850
  619TIP3   OH223347   1.032   0.802   0.411 -0.6657 -0.2693  0.1499
  619TIP3    H123348   1.072   0.719   0.387  0.7417 -0.2284  2.1825
  619TIP3    H223349   1.105   0.861   0.427 -1.5816  0.6764  1.0249
  620TIP3   OH223350   0.284   5.159  15.337  0.3561 -0.3329  0.7401
  620TIP3    H123351   0.360   5.105  15.314 -0.2992  0.0215 -2.8864
  620TIP3    H223352   0.209   5.102  15.320 -0.2761  0.9176 -0.9362
  621TIP3   OH223353   2.708   4.012   5.433  0.1670 -0.5846  0.7574
  621TIP3    H123354   2.771   4.043   5.368 -0.7468  0.4745  0.3302
  621TIP3    H223355   2.680   3.927   5.401 -0.9394  0.3105 -0.7621
  622TIP3   OH223356   5.466   0.435  12.515  0.2868  0.4058  1.1527
  622TIP3    H123357   5.481   0.348  12.477 -0.2669  0.1163  1.5804
  622TIP3    H223358   5.553   0.474  12.520  0.5574 -0.1797  1.0886
  623TIP3   OH223359   5.553   2.889  15.653 -0.2544 -0.2904 -0.1311
  623TIP3    H123360   5.571   2.968  15.705  0.1807  0.1882 -0.9936
  623TIP3    H223361   5.636   2.870  15.610 -0.7307 -0.4138 -1.0103
  624TIP3   OH223362   3.107   1.048  14.481  0.0069 -0.2047  0.2244
  624TIP3    H123363   3.165   0.981  14.515 -0.5310 -0.6796  0.2233
  624TIP3    H223364   3.099   1.029  14.388 -0.8555 -0.6962  0.3848
  625TIP3   OH223365   0.811   6.082  15.003  0.2255 -0.4834  0.5256
  625TIP3    H123366   0.905   6.063  15.005  0.5862  0.9516 -0.6016
  625TIP3    H223367   0.776   6.040  15.081  2.2404  1.0503  2.4080
  626TIP3   OH223368   6.732   2.316   4.201 -0.3034 -0.0347  0.2523
  626TIP3    H123369   6.707   2.229   4.234  0.0460 -0.2560 -0.0671
  626TIP3    H223370   6.729   2.308   4.106  1.3982 -0.1873  0.1990
  627TIP3   OH223371   0.378   0.831   5.670 -0.4864  0.3544  0.4450
  627TIP3    H123372   0.409   0.896   5.733 -0.6649 -0.6548  1.6046
  627TIP3    H223373   0.458   0.793   5.634 -0.3222 -0.7978  1.9188
  628TIP3   OH223374   2.085   3.684   3.246  0.8314 -0.7303  0.0567
  628TIP3    H123375   2.002   3.638   3.263 -1.0449  1.7170 -1.8285
  628TIP3    H223376   2.102   3.670   3.153  0.3369  1.9791 -0.5273
  629TIP3   OH223377   2.900   0.708   1.288 -0.1947 -0.3301 -0.0308
  629TIP3    H123378   2.857   0.623   1.285 -1.5210  0.0710  3.3769
  629TIP3    H223379   2.973   0.697   1.350  0.0101  0.8483 -0.0255
  630TIP3   OH223380   4.850   5.422   3.374 -0.2134  0.1300 -0.6764
  630TIP3    H123381   4.938   5.400   3.404 -0.5148 -0.5224 -0.2543
  630TIP3    H223382   4.802   5.339   3.375 -0.7913  0.4464 -1.0517
  631TIP3   OH223383   4.895   5.572   4.366  0.3827 -0.4722 -0.6131
  631TIP3    H123384   4.904   5.491   4.415  1.5637 -0.1658 -0.2931
  631TIP3    H223385   4.925   5.551   4.277  2.2421 -0.0215 -0.1296
  632TIP3   OH223386   6.459   0.345  12.156  0.3273  0.0454 -0.3919
  632TIP3    H123387   6.514   0.274  12.124  0.2354 -0.5515  0.7055
  632TIP3    H223388   6.416   0.379  12.078  0.6986 -0.8222 -0.9953
  633TIP3   OH223389   3.834   2.080  15.096 -0.0853  0.0562 -0.3625
  633TIP3    H123390   3.831   2.103  15.003  1.5908  0.8168 -0.2562
  633TIP3    H223391   3.774   2.142  15.137 -3.0105 -1.9971 -1.1699
  634TIP3   OH223392   3.473   0.573  13.382 -0.2839 -0.0768 -0.4012
  634TIP3    H123393   3.446   0.652  13.336 -1.9607  0.3160  1.1586
  634TIP3    H223394   3.402   0.510  13.365  0.5812 -0.9632 -0.8610
  635TIP3   OH223395   0.660   2.879   4.676 -0.4034  0.7701  0.3181
  635TIP3    H123396   0.576   2.891   4.720 -0.4225 -0.1853  0.5564
  635TIP3    H223397   0.645   2.911   4.587 -1.0068  0.6221  0.3643
  636TIP3   OH223398   4.803   5.181   2.717  0.1763  0.6659 -0.2630
  636TIP3    H123399   4.860   5.105   2.732  1.0628  1.6218  1.5996
  636TIP3    H223400   4.715   5.150   2.740  0.3853 -0.0374 -0.3739
  637TIP3   OH223401   5.818   0.105   3.889  0.0681  0.6548 -0.7760
  637TIP3    H123402   5.739   0.149   3.920 -0.1064 -0.1642 -0.0262
  637TIP3    H223403   5.837   0.146   3.805 -2.0172 -0.1707 -1.6939
  638TIP3   OH223404   2.007   0.591   4.796  0.7708 -0.2562 -0.1490
  638TIP3    H123405   2.097   0.576   4.767  0.6183 -0.7140 -0.3782
  638TIP3    H223406   1.997   0.686   4.794  1.8550 -0.0536  1.6495
  639TIP3   OH223407   5.142   5.240  12.087 -0.0526 -0.5673 -0.1905
  639TIP3    H123408   5.197   5.215  12.161 -0.8273  0.9472  0.9540
  639TIP3    H223409   5.194   5.304  12.039  0.8785 -2.3268 -1.6153
  640TIP3   OH223410   0.754   0.021  11.674  0.3998  0.3987  0.0627
  640TIP3    H123411   0.791   0.108  11.657 -0.8961  0.8168 -0.8112
  640TIP3    H223412   0.804  -0.037  11.617  1.7846  0.4127  1.2014
  641TIP3   OH223413   2.802   2.328  13.560  0.0022 -0.0967 -0.1832
  641TIP3    H123414   2.785   2.338  13.467  0.8902 -2.0219 -0.6062
  641TIP3    H223415   2.874   2.389  13.578  1.2931 -1.2327 -1.2834
  642TIP3   OH223416   3.180   5.471  14.112  0.0522  0.2206  0.4984
  642TIP3    H123417   3.230   5.414  14.054  0.1692  1.5503 -0.7670
  642TIP3    H223418   3.089   5.446  14.097  0.1792 -0.5063  0.9226
  643TIP3   OH223419   1.353   0.499  12.307 -0.3224  0.2835 -0.3591
  643TIP3    H123420   1.342   0.582  12.353 -0.3445  0.1449 -0.1155
  643TIP3    H223421   1.439   0.506  12.265 -1.3321  1.4150 -2.3643
  644TIP3   OH223422   0.619   0.596   1.992  0.1185  0.4882 -0.0895
  644TIP3    H123423   0.706   0.600   1.953 -0.2714  1.8848 -0.8582
  644TIP3    H223424   0.567   0.546   1.929  0.0538  0.7790 -0.2707
  645TIP3   OH223425   0.993   3.962  12.869  0.1950  0.5002  0.4842
  645TIP3    H123426   0.939   3.989  12.795  0.5477 -1.5915 -0.6229
  645TIP3    H223427   1.081   3.994  12.849  0.1938  0.3344  0.2092
  646TIP3   OH223428   0.028   0.804  16.565 -0.3796 -0.7668 -0.2962
  646TIP3    H123429   0.089   0.872  16.591  0.3588 -1.1590 -0.9596
  646TIP3    H223430   0.011   0.755  16.646  0.2117 -0.6781 -0.1138
  647TIP3   OH223431   6.661   5.001  14.611  0.0357 -0.6690  0.4315
  647TIP3    H123432   6.584   5.027  14.562  1.1151 -1.0747 -1.6148
  647TIP3    H223433   6.628   4.971  14.696 -1.7324  1.9636  0.7646
  648TIP3   OH223434   4.975   0.146  13.263 -0.1024 -0.3834 -0.2522
  648TIP3    H123435   5.065   0.136  13.234  0.0977 -0.2888  0.3126
  648TIP3    H223436   4.950   0.234  13.237  0.3506  0.0027  0.5665
  649TIP3   OH223437   3.063   5.005  11.814  0.1799 -0.3162  0.0776
  649TIP3    H123438   3.144   4.984  11.768  0.0280 -0.5230 -0.0966
  649TIP3    H223439   3.057   5.101  11.810  1.4133 -0.1228  1.7855
  650TIP3   OH223440   5.147   1.828  12.310  0.2434 -0.9232  0.2206
  650TIP3    H123441   5.093   1.750  12.325  0.1363 -0.9519 -0.2996
  650TIP3    H223442   5.220   1.797  12.258 -0.5216 -0.4284 -1.1990
  651TIP3   OH223443   4.961   1.484   4.086  0.0151 -0.6452 -0.0915
  651TIP3    H123444   5.043   1.456   4.127  1.0607  1.4557 -0.6169
  651TIP3    H223445   4.956   1.433   4.005  0.4269 -1.2874  0.2745
  652TIP3   OH223446   4.103   3.704   2.629 -0.0075  0.2095 -0.1857
  652TIP3    H123447   4.030   3.750   2.588  0.0297 -1.5428 -2.4184
  652TIP3    H223448   4.083   3.705   2.722 -1.0858  2.7432 -0.3679
  653TIP3   OH223449   5.158   2.601   0.789 -0.2976 -0.3584  0.8631
  653TIP3    H123450   5.066   2.623   0.779 -0.7809 -1.0116  3.2765
  653TIP3    H223451   5.169   2.520   0.739 -0.5889  0.5935 -0.8075
  654TIP3   OH223452   6.366   2.676  15.236 -0.1301 -0.4116  0.2160
  654TIP3    H123453   6.280   2.677  15.278 -0.8805  0.8493 -1.2315
  654TIP3    H223454   6.379   2.586  15.207 -1.5617 -0.3681 -0.6471
  655TIP3   OH223455   1.118   4.882   4.295 -0.5506 -0.1724  0.1322
  655TIP3    H123456   1.094   4.891   4.203 -1.2778 -2.0402  0.0954
  655TIP3    H223457   1.183   4.811   4.296  0.5121  0.7835  0.9166
  656TIP3   OH223458   1.308   0.040  15.565  0.3130 -0.0313  0.1422
  656TIP3    H123459   1.245   0.027  15.636 -1.5259  0.5000 -1.3158
  656TIP3    H223460   1.330  -0.049  15.537  0.7502 -0.2370  1.0627
  657TIP3   OH223461   0.865   4.945   1.039  0.1819  0.8931 -0.1042
  657TIP3    H123462   0.921   4.921   1.112  0.2241 -1.8016 -0.8961
  657TIP3    H223463   0.917   4.925   0.961 -1.2615 -0.1409 -0.8478
  658TIP3   OH223464   2.761   0.003  12.624  0.0542 -0.5190 -0.6160
  658TIP3    H123465   2.785  -0.002  12.532 -0.2296 -1.1772 -0.6599
  658TIP3    H223466   2.702   0.078  12.630  1.6296  0.7773 -0.6050
  659TIP3   OH223467   2.569   2.997   1.732  0.5901  0.2224  1.3614
  659TIP3    H123468   2.500   2.931   1.737 -0.3828  1.2625  2.2423
  659TIP3    H223469   2.648   2.952   1.760  0.1675 -0.8405  0.8908
  660TIP3   OH223470   2.083   4.078   5.210 -0.5563  0.2157 -0.3977
  660TIP3    H123471   2.088   4.026   5.291 -0.5537 -1.3817 -1.3690
  660TIP3    H223472   2.002   4.048   5.168 -1.4340  2.2201 -0.2415
  661TIP3   OH223473   5.896   3.067   2.294  0.4242 -0.0581 -0.3139
  661TIP3    H123474   5.943   3.006   2.238 -0.1192  1.4078 -2.4850
  661TIP3    H223475   5.804   3.046   2.280  0.2996 -0.1942  0.6736
  662TIP3   OH223476   5.252   6.069   0.233 -0.3504 -0.1359 -0.4301
  662TIP3    H123477   5.204   6.132   0.181 -0.9665 -0.3913 -0.1811
  662TIP3    H223478   5.185   6.010   0.268  0.0226  0.0837  0.7273
  663TIP3   OH223479   1.831   1.491  13.794 -0.1959 -0.0649  0.4383
  663TIP3    H123480   1.901   1.551  13.820 -0.1413 -0.2916  0.8146
  663TIP3    H223481   1.756   1.547  13.777  0.1948  0.2304 -0.4148
  664TIP3   OH223482   1.569   0.704   4.217 -0.2184 -0.2570 -0.0811
  664TIP3    H123483   1.559   0.729   4.125 -0.3216 -0.6368 -0.1769
  664TIP3    H223484   1.491   0.652   4.236 -0.2744 -0.0465  0.2674
  665TIP3   OH223485   3.308   3.525  16.401 -0.1893  0.1764 -0.3611
  665TIP3    H123486   3.388   3.553  16.356 -0.3881  2.6234  0.6553
  665TIP3    H223487   3.335   3.448  16.451  1.4955  0.7893 -0.2539
  666TIP3   OH223488   6.025   2.969   3.669 -0.4498  0.4633  0.9660
  666TIP3    H123489   6.029   2.908   3.742 -2.2815  1.2487  1.7914
  666TIP3    H223490   6.047   3.054   3.707  2.9185  0.3545 -0.3292
  667TIP3   OH223491   0.104   2.897   5.754  0.3070  0.5295 -0.6133
  667TIP3    H123492   0.092   2.818   5.700  0.9974  1.9614 -3.0266
  667TIP3    H223493   0.188   2.884   5.797  0.0313 -0.3899 -0.3191
  668TIP3   OH223494   4.026   5.435   0.796 -0.1330 -0.3028  0.2105
  668TIP3    H123495   4.112   5.473   0.813  0.2986 -0.8208 -0.7639
  668TIP3    H223496   4.015   5.369   0.864  1.6669 -2.5067 -1.4988
  669TIP3   OH223497   4.946   2.340  15.953 -0.1573 -0.7414  0.1995
  669TIP3    H123498   4.930   2.357  15.860 -0.1787  1.2179  0.5125
  669TIP3    H223499   5.019   2.398  15.975 -0.5014 -0.7844  1.5131
  670TIP3   OH223500   3.430   1.596  12.226  0.2009  0.2531 -0.2622
  670TIP3    H123501   3.426   1.666  12.161  0.7152  0.3956 -0.1468
  670TIP3    H223502   3.484   1.632  12.296 -0.9229  0.3679  0.5731
  671TIP3   OH223503   3.930   0.066  13.037 -0.3687  0.1544  0.0130
  671TIP3    H123504   3.866   0.056  13.107 -2.2070  0.7529 -1.5017
  671TIP3    H223505   3.982   0.142  13.062  0.1124 -0.6224  1.4990
  672TIP3   OH223506   5.797   6.020   4.657 -0.2288 -0.5204 -0.0722
  672TIP3    H123507   5.757   6.028   4.744  0.8818  0.7673  0.3523
  672TIP3    H223508   5.813   5.926   4.648  0.3675 -0.6027  1.4666
  673TIP3   OH223509   6.574   1.107  15.778 -0.7869  0.2233  0.0080
  673TIP3    H123510   6.593   1.120  15.686 -1.8111 -0.8111 -0.3745
  673TIP3    H223511   6.510   1.176  15.799 -3.6021 -1.8488 -1.1363
  674TIP3   OH223512   2.799   3.449  13.471 -0.0424 -0.1653 -0.0740
  674TIP3    H123513   2.788   3.383  13.540  2.0961 -0.5858 -0.0759
  674TIP3    H223514   2.835   3.525  13.515 -1.1371  0.5174 -0.3204
  675TIP3   OH223515   5.482   1.721   0.512  0.5718 -0.4510 -0.1327
  675TIP3    H123516   5.531   1.670   0.448  1.2100  0.4297 -0.3615
  675TIP3    H223517   5.472   1.662   0.587  1.6078 -0.8081 -0.2560
  676TIP3   OH223518   5.792   2.695  16.933  0.2198  0.1870  0.1854
  676TIP3    H123519   5.771   2.607  16.966  1.7455  0.3518  1.7398
  676TIP3    H223520   5.797   2.684  16.838 -1.1123 -1.0518  0.2191
  677TIP3   OH223521   5.356   4.980  16.599  0.1780  0.2782  0.0835
  677TIP3    H123522   5.317   4.973  16.513  1.4455  1.6449 -0.6512
  677TIP3    H223523   5.282   4.980  16.660 -0.8472  1.0028 -1.1276
  678TIP3   OH223524   2.684   4.977  13.432 -0.3352  0.0392 -0.1994
  678TIP3    H123525   2.637   4.959  13.351  0.3966  0.7350 -0.7946
  678TIP3    H223526   2.715   4.891  13.461  1.3599  0.0110 -1.8974
  679TIP3   OH223527   1.160   1.360  11.690  0.3143 -0.2009  0.7113
  679TIP3    H123528   1.182   1.366  11.597 -2.3627 -1.1530 -0.0857
  679TIP3    H223529   1.228   1.304  11.727  0.6347 -1.0339 -1.0170
  680TIP3   OH223530   1.197   6.165  12.763  0.6259  0.4661  0.6865
  680TIP3    H123531   1.255   6.239  12.742 -1.1265  2.0744  1.2622
  680TIP3    H223532   1.112   6.190  12.726  0.0536 -1.4448  0.6041
  681TIP3   OH223533   2.307   2.781   0.123  0.6338  0.0912 -0.1436
  681TIP3    H123534   2.390   2.779   0.076  0.9129  0.0161  0.3408
  681TIP3    H223535   2.300   2.694   0.164  1.0812  0.6042  1.0883
  682TIP3   OH223536   5.480   3.188  13.815 -0.2173 -0.1037 -0.3606
  682TIP3    H123537   5.388   3.215  13.821 -0.9529 -2.2488 -0.9309
  682TIP3    H223538   5.521   3.254  13.759 -1.0857  1.5630  0.8722
  683TIP3   OH223539   1.901   5.764  16.733  0.3123  0.1864  0.2072
  683TIP3    H123540   1.990   5.750  16.700  0.6054 -1.0864  1.4384
  683TIP3    H223541   1.878   5.682  16.777 -0.0823  1.6600  2.9951
  684TIP3   OH223542   3.869   3.843   1.332  0.1386  0.1974  0.1208
  684TIP3    H123543   3.894   3.864   1.242 -1.4510 -0.6963 -0.5882
  684TIP3    H223544   3.862   3.927   1.376  0.7497  0.6601 -0.6505
  685TIP3   OH223545   6.668   3.140  15.771 -0.0424 -0.0623 -0.1926
  685TIP3    H123546   6.746   3.194  15.784  0.3151 -0.0372 -2.1312
  685TIP3    H223547   6.702   3.054  15.744 -0.6724 -0.2728 -0.3409
  686TIP3   OH223548   4.163   6.063  15.534 -0.5106  0.5805 -0.0938
  686TIP3    H123549   4.132   6.111  15.457 -3.6653  0.3727  0.8917
  686TIP3    H223550   4.159   6.126  15.606 -0.8272 -0.0772  0.4854
  687TIP3   OH223551   4.422   0.551  12.174  0.6671  0.4647  0.4924
  687TIP3    H123552   4.406   0.636  12.134 -0.4995  0.4588  0.9205
  687TIP3    H223553   4.462   0.571  12.259  0.4231  0.5851  0.5791
  688TIP3   OH223554   1.128   4.733   6.062 -0.3197 -0.3158  0.4100
  688TIP3    H123555   1.161   4.684   6.137  0.3470 -0.3901  0.0753
  688TIP3    H223556   1.034   4.715   6.061 -0.4028  0.0155  1.4610
  689TIP3   OH223557   5.215   1.509   2.118  0.0704  0.1848 -0.5869
  689TIP3    H123558   5.237   1.545   2.032  0.9782  0.6917 -0.1644
  689TIP3    H223559   5.287   1.450   2.138 -0.5714 -0.5945 -0.5438
  690TIP3   OH223560   2.945   0.972  14.067 -0.5070  0.3643 -0.3190
  690TIP3    H123561   2.960   1.055  14.023 -1.0289  0.3202 -0.5845
  690TIP3    H223562   2.895   0.995  14.145 -0.9546  0.2670 -0.5715
  691TIP3   OH223563   6.564   6.463  16.741 -0.0069 -0.1404 -0.4943
  691TIP3    H123564   6.639   6.404  16.748  0.1227 -0.1437 -1.7578
  691TIP3    H223565   6.586   6.536  16.798  1.5367  0.4410 -1.7634
  692TIP3   OH223566   6.402   5.144   3.464 -0.3568 -0.0282  0.0754
  692TIP3    H123567   6.412   5.129   3.558  0.4075 -1.2748 -0.1822
  692TIP3    H223568   6.482   5.189   3.438  0.6687 -1.9674 -0.3867
  693TIP3   OH223569   1.142   0.621  12.090 -0.1531  0.9794 -0.7679
  693TIP3    H123570   1.158   0.591  12.179 -0.9011  0.7745 -0.6976
  693TIP3    H223571   1.118   0.713  12.099 -0.2171  0.9619 -0.7601
  694TIP3   OH223572   2.671   1.028   6.029  0.5449  0.0566  0.3921
  694TIP3    H123573   2.754   0.980   6.022  1.7819  2.2102 -0.6416
  694TIP3    H223574   2.643   1.043   5.939 -2.0662 -2.2325  0.6726
  695TIP3   OH223575   6.157   3.697  12.270  0.1980  0.2289  0.1761
  695TIP3    H123576   6.086   3.736  12.220  0.5913 -0.9863 -1.4545
  695TIP3    H223577   6.135   3.604  12.275  1.3209 -0.0608  0.2059
  696TIP3   OH223578   2.348   3.324  14.003 -0.2397  0.3459 -0.0340
  696TIP3    H123579   2.344   3.272  13.923  0.7256  0.7145 -0.3407
  696TIP3    H223580   2.430   3.297  14.045 -0.3224  0.7567  0.4042
  697TIP3   OH223581   6.378   0.816   2.106  0.5862  0.0912 -0.1739
  697TIP3    H123582   6.355   0.831   2.014 -1.6246 -2.7295 -0.2300
  697TIP3    H223583   6.322   0.876   2.155  0.0232 -0.0592 -0.6282
  698TIP3   OH223584   3.538   4.853  12.095  0.0074 -0.6004  1.0340
  698TIP3    H123585   3.523   4.765  12.060 -2.4014 -0.0004  0.3785
  698TIP3    H223586   3.467   4.867  12.157 -0.0325  1.1081  0.6484
  699TIP3   OH223587   0.778   6.638  13.415  0.0819 -0.2919 -0.4239
  699TIP3    H123588   0.810   6.697  13.483 -0.3950 -1.1398  0.5615
  699TIP3    H223589   0.840   6.565  13.415  0.1706 -0.2264 -1.0254
  700TIP3   OH223590   2.050   3.243   3.150 -0.3210  0.2600  0.3120
  700TIP3    H123591   2.012   3.235   3.238 -0.2319  0.2441  0.3493
  700TIP3    H223592   2.026   3.161   3.107  1.1418 -0.5173  0.9087
  701TIP3   OH223593   6.437   3.844   3.296  0.3845  0.0773  0.0001
  701TIP3    H123594   6.375   3.864   3.226 -0.0025  3.6590  1.1592
  701TIP3    H223595   6.384   3.812   3.368  0.5134 -1.3987 -0.5339
  702TIP3   OH223596   5.873   1.266  13.995 -0.3623  0.3514  0.4630
  702TIP3    H123597   5.819   1.318  13.935 -0.1456  1.8425  1.5206
  702TIP3    H223598   5.875   1.179  13.955 -3.4481  0.2344  0.2999
  703TIP3   OH223599   0.337   0.325   1.131 -0.6588 -0.7938  0.6587
  703TIP3    H123600   0.383   0.319   1.214 -0.0908 -0.6582  0.3603
  703TIP3    H223601   0.262   0.382   1.149  0.7508  1.2192  0.5322
  704TIP3   OH223602   6.717   1.422  16.143 -0.2132 -0.5208 -0.0521
  704TIP3    H123603   6.665   1.364  16.198  0.8734 -2.5005 -0.9696
  704TIP3    H223604   6.801   1.430  16.189 -0.0934 -0.3096 -0.3016
  705TIP3   OH223605   2.692   4.048  15.962  0.9135  0.4168 -0.1905
  705TIP3    H123606   2.618   3.990  15.982  0.9234  0.2229 -0.7132
  705TIP3    H223607   2.660   4.135  15.984  0.2949  0.4128 -1.0388
  706TIP3   OH223608   5.303   4.597  12.311  0.0725  0.3903 -0.3700
  706TIP3    H123609   5.324   4.531  12.246  0.2977  0.6339 -0.5456
  706TIP3    H223610   5.210   4.582  12.332 -0.1626  0.6751 -1.1684
  707TIP3   OH223611   0.309   2.773   1.606 -0.1692 -0.4804  0.0613
  707TIP3    H123612   0.248   2.748   1.537  1.0010 -3.3984 -0.0529
  707TIP3    H223613   0.265   2.750   1.687 -0.7461  1.1201  0.2420
  708TIP3   OH223614   1.845   3.712  12.679  0.0970  0.3213  0.5983
  708TIP3    H123615   1.787   3.637  12.672  0.2772  0.3018 -0.9560
  708TIP3    H223616   1.914   3.696  12.614  0.7199  1.3199  0.9778
  709TIP3   OH223617   4.425   0.474  16.491  0.2294  0.3693 -0.2213
  709TIP3    H123618   4.468   0.403  16.537 -1.0606 -0.5800 -0.4240
  709TIP3    H223619   4.367   0.513  16.557 -1.0840 -0.5320 -0.8042
  710TIP3   OH223620   5.766   3.108   2.563 -0.3947 -0.1575  0.3540
  710TIP3    H123621   5.787   3.136   2.474 -0.3384  2.2576  1.0533
  710TIP3    H223622   5.828   3.037   2.581 -1.3115 -1.6593 -1.9392
  711TIP3   OH223623   1.309   2.385  14.891 -0.0021 -0.0782 -0.3197
  711TIP3    H123624   1.402   2.401  14.874 -0.4288  1.5539 -1.4151
  711TIP3    H223625   1.286   2.450  14.958 -0.1339 -1.1828  0.7332
  712TIP3   OH223626   3.285   2.387   5.759 -0.4043  0.3498 -0.0862
  712TIP3    H123627   3.327   2.435   5.687  0.3075  0.1646  0.1998
  712TIP3    H223628   3.307   2.437   5.837  0.9432 -0.8053  0.3025
  713TIP3   OH223629   4.557   6.010   5.450 -0.3175 -0.6468 -0.5457
  713TIP3    H123630   4.615   5.939   5.477 -1.1783 -1.0424  0.3801
  713TIP3    H223631   4.600   6.089   5.481  1.2104 -0.5998 -2.5699
  714TIP3   OH223632   2.811   4.349  16.057 -0.2960 -0.1110  0.0643
  714TIP3    H123633   2.761   4.317  16.132 -0.3998 -0.8874 -0.3263
  714TIP3    H223634   2.753   4.412  16.014 -0.7300 -0.6142 -0.0864
  715TIP3   OH223635   0.686   4.765   3.731 -0.2933 -0.4224 -1.0286
  715TIP3    H123636   0.729   4.847   3.707 -1.9105  1.2215  1.2599
  715TIP3    H223637   0.599   4.771   3.690 -0.7739 -0.4998 -0.0581
  716TIP3   OH223638   1.491   1.922  11.202 -0.2300 -0.5198 -0.1484
  716TIP3    H123639   1.402   1.934  11.235 -0.0979 -0.8090  0.3197
  716TIP3    H223640   1.536   2.003  11.228 -0.5204 -0.0907 -0.9532
  717TIP3   OH223641   6.493   1.763  11.771  0.6589 -0.4568 -0.5437
  717TIP3    H123642   6.556   1.807  11.713 -1.2094  0.0979 -2.2741
  717TIP3    H223643   6.457   1.834  11.824  2.0327 -0.8989  1.0666
  718TIP3   OH223644   4.434   3.179   4.672  1.2853  0.1212  0.0482
  718TIP3    H123645   4.367   3.115   4.697 -0.1702  1.8278  0.8152
  718TIP3    H223646   4.390   3.235   4.608  1.7036  1.6698  1.0477
  719TIP3   OH223647   6.192   3.986  16.034  0.4235 -0.1932 -0.0588
  719TIP3    H123648   6.137   3.922  16.079 -0.8572  1.0342  0.2015
  719TIP3    H223649   6.275   3.985  16.082  0.3140 -1.4242  0.1180
  720TIP3   OH223650   1.051   3.776  13.900 -0.2165 -0.2659 -0.4623
  720TIP3    H123651   1.139   3.738  13.899 -0.5310 -1.0837  0.9723
  720TIP3    H223652   1.009   3.741  13.822  0.9137  0.6741 -1.5582
  721TIP3   OH223653   5.614   6.583  15.976 -0.0916 -0.2058  0.3426
  721TIP3    H123654   5.700   6.587  16.016 -0.1724  1.0248  0.4181
  721TIP3    H223655   5.553   6.583  16.049 -0.2049  0.9404  0.2642
  722TIP3   OH223656   1.514   1.077   2.238  0.4772  0.3650  0.2241
  722TIP3    H123657   1.503   1.111   2.149  1.4292  1.5768  0.5392
  722TIP3    H223658   1.578   1.006   2.228 -2.1934 -2.1271 -0.5756
  723TIP3   OH223659   4.393   2.770   1.436  0.1672 -0.6568 -0.5096
  723TIP3    H123660   4.465   2.790   1.495 -1.5809  1.8066  0.9734
  723TIP3    H223661   4.406   2.829   1.361 -0.0339 -0.5858 -0.4889
  724TIP3   OH223662   0.431   5.030   3.049  0.3417 -0.1125  0.0335
  724TIP3    H123663   0.476   4.958   3.006  0.6096 -0.6265  1.1357
  724TIP3    H223664   0.493   5.103   3.044  0.5863 -0.3202  0.0098
  725TIP3   OH223665   1.331   3.448   5.255  0.1234  0.5150 -0.7898
  725TIP3    H123666   1.296   3.530   5.291 -2.0740 -0.9625  0.7462
  725TIP3    H223667   1.277   3.380   5.295  2.7907 -1.8229 -0.8379
  726TIP3   OH223668   3.476   3.819  14.011  0.2776 -0.6948 -0.6394
  726TIP3    H123669   3.571   3.806  14.013  0.9236  2.4705 -2.8642
  726TIP3    H223670   3.465   3.908  13.979 -3.4960 -1.3342 -1.5968
  727TIP3   OH223671   0.085   1.128   5.336  0.1831  0.5832  0.0355
  727TIP3    H123672   0.067   1.058   5.398 -1.8133  0.9424 -0.0704
  727TIP3    H223673   0.153   1.181   5.378  3.3833 -2.4418 -0.7529
  728TIP3   OH223674   1.764   4.865  16.203 -0.2277 -0.0726  0.8017
  728TIP3    H123675   1.758   4.955  16.169  1.0755  0.1435  1.1013
  728TIP3    H223676   1.696   4.861  16.270 -0.5496  0.5708  0.5257
  729TIP3   OH223677   5.727   0.150  16.149  0.0275 -0.3827  0.0814
  729TIP3    H123678   5.752   0.064  16.183  1.7856 -0.4539 -1.2334
  729TIP3    H223679   5.808   0.187  16.115 -0.9880  1.1353 -0.8271
  730TIP3   OH223680   0.912   0.167   0.279 -0.2315 -0.0158  0.1689
  730TIP3    H123681   1.000   0.142   0.306 -0.6720 -1.9662 -0.0690
  730TIP3    H223682   0.925   0.218   0.199  0.7347  0.9072  0.8901
  731TIP3   OH223683   0.381   2.729   0.025  0.3079  0.2450 -0.1141
  731TIP3    H123684   0.371   2.663  -0.043 -0.0940  0.8123 -0.6141
  731TIP3    H223685   0.435   2.687   0.092 -2.6838 -1.8792  1.2105
  732TIP3   OH223686   2.147   4.793  15.901 -0.0207 -0.0278 -0.9051
  732TIP3    H123687   2.115   4.809  15.990  0.2638 -1.7955 -0.4425
  732TIP3    H223688   2.231   4.840  15.898 -0.0040  0.0076 -0.2110
  733TIP3   OH223689   5.169   4.800   3.122 -0.4032  0.2708 -0.1146
  733TIP3    H123690   5.224   4.855   3.065  2.5512 -0.2274  2.0382
  733TIP3    H223691   5.172   4.844   3.207 -1.3504 -1.1220  0.6665
  734TIP3   OH223692   4.831   4.633  13.998 -0.1471 -0.4165 -0.8132
  734TIP3    H123693   4.841   4.611  13.905  0.4108 -1.4810 -0.5106
  734TIP3    H223694   4.741   4.665  14.005 -0.2337 -0.4328 -1.6953
  735TIP3   OH223695   3.783   1.841   1.034 -0.3878 -0.2061  0.1610
  735TIP3    H123696   3.830   1.835   0.951  1.6304 -1.4416  1.3367
  735TIP3    H223697   3.707   1.784   1.023 -0.7288  0.4480 -1.1484
  736TIP3   OH223698   2.111   5.510  15.116 -0.7659 -0.3933  0.8094
  736TIP3    H123699   2.177   5.579  15.113  0.0854 -1.1995  0.5410
  736TIP3    H223700   2.152   5.440  15.168 -0.2990 -2.0111 -1.5709
  737TIP3   OH223701   3.286   6.264   5.112 -0.6698 -0.0698  0.1715
  737TIP3    H123702   3.279   6.340   5.054  0.0232  0.0298  0.1993
  737TIP3    H223703   3.238   6.194   5.068  1.1287 -0.4487 -1.3035
  738TIP3   OH223704   0.501   1.524   0.625 -0.1991 -0.2677  0.1569
  738TIP3    H123705   0.457   1.584   0.565 -0.1436  1.8298  2.0736
  738TIP3    H223706   0.585   1.566   0.643 -0.3048 -0.6891  1.8274
  739TIP3   OH223707   4.504   3.463  17.292  0.0450 -0.2457 -0.6931
  739TIP3    H123708   4.546   3.432  17.212  2.5651 -2.2216  1.2504
  739TIP3    H223709   4.544   3.548  17.309  0.6491 -0.5099 -0.7573
  740TIP3   OH223710   1.655   6.669   4.482 -0.1886  0.3362 -0.2376
  740TIP3    H123711   1.620   6.580   4.488 -1.7849  0.9829  1.2490
  740TIP3    H223712   1.746   6.662   4.510 -0.1657 -0.8780 -0.5751
  741TIP3   OH223713   3.472   4.917  11.074  0.3635  0.6202  0.8946
  741TIP3    H123714   3.417   4.951  11.004  0.1351 -1.0207  0.2397
  741TIP3    H223715   3.418   4.922  11.152 -0.2612  0.1869  0.4920
  742TIP3   OH223716   4.340   5.679   4.325 -0.7569 -0.2740  0.0430
  742TIP3    H123717   4.333   5.746   4.257 -1.2564 -0.0853  0.2733
  742TIP3    H223718   4.279   5.708   4.393  0.1143 -0.1896  0.8068
  743TIP3   OH223719   3.520   0.899  12.717  0.0495  0.1729 -0.6378
  743TIP3    H123720   3.591   0.953  12.684  0.3229 -0.0245 -0.3875
  743TIP3    H223721   3.513   0.922  12.810 -0.2493  0.2300 -0.6726
  744TIP3   OH223722   1.344   0.871  17.094 -0.0817 -0.1824 -0.0180
  744TIP3    H123723   1.432   0.892  17.125  0.3016 -0.8971 -0.5969
  744TIP3    H223724   1.354   0.856  17.000 -0.9149  0.2261 -0.1876
  745TIP3   OH223725   3.345   0.111  16.299 -0.0562 -0.0142 -0.3824
  745TIP3    H123726   3.311   0.022  16.296  1.9275 -0.8665  0.3642
  745TIP3    H223727   3.431   0.105  16.257  0.3523  1.4245  0.1836
  746TIP3   OH223728   6.757   2.402   3.447  0.2042  0.1552 -0.2623
  746TIP3    H123729   6.729   2.479   3.497 -0.1134 -0.2830  0.2427
  746TIP3    H223730   6.758   2.432   3.356 -1.5105  0.3169 -0.2590
  747TIP3   OH223731   0.193   1.088   1.948 -0.3297  0.2926 -0.2028
  747TIP3    H123732   0.202   1.025   2.019  1.2762  0.5199 -0.1589
  747TIP3    H223733   0.107   1.128   1.962  0.0469  0.5170  1.7770
  748TIP3   OH223734   4.022   2.033   1.776 -0.4932  0.0494 -0.2532
  748TIP3    H123735   4.012   1.941   1.750 -0.6107 -0.0073 -0.0124
  748TIP3    H223736   3.987   2.036   1.865 -0.6191  0.3566 -0.3133
  749TIP3   OH223737   3.375   1.895   4.219  0.2262  0.4207  0.1118
  749TIP3    H123738   3.321   1.851   4.285  1.6298  0.1694  1.1365
  749TIP3    H223739   3.428   1.826   4.180 -0.2217  0.6535 -0.9277
  750TIP3   OH223740   4.330   0.791  12.925 -0.5983  0.2529  0.1541
  750TIP3    H123741   4.405   0.815  12.871 -1.7656  1.2571 -1.0998
  750TIP3    H223742   4.272   0.867  12.921 -1.3225 -0.1550  1.8002
  751TIP3   OH223743   2.942   6.729   1.665 -0.1150  0.9581 -0.0507
  751TIP3    H123744   2.958   6.762   1.577  2.0792 -0.4350 -0.2494
  751TIP3    H223745   3.009   6.770   1.720  1.3531 -1.3962  0.0713
  752TIP3   OH223746   6.593   0.556   3.564  0.2058  0.1998 -0.1715
  752TIP3    H123747   6.571   0.587   3.652  0.5644  1.3288 -0.4664
  752TIP3    H223748   6.666   0.495   3.577 -0.5045 -0.5416  0.4195
  753TIP3   OH223749   4.038   3.720  11.573 -0.4428  0.2326  0.6077
  753TIP3    H123750   4.007   3.747  11.487 -1.7003  3.6474  1.9114
  753TIP3    H223751   3.958   3.708  11.624  0.2732  0.1428  1.7541
  754TIP3   OH223752   2.317   6.372   2.507  0.3730 -0.2528  0.0208
  754TIP3    H123753   2.339   6.374   2.600  1.1704  0.2862 -0.1648
  754TIP3    H223754   2.251   6.441   2.496  1.0442  0.4022  0.0174
  755TIP3   OH223755   5.331   6.440  11.984  0.3339 -0.2270 -0.5700
  755TIP3    H123756   5.293   6.453  12.071 -0.3527 -0.0280 -0.8917
  755TIP3    H223757   5.415   6.396  12.001  1.1264  1.5272  0.3173
  756TIP3   OH223758   4.513   5.729  14.531 -0.4344 -0.1300 -0.2388
  756TIP3    H123759   4.424   5.754  14.557  0.1512  0.9125  0.8424
  756TIP3    H223760   4.504   5.638  14.501 -2.0388  0.2992 -1.1371
  757TIP3   OH223761   2.410   5.288  16.753  0.1944  0.1868  0.2739
  757TIP3    H123762   2.397   5.239  16.672 -2.1336  0.8958  0.1451
  757TIP3    H223763   2.420   5.379  16.725  2.6446  0.1089  0.6404
  758TIP3   OH223764   2.118   0.842   2.751  0.6365 -0.3147  0.4931
  758TIP3    H123765   2.180   0.877   2.816 -0.9238  1.5074  1.1097
  758TIP3    H223766   2.049   0.803   2.804 -0.7563  1.3622  0.0224
  759TIP3   OH223767   3.349   1.185   0.823 -0.2492  0.1570 -0.3380
  759TIP3    H123768   3.263   1.145   0.816 -1.0063  1.3282  1.4371
  759TIP3    H223769   3.407   1.114   0.851 -0.4208 -0.8204 -2.2935
  760TIP3   OH223770   1.682   6.574   5.289  0.2587  0.3576 -0.0166
  760TIP3    H123771   1.608   6.606   5.341  1.9382  0.8814  2.2347
  760TIP3    H223772   1.758   6.620   5.326  1.5547  1.2268 -3.4059
  761TIP3   OH223773   6.569   1.317  13.510 -0.0373  0.1546  0.1530
  761TIP3    H123774   6.627   1.345  13.441 -0.5808  0.1403 -0.3171
  761TIP3    H223775   6.589   1.224  13.522 -0.8392 -0.1720 -0.8986
  762TIP3   OH223776   2.341   0.368  11.805 -0.2163  0.2189 -0.2196
  762TIP3    H123777   2.250   0.364  11.776 -0.0754  2.5543 -1.2180
  762TIP3    H223778   2.350   0.454  11.846  0.5198 -1.5756  3.8909
  763TIP3   OH223779   4.562   1.139   3.853  0.1656 -0.3009  0.1281
  763TIP3    H123780   4.554   1.192   3.774  0.5495 -0.7979 -0.2529
  763TIP3    H223781   4.546   1.049   3.823  2.1903 -0.7508  0.2329
  764TIP3   OH223782   0.728   1.649   2.139  0.4760 -0.0208  1.1756
  764TIP3    H123783   0.818   1.680   2.149  1.2849 -2.2291  1.1951
  764TIP3    H223784   0.695   1.641   2.228  1.7519 -3.1650  1.4733
  765TIP3   OH223785   5.593   3.563  12.555 -0.6801  0.0835 -0.0901
  765TIP3    H123786   5.600   3.497  12.486 -0.1344  1.1660 -1.1118
  765TIP3    H223787   5.673   3.554  12.606 -0.4425  0.1852 -0.4422
  766TIP3   OH223788   2.506   3.148   5.133  0.3924  0.0426  0.0541
  766TIP3    H123789   2.426   3.108   5.100  0.7264  0.1316 -0.9300
  766TIP3    H223790   2.530   3.213   5.066  0.4905  1.0678  1.0508
  767TIP3   OH223791   1.790   3.869   1.057  0.2896 -0.1395  0.0757
  767TIP3    H123792   1.815   3.899   0.970  0.4439 -2.3676 -0.7177
  767TIP3    H223793   1.778   3.949   1.108  0.9690  1.1962 -1.7660
  768TIP3   OH223794   4.088   6.563   2.921 -0.1619 -0.0241  0.5443
  768TIP3    H123795   4.129   6.621   2.856  0.4885 -1.7909 -0.6909
  768TIP3    H223796   4.002   6.543   2.883 -0.4107  0.1690  0.9998
  769TIP3   OH223797   4.612   0.953   2.815 -0.1861 -0.6020 -0.2344
  769TIP3    H123798   4.641   1.014   2.747  1.6492 -1.6426 -0.4440
  769TIP3    H223799   4.516   0.955   2.809 -0.1650  1.6660 -0.7142
  770TIP3   OH223800   2.731   5.743   1.388  0.5597  0.2622 -0.1457
  770TIP3    H123801   2.689   5.664   1.421 -0.6802  2.0105  2.8075
  770TIP3    H223802   2.817   5.744   1.431  0.9180  0.1444 -0.8353
  771TIP3   OH223803   2.418   1.321  16.540  1.1273 -0.5253  0.0243
  771TIP3    H123804   2.477   1.308  16.615  0.5977  0.4286  0.6125
  771TIP3    H223805   2.454   1.397  16.494  2.7863 -2.3832 -2.0393
  772TIP3   OH223806   4.373   3.371  16.695  0.1669 -0.0236 -0.1757
  772TIP3    H123807   4.312   3.378  16.622  1.7020  0.1621 -1.4807
  772TIP3    H223808   4.362   3.453  16.743 -2.9708 -1.3003  1.6241
  773TIP3   OH223809   1.791   2.911   4.011  0.6757 -0.1001 -0.3157
  773TIP3    H123810   1.740   2.891   4.089  1.6507 -2.0242 -0.0943
  773TIP3    H223811   1.728   2.946   3.949 -0.3445  0.3082  0.9157
  774TIP3   OH223812   1.605   2.351   5.531  0.2199  0.4873  0.4973
  774TIP3    H123813   1.569   2.433   5.497  0.9676  0.7310  0.2645
  774TIP3    H223814   1.529   2.300   5.558 -0.3643  0.6162 -0.8158
  775TIP3   OH223815   0.264   3.774  12.209  0.0055 -0.1963  0.2914
  775TIP3    H123816   0.287   3.851  12.262  0.5821 -0.6651  0.7344
  775TIP3    H223817   0.345   3.723  12.206  0.4032  0.4526 -2.1699
  776TIP3   OH223818   1.662   6.074   4.192 -0.5073 -0.5800 -0.1389
  776TIP3    H123819   1.732   6.071   4.258 -0.1144 -1.3265 -0.5758
  776TIP3    H223820   1.690   6.143   4.132 -1.0277  0.3284  0.6356
  777TIP3   OH223821   6.396   3.967   3.650  0.0939 -0.1609 -0.0264
  777TIP3    H123822   6.452   3.926   3.716 -0.3242  1.9501  1.7765
  777TIP3    H223823   6.352   4.037   3.697 -0.2787  1.4440 -2.5653
  778TIP3   OH223824   1.981   1.267  15.457  0.0373 -0.5090  0.4361
  778TIP3    H123825   2.036   1.253  15.380 -0.4479 -0.7471  0.1286
  778TIP3    H223826   2.020   1.344  15.500  0.4841 -0.5510  0.1162
  779TIP3   OH223827   5.805   3.189  16.435 -0.2047  0.0615 -0.4274
  779TIP3    H123828   5.870   3.135  16.480 -0.4646 -1.2063 -1.5171
  779TIP3    H223829   5.722   3.143  16.448 -0.4551  0.2671 -1.2548
  780TIP3   OH223830   3.652   4.280  13.068  0.0065 -0.0667  0.0151
  780TIP3    H123831   3.665   4.295  12.974  1.3638 -1.7897 -0.1047
  780TIP3    H223832   3.561   4.251  13.074 -0.1175  0.1210 -0.7583
  781TIP3   OH223833   5.566   4.219  13.896 -0.3674  0.0823  0.4811
  781TIP3    H123834   5.586   4.134  13.933  1.5242  0.6246  0.8048
  781TIP3    H223835   5.501   4.257  13.955 -2.2604 -1.6153 -0.4011
  782TIP3   OH223836   3.277   5.514  16.370 -0.2290  0.2988 -0.4694
  782TIP3    H123837   3.350   5.564  16.405  0.9318 -1.5761 -0.0655
  782TIP3    H223838   3.267   5.441  16.431 -0.5345 -1.0712 -2.0822
  783TIP3   OH223839   0.543   4.550   5.539  0.2146  0.0215 -0.5689
  783TIP3    H123840   0.626   4.528   5.582 -0.2856 -0.4361  0.1753
  783TIP3    H223841   0.491   4.470   5.544 -0.7498  0.6742  0.0910
  784TIP3   OH223842   3.000   3.621  10.472 -0.1630 -0.8387 -0.1867
  784TIP3    H123843   3.018   3.629  10.566 -0.7764  0.6288 -0.1614
  784TIP3    H223844   3.077   3.661  10.431 -0.4729 -0.3234 -0.2667
  785TIP3   OH223845   6.081   4.439  12.814  0.1847 -0.3933 -0.1653
  785TIP3    H123846   6.133   4.399  12.745 -0.4728  0.1688 -1.0081
  785TIP3    H223847   6.042   4.516  12.773 -2.6238 -1.6534 -0.0680
  786TIP3   OH223848   6.499   0.843  16.257 -0.5421 -0.0463  0.0382
  786TIP3    H123849   6.510   0.890  16.175 -1.7484 -0.4990 -0.3997
  786TIP3    H223850   6.420   0.790  16.245  0.6560 -2.0672  0.5757
  787TIP3   OH223851   3.414   0.731   3.603 -0.2184  0.0770 -0.0720
  787TIP3    H123852   3.467   0.783   3.542  0.1684 -1.0560 -0.7352
  787TIP3    H223853   3.324   0.744   3.572 -0.1227  0.3092 -0.2603
  788TIP3   OH223854   2.338   2.915  11.631 -0.1216  0.1537 -1.2599
  788TIP3    H123855   2.365   2.943  11.543 -0.6484  0.2691 -1.3856
  788TIP3    H223856   2.276   2.844  11.615  0.3160 -0.3019 -0.9664
  789TIP3   OH223857   0.099   2.503   4.704 -0.3847 -0.0045 -0.5774
  789TIP3    H123858   0.179   2.507   4.757  0.2959  3.4102 -1.6267
  789TIP3    H223859   0.028   2.524   4.764 -0.0342  0.5444 -0.3513
  790TIP3   OH223860   3.244   4.183   0.673 -0.5778  0.0202 -0.5386
  790TIP3    H123861   3.197   4.149   0.749  2.1783 -1.9335  0.4384
  790TIP3    H223862   3.316   4.234   0.711  0.0623  0.1241 -1.8611
  791TIP3   OH223863   1.263   5.011  12.786  0.0082 -0.2074 -1.5098
  791TIP3    H123864   1.281   5.103  12.765 -0.9807  0.1178 -1.0061
  791TIP3    H223865   1.246   5.011  12.880  0.2548 -0.9551 -1.4600
  792TIP3   OH223866   2.833   6.014  14.519  0.0109 -0.3689  0.1504
  792TIP3    H123867   2.862   5.923  14.523  1.4202  0.0923  2.9039
  792TIP3    H223868   2.910   6.065  14.542 -1.3227  1.3858  0.9962
  793TIP3   OH223869   5.297   6.303  17.440 -0.1124 -0.0238  0.2057
  793TIP3    H123870   5.360   6.375  17.431  0.0552 -0.2254 -0.2920
  793TIP3    H223871   5.252   6.301  17.356 -0.2090 -0.4138  0.2675
  794TIP3   OH223872   4.934   5.161  17.310  0.1724 -0.1754 -0.2689
  794TIP3    H123873   4.839   5.167  17.306  0.2111  0.5224 -0.1800
  794TIP3    H223874   4.953   5.132  17.399  0.0916  0.9050  0.1140
  795TIP3   OH223875   5.781   4.596  12.777 -0.4982  0.1693  0.0066
  795TIP3    H123876   5.863   4.622  12.736 -0.8954 -1.4291 -1.9405
  795TIP3    H223877   5.799   4.509  12.813 -1.2913 -0.1321 -0.3029
  796TIP3   OH223878   5.527   3.244  10.797 -0.8613 -0.2084 -0.4194
  796TIP3    H123879   5.588   3.312  10.767 -1.7751  0.1544 -1.5047
  796TIP3    H223880   5.578   3.194  10.862 -1.0303  3.1777  2.6367
  797TIP3   OH223881   6.418   2.687  17.406 -0.1140  0.2616  0.6790
  797TIP3    H123882   6.506   2.653  17.418 -0.2217 -0.6825 -0.9689
  797TIP3    H223883   6.366   2.611  17.379 -1.2678  0.9583  0.8583
  798TIP3   OH223884   3.400   4.725  17.242  0.3326 -0.2563 -0.0531
  798TIP3    H123885   3.436   4.802  17.198  1.7271 -0.0933  1.3039
  798TIP3    H223886   3.476   4.677  17.274 -0.5894 -1.0771  0.9827
  799TIP3   OH223887   5.106   0.707  15.552 -0.3118  0.5567 -0.1191
  799TIP3    H123888   5.121   0.730  15.461  0.8329 -1.3456 -0.4539
  799TIP3    H223889   5.012   0.691  15.558 -0.2322 -0.3767 -1.2364
  800TIP3   OH223890   6.657   6.087   0.296 -0.0279 -0.5253 -0.1172
  800TIP3    H123891   6.694   6.149   0.359  0.2315 -1.4300  0.6562
  800TIP3    H223892   6.567   6.117   0.282  0.2069  0.2237 -0.0340
  801TIP3   OH223893   1.135   2.394  15.130 -0.0179  0.3417  0.0890
  801TIP3    H123894   1.112   2.345  15.209 -0.5939  0.5687  0.0677
  801TIP3    H223895   1.161   2.327  15.067 -1.1906  0.0036 -0.0717
  802TIP3   OH223896   1.663   4.584   4.972 -0.6414  0.6022 -0.0018
  802TIP3    H123897   1.697   4.581   5.061 -1.1473  1.6605  0.2390
  802TIP3    H223898   1.709   4.514   4.926 -1.0798 -0.6013  1.3341
  803TIP3   OH223899   0.095   4.055   5.241 -0.6506 -0.4829  0.0861
  803TIP3    H123900   0.002   4.075   5.226 -0.8870 -2.0286 -0.6450
  803TIP3    H223901   0.115   4.098   5.324 -1.3947  1.7820 -0.8167
  804TIP3   OH223902   4.667   3.083  13.518 -0.1760  0.8592  0.0049
  804TIP3    H123903   4.605   3.147  13.481 -0.6607  0.3520 -0.0824
  804TIP3    H223904   4.713   3.049  13.442 -1.0433 -0.0498 -0.1317
  805TIP3   OH223905   2.513   1.674   3.967  0.0289 -0.0241 -0.4389
  805TIP3    H123906   2.438   1.653   4.023  1.2265  1.0913  1.7366
  805TIP3    H223907   2.589   1.639   4.014  1.0396  0.4290 -1.6712
  806TIP3   OH223908   4.062   0.183   4.252  0.4677  0.3856 -0.0791
  806TIP3    H123909   4.092   0.100   4.288 -1.3118  0.5690  2.0757
  806TIP3    H223910   3.998   0.159   4.185 -1.2854 -0.0872  1.6663
  807TIP3   OH223911   0.910   2.783  15.149  0.4933 -0.5440 -0.6586
  807TIP3    H123912   0.909   2.718  15.219 -0.6928 -1.0545 -1.1290
  807TIP3    H223913   0.961   2.743  15.079  0.4536 -0.6229 -0.6408
  808TIP3   OH223914   1.457   5.490   0.707 -0.5014 -0.1160 -0.7505
  808TIP3    H123915   1.381   5.514   0.655 -1.6285 -2.4186 -0.2650
  808TIP3    H223916   1.425   5.490   0.798  0.1242 -0.9170 -0.5236
  809TIP3   OH223917   4.925   5.862   3.400  0.1148 -0.1181 -0.5503
  809TIP3    H123918   4.909   5.823   3.314  2.6508 -0.0962 -1.1030
  809TIP3    H223919   4.839   5.862   3.442 -1.0207 -1.0351 -2.6889
  810TIP3   OH223920   0.900   5.457   0.116  0.1980  0.5947 -0.2703
  810TIP3    H123921   0.834   5.396   0.082 -0.4039  2.1504 -2.0366
  810TIP3    H223922   0.983   5.423   0.082  0.3852 -1.2200  1.7452
  811TIP3   OH223923   4.281   3.342  14.873  0.0039  0.2397 -0.1949
  811TIP3    H123924   4.251   3.408  14.811 -0.7600  0.2688  0.1967
  811TIP3    H223925   4.200   3.300  14.905  0.4426 -0.4764  0.0030
  812TIP3   OH223926   6.226   1.548  16.048 -0.2089  0.8474  0.0385
  812TIP3    H123927   6.311   1.533  16.090  0.3013  1.2494 -0.8150
  812TIP3    H223928   6.239   1.627  15.996 -0.7107  0.1644 -1.1567
  813TIP3   OH223929   6.265   0.902   4.253 -0.2738  0.3625 -0.1994
  813TIP3    H123930   6.272   0.957   4.331  0.5302 -0.7950  0.5543
  813TIP3    H223931   6.256   0.965   4.181 -0.9540  1.4477  0.7932
  814TIP3   OH223932   6.240   1.546   2.613 -0.3456 -0.0022  0.4960
  814TIP3    H123933   6.265   1.487   2.541 -0.3534  0.6870 -0.0768
  814TIP3    H223934   6.152   1.518   2.637 -1.2463  1.1302 -1.2350
  815TIP3   OH223935   1.495   5.600   5.500 -0.1423 -0.5426 -0.1542
  815TIP3    H123936   1.580   5.599   5.454 -0.2435 -0.4919 -0.3453
  815TIP3    H223937   1.491   5.687   5.539 -0.7302 -0.0116 -1.3374
  816TIP3   OH223938   3.404   1.470   6.210  0.6111 -0.2203  0.1487
  816TIP3    H123939   3.371   1.531   6.144  2.5682 -0.2094 -0.8698
  816TIP3    H223940   3.479   1.514   6.249 -0.1351 -0.4888  2.0061
  817TIP3   OH223941   5.220   4.716  12.939 -0.5106 -0.1983 -0.4127
  817TIP3    H123942   5.140   4.680  12.902 -0.4418 -0.4953 -0.2777
  817TIP3    H223943   5.190   4.783  13.001 -0.6457 -0.1724 -0.5052
  818TIP3   OH223944   5.322   1.584   4.573  0.1050 -0.3728 -0.0905
  818TIP3    H123945   5.413   1.580   4.545 -0.2750 -0.7392 -1.3272
  818TIP3    H223946   5.325   1.565   4.667  1.2917 -0.4380 -0.1280
  819TIP3   OH223947   0.557   2.924   2.550 -0.1347 -0.3063 -0.3674
  819TIP3    H123948   0.510   2.983   2.490 -0.5143  0.3658  0.5650
  819TIP3    H223949   0.559   2.971   2.633  1.1398 -0.8589 -0.0677
  820TIP3   OH223950   2.384   5.739  17.420 -0.8938  0.5111  0.3181
  820TIP3    H123951   2.346   5.670  17.474 -3.1783 -0.1967 -1.9980
  820TIP3    H223952   2.478   5.719  17.420 -0.9373 -0.0786  3.0226
  821TIP3   OH223953   2.236   1.024  14.162 -0.5352 -0.9390  0.6674
  821TIP3    H123954   2.247   1.017  14.068 -1.9591 -1.5628  0.5151
  821TIP3    H223955   2.258   1.115  14.182 -1.3265 -0.4823 -0.4478
  822TIP3   OH223956   1.375   0.507   1.392 -0.1138  0.1404 -0.3115
  822TIP3    H123957   1.283   0.481   1.395 -0.3054  0.0886 -3.2186
  822TIP3    H223958   1.422   0.426   1.378  0.0916  0.4141 -1.2924
  823TIP3   OH223959   0.644   3.636  13.478  0.7792 -0.0504  0.2872
  823TIP3    H123960   0.636   3.612  13.385  0.1505 -0.8936  0.5598
  823TIP3    H223961   0.710   3.576  13.512  1.0870  0.3298  0.3790
  824TIP3   OH223962   6.301   3.776   4.455  0.1840  0.2964  0.1527
  824TIP3    H123963   6.330   3.759   4.366  2.7271  0.3589  0.8995
  824TIP3    H223964   6.319   3.869   4.470  0.5279  0.1144  0.9669
  825TIP3   OH223965   1.362   0.297   1.650  0.0805 -0.0393 -0.1221
  825TIP3    H123966   1.444   0.309   1.602 -0.8742  0.6870 -1.6381
  825TIP3    H223967   1.293   0.314   1.585 -1.2851 -1.2482  0.9429
  826TIP3   OH223968   3.250   2.239   3.533  0.6325  0.3922  0.1279
  826TIP3    H123969   3.301   2.267   3.457  0.5175 -2.3844 -1.0924
  826TIP3    H223970   3.195   2.168   3.500 -0.1100 -0.2884  2.6203
  827TIP3   OH223971   1.010   2.428   0.568  0.0202 -0.0351  0.1156
  827TIP3    H123972   1.016   2.350   0.623  0.3886  0.7013  1.1394
  827TIP3    H223973   1.099   2.465   0.568  0.2953 -0.5664 -1.8168
  828TIP3   OH223974   2.696   4.677  11.654 -0.0541 -0.0383 -0.0412
  828TIP3    H123975   2.761   4.730  11.609  1.9473 -1.8564  0.5483
  828TIP3    H223976   2.728   4.670  11.744 -0.1469 -2.2993 -0.1267
  829TIP3   OH223977   2.881   4.610   1.018 -0.5802  0.1094 -0.0850
  829TIP3    H123978   2.945   4.681   1.015  1.5251 -1.7017 -0.4725
  829TIP3    H223979   2.798   4.652   0.995  0.2898  2.6813  1.0778
  830TIP3   OH223980   3.869   4.083  13.132 -0.2570  0.1151 -0.1565
  830TIP3    H123981   3.940   4.125  13.181 -0.7818 -1.0063  1.6825
  830TIP3    H223982   3.803   4.153  13.122  1.0543  1.1626 -1.8885
  831TIP3   OH223983   5.757   0.254   1.620  0.7124 -0.2360 -0.2046
  831TIP3    H123984   5.749   0.292   1.533 -3.2448  0.3109  0.1714
  831TIP3    H223985   5.758   0.329   1.679  0.4313 -0.6111  0.2919
  832TIP3   OH223986   4.906   3.990  13.116 -0.1926 -1.0126 -0.0325
  832TIP3    H123987   4.995   3.957  13.104  0.0646 -0.4461  0.2381
  832TIP3    H223988   4.859   3.918  13.158  0.4969 -0.8613  1.0420
  833TIP3   OH223989   5.976   0.258  13.137 -0.0833  0.3242 -0.0929
  833TIP3    H123990   6.069   0.282  13.129 -0.0655  0.3907  0.3171
  833TIP3    H223991   5.964   0.238  13.230 -0.6182  0.8622 -0.0439
  834TIP3   OH223992   6.080   1.656  14.328  0.3903  0.3123  0.0734
  834TIP3    H123993   6.003   1.677  14.382  0.8741 -0.2724  1.0281
  834TIP3    H223994   6.043   1.618  14.248 -0.3250 -0.5897  0.7983
  835TIP3   OH223995   6.150   4.344  14.333 -0.6672 -0.0081  0.8253
  835TIP3    H123996   6.126   4.255  14.360  0.0113 -0.7785 -0.9028
  835TIP3    H223997   6.178   4.334  14.242  0.1979  1.8623  0.8349
  836TIP3   OH223998   5.183   4.133  15.718 -0.3012  0.1827 -0.0658
  836TIP3    H123999   5.227   4.218  15.720 -2.3184  1.2942  0.0914
  836TIP3    H224000   5.217   4.090  15.640  0.6278  1.1936 -0.2448
  837TIP3   OH224001   2.565   0.965  12.144  0.5030  0.6232  0.5499
  837TIP3    H124002   2.620   0.951  12.067 -0.7782 -0.8245 -0.1588
  837TIP3    H224003   2.520   0.882  12.156 -3.4771  2.4283 -0.4560
  838TIP3   OH224004   0.483   3.092   0.181  0.4207  0.2469 -0.2025
  838TIP3    H124005   0.414   3.155   0.161  1.0045  0.7323 -0.7268
  838TIP3    H224006   0.512   3.060   0.095  0.8542  0.0527  0.0141
  839TIP3   OH224007   1.815   1.013   4.693 -0.2381 -0.2243  0.7344
  839TIP3    H124008   1.764   0.960   4.754 -2.5608  0.9185 -0.0826
  839TIP3    H224009   1.764   1.094   4.684  0.6053  0.1070 -1.8095
  840TIP3   OH224010   1.203   1.020  14.570  0.1838  0.0895  0.0475
  840TIP3    H124011   1.281   1.074  14.557 -0.1506  0.7573  0.8068
  840TIP3    H224012   1.165   1.051  14.651 -0.2281 -1.0410  0.3026
  841TIP3   OH224013   1.191   5.084  16.113 -0.2009 -0.2470  0.1549
  841TIP3    H124014   1.110   5.084  16.164  0.3414  0.7749  1.0501
  841TIP3    H224015   1.165   5.111  16.025 -0.8657 -0.1673  0.3733
  842TIP3   OH224016   5.541   3.245  11.159  0.1720 -0.3821  0.0136
  842TIP3    H124017   5.633   3.233  11.182  0.3632  0.4297 -0.2662
  842TIP3    H224018   5.526   3.185  11.086  0.1022 -1.5049  0.9262
  843TIP3   OH224019   2.588   3.077   0.901  0.2018 -0.3321  0.0881
  843TIP3    H124020   2.528   3.151   0.905 -0.4479 -0.8336 -0.2272
  843TIP3    H224021   2.623   3.069   0.989  0.8103  0.7765 -0.0271
  844TIP3   OH224022   0.135   4.800   3.689  0.6214 -0.0213  0.1461
  844TIP3    H124023   0.052   4.818   3.733  1.3330 -0.3649  1.7399
  844TIP3    H224024   0.112   4.746   3.614 -0.5163 -0.9206  1.0972
  845TIP3   OH224025   3.434   5.731   1.085  0.3778 -0.0633  0.1576
  845TIP3    H124026   3.364   5.766   1.139 -0.8421  0.2108 -1.5287
  845TIP3    H224027   3.499   5.802   1.081 -0.4523  0.7013 -0.3354
  846TIP3   OH224028   5.215   1.699  11.550  0.2370  0.1003  0.4814
  846TIP3    H124029   5.302   1.684  11.514  0.8720 -0.8695  2.3090
  846TIP3    H224030   5.214   1.792  11.572  0.5030  0.2888 -0.2427
  847TIP3   OH224031   1.883   0.375   0.037  0.2626  0.4278 -0.1872
  847TIP3    H124032   1.950   0.363  -0.030  2.7110  1.7819  1.8181
  847TIP3    H224033   1.900   0.463   0.071 -0.0161 -0.6359  2.9823
  848TIP3   OH224034   6.074   5.186   4.735  0.2374  0.2993 -0.5818
  848TIP3    H124035   6.138   5.116   4.744 -2.0207 -1.8411 -0.1895
  848TIP3    H224036   6.063   5.196   4.641 -0.4998 -0.9559 -0.6456
  849TIP3   OH224037   4.248   6.749   1.183  0.1017  0.1530 -0.5165
  849TIP3    H124038   4.322   6.691   1.202 -0.1287  0.2125  0.6405
  849TIP3    H224039   4.280   6.837   1.202 -0.5549  0.0969  1.1145
  850TIP3   OH224040   4.651   3.446  14.750 -0.3670 -0.1608  0.1778
  850TIP3    H124041   4.628   3.392  14.826  0.5465 -2.2345 -0.9154
  850TIP3    H224042   4.662   3.383  14.679  1.0865  1.4619 -1.1183
  851TIP3   OH224043   5.956   4.743  13.180  0.4703 -0.6096  0.4536
  851TIP3    H124044   6.016   4.692  13.127  0.8017  0.1840  0.0502
  851TIP3    H224045   5.892   4.778  13.118 -1.2806 -2.5719  1.0447
  852TIP3   OH224046   6.463   3.779   0.077  0.1201  0.2627 -0.3911
  852TIP3    H124047   6.429   3.739   0.157  1.9056 -1.3977 -0.3935
  852TIP3    H224048   6.551   3.743   0.067  0.7235  1.9932 -2.0309
  853TIP3   OH224049   5.225   5.021   4.684 -0.2729 -0.2220 -0.5540
  853TIP3    H124050   5.206   5.112   4.706 -1.0056 -0.2117 -1.1966
  853TIP3    H224051   5.311   5.004   4.723 -0.1347  0.7367 -0.4286
  854TIP3   OH224052   5.650   0.872   0.004 -0.1856 -0.2192 -0.0879
  854TIP3    H124053   5.673   0.922  -0.075  0.5385 -1.5360 -0.7530
  854TIP3    H224054   5.728   0.879   0.059  0.1301 -1.0173 -0.4143
  855TIP3   OH224055   1.328   1.240  15.868  0.3758  0.0493  0.0757
  855TIP3    H124056   1.266   1.282  15.808 -2.9707 -1.2082  2.3148
  855TIP3    H224057   1.348   1.308  15.932  0.8770  0.3006 -0.3436
  856TIP3   OH224058   2.374   2.494   3.514  0.1810 -0.4375 -0.9157
  856TIP3    H124059   2.400   2.578   3.474 -0.6928  0.3089  0.0256
  856TIP3    H224060   2.287   2.512   3.551  1.6968 -0.4404  3.0728
  857TIP3   OH224061   3.246   5.464  11.321  0.0527 -0.2910  0.0278
  857TIP3    H124062   3.152   5.453  11.305  0.1905  0.1687 -1.1979
  857TIP3    H224063   3.256   5.448  11.415 -1.1934 -0.7143  0.1089
  858TIP3   OH224064   2.211   5.903   3.694  0.2365  0.4658 -0.5834
  858TIP3    H124065   2.201   5.856   3.777 -1.6532  0.4047 -0.8101
  858TIP3    H224066   2.303   5.930   3.693  0.7519 -1.0792  0.6835
  859TIP3   OH224067   2.256   3.608  13.980 -0.1039 -0.1678  0.5800
  859TIP3    H124068   2.343   3.637  14.008 -0.2207  1.8710 -0.9471
  859TIP3    H224069   2.260   3.512  13.985  2.5518 -0.1961 -0.2954
  860TIP3   OH224070   6.311   1.264  16.799 -0.6011  0.4212 -0.4484
  860TIP3    H124071   6.323   1.341  16.855 -1.7635 -0.0840  0.5360
  860TIP3    H224072   6.356   1.194  16.845 -0.3219  0.3048 -0.8903
  861TIP3   OH224073   3.159   0.474   2.718  0.4293 -0.9375  0.1569
  861TIP3    H124074   3.135   0.559   2.680 -1.9076 -0.7191  1.8900
  861TIP3    H224075   3.255   0.473   2.717  0.5045  1.0655 -1.2371
  862TIP3   OH224076   6.710   5.988   5.235  0.4820  0.2596 -0.4887
  862TIP3    H124077   6.670   6.039   5.305 -0.0797 -1.2659  0.3287
  862TIP3    H224078   6.800   5.973   5.263  1.0303  1.8081 -1.3076
  863TIP3   OH224079   4.301   5.978  12.939 -0.1402  0.6741  0.0793
  863TIP3    H124080   4.315   6.037  13.013  1.0728 -0.7807  1.0978
  863TIP3    H224081   4.382   5.983  12.888  1.1509 -1.9779  1.6509
  864TIP3   OH224082   6.011   3.060  17.102 -0.2181 -0.0580  0.3880
  864TIP3    H124083   5.996   3.025  17.190 -1.5044 -0.9265 -0.1470
  864TIP3    H224084   6.070   2.996  17.061  0.5297  0.4429  0.6663
  865TIP3   OH224085   2.502   1.642  14.670 -0.4286 -0.5187 -0.0877
  865TIP3    H124086   2.424   1.589  14.686 -0.9930  0.1424 -0.6035
  865TIP3    H224087   2.497   1.665  14.577 -0.9374  1.5881  0.4043
  866TIP3   OH224088   5.081   4.385  14.743  0.0568 -0.0701 -0.2074
  866TIP3    H124089   5.040   4.300  14.726  0.4145 -0.2790 -0.0310
  866TIP3    H224090   5.045   4.443  14.675  0.9273 -0.7122 -1.2520
  867TIP3   OH224091   3.860   0.530   2.524 -0.3325 -0.0806  0.4657
  867TIP3    H124092   3.935   0.495   2.477 -1.1746  1.2196 -2.0233
  867TIP3    H224093   3.800   0.456   2.530 -0.0235 -0.3948 -0.1589
  868TIP3   OH224094   1.465   4.705   2.556 -0.1775  0.2757  0.1352
  868TIP3    H124095   1.530   4.704   2.485  1.1034  1.3790  1.2318
  868TIP3    H224096   1.399   4.768   2.526  0.0432  0.2962 -0.3274
  869TIP3   OH224097   3.369   5.928   1.273 -0.2710  0.7649 -0.3580
  869TIP3    H124098   3.415   5.870   1.334  1.0192  1.0562 -1.0312
  869TIP3    H224099   3.277   5.918   1.297 -0.2386 -2.2629 -1.0216
  870TIP3   OH224100   6.548   2.578   2.562  0.6877  0.2360  0.3743
  870TIP3    H124101   6.623   2.584   2.502  0.0765  1.6984 -0.3115
  870TIP3    H224102   6.551   2.659   2.612 -1.5429  1.3488 -1.1008
  871TIP3   OH224103   3.657   0.608   2.938 -0.0770  0.1954 -0.3974
  871TIP3    H124104   3.684   0.612   2.846  1.4938  1.1950  0.0679
  871TIP3    H224105   3.613   0.523   2.946  1.0279 -0.5604 -1.7432
  872TIP3   OH224106   1.509   5.232   3.813  0.1559  0.3606 -0.6899
  872TIP3    H124107   1.459   5.288   3.872  0.0763  0.5522 -0.9390
  872TIP3    H224108   1.494   5.143   3.846  3.3698  0.6632  2.1537
  873TIP3   OH224109   1.603   5.337   1.285  0.7042  0.5761 -0.4813
  873TIP3    H124110   1.576   5.391   1.211  0.0595  1.6284  0.4748
  873TIP3    H224111   1.531   5.344   1.348  0.5536 -1.5190 -0.3443
  874TIP3   OH224112   0.023   0.244   0.576  0.0848 -0.7873  0.4040
  874TIP3    H124113   0.038   0.333   0.543  1.2856  0.0589  2.9372
  874TIP3    H224114   0.030   0.188   0.499 -1.4017  1.3527 -1.3819
  875TIP3   OH224115   3.113   1.804  13.685 -0.2083 -0.1249 -0.2337
  875TIP3    H124116   3.066   1.826  13.605  1.4439 -0.5070 -1.3475
  875TIP3    H224117   3.205   1.812  13.662  0.3464 -2.0991  1.0935
  876TIP3   OH224118   4.198   4.985   3.562 -0.8297  0.4811  0.1441
  876TIP3    H124119   4.216   4.898   3.526 -0.6350  0.5692  0.0238
  876TIP3    H224120   4.277   5.007   3.611 -0.4308  1.0552 -0.7447
  877TIP3   OH224121   1.221   6.666  13.410  0.5223  0.0273 -0.4761
  877TIP3    H124122   1.210   6.628  13.323  2.3653  0.9956 -1.1813
  877TIP3    H224123   1.207   6.593  13.470 -0.6042 -0.6967 -1.5682
  878TIP3   OH224124   1.810   2.322   3.918 -0.3347 -0.0255  0.1866
  878TIP3    H124125   1.825   2.309   3.824 -2.4328 -0.7924 -0.0900
  878TIP3    H224126   1.835   2.239   3.958 -0.8956 -0.2421  0.0985
  879TIP3   OH224127   2.246   0.401  14.782  0.1289  0.0889 -0.1009
  879TIP3    H124128   2.246   0.492  14.754  2.0881  0.1975  0.0847
  879TIP3    H224129   2.209   0.353  14.709 -0.8430  1.0170 -0.2386
  880TIP3   OH224130   2.128   5.478  13.648  0.5884 -0.1130 -0.0158
  880TIP3    H124131   2.202   5.518  13.602  0.9436 -0.8436 -0.0968
  880TIP3    H224132   2.164   5.451  13.732 -0.1553  1.5684  0.8895
  881TIP3   OH224133   4.768   6.123   5.588  0.2289  0.1747  0.1443
  881TIP3    H124134   4.827   6.182   5.635 -0.6334  2.5416 -1.5339
  881TIP3    H224135   4.820   6.087   5.517  0.6240 -0.7598  0.8856
  882TIP3   OH224136   2.508   4.121  12.603  0.3383 -0.4975  0.3698
  882TIP3    H124137   2.418   4.154  12.594  0.6450  0.0664 -0.8386
  882TIP3    H224138   2.499   4.026  12.604 -0.3437 -0.4387  1.2065
  883TIP3   OH224139   1.461   0.904  14.271  0.7004 -0.0369  0.1688
  883TIP3    H124140   1.534   0.846  14.250  0.4690 -0.1936 -0.2013
  883TIP3    H224141   1.477   0.982  14.218  1.1773  0.3803  0.8903
  884TIP3   OH224142   0.403   3.404  11.524  0.2994 -0.7657  0.3376
  884TIP3    H124143   0.442   3.393  11.611  0.4229 -0.6281  0.3003
  884TIP3    H224144   0.434   3.489  11.495 -1.0125 -0.1092  0.8065
  885TIP3   OH224145   2.331   2.393  13.985  0.2810  0.2629 -0.6830
  885TIP3    H124146   2.281   2.466  13.948  0.7946  0.3808 -1.1549
  885TIP3    H224147   2.381   2.432  14.056 -2.2499 -0.3243  1.6233
  886TIP3   OH224148   2.130   3.423  16.167  0.1216 -0.0711  0.3932
  886TIP3    H124149   2.212   3.428  16.215 -0.0706 -0.1616  0.7363
  886TIP3    H224150   2.129   3.501  16.112  0.1462  0.2565  0.8535
  887TIP3   OH224151   5.008   3.723   2.984  0.6549 -0.3884  0.4662
  887TIP3    H124152   4.913   3.709   2.985  0.6118 -0.1457 -0.1452
  887TIP3    H224153   5.046   3.637   2.965  0.4913 -0.2005 -0.7960
  888TIP3   OH224154   5.289   1.535   4.854 -0.0867  0.9694  0.0973
  888TIP3    H124155   5.302   1.445   4.884  2.4284  0.7489 -1.4028
  888TIP3    H224156   5.244   1.578   4.927  0.3106 -1.0287  1.6120
  889TIP3   OH224157   1.802   2.776   4.524 -0.4836 -0.0022 -0.1003
  889TIP3    H124158   1.823   2.721   4.599 -1.2339 -0.3777 -0.1558
  889TIP3    H224159   1.806   2.716   4.449 -0.4741  0.2075 -0.2683
  890TIP3   OH224160   2.939   5.885   4.061  0.3617  0.2799  0.0345
  890TIP3    H124161   2.913   5.840   4.142  2.6943  1.7530  1.7313
  890TIP3    H224162   3.034   5.884   4.062  0.5346 -1.0608 -3.6231
  891TIP3   OH224163   4.653   4.247   4.103  0.4512 -0.3954  0.1851
  891TIP3    H124164   4.593   4.273   4.034 -0.4600 -1.1856  0.6703
  891TIP3    H224165   4.597   4.215   4.174  1.2134  1.9891  2.0453
  892TIP3   OH224166   4.849   4.550  16.253  0.4860 -0.3950 -0.4771
  892TIP3    H124167   4.869   4.458  16.273 -1.1431 -0.9971 -1.4322
  892TIP3    H224168   4.915   4.575  16.189  1.8251 -0.4219  0.8483
  893TIP3   OH224169   3.802   6.016  11.356  0.3910 -0.0441 -0.2199
  893TIP3    H124170   3.716   6.045  11.385 -0.6308 -3.0445  0.0932
  893TIP3    H224171   3.847   5.991  11.436  1.4660  1.1836 -0.4140
  894TIP3   OH224172   1.845   0.355  12.340  0.1957  0.0067 -0.5807
  894TIP3    H124173   1.841   0.315  12.426 -0.7116 -1.9542 -1.4644
  894TIP3    H224174   1.807   0.290  12.281 -0.4062  1.7840 -2.2905
  895TIP3   OH224175   5.610   3.014  11.944 -0.3976 -0.0927 -0.1097
  895TIP3    H124176   5.578   2.926  11.924 -0.6203  0.4098 -2.2543
  895TIP3    H224177   5.533   3.070  11.932 -0.0922  0.4793  0.5757
  896TIP3   OH224178   3.299   1.617  16.331 -0.2671 -0.2436 -0.5183
  896TIP3    H124179   3.345   1.544  16.373 -0.4257 -0.6044 -0.9758
  896TIP3    H224180   3.207   1.592  16.333 -0.1394 -1.0486 -2.5972
  897TIP3   OH224181   5.330   0.555  14.012  0.2660  0.3192  0.2497
  897TIP3    H124182   5.362   0.467  13.990  0.3976  0.2974  0.5186
  897TIP3    H224183   5.410   0.606  14.028  0.1863  0.4557  0.2090
  898TIP3   OH224184   2.979   2.894   3.064  0.0042 -0.3501  0.0699
  898TIP3    H124185   2.933   2.977   3.055  0.0813 -0.3304 -0.1466
  898TIP3    H224186   2.957   2.846   2.984 -0.8660 -0.9479  0.6489
  899TIP3   OH224187   3.990   4.385   3.440 -0.1101  0.6777  0.3012
  899TIP3    H124188   4.034   4.311   3.397 -0.0826  0.4186  0.7648
  899TIP3    H224189   3.899   4.378   3.413 -0.0015  0.7962 -0.0956
  900TIP3   OH224190   5.173   5.778  16.707 -0.3382  0.3944  0.2162
  900TIP3    H124191   5.101   5.820  16.659 -0.3295  1.0433  0.7534
  900TIP3    H224192   5.220   5.851  16.747  0.3018 -0.0660  0.3141
  901TIP3   OH224193   5.192   1.250  12.571 -0.1291 -0.5713 -0.0693
  901TIP3    H124194   5.109   1.268  12.615 -0.0638  0.3886 -0.3258
  901TIP3    H224195   5.253   1.228  12.642  0.2643  2.0180  0.4898
  902TIP3   OH224196   4.447   6.329  13.950  0.2945  0.0385  0.0792
  902TIP3    H124197   4.426   6.386  13.876 -0.1809  1.8986  1.5719
  902TIP3    H224198   4.363   6.289  13.974  0.3201 -0.0379  0.0428
  903TIP3   OH224199   3.766   5.145  13.285  0.9395 -0.0984 -0.1743
  903TIP3    H124200   3.699   5.182  13.227  0.5900 -1.1323 -0.4666
  903TIP3    H224201   3.809   5.220  13.324 -0.7532  0.6038  0.4291
  904TIP3   OH224202   1.841   2.763  10.789 -0.4696 -0.0632  0.1948
  904TIP3    H124203   1.843   2.742  10.696 -0.1240  0.0227  0.1809
  904TIP3    H224204   1.775   2.831  10.798 -1.5385 -1.0684  0.2199
  905TIP3   OH224205   1.942   0.551  14.354  0.0380 -0.2632  0.5327
  905TIP3    H124206   1.876   0.507  14.407  2.6183 -2.2535  2.4079
  905TIP3    H224207   1.959   0.491  14.281  1.3200 -0.9780  1.3598
  906TIP3   OH224208   2.434   0.557   3.946 -0.3426  0.3325 -0.4642
  906TIP3    H124209   2.372   0.486   3.931 -1.8481  1.6700 -0.8470
  906TIP3    H224210   2.488   0.527   4.020 -1.5094 -0.8256 -0.0454
  907TIP3   OH224211   0.098   2.725  17.155  0.0900  0.0394  0.0059
  907TIP3    H124212   0.188   2.692  17.148  0.6010  1.1751  0.9281
  907TIP3    H224213   0.072   2.743  17.065  0.1183 -1.9266 -0.4567
  908TIP3   OH224214   6.478   1.524   5.910 -0.3195 -0.4289 -0.0647
  908TIP3    H124215   6.447   1.435   5.927 -0.2775 -0.3559  0.3938
  908TIP3    H224216   6.479   1.566   5.995 -1.0360  0.2406 -0.3727
  909TIP3   OH224217   3.496   2.585  13.931 -0.3331  0.1876 -0.7489
  909TIP3    H124218   3.573   2.607  13.879 -0.1159  1.2330 -0.0169
  909TIP3    H224219   3.446   2.524  13.876  0.7917 -0.1609 -1.4111
  910TIP3   OH224220   0.474   1.967   4.792 -0.7743 -0.7313  0.1572
  910TIP3    H124221   0.387   1.986   4.828  0.4696  0.3758  2.8867
  910TIP3    H224222   0.535   2.005   4.855  1.7445  0.2853 -2.6433
  911TIP3   OH224223   2.829   6.625   1.328 -0.1931  0.2309 -0.1795
  911TIP3    H124224   2.874   6.688   1.386  0.3686  0.5328 -0.9242
  911TIP3    H224225   2.881   6.545   1.335  0.1819  0.4258 -0.6510
  912TIP3   OH224226   1.008   3.603   4.296  0.2479  0.0282 -0.4658
  912TIP3    H124227   1.008   3.698   4.284  0.1932  0.2212  0.8975
  912TIP3    H224228   0.920   3.583   4.326  0.2933 -0.4399 -0.6491
  913TIP3   OH224229   0.669   2.288   5.211  0.2949 -0.4079  0.0387
  913TIP3    H124230   0.763   2.303   5.196 -0.2491  0.9397 -2.5712
  913TIP3    H224231   0.634   2.374   5.232 -0.5308 -0.7390  0.0574
  914TIP3   OH224232   0.391   4.036  13.281  0.4988 -0.3006  0.6003
  914TIP3    H124233   0.486   4.042  13.276  0.3845  1.6741  0.2430
  914TIP3    H224234   0.364   4.120  13.319 -1.0415 -1.2317  1.6662
  915TIP3   OH224235   0.282   4.507   3.343  0.8613 -0.1130 -0.2132
  915TIP3    H124236   0.285   4.488   3.249 -1.2799  1.0880 -0.5949
  915TIP3    H224237   0.192   4.485   3.369  1.3034 -0.0544  1.4811
  916TIP3   OH224238   4.307   1.239   5.283  0.0460  0.0763  0.4483
  916TIP3    H124239   4.305   1.146   5.260 -2.9250  0.2638 -0.3992
  916TIP3    H224240   4.359   1.280   5.213 -0.2823 -0.6966 -0.2658
  917TIP3   OH224241   3.821   6.207  16.342  0.2322 -0.2980  0.0956
  917TIP3    H124242   3.915   6.208  16.324  0.1801 -0.7768 -0.1984
  917TIP3    H224243   3.804   6.293  16.382  0.9055 -0.4486  0.7326
  918TIP3   OH224244   5.359   5.881   3.619 -0.0316  0.3802  0.3586
  918TIP3    H124245   5.366   5.974   3.639  0.0656  0.9901 -2.2286
  918TIP3    H224246   5.436   5.861   3.566  1.7024 -2.0213  3.4269
  919TIP3   OH224247   5.741   3.231  15.553  0.1734  0.0240  0.2117
  919TIP3    H124248   5.692   3.312  15.567 -0.9727 -0.5979 -0.0925
  919TIP3    H224249   5.745   3.189  15.639 -0.9942 -0.5494  0.0071
  920TIP3   OH224250   3.408   1.648  16.085  0.0636  0.1415 -0.1020
  920TIP3    H124251   3.405   1.744  16.086 -2.9501  0.1859 -1.8373
  920TIP3    H224252   3.377   1.623  16.172  3.9597  0.5367  1.6442
  921TIP3   OH224253   5.657   5.283   4.286 -0.2866  0.5288 -0.1284
  921TIP3    H124254   5.580   5.232   4.260 -0.0481 -0.0828  0.3625
  921TIP3    H224255   5.622   5.348   4.347 -0.3071 -0.2017  0.6481
  922TIP3   OH224256   2.697   0.908   0.250 -0.1081  0.5258  0.0021
  922TIP3    H124257   2.674   0.818   0.275 -1.8770  0.9765  0.1929
  922TIP3    H224258   2.777   0.926   0.298  0.3517 -0.9879 -0.1351
  923TIP3   OH224259   4.836   3.508  16.986 -0.6072 -0.6065  0.1202
  923TIP3    H124260   4.873   3.500  17.074 -1.5496 -0.9654  0.4971
  923TIP3    H224261   4.912   3.520  16.930  0.0938 -1.3385  0.8683
  924TIP3   OH224262   3.239   1.311   5.502 -0.3359 -0.8292  0.2525
  924TIP3    H124263   3.218   1.290   5.411  1.3802  0.6953 -0.5650
  924TIP3    H224264   3.333   1.290   5.510 -0.6234 -1.6272  1.9111
  925TIP3   OH224265   2.720   1.090  15.630 -0.2645 -0.7274 -0.1438
  925TIP3    H124266   2.640   1.135  15.658 -0.4008 -0.1257 -1.4384
  925TIP3    H224267   2.781   1.161  15.610  0.3533 -1.1760  0.1280
  926TIP3   OH224268   4.272   5.215  12.490  0.6249 -0.0349 -0.2234
  926TIP3    H124269   4.202   5.280  12.501 -0.1436 -1.1015  1.6655
  926TIP3    H224270   4.338   5.260  12.436  0.5053  2.6577  1.6300
  927TIP3   OH224271   5.229   3.266  14.000  0.0364 -0.1159 -0.3306
  927TIP3    H124272   5.235   3.357  14.031 -1.8528 -0.2747  0.6784
  927TIP3    H224273   5.267   3.214  14.071  0.6458 -0.1634 -0.6830
  928TIP3   OH224274   4.330   1.811   4.319  0.4955 -0.4695 -0.0838
  928TIP3    H124275   4.424   1.813   4.335  0.7343 -1.2676 -1.2688
  928TIP3    H224276   4.298   1.735   4.368  0.2391  0.5338  1.3503
  929TIP3   OH224277   1.984   2.651  14.212 -0.1196  0.3606 -0.5506
  929TIP3    H124278   1.997   2.581  14.148  0.6968  0.6049 -0.6655
  929TIP3    H224279   1.914   2.619  14.268  0.9587 -1.0614  0.0732
  930TIP3   OH224280   1.621   6.387  13.338  0.4458  0.0003  0.8000
  930TIP3    H124281   1.705   6.365  13.297  1.0440  0.2016  1.8585
  930TIP3    H224282   1.571   6.429  13.269  1.0930 -0.4183  0.0522
  931TIP3   OH224283   4.709   5.196   3.403 -0.0041  0.1667 -0.0696
  931TIP3    H124284   4.622   5.170   3.430  0.1029  0.1776  0.2927
  931TIP3    H224285   4.744   5.120   3.357  0.1318 -0.1669  0.5706
  932TIP3   OH224286   6.516   2.709  14.254 -0.3921  0.3137  0.4948
  932TIP3    H124287   6.565   2.790  14.271  0.4569 -0.1864  0.4902
  932TIP3    H224288   6.427   2.739  14.236  0.0981  1.3221 -0.4236
  933TIP3   OH224289   6.191   4.503  14.893 -0.3091  0.3148 -0.4482
  933TIP3    H124290   6.156   4.584  14.857 -4.0665 -1.3383 -1.0030
  933TIP3    H224291   6.213   4.450  14.816  0.4591  0.1483 -0.1244
  934TIP3   OH224292   3.366   3.530  15.436  0.3780  0.3832  0.3171
  934TIP3    H124293   3.460   3.521  15.445  0.2569  0.0671  1.4035
  934TIP3    H224294   3.353   3.570  15.350  1.4359 -0.7139 -0.3800
  935TIP3   OH224295   5.163   5.864  17.046  0.6235  0.4681  0.0971
  935TIP3    H124296   5.073   5.864  17.011 -0.0104  1.0553  1.6428
  935TIP3    H224297   5.155   5.825  17.133  1.7992  0.9559  0.4436
  936TIP3   OH224298   6.414   4.445   6.273 -0.5496 -0.5524  0.6608
  936TIP3    H124299   6.497   4.468   6.315 -0.4930 -1.3478  0.9897
  936TIP3    H224300   6.380   4.372   6.325  0.0159 -2.2692 -1.2438
  937TIP3   OH224301   4.617   5.530   1.191  0.0365  0.0156  0.1554
  937TIP3    H124302   4.548   5.465   1.206 -0.1401  0.3625  0.8549
  937TIP3    H224303   4.686   5.481   1.145 -0.0745 -0.6759  0.7064
  938TIP3   OH224304   6.395   2.672   1.839 -0.9168 -0.2431  0.6504
  938TIP3    H124305   6.433   2.659   1.925  1.1023  0.5304 -0.0708
  938TIP3    H224306   6.400   2.766   1.824 -2.5943 -0.1863  0.2528
  939TIP3   OH224307   0.703   3.577   3.810 -0.3925 -0.4452 -0.0280
  939TIP3    H124308   0.617   3.583   3.770 -0.4769  0.2411  0.2448
  939TIP3    H224309   0.686   3.560   3.902 -0.2124 -1.3600 -0.1592
  940TIP3   OH224310   0.715   0.257   5.854  0.6785 -0.1644  0.2420
  940TIP3    H124311   0.801   0.242   5.894  0.1236 -4.2871  0.3125
  940TIP3    H224312   0.713   0.199   5.778 -1.1784  1.7361 -1.2691
  941TIP3   OH224313   6.767   0.469   3.279  0.6462 -0.2367  0.2130
  941TIP3    H124314   6.819   0.503   3.352 -0.0801  3.0169 -0.6146
  941TIP3    H224315   6.705   0.540   3.258 -0.9296 -2.0666 -1.8941
  942TIP3   OH224316   4.820   2.183  12.805  0.1689 -0.2781  0.5690
  942TIP3    H124317   4.740   2.136  12.779  1.3286 -2.2980  0.4831
  942TIP3    H224318   4.819   2.179  12.900  0.2575 -0.4800  0.5627
  943TIP3   OH224319   0.173   4.263   5.431 -0.5442  0.2200  0.8854
  943TIP3    H124320   0.081   4.286   5.420 -0.5807 -0.0234  0.6886
  943TIP3    H224321   0.217   4.308   5.359 -0.2163  2.0493  2.1371
  944TIP3   OH224322   6.272   5.025  16.671 -0.3527  0.2624  0.1017
  944TIP3    H124323   6.182   5.031  16.637 -0.6062  2.9169  1.0032
  944TIP3    H224324   6.262   5.029  16.766  0.6512 -1.4248  0.3067
  945TIP3   OH224325   3.549   3.279   5.107 -0.2277  0.3374 -0.3043
  945TIP3    H124326   3.540   3.320   5.193 -1.2044  0.7254 -0.5775
  945TIP3    H224327   3.463   3.241   5.090 -0.2803  0.9069 -1.4224
  946TIP3   OH224328   5.710   4.701  16.354  0.4989  0.0591  0.3288
  946TIP3    H124329   5.766   4.750  16.415  0.6258 -0.8077  0.9309
  946TIP3    H224330   5.621   4.712  16.390  0.0528  2.4231 -1.2797
  947TIP3   OH224331   0.514   6.075   5.313  0.0596  0.0864 -0.5819
  947TIP3    H124332   0.448   6.108   5.375  1.9463 -1.9000  2.7657
  947TIP3    H224333   0.491   5.983   5.301 -0.2513  0.4260 -2.9782
  948TIP3   OH224334   5.645   0.098   2.626 -0.1877  0.7173 -0.3794
  948TIP3    H124335   5.658   0.058   2.712 -0.3363  1.4036 -0.0323
  948TIP3    H224336   5.732   0.129   2.601  0.4063 -1.7889 -1.6717
  949TIP3   OH224337   4.079   2.759   4.563  0.2465 -0.2725  0.2489
  949TIP3    H124338   4.137   2.688   4.534  1.3729 -0.4521  2.6746
  949TIP3    H224339   4.132   2.838   4.557 -1.3011  0.6717 -3.3467
  950TIP3   OH224340   5.861   6.731   0.626 -0.1546 -0.2566  0.2421
  950TIP3    H124341   5.765   6.733   0.624 -0.2098  3.0942 -0.1195
  950TIP3    H224342   5.883   6.705   0.715 -1.4413  0.3773  0.7723
  951TIP3   OH224343   2.589   5.217   2.079  0.1373 -0.5829  0.4635
  951TIP3    H124344   2.639   5.298   2.089 -0.2002 -0.3473  0.2053
  951TIP3    H224345   2.635   5.170   2.009  0.8158 -0.9830  1.1508
  952TIP3   OH224346   2.738   2.473   5.997 -0.1774  0.0784 -0.3016
  952TIP3    H124347   2.721   2.470   6.091 -1.4023 -1.7656 -0.5251
  952TIP3    H224348   2.668   2.527   5.962 -0.4657 -0.2815 -0.2838
  953TIP3   OH224349   3.971   4.650   2.495 -0.2486 -0.0820  0.1047
  953TIP3    H124350   4.062   4.631   2.520 -0.0946 -1.5409 -1.3776
  953TIP3    H224351   3.923   4.651   2.578  1.3846  2.7469  1.1764
  954TIP3   OH224352   2.916   1.831   4.213  0.5578  0.4457 -0.6788
  954TIP3    H124353   2.827   1.796   4.203  0.1584  0.6454  1.5664
  954TIP3    H224354   2.972   1.754   4.207  0.3521  0.4311 -3.0311
  955TIP3   OH224355   6.675   5.762   5.009  0.7101  0.0720  0.2365
  955TIP3    H124356   6.692   5.836   5.068  0.0099 -0.1250  0.7095
  955TIP3    H224357   6.622   5.800   4.938  0.6894  0.1046  0.2692
  956TIP3   OH224358   0.379   6.207  12.992  0.2792 -0.0826 -0.1207
  956TIP3    H124359   0.380   6.168  13.079  0.0818 -1.7672 -0.8258
  956TIP3    H224360   0.298   6.258  12.990  1.4760  2.0558  1.4717
  957TIP3   OH224361   2.145   3.341  12.637 -0.8219  0.5152  0.0148
  957TIP3    H124362   2.137   3.357  12.543 -1.2547  1.3759  0.1833
  957TIP3    H224363   2.055   3.334  12.668 -0.6708 -1.5696  0.0991
  958TIP3   OH224364   3.394   1.470  13.792  0.4330 -0.1710 -0.2075
  958TIP3    H124365   3.382   1.395  13.851  0.6761  0.2699  0.4122
  958TIP3    H224366   3.389   1.432  13.704  0.9212 -0.9741  0.0998
  959TIP3   OH224367   4.127   5.137  13.160  0.3276  0.3279 -0.3347
  959TIP3    H124368   4.173   5.186  13.228  0.6362 -0.6431  0.1659
  959TIP3    H224369   4.087   5.063  13.206  1.5711 -1.0472 -1.3636
  960TIP3   OH224370   5.462   3.506  12.773  0.0288  0.0065  0.4131
  960TIP3    H124371   5.473   3.590  12.818 -0.8109  0.9036 -0.9618
  960TIP3    H224372   5.526   3.508  12.702  0.7756 -1.0319  1.0312
  961TIP3   OH224373   5.901   0.550  16.080  0.0932  0.4227 -0.7849
  961TIP3    H124374   5.887   0.616  16.147 -2.1606 -1.2716  0.5802
  961TIP3    H224375   5.970   0.586  16.025 -1.4607  4.1811 -0.5704
  962TIP3   OH224376   1.936   2.101  11.916  0.2702 -0.3476 -0.3148
  962TIP3    H124377   1.972   2.052  11.991  0.5907  1.5589  0.8575
  962TIP3    H224378   1.950   2.043  11.841  0.3781 -2.1441  1.0039
  963TIP3   OH224379   4.491   6.126   1.608 -0.4508  0.2352 -0.1890
  963TIP3    H124380   4.446   6.085   1.534  0.9317  1.8393 -1.9907
  963TIP3    H224381   4.581   6.136   1.579  0.0037  1.4788  1.5072
  964TIP3   OH224382   3.533   4.772   4.331  0.1755  0.4033  0.2296
  964TIP3    H124383   3.616   4.762   4.284 -0.9071  0.9057 -1.9131
  964TIP3    H224384   3.548   4.847   4.389  0.9095  1.1709 -0.9041
  965TIP3   OH224385   4.119   5.124  12.003  0.0390  0.5622 -0.1397
  965TIP3    H124386   4.136   5.212  11.970 -0.2558  0.7507  0.2030
  965TIP3    H224387   4.194   5.103  12.057  0.2763  0.4610 -0.5053
  966TIP3   OH224388   5.798   5.585   0.995 -0.1665 -0.2612  0.0441
  966TIP3    H124389   5.809   5.573   1.089 -0.1301 -3.0172 -0.2444
  966TIP3    H224390   5.887   5.588   0.961 -0.1822  0.6596  0.0393
  967TIP3   OH224391   6.628   2.111  12.388  0.3139  0.0621  0.0190
  967TIP3    H124392   6.699   2.068  12.341 -0.1679 -1.3318  0.5231
  967TIP3    H224393   6.562   2.043  12.401 -0.2357  0.7955  1.3483
  968TIP3   OH224394   0.554   4.806  12.048 -0.2772  0.1225 -0.0551
  968TIP3    H124395   0.603   4.871  11.998  2.6045 -1.7157  0.1876
  968TIP3    H224396   0.538   4.734  11.987  0.8243 -0.9462  0.8538
  969TIP3   OH224397   6.027   1.106   3.427 -0.0958 -0.2919 -0.2894
  969TIP3    H124398   6.057   1.127   3.339  0.1071  0.8130  0.0351
  969TIP3    H224399   5.931   1.110   3.421 -0.0598  0.8357 -0.2170
  970TIP3   OH224400   6.603   1.468   1.668  0.1012 -0.2462 -0.1930
  970TIP3    H124401   6.530   1.522   1.700 -1.7353 -2.9727  0.5620
  970TIP3    H224402   6.616   1.402   1.736  0.7320 -2.1008 -2.0109
  971TIP3   OH224403   0.309   6.575  14.086  0.5164 -0.2465 -0.3693
  971TIP3    H124404   0.328   6.482  14.091  0.8316 -0.1340  1.1641
  971TIP3    H224405   0.389   6.614  14.050 -0.5698 -0.7887 -3.7020
  972TIP3   OH224406   1.166   6.183   0.245  0.1205 -0.5697 -0.2966
  972TIP3    H124407   1.256   6.194   0.215  0.0457 -1.0461 -0.7185
  972TIP3    H224408   1.116   6.249   0.197  0.1409 -0.7562 -0.5778
  973TIP3   OH224409   6.468   5.018   0.651  0.3122 -0.2603  0.0506
  973TIP3    H124410   6.410   5.094   0.659  0.5065 -0.2649  1.7034
  973TIP3    H224411   6.415   4.953   0.606 -0.9601 -0.2220  1.4175
  974TIP3   OH224412   2.540   1.744  14.359  0.2349 -0.8208  0.3520
  974TIP3    H124413   2.494   1.792  14.290 -0.5247 -1.2267  0.5576
  974TIP3    H224414   2.627   1.782  14.361 -0.2877  0.4334  0.3821
  975TIP3   OH224415   4.107   1.665   5.476 -0.2996 -0.3751 -0.1941
  975TIP3    H124416   4.070   1.674   5.388  0.5495  1.2550 -0.4088
  975TIP3    H224417   4.060   1.590   5.513 -0.8894 -0.9137 -1.9112
  976TIP3   OH224418   3.394   1.361  13.546 -0.3763 -0.3225  0.4740
  976TIP3    H124419   3.442   1.334  13.468  0.2978 -1.1970  1.1648
  976TIP3    H224420   3.303   1.338  13.527 -0.0431 -1.6791  0.4096
  977TIP3   OH224421   1.746   5.124  14.164 -0.3610  0.9369 -0.1058
  977TIP3    H124422   1.728   5.030  14.168  1.2380  0.6276  2.5055
  977TIP3    H224423   1.792   5.137  14.081  0.2822 -0.8013 -0.0571
  978TIP3   OH224424   0.603   2.448  14.342  0.4749 -0.5063  0.5248
  978TIP3    H124425   0.559   2.398  14.411  1.0580 -0.4930  0.9142
  978TIP3    H224426   0.696   2.426  14.352  0.6177 -0.1453  0.0373
  979TIP3   OH224427   6.088   4.159   6.180 -0.7608  0.0239  0.0334
  979TIP3    H124428   6.135   4.188   6.102 -1.4929  1.0699 -0.0399
  979TIP3    H224429   6.058   4.240   6.221  0.3713 -0.4460  1.9036
  980TIP3   OH224430   3.207   3.728  17.257  0.3221 -0.3241  0.2105
  980TIP3    H124431   3.132   3.728  17.317 -1.2777  0.9890 -1.6900
  980TIP3    H224432   3.246   3.815  17.267  0.5561 -0.3967 -0.0526
  981TIP3   OH224433   6.526   2.461   5.752 -0.1277  0.0331 -0.0673
  981TIP3    H124434   6.518   2.510   5.834  0.0002  0.2751 -0.2004
  981TIP3    H224435   6.436   2.437   5.729 -0.1331 -0.3615  0.3412
  982TIP3   OH224436   1.589   6.169   3.836  0.5062 -0.1072  0.8403
  982TIP3    H124437   1.647   6.160   3.761 -0.1856 -0.3883  0.3194
  982TIP3    H224438   1.510   6.210   3.800  0.4372  0.4130  1.5597
  983TIP3   OH224439   3.125   1.178  12.637  0.6756 -0.4467 -0.5020
  983TIP3    H124440   3.082   1.220  12.563 -1.7056  0.8243  1.4471
  983TIP3    H224441   3.164   1.251  12.686  0.8855 -1.0861  0.3103
  984TIP3   OH224442   2.805   4.863   2.421 -0.0865  0.0048 -0.2514
  984TIP3    H124443   2.737   4.799   2.399  1.1407 -1.3269 -0.2744
  984TIP3    H224444   2.825   4.906   2.338 -0.3808 -0.0913 -0.3753
  985TIP3   OH224445   6.534   0.901  15.987 -0.4947 -0.2916  0.1462
  985TIP3    H124446   6.574   0.969  15.932 -0.4283  1.2602  1.9917
  985TIP3    H224447   6.584   0.822  15.968  1.3903  0.8595  0.0625
  986TIP3   OH224448   5.687   3.121  15.789  0.0336  0.3187  0.0823
  986TIP3    H124449   5.736   3.139  15.869  1.4437  0.8154 -0.8591
  986TIP3    H224450   5.600   3.157  15.806 -0.2214 -1.0305  1.9767
  987TIP3   OH224451   6.428   5.826   0.703  0.2587  0.3060  0.1240
  987TIP3    H124452   6.402   5.777   0.624  0.6083  1.4473 -0.7325
  987TIP3    H224453   6.519   5.851   0.686  0.5153  0.0726  1.1516
  988TIP3   OH224454   0.394   3.070   1.783 -0.1257 -0.2579  0.0299
  988TIP3    H124455   0.464   3.115   1.830  0.2180  0.0280 -0.7268
  988TIP3    H224456   0.429   3.058   1.695 -1.6191  1.4077 -0.8753
  989TIP3   OH224457   1.607   1.915   4.687  0.2229  0.2703  0.1345
  989TIP3    H124458   1.638   1.979   4.751 -0.8181 -0.0862  1.0258
  989TIP3    H224459   1.584   1.838   4.739  0.2154 -0.3689 -0.7792
  990TIP3   OH224460   1.237   2.713   1.539 -0.1339  0.2215 -0.1240
  990TIP3    H124461   1.176   2.683   1.471  0.4685 -0.9461 -0.1832
  990TIP3    H224462   1.184   2.718   1.619 -0.3499 -0.6266 -0.2038
  991TIP3   OH224463   4.540   6.588  15.959  0.3152  0.4309  0.0206
  991TIP3    H124464   4.485   6.542  15.896  2.8793 -0.9515 -1.3569
  991TIP3    H224465   4.486   6.662  15.988 -1.3573  0.6132 -3.0932
  992TIP3   OH224466   6.085   0.907  15.724  0.1525  0.5096  0.3817
  992TIP3    H124467   6.059   0.975  15.787  0.6064  0.2701  0.8306
  992TIP3    H224468   6.180   0.916  15.717  0.2519 -0.2857  0.6809
  993TIP3   OH224469   0.725   4.960  13.247  0.9671  0.0002  0.0153
  993TIP3    H124470   0.799   4.903  13.267  0.0350 -1.2436  0.0884
  993TIP3    H224471   0.723   4.963  13.151  0.8160 -0.3947  0.0023
  994TIP3   OH224472   4.114   1.638  15.605  0.4074 -0.2977  0.3627
  994TIP3    H124473   4.065   1.678  15.533  1.1681  0.2372  0.1352
  994TIP3    H224474   4.106   1.544  15.589  1.1750 -0.1821 -0.8525
  995TIP3   OH224475   3.610   3.951   4.519  0.0973 -0.0006 -0.4919
  995TIP3    H124476   3.518   3.937   4.495 -0.4957  0.9248  1.0561
  995TIP3    H224477   3.613   4.043   4.547  2.0429  0.7356 -2.7946
  996TIP3   OH224478   2.310   6.609   3.814 -0.9270  0.0341 -0.5926
  996TIP3    H124479   2.278   6.693   3.780  0.2312  1.5214  1.7701
  996TIP3    H224480   2.284   6.609   3.906  1.3877 -0.9801  0.1315
  997TIP3   OH224481   6.570   1.912   5.353  0.2025  0.7206 -0.1957
  997TIP3    H124482   6.579   1.976   5.282  1.5838 -0.4454 -1.1317
  997TIP3    H224483   6.660   1.897   5.383  0.1516 -1.9055 -1.0858
  998TIP3   OH224484   1.211   0.410  16.373  0.7503 -0.5948 -0.0720
  998TIP3    H124485   1.157   0.419  16.295  0.1526  0.9823  0.4850
  998TIP3    H224486   1.283   0.471  16.360 -0.8165  1.8522  1.7273
  999TIP3   OH224487   3.291   4.414   2.145  0.3849 -0.4044  0.5838
  999TIP3    H124488   3.385   4.396   2.139  0.2653 -1.3532  1.2700
  999TIP3    H224489   3.250   4.329   2.134 -0.4726  0.1772 -0.9185
 1000TIP3   OH224490   4.923   5.893  16.931  0.0251  0.1650 -0.1622
 1000TIP3    H124491   4.840   5.929  16.963 -0.7267 -0.3485 -1.4844
 1000TIP3    H224492   4.954   5.956  16.866 -1.0667 -1.2328 -2.1521
 1001TIP3   OH224493   1.650   0.555  12.231  0.2670 -0.8676  0.1993
 1001TIP3    H124494   1.702   0.482  12.264  0.9116 -0.3816  0.2796
 1001TIP3    H224495   1.673   0.628  12.288 -2.7071 -1.2841  2.1587
 1002TIP3   OH224496   2.729   1.447   1.179  0.0083  0.0688  0.6933
 1002TIP3    H124497   2.683   1.526   1.208 -0.1483  0.2259  0.0374
 1002TIP3    H224498   2.776   1.417   1.256  0.4900  1.0989  0.8165
 1003TIP3   OH224499   0.505   4.222  14.428  0.1546  0.3746 -0.0112
 1003TIP3    H124500   0.410   4.222  14.438  0.1941  2.7675  0.8651
 1003TIP3    H224501   0.532   4.136  14.461 -1.5180  0.4385  1.6997
 1004TIP3   OH224502   1.024   4.802   2.271 -0.6824  0.7316 -0.1036
 1004TIP3    H124503   1.104   4.854   2.270 -0.4501  0.3848  0.2685
 1004TIP3    H224504   0.976   4.830   2.193  0.0768  0.5137 -0.6586
 1005TIP3   OH224505   6.400   2.342   6.805  0.1139  0.2324  0.2597
 1005TIP3    H124506   6.342   2.407   6.766  1.8765  2.6481  1.4311
 1005TIP3    H224507   6.477   2.342   6.749  0.7197  0.2322  1.0705
 1006TIP3   OH224508   0.648   4.246   3.119  0.0188 -0.1073 -0.0152
 1006TIP3    H124509   0.650   4.339   3.141  1.9847 -0.0952 -0.0438
 1006TIP3    H224510   0.681   4.201   3.197  1.2856 -0.5625 -0.7752
 1007TIP3   OH224511   4.192   0.262   5.358  0.2685 -0.0974  0.1518
 1007TIP3    H124512   4.237   0.279   5.441  2.6210 -0.6096 -0.9372
 1007TIP3    H224513   4.213   0.171   5.339  0.4202  0.2403 -1.3756
 1008TIP3   OH224514   4.830   1.380   2.624  0.4763  0.2522  0.0103
 1008TIP3    H124515   4.800   1.470   2.608 -0.5140 -0.0562  0.0201
 1008TIP3    H224516   4.911   1.372   2.575  0.6967  1.2265  0.1994
 1009TIP3   OH224517   4.811   2.253  16.463 -0.6976 -0.0708  0.4591
 1009TIP3    H124518   4.766   2.260  16.378 -0.0650 -0.1530  0.1102
 1009TIP3    H224519   4.758   2.190  16.512  0.4313 -2.2036 -0.8965
 1010TIP3   OH224520   0.476   1.450  11.652  0.3813 -1.1956 -0.1698
 1010TIP3    H124521   0.489   1.491  11.567 -0.7798  0.3303  0.3282
 1010TIP3    H224522   0.542   1.489  11.709 -0.7402  0.1030  0.3108
 1011TIP3   OH224523   2.893   1.491  11.167 -0.2245  0.4806  0.2735
 1011TIP3    H124524   2.970   1.547  11.155  0.8064 -1.0759 -0.8357
 1011TIP3    H224525   2.879   1.451  11.081 -1.3873 -0.3679  0.8328
 1012TIP3   OH224526   2.428   0.526  12.514  0.1460 -0.5102  0.3888
 1012TIP3    H124527   2.434   0.496  12.423 -0.8094 -2.9711  1.0517
 1012TIP3    H224528   2.462   0.453  12.565  0.1754  0.6236  2.0652
 1013TIP3   OH224529   6.068   4.274  15.430  0.3358  0.0613 -0.0013
 1013TIP3    H124530   6.080   4.250  15.521  3.2115  0.4274 -0.1991
 1013TIP3    H224531   5.981   4.242  15.408  0.1890 -1.4330  2.4151
 1014TIP3   OH224532   2.826   3.384   4.341 -0.1701 -0.7679 -0.1881
 1014TIP3    H124533   2.768   3.454   4.311  0.9283  0.0437 -0.5049
 1014TIP3    H224534   2.825   3.320   4.270 -1.5687 -1.3525  0.3157
 1015TIP3   OH224535   0.020   6.766   0.081 -0.1234  1.0453  0.2831
 1015TIP3    H124536   0.105   6.758   0.124  0.1669  1.8625 -0.1217
 1015TIP3    H224537   0.041   6.783  -0.011 -0.7327  0.1934 -0.0355
 1016TIP3   OH224538   4.877   3.565   0.700  0.4579 -0.1149  0.4778
 1016TIP3    H124539   4.933   3.521   0.764 -1.3687 -0.4086  1.9347
 1016TIP3    H224540   4.918   3.545   0.616  1.5395 -1.8314  1.3416
 1017TIP3   OH224541   6.128   6.216   0.999  0.3161  0.0712 -0.5377
 1017TIP3    H124542   6.035   6.211   0.977  0.0704 -0.5237  0.5624
 1017TIP3    H224543   6.153   6.125   1.017  0.5854  0.4447  1.1667
 1018TIP3   OH224544   1.941   6.610   5.123  0.2440 -0.1217 -0.0824
 1018TIP3    H124545   1.942   6.640   5.214 -0.4521  0.4455 -0.2563
 1018TIP3    H224546   1.898   6.681   5.075  0.4680 -0.4865 -0.8319
 1019TIP3   OH224547   1.855   6.270   3.276  0.9935 -0.5830 -0.1268
 1019TIP3    H124548   1.905   6.351   3.268  0.6510 -0.2922  0.6024
 1019TIP3    H224549   1.765   6.298   3.288  0.7035 -1.0991 -1.0088
 1020TIP3   OH224550   1.875   6.740   2.110  0.1908  0.4557 -0.6169
 1020TIP3    H124551   1.922   6.771   2.033 -0.6006 -0.0178 -1.3058
 1020TIP3    H224552   1.944   6.715   2.172  0.8418  0.1348 -1.4592
 1021TIP3   OH224553   5.411   1.490  17.274 -0.1417 -0.0501  0.1736
 1021TIP3    H124554   5.417   1.527  17.186 -1.1990  1.1401  0.5667
 1021TIP3    H224555   5.396   1.566  17.330 -0.6778 -0.9164  1.2270
 1022TIP3   OH224556   6.614   5.508   3.866  0.1334  0.0492 -0.1043
 1022TIP3    H124557   6.645   5.419   3.884  1.6628  0.2612 -1.4359
 1022TIP3    H224558   6.541   5.496   3.805  1.2008 -0.2778 -1.3644
 1023TIP3   OH224559   6.153   6.044   3.186 -0.1203  0.1294  0.1630
 1023TIP3    H124560   6.059   6.040   3.206  0.1148 -0.1579  1.2494
 1023TIP3    H224561   6.195   6.057   3.271  0.7509  1.6160 -0.4632
 1024TIP3   OH224562   2.490   4.264  17.176 -0.3275  0.3710 -0.2271
 1024TIP3    H124563   2.499   4.280  17.082  0.9482 -1.9155 -0.5693
 1024TIP3    H224564   2.576   4.233  17.204 -0.9761 -0.0260  1.4600
 1025TIP3   OH224565   4.574   3.820   1.460  0.0743 -0.0989 -0.1289
 1025TIP3    H124566   4.514   3.748   1.482  1.9855 -1.6589  0.2699
 1025TIP3    H224567   4.611   3.794   1.376  2.8131 -1.0580  1.2605
 1026TIP3   OH224568   5.041   6.272   5.303  0.2022  0.0260  0.2353
 1026TIP3    H124569   4.992   6.294   5.224  0.2503  1.8133  0.6710
 1026TIP3    H224570   5.019   6.180   5.319 -0.9938  0.0602 -0.9989
 1027TIP3   OH224571   6.710   3.987  11.665  0.3528 -0.2999  0.2436
 1027TIP3    H124572   6.786   3.979  11.608  1.0404 -1.0573  1.2303
 1027TIP3    H224573   6.719   4.073  11.705  0.6533 -0.3594  0.3044
 1028TIP3   OH224574   5.101   4.706  13.318 -0.6207  0.0438 -0.1454
 1028TIP3    H124575   5.127   4.761  13.392 -0.2564 -0.6110  0.2203
 1028TIP3    H224576   5.178   4.652  13.300 -0.4794  0.6220 -1.4074
 1029TIP3   OH224577   5.744   4.813  11.979  0.1022 -0.0532 -0.3768
 1029TIP3    H124578   5.746   4.841  12.070 -0.1262 -0.0498 -0.3745
 1029TIP3    H224579   5.819   4.857  11.939 -1.5630  2.4593 -0.9435
 1030TIP3   OH224580   4.517   5.351  13.989 -0.1313 -0.3801 -0.1514
 1030TIP3    H124581   4.577   5.424  13.978  1.6655 -1.9537 -1.5570
 1030TIP3    H224582   4.432   5.391  14.006  0.7747  2.0061 -0.9034
 1031TIP3   OH224583   1.258   4.384   5.337 -0.0694  0.3355 -0.1201
 1031TIP3    H124584   1.346   4.363   5.305  0.1695  0.5347  0.3988
 1031TIP3    H224585   1.257   4.353   5.428 -1.2269 -1.5865 -0.7286
 1032TIP3   OH224586   4.060   5.050   5.195  0.1526 -0.0970  0.0139
 1032TIP3    H124587   3.981   5.014   5.235  1.1553 -2.3910  0.0674
 1032TIP3    H224588   4.116   5.075   5.269  0.2673 -0.3108  0.0002
 1033TIP3   OH224589   6.630   3.490   6.751  0.3640  0.1103 -0.5683
 1033TIP3    H124590   6.632   3.586   6.745  2.1008  0.0641 -1.4714
 1033TIP3    H224591   6.542   3.469   6.783  0.4336  2.0768  1.1068
 1034TIP3   OH224592   1.664   5.230  12.453 -0.0012 -0.2734 -0.0795
 1034TIP3    H124593   1.588   5.284  12.475  0.8259  0.7196  0.4404
 1034TIP3    H224594   1.694   5.262  12.368  0.1195 -0.3441 -0.0643
 1035TIP3   OH224595   4.278   0.939  17.214 -0.1700 -0.0672  0.1720
 1035TIP3    H124596   4.250   1.025  17.244 -0.1080  0.3854 -1.0404
 1035TIP3    H224597   4.196   0.890  17.201 -0.3195  0.5366 -1.2537
 1036TIP3   OH224598   0.490   0.794  12.069  0.2393 -0.0757  0.4094
 1036TIP3    H124599   0.425   0.734  12.033 -0.1702 -1.5563  3.3134
 1036TIP3    H224600   0.452   0.824  12.151  2.8633 -0.4506  1.8806
 1037TIP3   OH224601   0.344   5.702  16.119 -0.1711 -0.0327  0.5685
 1037TIP3    H124602   0.362   5.767  16.051  0.7794  0.3130  1.1257
 1037TIP3    H224603   0.264   5.732  16.162  0.3797  0.9162  0.9672
 1038TIP3   OH224604   3.091   5.642  15.221 -0.0124 -0.5987  0.3968
 1038TIP3    H124605   3.162   5.581  15.243  1.0068  0.1178 -0.7897
 1038TIP3    H224606   3.076   5.627  15.127 -1.5564 -0.8426  0.6559
 1039TIP3   OH224607   3.480   4.819   6.550  1.3688  0.4017  0.6422
 1039TIP3    H124608   3.458   4.808   6.458  1.9409 -1.6178  0.6956
 1039TIP3    H224609   3.500   4.912   6.559 -0.9216  1.1155 -0.7388
 1040TIP3   OH224610   3.301   0.395  17.092  0.3835  0.0536  0.1794
 1040TIP3    H124611   3.265   0.475  17.129  1.0331  0.6037 -0.3511
 1040TIP3    H224612   3.249   0.325  17.132 -0.2912  0.7364  0.5349
 1041TIP3   OH224613   6.637   5.849  15.804 -0.0645  0.0812  0.2395
 1041TIP3    H124614   6.637   5.892  15.889 -1.2557  0.6061 -0.0059
 1041TIP3    H224615   6.603   5.761  15.821 -2.5978  0.9202  0.0192
 1042TIP3   OH224616   0.572   0.791   0.972 -0.0779 -0.1453  0.1437
 1042TIP3    H124617   0.549   0.817   0.883  0.0278  0.5978  0.3214
 1042TIP3    H224618   0.601   0.873   1.013  2.8954 -1.0094 -0.0503
 1043TIP3   OH224619   2.345   4.060  12.228 -0.2722 -0.3381  0.1287
 1043TIP3    H124620   2.256   4.078  12.258 -0.0612  1.7212 -0.3086
 1043TIP3    H224621   2.334   4.021  12.142 -0.7594 -1.4449  0.6705
 1044TIP3   OH224622   3.522   4.104   0.483  0.7746  0.3104  0.0879
 1044TIP3    H124623   3.474   4.161   0.423 -0.4613 -0.9294 -0.1525
 1044TIP3    H224624   3.609   4.142   0.488  0.6667  0.8950 -1.8799
 1045TIP3   OH224625   0.390   6.328   1.680 -0.1208 -0.4932 -0.2089
 1045TIP3    H124626   0.366   6.404   1.733 -1.2000 -1.5045  0.8211
 1045TIP3    H224627   0.353   6.346   1.593 -0.1553  0.2685 -0.0353
 1046TIP3   OH224628   0.462   1.830   6.091  0.0075  0.0813  0.1946
 1046TIP3    H124629   0.427   1.835   6.180  1.6181 -1.5868  1.0055
 1046TIP3    H224630   0.505   1.744   6.088 -2.6197 -1.3603 -3.2153
 1047TIP3   OH224631   5.714   4.429   3.660 -0.4016  0.9782  0.0968
 1047TIP3    H124632   5.678   4.448   3.574  2.7358 -2.0105 -2.1533
 1047TIP3    H224633   5.803   4.463   3.657  0.6730 -1.4753  1.0143
 1048TIP3   OH224634   1.955   4.706  11.221  0.1845  0.3644  0.4017
 1048TIP3    H124635   1.879   4.670  11.175 -0.9504  1.0264  1.7013
 1048TIP3    H224636   1.972   4.643  11.292 -1.9093  2.2584  2.7882
 1049TIP3   OH224637   6.554   3.174  13.778  0.8471 -0.0136 -0.2754
 1049TIP3    H124638   6.630   3.231  13.783 -0.0697  1.1598  1.3951
 1049TIP3    H224639   6.479   3.233  13.790 -0.3142 -1.2019 -1.2994
 1050TIP3   OH224640   5.016   0.117  16.104  0.6569  0.0574  0.3044
 1050TIP3    H124641   4.945   0.068  16.062  0.1045 -0.1932  1.4732
 1050TIP3    H224642   4.997   0.109  16.198  1.1214  1.6662  0.5629
 1051TIP3   OH224643   3.504   0.239  12.646  0.3111 -0.1826 -0.5978
 1051TIP3    H124644   3.463   0.285  12.720  0.0216  1.0014 -1.4634
 1051TIP3    H224645   3.468   0.151  12.650 -0.6328  0.2064 -0.0145
 1052TIP3   OH224646   5.942   2.367   0.669  0.4424  0.1875 -0.1474
 1052TIP3    H124647   5.856   2.409   0.677  0.7933  0.8600  0.1791
 1052TIP3    H224648   5.957   2.362   0.574 -0.0985 -0.2324 -0.2119
 1053TIP3   OH224649   6.281   6.212  12.079 -0.3005  0.5331  0.0669
 1053TIP3    H124650   6.339   6.251  12.144  0.2852 -0.3597  0.0929
 1053TIP3    H224651   6.195   6.211  12.121 -0.1620  1.0460  0.3657
 1054TIP3   OH224652   5.972   4.973   3.031  0.0814  0.1844 -0.1123
 1054TIP3    H124653   6.046   5.001   3.085  0.2123  0.4511 -0.4254
 1054TIP3    H224654   5.929   5.054   3.005  0.0496  0.0616 -0.4495
 1055TIP3   OH224655   5.393   4.482  16.529  0.2449  0.4233  0.3090
 1055TIP3    H124656   5.329   4.529  16.476 -0.4297 -0.0837  0.6634
 1055TIP3    H224657   5.406   4.399  16.484  1.1588  0.7816 -0.1150
 1056TIP3   OH224658   0.539   1.534  14.415 -0.6803  0.2398 -0.0576
 1056TIP3    H124659   0.608   1.571  14.359  0.2489 -0.6547  0.4776
 1056TIP3    H224660   0.463   1.590  14.397  0.8939  3.1244  1.4635
 1057TIP3   OH224661   1.488   5.629  16.336  0.2641 -0.4270 -0.6970
 1057TIP3    H124662   1.443   5.548  16.313 -1.7234  0.6171 -0.7079
 1057TIP3    H224663   1.576   5.619  16.299 -0.2972 -2.0870 -1.6876
 1058TIP3   OH224664   3.934   3.557   0.437 -0.2694 -0.0002 -0.3864
 1058TIP3    H124665   3.888   3.635   0.404  0.9323  2.1333  2.5813
 1058TIP3    H224666   4.027   3.576   0.422  0.0798 -0.5580  0.9781
 1059TIP3   OH224667   3.706   1.414  11.869  0.0595 -0.5908  0.4133
 1059TIP3    H124668   3.764   1.489  11.856 -2.2620  1.4584  1.0629
 1059TIP3    H224669   3.642   1.421  11.799  0.0576 -2.3048  0.2065
 1060TIP3   OH224670   0.820   1.373   1.701 -0.5127  0.2030 -0.8852
 1060TIP3    H124671   0.913   1.354   1.714 -0.4929  0.3924 -0.7573
 1060TIP3    H224672   0.792   1.414   1.783 -0.3081  1.7277 -1.5481
 1061TIP3   OH224673   5.393   2.411   3.624  0.2500 -0.0820  0.1120
 1061TIP3    H124674   5.334   2.469   3.672 -0.3620  0.0100 -0.7295
 1061TIP3    H224675   5.360   2.323   3.642  1.1237 -0.1972  1.3137
 1062TIP3   OH224676   2.801   4.668  15.945 -0.3347  0.0614  0.4750
 1062TIP3    H124677   2.747   4.643  16.020 -1.2198  1.1134  0.2234
 1062TIP3    H224678   2.804   4.764  15.950 -1.5424  0.2495 -1.5710
 1063TIP3   OH224679   3.892   2.115   4.851  0.0545  0.0024 -0.4293
 1063TIP3    H124680   3.961   2.179   4.834  0.0190  0.5581  1.3131
 1063TIP3    H224681   3.873   2.125   4.944 -0.4355 -2.0898 -0.2634
 1064TIP3   OH224682   2.540   2.543   4.106 -0.1038 -0.0586  0.0471
 1064TIP3    H124683   2.596   2.569   4.033  0.0781  1.9432  0.8378
 1064TIP3    H224684   2.562   2.451   4.121  0.0163 -0.4555 -2.2446
 1065TIP3   OH224685   4.231   2.693  15.743 -0.3378  0.5833 -0.2908
 1065TIP3    H124686   4.273   2.744  15.812 -2.0253  1.4738  0.1393
 1065TIP3    H224687   4.162   2.751  15.709 -0.0777 -0.1465 -2.1685
 1066TIP3   OH224688   1.118   2.855   4.948  0.5590 -0.0273  0.2516
 1066TIP3    H124689   1.030   2.866   4.911 -0.5962 -1.4290  2.3700
 1066TIP3    H224690   1.133   2.935   4.999  1.1750  0.8527 -1.2322
 1067TIP3   OH224691   0.929   4.347   3.234 -0.4715 -0.0901  0.0503
 1067TIP3    H124692   0.951   4.259   3.201 -2.2042 -0.6657  0.3441
 1067TIP3    H224693   1.010   4.378   3.273 -0.0724 -2.0170  0.9036
 1068TIP3   OH224694   0.623   6.348  15.700  0.1123  0.2811 -0.3703
 1068TIP3    H124695   0.581   6.432  15.720  1.0014  0.4916  0.7057
 1068TIP3    H224696   0.708   6.372  15.662 -0.0976 -0.1364 -1.1227
 1069TIP3   OH224697   0.382   4.428   2.672 -0.6063  0.1947  0.4321
 1069TIP3    H124698   0.439   4.433   2.595 -1.1682  0.0519 -0.0074
 1069TIP3    H224699   0.322   4.502   2.662 -2.6904 -1.5384 -0.9572
 1070TIP3   OH224700   5.783   1.326  16.826  0.0283 -0.0817 -0.0300
 1070TIP3    H124701   5.851   1.263  16.849  1.0191  0.6561 -0.8719
 1070TIP3    H224702   5.830   1.403  16.795 -1.1941  0.4157 -0.7410
 1071TIP3   OH224703   2.804   6.035   6.041  0.2177  0.1260  0.1221
 1071TIP3    H124704   2.826   6.050   6.133 -2.0390 -1.4857  0.9954
 1071TIP3    H224705   2.828   5.943   6.026 -0.4715  0.0560 -0.5672
 1072TIP3   OH224706   6.534   1.008  13.519 -0.0583  0.0987  0.0118
 1072TIP3    H124707   6.493   0.973  13.441 -1.2906  1.0554  0.2009
 1072TIP3    H224708   6.626   0.981  13.512 -1.1694 -4.8479  1.1469
 1073TIP3   OH224709   2.693   2.766   3.222 -0.2708  0.9680 -0.2904
 1073TIP3    H124710   2.711   2.777   3.128  0.4948  1.0954 -0.1316
 1073TIP3    H224711   2.779   2.752   3.261 -0.5496  1.2852  0.4452
 1074TIP3   OH224712   3.297   2.251   4.773 -0.3297  0.0257 -0.1168
 1074TIP3    H124713   3.324   2.175   4.825  1.4476  2.2041  2.3599
 1074TIP3    H224714   3.356   2.251   4.698 -1.4031 -1.8591 -1.0381
 1075TIP3   OH224715   1.597   4.798   1.030 -0.1171  0.7818  0.4977
 1075TIP3    H124716   1.597   4.768   1.121  0.7336  2.6051  1.1360
 1075TIP3    H224717   1.636   4.726   0.981  0.2770  0.1549  1.7101
 1076TIP3   OH224718   5.611   4.693   0.972 -0.0671 -0.1201 -0.3105
 1076TIP3    H124719   5.656   4.609   0.962 -0.6100 -0.4628  0.0722
 1076TIP3    H224720   5.528   4.671   1.014 -0.0992  0.6472  0.0471
 1077TIP3   OH224721   5.668   3.376   3.351 -0.6162 -0.1422  0.2431
 1077TIP3    H124722   5.728   3.310   3.385 -1.6839  0.5014  3.7085
 1077TIP3    H224723   5.590   3.327   3.327 -0.1796 -0.4926 -0.5216
 1078TIP3   OH224724   2.320   6.224   3.569  0.6635  0.5458  0.3148
 1078TIP3    H124725   2.235   6.263   3.546 -0.5158 -1.9266  0.1597
 1078TIP3    H224726   2.355   6.281   3.637 -2.6264 -0.0146  2.7185
 1079TIP3   OH224727   4.100   4.188   2.475 -0.0489 -0.1799 -0.2463
 1079TIP3    H124728   4.195   4.184   2.469  0.0975 -4.0351  1.9229
 1079TIP3    H224729   4.082   4.219   2.563 -0.5572 -3.2584  0.8615
 1080TIP3   OH224730   3.333   1.883   0.675  0.0419 -0.5753 -0.1104
 1080TIP3    H124731   3.292   1.829   0.742  1.0233 -0.8843  0.2590
 1080TIP3    H224732   3.293   1.969   0.685 -0.7869 -0.9653 -0.0203
 1081TIP3   OH224733   4.249   3.631   6.125 -0.3761  0.2372  0.0556
 1081TIP3    H124734   4.171   3.683   6.146 -1.2077 -1.2148  0.7455
 1081TIP3    H224735   4.258   3.571   6.199 -0.8026 -2.0967 -1.6715
 1082TIP3   OH224736   3.926   6.394   4.518  0.9818  0.0503  0.5581
 1082TIP3    H124737   3.871   6.328   4.477 -0.5386  1.7292 -0.2432
 1082TIP3    H224738   3.921   6.375   4.612  0.8398 -1.1367  0.3228
 1083TIP3   OH224739   0.704   2.798   5.293 -0.0981  0.5262 -0.1710
 1083TIP3    H124740   0.647   2.859   5.247 -1.5505 -1.0487 -0.5646
 1083TIP3    H224741   0.729   2.844   5.373 -3.4239  0.6939  0.9449
 1084TIP3   OH224742   5.969   4.759   0.178 -0.6956 -0.0403 -0.6368
 1084TIP3    H124743   5.904   4.770   0.108 -0.5498 -1.5491 -1.0478
 1084TIP3    H224744   6.051   4.743   0.131 -0.5979 -1.0775 -0.1350
 1085TIP3   OH224745   4.549   5.007   0.028 -0.2603 -0.7556  0.1616
 1085TIP3    H124746   4.472   5.062   0.015 -0.3489 -1.1351 -0.9824
 1085TIP3    H224747   4.580   5.030   0.116 -1.2826 -0.1188  0.3680
 1086TIP3   OH224748   1.727   0.741   5.219  0.3726 -0.1147 -0.4036
 1086TIP3    H124749   1.811   0.770   5.254  1.0446 -0.6515 -1.5457
 1086TIP3    H224750   1.740   0.736   5.125 -0.4687 -1.6939 -0.4712
 1087TIP3   OH224751   3.683   6.258   2.440 -0.1648 -0.4154  0.3753
 1087TIP3    H124752   3.732   6.181   2.469  1.0942  0.2621  0.0963
 1087TIP3    H224753   3.610   6.222   2.389  0.5310 -1.4313  0.0653
 1088TIP3   OH224754   2.136   4.012  15.519 -0.2808 -0.0061  0.2239
 1088TIP3    H124755   2.136   4.076  15.448  0.2829 -0.5458 -0.2780
 1088TIP3    H224756   2.085   4.053  15.589 -0.2058  0.8477 -0.2094
 1089TIP3   OH224757   1.584   4.162  13.878 -0.4986  0.2081  0.4383
 1089TIP3    H124758   1.565   4.167  13.972  0.1581 -2.7175  0.8301
 1089TIP3    H224759   1.498   4.167  13.836 -1.3527 -2.8643  1.5601
 1090TIP3   OH224760   4.358   2.271  11.105 -0.4642  0.2040 -0.3111
 1090TIP3    H124761   4.287   2.210  11.084  3.1311 -3.7446 -2.4407
 1090TIP3    H224762   4.392   2.299  11.021  2.2114 -0.3435  0.4924
 1091TIP3   OH224763   2.472   6.278  15.057  0.3535  0.3368 -0.3508
 1091TIP3    H124764   2.536   6.297  14.989  0.5152 -0.1589 -0.3409
 1091TIP3    H224765   2.482   6.350  15.120  1.6980 -0.3150  0.2190
 1092TIP3   OH224766   2.453   5.690  11.502  0.6022  0.3546 -0.2061
 1092TIP3    H124767   2.459   5.674  11.596 -0.8839 -0.2697 -0.1858
 1092TIP3    H224768   2.378   5.748  11.492  0.0603 -0.4516 -1.0700
 1093TIP3   OH224769   0.054   2.985  11.018 -0.0045 -0.1077  0.1741
 1093TIP3    H124770   0.146   2.965  11.001 -0.1486 -0.2566 -0.4812
 1093TIP3    H224771   0.035   2.945  11.102  0.7575  0.6610  0.7273
 1094TIP3   OH224772   4.260   0.954   3.514  0.0235  0.1556  0.0585
 1094TIP3    H124773   4.254   0.937   3.608  0.6577 -1.2136 -0.1364
 1094TIP3    H224774   4.237   1.047   3.506 -0.4216  0.2019  1.5136
 1095TIP3   OH224775   1.537   4.939   0.105  0.7470  0.2648  0.0368
 1095TIP3    H124776   1.620   4.907   0.071 -0.0347 -2.0999  0.1519
 1095TIP3    H224777   1.475   4.868   0.087 -0.9217  1.3510  1.2344
 1096TIP3   OH224778   4.168   0.406   1.995  0.2348  0.6505 -1.0919
 1096TIP3    H124779   4.223   0.472   1.954  2.5258 -0.6870 -0.3981
 1096TIP3    H224780   4.162   0.433   2.087  0.0486  0.5827 -1.0830
 1097TIP3   OH224781   0.688   4.429  11.660 -0.2616  0.2266 -0.4603
 1097TIP3    H124782   0.737   4.478  11.594  0.0519  1.2537  0.5030
 1097TIP3    H224783   0.755   4.395  11.719 -0.6369  0.9277  0.3873
 1098TIP3   OH224784   2.448   2.764  14.286  0.1029  0.2941  0.3992
 1098TIP3    H124785   2.360   2.727  14.288  0.1808  0.0166 -0.6806
 1098TIP3    H224786   2.436   2.857  14.304 -0.6171  0.5807 -1.3476
 1099TIP3   OH224787   0.656   2.166   0.633 -0.2597 -0.1897 -0.2650
 1099TIP3    H124788   0.584   2.114   0.597 -2.0106  1.3498  0.8363
 1099TIP3    H224789   0.614   2.228   0.692  1.8339  1.7403 -0.6564
 1100TIP3   OH224790   0.824   1.037   5.602  0.4198  0.4604  0.4793
 1100TIP3    H124791   0.815   1.121   5.647 -0.3146 -0.1430  1.5031
 1100TIP3    H224792   0.916   1.014   5.610  0.1431 -0.0902  2.5728
 1101TIP3   OH224793   4.593   5.302  13.003 -0.0908  0.2366 -0.6557
 1101TIP3    H124794   4.568   5.223  13.050  0.1938  0.2310 -0.5110
 1101TIP3    H224795   4.511   5.348  12.988 -0.1679  0.3157 -0.0171
 1102TIP3   OH224796   3.704   1.532   3.884  0.7758 -0.1463 -0.5599
 1102TIP3    H124797   3.609   1.526   3.894  0.9066 -0.6575  0.5135
 1102TIP3    H224798   3.717   1.550   3.791 -0.3446 -0.7020 -0.8455
 1103TIP3   OH224799   3.999   5.091   2.131  0.1626  0.3615 -0.0062
 1103TIP3    H124800   3.942   5.145   2.077  0.2619 -0.8108 -1.3324
 1103TIP3    H224801   3.974   5.001   2.110  1.4220 -0.1515  0.5839
 1104TIP3   OH224802   4.539   2.217  14.555  0.2553  0.6307 -0.1598
 1104TIP3    H124803   4.457   2.262  14.534  1.3212  2.7500 -0.1202
 1104TIP3    H224804   4.558   2.164  14.478 -1.0303  0.2878 -0.2584
 1105TIP3   OH224805   5.850   0.181   0.311  0.1699  0.1595 -0.5824
 1105TIP3    H124806   5.866   0.275   0.307  0.9723 -0.0119 -2.0096
 1105TIP3    H224807   5.924   0.146   0.361 -0.0807  0.2669 -0.1311
 1106TIP3   OH224808   2.166   4.866  13.728  0.2352 -0.2335 -0.0696
 1106TIP3    H124809   2.240   4.824  13.772 -0.6572  0.2246  2.0109
 1106TIP3    H224810   2.195   4.878  13.637  1.9651 -1.7587  0.2262
 1107TIP3   OH224811   6.516   2.928  11.003 -0.5512 -0.4591  0.2417
 1107TIP3    H124812   6.458   3.004  11.005 -0.7988 -0.6533  0.4741
 1107TIP3    H224813   6.475   2.865  11.062 -0.5381 -0.9144 -0.2385
 1108TIP3   OH224814   5.561   3.239  14.283 -0.4079  0.1691  0.2436
 1108TIP3    H124815   5.594   3.219  14.195 -1.3501  0.5216 -0.2075
 1108TIP3    H224816   5.472   3.202  14.283 -0.1030 -0.6011  1.3541
 1109TIP3   OH224817   3.663   0.099  11.389 -0.5044  0.4613 -0.0225
 1109TIP3    H124818   3.641   0.101  11.296 -0.4407 -2.1777 -0.1700
 1109TIP3    H224819   3.757   0.117  11.392 -0.6079  1.1093 -0.3843
 1110TIP3   OH224820   5.061   2.462   2.293  0.1016 -0.3624  0.3025
 1110TIP3    H124821   5.105   2.384   2.258  0.8075 -0.3116  1.0389
 1110TIP3    H224822   4.977   2.464   2.249  0.8700 -0.4252 -1.2280
 1111TIP3   OH224823   2.755   1.700  11.437  0.2637  0.1303  0.4984
 1111TIP3    H124824   2.730   1.608  11.430  1.3072 -0.4362  3.0909
 1111TIP3    H224825   2.851   1.699  11.432  0.3240  0.9774  1.2238
 1112TIP3   OH224826   2.441   6.388   3.771 -0.5710  0.3456 -0.1952
 1112TIP3    H124827   2.533   6.415   3.779 -0.6929  0.3864  1.5142
 1112TIP3    H224828   2.392   6.471   3.774 -0.6834  0.2941 -0.6351
 1113TIP3   OH224829   5.117   6.028   3.533 -0.1187  0.2688 -0.4482
 1113TIP3    H124830   5.057   5.955   3.518 -0.0315 -0.6072  2.7350
 1113TIP3    H224831   5.204   5.989   3.531 -0.1100  0.0513  2.0371
 1114TIP3   OH224832   6.006   2.843   3.924 -0.3827 -0.1069  0.0561
 1114TIP3    H124833   6.001   2.750   3.900 -1.3591 -0.0096 -0.1734
 1114TIP3    H224834   6.069   2.846   3.995  3.1185 -0.3567 -2.7545
 1115TIP3   OH224835   4.676   3.907   6.268  0.0376 -0.2680  0.0290
 1115TIP3    H124836   4.763   3.931   6.299  0.3067 -2.4113  1.0724
 1115TIP3    H224837   4.620   3.981   6.292  1.3253  0.5981  0.4307
 1116TIP3   OH224838   4.490   4.564   4.572  0.1702 -0.1305  0.1323
 1116TIP3    H124839   4.561   4.505   4.547 -1.7552 -2.1411 -0.9944
 1116TIP3    H224840   4.531   4.650   4.578  3.0901 -1.4704  1.6196
 1117TIP3   OH224841   4.430   2.143  13.340  0.1314  0.6251 -0.0162
 1117TIP3    H124842   4.496   2.185  13.396  0.3141  1.7531 -1.0421
 1117TIP3    H224843   4.475   2.066  13.305 -0.5664 -1.1829  2.7722
 1118TIP3   OH224844   5.515   0.812  13.927  0.2768  0.4299  0.2369
 1118TIP3    H124845   5.538   0.730  13.971  0.6894  1.9006  3.0028
 1118TIP3    H224846   5.597   0.861  13.923 -0.2129  1.2456 -0.1826
 1119TIP3   OH224847   6.098   4.317   0.850  0.3726 -0.0029  0.2525
 1119TIP3    H124848   6.053   4.296   0.932 -0.4906  1.0879  0.0650
 1119TIP3    H224849   6.188   4.289   0.865 -0.2819 -2.0355  0.7051
 1120TIP3   OH224850   4.534   1.272  13.851  0.1544  0.4874  0.2400
 1120TIP3    H124851   4.561   1.365  13.851  0.7347  0.3482  1.7511
 1120TIP3    H224852   4.509   1.255  13.760  2.7767  1.3620 -0.7515
 1121TIP3   OH224853   4.634   4.408  11.948  0.5049  0.2248  0.2246
 1121TIP3    H124854   4.552   4.456  11.955  1.8448  2.5033  1.8842
 1121TIP3    H224855   4.677   4.445  11.871  0.6706  0.2644  0.3332
 1122TIP3   OH224856   4.008   0.170  12.412  0.0044 -0.2901  0.4671
 1122TIP3    H124857   3.917   0.181  12.440 -0.2419  1.3369 -0.8577
 1122TIP3    H224858   4.046   0.113  12.479 -1.8191 -0.5285  1.3737
 1123TIP3   OH224859   1.479   3.897  14.842  0.3320 -0.5343  0.2610
 1123TIP3    H124860   1.569   3.864  14.841 -0.0453 -1.5646 -0.1518
 1123TIP3    H224861   1.489   3.990  14.863  1.3568 -1.0546  2.3270
 1124TIP3   OH224862   2.894   5.141   5.108 -0.3067  0.1040  0.2249
 1124TIP3    H124863   2.814   5.089   5.106 -0.6711  0.5411  1.8397
 1124TIP3    H224864   2.893   5.183   5.194  1.1489  0.9296 -0.1275
 1125TIP3   OH224865   6.314   6.224  14.402  0.2448 -0.7050 -0.0411
 1125TIP3    H124866   6.260   6.284  14.453  0.9075 -0.0693 -0.0681
 1125TIP3    H224867   6.390   6.276  14.377  2.4341 -2.3942  2.6206
 1126TIP3   OH224868   5.626   0.994  13.231 -0.6525  0.2242  0.5991
 1126TIP3    H124869   5.621   1.062  13.298 -1.0496 -0.1241  0.9251
 1126TIP3    H224870   5.648   0.914  13.279 -1.9402 -0.2361  0.4506
 1127TIP3   OH224871   4.889   6.611   3.865  0.3090 -0.0906  0.0439
 1127TIP3    H124872   4.846   6.614   3.780  0.4625 -1.9788 -0.1547
 1127TIP3    H224873   4.970   6.659   3.853 -0.1221  0.4885 -0.5933
 1128TIP3   OH224874   4.163   2.900  11.815 -0.2044  0.0736  0.0984
 1128TIP3    H124875   4.224   2.840  11.772 -0.6137  0.1984 -0.6742
 1128TIP3    H224876   4.078   2.881  11.775 -0.4653  0.6677  0.3619
 1129TIP3   OH224877   3.205   5.008   4.204 -0.2417  0.2213 -0.2015
 1129TIP3    H124878   3.195   4.913   4.202 -0.5665  0.2666 -0.8282
 1129TIP3    H224879   3.146   5.040   4.136 -0.6748  0.9207  0.4787
 1130TIP3   OH224880   4.708   6.164  11.607 -0.1116  0.2145 -0.3338
 1130TIP3    H124881   4.763   6.153  11.530  0.7896  1.7809  0.0421
 1130TIP3    H224882   4.680   6.256  11.603 -1.3814 -0.1153  0.3588
 1131TIP3   OH224883   1.164   5.172  14.645  0.0485  0.5007 -0.4581
 1131TIP3    H124884   1.080   5.150  14.687  0.8460 -0.6504  0.6018
 1131TIP3    H224885   1.145   5.169  14.551 -1.3362  1.3019 -0.2372
 1132TIP3   OH224886   3.422   1.722   1.277 -0.4495  0.2738  0.1079
 1132TIP3    H124887   3.490   1.757   1.218 -0.2136  1.3982  1.0189
 1132TIP3    H224888   3.340   1.747   1.235 -0.3034  2.5293  1.0098
 1133TIP3   OH224889   6.706   1.024  17.180 -0.6697 -0.1335  0.0065
 1133TIP3    H124890   6.619   1.053  17.204 -0.6061  0.2850 -0.2588
 1133TIP3    H224891   6.751   1.009  17.263 -0.3380  1.6359  0.1731
 1134TIP3   OH224892   1.234   0.816   1.969  0.5490 -0.2615  0.1378
 1134TIP3    H124893   1.250   0.734   2.017 -0.7137 -0.8560 -0.3983
 1134TIP3    H224894   1.190   0.872   2.033  2.0154  0.2833  0.7139
 1135TIP3   OH224895   4.657   3.704  17.021 -0.2408 -0.5558 -0.3614
 1135TIP3    H124896   4.619   3.713  16.934 -0.9566  0.4866  0.0391
 1135TIP3    H224897   4.720   3.633  17.013 -0.3919 -0.5544 -1.6956
 1136TIP3   OH224898   0.814   4.281  12.541 -0.8093 -0.0655  0.0984
 1136TIP3    H124899   0.898   4.239  12.559 -0.6427  0.3189  0.2225
 1136TIP3    H224900   0.837   4.370  12.514 -0.8320 -1.1255 -4.2098
 1137TIP3   OH224901   4.162   5.474  13.181 -0.3835 -0.2671  0.1976
 1137TIP3    H124902   4.204   5.433  13.104 -1.0852  1.6918 -1.3081
 1137TIP3    H224903   4.227   5.536  13.213 -0.9289  0.5390 -0.2267
 1138TIP3   OH224904   0.770   2.258   5.579  0.4390 -0.3134  0.2276
 1138TIP3    H124905   0.739   2.206   5.505 -0.2615  1.0840 -0.4913
 1138TIP3    H224906   0.784   2.346   5.543 -0.2727  0.5020  1.8192
 1139TIP3   OH224907   3.599   3.364  15.376 -0.3988 -0.1227 -0.6366
 1139TIP3    H124908   3.597   3.330  15.466 -0.5709  0.0744 -0.5636
 1139TIP3    H224909   3.686   3.341  15.344 -0.3679 -0.2761 -0.4510
 1140TIP3   OH224910   1.211   2.959  15.497  0.1531 -0.1041 -0.0439
 1140TIP3    H124911   1.213   2.908  15.578  2.8267 -1.2766 -0.7236
 1140TIP3    H224912   1.118   2.969  15.477 -0.5507 -0.8157  2.4975
 1141TIP3   OH224913   4.309   0.925  14.605  0.1877  0.0970  0.0533
 1141TIP3    H124914   4.376   0.969  14.658  0.3820 -0.2716  0.1188
 1141TIP3    H224915   4.354   0.903  14.524  1.2060 -3.2004  1.3445
 1142TIP3   OH224916   2.241   4.131   4.992 -0.4113 -0.0600 -0.0564
 1142TIP3    H124917   2.172   4.131   5.059 -0.7668  0.9048 -0.4022
 1142TIP3    H224918   2.307   4.193   5.025  0.4537 -1.1965  0.4162
 1143TIP3   OH224919   0.075   2.730   3.835 -0.1147  0.0851  0.3856
 1143TIP3    H124920   0.012   2.666   3.802  0.0140  0.9816 -1.7491
 1143TIP3    H224921   0.024   2.810   3.845  0.4482  0.5273 -0.2722
 1144TIP3   OH224922   6.104   2.377   2.836  0.0601  0.0446  0.6452
 1144TIP3    H124923   6.183   2.416   2.799 -0.4014 -0.7036 -1.2792
 1144TIP3    H224924   6.045   2.451   2.851  0.0816  0.3419 -0.6584
 1145TIP3   OH224925   6.492   0.936  11.662 -0.3757 -0.0778  0.1137
 1145TIP3    H124926   6.468   0.844  11.669  1.2348 -0.5903 -0.6319
 1145TIP3    H224927   6.557   0.949  11.731  4.2005 -1.2721 -3.4456
 1146TIP3   OH224928   1.986   0.904   3.463 -0.1588 -0.2603 -0.4423
 1146TIP3    H124929   1.910   0.905   3.522 -1.3715  2.9143 -1.8340
 1146TIP3    H224930   2.037   0.828   3.491 -1.8192 -0.2500  3.1719
 1147TIP3   OH224931   0.574   2.899   4.980  0.0873  0.8955  0.1227
 1147TIP3    H124932   0.649   2.839   4.974  0.7159  1.6636  0.1057
 1147TIP3    H224933   0.560   2.910   5.074 -0.2034  0.5099  0.1247
 1148TIP3   OH224934   1.421   5.117   4.217  0.2812  0.3209 -0.1126
 1148TIP3    H124935   1.345   5.174   4.203 -1.2055 -2.1598 -3.8533
 1148TIP3    H224936   1.491   5.158   4.166  0.4743  0.8375  0.5486
 1149TIP3   OH224937   6.733   3.016  16.119  0.1290  0.0085  0.3393
 1149TIP3    H124938   6.745   3.044  16.209 -0.8006  0.7696  0.2444
 1149TIP3    H224939   6.724   3.098  16.069 -0.7497 -0.4225 -0.2326
 1150TIP3   OH224940   3.909   1.964   1.512  0.3061 -0.0521 -0.8350
 1150TIP3    H124941   3.982   2.021   1.485  0.6320  0.4252  0.9591
 1150TIP3    H224942   3.886   1.916   1.432  0.9486  1.5710 -2.0564
 1151TIP3   OH224943   1.136   3.602   0.791 -0.1205  0.0030  0.0714
 1151TIP3    H124944   1.085   3.524   0.812 -0.3429  0.0722 -0.2035
 1151TIP3    H224945   1.187   3.578   0.714 -1.7742  0.7830 -1.3347
 1152TIP3   OH224946   3.572   3.364  17.067  0.1793 -0.0456  0.1431
 1152TIP3    H124947   3.570   3.326  17.154  0.9584 -0.2010  0.1015
 1152TIP3    H224948   3.525   3.447  17.075  1.9826  0.9290  1.2028
 1153TIP3   OH224949   2.928   2.126   2.736  0.4221  0.3568  0.1403
 1153TIP3    H124950   2.869   2.053   2.715 -0.0560  0.2381  1.7598
 1153TIP3    H224951   2.949   2.165   2.651 -2.1646  0.5231 -0.5100
 1154TIP3   OH224952   1.591   3.948  15.873 -0.3548 -0.4310 -0.4729
 1154TIP3    H124953   1.515   3.926  15.926  0.0751 -1.3571 -0.2301
 1154TIP3    H224954   1.600   4.043  15.882 -0.6437 -0.4991  0.6197
 1155TIP3   OH224955   4.189   3.898   4.195  0.3651 -0.4639 -0.2079
 1155TIP3    H124956   4.141   3.836   4.250  0.2359 -0.0182  0.1885
 1155TIP3    H224957   4.121   3.952   4.155  0.5430  2.1463  2.6614
 1156TIP3   OH224958   0.574   4.947  15.109  0.3106 -0.5854  0.2272
 1156TIP3    H124959   0.593   4.970  15.200 -0.3502 -0.3787  0.3183
 1156TIP3    H224960   0.480   4.928  15.108  0.6489 -2.4248 -0.0326
 1157TIP3   OH224961   6.396   5.716  17.054  0.2260 -0.2665 -0.2962
 1157TIP3    H124962   6.468   5.680  17.106 -0.4538 -1.3623 -0.0797
 1157TIP3    H224963   6.361   5.787  17.108  0.9982  0.1269 -0.3077
 1158TIP3   OH224964   5.823   5.139  16.981  0.6302  0.2310  0.3515
 1158TIP3    H124965   5.913   5.106  16.971  0.2619 -0.4534 -1.0866
 1158TIP3    H224966   5.833   5.232  17.001  1.6719 -0.2975  2.5231
 1159TIP3   OH224967   2.299   2.025  16.684  0.1539  0.1757 -0.2013
 1159TIP3    H124968   2.232   2.030  16.616 -0.8042  1.1718  0.7823
 1159TIP3    H224969   2.366   2.088  16.655  1.1367 -1.4381 -1.6198
 1160TIP3   OH224970   2.914   0.839  13.791 -0.2405 -0.4037  0.2040
 1160TIP3    H124971   2.842   0.790  13.830  0.1187 -0.1321  1.2476
 1160TIP3    H224972   2.928   0.912  13.851  1.0904 -0.6087  0.1699
 1161TIP3   OH224973   4.589   0.018  12.067  0.2630  0.0174  0.5363
 1161TIP3    H124974   4.540   0.010  12.149 -0.1687 -2.3562  0.1421
 1161TIP3    H224975   4.615  -0.072  12.047 -1.0216  0.2365 -2.7229
 1162TIP3   OH224976   1.232   4.674  12.313  0.1245  0.0511  0.3816
 1162TIP3    H124977   1.185   4.634  12.240 -0.5906  1.7254 -0.1488
 1162TIP3    H224978   1.325   4.664  12.291 -0.0727 -0.0894 -0.4244
 1163TIP3   OH224979   1.324   2.930  14.048 -0.1037 -0.3115 -0.2750
 1163TIP3    H124980   1.387   2.991  14.008  1.1735 -1.5845 -0.2694
 1163TIP3    H224981   1.244   2.982  14.056  1.5603  2.2338  2.0393
 1164TIP3   OH224982   6.755   4.018  15.172 -0.1047  0.5121 -0.3132
 1164TIP3    H124983   6.833   4.052  15.128 -0.1452 -0.4942 -1.2216
 1164TIP3    H224984   6.713   3.962  15.106  0.6600 -2.3419  1.4213
 1165TIP3   OH224985   2.851   3.208   0.624  0.0163  0.6631  0.6116
 1165TIP3    H124986   2.905   3.133   0.652 -1.6347 -0.3057  1.3569
 1165TIP3    H224987   2.810   3.240   0.705 -0.3816  1.4951  0.0972
 1166TIP3   OH224988   3.217   6.167  15.988  0.3903 -0.2560  0.5102
 1166TIP3    H124989   3.231   6.072  15.980 -2.7900 -0.8242  0.4265
 1166TIP3    H224990   3.305   6.203  16.003  1.9101 -3.0278 -0.9363
 1167TIP3   OH224991   4.765   5.031   4.778 -0.2514  0.0883  0.3760
 1167TIP3    H124992   4.760   5.093   4.705 -0.0778 -1.6078 -1.1543
 1167TIP3    H224993   4.853   4.994   4.772 -0.5647 -0.7656  0.8512
 1168TIP3   OH224994   1.617   0.231   1.822 -0.5182  0.5753  0.0918
 1168TIP3    H124995   1.542   0.187   1.780 -0.5687  0.3504  0.4157
 1168TIP3    H224996   1.690   0.171   1.808 -0.7070  0.1062  1.0303
 1169TIP3   OH224997   0.994   3.626  12.117  0.0310  0.2669 -0.7989
 1169TIP3    H124998   1.035   3.628  12.030 -0.6101 -2.2200 -1.2336
 1169TIP3    H224999   1.063   3.652  12.177  0.8849  0.6761 -1.9215
 1170TIP3   OH225000   2.460   3.508  11.622 -0.1716 -0.3813 -0.0879
 1170TIP3    H125001   2.414   3.431  11.590 -0.5234 -0.4705  0.6235
 1170TIP3    H225002   2.550   3.497  11.591 -0.4707 -0.5303 -0.9240
 1171TIP3   OH225003   1.331   0.704   5.769 -0.1619 -0.3633  0.0429
 1171TIP3    H125004   1.356   0.612   5.773 -0.1069 -0.3562 -0.1160
 1171TIP3    H225005   1.408   0.752   5.797 -0.1529 -0.3609  0.0141
 1172TIP3   OH225006   2.593   3.249   5.389  0.2117 -0.0120 -0.1708
 1172TIP3    H125007   2.508   3.266   5.431 -0.2229 -1.0980 -0.5706
 1172TIP3    H225008   2.571   3.207   5.306  1.0881  1.5838 -1.2612
 1173TIP3   OH225009   4.554   1.298  11.751 -0.0882 -0.0658 -0.1308
 1173TIP3    H125010   4.531   1.269  11.662  1.0030  1.2470 -0.8936
 1173TIP3    H225011   4.578   1.390  11.739  1.9856 -0.3942  1.1990
 1174TIP3   OH225012   3.812   4.177  11.554 -0.4576 -0.3470  0.4152
 1174TIP3    H125013   3.758   4.107  11.591  0.3220 -1.1483  0.0593
 1174TIP3    H225014   3.767   4.203  11.474  0.8455 -2.6388 -1.1579
 1175TIP3   OH225015   5.243   3.771  14.365 -0.1614  0.0697  0.1111
 1175TIP3    H125016   5.159   3.765  14.319 -0.5476 -0.1744  0.8272
 1175TIP3    H225017   5.231   3.716  14.443  0.8989 -0.5144 -0.1270
 1176TIP3   OH225018   6.440   3.321  15.789  0.0392 -0.1305 -0.0590
 1176TIP3    H125019   6.355   3.350  15.822 -0.0578 -0.1860 -0.2645
 1176TIP3    H225020   6.479   3.273  15.863 -0.1181 -0.1302  0.0247
 1177TIP3   OH225021   1.860   4.091  12.732  0.8692 -0.3804  0.2086
 1177TIP3    H125022   1.881   4.096  12.825  1.5925  1.0865 -0.0040
 1177TIP3    H225023   1.823   4.004  12.720  0.6488 -0.5425  1.8905
 1178TIP3   OH225024   6.196   3.409  15.853 -0.3273 -0.0586  0.2930
 1178TIP3    H125025   6.125   3.362  15.809 -0.3087 -0.1475  0.3586
 1178TIP3    H225026   6.151   3.464  15.918 -0.4572  0.9730 -0.6403
 1179TIP3   OH225027   6.335   5.099  16.110 -0.1789 -0.4008  0.7488
 1179TIP3    H125028   6.332   5.006  16.133  2.0800 -0.4773  0.9442
 1179TIP3    H225029   6.354   5.143  16.193 -0.0301  0.1028  0.4510
 1180TIP3   OH225030   5.447   3.560  14.540 -0.3420 -0.2777  0.1956
 1180TIP3    H125031   5.460   3.471  14.575  0.4117 -0.0841  0.4158
 1180TIP3    H225032   5.403   3.546  14.456 -1.7898 -0.7739  0.9906
 1181TIP3   OH225033   5.098   4.084   3.398  0.4585  0.0886  0.3454
 1181TIP3    H125034   5.183   4.102   3.438  0.0381  1.3635  0.7067
 1181TIP3    H225035   5.117   4.023   3.326  1.7713  0.8809 -0.0042
 1182TIP3   OH225036   1.016   3.059  17.318 -0.6061 -0.1022 -0.1605
 1182TIP3    H125037   1.088   3.027  17.263  0.5038 -0.6710  1.5523
 1182TIP3    H225038   1.046   3.145  17.348  0.1329 -0.9851  1.8121
 1183TIP3   OH225039   3.638   1.244   5.261  0.2064  0.3035 -0.4296
 1183TIP3    H125040   3.659   1.306   5.191 -0.5212  0.7158 -0.2869
 1183TIP3    H225041   3.692   1.273   5.335  1.4409 -0.4977 -0.9744
 1184TIP3   OH225042   2.761   4.862   4.549  0.4533 -0.1750  0.1380
 1184TIP3    H125043   2.796   4.882   4.462 -0.8170  0.0490 -0.3463
 1184TIP3    H225044   2.791   4.774   4.568 -0.4399 -0.7926 -1.1756
 1185TIP3   OH225045   1.958   2.564   4.672 -0.0819 -0.0103  0.4922
 1185TIP3    H125046   2.011   2.486   4.693 -1.1897 -1.6421 -2.2393
 1185TIP3    H225047   1.920   2.590   4.755 -0.6802 -3.2276  1.3494
 1186TIP3   OH225048   6.528   6.162   4.258  0.3116 -0.2434  0.0356
 1186TIP3    H125049   6.571   6.099   4.316  1.4035  0.0408 -0.4305
 1186TIP3    H225050   6.596   6.226   4.237 -0.7954  1.1660  0.5614
 1187TIP3   OH225051   0.359   6.035   4.618 -0.6336 -0.3304 -0.2828
 1187TIP3    H125052   0.317   6.046   4.703 -1.0664  0.2715 -0.5680
 1187TIP3    H225053   0.326   6.108   4.566  0.1695 -0.2991 -0.7516
 1188TIP3   OH225054   5.460   5.414  15.866  0.2971 -0.7321 -0.4225
 1188TIP3    H125055   5.499   5.440  15.783 -0.0985  0.3036 -0.2969
 1188TIP3    H225056   5.498   5.328  15.884  3.1218  0.5004  0.0575
 1189TIP3   OH225057   2.214   0.757   3.236  0.5078 -0.6042 -0.0996
 1189TIP3    H125058   2.279   0.687   3.226 -0.1348 -1.1351 -0.6625
 1189TIP3    H225059   2.130   0.713   3.226  0.0976  0.2902 -0.7110
 1190TIP3   OH225060   1.973   1.861   5.854 -0.5687  2.0478  0.0873
 1190TIP3    H125061   1.889   1.867   5.898 -0.9280  0.7372 -0.3767
 1190TIP3    H225062   2.033   1.911   5.909 -1.2404  1.3677  1.4610
 1191TIP3   OH225063   6.117   4.588  13.527  0.0679  0.3585 -0.4909
 1191TIP3    H125064   6.082   4.512  13.573  1.1404  0.4390  0.5120
 1191TIP3    H225065   6.181   4.552  13.466 -0.2215  0.3689 -0.7991
 1192TIP3   OH225066   2.984   4.583   6.526  0.4476  0.3112 -0.1657
 1192TIP3    H125067   2.955   4.494   6.546 -1.0918  0.6923 -0.5770
 1192TIP3    H225068   2.907   4.626   6.491  1.1997  1.7917 -0.0785
 1193TIP3   OH225069   4.931   2.812  13.744  0.5007 -0.3801 -0.0780
 1193TIP3    H125070   4.896   2.899  13.760  0.6596 -0.2622 -0.3531
 1193TIP3    H225071   4.877   2.777  13.673  0.4392 -0.5009  0.0296
 1194TIP3   OH225072   1.727   3.237  16.448 -0.2922  0.1640  0.1284
 1194TIP3    H125073   1.738   3.332  16.454  0.3721  0.0102  1.7915
 1194TIP3    H225074   1.677   3.214  16.526 -0.3134 -0.8787 -0.1810
 1195TIP3   OH225075   6.753   1.176   4.072 -0.1403  0.2601 -0.0727
 1195TIP3    H125076   6.732   1.260   4.114  2.2189  2.8070 -3.4763
 1195TIP3    H225077   6.793   1.124   4.142 -2.1705  1.6735  2.2973
 1196TIP3   OH225078   2.257   1.292   0.167  0.2755 -0.0036  0.1818
 1196TIP3    H125079   2.187   1.316   0.227  1.4142 -0.2384  1.6446
 1196TIP3    H225080   2.335   1.283   0.222  1.2831 -0.5980 -1.2688
 1197TIP3   OH225081   0.900   2.039  13.343  0.6191  0.3416 -0.7870
 1197TIP3    H125082   0.984   2.078  13.319  1.0593 -0.8821 -1.2490
 1197TIP3    H225083   0.848   2.042  13.263  0.0018  1.5618 -0.3808
 1198TIP3   OH225084   5.811   4.825   3.755  0.0165 -0.2931  0.3540
 1198TIP3    H125085   5.805   4.821   3.851  0.4318 -1.1392  0.3583
 1198TIP3    H225086   5.720   4.817   3.725 -0.1325  0.1564  0.6828
 1199TIP3   OH225087   3.768   0.285  12.784 -0.2858 -0.0049  0.2009
 1199TIP3    H125088   3.824   0.208  12.780 -1.4292 -0.8812  0.3768
 1199TIP3    H225089   3.716   0.281  12.704 -0.6924  0.3076  0.4445
 1200TIP3   OH225090   1.747   3.137   1.063 -1.1562 -0.3438  0.0137
 1200TIP3    H125091   1.825   3.092   1.096 -2.0626 -1.9439  0.0826
 1200TIP3    H225092   1.780   3.222   1.033  0.3153 -0.2914  1.5927
 1201TIP3   OH225093   0.104   4.815  14.802  0.4679 -0.2946  0.6389
 1201TIP3    H125094   0.042   4.888  14.807  0.2283 -0.5969  3.9532
 1201TIP3    H225095   0.106   4.793  14.709 -1.0484  2.5399 -0.1956
 1202TIP3   OH225096   4.872   4.206  14.183 -0.5821  0.2427 -0.5203
 1202TIP3    H125097   4.788   4.205  14.229 -1.1911  0.2974 -1.5998
 1202TIP3    H225098   4.851   4.235  14.095  0.7767  1.6021 -0.4429
 1203TIP3   OH225099   3.719   2.170  16.561 -0.1305 -0.5273 -0.5702
 1203TIP3    H125100   3.648   2.219  16.603 -0.2111  0.8664 -2.2290
 1203TIP3    H225101   3.717   2.199  16.470  3.5163  0.7869 -0.4014
 1204TIP3   OH225102   6.548   2.571   0.458 -0.3700 -0.0347  0.2047
 1204TIP3    H125103   6.493   2.634   0.505 -1.2798 -0.3861 -0.3492
 1204TIP3    H225104   6.497   2.550   0.379  0.9620  0.2991 -0.7811
 1205TIP3   OH225105   4.491   3.168  11.843 -0.3748 -0.0447  0.1220
 1205TIP3    H125106   4.439   3.197  11.918 -2.0534 -0.3229 -0.8807
 1205TIP3    H225107   4.442   3.199  11.767  1.0757 -0.1275 -0.8634
 1206TIP3   OH225108   3.970   6.615  11.398  0.8011 -0.0528  0.6309
 1206TIP3    H125109   3.911   6.687  11.420  1.9618  0.7690  1.1660
 1206TIP3    H225110   3.915   6.553  11.350  0.1163  1.9031 -1.2528
 1207TIP3   OH225111   3.818   2.353   1.824  0.4135  0.0072  0.0458
 1207TIP3    H125112   3.775   2.355   1.910 -2.5369 -0.6891 -1.2719
 1207TIP3    H225113   3.908   2.380   1.841  0.3290 -1.4214  3.5393
 1208TIP3   OH225114   5.644   3.214   0.061  0.2006 -0.3634 -0.6751
 1208TIP3    H125115   5.571   3.157   0.084 -0.4787  1.2659  1.5691
 1208TIP3    H225116   5.703   3.158   0.010 -1.6158 -2.2909 -0.7819
 1209TIP3   OH225117   3.011   5.544  15.818 -0.1999 -0.0032 -0.1332
 1209TIP3    H125118   3.084   5.487  15.842  0.6405  0.6962 -0.9217
 1209TIP3    H225119   2.939   5.518  15.876 -0.1474 -2.4625 -1.0412
 1210TIP3   OH225120   5.488   2.328   0.933 -0.0681 -0.0974  0.2505
 1210TIP3    H125121   5.394   2.340   0.920 -0.4728 -1.4047  1.7001
 1210TIP3    H225122   5.496   2.291   1.021  1.9506  1.6734  0.9072
 1211TIP3   OH225123   1.135   6.730   6.938  0.4974  0.7791 -0.6187
 1211TIP3    H125124   1.183   6.647   6.934 -1.8028 -0.5937 -3.0547
 1211TIP3    H225125   1.201   6.797   6.923  2.2476 -0.6496  0.2851
 1212TIP3   OH225126   6.215   5.289   2.597 -0.4211 -0.3204  0.4580
 1212TIP3    H125127   6.200   5.333   2.681  0.5926  1.8228 -0.3924
 1212TIP3    H225128   6.136   5.307   2.546  0.6125  2.1004 -0.4557
 1213TIP3   OH225129   0.811   6.422   2.994 -0.6063 -0.6595  0.3646
 1213TIP3    H125130   0.800   6.327   2.992  1.1003 -0.8947  0.0895
 1213TIP3    H225131   0.794   6.446   3.086  0.6756 -1.5164  0.8608
 1214TIP3   OH225132   1.010   5.243   3.285  0.2285  0.1394 -0.1432
 1214TIP3    H125133   0.970   5.179   3.345 -2.0459  0.9554 -0.6911
 1214TIP3    H225134   1.085   5.277   3.334 -1.1142  0.2561  2.0047
 1215TIP3   OH225135   6.231   5.382  17.420  0.3821 -0.0995 -0.4113
 1215TIP3    H125136   6.288   5.307  17.433  0.2219  0.1222  2.0380
 1215TIP3    H225137   6.274   5.453  17.469  0.4922  1.4314 -2.5771
 1216TIP3   OH225138   5.757   3.405   6.601 -0.2015  0.2186  0.7801
 1216TIP3    H125139   5.851   3.415   6.587 -0.2869  0.0200 -0.0192
 1216TIP3    H225140   5.725   3.494   6.613 -0.2261  0.5408 -1.2502
 1217TIP3   OH225141   1.002   2.975  15.326  0.1329  0.2024  0.1712
 1217TIP3    H125142   1.000   2.964  15.231  3.1472 -1.7648  0.1862
 1217TIP3    H225143   0.922   2.933  15.357  0.0068 -0.8266 -1.4297
 1218TIP3   OH225144   5.491   6.581   5.334  0.0057 -0.3138  0.3514
 1218TIP3    H125145   5.408   6.545   5.367 -0.2341  1.3291  1.7116
 1218TIP3    H225146   5.473   6.602   5.243 -1.9581  2.2136  1.1879
 1219TIP3   OH225147   6.600   1.598  13.604 -0.5162 -0.0106 -0.1301
 1219TIP3    H125148   6.583   1.505  13.589 -0.2764 -0.0420 -0.2212
 1219TIP3    H225149   6.650   1.601  13.686 -1.6802  0.1494  0.5894
 1220TIP3   OH225150   3.743   5.424  11.505  0.6955 -0.1942  0.4074
 1220TIP3    H125151   3.734   5.500  11.448  1.3853 -0.7214 -0.4296
 1220TIP3    H225152   3.674   5.364  11.477  1.4579 -0.7374 -0.3552
 1221TIP3   OH225153   4.131   5.596  14.221  0.2237 -0.0271  0.4068
 1221TIP3    H125154   4.053   5.615  14.170  1.9105  3.1667 -1.2869
 1221TIP3    H225155   4.193   5.558  14.158  0.5250 -1.3289  1.4322
 1222TIP3   OH225156   6.443   2.831   3.127 -0.0715  0.5643  0.1259
 1222TIP3    H125157   6.435   2.890   3.052 -0.9650 -0.0893 -0.3111
 1222TIP3    H225158   6.535   2.805   3.128 -0.3195 -0.6045 -1.6944
 1223TIP3   OH225159   0.477   0.618   3.299 -0.3177 -0.0552  0.3104
 1223TIP3    H125160   0.540   0.690   3.304  0.2583 -0.4345 -1.1906
 1223TIP3    H225161   0.425   0.627   3.379  0.9810  0.8679  1.0886
 1224TIP3   OH225162   3.432   3.473  12.774  0.4908 -0.2485 -0.2356
 1224TIP3    H125163   3.354   3.499  12.823  0.6206 -3.9346  2.2878
 1224TIP3    H225164   3.401   3.464  12.684 -1.5673  0.0735  0.3695
 1225TIP3   OH225165   3.961   1.799   3.586 -0.1394 -0.7228  0.1508
 1225TIP3    H125166   3.874   1.776   3.619 -0.2554  0.5077  0.7357
 1225TIP3    H225167   4.016   1.806   3.664  0.0777  0.1480 -0.0676
 1226TIP3   OH225168   6.179   0.738  14.573 -0.4678  0.2785 -0.2568
 1226TIP3    H125169   6.095   0.693  14.558  0.9572 -4.0226  2.5480
 1226TIP3    H225170   6.228   0.724  14.492 -0.8821 -1.4654 -0.2544
 1227TIP3   OH225171   2.866   4.577  13.930 -0.0805  0.2225 -0.8248
 1227TIP3    H125172   2.874   4.571  13.835  0.8060  0.6013 -0.7900
 1227TIP3    H225173   2.872   4.487  13.960 -2.0280 -0.0744 -1.2147
 1228TIP3   OH225174   6.698   4.828   5.608 -0.2813  0.1679  0.1383
 1228TIP3    H125175   6.610   4.793   5.622  0.2101 -1.1165  0.0975
 1228TIP3    H225176   6.753   4.781   5.671  0.5831  0.1085 -0.6455
 1229TIP3   OH225177   6.015   5.741   3.626  0.3688 -0.2335 -0.0214
 1229TIP3    H125178   6.051   5.811   3.681 -0.3837 -0.4333  0.7546
 1229TIP3    H225179   5.924   5.735   3.653  0.3393 -1.2809 -0.3233
 1230TIP3   OH225180   6.106   0.302   5.389  0.2636  0.4565 -0.4114
 1230TIP3    H125181   6.131   0.380   5.339 -0.8008  0.5144 -0.8718
 1230TIP3    H225182   6.046   0.254   5.332  1.8201 -1.3512 -0.6261
 1231TIP3   OH225183   5.830   1.244   0.752 -0.4381  0.7320  0.3355
 1231TIP3    H125184   5.861   1.238   0.662  1.5713 -0.1841  1.0256
 1231TIP3    H225185   5.781   1.326   0.756 -1.8540  0.0732 -1.9260
 1232TIP3   OH225186   5.044   5.109   4.001  0.2237  0.0194  0.3513
 1232TIP3    H125187   5.130   5.096   4.041 -0.4325  1.5094  2.3899
 1232TIP3    H225188   4.994   5.157   4.066 -2.2185 -0.8670 -0.7656
 1233TIP3   OH225189   3.720   1.028   5.578  0.0336  0.0687  0.4146
 1233TIP3    H125190   3.651   1.060   5.637 -0.8099  1.0328 -1.0538
 1233TIP3    H225191   3.777   1.104   5.564 -0.4626  0.2140 -0.9543
 1234TIP3   OH225192   2.617   2.116   0.823 -0.2304 -0.3312  0.2374
 1234TIP3    H125193   2.672   2.161   0.759 -1.5541  0.4363 -0.4107
 1234TIP3    H225194   2.672   2.046   0.858  0.8743 -0.0792 -0.9428
 1235TIP3   OH225195   5.632   0.005  13.637 -0.0421  0.4617 -0.6833
 1235TIP3    H125196   5.694   0.013  13.710 -1.8806  1.8980  0.8203
 1235TIP3    H225197   5.686  -0.024  13.563  2.2891  1.0531  0.6757
 1236TIP3   OH225198   3.808   0.735   5.769  0.3756  0.1459 -0.3937
 1236TIP3    H125199   3.830   0.652   5.812 -0.0591  0.6478  0.8505
 1236TIP3    H225200   3.722   0.758   5.803  1.2885  2.0673  0.8678
 1237TIP3   OH225201   6.407   2.368  13.604 -0.2014 -0.1572  0.6881
 1237TIP3    H125202   6.490   2.371  13.651 -0.6180  1.1260  1.4133
 1237TIP3    H225203   6.340   2.376  13.673 -0.8274  1.8886 -0.0762
 1238TIP3   OH225204   0.277   0.916   0.901 -0.6780  0.3023  0.2313
 1238TIP3    H125205   0.309   0.940   0.988 -2.4693  0.2938  0.9413
 1238TIP3    H225206   0.315   0.982   0.842  0.9978 -0.0114  0.8962
 1239TIP3   OH225207   4.834   6.701   6.160  0.6947  0.5044 -0.4693
 1239TIP3    H125208   4.910   6.670   6.210  1.3364  2.1211 -0.3535
 1239TIP3    H225209   4.810   6.784   6.203  0.3975  1.2375 -1.9839
 1240TIP3   OH225210   2.558   2.855   3.642  0.2051  0.6281 -0.2633
 1240TIP3    H125211   2.494   2.847   3.712 -1.1963  1.0292 -1.4445
 1240TIP3    H225212   2.614   2.928   3.669  0.5718 -0.1161  1.0642
 1241TIP3   OH225213   6.425   1.007  16.832  0.1302  0.3832 -0.0904
 1241TIP3    H125214   6.462   0.974  16.750 -0.0481  1.4343 -0.6089
 1241TIP3    H225215   6.414   0.929  16.886  2.7188 -0.0427 -0.0624
 1242TIP3   OH225216   2.932   1.761  15.730  0.3486  0.5722  0.3031
 1242TIP3    H125217   2.933   1.711  15.649 -0.2087  3.2176 -1.4542
 1242TIP3    H225218   2.848   1.740  15.770  0.7402 -0.9558  0.4122
 1243TIP3   OH225219   4.580   1.970   0.539 -0.1851 -0.3728  0.3063
 1243TIP3    H125220   4.493   2.006   0.522 -0.2975 -0.1095  1.3486
 1243TIP3    H225221   4.589   1.974   0.634  2.7183  3.8864  0.1115
 1244TIP3   OH225222   2.093   3.685  16.038  0.9061  0.0825 -0.6779
 1244TIP3    H125223   2.034   3.759  16.049 -0.3082 -0.6899 -1.6307
 1244TIP3    H225224   2.098   3.673  15.943  0.3274 -1.5887 -0.5414
 1245TIP3   OH225225   3.170   2.659  16.846  0.5861  0.0874 -0.0099
 1245TIP3    H125226   3.170   2.731  16.910 -1.8400  0.1053  0.0798
 1245TIP3    H225227   3.217   2.694  16.770  1.4826  0.9039  0.8987
 1246TIP3   OH225228   2.989   2.801  16.623 -0.0489 -0.0055 -0.2613
 1246TIP3    H125229   3.062   2.800  16.561 -0.8727 -0.6381 -1.2401
 1246TIP3    H225230   2.987   2.713  16.659 -0.6667 -0.1563 -0.6513
 1247TIP3   OH225231   1.743   2.230  12.610  0.3522  0.5321 -0.3775
 1247TIP3    H125232   1.810   2.164  12.628 -1.1546 -1.0750 -0.4180
 1247TIP3    H225233   1.772   2.273  12.530  1.4419  0.0257 -0.2693
 1248TIP3   OH225234   1.361   2.946   5.741  0.7226 -0.0251 -0.3471
 1248TIP3    H125235   1.421   2.970   5.811  0.6755 -1.0764  0.0842
 1248TIP3    H225236   1.277   2.985   5.767  0.2694 -1.8026  1.1256
 1249TIP3   OH225237   1.365   6.371  12.688 -0.2314 -0.4254 -0.3126
 1249TIP3    H125238   1.389   6.462  12.702  0.6370 -0.4977 -1.2465
 1249TIP3    H225239   1.428   6.339  12.624 -1.9957 -1.0123 -1.8208
 1250TIP3   OH225240   0.610   4.753   4.290 -0.0279  0.5571 -0.0294
 1250TIP3    H125241   0.520   4.725   4.275 -0.0409  0.6966 -0.2158
 1250TIP3    H225242   0.610   4.845   4.266  0.3585  0.3536 -0.8238
 1251TIP3   OH225243   3.556   2.906   5.226 -0.7604  0.7628  0.0634
 1251TIP3    H125244   3.505   2.904   5.145 -0.7147 -0.4214  0.0380
 1251TIP3    H225245   3.629   2.846   5.209  0.1802  1.7909  0.3955
 1252TIP3   OH225246   0.225   3.093   2.721 -0.2160 -0.6380  0.4251
 1252TIP3    H125247   0.319   3.078   2.731  0.0367  1.8500  2.9634
 1252TIP3    H225248   0.216   3.136   2.636  0.9973 -0.4987  0.3526
 1253TIP3   OH225249   5.965   1.057   5.761 -0.2217 -0.2586  0.1026
 1253TIP3    H125250   5.879   1.086   5.791  0.4953 -0.2797  2.3716
 1253TIP3    H225251   6.010   1.030   5.841  2.2382  0.6102 -0.9015
 1254TIP3   OH225252   3.778   6.671   5.420 -0.5902 -0.7995  0.3231
 1254TIP3    H125253   3.705   6.724   5.390 -1.3440 -2.3311 -0.6974
 1254TIP3    H225254   3.831   6.656   5.342  0.6770  0.0069  0.9804
 1255TIP3   OH225255   0.708   3.101   3.670 -0.4697 -0.1248  0.3572
 1255TIP3    H125256   0.668   3.188   3.673  0.1302  0.2148 -0.7802
 1255TIP3    H225257   0.728   3.080   3.761 -1.2169  0.6384  0.7128
 1256TIP3   OH225258   4.809   4.316   3.666 -0.2491 -0.6868  0.5174
 1256TIP3    H125259   4.758   4.239   3.641  1.3870 -1.7189  0.1579
 1256TIP3    H225260   4.897   4.282   3.681  0.2721  0.9564  1.4690
 1257TIP3   OH225261   1.209   3.647  12.280  0.1656  0.4747  0.5810
 1257TIP3    H125262   1.279   3.598  12.321  0.8257 -0.2159 -1.2777
 1257TIP3    H225263   1.240   3.738  12.278  1.7100 -0.0419 -1.5345
 1258TIP3   OH225264   3.635   1.876   6.371  0.1110  0.0004  0.0781
 1258TIP3    H125265   3.541   1.859   6.370  0.0993  0.0851 -0.5607
 1258TIP3    H225266   3.659   1.884   6.279  0.5158  1.2031  0.2686
 1259TIP3   OH225267   0.401   3.302  12.252 -0.2483  0.2675  0.2471
 1259TIP3    H125268   0.334   3.369  12.268  0.4741  0.5307  2.6277
 1259TIP3    H225269   0.420   3.266  12.339  2.2305 -0.2398 -0.4185
 1260TIP3   OH225270   4.701   5.182   1.822 -0.7151  0.2409  0.2944
 1260TIP3    H125271   4.774   5.156   1.767 -1.0953  0.3339 -0.2647
 1260TIP3    H225272   4.737   5.184   1.911  0.0469  0.6402 -0.0171
 1261TIP3   OH225273   4.132   5.033  12.616 -0.3790 -0.4180  0.0516
 1261TIP3    H125274   4.184   5.098  12.569  1.5937 -1.2377  1.0318
 1261TIP3    H225275   4.113   5.073  12.700 -1.4461 -0.0987 -0.3196
 1262TIP3   OH225276   1.675   5.944  16.012 -0.2981 -0.5561  0.3296
 1262TIP3    H125277   1.696   6.029  15.973 -2.0351  0.6528  1.8664
 1262TIP3    H225278   1.600   5.912  15.962 -0.8646 -0.2542  0.9773
 1263TIP3   OH225279   5.754   6.478  12.966 -0.5064 -0.0041 -0.0973
 1263TIP3    H125280   5.778   6.385  12.961 -0.9986 -0.1803  0.6455
 1263TIP3    H225281   5.768   6.511  12.877 -2.1967 -1.2680 -0.8965
 1264TIP3   OH225282   4.781   5.555   1.459 -0.0531  0.3494  0.5107
 1264TIP3    H125283   4.802   5.635   1.507 -0.1745  1.5179 -1.2988
 1264TIP3    H225284   4.728   5.584   1.385 -1.0114 -1.5475  0.3824
 1265TIP3   OH225285   3.508   1.361   1.767 -0.4652 -0.1540  0.0973
 1265TIP3    H125286   3.422   1.361   1.724  0.1492 -1.0308 -1.1725
 1265TIP3    H225287   3.522   1.271   1.794  0.4988 -0.2510 -0.6600
 1266TIP3   OH225288   2.778   5.005  13.954 -0.7385  0.1378  0.2724
 1266TIP3    H125289   2.765   4.964  13.869 -2.0510  1.4403 -0.1957
 1266TIP3    H225290   2.837   5.079  13.936  0.9562 -0.9774  0.9622
 1267TIP3   OH225291   2.937   0.694   3.234  0.4503 -0.3783 -0.5115
 1267TIP3    H125292   2.901   0.782   3.244 -1.4057 -1.1711  0.4099
 1267TIP3    H225293   2.998   0.685   3.307  2.0065  0.6912 -1.6031
 1268TIP3   OH225294   3.194   0.639   4.461  0.4372  0.1426  0.1740
 1268TIP3    H125295   3.265   0.647   4.398  3.2718 -0.6124  2.9801
 1268TIP3    H225296   3.154   0.726   4.463  1.0667  0.5206 -1.7046
 1269TIP3   OH225297   6.638   5.820   1.116  0.6812  0.3792  0.0131
 1269TIP3    H125298   6.661   5.870   1.194  0.3913 -0.8611  0.9319
 1269TIP3    H225299   6.722   5.785   1.084  0.7551  0.5855 -0.0186
 1270TIP3   OH225300   0.406   6.568   0.500  0.5521  0.0200 -0.3591
 1270TIP3    H125301   0.352   6.645   0.484  3.1502  1.7093 -1.6386
 1270TIP3    H225302   0.449   6.551   0.416  2.2204 -1.0458  0.6576
 1271TIP3   OH225303   5.762   5.870   1.517  0.3499 -0.5737 -0.1096
 1271TIP3    H125304   5.703   5.909   1.582  1.3054 -1.0393  1.0868
 1271TIP3    H225305   5.832   5.933   1.507  0.4839 -0.7498 -0.2866
 1272TIP3   OH225306   5.609   1.051  11.908 -0.1488  0.1389 -0.2910
 1272TIP3    H125307   5.662   0.972  11.895  1.8810  1.6057 -1.5385
 1272TIP3    H225308   5.565   1.064  11.824 -0.3806  0.4210 -0.1283
 1273TIP3   OH225309   5.189   0.185  16.770  0.5180  0.1590 -0.0985
 1273TIP3    H125310   5.174   0.194  16.864  0.9884  1.7986 -0.1480
 1273TIP3    H225311   5.247   0.258  16.748  0.3956 -0.1847 -1.6715
 1274TIP3   OH225312   1.965   4.330  17.513  0.6119  0.6949 -0.1574
 1274TIP3    H125313   2.019   4.273  17.568  0.3717  0.2357 -0.4015
 1274TIP3    H225314   2.029   4.380  17.461  0.8075 -0.4218 -1.0334
 1275TIP3   OH225315   4.932   6.267  16.684  0.2690 -0.0813  0.2999
 1275TIP3    H125316   4.841   6.258  16.714 -0.6862  0.7405 -2.1090
 1275TIP3    H225317   4.941   6.360  16.664  1.7313 -0.1292  0.6665
 1276TIP3   OH225318   5.804   4.377  14.826  0.0212 -0.3827  0.3929
 1276TIP3    H125319   5.748   4.327  14.766 -0.4424  0.1861  0.3454
 1276TIP3    H225320   5.862   4.427  14.768 -1.2537  1.1214  0.3679
 1277TIP3   OH225321   1.853   6.058  17.162 -0.8421 -0.1513 -0.1521
 1277TIP3    H125322   1.949   6.058  17.166 -0.8853 -0.0446  2.1072
 1277TIP3    H225323   1.829   6.151  17.167 -1.1005 -0.0613 -2.0616
 1278TIP3   OH225324   3.593   3.816  11.903 -0.4978  0.1439  0.0004
 1278TIP3    H125325   3.529   3.785  11.968 -0.4690  0.5099  0.2075
 1278TIP3    H225326   3.556   3.791  11.819  0.7496 -2.8479  0.2031
 1279TIP3   OH225327   1.247   6.373   1.657 -0.0142  0.0640 -0.4371
 1279TIP3    H125328   1.191   6.295   1.658  1.0189 -0.7046  1.0319
 1279TIP3    H225329   1.298   6.365   1.577 -2.1352  0.9451 -1.9948
 1280TIP3   OH225330   3.568   3.414   3.076  0.8467  0.2582 -0.9499
 1280TIP3    H125331   3.543   3.325   3.050 -1.0348 -0.7110  3.1865
 1280TIP3    H225332   3.508   3.471   3.028 -1.4374 -1.1963 -0.0026
 1281TIP3   OH225333   5.048   5.386  13.912  0.0533  0.1172  0.2186
 1281TIP3    H125334   5.017   5.414  13.998 -1.5961  1.2580 -0.6979
 1281TIP3    H225335   5.126   5.334  13.931 -1.1459 -1.0006  2.4918
 1282TIP3   OH225336   2.626   3.632   4.542  0.7431  0.3698  0.2430
 1282TIP3    H125337   2.722   3.641   4.542  0.5695  3.4015 -0.2465
 1282TIP3    H225338   2.598   3.675   4.623 -0.2202 -0.5655  0.4211
 1283TIP3   OH225339   3.555   4.198  11.377  0.3076  0.1218 -0.3283
 1283TIP3    H125340   3.493   4.232  11.442  0.0778 -0.4553 -0.2371
 1283TIP3    H225341   3.533   4.245  11.297  0.6963  0.9549  0.0345
 1284TIP3   OH225342   2.454   4.995   2.145  0.2124 -0.0442  0.5394
 1284TIP3    H125343   2.488   5.082   2.125 -0.7673  0.0540 -0.8491
 1284TIP3    H225344   2.525   4.951   2.191  1.9962  0.3660 -1.6582
 1285TIP3   OH225345   5.349   6.155   1.241  1.0412 -0.3889  0.1331
 1285TIP3    H125346   5.424   6.111   1.281  0.7394 -0.4671  0.6144
 1285TIP3    H225347   5.343   6.117   1.154  0.4395 -1.7286  0.7333
 1286TIP3   OH225348   0.043   3.380   5.681 -0.0680  0.1820 -0.0667
 1286TIP3    H125349  -0.003   3.461   5.704 -0.4042 -0.3520  1.2156
 1286TIP3    H225350   0.045   3.329   5.762  0.4763 -0.9380 -0.7548
 1287TIP3   OH225351   0.289   3.831  15.993 -0.3582  0.3453  0.8410
 1287TIP3    H125352   0.267   3.908  16.046 -0.9611  0.1102  0.9399
 1287TIP3    H225353   0.219   3.826  15.928  0.3773  0.6339  0.0081
 1288TIP3   OH225354   4.282   4.449  14.129 -0.1569 -0.1753  0.0117
 1288TIP3    H125355   4.315   4.461  14.040  0.9193  0.5945  0.4860
 1288TIP3    H225356   4.312   4.527  14.176 -3.0635  0.8453  0.3987
 1289TIP3   OH225357   1.640   4.894   3.462 -0.4363 -0.4331  0.1251
 1289TIP3    H125358   1.640   4.958   3.391  0.3239  0.9665  1.3333
 1289TIP3    H225359   1.548   4.868   3.471 -0.5106 -0.8992 -1.5435
 1290TIP3   OH225360   3.573   1.660  15.310 -0.2713  0.1827  0.2411
 1290TIP3    H125361   3.662   1.630  15.328  0.1964  1.0253 -0.5588
 1290TIP3    H225362   3.517   1.585  15.331  0.5810 -0.2312  1.1252
 1291TIP3   OH225363   6.734   5.073   5.871 -0.1507 -0.3183 -0.4516
 1291TIP3    H125364   6.772   5.070   5.959 -0.5821 -1.2742 -0.2925
 1291TIP3    H225365   6.669   5.144   5.875  2.4422  2.3212 -1.0967
 1292TIP3   OH225366   3.595   4.422   2.184 -0.0809 -0.0057  0.0770
 1292TIP3    H125367   3.571   4.342   2.231  2.6313 -1.0420 -0.1397
 1292TIP3    H225368   3.615   4.485   2.253 -0.6766  0.0053  0.2487
 1293TIP3   OH225369   1.004   2.287   1.937 -0.0248  0.0464 -0.4349
 1293TIP3    H125370   0.934   2.236   1.898 -1.3017  1.6444 -0.3506
 1293TIP3    H225371   0.999   2.267   2.031  0.3733 -0.6762 -0.5597
 1294TIP3   OH225372   2.592   4.252   1.839  0.1581 -0.2236 -0.0302
 1294TIP3    H125373   2.609   4.281   1.750  0.8341  1.5350  0.6233
 1294TIP3    H225374   2.633   4.166   1.845  0.7824 -0.0191 -1.1890
 1295TIP3   OH225375   6.406   0.108   0.437  0.0643  0.2332 -0.2163
 1295TIP3    H125376   6.345   0.136   0.369  0.3728 -0.0804 -0.6293
 1295TIP3    H225377   6.383   0.017   0.454  1.2136 -0.2729 -1.2696
 1296TIP3   OH225378   0.039   3.537  11.830 -0.2993  0.2756 -0.3457
 1296TIP3    H125379   0.110   3.489  11.787  0.8335 -0.5933  2.2572
 1296TIP3    H225380   0.014   3.482  11.904 -0.5070  2.6360  1.4706
 1297TIP3   OH225381   0.776   4.113   0.568 -0.7305  0.0255 -0.6012
 1297TIP3    H125382   0.682   4.098   0.577 -0.8952  0.2134 -1.8259
 1297TIP3    H225383   0.798   4.175   0.638 -1.1089 -1.5296  0.9627
 1298TIP3   OH225384   4.334   4.109  14.440 -0.6389  0.2644 -0.2937
 1298TIP3    H125385   4.291   4.160  14.510 -0.4077 -0.3716  0.3296
 1298TIP3    H225386   4.390   4.048  14.487  0.0610  0.2953 -1.0745
 1299TIP3   OH225387   2.459   2.036  16.961 -0.5047  0.0546 -0.6096
 1299TIP3    H125388   2.537   2.089  16.943 -0.6641  0.1401 -1.0707
 1299TIP3    H225389   2.493   1.954  16.996 -0.2726  0.6414  0.6118
 1300TIP3   OH225390   2.862   0.305   1.741 -0.2313 -0.0127  0.1050
 1300TIP3    H125391   2.771   0.299   1.770 -0.2523  0.6883  0.2046
 1300TIP3    H225392   2.913   0.311   1.821 -0.2779  1.7680  0.0432
 1301TIP3   OH225393   1.587   5.659  11.720  0.3171  0.1323  0.2523
 1301TIP3    H125394   1.652   5.599  11.684 -0.3021 -0.0367 -0.6114
 1301TIP3    H225395   1.559   5.713  11.646 -0.3675  0.3482  0.6492
 1302TIP3   OH225396   1.629   4.047  13.589  0.2914  0.1875  0.3126
 1302TIP3    H125397   1.597   4.121  13.538 -0.9410  0.1563  1.0010
 1302TIP3    H225398   1.611   4.071  13.680  1.7569 -0.0858  0.7009
 1303TIP3   OH225399   0.561   0.589   2.373  0.5150 -0.6482  0.5588
 1303TIP3    H125400   0.536   0.617   2.285  2.1263 -0.0328  0.2578
 1303TIP3    H225401   0.543   0.495   2.374 -0.4881 -0.4799 -0.0612
 1304TIP3   OH225402   1.105   2.617   4.328 -0.3187  0.1728 -0.1675
 1304TIP3    H125403   1.161   2.684   4.287  2.5259 -1.1036  1.3381
 1304TIP3    H225404   1.146   2.534   4.304 -0.8677 -0.7754  1.9980
 1305TIP3   OH225405   2.156   6.151   2.137 -0.0063 -0.8725  0.2015
 1305TIP3    H125406   2.101   6.076   2.112 -0.6228 -1.1434  2.1341
 1305TIP3    H225407   2.244   6.126   2.111 -0.4592 -1.5035 -0.7761
 1306TIP3   OH225408   5.125   5.381  13.653 -0.0311 -0.3456 -0.3239
 1306TIP3    H125409   5.108   5.412  13.742 -0.9028  1.5066 -1.0813
 1306TIP3    H225410   5.101   5.288  13.655 -4.7746  0.6257  0.2864
 1307TIP3   OH225411   2.130   3.898   2.304 -0.5911  0.0498  0.0867
 1307TIP3    H125412   2.097   3.916   2.391  0.8486 -1.5352  1.0315
 1307TIP3    H225413   2.222   3.874   2.317 -0.8754 -2.3194 -1.5656
 1308TIP3   OH225414   4.590   1.786   4.331  0.1706  0.1726 -0.6469
 1308TIP3    H125415   4.632   1.729   4.266  0.9985 -1.0950  0.9139
 1308TIP3    H225416   4.659   1.803   4.395 -0.4418  1.9405 -0.4195
 1309TIP3   OH225417   3.886   2.744   2.691 -0.2339 -0.4750  0.0505
 1309TIP3    H125418   3.979   2.721   2.683  0.3979  0.8944  2.5246
 1309TIP3    H225419   3.847   2.669   2.736 -0.1557 -0.6788 -0.2177
 1310TIP3   OH225420   1.846   2.947   3.544 -0.0235  0.5918  0.0496
 1310TIP3    H125421   1.774   2.966   3.604  0.2876  1.6479  0.1037
 1310TIP3    H225422   1.859   2.852   3.552 -1.4243  0.3622  0.0079
 1311TIP3   OH225423   4.270   4.059  13.768 -0.4904  0.8601 -0.2722
 1311TIP3    H125424   4.271   4.101  13.682 -0.8612 -2.4681 -2.0393
 1311TIP3    H225425   4.177   4.055  13.791 -0.5312  0.1675 -0.5566
 1312TIP3   OH225426   4.241   2.167   5.819  0.2383 -0.4019 -0.3089
 1312TIP3    H125427   4.186   2.181   5.742 -0.1970  0.3341  0.1219
 1312TIP3    H225428   4.274   2.254   5.841  0.1191 -0.5524  0.5037
 1313TIP3   OH225429   2.257   0.905   4.100 -0.1864 -0.4548 -0.2308
 1313TIP3    H125430   2.298   0.838   4.154 -0.6807 -1.9104 -1.5610
 1313TIP3    H225431   2.217   0.856   4.028  0.1271  1.3372 -1.7168
 1314TIP3   OH225432   1.487   2.439  14.665 -0.2387  0.2068 -0.4385
 1314TIP3    H125433   1.534   2.430  14.747  0.7459 -0.0258 -1.0134
 1314TIP3    H225434   1.508   2.528  14.635 -1.4346  0.6760  0.0589
 1315TIP3   OH225435   0.326   0.724  12.660 -0.1996 -0.6991  0.5381
 1315TIP3    H125436   0.402   0.703  12.605  0.3164  2.3967 -0.0904
 1315TIP3    H225437   0.254   0.733  12.598 -0.4407 -0.8095  0.8019
 1316TIP3   OH225438   5.930   6.458  17.483 -0.3468 -0.0828 -0.0978
 1316TIP3    H125439   6.014   6.483  17.446  0.3542  0.0484  1.5014
 1316TIP3    H225440   5.865   6.491  17.421  0.7481  0.3110 -1.0663
 1317TIP3   OH225441   3.892   4.486  14.494  0.2996 -0.7305  0.2172
 1317TIP3    H125442   3.877   4.570  14.451  0.7099 -2.0198 -2.6427
 1317TIP3    H225443   3.971   4.452  14.453 -0.4543 -2.9968  0.5403
 1318TIP3   OH225444   3.485   0.366   5.292  0.3963  0.0710  0.3852
 1318TIP3    H125445   3.546   0.437   5.310 -2.6500  3.0009  0.0749
 1318TIP3    H225446   3.514   0.330   5.208  3.1744 -0.5573  1.4985
 1319TIP3   OH225447   6.381   1.316  12.000 -0.5428 -0.0685 -0.3244
 1319TIP3    H125448   6.435   1.276  11.932 -1.1110 -1.6124  0.0795
 1319TIP3    H225449   6.440   1.373  12.048  0.4765 -0.9088 -0.5541
 1320TIP3   OH225450   6.296   6.168  13.259  0.2289 -0.1818  0.4611
 1320TIP3    H125451   6.364   6.226  13.226 -1.0110  0.5639 -0.8500
 1320TIP3    H225452   6.311   6.165  13.354 -0.4766  3.4238  0.8355
 1321TIP3   OH225453   5.423   5.251  13.643  0.0302  0.3691  0.1532
 1321TIP3    H125454   5.437   5.193  13.568 -1.9762  1.0477 -0.8138
 1321TIP3    H225455   5.341   5.220  13.682 -1.0473  2.4232 -0.3295
 1322TIP3   OH225456   5.277   0.217   0.076  0.1333  0.1311 -0.1737
 1322TIP3    H125457   5.366   0.247   0.094 -0.0688 -0.3485  1.9533
 1322TIP3    H225458   5.225   0.297   0.076  0.3027  0.2513  0.5391
 1323TIP3   OH225459   5.391   2.658   0.294 -0.4526  0.0483  0.5412
 1323TIP3    H125460   5.363   2.694   0.209  1.9555  0.5031 -0.1422
 1323TIP3    H225461   5.325   2.689   0.356 -2.7082 -0.9074 -1.2230
 1324TIP3   OH225462   2.858   5.726   1.836  0.5102  0.2406  0.2594
 1324TIP3    H125463   2.766   5.750   1.835  0.4144  0.0920  1.8858
 1324TIP3    H225464   2.866   5.663   1.908  1.7442 -0.3672 -0.3645
 1325TIP3   OH225465   5.925   2.190  12.845 -0.1365 -0.5332  0.1308
 1325TIP3    H125466   5.865   2.145  12.787 -0.7378 -1.1440  1.2041
 1325TIP3    H225467   5.873   2.261  12.884  0.1459 -0.3787  0.2332
 1326TIP3   OH225468   2.762   2.208  15.667  0.0005 -0.0931 -0.1320
 1326TIP3    H125469   2.775   2.229  15.575  1.0065 -0.4184 -0.0728
 1326TIP3    H225470   2.809   2.126  15.680 -0.5878 -0.3333  0.5499
 1327TIP3   OH225471   4.201   2.716   5.287 -0.2317  0.0950  0.2280
 1327TIP3    H125472   4.119   2.704   5.334  0.5651 -1.4049  1.3073
 1327TIP3    H225473   4.191   2.800   5.242 -1.1239  1.4730  2.8457
 1328TIP3   OH225474   2.631   6.338   5.813  0.7322  0.1480  0.4253
 1328TIP3    H125475   2.561   6.354   5.750  1.3590 -1.6601 -0.8173
 1328TIP3    H225476   2.590   6.284   5.881  1.0382 -1.6662 -0.7493
 1329TIP3   OH225477   0.538   5.357   4.793 -0.2661 -0.6496  0.1073
 1329TIP3    H125478   0.545   5.414   4.869  0.5335 -0.9146  0.2463
 1329TIP3    H225479   0.492   5.409   4.727  0.1126  0.0151  0.3587
 1330TIP3   OH225480   4.549   6.629  15.504 -0.1138 -0.5957 -0.3360
 1330TIP3    H125481   4.513   6.715  15.482  2.4069 -0.3083 -4.2417
 1330TIP3    H225482   4.490   6.567  15.461  0.1376 -0.5477 -0.7586
 1331TIP3   OH225483   5.294   0.119   2.000 -0.0244 -0.2514  0.2065
 1331TIP3    H125484   5.380   0.079   1.993  1.5818  2.9476  0.0358
 1331TIP3    H225485   5.271   0.143   1.910 -2.0041 -2.6191 -0.0155
 1332TIP3   OH225486   6.534   2.177  17.496 -1.0421  0.0791 -0.0172
 1332TIP3    H125487   6.607   2.124  17.463 -1.3852 -0.1893 -0.3571
 1332TIP3    H225488   6.565   2.209  17.581 -0.5102  0.0094 -0.1797
 1333TIP3   OH225489   2.186   4.326  14.777 -0.2659 -0.2396  0.0549
 1333TIP3    H125490   2.241   4.283  14.843  0.4087 -0.2165 -0.4876
 1333TIP3    H225491   2.208   4.418  14.785  0.6744 -0.3648 -0.9900
 1334TIP3   OH225492   6.273   5.362   4.476 -0.0355 -0.4183  0.7014
 1334TIP3    H125493   6.233   5.299   4.417 -0.6306 -0.6269  1.3181
 1334TIP3    H225494   6.268   5.446   4.430 -0.5720 -0.5645  0.4954
 1335TIP3   OH225495   2.989   2.633  16.340  0.2718 -0.3075  0.3862
 1335TIP3    H125496   2.907   2.648  16.292 -0.3399  1.7289  1.9600
 1335TIP3    H225497   3.057   2.636  16.273 -0.9047 -2.3635 -1.0076
 1336TIP3   OH225498   1.946   0.051   3.859 -0.1674 -0.2793  0.2068
 1336TIP3    H125499   1.878   0.036   3.793  0.8196  2.6027 -1.6458
 1336TIP3    H225500   2.028   0.054   3.810  0.8452  0.0947  1.8289
 1337TIP3   OH225501   4.809   2.096   0.458 -0.4795  0.1891 -0.1777
 1337TIP3    H125502   4.742   2.043   0.501  0.9209 -0.2318  1.5655
 1337TIP3    H225503   4.761   2.174   0.428 -2.0955 -0.9462 -0.7165
 1338TIP3   OH225504   0.127   4.974   5.394 -0.0206 -0.2215 -0.4514
 1338TIP3    H125505   0.095   5.025   5.468  0.9118 -0.2835  0.0118
 1338TIP3    H225506   0.116   5.031   5.318 -0.9989 -0.1621 -0.2854
 1339TIP3   OH225507   5.598   3.445  17.181  0.0333 -0.4117 -0.5781
 1339TIP3    H125508   5.554   3.497  17.249 -0.7204  0.0624 -1.4149
 1339TIP3    H225509   5.623   3.509  17.114  1.9393 -0.6847 -0.1816
 1340TIP3   OH225510   1.201   1.652  11.825 -0.4760 -0.2234 -0.2192
 1340TIP3    H125511   1.186   1.746  11.831  0.0805 -0.1901  0.7531
 1340TIP3    H225512   1.162   1.628  11.740  3.1191  1.6276 -2.6674
 1341TIP3   OH225513   2.049   0.382   1.624 -0.2536 -0.1593 -0.0675
 1341TIP3    H125514   2.056   0.350   1.534 -0.4783 -1.1757  0.2612
 1341TIP3    H225515   2.051   0.303   1.677 -1.8411  0.2889  0.7275
 1342TIP3   OH225516   5.432   4.892   3.912 -0.3737 -0.1693 -0.1077
 1342TIP3    H125517   5.450   4.799   3.928 -0.7092 -0.0086  1.2932
 1342TIP3    H225518   5.372   4.892   3.838  0.5315 -1.0020 -0.8813
 1343TIP3   OH225519   5.375   1.720   2.979  0.0356 -0.0913 -0.0889
 1343TIP3    H125520   5.359   1.693   2.888 -1.1914 -0.0410  0.0965
 1343TIP3    H225521   5.290   1.751   3.010  0.3709 -0.4144  1.1893
 1344TIP3   OH225522   1.669   2.946  16.746  0.4612  0.4815 -0.2683
 1344TIP3    H125523   1.643   2.881  16.811 -0.7484 -0.9858 -2.1140
 1344TIP3    H225524   1.733   2.900  16.690 -1.2138  0.4280 -2.2542
 1345TIP3   OH225525   5.316   3.286  12.834  0.1064 -0.0876  0.4727
 1345TIP3    H125526   5.312   3.229  12.758 -1.2193  1.4647 -0.6792
 1345TIP3    H225527   5.366   3.362  12.805 -1.3195  1.0104  0.7527
 1346TIP3   OH225528   1.427   6.117   3.154  0.3949 -0.1571  0.1961
 1346TIP3    H125529   1.343   6.162   3.146  1.0070  1.3738  1.8053
 1346TIP3    H225530   1.473   6.135   3.072 -1.2028 -1.9378 -1.1856
 1347TIP3   OH225531   5.520   4.400  15.547 -1.1718  0.3244 -0.4290
 1347TIP3    H125532   5.554   4.482  15.584  0.4977 -2.0584  4.1235
 1347TIP3    H225533   5.587   4.372  15.485 -0.3097  1.0698  0.1447
 1348TIP3   OH225534   6.140   5.470   0.273 -0.2948  0.9066  0.4409
 1348TIP3    H125535   6.084   5.475   0.195  0.5826 -1.5621 -0.4538
 1348TIP3    H225536   6.229   5.476   0.239  0.1893 -1.9981  0.9218
 1349TIP3   OH225537   5.307   5.894  11.697  0.1426  0.1916 -0.4278
 1349TIP3    H125538   5.348   5.959  11.640 -0.0301 -0.9094 -1.8650
 1349TIP3    H225539   5.226   5.936  11.727 -0.1331  0.5397 -1.5962
 1350TIP3   OH225540   0.020   6.554  17.296  0.1675  0.1416  0.3084
 1350TIP3    H125541   0.097   6.611  17.291  0.6079 -0.4113  0.6430
 1350TIP3    H225542  -0.042   6.592  17.234  0.5935  0.7700  0.2511
 1351TIP3   OH225543   4.540   3.534   6.043 -0.1368 -0.1509  0.2768
 1351TIP3    H125544   4.565   3.478   6.117  0.7280  1.2475  1.0930
 1351TIP3    H225545   4.460   3.578   6.073  0.9227  1.3899  0.9510
 1352TIP3   OH225546   5.078   6.746   0.648  0.4880 -0.0727  0.3064
 1352TIP3    H125547   5.098   6.652   0.642 -0.0207 -0.1718  0.0784
 1352TIP3    H225548   5.105   6.781   0.563  0.0351 -0.1416  0.1322
 1353TIP3   OH225549   4.300   2.128  13.916 -0.7229  0.0331  0.4696
 1353TIP3    H125550   4.227   2.181  13.883  0.2514 -0.4711 -2.7713
 1353TIP3    H225551   4.260   2.075  13.985 -2.5996  2.1530  1.1469
 1354TIP3   OH225552   3.762   2.955  14.529  0.4113 -0.2780  0.1036
 1354TIP3    H125553   3.749   2.954  14.624 -0.2463  1.0475  0.0467
 1354TIP3    H225554   3.857   2.948  14.518  0.5144 -0.1940  0.8671
 1355TIP3   OH225555   2.931   0.496   0.552  0.2100  0.0576  0.2555
 1355TIP3    H125556   3.021   0.466   0.568  0.5748 -0.6091 -2.5446
 1355TIP3    H225557   2.937   0.591   0.559  1.0109 -0.0031  0.5929
 1356TIP3   OH225558   6.086   0.763   0.604  0.3251 -0.1277  0.1628
 1356TIP3    H125559   6.096   0.668   0.595  2.2594  0.1284 -0.9777
 1356TIP3    H225560   6.113   0.781   0.694 -0.8828 -0.7233  0.6683
 1357TIP3   OH225561   0.826   2.093   5.794 -0.0652  0.6256 -0.3536
 1357TIP3    H125562   0.813   2.161   5.728  2.9034  2.1920  0.5084
 1357TIP3    H225563   0.909   2.115   5.836  1.4045 -3.8328 -0.3491
 1358TIP3   OH225564   4.546   2.511   3.655 -0.0940 -0.1382  0.4207
 1358TIP3    H125565   4.482   2.553   3.712 -1.7088 -1.5333 -0.2679
 1358TIP3    H225566   4.627   2.561   3.667 -0.9386  0.8326  2.3651
 1359TIP3   OH225567   0.635   2.039   3.164 -0.3026  0.0152 -0.9768
 1359TIP3    H125568   0.581   2.099   3.217 -0.5286  0.6552 -1.8898
 1359TIP3    H225569   0.635   1.957   3.213 -2.0870  0.0034 -0.9101
 1360TIP3   OH225570   2.081   6.768  11.442 -0.4205 -0.5982 -0.1810
 1360TIP3    H125571   2.091   6.701  11.375 -1.6906 -2.5359  1.4627
 1360TIP3    H225572   2.026   6.835  11.401 -1.5989 -1.9753 -0.9520
 1361TIP3   OH225573   6.151   3.197  16.049  0.6426  0.3496  0.4912
 1361TIP3    H125574   6.057   3.190  16.064  0.2301  2.1048 -0.8903
 1361TIP3    H225575   6.172   3.288  16.074  2.4628 -0.6222  2.9653
 1362TIP3   OH225576   3.480   2.530   1.119  0.5873  0.1398 -0.3154
 1362TIP3    H125577   3.547   2.599   1.121  1.4080 -0.6072  2.0977
 1362TIP3    H225578   3.422   2.552   1.193 -0.9848 -0.0715 -1.4428
 1363TIP3   OH225579   0.792   2.527   1.343 -0.2279 -0.0855  0.3737
 1363TIP3    H125580   0.728   2.480   1.289  0.2004  2.4181 -2.5518
 1363TIP3    H225581   0.743   2.554   1.421 -1.6827 -1.3445 -0.0652
 1364TIP3   OH225582   1.170   0.631  11.810 -0.8398 -0.3833 -0.3530
 1364TIP3    H125583   1.124   0.551  11.783 -0.2780 -0.9147  0.2271
 1364TIP3    H225584   1.187   0.618  11.903 -0.5759  0.3383 -0.2937
 1365TIP3   OH225585   6.631   0.962  11.893 -0.1328  0.2444 -0.4627
 1365TIP3    H125586   6.570   0.944  11.964  0.2233  1.1966  0.1028
 1365TIP3    H225587   6.703   0.900  11.908 -0.0989  0.3826 -0.0380
 1366TIP3   OH225588   0.759   3.851  15.762 -0.3254 -0.6191  0.4703
 1366TIP3    H125589   0.813   3.776  15.737  0.3371  0.0318 -0.0991
 1366TIP3    H225590   0.820   3.925  15.763 -1.5450  0.5375 -2.2098
 1367TIP3   OH225591   1.706   6.473   2.747 -0.0995  0.1446  0.1709
 1367TIP3    H125592   1.720   6.429   2.831 -0.8307 -1.3346 -0.4435
 1367TIP3    H225593   1.611   6.484   2.741  0.0317  1.3260  0.0497
 1368TIP3   OH225594   5.374   1.587   6.052  0.1224  0.1300 -0.5219
 1368TIP3    H125595   5.308   1.582   5.982 -0.3852 -0.5246 -0.0041
 1368TIP3    H225596   5.379   1.497   6.086  0.9964  0.2623 -0.2925
 1369TIP3   OH225597   1.886   3.814   5.624 -0.2958 -0.0919 -0.4311
 1369TIP3    H125598   1.885   3.904   5.655 -1.5546  0.3867 -1.7254
 1369TIP3    H225599   1.795   3.784   5.634 -0.1557 -0.7860 -1.1249
 1370TIP3   OH225600   0.483   3.411  14.251 -0.0741 -0.2685  0.0101
 1370TIP3    H125601   0.471   3.485  14.192  1.0331 -0.6228 -0.6790
 1370TIP3    H225602   0.395   3.394  14.286 -0.7032  0.0881 -1.3536
 1371TIP3   OH225603   6.542   3.328   0.651  0.6819 -0.9178 -0.5474
 1371TIP3    H125604   6.606   3.278   0.702  1.2394 -0.5863 -0.9141
 1371TIP3    H225605   6.457   3.305   0.690  1.2227  1.0266  2.0039
 1372TIP3   OH225606   4.778   0.877   0.046  0.3584  0.3865 -0.0033
 1372TIP3    H125607   4.710   0.888  -0.021 -0.1362 -0.5850  0.3136
 1372TIP3    H225608   4.859   0.901   0.002  0.3113 -2.0145 -1.5666
 1373TIP3   OH225609   3.309   5.440   2.497 -0.3150 -1.1288  0.7790
 1373TIP3    H125610   3.365   5.406   2.427 -0.2045 -0.0482  0.3166
 1373TIP3    H225611   3.246   5.495   2.452 -0.7115 -1.0097  1.4672
 1374TIP3   OH225612   6.435   0.319  17.163 -0.5034 -0.1246 -0.4280
 1374TIP3    H125613   6.504   0.364  17.115 -0.1488  1.3684  1.4069
 1374TIP3    H225614   6.386   0.272  17.095  1.1916  0.2469 -1.9789
 1375TIP3   OH225615   4.828   0.759  13.323 -0.0928  0.3266 -0.0994
 1375TIP3    H125616   4.917   0.786  13.344 -0.4768  1.7879 -0.2314
 1375TIP3    H225617   4.792   0.729  13.407  0.2247  0.6459  0.1533
 1376TIP3   OH225618   4.117   2.444  16.194 -0.7430 -0.3318 -0.3366
 1376TIP3    H125619   4.079   2.483  16.115 -1.1234 -0.2557 -0.1205
 1376TIP3    H225620   4.170   2.513  16.232 -0.4972 -0.3926 -0.5664
 1377TIP3   OH225621   5.818   2.208   3.988 -0.1663 -0.4542  0.1211
 1377TIP3    H125622   5.825   2.206   4.084 -0.0098  1.3027  0.1818
 1377TIP3    H225623   5.857   2.126   3.959  0.6465 -0.5941  1.5206
 1378TIP3   OH225624   3.052   4.749   2.066 -0.0453  0.2190  0.2598
 1378TIP3    H125625   3.087   4.809   2.132  0.0546  0.6909 -0.2135
 1378TIP3    H225626   3.118   4.747   1.997  0.1172 -0.7275  0.4302
 1379TIP3   OH225627   6.471   0.806  13.930 -0.4856 -0.3041 -0.6188
 1379TIP3    H125628   6.456   0.790  13.836 -0.9843 -2.1278 -0.2714
 1379TIP3    H225629   6.388   0.843  13.961 -0.5524 -0.3050 -0.7922
 1380TIP3   OH225630   4.199   2.378  11.776 -0.3821 -0.7058  0.0287
 1380TIP3    H125631   4.284   2.420  11.767 -0.2916 -1.0398 -0.8184
 1380TIP3    H225632   4.212   2.312  11.843 -0.0909 -0.4637  0.2135
 1381TIP3   OH225633   4.902   2.253   0.663 -0.3338 -0.2101 -0.0440
 1381TIP3    H125634   4.868   2.182   0.610  1.0357 -0.6408 -0.3952
 1381TIP3    H225635   4.833   2.319   0.663 -0.8197 -0.6971 -1.4014
 1382TIP3   OH225636   1.398   3.484   1.554  0.4129  0.1607  0.2245
 1382TIP3    H125637   1.430   3.572   1.570  0.2250  0.3255 -0.2755
 1382TIP3    H225638   1.308   3.484   1.586  0.5881 -0.0073  0.7153
 1383TIP3   OH225639   6.230   2.527   5.611  0.5179  0.2700 -0.0182
 1383TIP3    H125640   6.153   2.582   5.597  0.5414  1.0439  2.4996
 1383TIP3    H225641   6.215   2.484   5.695  1.9083 -1.2194 -0.4746
 1384TIP3   OH225642   0.050   3.451  16.779  0.3129  0.5338 -0.1868
 1384TIP3    H125643   0.059   3.456  16.875  2.8144  0.1747 -0.3400
 1384TIP3    H225644   0.048   3.357  16.761 -1.4411  0.6019 -0.4250
 1385TIP3   OH225645   5.801   6.639   1.888 -0.0347 -0.5137 -0.9271
 1385TIP3    H125646   5.875   6.600   1.841 -1.2398 -0.6006 -2.9119
 1385TIP3    H225647   5.748   6.678   1.818 -1.6266 -0.0832  0.4729
 1386TIP3   OH225648   4.220   3.886  16.351 -0.0440  0.6083  0.3205
 1386TIP3    H125649   4.308   3.891  16.314 -0.1775  1.0129  0.0429
 1386TIP3    H225650   4.233   3.874  16.445  0.3004 -0.2595  0.1688
 1387TIP3   OH225651   1.798   6.211  16.890 -0.9695  0.2630  0.5751
 1387TIP3    H125652   1.869   6.157  16.857 -1.1261  0.6931 -0.4869
 1387TIP3    H225653   1.824   6.234  16.979  0.5396  0.9690 -0.0189
 1388TIP3   OH225654   6.647   4.276  12.967 -0.4512 -0.1161  0.1848
 1388TIP3    H125655   6.641   4.357  12.916 -4.0015  0.5654  1.3593
 1388TIP3    H225656   6.673   4.209  12.905  2.3150  1.8178 -0.8938
 1389TIP3   OH225657   6.755   0.337  12.366 -0.6593  0.4802 -0.7146
 1389TIP3    H125658   6.692   0.407  12.347  0.7920  1.8851 -0.6106
 1389TIP3    H225659   6.797   0.365  12.447  0.5049 -0.1006 -1.0995
 1390TIP3   OH225660   0.771   1.343   0.681 -0.4111 -0.2036  0.6792
 1390TIP3    H125661   0.780   1.364   0.588 -1.7704  0.9050  0.7564
 1390TIP3    H225662   0.790   1.249   0.686 -0.0877 -0.2408 -0.6822
 1391TIP3   OH225663   5.033   4.818  14.603 -0.3458  0.4692 -0.4688
 1391TIP3    H125664   5.099   4.867  14.652  0.4114  0.1783 -1.1852
 1391TIP3    H225665   4.952   4.834  14.651  0.7085 -1.7059  2.3464
 1392TIP3   OH225666   5.024   2.606  17.046  0.0122  0.3771  0.1746
 1392TIP3    H125667   4.984   2.530  17.004 -1.1146  0.8425  0.3617
 1392TIP3    H225668   4.963   2.678  17.029 -0.0394  0.7743  1.8488
 1393TIP3   OH225669   1.679   1.876  17.382  0.2079 -0.2437  0.6550
 1393TIP3    H125670   1.602   1.820  17.373 -0.9290  0.9695  2.1971
 1393TIP3    H225671   1.746   1.834  17.328 -1.3304 -1.6906 -0.2223
 1394TIP3   OH225672   2.074   5.061  14.994 -0.4129  0.6206  0.1057
 1394TIP3    H125673   2.126   4.995  14.948  1.6201  1.2883  1.2742
 1394TIP3    H225674   2.051   5.125  14.927 -1.2267 -0.5526 -0.7685
 1395TIP3   OH225675   5.090   4.622  16.823 -0.4067  0.4986 -0.0756
 1395TIP3    H125676   5.054   4.583  16.903  0.9729  1.4749  1.0725
 1395TIP3    H225677   5.015   4.662  16.779 -1.4411 -1.3619 -0.0853
 1396TIP3   OH225678   2.988   5.439  15.545 -0.1176 -0.3947  0.0070
 1396TIP3    H125679   2.969   5.522  15.501  2.9113  0.1738 -0.3897
 1396TIP3    H225680   2.990   5.462  15.638  0.9525  0.0396 -0.1197
 1397TIP3   OH225681   1.937   0.066   5.872  0.4123 -0.3558  0.3144
 1397TIP3    H125682   1.861   0.122   5.889 -0.6836 -1.1564 -1.6339
 1397TIP3    H225683   2.000   0.123   5.829  0.5573  0.0856  1.0889
 1398TIP3   OH225684   5.215   2.567   2.483  0.0843  0.0700  0.6514
 1398TIP3    H125685   5.169   2.560   2.399  0.1508  0.8695  0.5352
 1398TIP3    H225686   5.167   2.634   2.531  1.3994  1.2949  0.3329
 1399TIP3   OH225687   2.304   5.142  11.876  0.4686  0.0269 -0.6102
 1399TIP3    H125688   2.292   5.131  11.971 -1.2013  4.1490 -0.1314
 1399TIP3    H225689   2.366   5.214  11.867  1.2297 -0.8031 -2.7501
 1400TIP3   OH225690   4.569   0.654  15.324 -0.3089 -0.3976 -0.2167
 1400TIP3    H125691   4.488   0.605  15.313 -1.6137  1.3149  1.1535
 1400TIP3    H225692   4.595   0.678  15.235 -0.7478 -1.7997 -0.7478
 1401TIP3   OH225693   4.137   3.078   6.343 -0.3477 -0.5091 -0.1334
 1401TIP3    H125694   4.198   3.146   6.314 -0.3284 -1.0877 -1.5251
 1401TIP3    H225695   4.192   3.016   6.391 -0.2155 -0.0230  0.3693
 1402TIP3   OH225696   5.587   0.165   5.260 -0.2361 -0.2932  0.0064
 1402TIP3    H125697   5.671   0.148   5.303  0.5174 -0.7466 -1.5452
 1402TIP3    H225698   5.572   0.087   5.205 -2.0089 -0.5112  0.7325
 1403TIP3   OH225699   6.468   3.518   1.946 -0.2657  0.3620 -0.0757
 1403TIP3    H125700   6.380   3.554   1.936 -0.5377 -0.2452  0.0652
 1403TIP3    H225701   6.491   3.486   1.859 -0.8783 -1.0020  0.2338
 1404TIP3   OH225702   3.219   6.377   6.865  0.3782  0.0674 -0.3621
 1404TIP3    H125703   3.212   6.294   6.817  2.8780  0.8016 -2.1974
 1404TIP3    H225704   3.147   6.374   6.928 -0.8758 -2.5648 -1.7472
 1405TIP3   OH225705   0.033   1.265  11.539  1.0430  0.3029 -0.5259
 1405TIP3    H125706   0.027   1.186  11.592 -1.2189  1.8769  1.8142
 1405TIP3    H225707   0.117   1.304  11.564  0.8758  0.0319  0.5117
 1406TIP3   OH225708   6.657   5.474   5.508 -0.0729  0.0808 -0.4754
 1406TIP3    H125709   6.691   5.433   5.428 -0.1362 -0.2680 -0.3272
 1406TIP3    H225710   6.579   5.522   5.479 -0.7433 -0.9636 -0.4414
 1407TIP3   OH225711   5.557   1.123  13.803 -0.6604  0.2717  0.3986
 1407TIP3    H125712   5.576   1.211  13.770 -0.0273 -0.1289 -0.3571
 1407TIP3    H225713   5.502   1.137  13.879  0.6566  1.4032  1.1990
 1408TIP3   OH225714   4.272   5.844  15.748 -0.4698  0.0687  0.1017
 1408TIP3    H125715   4.215   5.904  15.700 -1.9489 -0.7213  0.8137
 1408TIP3    H225716   4.265   5.872  15.839  0.3208 -0.0259  0.1976
 1409TIP3   OH225717   3.593   5.812  11.209 -0.2574  0.3178  0.1016
 1409TIP3    H125718   3.552   5.792  11.125  0.4214  0.2122 -0.2129
 1409TIP3    H225719   3.524   5.854  11.260 -1.1688 -1.1055  0.1003
 1410TIP3   OH225720   5.325   3.339   2.993  1.2063 -0.2371 -0.3142
 1410TIP3    H125721   5.290   3.258   2.955  0.3064  0.0866 -0.2023
 1410TIP3    H225722   5.419   3.323   2.999  1.1922 -0.8346 -1.3541
 1411TIP3   OH225723   0.010   4.553  14.769  1.2184 -0.0587  0.1062
 1411TIP3    H125724  -0.083   4.561  14.747  1.9458  0.7015 -3.1848
 1411TIP3    H225725   0.037   4.643  14.790  1.5180 -0.0269 -0.4072
 1412TIP3   OH225726   6.213   0.154   0.217  0.1242  0.0824  0.1878
 1412TIP3    H125727   6.223   0.248   0.203 -1.4560 -0.0648 -2.9684
 1412TIP3    H225728   6.147   0.147   0.287  0.4575  1.2904  0.6453
 1413TIP3   OH225729   0.074   1.993  12.650 -0.4045 -0.3026 -0.0201
 1413TIP3    H125730   0.120   1.972  12.731 -1.9885  0.9778  1.2971
 1413TIP3    H225731   0.064   2.088  12.652 -0.2239 -0.2101 -1.8935
 1414TIP3   OH225732   0.450   5.662  14.528 -0.5167  0.2188  0.3760
 1414TIP3    H125733   0.417   5.624  14.609 -0.9562  0.8745  0.5150
 1414TIP3    H225734   0.375   5.664  14.469  0.0873 -1.3970 -0.5038
 1415TIP3   OH225735   3.296   5.537   4.840 -0.1308  0.1890 -0.3757
 1415TIP3    H125736   3.211   5.553   4.881 -0.5417 -2.1982 -0.1226
 1415TIP3    H225737   3.274   5.506   4.752  0.6789  3.3336 -1.7954
 1416TIP3   OH225738   6.261   0.466  17.336  0.0739 -0.4575 -0.6113
 1416TIP3    H125739   6.299   0.403  17.275 -0.6176 -1.0136 -0.4809
 1416TIP3    H225740   6.336   0.508  17.377  0.5429 -0.8053 -1.1053
 1417TIP3   OH225741   5.326   0.471  15.847  0.3816  0.2863 -0.0151
 1417TIP3    H125742   5.378   0.493  15.925  0.0096 -0.0424  0.3339
 1417TIP3    H225743   5.248   0.427  15.882 -0.2157  0.9269 -0.5223
 1418TIP3   OH225744   2.848   3.398  13.872 -0.3278 -0.3841 -0.2279
 1418TIP3    H125745   2.886   3.327  13.924  0.2398 -0.7928 -1.1840
 1418TIP3    H225746   2.918   3.426  13.814 -1.2100 -0.5611 -1.4201
 1419TIP3   OH225747   4.715   0.518   2.608 -0.3643 -0.5736  0.6110
 1419TIP3    H125748   4.665   0.537   2.528  0.7467 -0.0523  0.0262
 1419TIP3    H225749   4.660   0.456   2.655 -1.9498  0.6039  0.3913
 1420TIP3   OH225750   3.820   6.493  13.479  0.1592  0.2845 -0.3258
 1420TIP3    H125751   3.877   6.494  13.402  0.7147  1.1579  0.0740
 1420TIP3    H225752   3.865   6.550  13.542 -0.2871 -0.4144  0.6403
 1421TIP3   OH225753   0.354   3.840  14.940  0.0566  0.5864 -0.4949
 1421TIP3    H125754   0.305   3.860  15.019  0.3484  0.9966 -0.4143
 1421TIP3    H225755   0.315   3.896  14.873  1.3099  1.9741 -0.1207
 1422TIP3   OH225756   0.783   2.166   0.403  0.4970  0.5567 -0.4419
 1422TIP3    H125757   0.749   2.135   0.486  1.1691  0.0318 -0.3546
 1422TIP3    H225758   0.877   2.147   0.406  0.2806 -1.0786 -2.0125
 1423TIP3   OH225759   3.408   6.126  13.455 -0.0845  0.1117 -0.0379
 1423TIP3    H125760   3.329   6.118  13.402 -0.0909  0.2620 -0.0499
 1423TIP3    H225761   3.442   6.213  13.436  0.4499 -0.1983 -0.5395
 1424TIP3   OH225762   0.203   5.943   3.156 -0.0673 -0.4694 -0.4881
 1424TIP3    H125763   0.134   5.895   3.201 -0.5461 -2.1139 -2.7894
 1424TIP3    H225764   0.178   5.940   3.064  0.8193  2.7588 -0.9686
 1425TIP3   OH225765   6.128   3.008   4.817 -0.3401  0.6384 -0.3951
 1425TIP3    H125766   6.083   2.930   4.783  0.9995  0.4225 -1.8365
 1425TIP3    H225767   6.118   3.002   4.912  0.1371 -1.6099 -0.4152
 1426TIP3   OH225768   4.166   4.971   0.373  0.0596 -0.2938 -0.1534
 1426TIP3    H125769   4.249   4.998   0.413 -1.3980  1.5661  1.8935
 1426TIP3    H225770   4.099   5.015   0.426 -2.2310 -1.3799 -1.9785
 1427TIP3   OH225771   4.331   2.050  12.681 -0.2951 -0.4683  0.3711
 1427TIP3    H125772   4.291   1.997  12.750 -0.3009 -1.5893 -0.4546
 1427TIP3    H225773   4.257   2.091  12.636 -0.2207  1.5982  2.0049
 1428TIP3   OH225774   3.838   2.626  13.407  0.6489  0.1498 -0.8623
 1428TIP3    H125775   3.761   2.680  13.427  1.0127  0.2244  0.4515
 1428TIP3    H225776   3.909   2.689  13.397  0.8714 -0.0108 -0.3452
 1429TIP3   OH225777   0.777   0.287   5.122  0.2196  0.3468 -0.2578
 1429TIP3    H125778   0.706   0.345   5.096 -0.8542  0.4995  2.6510
 1429TIP3    H225779   0.739   0.199   5.121  0.7596  0.1086 -1.0892
 1430TIP3   OH225780   1.036   0.881   5.141  0.7462 -0.1324  0.3191
 1430TIP3    H125781   1.104   0.912   5.201 -0.1443  0.6030  0.9762
 1430TIP3    H225782   1.077   0.883   5.055  1.3561  0.9593  0.6183
 1431TIP3   OH225783   3.809   2.057  14.817  0.4115  0.0939 -0.5222
 1431TIP3    H125784   3.888   2.049  14.763  0.2936 -0.7411 -0.5881
 1431TIP3    H225785   3.766   1.971  14.809  0.6308 -0.2205  1.2572
 1432TIP3   OH225786   5.373   1.258   2.109  0.5127  0.4907 -0.2730
 1432TIP3    H125787   5.358   1.231   2.018 -0.2590  0.1899 -0.0692
 1432TIP3    H225788   5.314   1.202   2.160  0.9637  0.6381  0.4142
 1433TIP3   OH225789   5.269   3.756   0.303 -0.3496 -0.4022 -0.2145
 1433TIP3    H125790   5.209   3.830   0.315 -0.9320 -1.0402  0.9163
 1433TIP3    H225791   5.325   3.757   0.381  0.0559 -0.7901 -0.4925
 1434TIP3   OH225792   6.339   6.475   2.138 -0.4529 -0.1412 -0.3270
 1434TIP3    H125793   6.387   6.558   2.143 -0.3132 -0.1800 -0.9644
 1434TIP3    H225794   6.250   6.497   2.166 -0.6682  0.4365 -1.4269
 1435TIP3   OH225795   0.057   2.654  14.760  0.5934 -0.2858  0.0711
 1435TIP3    H125796   0.104   2.677  14.679  0.4209  2.8904  0.7378
 1435TIP3    H225797  -0.026   2.616  14.730  0.8279  0.2002 -1.2456
 1436TIP3   OH225798   3.397   2.845  12.709  0.0863 -0.0564 -0.0690
 1436TIP3    H125799   3.377   2.920  12.765  0.6384 -0.3036  0.4784
 1436TIP3    H225800   3.492   2.837  12.713  0.1710  0.1283 -1.3306
 1437TIP3   OH225801   2.390   4.998   4.716  0.0151 -0.0946  0.0698
 1437TIP3    H125802   2.312   5.018   4.664  0.3264  1.7032  0.2461
 1437TIP3    H225803   2.429   4.923   4.671 -1.0053 -0.0784 -0.8933
 1438TIP3   OH225804   1.708   4.204  16.778 -0.1721 -0.8137  0.5749
 1438TIP3    H125805   1.624   4.172  16.810 -0.6444 -0.0608  0.1078
 1438TIP3    H225806   1.703   4.195  16.683  0.1364 -0.4487  0.5184
 1439TIP3   OH225807   4.607   4.543  13.763  0.3360  0.3982  0.3294
 1439TIP3    H125808   4.657   4.568  13.686  0.0461 -0.4337 -0.1457
 1439TIP3    H225809   4.626   4.450  13.774 -1.6682 -0.1324 -0.3180
 1440TIP3   OH225810   2.955   0.634   3.932 -0.0376  0.3563 -0.5417
 1440TIP3    H125811   2.924   0.624   3.842  0.2931 -0.4204 -0.5774
 1440TIP3    H225812   2.922   0.719   3.959 -1.2151  0.0596 -0.9676
 1441TIP3   OH225813   1.306   2.713  17.458 -0.7448  0.3880 -0.5672
 1441TIP3    H125814   1.363   2.653  17.506  0.4340  1.3190 -0.7412
 1441TIP3    H225815   1.217   2.688  17.483 -0.1986  0.5218  1.7163
 1442TIP3   OH225816   0.134   3.706   5.973 -0.2132  0.1639  0.4497
 1442TIP3    H125817   0.103   3.778   6.029 -0.9467  1.4319 -1.4813
 1442TIP3    H225818   0.123   3.628   6.027 -3.2008  1.0072  1.2617
 1443TIP3   OH225819   0.652   6.121   2.109 -0.2600  0.4981  0.2587
 1443TIP3    H125820   0.585   6.126   2.177 -1.2082 -0.4598 -0.5707
 1443TIP3    H225821   0.683   6.211   2.099 -2.6433  1.3242 -0.5065
 1444TIP3   OH225822   4.049   2.571  15.122 -0.1952 -0.5919 -0.4826
 1444TIP3    H125823   4.080   2.651  15.080 -1.9290  0.5122  0.2191
 1444TIP3    H225824   4.033   2.596  15.213 -0.6186 -1.7696 -0.2112
 1445TIP3   OH225825   4.764   1.867  12.993  0.2220 -0.3477  0.0707
 1445TIP3    H125826   4.705   1.816  13.048 -1.2578  1.0011 -0.1832
 1445TIP3    H225827   4.761   1.823  12.908 -1.6864  0.5367 -0.3829
 1446TIP3   OH225828   0.316   2.687   4.176  0.2516 -0.7023  0.5025
 1446TIP3    H125829   0.237   2.647   4.139  0.9186 -1.4964 -0.1130
 1446TIP3    H225830   0.283   2.749   4.241 -0.8819 -0.8943  0.1415
 1447TIP3   OH225831   5.118   0.247   3.170 -0.4253  0.3961 -0.3154
 1447TIP3    H125832   5.144   0.292   3.251 -0.1240 -1.4368  0.6530
 1447TIP3    H225833   5.102   0.318   3.108  0.8933  1.8098  0.8733
 1448TIP3   OH225834   3.037   5.764  11.745 -0.1997 -0.1614  0.6061
 1448TIP3    H125835   3.056   5.695  11.809  1.3346 -0.8305 -0.4939
 1448TIP3    H225836   3.069   5.729  11.662 -3.4505  0.0484 -0.8952
 1449TIP3   OH225837   3.750   4.398  14.737  0.3911 -0.2762  0.3053
 1449TIP3    H125838   3.797   4.415  14.819  0.3691 -2.6566  0.8923
 1449TIP3    H225839   3.804   4.439  14.669  2.4504 -1.4604  1.1383
 1450TIP3   OH225840   6.222   5.153  13.812 -0.0753  0.4514  0.2338
 1450TIP3    H125841   6.149   5.093  13.828 -0.7281  1.0589 -0.3578
 1450TIP3    H225842   6.266   5.161  13.896  0.1482 -1.0106  0.2758
 1451TIP3   OH225843   5.615   5.993   2.087 -0.3545  0.1136 -0.7652
 1451TIP3    H125844   5.615   6.018   2.179 -1.7100  0.0756 -0.7358
 1451TIP3    H225845   5.668   6.059   2.044  1.2473 -0.4958  0.1843
 1452TIP3   OH225846   0.811   1.686  11.995  0.6741 -0.0534  0.2830
 1452TIP3    H125847   0.858   1.748  12.051 -0.0046  1.1596 -0.4289
 1452TIP3    H225848   0.738   1.656  12.048 -0.3699  1.6251 -0.1138
 1453TIP3   OH225849   2.935   0.867  14.355 -0.5166  0.2847  0.8583
 1453TIP3    H125850   3.016   0.878  14.306 -1.1889 -1.4574 -0.7478
 1453TIP3    H225851   2.883   0.945  14.333 -0.7143 -0.3494 -1.0554
 1454TIP3   OH225852   3.576   5.957   4.003 -0.2703  0.1704  0.5280
 1454TIP3    H125853   3.539   5.872   4.025 -2.5077  1.2765  1.3113
 1454TIP3    H225854   3.549   6.015   4.074  0.6482  1.7015 -0.2994
 1455TIP3   OH225855   5.465   0.969   0.910  0.0047  0.0362  0.6855
 1455TIP3    H125856   5.542   0.999   0.862  1.0923 -1.6748  1.2501
 1455TIP3    H225857   5.391   1.012   0.866  0.8498 -1.7601 -2.9213
 1456TIP3   OH225858   3.436   3.971   0.736  0.0056  0.3725  0.9184
 1456TIP3    H125859   3.408   4.033   0.669 -1.8751 -1.0911  0.2751
 1456TIP3    H225860   3.511   3.926   0.696 -0.3339  0.3631  0.2771
 1457TIP3   OH225861   5.540   4.518  13.852 -0.1308 -0.5839 -0.0280
 1457TIP3    H125862   5.627   4.528  13.813 -0.3042  3.2133  0.2252
 1457TIP3    H225863   5.557   4.487  13.941  0.9226 -0.2010 -0.0859
 1458TIP3   OH225864   0.638   2.733   5.868 -0.0567 -0.3848 -0.0638
 1458TIP3    H125865   0.604   2.647   5.893  0.6133 -0.0510  2.2068
 1458TIP3    H225866   0.607   2.792   5.937 -0.0879  1.1255 -1.3076
 1459TIP3   OH225867   5.383   0.497   2.425  0.0518  0.1318 -0.2721
 1459TIP3    H125868   5.396   0.431   2.494 -1.5063  0.0689  0.0170
 1459TIP3    H225869   5.292   0.483   2.396  0.2478  1.0485 -1.3937
 1460TIP3   OH225870   4.701   3.610  13.632  0.3971  0.3443  0.3151
 1460TIP3    H125871   4.749   3.677  13.584  1.6695 -1.8295 -1.6324
 1460TIP3    H225872   4.743   3.527  13.608 -1.2978 -1.2343  2.3393
 1461TIP3   OH225873   2.832   5.284  13.869 -0.5886  0.5039  0.3085
 1461TIP3    H125874   2.789   5.369  13.861 -0.5633  0.5514  0.6642
 1461TIP3    H225875   2.821   5.244  13.783 -1.2023  0.5827  0.3434
 1462TIP3   OH225876   3.954   0.813  12.947  0.0867  0.9033  0.1733
 1462TIP3    H125877   3.990   0.775  13.027  1.7895  0.8667 -0.5832
 1462TIP3    H225878   3.908   0.740  12.905  1.7996  0.1011 -0.3716
 1463TIP3   OH225879   0.645   2.468   7.135  0.2041  0.2191  0.5991
 1463TIP3    H125880   0.721   2.412   7.118 -1.0251 -1.4956  0.6094
 1463TIP3    H225881   0.656   2.540   7.072  2.1726  0.3974  1.0551
 1464TIP3   OH225882   4.474   6.017  16.893 -0.4037  0.3666  0.4914
 1464TIP3    H125883   4.549   5.961  16.914 -0.8578  0.2802  2.0077
 1464TIP3    H225884   4.456   6.064  16.975 -1.0029  1.5763 -0.3161
 1465TIP3   OH225885   5.076   4.408   1.349 -0.3643  0.6723 -0.2753
 1465TIP3    H125886   5.096   4.329   1.299 -0.2134  0.7984 -0.4153
 1465TIP3    H225887   5.121   4.395   1.433  0.3775  0.9910 -0.6185
 1466TIP3   OH225888   0.009   1.171   7.040 -0.4798 -0.5989 -0.2090
 1466TIP3    H125889   0.010   1.152   6.946  1.0757 -2.0370  0.0417
 1466TIP3    H225890  -0.051   1.246   7.049  0.4372  0.5280 -2.5232
 1467TIP3   OH225891   1.551   5.014   4.426 -1.0133  0.4004  0.0533
 1467TIP3    H125892   1.559   5.103   4.462  0.5119  0.8601 -1.2839
 1467TIP3    H225893   1.491   5.023   4.352 -1.1697  0.2319  0.1593
 1468TIP3   OH225894   1.008   2.581  14.976  0.4805 -0.1445  0.0124
 1468TIP3    H125895   1.056   2.533  15.043 -1.4017 -0.6905  1.0559
 1468TIP3    H225896   0.947   2.516  14.940 -0.4621  0.8429 -0.2276
 1469TIP3   OH225897   6.713   3.323  15.538  0.3336  0.0423  0.7095
 1469TIP3    H125898   6.762   3.246  15.509 -1.9809 -2.2169  2.3979
 1469TIP3    H225899   6.781   3.384  15.569  2.5099  0.3209 -3.7951
 1470TIP3   OH225900   5.116   4.365  16.495 -0.4131 -1.0435 -0.3860
 1470TIP3    H125901   5.132   4.459  16.485 -2.8115 -0.6449 -1.0566
 1470TIP3    H225902   5.164   4.325  16.423 -0.3360 -0.1977 -0.8246
 1471TIP3   OH225903   5.619   5.566  15.322 -0.2195 -0.0032 -0.2913
 1471TIP3    H125904   5.681   5.628  15.283 -0.9621  0.7909 -0.2473
 1471TIP3    H225905   5.535   5.610  15.316 -0.3305  0.3695  2.6202
 1472TIP3   OH225906   5.898   6.581  16.048  0.6330 -0.4778  0.7557
 1472TIP3    H125907   5.983   6.626  16.050  0.1053  0.5383  0.8740
 1472TIP3    H225908   5.916   6.498  16.003  1.9335 -0.8357  1.8666
 1473TIP3   OH225909   0.386   4.136  12.237 -0.2746 -0.3292 -0.4224
 1473TIP3    H125910   0.446   4.121  12.310  0.8982  1.5805 -0.9257
 1473TIP3    H225911   0.443   4.132  12.160 -1.1359 -0.2564 -1.0679
 1474TIP3   OH225912   6.577   1.341  16.643  0.2588  0.3609 -0.0350
 1474TIP3    H125913   6.625   1.291  16.577 -0.3800 -0.4218  0.0671
 1474TIP3    H225914   6.490   1.352  16.606  1.0094  3.4977 -1.0909
 1475TIP3   OH225915   1.590   1.234   2.475  0.3183  0.0683 -0.5468
 1475TIP3    H125916   1.559   1.177   2.405  1.6364 -2.7040  1.0113
 1475TIP3    H225917   1.684   1.241   2.461  0.0427  3.4311 -1.6874
 1476TIP3   OH225918   6.200   0.393   2.155  0.1238  0.1952  0.1654
 1476TIP3    H125919   6.158   0.309   2.137  2.7063 -1.2538  0.3431
 1476TIP3    H225920   6.202   0.438   2.070 -0.3381 -0.3818 -0.1564
 1477TIP3   OH225921   5.142   0.846  11.486  0.2297  0.1885 -0.2579
 1477TIP3    H125922   5.101   0.824  11.402  0.6543  0.9941 -0.7022
 1477TIP3    H225923   5.075   0.896  11.533 -1.2501 -3.0356  1.3428
 1478TIP3   OH225924   0.446   4.639   5.297  0.0157  0.3077  0.1755
 1478TIP3    H125925   0.377   4.689   5.341 -2.5886 -3.6303  1.1440
 1478TIP3    H225926   0.494   4.596   5.368 -0.0743 -1.1296 -0.5817
 1479TIP3   OH225927   1.943   1.331   4.021  0.6864  0.3951  0.2929
 1479TIP3    H125928   1.966   1.300   3.934  0.7646 -0.4179  0.5917
 1479TIP3    H225929   1.941   1.252   4.075 -2.4842  0.4290  0.3989
 1480TIP3   OH225930   3.490   3.085   5.712  0.4211  0.1062  0.3175
 1480TIP3    H125931   3.564   3.137   5.681 -1.2934  1.5606 -1.5655
 1480TIP3    H225932   3.484   3.105   5.805  3.2553 -1.2293  0.9067
 1481TIP3   OH225933   1.841   1.255  14.921 -0.1544  0.1228 -0.5773
 1481TIP3    H125934   1.834   1.162  14.940  0.8792  0.0016 -0.7563
 1481TIP3    H225935   1.780   1.297  14.982 -0.4683 -0.6499 -0.3551
 1482TIP3   OH225936   4.518   2.954  13.063  0.3610 -0.3646  0.0609
 1482TIP3    H125937   4.428   2.978  13.041  0.5312 -0.8790 -1.3039
 1482TIP3    H225938   4.515   2.859  13.074  0.8019 -0.4388 -0.4092
 1483TIP3   OH225939   6.036   2.429  10.873 -0.4283 -0.3593  0.0436
 1483TIP3    H125940   6.118   2.477  10.863 -0.5720 -0.1064  0.0739
 1483TIP3    H225941   5.990   2.474  10.944  0.3741 -1.8349  1.5696
 1484TIP3   OH225942   6.408   3.681  16.198  0.0418 -0.1971 -0.1266
 1484TIP3    H125943   6.421   3.729  16.280  2.3807 -1.1283  0.1377
 1484TIP3    H225944   6.321   3.641  16.207 -0.0888  0.3844  1.5548
 1485TIP3   OH225945   4.198   1.790  13.777  0.2979  0.1327 -0.9791
 1485TIP3    H125946   4.156   1.784  13.863  1.4307  0.9322 -0.3531
 1485TIP3    H225947   4.228   1.701  13.759 -0.5980 -0.2009 -0.9057
 1486TIP3   OH225948   3.819   0.178   0.701  0.7729 -0.2747 -0.0765
 1486TIP3    H125949   3.809   0.097   0.651 -1.3332  0.8409 -1.6769
 1486TIP3    H225950   3.906   0.172   0.740  0.6420 -3.3303  0.0010
 1487TIP3   OH225951   6.491   6.170  15.865 -0.0756 -0.0382  0.4581
 1487TIP3    H125952   6.428   6.202  15.930  0.1039 -0.0546  0.6411
 1487TIP3    H225953   6.573   6.164  15.913 -0.4510 -2.4176  0.8903
 1488TIP3   OH225954   1.938   3.851  11.368 -0.1960 -0.5358  0.4703
 1488TIP3    H125955   2.019   3.859  11.418  1.6657 -2.0455 -2.0732
 1488TIP3    H225956   1.945   3.766  11.324 -2.9264 -0.4752 -0.2446
 1489TIP3   OH225957   2.888   4.940  14.610  0.1551 -0.0025  0.5534
 1489TIP3    H125958   2.951   5.007  14.635 -0.0763  0.4028  0.0646
 1489TIP3    H225959   2.922   4.903  14.529  0.2957 -0.5052  0.8317
 1490TIP3   OH225960   3.927   3.105  11.362  0.3814  0.4058  0.0777
 1490TIP3    H125961   3.894   3.175  11.417  2.1327  0.8354  0.6199
 1490TIP3    H225962   3.979   3.149  11.295  1.4631 -0.3356  0.3969
 1491TIP3   OH225963   1.793   0.028   1.826 -0.8131  0.0723 -0.4976
 1491TIP3    H125964   1.797  -0.061   1.861 -0.1453  0.5498  0.6984
 1491TIP3    H225965   1.882   0.062   1.835 -1.6438  1.9057  2.0142
 1492TIP3   OH225966   0.825   1.891   5.343 -0.1205 -0.2355 -0.1695
 1492TIP3    H125967   0.766   1.956   5.379 -0.3787 -0.5440 -0.0334
 1492TIP3    H225968   0.892   1.942   5.297 -0.5611  0.1044 -0.4305
 1493TIP3   OH225969   6.079   0.668  15.913 -0.0291  0.0498  0.5298
 1493TIP3    H125970   6.058   0.753  15.874  1.4734 -0.4581 -1.6206
 1493TIP3    H225971   6.174   0.663  15.909 -0.0005 -1.1672  1.9416
 1494TIP3   OH225972   2.517   1.131  16.828  0.0658  0.7718  0.4721
 1494TIP3    H125973   2.421   1.138  16.825  0.0693  0.9043  0.6529
 1494TIP3    H225974   2.547   1.220  16.807  0.1617  0.5614 -0.3213
 1495TIP3   OH225975   6.259   5.217   0.700  0.2604 -0.0914 -0.3475
 1495TIP3    H125976   6.198   5.267   0.646  0.3910  3.1121  2.1714
 1495TIP3    H225977   6.205   5.153   0.745 -0.8320  0.9463 -0.1287
 1496TIP3   OH225978   6.559   6.586  17.119  0.0430 -0.4806  0.6597
 1496TIP3    H125979   6.487   6.617  17.174  0.3601 -0.3525  1.0191
 1496TIP3    H225980   6.556   6.641  17.041 -1.4577 -1.7845 -0.2490
 1497TIP3   OH225981   1.497   5.576   0.062  0.4248 -0.4933 -0.1455
 1497TIP3    H125982   1.521   5.664   0.089 -0.0875 -0.5627  0.5473
 1497TIP3    H225983   1.409   5.562   0.098  0.2979 -1.1067 -0.6618
 1498TIP3   OH225984   2.346   6.646   1.880 -0.3766 -0.1445 -0.1351
 1498TIP3    H125985   2.410   6.618   1.946  0.7687  0.0582 -1.1430
 1498TIP3    H225986   2.262   6.617   1.916 -0.3308  3.0547  3.1942
 1499TIP3   OH225987   5.323   0.924  14.382 -0.1786  0.3895  0.2065
 1499TIP3    H125988   5.348   0.921  14.475  0.2079 -1.5242  0.0759
 1499TIP3    H225989   5.392   0.876  14.337 -0.0363  1.8374 -1.1899
 1500TIP3   OH225990   2.045   1.763   0.578  0.4840 -0.6332 -0.6364
 1500TIP3    H125991   1.960   1.734   0.546 -0.1666 -0.2491  0.6741
 1500TIP3    H225992   2.106   1.740   0.508 -0.9039  0.5141 -2.3209
 1501TIP3   OH225993   0.848   1.735   0.651  0.5001 -0.2470 -0.7948
 1501TIP3    H125994   0.803   1.744   0.567 -1.3423  1.7778  0.3170
 1501TIP3    H225995   0.894   1.818   0.663 -0.4902  0.1201  0.8273
 1502TIP3   OH225996   3.676   1.051  14.230  0.4999  0.1879 -0.6591
 1502TIP3    H125997   3.749   0.997  14.201 -0.4387 -0.6366 -1.5424
 1502TIP3    H225998   3.709   1.095  14.309  2.0514  0.1151 -1.2341
 1503TIP3   OH225999   2.386   1.856   1.006  0.0995  0.2895  0.1668
 1503TIP3    H126000   2.334   1.801   0.946  1.0210 -0.8914  0.4219
 1503TIP3    H226001   2.345   1.842   1.092  0.1817  0.1973  0.1909
 1504TIP3   OH226002   0.754   5.365  14.541 -0.1150 -0.0718  0.0158
 1504TIP3    H126003   0.845   5.395  14.550  0.0734 -1.1554  2.6068
 1504TIP3    H226004   0.706   5.444  14.515  1.4740  0.6254 -0.9760
 1505TIP3   OH226005   6.631   6.461  17.506  0.0049  0.0755 -0.3309
 1505TIP3    H126006   6.691   6.486  17.436  0.3020  0.8749  0.1902
 1505TIP3    H226007   6.578   6.540  17.521 -0.6531 -0.3749 -0.2628
 1506TIP3   OH226008   1.140   2.860  13.116 -0.6117  0.4490  0.7477
 1506TIP3    H126009   1.081   2.935  13.115 -1.6481 -0.3339  1.5009
 1506TIP3    H226010   1.189   2.869  13.198 -0.1446  0.7232  0.4491
 1507TIP3   OH226011   2.594   2.340  17.098 -0.2245  0.4116  0.6941
 1507TIP3    H126012   2.650   2.358  17.173  0.0568 -0.5304  0.7258
 1507TIP3    H226013   2.647   2.283  17.042 -0.2810  1.4148 -0.4172
 1508TIP3   OH226014   0.438   3.858  12.734  0.0585  0.1052 -1.0659
 1508TIP3    H126015   0.520   3.811  12.720 -0.7655 -1.6928 -0.1842
 1508TIP3    H226016   0.444   3.892  12.823  0.2345  0.8149 -1.3451
 1509TIP3   OH226017   3.840   1.731   2.603  0.4166 -0.3018  0.3756
 1509TIP3    H126018   3.873   1.798   2.544 -1.7395  0.2446 -0.3174
 1509TIP3    H226019   3.819   1.657   2.546  0.1175 -0.4882  0.7223
 1510TIP3   OH226020   3.740   5.254   4.332  0.0634  0.1563 -0.3882
 1510TIP3    H126021   3.741   5.349   4.322 -1.2776  0.2963  0.5797
 1510TIP3    H226022   3.815   5.236   4.389  0.4130  0.6071 -0.6931
 1511TIP3   OH226023   5.003   0.485   1.026 -0.5306  0.5686 -0.2929
 1511TIP3    H126024   5.088   0.444   1.013 -0.2813  0.7225  0.8195
 1511TIP3    H226025   5.022   0.579   1.032 -0.5473  0.4806  1.6736
 1512TIP3   OH226026   0.195   6.619   6.011  0.0412 -0.2190 -0.6295
 1512TIP3    H126027   0.139   6.541   6.010 -0.6508  0.2476  0.5225
 1512TIP3    H226028   0.135   6.692   5.997  0.3411  0.2887  0.6256
 1513TIP3   OH226029   4.361   5.178  12.217 -0.6608  0.3853 -0.1280
 1513TIP3    H126030   4.289   5.152  12.274  1.0569 -1.4119  1.3863
 1513TIP3    H226031   4.376   5.271  12.238 -2.0517  0.6063  0.0086
 1514TIP3   OH226032   3.081   6.193   4.698  0.3732  0.3869  0.2480
 1514TIP3    H126033   3.162   6.143   4.701 -0.6380 -1.4806 -1.2439
 1514TIP3    H226034   3.013   6.127   4.682 -1.1336  2.1547 -1.1000
 1515TIP3   OH226035   3.078   6.066  14.094 -0.5429  0.2447 -0.3277
 1515TIP3    H126036   3.137   6.015  14.149 -0.7588 -0.3000 -0.5976
 1515TIP3    H226037   3.136   6.127  14.047 -0.2239 -0.1084 -0.3977
 1516TIP3   OH226038   5.030   3.305   0.728 -0.1511 -0.0254 -0.3885
 1516TIP3    H126039   5.059   3.352   0.807 -2.7380 -0.4161  0.8797
 1516TIP3    H226040   5.075   3.221   0.733  1.5193  0.7985 -0.6367
 1517TIP3   OH226041   1.682   1.593  14.064 -0.4733  0.1695 -0.0002
 1517TIP3    H126042   1.630   1.513  14.053  0.2141 -0.8672  3.2795
 1517TIP3    H226043   1.773   1.564  14.058 -0.1730  1.2844 -1.6610
 1518TIP3   OH226044   6.464   2.926   1.785 -0.2775 -0.3841  0.3005
 1518TIP3    H126045   6.412   2.982   1.729 -1.3740 -1.6021  0.0601
 1518TIP3    H226046   6.496   2.984   1.854  1.2499  1.1883 -1.6121
 1519TIP3   OH226047   3.044   1.164   5.945 -0.0296 -0.2813  0.0545
 1519TIP3    H126048   3.014   1.202   6.028  0.8325 -1.3198  0.8856
 1519TIP3    H226049   3.005   1.076   5.945 -0.8019  0.0478 -1.1158
 1520TIP3   OH226050   6.193   5.218   1.824 -0.5798  0.5346 -0.5803
 1520TIP3    H126051   6.122   5.157   1.846 -0.4497  0.9107  0.9706
 1520TIP3    H226052   6.265   5.161   1.797 -1.2295  0.1266 -1.5306
 1521TIP3   OH226053   4.997   6.017   6.295 -0.7056 -0.6731 -0.3702
 1521TIP3    H126054   4.985   5.952   6.365 -0.8984 -0.0435  0.2002
 1521TIP3    H226055   4.916   6.067   6.296 -1.5262 -1.8368 -2.3468
 1522TIP3   OH226056   6.173   6.071   4.066 -0.0587 -0.1550 -0.8260
 1522TIP3    H126057   6.187   5.981   4.035 -0.0923 -0.3534 -0.2691
 1522TIP3    H226058   6.171   6.123   3.986 -0.3878 -0.6983 -1.1772
 1523TIP3   OH226059   5.259   2.311  15.204  0.2600  0.6816 -0.0746
 1523TIP3    H126060   5.338   2.357  15.174 -0.1085  1.7460  0.5523
 1523TIP3    H226061   5.215   2.284  15.123  1.9026 -1.1113 -0.4451
 1524TIP3   OH226062   0.274   5.764   4.304 -0.2369 -0.1072 -0.1626
 1524TIP3    H126063   0.358   5.803   4.332 -0.7072 -0.4730  1.8866
 1524TIP3    H226064   0.283   5.755   4.210  1.3852  1.4317 -0.2226
 1525TIP3   OH226065   3.895   5.955   1.319  0.1021 -0.2739  0.6632
 1525TIP3    H126066   3.855   5.880   1.276  0.4350 -0.1259  0.0953
 1525TIP3    H226067   3.953   5.993   1.254  0.8450 -0.2273  1.3377
 1526TIP3   OH226068   5.302   1.271   5.246 -0.1508  0.6217 -0.1286
 1526TIP3    H126069   5.299   1.286   5.340  0.8946 -0.2205  0.0490
 1526TIP3    H226070   5.216   1.235   5.224  0.0236 -0.3426  0.7144
 1527TIP3   OH226071   0.588   6.389   5.390 -0.1413 -0.6476 -0.3503
 1527TIP3    H126072   0.545   6.473   5.377  0.1953 -0.5045 -0.5655
 1527TIP3    H226073   0.552   6.356   5.472  0.3141  0.0862  0.1683
 1528TIP3   OH226074   1.732   1.429  12.724 -0.3229 -0.1755 -0.2190
 1528TIP3    H126075   1.699   1.466  12.642 -0.6481 -0.9522 -0.4485
 1528TIP3    H226076   1.804   1.487  12.749 -0.0729 -0.0567 -1.1737
 1529TIP3   OH226077   2.378   2.504   4.736 -0.1641  0.4960 -0.4369
 1529TIP3    H126078   2.305   2.455   4.775 -0.6079  0.6228 -1.0876
 1529TIP3    H226079   2.444   2.508   4.805 -0.6023  0.0075  0.0196
 1530TIP3   OH226080   6.140   1.466   6.620  0.2305 -0.5154 -0.1640
 1530TIP3    H126081   6.049   1.459   6.647 -0.6233  0.9556 -2.3605
 1530TIP3    H226082   6.164   1.556   6.640  0.8862 -0.6019 -0.5255
 1531TIP3   OH226083   5.362   0.387   3.271 -0.5526 -0.1177 -0.3306
 1531TIP3    H126084   5.346   0.393   3.177 -0.3465 -0.2209 -0.3727
 1531TIP3    H226085   5.371   0.478   3.299 -1.0310 -0.0644 -0.3344
 1532TIP3   OH226086   4.427   2.891   4.294 -0.1716 -0.3756  0.3976
 1532TIP3    H126087   4.375   2.839   4.355  0.3980 -0.2637  0.9858
 1532TIP3    H226088   4.502   2.920   4.345  0.8272 -1.0907 -0.6094
 1533TIP3   OH226089   3.399   6.119   1.951  0.3694 -1.0779 -0.6505
 1533TIP3    H126090   3.321   6.070   1.977 -0.2222  0.7348  1.2436
 1533TIP3    H226091   3.368   6.208   1.938  2.1627 -0.2082  0.6174
 1534TIP3   OH226092   5.747   3.666   1.632  0.4568 -0.1785  0.3040
 1534TIP3    H126093   5.703   3.662   1.717  1.0778 -1.9563  0.5817
 1534TIP3    H226094   5.687   3.717   1.577 -0.4147  0.1778  1.5266
 1535TIP3   OH226095   2.703   3.986   4.832 -0.2145 -0.3369 -0.1276
 1535TIP3    H126096   2.753   3.906   4.849 -1.4234 -1.3435 -1.1222
 1535TIP3    H226097   2.702   3.993   4.736  0.8720  1.5509 -0.0594
 1536TIP3   OH226098   6.021   0.810  17.138 -0.7911 -0.6027  0.4377
 1536TIP3    H126099   5.927   0.795  17.138 -0.6921 -1.3710  1.5092
 1536TIP3    H226100   6.044   0.817  17.231  0.0211  0.8738  0.1578
 1537TIP3   OH226101   0.178   0.501  16.552  0.3034 -0.7623  0.4388
 1537TIP3    H126102   0.094   0.522  16.512  0.7941  1.5136  0.4817
 1537TIP3    H226103   0.237   0.571  16.523  2.3167 -2.4567  0.1220
 1538TIP3   OH226104   3.604   4.010   3.179  0.0414 -0.0315  0.3034
 1538TIP3    H126105   3.523   4.039   3.221  1.3581  2.8579  1.1144
 1538TIP3    H226106   3.650   3.961   3.246 -0.8725 -1.4998 -0.0939
 1539TIP3   OH226107   3.712   6.642   1.534 -0.3338  0.1802  0.3720
 1539TIP3    H126108   3.638   6.606   1.485 -0.9513  0.1813  1.2729
 1539TIP3    H226109   3.772   6.568   1.542 -0.3276  0.1196 -0.1811
 1540TIP3   OH226110   4.094   0.337   0.065  0.5908 -0.4234 -0.2001
 1540TIP3    H126111   4.055   0.397   0.129  0.5702 -0.3869 -0.2469
 1540TIP3    H226112   4.088   0.384  -0.018 -2.5192 -1.7807 -0.9045
 1541TIP3   OH226113   1.468   6.002  13.155 -0.2195  0.5599 -0.3482
 1541TIP3    H126114   1.392   5.963  13.199  0.3227  1.4839  1.5094
 1541TIP3    H226115   1.541   5.983  13.213  0.4772  2.1175 -0.6836
 1542TIP3   OH226116   4.997   1.830   4.746 -0.0379  0.7321 -0.1431
 1542TIP3    H126117   4.936   1.885   4.796 -0.6215  0.2131 -0.2768
 1542TIP3    H226118   4.981   1.742   4.778 -0.8013  0.3086 -1.6034
 1543TIP3   OH226119   4.762   0.480  12.332 -0.3241 -0.4241  0.0822
 1543TIP3    H126120   4.827   0.458  12.399  0.3212  0.7660 -0.1083
 1543TIP3    H226121   4.680   0.486  12.379  0.6891  4.7841  1.9079
 1544TIP3   OH226122   4.107   6.266   2.945 -0.1756 -0.0950  0.6849
 1544TIP3    H126123   4.174   6.323   2.982  1.4623 -2.3064  1.3461
 1544TIP3    H226124   4.072   6.218   3.021 -0.7469 -0.7242  0.0451
 1545TIP3   OH226125   1.141   5.375   2.616 -0.0618 -0.3156 -0.5596
 1545TIP3    H126126   1.207   5.438   2.587 -0.2348  0.2411  0.2190
 1545TIP3    H226127   1.080   5.427   2.668 -0.3910 -1.0752 -0.1757
 1546TIP3   OH226128   1.870   3.491   5.688 -0.0329 -0.4171  0.2560
 1546TIP3    H126129   1.883   3.416   5.630 -0.8894 -1.2773  1.1422
 1546TIP3    H226130   1.786   3.474   5.730 -0.5248  1.3204  0.0686
 1547TIP3   OH226131   3.622   4.151  12.203  0.2497 -0.0250 -0.7158
 1547TIP3    H126132   3.698   4.112  12.246  0.7506  0.7625 -0.8578
 1547TIP3    H226133   3.623   4.242  12.232 -1.9010 -0.4596  1.0087
 1548TIP3   OH226134   4.144   2.190  10.561 -0.8135 -0.0779  0.1990
 1548TIP3    H126135   4.053   2.199  10.535 -0.8145  1.5778  0.6628
 1548TIP3    H226136   4.141   2.179  10.656 -0.4967  1.7664  0.4622
 1549TIP3   OH226137   3.660   3.837  14.515  0.4300 -0.5145 -0.5201
 1549TIP3    H126138   3.625   3.790  14.440  2.0495 -1.3754 -0.7916
 1549TIP3    H226139   3.749   3.862  14.488 -0.0937  2.0774 -0.1071
 1550TIP3   OH226140   0.178   1.946  15.815 -0.3437 -0.7495 -0.0784
 1550TIP3    H126141   0.182   2.032  15.774 -0.7952  0.3176  2.0072
 1550TIP3    H226142   0.094   1.945  15.861  0.7765 -1.2800  2.0619
 1551TIP3   OH226143   5.160   0.156   6.236  0.8889 -0.0109  0.1813
 1551TIP3    H126144   5.139   0.068   6.205 -0.6886  0.2849  0.3257
 1551TIP3    H226145   5.197   0.142   6.323  0.3960 -0.5199  0.3157
 1552TIP3   OH226146   5.173   4.128  15.133  0.1836  0.3371 -0.4904
 1552TIP3    H126147   5.224   4.207  15.148 -0.8846  0.8973  0.4138
 1552TIP3    H226148   5.087   4.159  15.105 -0.4396 -0.4597  0.4487
 1553TIP3   OH226149   0.096   6.532   2.860 -0.4197 -0.0069  0.6742
 1553TIP3    H126150   0.173   6.580   2.831 -1.1887  0.4118 -0.7328
 1553TIP3    H226151   0.052   6.591   2.921  0.2928 -0.2056  1.4001
 1554TIP3   OH226152   0.078   3.070   0.270 -0.1588  0.5116  0.2575
 1554TIP3    H126153   0.105   3.008   0.201 -0.2143  1.6359 -0.8009
 1554TIP3    H226154  -0.016   3.054   0.281  0.3121 -1.5071  2.0041
 1555TIP3   OH226155   1.931   2.570   2.162 -0.2729  0.1786 -0.7615
 1555TIP3    H126156   1.863   2.601   2.102 -0.2804  1.2673 -0.2005
 1555TIP3    H226157   1.924   2.474   2.157  0.4744  0.1762 -3.3250
 1556TIP3   OH226158   5.324   4.415   3.881 -0.4667 -0.4018 -0.3700
 1556TIP3    H126159   5.296   4.458   3.962  1.0360  0.1043 -0.0768
 1556TIP3    H226160   5.381   4.479   3.838  0.6067 -1.5105 -0.6706
 1557TIP3   OH226161   3.540   6.672   0.781 -0.1147  0.0862 -0.3286
 1557TIP3    H126162   3.536   6.638   0.871  0.6452 -0.3542 -0.4475
 1557TIP3    H226163   3.597   6.749   0.788 -0.2051  0.1605 -0.4039
 1558TIP3   OH226164   1.272   6.558   2.551  0.3023  0.0191 -0.0491
 1558TIP3    H126165   1.329   6.552   2.475 -0.2637  2.3372 -0.7382
 1558TIP3    H226166   1.279   6.649   2.580 -1.6787 -0.0622  0.9108
 1559TIP3   OH226167   6.436   4.506  17.457 -0.3540 -0.0779 -1.0650
 1559TIP3    H126168   6.421   4.432  17.516 -2.0431 -0.3555 -1.7897
 1559TIP3    H226169   6.469   4.467  17.377  0.4410  0.1438 -0.8511
 1560TIP3   OH226170   3.607   4.881   5.779 -0.0432  0.6666  0.0573
 1560TIP3    H126171   3.689   4.846   5.746 -0.0340  1.2463 -0.5474
 1560TIP3    H226172   3.595   4.839   5.864 -0.7067 -1.8351 -1.1925
 1561TIP3   OH226173   0.830   4.000  12.650 -0.1740  0.2221 -0.8057
 1561TIP3    H126174   0.766   4.072  12.648  1.0379  1.3232 -0.8046
 1561TIP3    H226175   0.787   3.930  12.602 -2.3932  0.0482  1.2071
 1562TIP3   OH226176   5.081   2.971  13.370  0.0389 -0.3040  0.0883
 1562TIP3    H126177   5.072   3.006  13.282  1.8497 -0.4334 -0.1904
 1562TIP3    H226178   5.050   3.041  13.428 -2.9258 -0.8912 -0.6559
 1563TIP3   OH226179   0.172   0.621   3.436 -0.3298  0.2078  0.4042
 1563TIP3    H126180   0.187   0.638   3.528 -0.0406  1.0391  0.2106
 1563TIP3    H226181   0.155   0.708   3.398 -0.8098 -0.1638 -0.2545
 1564TIP3   OH226182   3.223   6.310   0.077 -0.5482 -0.5835 -0.5201
 1564TIP3    H126183   3.304   6.321   0.027 -0.0845 -0.9619  0.1293
 1564TIP3    H226184   3.243   6.348   0.163 -0.9781 -0.8961 -0.2796
 1565TIP3   OH226185   1.913   5.620  15.248  0.3890  0.1246  0.1570
 1565TIP3    H126186   1.978   5.566  15.202 -0.0875 -1.5297  1.3311
 1565TIP3    H226187   1.939   5.615  15.340 -0.4631  0.8027  0.4435
 1566TIP3   OH226188   2.249   2.747   3.228 -0.1770  0.4655  0.1867
 1566TIP3    H126189   2.329   2.745   3.280 -1.3081  0.8773  2.0327
 1566TIP3    H226190   2.230   2.655   3.210 -0.3183  0.2394  1.4195
 1567TIP3   OH226191   5.389   4.614  15.931  0.3615  0.1519 -0.5089
 1567TIP3    H126192   5.353   4.546  15.989  2.3473 -0.0659  0.5536
 1567TIP3    H226193   5.314   4.671  15.912 -0.2697  0.7209  2.9674
 1568TIP3   OH226194   1.908   5.417  13.051 -0.4815  0.4642  0.1970
 1568TIP3    H126195   1.920   5.325  13.075  0.9208  0.5680 -0.0532
 1568TIP3    H226196   1.935   5.423  12.959  0.9864  1.4063  0.6534
 1569TIP3   OH226197   3.609   3.802  14.917 -0.5057  0.2800 -0.1564
 1569TIP3    H126198   3.583   3.894  14.912  0.7395  0.6021 -1.0575
 1569TIP3    H226199   3.610   3.782  15.010 -2.2497  0.7311 -0.0034
 1570TIP3   OH226200   2.606   2.259   4.769 -0.1901  0.2435 -0.4909
 1570TIP3    H126201   2.643   2.346   4.755  0.9943 -0.5242 -2.6236
 1570TIP3    H226202   2.555   2.242   4.689  0.8064 -1.5559 -0.8079
 1571TIP3   OH226203   0.980   3.644  16.855  0.2641 -0.0733 -0.5844
 1571TIP3    H126204   1.014   3.558  16.830 -0.6089 -0.2465 -1.2247
 1571TIP3    H226205   0.894   3.626  16.892 -0.9653  0.6939 -2.8840
 1572TIP3   OH226206   1.580   0.919   4.371 -0.1171  0.2241 -0.3875
 1572TIP3    H126207   1.598   0.842   4.316  0.6493  0.5311 -0.5866
 1572TIP3    H226208   1.587   0.886   4.461  0.0743  0.0274 -0.4736
 1573TIP3   OH226209   0.846   1.726  15.331  0.1655  0.6979 -0.6488
 1573TIP3    H126210   0.756   1.724  15.364  0.7508 -1.9426  1.0302
 1573TIP3    H226211   0.893   1.780  15.394  0.2148  0.1126 -0.1795
 1574TIP3   OH226212   1.326   0.317  16.864  0.4205 -0.0906  0.3618
 1574TIP3    H126213   1.299   0.373  16.791  0.7268 -0.9727 -0.4544
 1574TIP3    H226214   1.271   0.345  16.937 -1.8322 -0.9274 -0.8956
 1575TIP3   OH226215   1.628   5.799   2.353 -0.1688 -0.0151 -0.2512
 1575TIP3    H126216   1.614   5.760   2.440  0.9602  2.9096  1.3665
 1575TIP3    H226217   1.557   5.763   2.300 -1.0302 -1.7587  1.9015
 1576TIP3   OH226218   6.138   1.166   1.998 -0.1979 -0.2358  0.2274
 1576TIP3    H126219   6.062   1.111   1.982  0.3643 -1.1917  0.7569
 1576TIP3    H226220   6.173   1.186   1.911 -1.3585  0.6656 -0.0453
 1577TIP3   OH226221   0.468   0.186  14.953  0.1541  0.1449  0.4593
 1577TIP3    H126222   0.415   0.117  14.994 -2.8213  1.9512 -0.0289
 1577TIP3    H226223   0.532   0.211  15.020  1.1986 -2.8327  0.7223
 1578TIP3   OH226224   2.870   2.786   3.692  0.1798  0.0741 -0.1300
 1578TIP3    H126225   2.900   2.764   3.781 -1.0208 -1.2014  0.0083
 1578TIP3    H226226   2.813   2.862   3.704  0.0239 -0.0928  0.1954
 1579TIP3   OH226227   4.375   4.156  15.592 -0.2380 -0.1151 -0.0335
 1579TIP3    H126228   4.386   4.151  15.687  2.4420  0.5802 -0.2309
 1579TIP3    H226229   4.282   4.176  15.580 -0.6914 -0.4498  2.4091
 1580TIP3   OH226230   5.670   2.988   5.653 -0.3714 -0.0374 -0.1837
 1580TIP3    H126231   5.616   2.911   5.671 -0.4224  0.0040 -0.1608
 1580TIP3    H226232   5.660   3.043   5.730  0.0631 -0.2333  0.0233
 1581TIP3   OH226233   4.567   5.724   2.054 -0.4360  0.1700 -0.1960
 1581TIP3    H126234   4.544   5.790   2.120 -2.2053  0.3450 -0.9098
 1581TIP3    H226235   4.561   5.641   2.100 -2.3793  0.2308 -0.2405
 1582TIP3   OH226236   3.544   4.531  14.417  0.4783 -0.1063 -0.3728
 1582TIP3    H126237   3.528   4.482  14.336  0.1986  1.3427 -1.2353
 1582TIP3    H226238   3.639   4.538  14.424  0.4957  0.0332 -0.7520
 1583TIP3   OH226239   1.555   0.469   4.599  0.4236  0.1430  0.0378
 1583TIP3    H126240   1.650   0.460   4.601  0.6811  1.4047 -2.7467
 1583TIP3    H226241   1.528   0.423   4.520 -1.3367 -0.3153  0.8572
 1584TIP3   OH226242   3.872   3.606  16.632  0.0734  0.4686 -0.3611
 1584TIP3    H126243   3.885   3.687  16.582  0.9906  0.5615  0.0038
 1584TIP3    H226244   3.908   3.626  16.718  0.9497 -0.5484 -0.4733
 1585TIP3   OH226245   6.283   4.208   3.734  0.6952  0.3577  0.0247
 1585TIP3    H126246   6.238   4.255   3.663 -1.3904 -1.0309  0.3457
 1585TIP3    H226247   6.215   4.189   3.798  1.2771 -3.2228 -0.1676
 1586TIP3   OH226248   1.949   4.658  15.187  0.3673 -0.0443  0.4423
 1586TIP3    H126249   1.934   4.633  15.096  0.5580 -3.4435  1.2256
 1586TIP3    H226250   1.863   4.653  15.228  0.2003  1.9296  0.4236
 1587TIP3   OH226251   6.720   4.215   1.993  0.2619  0.8432  0.3323
 1587TIP3    H126252   6.719   4.142   2.055  1.2498  0.2373 -0.3296
 1587TIP3    H226253   6.758   4.287   2.042  0.6995  0.4720  0.5476
 1588TIP3   OH226254   2.533   2.187  13.640 -0.5560 -0.6421 -0.6022
 1588TIP3    H126255   2.609   2.216  13.590  0.0370 -1.1070  0.0074
 1588TIP3    H226256   2.459   2.200  13.581  0.2645 -2.4256 -2.1376
 1589TIP3   OH226257   3.247   1.924  11.747 -0.1651  0.0899  0.2261
 1589TIP3    H126258   3.330   1.967  11.727 -0.1046 -0.3004 -0.3640
 1589TIP3    H226259   3.183   1.968  11.691 -0.2179 -0.1330  0.1089
 1590TIP3   OH226260   0.001   3.565  11.419 -0.0511 -0.3253  0.0115
 1590TIP3    H126261  -0.035   3.622  11.486  1.4580  0.5083  0.1719
 1590TIP3    H226262   0.024   3.624  11.347  1.9207 -0.6113  0.3378
 1591TIP3   OH226263   0.075   1.452   5.919 -0.1045  0.5168 -0.0242
 1591TIP3    H126264   0.121   1.503   5.853 -0.2307 -0.1086 -0.5969
 1591TIP3    H226265   0.110   1.484   6.002 -0.6227  1.9792 -0.3324
 1592TIP3   OH226266   5.355   5.521  13.570  0.7037 -0.1830  0.2129
 1592TIP3    H126267   5.260   5.510  13.558  0.7345 -1.0258  0.7075
 1592TIP3    H226268   5.384   5.438  13.607  1.4098  0.5607  1.3608
 1593TIP3   OH226269   5.317   4.261  14.869  0.1850 -0.7754  0.3692
 1593TIP3    H126270   5.350   4.278  14.958  0.4179 -1.6368  0.4602
 1593TIP3    H226271   5.235   4.310  14.864  1.1727  0.9316  0.3421
 1594TIP3   OH226272   0.644   4.515   3.169  0.3317  0.8606  0.3762
 1594TIP3    H126273   0.613   4.554   3.087 -3.3463 -1.3636  0.4731
 1594TIP3    H226274   0.590   4.556   3.237  1.1758  0.4466  1.3295
 1595TIP3   OH226275   1.070   5.594  15.881 -0.4578 -0.3734 -0.0500
 1595TIP3    H126276   1.089   5.572  15.790 -1.5449 -0.8476 -0.1848
 1595TIP3    H226277   1.102   5.683  15.892  1.0079 -0.8218 -0.4639
 1596TIP3   OH226278   6.051   5.027  14.988 -0.3121  0.0685  0.2098
 1596TIP3    H126279   6.122   5.091  14.987 -0.0014 -0.1016  2.9992
 1596TIP3    H226280   6.016   5.028  14.899  2.2834  1.1451 -0.8959
 1597TIP3   OH226281   1.147   3.403   1.688 -0.0090 -0.2511  0.1281
 1597TIP3    H126282   1.140   3.328   1.629  1.0564  1.1299 -1.8769
 1597TIP3    H226283   1.058   3.419   1.718 -0.5317 -1.2115 -0.8715
 1598TIP3   OH226284   2.562   2.295  12.169 -0.0848 -0.2452 -0.3907
 1598TIP3    H126285   2.480   2.256  12.201  0.2387 -2.1965 -1.7803
 1598TIP3    H226286   2.606   2.326  12.248 -1.1927 -1.1274  0.6171
 1599TIP3   OH226287   4.106   3.742  17.324  0.6478  0.1125  0.2625
 1599TIP3    H126288   4.141   3.668  17.373  0.1874  0.0731  0.5304
 1599TIP3    H226289   4.015   3.749  17.351  0.6764  0.7530  0.2127
 1600TIP3   OH226290   1.085   3.060  14.041 -0.2482 -0.4409  0.0946
 1600TIP3    H126291   1.014   3.109  14.001 -2.0104 -3.2296 -0.4557
 1600TIP3    H226292   1.045   3.016  14.116  2.0021  1.2968  2.4940
 1601TIP3   OH226293   5.416   2.491   5.660 -0.0161 -0.0168  0.2879
 1601TIP3    H126294   5.510   2.473   5.660  0.1104  0.6060  1.2202
 1601TIP3    H226295   5.375   2.404   5.651  0.6296 -0.3632  0.6462
 1602TIP3   OH226296   6.144   2.158  12.185  0.0854  0.4436  0.2349
 1602TIP3    H126297   6.208   2.112  12.240  0.1940  1.6718  1.1720
 1602TIP3    H226298   6.116   2.232  12.238  0.4705  1.9070 -1.5191
 1603TIP3   OH226299   2.323   5.894  10.605 -0.2867  0.1814  0.4259
 1603TIP3    H126300   2.374   5.970  10.631  0.4436 -0.7123  1.6752
 1603TIP3    H226301   2.237   5.930  10.581  0.1596  1.4267  0.6259
 1604TIP3   OH226302   5.609   2.936   1.714 -0.0636  0.7196  0.1069
 1604TIP3    H126303   5.543   2.988   1.668 -0.8842  0.1663  0.6265
 1604TIP3    H226304   5.603   2.964   1.805 -0.1778  0.0594  0.3061
 1605TIP3   OH226305   6.743   5.586  14.034 -0.2491 -0.3092 -0.4895
 1605TIP3    H126306   6.698   5.509  14.067  0.5591 -0.7377 -0.3623
 1605TIP3    H226307   6.747   5.646  14.108 -1.0258 -0.0698 -0.6345
 1606TIP3   OH226308   3.060   5.539   2.376 -0.0624  0.1075  0.4461
 1606TIP3    H126309   2.967   5.525   2.359  0.2200  0.4284 -1.6314
 1606TIP3    H226310   3.091   5.591   2.301  1.7327  0.2425  1.2182
 1607TIP3   OH226311   4.657   0.180   0.292  0.8213  0.1584  0.6272
 1607TIP3    H126312   4.609   0.140   0.220  2.0042  0.4892 -0.3904
 1607TIP3    H226313   4.599   0.172   0.368  0.2744 -1.7881  0.0490
 1608TIP3   OH226314   1.618   6.453   5.736 -0.3599  0.2324 -0.4774
 1608TIP3    H126315   1.593   6.543   5.759  0.1783  0.1680  0.4076
 1608TIP3    H226316   1.671   6.424   5.810 -0.3568 -0.7459 -0.8582
 1609TIP3   OH226317   5.160   4.984  13.023  0.0020  0.0165 -0.6637
 1609TIP3    H126318   5.247   5.020  13.007  0.5913 -1.6035 -1.3920
 1609TIP3    H226319   5.116   4.988  12.938 -0.4803  0.4492 -0.3942
 1610TIP3   OH226320   0.431   3.438   3.456 -0.1193  0.0427 -0.1485
 1610TIP3    H126321   0.397   3.438   3.367 -1.4054  0.0396  0.3292
 1610TIP3    H226322   0.359   3.471   3.510  0.0947 -1.3914  1.0860
 1611TIP3   OH226323   3.769   3.621  10.773 -0.6356  0.1606 -0.4251
 1611TIP3    H126324   3.689   3.599  10.727 -0.5677 -1.8022  0.2792
 1611TIP3    H226325   3.825   3.544  10.762  1.3554  1.6282 -1.2585
 1612TIP3   OH226326   1.037   0.360   0.608  0.3751 -0.2004 -0.6688
 1612TIP3    H126327   1.049   0.404   0.524  1.2178  1.3014  0.1760
 1612TIP3    H226328   1.016   0.431   0.669  2.1232 -0.8925  0.8292
 1613TIP3   OH226329   5.724   0.158  11.468 -0.5161 -0.4466  0.0761
 1613TIP3    H126330   5.760   0.175  11.555 -0.3636 -0.7651  0.0768
 1613TIP3    H226331   5.726   0.243  11.424 -1.4365 -0.0829  0.6861
 1614TIP3   OH226332   2.492   2.681  17.419 -0.2236 -0.0917 -0.0396
 1614TIP3    H126333   2.499   2.586  17.405  0.3702 -0.1503  0.5954
 1614TIP3    H226334   2.581   2.714  17.407  0.0745  0.0292  2.1175
 1615TIP3   OH226335   2.908   0.210  15.275 -0.0736 -0.4416  0.4152
 1615TIP3    H126336   2.972   0.261  15.324 -0.8968  0.4180  0.6390
 1615TIP3    H226337   2.919   0.120  15.306  1.4969 -0.4489 -0.0877
 1616TIP3   OH226338   1.333   1.948  14.403  0.4260  0.9133 -0.0926
 1616TIP3    H126339   1.268   1.970  14.336 -0.8806 -0.2670  0.7323
 1616TIP3    H226340   1.320   1.855  14.419  0.3035  1.2710  2.2017
 1617TIP3   OH226341   6.094   2.029   3.612 -0.4369  0.1288  0.2259
 1617TIP3    H126342   6.067   2.101   3.668  1.6779  0.5924  0.7404
 1617TIP3    H226343   6.108   2.069   3.526  1.7697  0.6196  0.7610
 1618TIP3   OH226344   2.916   4.487  16.947  0.1531 -0.2530 -0.4489
 1618TIP3    H126345   2.936   4.491  17.041 -0.3268  0.7718 -0.3775
 1618TIP3    H226346   2.831   4.529  16.939  0.7203  0.7602 -1.4866
 1619TIP3   OH226347   4.051   0.336  15.144 -0.0077 -0.0714  0.5210
 1619TIP3    H126348   4.059   0.399  15.216 -1.8129  0.5643  0.2239
 1619TIP3    H226349   4.000   0.264  15.182  1.4086 -1.0538  0.6410
 1620TIP3   OH226350   3.959   3.066   2.071  0.0809 -0.2899  0.4043
 1620TIP3    H126351   3.932   3.158   2.082  0.8125  0.0615 -0.5651
 1620TIP3    H226352   3.937   3.046   1.980  3.2253  0.1156 -0.5560
 1621TIP3   OH226353   3.792   5.916  14.650  0.2490  0.0070 -0.1904
 1621TIP3    H126354   3.830   5.853  14.588  1.0530 -0.5305  0.8103
 1621TIP3    H226355   3.752   5.861  14.717  0.6122  0.5530  0.4869
 1622TIP3   OH226356   2.591   4.620  16.134  0.1490 -0.5297  0.1932
 1622TIP3    H126357   2.548   4.694  16.177 -2.1249 -1.4541 -0.3394
 1622TIP3    H226358   2.588   4.550  16.199  0.9088 -0.6082  0.1508
 1623TIP3   OH226359   4.326   2.273   6.573  0.2062 -0.0007  0.0304
 1623TIP3    H126360   4.389   2.306   6.638 -0.1833  0.4054  0.2051
 1623TIP3    H226361   4.272   2.210   6.622 -0.1776  0.4087  0.1427
 1624TIP3   OH226362   6.730   3.897  12.111 -0.0883 -1.0683 -0.4245
 1624TIP3    H126363   6.667   3.915  12.042  0.1559 -1.2089 -0.6875
 1624TIP3    H226364   6.794   3.839  12.070 -0.3924 -1.8277  0.1600
 1625TIP3   OH226365   3.341   4.888   3.367 -0.4652 -0.1251 -0.7570
 1625TIP3    H126366   3.275   4.830   3.329 -0.6296 -1.6332  1.6424
 1625TIP3    H226367   3.423   4.840   3.360 -0.6510 -0.8406  1.5181
 1626TIP3   OH226368   2.082   2.469  17.078 -0.0325 -0.2895 -0.2880
 1626TIP3    H126369   2.001   2.500  17.038  0.8243  0.1179 -1.7600
 1626TIP3    H226370   2.141   2.544  17.073  0.8029 -0.9378 -0.2633
 1627TIP3   OH226371   5.820   2.018  15.805  0.5161 -0.3213 -0.4134
 1627TIP3    H126372   5.825   2.000  15.711 -3.7843 -1.4838 -0.6142
 1627TIP3    H226373   5.883   1.957  15.844  4.2779  1.8623 -2.4542
 1628TIP3   OH226374   6.066   3.447  11.963 -0.1773  0.0980 -0.0218
 1628TIP3    H126375   6.011   3.469  12.038 -0.4602  0.4461 -0.3264
 1628TIP3    H226376   6.064   3.525  11.908  0.0116 -0.1625 -0.4035
 1629TIP3   OH226377   4.373   4.713  15.897 -0.0511 -0.2250 -0.3574
 1629TIP3    H126378   4.407   4.796  15.864  0.4787 -1.0875 -2.1555
 1629TIP3    H226379   4.281   4.713  15.873  0.0714 -0.3619 -0.8444
 1630TIP3   OH226380   3.542   3.313  17.361  0.4824 -0.0363  0.5153
 1630TIP3    H126381   3.448   3.332  17.361  0.6308  0.7667  1.5482
 1630TIP3    H226382   3.580   3.376  17.422  1.6171 -0.7584  0.5962
 1631TIP3   OH226383   0.755   2.391   2.224  0.3283  0.1941  0.1251
 1631TIP3    H126384   0.744   2.477   2.183  1.6502  0.2763 -0.1091
 1631TIP3    H226385   0.696   2.333   2.176 -1.6229  1.2072  1.1700
 1632TIP3   OH226386   2.792   0.825  14.804 -0.1005 -0.3492  0.2099
 1632TIP3    H126387   2.884   0.841  14.827  0.9629 -4.1179 -0.6363
 1632TIP3    H226388   2.777   0.878  14.726  1.2942  0.3953  0.4138
 1633TIP3   OH226389   3.816   1.597   1.740  0.3037 -0.6018  0.5046
 1633TIP3    H126390   3.783   1.633   1.822 -1.0609  0.6723 -0.5406
 1633TIP3    H226391   3.746   1.541   1.707  0.0990  0.2602 -0.5981
 1634TIP3   OH226392   6.125   4.129  16.648  0.1538  0.1562  0.0068
 1634TIP3    H126393   6.079   4.091  16.723  0.1065  0.3434  0.0716
 1634TIP3    H226394   6.059   4.137  16.580  0.7241 -2.5690 -1.0249
 1635TIP3   OH226395   3.113   1.691   1.769 -0.4283 -0.0911 -0.6528
 1635TIP3    H126396   3.145   1.655   1.852  1.0147  0.0599 -1.1173
 1635TIP3    H226397   3.169   1.767   1.753 -0.6294 -0.1786 -1.8339
 1636TIP3   OH226398   1.130   0.055   3.294 -0.0102  0.3767  0.5068
 1636TIP3    H126399   1.181   0.109   3.354  1.7837 -1.0489  0.3393
 1636TIP3    H226400   1.100  -0.018   3.349 -0.4700  0.3326  0.2053
 1637TIP3   OH226401   3.213   1.965  16.862  0.1266  0.6757  0.0219
 1637TIP3    H126402   3.295   2.013  16.853  0.3890  0.2788  0.2617
 1637TIP3    H226403   3.239   1.873  16.854 -0.1226  0.4890  1.2907
 1638TIP3   OH226404   0.814   3.068  10.980  0.1212 -1.2557 -0.5319
 1638TIP3    H126405   0.829   3.065  10.886 -0.9733  0.5823 -0.8145
 1638TIP3    H226406   0.886   3.121  11.014 -0.5198 -0.3063 -0.6194
 1639TIP3   OH226407   1.626   6.631   2.151 -0.3096  0.3009 -0.1054
 1639TIP3    H126408   1.706   6.680   2.132 -0.4571 -0.2753 -2.6324
 1639TIP3    H226409   1.651   6.540   2.141 -0.8246  0.0143  1.1511
 1640TIP3   OH226410   2.338   4.502  12.184 -0.6313 -0.1548 -0.0734
 1640TIP3    H126411   2.290   4.560  12.125 -0.4708  0.3805  0.3145
 1640TIP3    H226412   2.379   4.437  12.127  0.5885  1.1209 -0.6849
 1641TIP3   OH226413   0.832   4.653   1.319 -1.0171  0.4465 -0.0943
 1641TIP3    H126414   0.877   4.580   1.275 -0.1997  1.5786 -1.1969
 1641TIP3    H226415   0.774   4.689   1.252 -1.2744  0.9344  0.3890
 1642TIP3   OH226416   2.057   3.923   5.420 -0.2010 -0.6302  0.4201
 1642TIP3    H126417   2.127   3.861   5.440 -0.9623 -1.4577  0.6092
 1642TIP3    H226418   1.980   3.886   5.463 -0.5809  0.6964  0.9156
 1643TIP3   OH226419   5.971   0.976   3.660  0.1519 -0.2905 -0.2131
 1643TIP3    H126420   5.987   0.882   3.646  0.7981  0.0690 -2.2939
 1643TIP3    H226421   6.004   1.017   3.580 -1.4297  1.5827  0.0377
 1644TIP3   OH226422   0.523   6.005  16.125  0.0207  0.1656 -0.0762
 1644TIP3    H126423   0.612   5.999  16.159 -0.0266  0.9784  0.2266
 1644TIP3    H226424   0.534   6.043  16.038  0.1242 -1.7083 -0.9193
 1645TIP3   OH226425   5.126   3.284   2.092 -0.2210 -0.1729  0.2579
 1645TIP3    H126426   5.052   3.225   2.105 -1.8644  1.6719 -0.2482
 1645TIP3    H226427   5.119   3.312   2.001  0.5094  0.7889  0.4821
 1646TIP3   OH226428   6.166   2.476  17.365  0.0211 -0.1552 -0.1961
 1646TIP3    H126429   6.226   2.411  17.328 -2.1007 -2.3316 -0.0329
 1646TIP3    H226430   6.123   2.514  17.289 -0.2812 -0.5263 -0.2145
 1647TIP3   OH226431   4.443   4.073   1.489 -0.0489  0.3326 -0.0125
 1647TIP3    H126432   4.514   4.130   1.518 -0.0829 -0.3068  1.4162
 1647TIP3    H226433   4.484   3.987   1.477  0.1031  0.7171 -2.6124
 1648TIP3   OH226434   5.400   0.820   6.045  0.3332 -0.7354 -0.0576
 1648TIP3    H126435   5.322   0.863   6.079  1.4848  0.6762  0.9352
 1648TIP3    H226436   5.402   0.735   6.089  0.0100 -0.2723  0.8772
 1649TIP3   OH226437   2.645   0.410   3.399 -0.0099 -0.0109 -0.0059
 1649TIP3    H126438   2.711   0.460   3.351  0.4317  1.4629  2.0251
 1649TIP3    H226439   2.681   0.321   3.403  0.7082  0.2196 -0.9530
 1650TIP3   OH226440   1.394   5.614  13.164  0.1123  0.0813  0.8311
 1650TIP3    H126441   1.447   5.693  13.161  0.4683 -0.1452  1.2008
 1650TIP3    H226442   1.324   5.631  13.101  0.9754  0.1283 -0.1462
 1651TIP3   OH226443   1.864   3.298   2.471  0.6612  0.1704  0.2843
 1651TIP3    H126444   1.911   3.296   2.388  1.0091 -0.3801  0.4854
 1651TIP3    H226445   1.926   3.262   2.534  0.7632  1.5186  0.9741
 1652TIP3   OH226446   4.545   3.370  12.065 -0.2623 -0.3996  0.0464
 1652TIP3    H126447   4.639   3.384  12.074 -0.5486  0.5382  2.2552
 1652TIP3    H226448   4.528   3.381  11.971  2.3277 -4.4741 -1.1984
 1653TIP3   OH226449   0.484   0.426   6.989 -0.1537 -0.6536  0.3645
 1653TIP3    H126450   0.497   0.521   6.984 -3.9502 -0.0053 -0.3067
 1653TIP3    H226451   0.570   0.389   6.971  1.0947  2.6329 -1.2613
 1654TIP3   OH226452   5.650   4.036   3.542 -0.1597  0.4322  0.3835
 1654TIP3    H126453   5.662   3.964   3.480 -4.1988 -1.0585  1.0571
 1654TIP3    H226454   5.633   4.112   3.486 -1.3763 -0.3847 -0.4158
 1655TIP3   OH226455   1.315   5.315  15.938  0.2851  0.2303 -0.0304
 1655TIP3    H126456   1.341   5.394  15.891 -0.2287  0.4716  0.0801
 1655TIP3    H226457   1.221   5.307  15.923  0.3865 -0.5573 -0.3265
 1656TIP3   OH226458   3.506   5.328   0.806  0.2680 -0.3502  0.4302
 1656TIP3    H126459   3.506   5.234   0.823  0.2900 -0.3318  0.5328
 1656TIP3    H226460   3.546   5.336   0.719 -0.7322 -0.5215 -0.0644
 1657TIP3   OH226461   4.005   2.294  15.362  0.3863 -0.0126 -0.2872
 1657TIP3    H126462   3.931   2.333  15.317  1.9220 -0.2293 -3.2708
 1657TIP3    H226463   3.970   2.214  15.401 -1.4559  1.2067  0.6835
 1658TIP3   OH226464   2.800   1.700  14.993 -0.1293  0.0065  0.2976
 1658TIP3    H126465   2.790   1.745  14.909  1.2129  2.8484  1.5592
 1658TIP3    H226466   2.785   1.607  14.971 -1.3377  0.7812 -2.7513
 1659TIP3   OH226467   2.455   2.110  13.366  0.0350 -0.5932 -0.5929
 1659TIP3    H126468   2.433   2.203  13.373 -2.2952 -1.1187 -0.1984
 1659TIP3    H226469   2.452   2.092  13.272 -1.4286 -0.6614 -0.5488
 1660TIP3   OH226470   3.769   3.195  13.364  0.8520 -0.1984  0.3803
 1660TIP3    H126471   3.750   3.154  13.448  0.7740 -1.0673 -0.0445
 1660TIP3    H226472   3.746   3.287  13.376 -1.9805 -0.8085  0.4708
 1661TIP3   OH226473   2.462   4.401  14.607 -0.3931  0.4610  0.1234
 1661TIP3    H126474   2.387   4.454  14.581 -1.9091 -1.1541  1.0355
 1661TIP3    H226475   2.486   4.352  14.528 -2.1513 -1.1267  0.5153
 1662TIP3   OH226476   1.321   4.510  14.032  0.2867  0.1934  0.6288
 1662TIP3    H126477   1.340   4.598  14.065  0.6109  0.2331  0.3412
 1662TIP3    H226478   1.295   4.524  13.941 -2.0922  0.2489  1.2466
 1663TIP3   OH226479   2.448   3.609  12.769 -0.4934 -0.2833  0.3755
 1663TIP3    H126480   2.507   3.543  12.805  0.0569  0.9292  1.8094
 1663TIP3    H226481   2.363   3.589  12.809 -1.1389 -2.0302 -1.6910
 1664TIP3   OH226482   2.337   2.310  12.628 -0.7726 -0.2949  0.1279
 1664TIP3    H126483   2.306   2.398  12.646  0.1680  0.8535 -3.1495
 1664TIP3    H226484   2.408   2.296  12.690 -2.2237  0.3932  2.0341
 1665TIP3   OH226485   0.064   0.760  12.598  0.2567  0.7302 -0.0299
 1665TIP3    H126486   0.064   0.855  12.586 -0.1461  0.6038 -1.0820
 1665TIP3    H226487  -0.022   0.741  12.635  0.8050  0.9033  1.3960
 1666TIP3   OH226488   2.946   2.616   5.668 -0.3920  0.1653 -0.1986
 1666TIP3    H126489   2.941   2.689   5.606 -0.1193  0.1657 -0.2203
 1666TIP3    H226490   2.869   2.562   5.648 -0.3070  0.1672 -0.5379
 1667TIP3   OH226491   2.034   4.568  12.810  0.7055  0.1465  0.1038
 1667TIP3    H126492   2.018   4.638  12.747 -1.1292  0.1361  0.4885
 1667TIP3    H226493   2.115   4.592  12.854  1.1197  1.0123 -1.0947
 1668TIP3   OH226494   2.881   5.605   4.080 -0.0269 -0.2862  0.0986
 1668TIP3    H126495   2.808   5.578   4.136 -1.8220  1.2642 -1.3866
 1668TIP3    H226496   2.935   5.526   4.073 -1.1117 -1.2675  1.8744
 1669TIP3   OH226497   5.962   1.777  13.454 -0.0494  0.3932 -0.3512
 1669TIP3    H126498   6.042   1.751  13.408  0.4415  1.4333 -0.1068
 1669TIP3    H226499   5.921   1.694  13.478  0.6392 -0.1607 -1.0158
 1670TIP3   OH226500   2.079   0.318   1.362 -0.1218  0.4016  0.1452
 1670TIP3    H126501   2.018   0.345   1.294  0.1114 -0.3044 -0.3552
 1670TIP3    H226502   2.084   0.223   1.354 -0.5241  0.2412  1.5233
 1671TIP3   OH226503   6.562   5.632   4.332 -0.2080  0.3808 -0.0069
 1671TIP3    H126504   6.509   5.702   4.294 -0.7334 -0.4759 -0.9181
 1671TIP3    H226505   6.560   5.648   4.426 -0.9506  1.1542 -0.1403
 1672TIP3   OH226506   0.288   4.264  11.670 -0.0040 -0.6172 -0.1631
 1672TIP3    H126507   0.300   4.215  11.751  1.2976  0.6950  0.4941
 1672TIP3    H226508   0.270   4.353  11.698  1.6100  0.1115 -1.2693
 1673TIP3   OH226509   3.919   5.842   3.591  0.0271  0.4843  0.8575
 1673TIP3    H126510   3.940   5.803   3.507 -2.6828  0.1856  0.2216
 1673TIP3    H226511   3.868   5.921   3.569 -1.4846 -0.0688  2.1554
 1674TIP3   OH226512   0.458   5.809   5.294  0.3128 -0.3802 -0.0406
 1674TIP3    H126513   0.458   5.735   5.233  2.8702  0.6051 -1.4359
 1674TIP3    H226514   0.492   5.773   5.376  0.5243 -0.9818 -0.3874
 1675TIP3   OH226515   0.810   1.317   0.980 -0.7615  0.3755 -0.1261
 1675TIP3    H126516   0.863   1.242   1.007 -2.1247 -0.6234 -0.1311
 1675TIP3    H226517   0.781   1.296   0.891 -0.4531  1.3135 -0.4598
 1676TIP3   OH226518   6.711   6.284   0.482 -0.1334 -0.6546  0.0784
 1676TIP3    H126519   6.703   6.353   0.416 -0.2993 -2.1193 -1.5085
 1676TIP3    H226520   6.725   6.331   0.564 -1.3967  1.2932 -0.7463
 1677TIP3   OH226521   5.829   0.611  17.376  0.3595  0.5220  0.0570
 1677TIP3    H126522   5.747   0.571  17.405  1.5127 -3.0070 -1.1129
 1677TIP3    H226523   5.801   0.685  17.322 -2.1310 -0.9792 -0.8889
 1678TIP3   OH226524   2.804   1.187   6.233 -0.1723  0.2182 -0.0195
 1678TIP3    H126525   2.759   1.138   6.165 -1.2256  1.3153 -0.1376
 1678TIP3    H226526   2.755   1.268   6.241 -0.3383 -0.0477  2.3526
 1679TIP3   OH226527   4.715   3.124  12.654  0.2445 -0.0834 -0.3923
 1679TIP3    H126528   4.743   3.098  12.742  1.6289  2.0294 -0.1317
 1679TIP3    H226529   4.749   3.055  12.597  0.1042 -1.0216  0.6421
 1680TIP3   OH226530   1.075   2.656   0.083  0.4503 -0.2492 -0.8295
 1680TIP3    H126531   1.121   2.699   0.154  1.2411  0.0076 -1.4848
 1680TIP3    H226532   1.022   2.725   0.043 -0.2174 -0.4575 -0.3205
 1681TIP3   OH226533   5.422   2.097  16.522 -0.2058  0.2635  0.2357
 1681TIP3    H126534   5.447   2.011  16.487 -1.0436 -0.3527  1.1081
 1681TIP3    H226535   5.498   2.125  16.573  0.2380  0.2475 -0.4085
 1682TIP3   OH226536   3.414   2.431  14.131 -0.0510  0.1091 -0.0127
 1682TIP3    H126537   3.441   2.496  14.066  0.5403  0.8851  0.9853
 1682TIP3    H226538   3.409   2.349  14.082  1.4797  0.4632 -0.8280
 1683TIP3   OH226539   1.666   4.222   2.193 -0.1718 -0.2528  0.0060
 1683TIP3    H126540   1.745   4.185   2.233 -0.7221 -0.4835  0.9305
 1683TIP3    H226541   1.679   4.214   2.099  1.5149  1.0000  0.0959
 1684TIP3   OH226542   4.285   6.639  14.637  0.1894 -0.1697  0.0877
 1684TIP3    H126543   4.374   6.674  14.632 -0.2243  0.9607  0.3843
 1684TIP3    H226544   4.231   6.706  14.596 -0.7626  0.0456  1.6355
 1685TIP3   OH226545   4.142   1.072   4.196 -0.0333 -0.6204 -0.3505
 1685TIP3    H126546   4.107   0.984   4.208  1.3330 -1.5851 -2.7462
 1685TIP3    H226547   4.095   1.106   4.119  0.8084 -0.0302 -0.6244
 1686TIP3   OH226548   2.591   2.207  14.761  0.0228  0.2889 -0.2919
 1686TIP3    H126549   2.666   2.149  14.771  0.4359  1.0464  1.4201
 1686TIP3    H226550   2.515   2.150  14.778  0.4414  0.2602  1.7350
 1687TIP3   OH226551   1.727   0.937   3.574 -0.1843 -0.1356 -0.0421
 1687TIP3    H126552   1.674   1.005   3.616 -0.6730 -0.2735 -0.4343
 1687TIP3    H226553   1.677   0.857   3.585 -1.7738  0.2328 -3.3179
 1688TIP3   OH226554   6.455   3.730   1.589  0.0976 -0.0668 -0.4716
 1688TIP3    H126555   6.379   3.763   1.542 -0.5837 -1.6061 -0.5184
 1688TIP3    H226556   6.421   3.659   1.644  1.6560 -1.5865 -1.3671
 1689TIP3   OH226557   6.672   3.253  14.354 -0.4213 -0.1077 -0.2991
 1689TIP3    H126558   6.696   3.319  14.420 -2.5394 -0.2058  0.6334
 1689TIP3    H226559   6.643   3.304  14.279 -1.9048  0.0570  0.3623
 1690TIP3   OH226560   0.909   5.363   5.106 -0.0191 -0.0169  0.3377
 1690TIP3    H126561   0.953   5.448   5.107 -0.8509  0.4259  0.4937
 1690TIP3    H226562   0.827   5.378   5.154 -0.5686 -0.6925 -0.3613
 1691TIP3   OH226563   4.215   6.528  15.149 -0.1120 -0.2969 -0.1588
 1691TIP3    H126564   4.223   6.620  15.175  0.5631 -0.2457 -0.5157
 1691TIP3    H226565   4.150   6.492  15.209  0.9803 -0.0332  1.2314
 1692TIP3   OH226566   1.545   1.340  12.296 -0.8428 -0.0722  0.4430
 1692TIP3    H126567   1.580   1.286  12.366 -1.5630 -0.2383  0.6777
 1692TIP3    H226568   1.580   1.428  12.314  0.3024 -0.4325  0.0750
 1693TIP3   OH226569   2.444   5.653   0.197 -0.4889 -1.1208  0.7149
 1693TIP3    H126570   2.368   5.640   0.141 -0.8262 -2.3846  1.4266
 1693TIP3    H226571   2.498   5.575   0.182  1.8732  0.7818 -1.5528
 1694TIP3   OH226572   3.340   3.237   1.052 -0.1261  0.2393 -0.5146
 1694TIP3    H126573   3.389   3.308   1.092 -0.8966 -0.1816  1.2904
 1694TIP3    H226574   3.265   3.223   1.110 -1.2915 -0.4738 -2.1002
 1695TIP3   OH226575   0.371   4.724  13.978 -0.0895  0.2905  0.3554
 1695TIP3    H126576   0.419   4.642  13.992 -0.4402  0.0706  0.2871
 1695TIP3    H226577   0.438   4.788  13.955  0.1612 -0.0280  0.2027
 1696TIP3   OH226578   3.170   2.459  10.806 -0.6087 -0.8218 -0.0877
 1696TIP3    H126579   3.119   2.383  10.777 -1.0897 -1.0206  1.2015
 1696TIP3    H226580   3.256   2.423  10.827 -1.1579 -1.2560  1.5792
 1697TIP3   OH226581   6.424   5.834   5.297 -0.2896 -0.3572  0.1726
 1697TIP3    H126582   6.442   5.875   5.212  1.5521 -0.2067  0.5824
 1697TIP3    H226583   6.361   5.892   5.339  0.3770  0.7190 -0.2630
 1698TIP3   OH226584   2.114   6.600  11.963  0.6339  0.5588  0.3754
 1698TIP3    H126585   2.133   6.521  12.015 -1.2599 -1.7086 -2.1136
 1698TIP3    H226586   2.152   6.582  11.877  0.3399  2.4854 -0.2067
 1699TIP3   OH226587   0.301   4.011   5.055 -0.6550  0.2011  0.2782
 1699TIP3    H126588   0.217   4.026   5.099 -1.9688  1.1035 -2.3015
 1699TIP3    H226589   0.278   3.967   4.973  1.3184  0.9478 -0.7583
 1700TIP3   OH226590   4.982   0.892  16.271 -0.3088 -0.1757 -0.7627
 1700TIP3    H126591   5.023   0.969  16.311 -0.3185 -0.2381 -0.6333
 1700TIP3    H226592   5.026   0.883  16.186  0.1653 -0.4275 -0.4919
 1701TIP3   OH226593   6.576   0.520  15.472  0.3022  0.5374  0.0162
 1701TIP3    H126594   6.622   0.507  15.389 -1.7085  0.7608 -1.2229
 1701TIP3    H226595   6.503   0.458  15.468  0.0015  0.7566  1.5120
 1702TIP3   OH226596   6.149   6.547   1.182 -0.4374  0.3386  0.0847
 1702TIP3    H126597   6.192   6.550   1.096 -0.7529 -0.2881 -0.1041
 1702TIP3    H226598   6.221   6.549   1.244 -0.1898  0.4977 -0.2043
 1703TIP3   OH226599   4.201   1.105   3.026 -0.2266  0.4238  0.5113
 1703TIP3    H126600   4.160   1.082   2.942 -1.7116 -0.6262  1.4848
 1703TIP3    H226601   4.141   1.071   3.092  0.8316  1.3887  2.0185
 1704TIP3   OH226602   3.651   6.404   5.281 -0.2428 -0.2477  0.4005
 1704TIP3    H126603   3.586   6.463   5.317 -0.9491 -0.6482 -0.1847
 1704TIP3    H226604   3.622   6.389   5.190  1.1242  0.2380 -0.1397
 1705TIP3   OH226605   2.829   6.110  14.229  0.3519 -0.5636 -0.5436
 1705TIP3    H126606   2.895   6.090  14.162  1.5825  1.2356  0.0380
 1705TIP3    H226607   2.877   6.105  14.312 -0.5757 -0.4789  0.0092
 1706TIP3   OH226608   1.274   3.820   2.036  0.2195 -0.2100 -0.2046
 1706TIP3    H126609   1.349   3.843   2.091  0.3124  1.1025 -0.8456
 1706TIP3    H226610   1.226   3.902   2.026 -1.5132 -1.0879  0.4636
 1707TIP3   OH226611   6.720   3.481  17.521 -0.3459  0.2529  0.2609
 1707TIP3    H126612   6.760   3.428  17.590  3.1633  0.9505 -1.0438
 1707TIP3    H226613   6.707   3.567  17.561 -0.7487 -0.0349  0.7615
 1708TIP3   OH226614   4.700   0.171   4.798  0.1915 -0.2649  0.5378
 1708TIP3    H126615   4.707   0.124   4.882 -3.9377 -0.7968  0.7911
 1708TIP3    H226616   4.684   0.102   4.734 -1.2618  0.4211  0.1264
 1709TIP3   OH226617   3.269   3.814   3.419 -0.2376  0.5790 -0.3547
 1709TIP3    H126618   3.221   3.892   3.447 -0.6800 -0.1122  0.8821
 1709TIP3    H226619   3.207   3.767   3.364 -0.2229  0.7530 -0.5199
 1710TIP3   OH226620   3.680   3.572   5.251 -0.2216  0.0438  0.0721
 1710TIP3    H126621   3.636   3.658   5.251 -1.5333 -0.4910 -3.2616
 1710TIP3    H226622   3.609   3.509   5.266  0.6958 -0.5716  2.2459
 1711TIP3   OH226623   2.355   4.505  10.863 -0.2960  0.5350  0.2451
 1711TIP3    H126624   2.332   4.471  10.950 -0.7677  3.0551  1.2042
 1711TIP3    H226625   2.443   4.470  10.847 -0.0288  0.3097  1.9482
 1712TIP3   OH226626   2.089   4.144   3.140 -0.4206  0.7777  0.6131
 1712TIP3    H126627   2.149   4.074   3.165 -0.2331  1.0026  0.8007
 1712TIP3    H226628   2.145   4.222   3.132 -0.8135  1.1945  1.6854
 1713TIP3   OH226629   5.799   2.275  15.893  0.0326 -0.3945  0.0755
 1713TIP3    H126630   5.801   2.187  15.857  4.7327 -1.3323  1.9810
 1713TIP3    H226631   5.830   2.331  15.822  3.1179 -1.3181  0.5758
 1714TIP3   OH226632   0.356   2.044   0.164  0.0918  0.1149  0.4052
 1714TIP3    H126633   0.450   2.024   0.168  0.3220  0.2948 -2.4997
 1714TIP3    H226634   0.352   2.139   0.174  0.0366 -0.0029  1.8401
 1715TIP3   OH226635   1.862   4.208   4.635  0.3018 -0.1025 -0.2501
 1715TIP3    H126636   1.863   4.122   4.593  1.4125  0.0440 -0.5387
 1715TIP3    H226637   1.935   4.206   4.696  0.5120  0.7421 -0.4635
 1716TIP3   OH226638   4.591   5.121  15.642  0.3710  0.0593  0.4815
 1716TIP3    H126639   4.565   5.190  15.703 -0.7627  0.5510 -0.5115
 1716TIP3    H226640   4.677   5.093  15.672  0.1783  0.8324  1.8225
 1717TIP3   OH226641   1.382   3.936  16.020  0.4187  0.5380  0.2287
 1717TIP3    H126642   1.311   3.880  16.053  0.7313  0.3732  0.6412
 1717TIP3    H226643   1.341   4.021  16.007 -0.0084  0.2816 -0.1697
 1718TIP3   OH226644   1.462   3.728  11.634  0.2038  0.5375 -0.6024
 1718TIP3    H126645   1.398   3.683  11.578  0.4528 -0.1057 -0.3851
 1718TIP3    H226646   1.537   3.743  11.576  0.3207  0.1991 -0.5418
 1719TIP3   OH226647   3.816   4.587   4.482 -0.1565  0.3763 -0.1116
 1719TIP3    H126648   3.897   4.536   4.471  1.1384  2.0505  1.0646
 1719TIP3    H226649   3.799   4.624   4.395 -0.1951 -0.7119 -0.5849
 1720TIP3   OH226650   5.365   1.862   4.353 -0.1089 -0.1219 -0.3829
 1720TIP3    H126651   5.385   1.944   4.399  0.4772  0.2135 -1.2126
 1720TIP3    H226652   5.270   1.856   4.356 -0.4456  2.1100 -2.7970
 1721TIP3   OH226653   2.762   5.501   1.630  0.4404  0.2087 -0.5207
 1721TIP3    H126654   2.769   5.584   1.677  0.5503 -0.5395  0.8360
 1721TIP3    H226655   2.842   5.497   1.578 -0.1861  1.5477 -1.6579
 1722TIP3   OH226656   4.138   1.840  11.828 -0.2046  0.0889 -0.1171
 1722TIP3    H126657   4.162   1.902  11.897 -1.8226 -0.6232  1.1443
 1722TIP3    H226658   4.057   1.875  11.791 -0.9291 -1.0247  0.3503
 1723TIP3   OH226659   5.788   0.468   1.123 -0.3488 -0.5753 -0.6214
 1723TIP3    H126660   5.774   0.558   1.091 -1.1056 -0.2324  0.5883
 1723TIP3    H226661   5.883   0.459   1.129 -0.2660  0.2714 -0.4481
 1724TIP3   OH226662   4.623   2.527  16.785 -0.2527  0.4483  0.3382
 1724TIP3    H126663   4.690   2.594  16.800 -0.4519  0.3364  1.9161
 1724TIP3    H226664   4.658   2.449  16.828 -0.5001 -0.1697 -0.5741
 1725TIP3   OH226665   4.149   3.766   4.760 -0.4000  0.5306 -0.6225
 1725TIP3    H126666   4.231   3.731   4.725 -0.5294 -1.4054  0.7972
 1725TIP3    H226667   4.176   3.837   4.818  0.1232  0.9320 -1.3348
 1726TIP3   OH226668   6.762   1.928   1.336 -0.1818  0.8176 -0.1406
 1726TIP3    H126669   6.762   1.833   1.344  1.2682  0.9091  1.5714
 1726TIP3    H226670   6.691   1.947   1.274  0.5566 -1.4418 -1.7933
 1727TIP3   OH226671   2.678   5.100  16.567 -0.1008  0.2280 -0.5842
 1727TIP3    H126672   2.660   5.194  16.562 -0.7417  0.1804  0.5897
 1727TIP3    H226673   2.661   5.077  16.658  1.1693 -0.8091 -0.5776
 1728TIP3   OH226674   2.471   1.696   2.388 -0.2161 -0.1087 -0.1613
 1728TIP3    H126675   2.409   1.740   2.330 -0.6771  1.0782  1.1493
 1728TIP3    H226676   2.541   1.665   2.331 -0.8942  0.5658 -1.3877
 1729TIP3   OH226677   0.055   2.578   0.495 -0.0293 -0.1805 -0.5964
 1729TIP3    H126678  -0.040   2.587   0.506  0.1967 -0.3694  2.3343
 1729TIP3    H226679   0.079   2.649   0.435 -1.9241  0.3243 -0.8202
 1730TIP3   OH226680   0.995   4.042  13.866 -0.4150 -0.3254 -0.0168
 1730TIP3    H126681   1.032   3.965  13.909 -1.9847 -1.5086 -0.6962
 1730TIP3    H226682   0.961   4.009  13.783 -3.1730  0.5882  0.6468
 1731TIP3   OH226683   5.699   1.758   1.380  0.0735  0.0837 -0.0780
 1731TIP3    H126684   5.715   1.830   1.319 -1.8543 -0.7779 -1.7485
 1731TIP3    H226685   5.613   1.778   1.417 -0.5581 -1.3963 -0.6904
 1732TIP3   OH226686   5.880   3.330   3.665  0.3949  0.1025 -0.6727
 1732TIP3    H126687   5.788   3.312   3.685  0.1929 -1.9899 -2.9973
 1732TIP3    H226688   5.896   3.418   3.701 -1.8849 -0.2978  1.5682
 1733TIP3   OH226689   0.553   1.383   0.919  0.1380  0.3503  0.1550
 1733TIP3    H126690   0.558   1.448   0.849 -0.2363  0.3631  0.1385
 1733TIP3    H226691   0.641   1.381   0.956  0.3805  0.2450 -0.4067
 1734TIP3   OH226692   2.043   6.150  16.550  0.1710 -0.4366 -0.1069
 1734TIP3    H126693   1.999   6.107  16.623 -0.5647  1.3652  0.5835
 1734TIP3    H226694   1.980   6.148  16.479 -0.3446  0.5009  0.3014
 1735TIP3   OH226695   4.193   4.942   6.300 -0.0509  0.4179 -0.3266
 1735TIP3    H126696   4.167   4.988   6.380  1.6887  0.5955  0.1808
 1735TIP3    H226697   4.193   5.011   6.233 -0.0247  0.5982 -0.1439
 1736TIP3   OH226698   4.731   2.617  11.882  0.5273  0.4190  0.0061
 1736TIP3    H126699   4.749   2.597  11.790  1.6150 -0.3332  0.3595
 1736TIP3    H226700   4.786   2.693  11.901 -2.5063  3.0664 -0.9343
 1737TIP3   OH226701   6.278   3.234  12.285  0.5136  0.0913  0.3799
 1737TIP3    H126702   6.373   3.244  12.289  0.3279  2.0433  0.9435
 1737TIP3    H226703   6.260   3.207  12.195  1.5468  0.6238 -0.0010
 1738TIP3   OH226704   3.039   0.569   0.980 -0.4935 -0.2547  0.0845
 1738TIP3    H126705   3.076   0.507   0.917  2.6024 -0.4019  1.8393
 1738TIP3    H226706   3.035   0.520   1.062  0.1632  1.2810  1.0681
 1739TIP3   OH226707   6.457   5.850  16.069  0.0701  0.3253 -0.0667
 1739TIP3    H126708   6.376   5.841  16.119 -0.1134 -1.7607 -0.6484
 1739TIP3    H226709   6.433   5.904  15.994 -0.7564 -0.1767 -0.1707
 1740TIP3   OH226710   3.470   5.175  15.089 -0.3569 -0.2943 -0.3544
 1740TIP3    H126711   3.516   5.144  15.011  0.3966 -0.8348  0.2844
 1740TIP3    H226712   3.381   5.143  15.080  0.0753 -1.5415 -0.3475
 1741TIP3   OH226713   1.469   0.836  16.180  0.5801 -0.4515  0.3214
 1741TIP3    H126714   1.430   0.900  16.240  1.2067 -0.7251  1.0255
 1741TIP3    H226715   1.522   0.889  16.120  0.0288 -0.1863  0.0583
 1742TIP3   OH226716   3.009   3.923   0.298  0.5319  0.0843  0.3137
 1742TIP3    H126717   3.056   4.004   0.312 -0.2593  1.2617 -2.9124
 1742TIP3    H226718   3.068   3.869   0.244 -0.4261  0.2105 -0.9184
 1743TIP3   OH226719   1.892   0.678   2.268  0.4054  0.2126  0.8843
 1743TIP3    H126720   1.961   0.703   2.207 -1.8405  2.0109 -1.1366
 1743TIP3    H226721   1.900   0.583   2.275  2.9440  0.3338  0.6427
 1744TIP3   OH226722   5.991   1.701  12.030  0.7778 -0.8126  0.1605
 1744TIP3    H126723   6.077   1.695  11.989  1.3541 -0.8616  1.3288
 1744TIP3    H226724   5.965   1.610  12.046 -0.1461 -0.8676 -1.4484
 1745TIP3   OH226725   5.177   5.117  12.373 -0.3016  0.1493  0.2369
 1745TIP3    H126726   5.182   5.049  12.440 -1.3018  0.6811  0.8767
 1745TIP3    H226727   5.095   5.163  12.391  0.1491  1.2623 -0.4254
 1746TIP3   OH226728   3.879   4.562   0.611  0.0409 -0.2080  0.0385
 1746TIP3    H126729   3.942   4.610   0.557  0.4681  2.0280  2.3434
 1746TIP3    H226730   3.923   4.479   0.631  2.0006  0.9916  0.9692
 1747TIP3   OH226731   2.933   1.569  16.963  0.1101  0.1845  0.0586
 1747TIP3    H126732   2.882   1.528  16.893 -0.3635 -1.2179  1.1670
 1747TIP3    H226733   3.010   1.514  16.970  0.5259  0.7731  0.1453
 1748TIP3   OH226734   2.196   5.825   1.396  0.0604  0.2571  0.4070
 1748TIP3    H126735   2.274   5.816   1.340 -0.7377  0.5918 -0.7930
 1748TIP3    H226736   2.138   5.755   1.366 -0.1758  0.1141  1.1914
 1749TIP3   OH226737   2.254   5.204  12.665  0.2090  0.2323  0.1403
 1749TIP3    H126738   2.286   5.168  12.582 -0.1644 -1.2119  0.5903
 1749TIP3    H226739   2.257   5.299  12.652  2.5211  0.1250 -0.6106
 1750TIP3   OH226740   2.055   1.196   5.665  0.0620 -0.2197 -0.1384
 1750TIP3    H126741   2.043   1.101   5.654  0.6482 -0.3095 -0.0212
 1750TIP3    H226742   2.123   1.204   5.733 -1.1147  0.2895  1.0297
 1751TIP3   OH226743   2.368   2.119   1.071 -0.2302 -0.3074  0.0148
 1751TIP3    H126744   2.403   2.030   1.076 -0.3319 -0.3256  0.4425
 1751TIP3    H226745   2.347   2.131   0.978  1.1476 -0.2039 -0.3059
 1752TIP3   OH226746   6.216   4.922  14.066  0.4031  0.0718 -0.2424
 1752TIP3    H126747   6.242   4.994  14.124 -0.1546 -1.8427  2.5920
 1752TIP3    H226748   6.214   4.845  14.123  0.1626 -2.0767 -2.9447
 1753TIP3   OH226749   5.898   3.322  12.992  0.5173  0.7759  0.1027
 1753TIP3    H126750   5.821   3.370  13.024  0.8760  1.2230  0.2982
 1753TIP3    H226751   5.862   3.239  12.962  0.1229  0.4154  1.4594
 1754TIP3   OH226752   3.597   0.852   1.615 -0.1824  0.3457 -0.0959
 1754TIP3    H126753   3.556   0.893   1.539  0.0526  1.6905  0.4746
 1754TIP3    H226754   3.567   0.761   1.612 -0.5890  0.5021 -1.4929
 1755TIP3   OH226755   0.646   2.127   2.654  0.3790  0.5754  0.1095
 1755TIP3    H126756   0.633   2.102   2.745  1.4068  0.5021  0.2436
 1755TIP3    H226757   0.557   2.139   2.620 -0.0360 -0.0724  0.9231
 1756TIP3   OH226758   1.129   5.916   0.231  0.0438 -1.0647  0.2137
 1756TIP3    H126759   1.140   6.009   0.212  0.5451 -0.8427  1.4528
 1756TIP3    H226760   1.042   5.894   0.199  0.3345 -0.4353 -1.0507
 1757TIP3   OH226761   4.522   1.862  15.941  0.1465  0.0497 -0.0461
 1757TIP3    H126762   4.474   1.790  15.982  2.6491 -1.6071  0.2264
 1757TIP3    H226763   4.611   1.855  15.977  1.1583  1.6554 -2.0171
 1758TIP3   OH226764   1.092   2.751   3.991 -0.0593  0.1208 -0.1697
 1758TIP3    H126765   1.134   2.823   4.038  1.8639 -1.3395  0.4843
 1758TIP3    H226766   1.023   2.721   4.050  1.9327 -1.2941  1.5730
 1759TIP3   OH226767   2.214   3.961   3.308 -0.6573  0.3787 -0.2209
 1759TIP3    H126768   2.233   3.919   3.391  1.3700  1.3304 -0.1476
 1759TIP3    H226769   2.118   3.960   3.302 -0.9825  1.6982  2.8937
 1760TIP3   OH226770   1.144   2.494  12.980 -0.1830 -0.7633 -0.3553
 1760TIP3    H126771   1.195   2.573  12.964  0.4896 -1.2273 -0.5015
 1760TIP3    H226772   1.086   2.488  12.904 -0.9779  0.1460  0.1430
 1761TIP3   OH226773   6.590   0.428  13.063 -0.4316  0.0627 -0.1224
 1761TIP3    H126774   6.627   0.401  12.979 -1.2913  0.2499 -0.5649
 1761TIP3    H226775   6.666   0.454  13.115 -0.0338  1.8682 -1.5189
 1762TIP3   OH226776   1.808   4.967   4.342  0.2231  0.0021  0.0524
 1762TIP3    H126777   1.719   4.960   4.378 -0.4261  1.4622 -1.1407
 1762TIP3    H226778   1.800   4.935   4.252  1.2052 -0.9966  0.2979
 1763TIP3   OH226779   2.709   3.916   2.278  0.7391 -0.1810  0.2022
 1763TIP3    H126780   2.704   3.993   2.220  0.6575 -0.4601 -0.1653
 1763TIP3    H226781   2.688   3.951   2.365 -0.8603 -0.0526 -0.2060
 1764TIP3   OH226782   3.409   3.295   3.684 -0.5068 -0.3636 -0.0633
 1764TIP3    H126783   3.501   3.286   3.709 -1.0962 -0.9999  2.0672
 1764TIP3    H226784   3.397   3.390   3.675  0.1171 -0.1974  0.6821
 1765TIP3   OH226785   6.621   1.099  15.513 -0.4058 -0.4538  0.6176
 1765TIP3    H126786   6.613   1.186  15.475  0.2695 -0.6545 -0.0149
 1765TIP3    H226787   6.629   1.041  15.437 -0.2595 -0.9979  1.0437
 1766TIP3   OH226788   2.843   4.348   0.811 -0.3260  0.2051 -0.7292
 1766TIP3    H126789   2.869   4.410   0.878 -0.9467  0.9175 -1.1280
 1766TIP3    H226790   2.835   4.400   0.731 -2.7559  0.0393 -0.6787
 1767TIP3   OH226791   6.762   6.087  15.407  0.7676  0.5795 -0.0063
 1767TIP3    H126792   6.692   6.022  15.412  0.0913  1.2422 -0.5873
 1767TIP3    H226793   6.803   6.084  15.494  1.1612 -1.0448 -0.2157
 1768TIP3   OH226794   2.103   2.739   2.288  0.1539  0.4447 -0.0975
 1768TIP3    H126795   2.046   2.691   2.228  2.4432  0.2365 -2.2866
 1768TIP3    H226796   2.144   2.671   2.341  0.8768  0.2233 -0.9026
 1769TIP3   OH226797   2.563   4.856   5.554 -0.4505  0.0313 -0.0755
 1769TIP3    H126798   2.575   4.778   5.607 -1.3702  0.1516  0.3342
 1769TIP3    H226799   2.490   4.834   5.496 -0.3917  0.4145 -0.2977
 1770TIP3   OH226800   2.874   5.093   0.287 -0.0517 -0.0237 -0.1156
 1770TIP3    H126801   2.878   5.092   0.383  1.7408  2.8623 -0.0333
 1770TIP3    H226802   2.895   5.004   0.261 -1.8245 -1.2264  2.1388
 1771TIP3   OH226803   3.914   4.939  15.711 -0.3259  0.0251 -0.0614
 1771TIP3    H126804   3.864   5.021  15.711  0.3688  0.4596  0.3495
 1771TIP3    H226805   3.866   4.881  15.770 -0.0996  0.5976  0.6960
 1772TIP3   OH226806   6.581   3.720  14.499  0.4446 -0.3543  0.3737
 1772TIP3    H126807   6.655   3.772  14.468  0.2162 -0.2934 -0.0796
 1772TIP3    H226808   6.508   3.783  14.503  0.5489 -0.2813  1.3646
 1773TIP3   OH226809   2.666   0.427   0.403  0.1102  0.1876 -0.4548
 1773TIP3    H126810   2.745   0.446   0.454  0.7901 -0.6480 -1.1541
 1773TIP3    H226811   2.607   0.385   0.465 -0.5547  2.4435  0.5449
 1774TIP3   OH226812   2.162   5.500   4.859  0.0997  0.5191 -0.1178
 1774TIP3    H126813   2.149   5.444   4.936 -0.2907  2.0890  1.0030
 1774TIP3    H226814   2.079   5.495   4.811  0.3597 -0.4978 -0.4901
 1775TIP3   OH226815   0.767   5.541   3.772 -0.4403  0.2582 -0.1558
 1775TIP3    H126816   0.683   5.501   3.753  0.2262 -0.6081 -1.4290
 1775TIP3    H226817   0.755   5.583   3.857 -2.0181 -0.2019 -0.1205
 1776TIP3   OH226818   2.245   6.273  11.023  0.1277  0.1105 -0.1875
 1776TIP3    H126819   2.159   6.231  11.016  0.0574  0.4070 -1.3530
 1776TIP3    H226820   2.270   6.291  10.932  2.1690 -1.4511 -0.0227
 1777TIP3   OH226821   6.641   6.571  14.418 -0.4981  0.1641 -1.3903
 1777TIP3    H126822   6.735   6.558  14.409 -0.5949 -0.2231 -1.8356
 1777TIP3    H226823   6.619   6.528  14.500  0.0929  2.2512 -0.0515
 1778TIP3   OH226824   6.248   4.166  12.002  0.6434  0.0514 -0.4331
 1778TIP3    H126825   6.323   4.148  11.946  0.7725 -1.4029  0.1761
 1778TIP3    H226826   6.285   4.178  12.089  0.1986 -0.4068 -0.1761
 1779TIP3   OH226827   2.288   2.481   1.353  0.4989  0.1245  0.0981
 1779TIP3    H126828   2.340   2.401   1.348  0.5410  0.0813  1.1701
 1779TIP3    H226829   2.210   2.462   1.301 -0.0733 -1.0583  1.3443
 1780TIP3   OH226830   6.336   4.193   4.192 -0.5230 -0.0648 -0.7589
 1780TIP3    H126831   6.313   4.266   4.134 -0.2773 -1.2218 -2.3881
 1780TIP3    H226832   6.399   4.142   4.141  0.0099 -0.9184  0.7145
 1781TIP3   OH226833   0.447   3.786   6.053  0.1703 -0.5061  0.1709
 1781TIP3    H126834   0.473   3.695   6.034  0.9839  0.0907 -1.9101
 1781TIP3    H226835   0.530   3.833   6.061 -0.1656 -0.2211  3.3353
 1782TIP3   OH226836   5.967   0.966   1.218 -0.4686 -0.0183 -0.0815
 1782TIP3    H126837   6.008   0.887   1.184 -0.6608  0.1026 -0.6059
 1782TIP3    H226838   5.908   0.935   1.287 -1.6804 -0.5048 -1.2911
 1783TIP3   OH226839   4.786   3.828   2.520  0.3380 -0.6786  0.4862
 1783TIP3    H126840   4.787   3.812   2.426  0.1188 -1.6883  0.6322
 1783TIP3    H226841   4.753   3.746   2.557  0.8513 -0.4572  1.4735
 1784TIP3   OH226842   4.738   6.649  16.672  0.1751 -0.1784 -0.3235
 1784TIP3    H126843   4.812   6.708  16.687  1.1514 -1.7236  1.3403
 1784TIP3    H226844   4.778   6.570  16.633 -0.7401 -0.6539 -0.3233
 1785TIP3   OH226845   5.065   3.066   5.736 -0.4150 -0.4290 -0.4223
 1785TIP3    H126846   5.012   3.030   5.807  2.0868 -1.7623  0.8967
 1785TIP3    H226847   5.018   3.145   5.709 -2.1340 -0.5749  1.8237
 1786TIP3   OH226848   3.349   6.222   2.957  0.2730  0.4069 -0.0737
 1786TIP3    H126849   3.413   6.292   2.944 -1.4863  2.2287  0.6861
 1786TIP3    H226850   3.336   6.219   3.052 -1.7117  0.9808 -0.3001
 1787TIP3   OH226851   1.716   2.210  15.857  0.1671  0.1462  0.6159
 1787TIP3    H126852   1.637   2.157  15.846  0.3786  0.0167 -0.3131
 1787TIP3    H226853   1.686   2.300  15.849 -0.1361  0.1707  1.8503
 1788TIP3   OH226854   2.862   1.778  17.108  0.2408 -0.6138 -0.3794
 1788TIP3    H126855   2.855   1.716  17.180 -1.2290  0.1207  0.1553
 1788TIP3    H226856   2.873   1.723  17.030  1.6588 -1.4204  0.3483
 1789TIP3   OH226857   0.916   4.664   4.865  0.0937  0.0361 -0.0785
 1789TIP3    H126858   0.902   4.599   4.934 -0.2256  0.2639  0.0756
 1789TIP3    H226859   0.926   4.747   4.912  1.5729 -0.0528 -0.2104
 1790TIP3   OH226860   4.033   4.016  11.613 -0.8475  0.3472  0.3224
 1790TIP3    H126861   3.957   4.068  11.589 -2.1988 -1.3501  0.7238
 1790TIP3    H226862   3.999   3.927  11.624  1.6188 -1.0673 -2.1168
 1791TIP3   OH226863   1.179   5.389  11.716  0.1501 -0.4692  0.1555
 1791TIP3    H126864   1.172   5.415  11.624  0.2372 -1.3106 -0.0946
 1791TIP3    H226865   1.110   5.439  11.760 -0.1054 -0.3085 -0.4206
 1792TIP3   OH226866   5.721   6.116  11.646 -0.2045  0.6887 -0.0392
 1792TIP3    H126867   5.743   6.027  11.618  2.9198  1.4973 -0.5283
 1792TIP3    H226868   5.703   6.163  11.564 -0.0716  0.9064  0.0553
 1793TIP3   OH226869   0.183   0.754  15.936 -0.0181  0.4003  0.1171
 1793TIP3    H126870   0.244   0.826  15.917 -0.3795  0.5136 -0.6531
 1793TIP3    H226871   0.211   0.721  16.022  2.1772 -0.6308 -0.9133
 1794TIP3   OH226872   4.122   0.076  14.909 -0.0069 -0.5915 -0.1314
 1794TIP3    H126873   4.105   0.102  14.819 -0.3440  0.8457  0.3284
 1794TIP3    H226874   4.058   0.125  14.961  0.3619 -1.1822  0.9176
 1795TIP3   OH226875   4.956   5.066  16.034  0.1999 -0.1967 -0.4705
 1795TIP3    H126876   4.972   5.095  16.124 -0.7067  0.2874 -0.4466
 1795TIP3    H226877   5.043   5.049  15.998  0.5630 -0.6120  0.5633
 1796TIP3   OH226878   3.676   1.836   4.454  0.0795 -1.0519 -0.4242
 1796TIP3    H126879   3.729   1.851   4.533 -2.0208  2.7496  0.5092
 1796TIP3    H226880   3.609   1.773   4.482 -1.5400  1.3338  1.4616
 1797TIP3   OH226881   0.467   4.695   2.419 -0.1362  0.1143 -0.4841
 1797TIP3    H126882   0.403   4.673   2.351  0.5155 -0.2129 -1.0017
 1797TIP3    H226883   0.430   4.772   2.462  0.3182  1.4988 -2.4384
 1798TIP3   OH226884   0.913   3.782   0.698 -0.3259 -0.3727  0.1613
 1798TIP3    H126885   0.997   3.738   0.709 -0.3216 -0.3515  0.2159
 1798TIP3    H226886   0.893   3.817   0.785 -0.1070  0.1378  0.0083
 1799TIP3   OH226887   0.567   0.935   3.998 -0.2020  0.3128 -0.5154
 1799TIP3    H126888   0.559   0.993   4.073 -1.6065  1.1986 -1.3028
 1799TIP3    H226889   0.503   0.865   4.015 -1.5739  1.2747 -1.5002
 1800TIP3   OH226890   4.483   4.839   4.931 -0.5153 -0.2657 -0.2036
 1800TIP3    H126891   4.572   4.807   4.914 -0.7782 -1.0369 -0.1761
 1800TIP3    H226892   4.495   4.910   4.995 -0.1096 -2.0822  1.8484
 1801TIP3   OH226893   3.276   1.270   3.051  0.0273 -0.7023 -0.0638
 1801TIP3    H126894   3.284   1.363   3.029  1.8348 -1.3635 -2.5916
 1801TIP3    H226895   3.309   1.264   3.141 -1.4354  1.2287  0.6813
 1802TIP3   OH226896   1.762   4.019  16.122  0.1828  0.7939  0.0111
 1802TIP3    H126897   1.730   3.944  16.071 -3.5607  0.0936  2.9517
 1802TIP3    H226898   1.853   3.997  16.142 -0.3741 -2.3467 -0.4045
 1803TIP3   OH226899   6.602   5.610   5.232 -0.0192  0.0737 -0.1021
 1803TIP3    H126900   6.553   5.688   5.258  0.8314  0.3983  0.5844
 1803TIP3    H226901   6.627   5.625   5.141  0.4146  0.7551  0.1256
 1804TIP3   OH226902   3.084   5.172  11.312  0.1092 -0.3564  0.5187
 1804TIP3    H126903   3.022   5.162  11.385  1.8664 -0.5601  2.0420
 1804TIP3    H226904   3.032   5.213  11.243 -1.5773  0.0386  1.9404
 1805TIP3   OH226905   1.391   1.520  12.881  0.3760  0.0734 -0.2802
 1805TIP3    H126906   1.353   1.603  12.909 -1.1318 -0.8102  0.4151
 1805TIP3    H226907   1.407   1.531  12.787 -2.1267  0.3350 -0.7387
 1806TIP3   OH226908   0.466   0.301   5.643  0.1836 -0.2172  0.3014
 1806TIP3    H126909   0.502   0.212   5.640  0.9313  0.0848 -0.1307
 1806TIP3    H226910   0.503   0.343   5.565  0.2268  0.6117  0.7677
 1807TIP3   OH226911   1.270   5.472   0.909 -0.4074 -0.0109 -0.4830
 1807TIP3    H126912   1.261   5.377   0.919 -2.4326  0.0389 -1.3713
 1807TIP3    H226913   1.304   5.502   0.993  2.6364 -1.7373 -0.9641
 1808TIP3   OH226914   3.731   6.476  14.482  0.1913 -0.0454 -0.3202
 1808TIP3    H126915   3.772   6.423  14.550  0.5983  0.4425 -0.1761
 1808TIP3    H226916   3.794   6.546  14.465 -0.2134  0.2324 -0.7036
 1809TIP3   OH226917   6.646   6.484  13.686 -0.2395  0.2687 -0.4743
 1809TIP3    H126918   6.709   6.455  13.621  0.1121 -1.4272  0.5636
 1809TIP3    H226919   6.697   6.491  13.767 -0.7233  2.0644 -0.2817
 1810TIP3   OH226920   3.936   0.637  17.030 -0.3399  0.0305 -0.0513
 1810TIP3    H126921   4.031   0.631  17.017 -0.0609  1.9894  0.7253
 1810TIP3    H226922   3.902   0.552  17.000  1.8483 -1.5689  1.6472
 1811TIP3   OH226923   4.710   6.374  13.061  0.3277 -0.3356  0.1987
 1811TIP3    H126924   4.692   6.319  13.137 -1.5107 -0.6064 -0.3624
 1811TIP3    H226925   4.735   6.312  12.992  1.0115 -0.1849  0.3052
 1812TIP3   OH226926   1.430   4.727   4.918  0.1642 -0.3156 -0.4849
 1812TIP3    H126927   1.439   4.747   4.825  0.0790  0.1342 -0.3949
 1812TIP3    H226928   1.499   4.662   4.935  0.9226  0.4396 -0.6108
 1813TIP3   OH226929   6.604   1.745   3.016  0.1216 -0.4240  0.8964
 1813TIP3    H126930   6.543   1.685   2.972  1.0940 -0.4521 -0.4834
 1813TIP3    H226931   6.669   1.688   3.056 -0.1603 -0.3536  1.4678
 1814TIP3   OH226932   5.066   4.319   4.002  0.3851 -0.3404 -0.5484
 1814TIP3    H126933   5.026   4.389   3.950 -1.8871 -1.1529 -0.0069
 1814TIP3    H226934   5.110   4.365   4.074  2.9288  0.7474 -2.6401
 1815TIP3   OH226935   0.300   2.781   5.092 -0.5560  0.0861 -0.1627
 1815TIP3    H126936   0.237   2.829   5.146  0.1658 -0.7405  1.5031
 1815TIP3    H226937   0.382   2.829   5.103 -0.4003 -0.0814 -0.5542
 1816TIP3   OH226938   3.318   6.168  17.005  0.2841 -0.1050 -0.4487
 1816TIP3    H126939   3.372   6.200  16.932 -0.0129 -1.7822 -1.4476
 1816TIP3    H226940   3.234   6.214  16.994  0.6179  0.5119 -0.4694
 1817TIP3   OH226941   4.645   0.880  11.066 -0.0107 -0.3699  0.3353
 1817TIP3    H126942   4.613   0.925  10.988  0.2224  0.2646  0.6019
 1817TIP3    H226943   4.641   0.787  11.043  0.3878 -0.1753 -0.5593
 1818TIP3   OH226944   1.391   3.023  14.358  0.0914  0.0512  0.4324
 1818TIP3    H126945   1.373   3.050  14.268  0.8644 -0.1652  0.2047
 1818TIP3    H226946   1.428   2.935  14.349  1.6809  0.6498  0.8245
 1819TIP3   OH226947   0.760   1.396   1.966 -0.6015 -0.2276 -0.2855
 1819TIP3    H126948   0.787   1.390   2.058 -0.0836 -2.5183 -0.5121
 1819TIP3    H226949   0.678   1.444   1.968 -0.4180  0.0819  1.3475
 1820TIP3   OH226950   1.314   1.688  14.467  0.5190  0.0863  0.1811
 1820TIP3    H126951   1.239   1.634  14.443  0.6553  0.3431 -0.8615
 1820TIP3    H226952   1.305   1.700  14.562  0.3679 -1.5530  0.3914
 1821TIP3   OH226953   6.331   1.775  15.938  0.0195 -0.1123  0.5814
 1821TIP3    H126954   6.392   1.778  15.864 -1.5081 -0.5889 -0.7543
 1821TIP3    H226955   6.354   1.851  15.991  1.2363  0.1778 -0.3082
 1822TIP3   OH226956   2.260   4.027   1.935  0.4693 -0.4655 -0.3216
 1822TIP3    H126957   2.347   4.019   1.895  0.2536  1.6360 -1.3350
 1822TIP3    H226958   2.214   3.947   1.909  2.1047 -1.6758  0.3303
 1823TIP3   OH226959   2.385   3.712  15.579 -0.4460  0.7018 -0.0645
 1823TIP3    H126960   2.459   3.709  15.518 -1.5830  1.2991 -1.5591
 1823TIP3    H226961   2.381   3.803  15.607 -0.2609  0.5429  0.4786
 1824TIP3   OH226962   0.283   6.315   4.777 -0.3661 -0.3044  0.3059
 1824TIP3    H126963   0.215   6.255   4.809  1.7925 -2.3605  1.3156
 1824TIP3    H226964   0.265   6.324   4.683 -3.1146  0.7937  0.8504
 1825TIP3   OH226965   4.143   3.742  12.651  0.6553  0.1042 -0.0307
 1825TIP3    H126966   4.220   3.788  12.685  0.9984 -0.7771  0.4268
 1825TIP3    H226967   4.179   3.683  12.584  0.3904 -0.3209  0.1941
 1826TIP3   OH226968   5.464   1.443  14.216 -0.1046 -0.3932  0.0416
 1826TIP3    H126969   5.383   1.486  14.244  0.4889  1.0771 -0.3785
 1826TIP3    H226970   5.511   1.423  14.297 -0.5673 -0.6186  0.2567
 1827TIP3   OH226971   4.424   5.611   6.702 -0.1632 -0.4419 -0.0121
 1827TIP3    H126972   4.410   5.550   6.629 -0.9331 -1.1616  0.7145
 1827TIP3    H226973   4.357   5.587   6.766  1.3267 -0.6972  1.5123
 1828TIP3   OH226974   4.263   5.255   0.533 -0.0683 -0.5677 -0.0551
 1828TIP3    H126975   4.186   5.285   0.486 -1.1292 -0.9469  1.3602
 1828TIP3    H226976   4.275   5.319   0.603  0.7039 -0.7076 -0.0473
 1829TIP3   OH226977   6.226   1.990   1.003  0.0263 -0.2625  0.3845
 1829TIP3    H126978   6.317   2.018   1.011  0.3853 -1.2687  0.0562
 1829TIP3    H226979   6.187   2.009   1.088  0.3066  0.9836  0.2407
 1830TIP3   OH226980   4.625   1.749  15.468 -0.6096 -0.4767  0.3404
 1830TIP3    H126981   4.558   1.690  15.503  1.1092 -0.8737  3.3604
 1830TIP3    H226982   4.694   1.749  15.535 -0.0244  4.1759  0.1004
 1831TIP3   OH226983   3.586   3.709   1.826  0.1964 -0.0228 -0.1081
 1831TIP3    H126984   3.648   3.721   1.897  1.0064  0.1038 -0.8182
 1831TIP3    H226985   3.626   3.753   1.751 -0.7875  0.1250 -0.5647
 1832TIP3   OH226986   5.748   4.963   6.165 -0.4408 -0.6069 -0.5466
 1832TIP3    H126987   5.836   4.943   6.197 -0.2564  0.6031 -0.2853
 1832TIP3    H226988   5.763   5.006   6.080 -0.6855  1.0330  0.2085
 1833TIP3   OH226989   5.058   4.156  12.047 -0.5874  0.3456 -0.1148
 1833TIP3    H126990   5.009   4.158  11.965 -0.6047  0.0444 -0.1154
 1833TIP3    H226991   5.016   4.221  12.102 -0.7949  0.3070 -0.2247
 1834TIP3   OH226992   2.931   4.898  11.208 -0.2124 -0.4886 -0.1050
 1834TIP3    H126993   2.917   4.852  11.125  0.8435 -0.3431 -0.3793
 1834TIP3    H226994   2.912   4.990  11.188  1.5994 -0.1993 -0.6311
 1835TIP3   OH226995   3.496   1.402  15.795 -0.2119  0.2727 -0.0949
 1835TIP3    H126996   3.424   1.346  15.827 -1.0230  0.2797 -1.7805
 1835TIP3    H226997   3.553   1.414  15.871 -1.5403 -0.4603  1.0638
 1836TIP3   OH226998   6.290   5.968  15.866 -0.3176 -0.3837 -0.1025
 1836TIP3    H126999   6.339   6.035  15.820  0.3827  0.0948  1.2767
 1836TIP3    H227000   6.252   5.914  15.797  0.6574  0.3081 -1.2189
 1837TIP3   OH227001   6.003   0.014  12.947 -0.1790  0.3186  0.3171
 1837TIP3    H127002   5.948   0.067  13.004  0.1254  0.9049  0.0758
 1837TIP3    H227003   6.091   0.050  12.958 -0.1599  0.6505 -0.7381
 1838TIP3   OH227004   1.308   2.916  15.255  0.3436 -0.2410  0.0823
 1838TIP3    H127005   1.278   2.825  15.257 -1.9771  0.3610 -2.1248
 1838TIP3    H227006   1.264   2.957  15.331  0.4716 -0.6973  0.4063
 1839TIP3   OH227007   5.438   2.199   0.409 -0.6267  0.0044  0.0341
 1839TIP3    H127008   5.525   2.216   0.373 -0.7424  0.0200 -0.2417
 1839TIP3    H227009   5.378   2.240   0.347 -1.0291 -2.8841 -1.6880
 1840TIP3   OH227010   2.242   2.216  11.666 -0.1560 -0.0209  0.5007
 1840TIP3    H127011   2.150   2.200  11.644 -0.3715 -0.8938  1.9447
 1840TIP3    H227012   2.247   2.310  11.679 -1.5797 -0.2348  3.3420
 1841TIP3   OH227013   3.021   0.805   2.257 -0.4971 -0.3459 -0.1883
 1841TIP3    H127014   2.949   0.851   2.213 -0.0818  0.2936 -0.2206
 1841TIP3    H227015   2.979   0.734   2.304 -1.2778  0.6361  0.6315
 1842TIP3   OH227016   2.155   1.881  12.818  0.2482 -0.1019 -0.3728
 1842TIP3    H127017   2.164   1.787  12.837 -0.3540  0.2329  1.8673
 1842TIP3    H227018   2.223   1.899  12.754  2.9970 -1.3389  2.0083
 1843TIP3   OH227019   3.546   3.388   1.151  0.3483 -0.4493  0.1720
 1843TIP3    H127020   3.619   3.425   1.201 -0.1207 -0.3521  0.8022
 1843TIP3    H227021   3.502   3.465   1.114  1.5575 -0.5853 -1.6658
 1844TIP3   OH227022   5.124   3.859  13.033 -0.2577 -0.7631 -0.0014
 1844TIP3    H127023   5.145   3.806  12.957  2.9198 -0.9946  0.9179
 1844TIP3    H227024   5.187   3.931  13.031 -2.2517  1.1223  0.6605
 1845TIP3   OH227025   5.435   6.038  14.403 -0.2350  0.0784  0.0673
 1845TIP3    H127026   5.394   6.009  14.484 -0.6354 -1.2371 -0.5706
 1845TIP3    H227027   5.509   5.978  14.390 -1.7457 -1.5523 -1.8600
 1846TIP3   OH227028   0.162   5.597  14.391  0.3918  0.1461  0.0524
 1846TIP3    H127029   0.073   5.571  14.368 -0.9396  1.5556  3.1223
 1846TIP3    H227030   0.176   5.559  14.477  1.4330  2.7559  1.1203
 1847TIP3   OH227031   6.587   0.391   2.595  0.2784  0.6089 -0.0771
 1847TIP3    H127032   6.640   0.470   2.590 -0.1462  0.8896 -0.2121
 1847TIP3    H227033   6.643   0.322   2.559  1.1124  0.5914  1.2034
 1848TIP3   OH227034   0.441   3.627  13.640  0.4899  0.3949  0.6903
 1848TIP3    H127035   0.444   3.674  13.723 -2.5640  2.3941 -0.1626
 1848TIP3    H227036   0.529   3.637  13.604  1.3086  1.2272  2.7368
 1849TIP3   OH227037   3.806   1.155  15.970  0.1786 -0.1478  0.1396
 1849TIP3    H127038   3.846   1.153  16.057 -0.6163 -0.6941  0.5077
 1849TIP3    H227039   3.847   1.083  15.923  1.3251  0.7517 -0.2841
 1850TIP3   OH227040   2.001   6.523   3.528  0.2967 -0.4459  0.6193
 1850TIP3    H127041   2.040   6.449   3.482 -0.3360 -0.7255  0.5276
 1850TIP3    H227042   1.973   6.486   3.612 -1.1830 -0.6188  0.0670
 1851TIP3   OH227043   0.702   5.605  14.898  0.6659 -0.0554  0.0529
 1851TIP3    H127044   0.638   5.547  14.939  1.0818  0.3244  1.2984
 1851TIP3    H227045   0.771   5.614  14.964  3.2969 -2.4601 -2.1075
 1852TIP3   OH227046   2.532   4.242   0.281 -0.2664  0.3313 -0.1564
 1852TIP3    H127047   2.608   4.230   0.224 -0.4053  1.7941 -0.6732
 1852TIP3    H227048   2.566   4.289   0.357 -0.9021  2.2835 -1.0432
 1853TIP3   OH227049   2.007   6.486  10.664 -0.3061 -0.4902  0.5919
 1853TIP3    H127050   1.924   6.466  10.706  1.0399 -0.8443  3.2887
 1853TIP3    H227051   2.030   6.573  10.696 -0.8091  0.7635 -2.2116
 1854TIP3   OH227052   6.252   3.046   5.495  0.9500 -0.3868  0.2519
 1854TIP3    H127053   6.341   3.067   5.523  0.6111 -0.7741  1.6840
 1854TIP3    H227054   6.200   3.123   5.519  0.8777 -0.1851 -0.5247
 1855TIP3   OH227055   3.747   3.582   1.258  0.9107  0.3640  0.0559
 1855TIP3    H127056   3.736   3.676   1.275 -0.5269  0.2878 -0.3151
 1855TIP3    H227057   3.777   3.578   1.167  0.4625  0.4475 -0.0967
 1856TIP3   OH227058   6.575   6.148   4.623  0.3871  0.0585 -0.0216
 1856TIP3    H127059   6.551   6.112   4.709  2.2514 -0.6109  0.2882
 1856TIP3    H227060   6.610   6.073   4.575  0.0992  0.5909 -1.0884
 1857TIP3   OH227061   3.842   3.786   0.327 -0.6733  0.0001  0.2512
 1857TIP3    H127062   3.885   3.862   0.364  1.1046 -1.1677  0.6955
 1857TIP3    H227063   3.853   3.795   0.232 -0.6101  0.3557  0.2937
 1858TIP3   OH227064   3.491   3.420  13.681  0.0142 -0.0915  0.0720
 1858TIP3    H127065   3.461   3.493  13.736 -1.1801 -0.8823  0.5077
 1858TIP3    H227066   3.420   3.356  13.686  0.9185 -1.1642 -0.5438
 1859TIP3   OH227067   1.672   0.815   2.192  0.4212 -0.2514 -0.0118
 1859TIP3    H127068   1.742   0.758   2.223  2.4310  0.9134 -2.1571
 1859TIP3    H227069   1.680   0.814   2.097 -1.6190  1.0107 -0.2518
 1860TIP3   OH227070   5.081   3.313   5.442  0.2120  0.1525 -0.1490
 1860TIP3    H127071   5.110   3.405   5.440 -0.8082  0.4880 -0.1172
 1860TIP3    H227072   5.144   3.269   5.498  0.8263  0.7954 -0.3194
 1861TIP3   OH227073   1.850   3.505  13.070  0.1749 -0.0070 -0.1363
 1861TIP3    H127074   1.864   3.532  13.161  1.7223  1.1235 -0.6713
 1861TIP3    H227075   1.757   3.483  13.066  0.1830 -0.6156  1.8401
 1862TIP3   OH227076   1.555   3.783  17.421 -0.2424 -0.0620  0.2649
 1862TIP3    H127077   1.465   3.812  17.410 -0.3985  1.8754  4.7009
 1862TIP3    H227078   1.547   3.693  17.452 -0.4855 -0.4132 -0.7575
 1863TIP3   OH227079   0.333   4.266  13.630 -0.1299  0.5772  0.3058
 1863TIP3    H127080   0.310   4.176  13.655  1.0024  0.4736  1.0434
 1863TIP3    H227081   0.262   4.293  13.573 -0.4116 -0.8512 -0.0738
 1864TIP3   OH227082   1.881   6.225  14.477  0.0256 -0.4247 -0.6641
 1864TIP3    H127083   1.883   6.185  14.564  0.0943 -1.0511 -0.9455
 1864TIP3    H227084   1.894   6.318  14.493 -1.4190 -0.3325  0.1074
 1865TIP3   OH227085   3.761   6.238   0.505  0.3450 -0.1874 -0.5506
 1865TIP3    H127086   3.834   6.181   0.531 -0.4376 -1.3084 -0.7072
 1865TIP3    H227087   3.783   6.324   0.541  2.7775  0.0548 -2.3803
 1866TIP3   OH227088   6.270   5.879  14.987 -0.0326  0.1937 -0.2097
 1866TIP3    H127089   6.290   5.912  14.899  1.5379 -0.7616 -0.2617
 1866TIP3    H227090   6.324   5.800  14.995  0.1158  0.4502  1.7419
 1867TIP3   OH227091   2.995   4.399  11.944 -0.4271 -0.4598  0.2842
 1867TIP3    H127092   3.053   4.416  11.869 -0.3888  0.0512  0.4227
 1867TIP3    H227093   2.909   4.388  11.904 -0.1942 -1.5296  0.0494
 1868TIP3   OH227094   6.637   1.387   4.204  0.3619 -0.1890 -0.2580
 1868TIP3    H127095   6.634   1.442   4.282  1.2646 -0.0588 -0.2988
 1868TIP3    H227096   6.553   1.340   4.204  0.8380 -1.1746  1.5090
 1869TIP3   OH227097   2.832   3.859   3.584  0.0512  0.3102 -0.0945
 1869TIP3    H127098   2.784   3.787   3.544  0.4011  0.4894 -0.8665
 1869TIP3    H227099   2.845   3.832   3.675 -1.5672  0.3083  0.1554
 1870TIP3   OH227100   2.866   0.418  14.897  0.1525  0.2468  0.1794
 1870TIP3    H127101   2.886   0.459  14.981 -1.1679  1.0634  0.1312
 1870TIP3    H227102   2.776   0.447  14.878  0.7284  0.7907 -1.9153
 1871TIP3   OH227103   2.354   4.656  16.469  0.0458 -0.1326  0.0123
 1871TIP3    H127104   2.261   4.660  16.450  0.5649  0.4336 -2.8371
 1871TIP3    H227105   2.395   4.709  16.402  2.4546 -0.2898  1.2350
 1872TIP3   OH227106   4.042   2.202  15.955  0.1900  0.3406 -0.2524
 1872TIP3    H127107   3.982   2.247  16.015 -2.1624 -3.1049  0.3195
 1872TIP3    H227108   4.022   2.239  15.869  0.3313  2.1803  0.4644
 1873TIP3   OH227109   1.804   3.194  11.941  0.3746 -0.9585 -0.0087
 1873TIP3    H127110   1.743   3.224  11.874 -0.3590 -0.1734  0.9819
 1873TIP3    H227111   1.860   3.131  11.896  1.1389  0.9168 -1.8344
 1874TIP3   OH227112   1.827   3.892  11.678  0.5346  0.4160 -0.1173
 1874TIP3    H127113   1.902   3.933  11.635  0.9057  0.9148  0.9631
 1874TIP3    H227114   1.794   3.828  11.614  1.4140  0.7193 -0.8932
 1875TIP3   OH227115   3.844   1.522  12.358 -0.1458 -0.6027 -0.4294
 1875TIP3    H127116   3.861   1.443  12.410  0.7934 -1.3126 -1.7617
 1875TIP3    H227117   3.818   1.489  12.272  1.6378  0.4986 -1.4658
 1876TIP3   OH227118   4.287   5.479   0.701  0.1693  0.0219 -0.0342
 1876TIP3    H127119   4.252   5.528   0.627  1.2043  0.1579 -0.4510
 1876TIP3    H227120   4.283   5.541   0.775 -0.3847  0.0559 -0.0886
 1877TIP3   OH227121   3.430   3.023   3.758 -0.4396  0.4045 -0.0870
 1877TIP3    H127122   3.396   2.953   3.703 -0.6742  0.8112 -0.4672
 1877TIP3    H227123   3.400   3.104   3.716  2.2001  0.8688 -1.3175
 1878TIP3   OH227124   0.641   2.643  13.792  0.4323  0.0156  0.0130
 1878TIP3    H127125   0.611   2.708  13.856  1.9510  0.5054  0.2755
 1878TIP3    H227126   0.669   2.568  13.844  0.3421 -0.1424 -0.1658
 1879TIP3   OH227127   5.646   5.435   3.523 -0.0137  0.4706 -0.0609
 1879TIP3    H127128   5.573   5.374   3.538 -0.9050  1.3318 -0.6890
 1879TIP3    H227129   5.724   5.381   3.529 -0.7173 -0.5345  0.4201
 1880TIP3   OH227130   2.721   3.702  14.814 -0.3740 -0.0974 -0.2072
 1880TIP3    H127131   2.780   3.676  14.884  0.9154  1.1924 -0.7644
 1880TIP3    H227132   2.768   3.682  14.733 -0.8852  0.5207 -0.6709
 1881TIP3   OH227133   5.942   1.878   2.493  0.4954  0.0359 -0.6082
 1881TIP3    H127134   5.917   1.892   2.585 -1.5788 -0.6659 -1.0056
 1881TIP3    H227135   6.037   1.882   2.493  0.5250  4.3939  0.8378
 1882TIP3   OH227136   1.963   3.336   1.365  0.4629 -0.2558  0.3354
 1882TIP3    H127137   1.931   3.266   1.309  1.9904 -0.4859 -0.3241
 1882TIP3    H227138   1.885   3.376   1.401 -0.4834 -3.8684  2.8138
 1883TIP3   OH227139   0.802   6.419  15.183  0.6609 -0.3775 -0.0737
 1883TIP3    H127140   0.879   6.429  15.128  0.6105 -0.8106 -0.2302
 1883TIP3    H227141   0.833   6.374  15.262  0.9559  1.2476  0.7816
 1884TIP3   OH227142   1.651   6.579   0.770 -0.3282  0.0066 -0.1397
 1884TIP3    H127143   1.690   6.522   0.705 -0.0264 -0.0276  0.0681
 1884TIP3    H227144   1.684   6.667   0.749 -2.0759  0.3944 -1.4589
 1885TIP3   OH227145   1.906   0.674   3.789  0.2116 -0.0686  0.3340
 1885TIP3    H127146   1.990   0.639   3.757  0.3415  1.4448 -1.1816
 1885TIP3    H227147   1.840   0.618   3.748  0.4555 -0.3911  0.3743
 1886TIP3   OH227148   3.929   5.554   3.709 -0.0350  0.3160  0.0349
 1886TIP3    H127149   3.936   5.648   3.694  0.9782  0.0507 -1.3473
 1886TIP3    H227150   3.840   5.532   3.681 -0.4317  0.9226  0.8019
 1887TIP3   OH227151   5.611   0.816  12.413 -0.4391  0.1921  0.1021
 1887TIP3    H127152   5.664   0.884  12.455 -1.2165  0.8425  0.0454
 1887TIP3    H227153   5.571   0.860  12.338 -1.5960 -0.0874  0.5288
 1888TIP3   OH227154   3.046   5.811   2.507 -0.3505  0.0937 -0.5357
 1888TIP3    H127155   3.139   5.823   2.487 -0.7860  1.0367 -2.1018
 1888TIP3    H227156   3.027   5.722   2.478 -0.1941  0.2818 -1.2172
 1889TIP3   OH227157   5.467   2.699  15.066 -0.2314 -0.0591  0.1498
 1889TIP3    H127158   5.522   2.761  15.018  0.6536  0.4058  1.6783
 1889TIP3    H227159   5.485   2.718  15.158 -0.4694 -2.1174  0.6712
 1890TIP3   OH227160   0.392   5.254   0.765  0.1282 -0.3071 -0.1038
 1890TIP3    H127161   0.449   5.236   0.690  0.9044  0.3507  0.3089
 1890TIP3    H227162   0.329   5.318   0.733  0.9559  0.5928 -0.0075
 1891TIP3   OH227163   3.822   5.114   4.731  0.3661 -0.1506 -0.5397
 1891TIP3    H127164   3.875   5.179   4.685 -1.0787  1.1318 -0.4745
 1891TIP3    H227165   3.869   5.031   4.720  0.2463  0.1195 -4.1074
 1892TIP3   OH227166   6.008   5.772   5.718 -0.0183  0.3911 -0.4110
 1892TIP3    H127167   6.010   5.857   5.762 -1.3067  1.2834 -1.9602
 1892TIP3    H227168   5.976   5.711   5.784 -1.1451  1.5295  0.1304
 1893TIP3   OH227169   2.136   1.976   2.095 -0.5034 -0.6405 -0.0579
 1893TIP3    H127170   2.104   2.031   2.023 -0.3561 -1.3981 -0.7201
 1893TIP3    H227171   2.078   1.995   2.168  0.1310  1.1249  0.0472
 1894TIP3   OH227172   3.552   0.997  13.547 -0.1484 -0.3335  1.0334
 1894TIP3    H127173   3.572   1.086  13.517  1.2004 -1.0460 -0.3128
 1894TIP3    H227174   3.561   0.943  13.468 -0.3225 -1.7529  1.9537
 1895TIP3   OH227175   6.012   2.698   5.546 -0.3962 -0.5371 -0.0726
 1895TIP3    H127176   6.011   2.706   5.642 -3.6393  1.1723 -0.0970
 1895TIP3    H227177   5.973   2.612   5.529  1.3477 -1.4063  0.0608
 1896TIP3   OH227178   4.279   4.948   2.798  0.6252  0.3743 -0.0082
 1896TIP3    H127179   4.238   5.019   2.848 -2.9074  0.3238 -2.4755
 1896TIP3    H227180   4.255   4.868   2.845  1.7735  0.5479  0.9366
 1897TIP3   OH227181   1.912   3.443   2.968 -0.1926  0.3068  0.0108
 1897TIP3    H127182   1.946   3.356   2.948 -0.3153  0.3712 -0.5074
 1897TIP3    H227183   1.988   3.501   2.959 -0.6815  0.6645 -2.6471
 1898TIP3   OH227184   3.976   5.616  13.923  0.0100  0.2211 -0.3976
 1898TIP3    H127185   4.051   5.571  13.884 -0.6109  0.2544 -1.6917
 1898TIP3    H227186   3.935   5.552  13.981  1.9507  0.7021  1.6606
 1899TIP3   OH227187   3.516   0.034   4.692 -0.0390  0.5588  0.2656
 1899TIP3    H127188   3.448  -0.007   4.637 -0.5438  1.3334  0.2955
 1899TIP3    H227189   3.572  -0.039   4.719 -0.9758 -0.1442  0.3987
 1900TIP3   OH227190   4.824   0.526   3.734 -0.3124 -0.1663 -0.4307
 1900TIP3    H127191   4.741   0.507   3.690 -0.8885  0.4349  0.3736
 1900TIP3    H227192   4.890   0.484   3.679 -1.3103 -2.4953  0.0369
 1901TIP3   OH227193   4.256   0.710  15.806 -0.2957  0.5361 -0.4807
 1901TIP3    H127194   4.270   0.625  15.766 -1.6861  0.6437 -1.2625
 1901TIP3    H227195   4.250   0.771  15.732 -0.1583  1.1756  0.0242
 1902TIP3   OH227196   2.190   4.187   4.442  0.0189  0.0974 -0.4067
 1902TIP3    H127197   2.145   4.109   4.474 -1.1861  0.8770 -0.1563
 1902TIP3    H227198   2.139   4.260   4.475  2.4409  1.1221  1.4308
 1903TIP3   OH227199   2.267   6.191   4.732 -0.0677 -0.1443  0.7928
 1903TIP3    H127200   2.293   6.103   4.704  0.2425 -0.0908  0.9048
 1903TIP3    H227201   2.347   6.243   4.725  0.2142 -0.2843  2.3932
 1904TIP3   OH227202   0.712   2.130  12.034  0.3971 -0.3958  0.1484
 1904TIP3    H127203   0.728   2.095  11.946  0.5475 -0.1579  0.0807
 1904TIP3    H227204   0.727   2.224  12.025 -0.5232 -0.2307  0.1969
 1905TIP3   OH227205   0.113   1.563  17.170 -0.6523 -0.4549  0.2668
 1905TIP3    H127206   0.201   1.569  17.207 -0.8396 -0.4230  0.7151
 1905TIP3    H227207   0.070   1.644  17.199 -0.8763 -0.5444  0.1830
 1906TIP3   OH227208   4.070   0.820  13.236  0.1931 -0.1101 -0.0131
 1906TIP3    H127209   4.064   0.841  13.329  0.9405  0.1394 -0.0100
 1906TIP3    H227210   4.146   0.870  13.205 -0.5578  0.4839 -0.9509
 1907TIP3   OH227211   0.221   3.505  15.732 -0.3340  0.0778 -0.5677
 1907TIP3    H127212   0.139   3.550  15.712 -0.0907  0.5676 -0.4936
 1907TIP3    H227213   0.222   3.497  15.827  0.4390  1.5512 -0.4111
 1908TIP3   OH227214   5.628   1.374  13.729 -0.1729 -0.7242 -0.6362
 1908TIP3    H127215   5.562   1.404  13.666  0.8317  0.0949 -1.3364
 1908TIP3    H227216   5.669   1.455  13.761 -0.6731 -1.1118  1.1304
 1909TIP3   OH227217   4.032   6.019   4.595 -0.1131 -0.4668  0.2266
 1909TIP3    H127218   3.955   6.021   4.653 -1.6164 -0.3490 -1.6786
 1909TIP3    H227219   4.090   6.086   4.632 -0.9885 -0.4135  1.6154
 1910TIP3   OH227220   6.546   5.452  15.392 -0.7347 -0.0139  0.3486
 1910TIP3    H127221   6.472   5.392  15.379 -1.8895  1.1514  1.1506
 1910TIP3    H227222   6.602   5.439  15.317 -2.3335 -0.1810 -0.8698
 1911TIP3   OH227223   0.460   0.162   1.839 -0.2502 -0.0370  0.2367
 1911TIP3    H127224   0.436   0.238   1.891 -0.9440  0.0767 -0.2292
 1911TIP3    H227225   0.386   0.150   1.779  0.5852 -0.0950 -0.7964
 1912TIP3   OH227226   1.802   1.251  11.810 -0.7257  0.3976  0.0843
 1912TIP3    H127227   1.854   1.170  11.805 -1.3501  0.0710 -1.6432
 1912TIP3    H227228   1.788   1.265  11.904  0.0981 -1.0436  0.4429
 1913TIP3   OH227229   5.896   0.556  11.915  0.4931 -0.3477  0.5060
 1913TIP3    H127230   5.804   0.579  11.923  0.3007 -1.3052  1.3320
 1913TIP3    H227231   5.902   0.468  11.952  1.4876 -0.8933 -0.8582
 1914TIP3   OH227232   5.729   4.630  12.272 -0.2406  0.7600  0.0499
 1914TIP3    H127233   5.702   4.585  12.352 -1.5872  0.3044 -0.6300
 1914TIP3    H227234   5.723   4.563  12.203 -0.0780  1.3946 -0.5978
 1915TIP3   OH227235   5.559   4.605  13.178 -0.2615 -0.4064  0.2012
 1915TIP3    H127236   5.574   4.665  13.105 -1.2232  0.2812  0.5551
 1915TIP3    H227237   5.600   4.523  13.150 -1.6524 -0.5326 -1.6548
 1916TIP3   OH227238   1.097   6.324  12.971  0.4653 -0.2963 -0.0106
 1916TIP3    H127239   1.136   6.261  12.911 -1.3542 -1.2840 -0.2190
 1916TIP3    H227240   1.071   6.397  12.916  1.6618  0.2384  0.0889
 1917TIP3   OH227241   3.920   6.395   3.172 -0.6204 -0.1511  0.8127
 1917TIP3    H127242   3.965   6.431   3.096 -1.2701 -0.5263  0.2399
 1917TIP3    H227243   3.929   6.300   3.163 -2.9585 -0.3458 -0.2610
 1918TIP3   OH227244   2.899   6.002   4.618  0.0250 -0.2930  0.2467
 1918TIP3    H127245   2.834   6.025   4.551 -0.6722  0.4502  1.1431
 1918TIP3    H227246   2.847   5.969   4.691  0.6544  0.2561  0.9588
 1919TIP3   OH227247   3.314   2.329  13.505 -0.4359 -0.7133  0.5503
 1919TIP3    H127248   3.393   2.360  13.460  0.2496 -0.5229  1.8211
 1919TIP3    H227249   3.287   2.252  13.455  0.4151 -0.6350 -0.0581
 1920TIP3   OH227250   5.867   4.138   3.187 -0.1902  0.1146 -0.1282
 1920TIP3    H127251   5.839   4.047   3.186 -0.0574  0.0617  0.5536
 1920TIP3    H227252   5.900   4.154   3.098  2.3729 -1.3114  0.4598
 1921TIP3   OH227253   1.931   4.636   3.982 -0.6366 -0.0952  0.4138
 1921TIP3    H127254   1.972   4.576   4.045  1.7218  1.3118  0.3579
 1921TIP3    H227255   1.977   4.619   3.900  0.0597  1.6852  0.3888
 1922TIP3   OH227256   0.036   1.693   5.246 -0.1778 -0.1093  0.1426
 1922TIP3    H127257   0.105   1.704   5.180 -0.1799 -2.0242 -0.2342
 1922TIP3    H227258   0.042   1.772   5.300  1.3582  0.4311 -0.7460
 1923TIP3   OH227259   3.595   1.232  17.327 -0.8938  0.1613 -0.3884
 1923TIP3    H127260   3.554   1.292  17.389  0.9291  0.1209  0.9521
 1923TIP3    H227261   3.679   1.211  17.367 -0.7815 -2.0029 -1.6193
 1924TIP3   OH227262   2.828   5.012   2.946 -0.1856  0.2671 -0.2117
 1924TIP3    H127263   2.923   5.014   2.938  0.0229 -2.1753  0.6760
 1924TIP3    H227264   2.806   5.083   3.006  1.3437 -0.5386  1.3630
 1925TIP3   OH227265   3.792   1.512  15.385 -0.4569  0.0594 -0.0692
 1925TIP3    H127266   3.824   1.435  15.338 -1.2433  0.2579 -0.9359
 1925TIP3    H227267   3.725   1.477  15.444 -1.5489  0.2051 -1.1976
 1926TIP3   OH227268   1.670   4.826  14.177 -0.0822 -0.3575  0.0086
 1926TIP3    H127269   1.609   4.757  14.202 -1.6995  0.4965 -1.3849
 1926TIP3    H227270   1.701   4.801  14.090 -2.8414  1.8810 -1.8175
 1927TIP3   OH227271   5.616   5.610   6.369 -0.0675 -0.0019  0.2905
 1927TIP3    H127272   5.613   5.523   6.409 -0.6969  0.0925  0.4663
 1927TIP3    H227273   5.563   5.665   6.427 -1.7893 -0.0601 -1.1061
 1928TIP3   OH227274   2.657   2.685   1.580  0.3682  0.0207  0.5227
 1928TIP3    H127275   2.720   2.752   1.608  0.5553  0.2371 -0.3991
 1928TIP3    H227276   2.645   2.701   1.487 -0.9668 -0.1054  0.6584
 1929TIP3   OH227277   0.707   2.938  13.977 -0.5404 -0.1327  0.2776
 1929TIP3    H127278   0.629   2.886  13.957 -1.5610  0.9194  1.3730
 1929TIP3    H227279   0.705   2.949  14.072  0.6922  0.3275  0.2727
 1930TIP3   OH227280   5.630   0.690  14.639  0.8048  0.0018  0.4733
 1930TIP3    H127281   5.725   0.700  14.638  0.9679 -1.0667  1.8063
 1930TIP3    H227282   5.616   0.598  14.663 -0.5717  0.2241  0.6070
 1931TIP3   OH227283   4.020   5.123   1.725  0.8902 -1.1825 -0.1151
 1931TIP3    H127284   3.991   5.089   1.640  3.9078 -1.6214 -1.0868
 1931TIP3    H227285   4.093   5.066   1.750  0.3462 -0.8082  2.6335
 1932TIP3   OH227286   0.518   2.911  16.017  0.4187 -0.1471  0.6699
 1932TIP3    H127287   0.423   2.913  16.030  0.1504  0.1088 -1.0497
 1932TIP3    H227288   0.530   2.862  15.936  1.6100  1.3277 -0.1117
 1933TIP3   OH227289   3.622   0.559   5.493 -0.7848 -0.2060  0.4597
 1933TIP3    H127290   3.574   0.635   5.524  1.0585  0.9790  0.5531
 1933TIP3    H227291   3.699   0.595   5.449  0.2700 -2.0190  0.7062
 1934TIP3   OH227292   6.445   5.242   1.477  0.1797 -0.6326  0.3850
 1934TIP3    H127293   6.531   5.209   1.451 -0.3136 -1.0902 -0.7163
 1934TIP3    H227294   6.395   5.248   1.396 -0.7735 -0.1713  0.9779
 1935TIP3   OH227295   0.240   4.466   5.728 -0.1846  0.3725  0.0896
 1935TIP3    H127296   0.184   4.479   5.651 -2.1183 -2.1751  0.9243
 1935TIP3    H227297   0.243   4.371   5.740  0.3382  0.6521  2.9280
 1936TIP3   OH227298   5.031   1.045   2.637  0.2217 -0.4274 -0.1396
 1936TIP3    H127299   5.007   1.132   2.668  2.0099 -0.1338  0.5200
 1936TIP3    H227300   4.967   0.987   2.677  0.3512  0.3454  1.2440
 1937TIP3   OH227301   1.556   0.012   2.881 -0.2773 -0.2972  0.0444
 1937TIP3    H127302   1.567  -0.068   2.831  2.8944 -0.0259  0.1269
 1937TIP3    H227303   1.497  -0.013   2.953 -3.5634 -1.0995 -2.6799
 1938TIP3   OH227304   0.325   5.938   3.811  0.3886  0.5129  0.0278
 1938TIP3    H127305   0.319   5.903   3.722  2.2783 -2.6928  0.9986
 1938TIP3    H227306   0.239   5.921   3.849  0.1121  0.3135 -0.6737
 1939TIP3   OH227307   1.671   4.839   3.744  0.5265 -0.2163  0.0244
 1939TIP3    H127308   1.702   4.929   3.731  0.9332 -0.4088 -0.3616
 1939TIP3    H227309   1.683   4.797   3.659 -0.1183 -0.5047  0.0729
 1940TIP3   OH227310   3.272   6.194   0.846 -0.3202 -0.2206  0.5340
 1940TIP3    H127311   3.354   6.177   0.799 -0.7184  1.6785 -0.9530
 1940TIP3    H227312   3.230   6.265   0.797 -1.6733  0.5873  2.7233
 1941TIP3   OH227313   4.722   6.259  14.971  0.0465 -0.4350  0.4714
 1941TIP3    H127314   4.659   6.309  14.918 -0.2167 -1.7805 -0.5429
 1941TIP3    H227315   4.689   6.267  15.061 -0.3213  0.6961  0.2581
 1942TIP3   OH227316   1.997   2.309   2.034 -0.1554  0.5487  0.6420
 1942TIP3    H127317   1.949   2.354   1.965 -0.8884 -1.6505 -0.3758
 1942TIP3    H227318   2.077   2.360   2.045  2.2148 -1.1990 -5.0187
 1943TIP3   OH227319   0.440   1.253   2.083 -0.2665  0.7521 -0.2137
 1943TIP3    H127320   0.392   1.201   2.018 -0.7665  0.5005  0.3442
 1943TIP3    H227321   0.443   1.341   2.046 -0.6135  0.6301 -0.5470
 1944TIP3   OH227322   4.718   3.680  11.435 -0.2054 -0.6598 -0.1643
 1944TIP3    H127323   4.800   3.650  11.395 -0.4280 -0.8392 -0.4897
 1944TIP3    H227324   4.651   3.665  11.368 -0.6307 -1.2278  0.3711
 1945TIP3   OH227325   1.939   2.027  16.712  0.0400  0.1345  0.3225
 1945TIP3    H127326   2.017   2.000  16.759 -0.3828  0.5440  1.2802
 1945TIP3    H227327   1.866   2.007  16.771 -0.4518  1.2518  0.1315
 1946TIP3   OH227328   6.471   5.957   6.358  0.5244 -0.5621 -0.1098
 1946TIP3    H127329   6.429   5.870   6.352  1.7250 -1.1421 -0.3834
 1946TIP3    H227330   6.399   6.019   6.345 -0.1737 -1.5348 -1.0262
 1947TIP3   OH227331   4.058   4.820   1.634 -0.0940  0.3348  0.1326
 1947TIP3    H127332   4.135   4.867   1.665 -0.2116  2.9760 -3.1087
 1947TIP3    H227333   4.005   4.805   1.713  2.1214  1.4953  1.9294
 1948TIP3   OH227334   1.797   3.527   0.564  0.3695 -0.3626 -0.2025
 1948TIP3    H127335   1.814   3.505   0.473  3.0095 -1.7271  0.5080
 1948TIP3    H227336   1.817   3.620   0.571  0.9592 -0.4376 -0.8610
 1949TIP3   OH227337   0.561   6.750   2.380 -0.5193 -0.2973 -0.0182
 1949TIP3    H127338   0.489   6.709   2.428 -0.7349  0.8440  0.6501
 1949TIP3    H227339   0.633   6.751   2.443 -1.1032  2.1429  0.6848
 1950TIP3   OH227340   5.923   6.104   4.227  0.7626 -0.3975  0.5033
 1950TIP3    H127341   6.010   6.085   4.191  0.9055  1.0143  0.0476
 1950TIP3    H227342   5.941   6.140   4.314  0.5787 -0.8190  0.7208
 1951TIP3   OH227343   6.438   1.046  17.215 -0.0681  0.1050  0.0111
 1951TIP3    H127344   6.447   1.131  17.257  0.2659 -0.8881  2.0392
 1951TIP3    H227345   6.350   1.048  17.176 -0.3821  1.0774  0.7312
 1952TIP3   OH227346   4.390   5.075   3.364  0.0796  0.0343  0.0078
 1952TIP3    H127347   4.373   5.026   3.284  1.0756 -0.1868 -0.0905
 1952TIP3    H227348   4.423   5.010   3.426  3.5721  0.7964 -0.8077
 1953TIP3   OH227349   3.759   1.945  16.976 -0.2908 -0.5135 -0.6112
 1953TIP3    H127350   3.728   1.872  17.029 -1.7724  0.9993  0.7104
 1953TIP3    H227351   3.803   1.903  16.902 -1.6523 -2.7508 -0.2694
 1954TIP3   OH227352   2.636   5.864  11.922  0.1031 -0.1118  0.2476
 1954TIP3    H127353   2.551   5.896  11.952 -1.5774 -1.4810 -2.6834
 1954TIP3    H227354   2.664   5.928  11.856  1.7405  0.6738  1.6226
 1955TIP3   OH227355   6.093   3.518   6.810  0.1060 -0.2446 -0.3697
 1955TIP3    H127356   6.187   3.507   6.824 -0.1965 -0.8414  1.5447
 1955TIP3    H227357   6.086   3.602   6.764  1.5541 -0.0989 -0.3887
 1956TIP3   OH227358   4.338   5.507   2.562  0.4830  0.8825  0.1906
 1956TIP3    H127359   4.323   5.480   2.653  0.0666  2.0905  0.4950
 1956TIP3    H227360   4.306   5.433   2.510  1.4704 -0.1695  1.0232
 1957TIP3   OH227361   1.868   4.257   2.398 -0.4480  0.2982  0.6499
 1957TIP3    H127362   1.899   4.206   2.323 -0.1099 -1.1701  1.7357
 1957TIP3    H227363   1.908   4.343   2.387  1.8467 -0.6965  0.5226
 1958TIP3   OH227364   3.114   5.068  12.716  0.2077 -0.6144 -0.1327
 1958TIP3    H127365   3.194   5.102  12.757 -0.4310  0.3384  0.3719
 1958TIP3    H227366   3.065   5.028  12.788  0.4803 -1.7383 -0.5460
 1959TIP3   OH227367   3.395   2.800  15.436 -0.0578 -0.5088  0.2845
 1959TIP3    H127368   3.309   2.773  15.403  0.1560 -0.5361 -0.2565
 1959TIP3    H227369   3.457   2.775  15.367  0.0112  2.5127 -0.9264
 1960TIP3   OH227370   4.946   5.047  16.366 -0.2876  0.4432 -0.1771
 1960TIP3    H127371   4.961   5.142  16.372 -0.8330  0.6877 -2.0032
 1960TIP3    H227372   4.851   5.038  16.363 -0.2353 -0.1542 -0.1210
 1961TIP3   OH227373   4.602   2.902   4.509  0.3557 -0.4932 -0.3084
 1961TIP3    H127374   4.678   2.845   4.494  0.5960 -0.2965  0.1375
 1961TIP3    H227375   4.634   2.968   4.570  0.1564  0.2686 -1.0157
 1962TIP3   OH227376   1.804   4.690   5.364 -0.4793  0.1338 -0.2144
 1962TIP3    H127377   1.837   4.776   5.391  0.1144 -0.4700  1.0288
 1962TIP3    H227378   1.880   4.647   5.324  0.0216 -0.8504  1.6874
 1963TIP3   OH227379   6.480   6.000  12.652 -0.3812 -0.1590  0.0856
 1963TIP3    H127380   6.542   5.953  12.708 -1.6142 -2.3953 -0.2678
 1963TIP3    H227381   6.394   5.970  12.682 -1.2031  1.2820 -0.7437
 1964TIP3   OH227382   0.012   4.000   0.163  0.2922  0.4551 -0.2372
 1964TIP3    H127383   0.033   4.093   0.161  1.1543  0.3166  1.0416
 1964TIP3    H227384   0.081   3.959   0.110  0.1390  0.5062 -0.4768
 1965TIP3   OH227385   5.715   3.654  14.378  0.0432 -0.1830 -0.3480
 1965TIP3    H127386   5.651   3.631  14.445 -0.5672 -0.7943 -1.1099
 1965TIP3    H227387   5.665   3.655  14.296  0.4906  1.7950 -0.6674
 1966TIP3   OH227388   4.494   0.809  14.879 -0.3416  0.0162 -0.3416
 1966TIP3    H127389   4.549   0.734  14.856  2.3456  1.6064  0.4436
 1966TIP3    H227390   4.492   0.810  14.974 -2.6031 -0.5049 -0.3175
 1967TIP3   OH227391   1.354   4.197   0.660 -0.1401 -0.2058 -0.2634
 1967TIP3    H127392   1.380   4.162   0.745  0.8781 -2.5672 -1.4488
 1967TIP3    H227393   1.402   4.144   0.596 -0.7260  1.5907 -2.3386
 1968TIP3   OH227394   0.058   6.604  12.564  0.3247 -0.0666  0.1811
 1968TIP3    H127395   0.080   6.662  12.637  0.7768 -0.2272  0.1736
 1968TIP3    H227396  -0.035   6.622  12.546  0.6345  1.1772 -0.2781
 1969TIP3   OH227397   2.679   3.793  12.387  0.0524  0.5379  0.1343
 1969TIP3    H127398   2.597   3.792  12.437 -0.2301 -1.9250 -0.2534
 1969TIP3    H227399   2.748   3.786  12.452 -0.3027 -2.4247  0.3073
 1970TIP3   OH227400   6.376   6.716  17.266  0.3801 -0.8339 -0.2054
 1970TIP3    H127401   6.340   6.755  17.186 -0.1920 -1.7005 -0.3769
 1970TIP3    H227402   6.414   6.791  17.313  2.6510 -0.5773 -2.2512
 1971TIP3   OH227403   0.719   5.055   4.310  0.0622  0.0711  0.0296
 1971TIP3    H127404   0.804   5.045   4.353 -1.4163 -2.6947  2.6521
 1971TIP3    H227405   0.666   5.104   4.372 -1.2325 -1.3478  0.1179
 1972TIP3   OH227406   5.179   0.309  14.590 -0.3206 -0.0418  0.0265
 1972TIP3    H127407   5.233   0.261  14.653 -2.8241 -1.8310  0.9287
 1972TIP3    H227408   5.228   0.390  14.574  2.3295 -1.3019  1.1690
 1973TIP3   OH227409   2.272   5.736  12.368 -0.1521 -0.2669 -0.4094
 1973TIP3    H127410   2.336   5.808  12.366  0.9153 -1.1717  0.1242
 1973TIP3    H227411   2.324   5.658  12.347 -1.1541 -0.9866 -0.2540
 1974TIP3   OH227412   1.157   1.450   0.030 -0.1791  0.4171 -0.5520
 1974TIP3    H127413   1.242   1.405   0.029 -1.4525 -2.1537 -0.3787
 1974TIP3    H227414   1.130   1.452  -0.062 -0.8192 -0.5890 -0.3908
 1975TIP3   OH227415   0.101   5.736   1.264  0.0977 -0.0650 -0.1149
 1975TIP3    H127416   0.151   5.669   1.311  0.6346  1.0037  0.8703
 1975TIP3    H227417   0.073   5.797   1.331 -3.9523 -1.3695 -0.3209
 1976TIP3   OH227418   1.928   3.172  15.673  0.1633  0.1749 -0.4693
 1976TIP3    H127419   1.922   3.163  15.768  0.5482  1.4669 -0.3177
 1976TIP3    H227420   1.855   3.230  15.650 -0.3047 -0.6213 -1.0473
 1977TIP3   OH227421   2.027   6.769   1.189  0.0563  0.3094 -0.0903
 1977TIP3    H127422   2.097   6.734   1.245  1.2503  2.2011 -0.2994
 1977TIP3    H227423   1.946   6.751   1.237  0.9358  0.6743  1.6084
 1978TIP3   OH227424   4.063   6.460   4.983 -0.5224 -0.4703 -0.2740
 1978TIP3    H127425   4.116   6.448   5.061 -0.8578 -1.4018 -0.1718
 1978TIP3    H227426   4.080   6.550   4.955 -0.3099 -0.1658  0.7996
 1979TIP3   OH227427   2.183   6.554   1.337  0.4483  1.2339 -0.3157
 1979TIP3    H127428   2.170   6.577   1.429 -1.9518  1.4944 -0.6449
 1979TIP3    H227429   2.126   6.479   1.323  1.3727  0.7101 -1.4279
 1980TIP3   OH227430   4.965   5.883  15.004  0.2863 -0.2765 -0.3998
 1980TIP3    H127431   5.010   5.905  14.923  2.0410 -0.4532  0.4766
 1980TIP3    H227432   4.979   5.788  15.015 -1.2573 -0.5641 -0.6418
 1981TIP3   OH227433   4.759   0.636  13.093 -0.7332 -0.1154  0.2170
 1981TIP3    H127434   4.669   0.664  13.082 -1.2519 -1.2744  1.2720
 1981TIP3    H227435   4.781   0.662  13.183  0.3560  1.1119 -0.3710
 1982TIP3   OH227436   2.479   5.554  12.980  0.1227 -0.0358  0.4396
 1982TIP3    H127437   2.447   5.624  12.924  0.1903 -0.2243  0.1652
 1982TIP3    H227438   2.569   5.539  12.952 -0.5168 -1.6440 -0.9206
 1983TIP3   OH227439   5.343   2.566   2.130 -0.1639  0.1471  0.0700
 1983TIP3    H127440   5.394   2.492   2.163 -0.9124 -0.5119 -0.2185
 1983TIP3    H227441   5.253   2.535   2.130 -0.1631 -0.1790 -3.2814
 1984TIP3   OH227442   5.660   2.911  16.304  0.0961  0.8634  0.8067
 1984TIP3    H127443   5.577   2.897  16.257  1.3574 -3.8842 -0.5869
 1984TIP3    H227444   5.635   2.911  16.396 -1.6641  2.2879  0.3863
 1985TIP3   OH227445   3.644   4.767   2.165  0.0305  0.1459  0.2849
 1985TIP3    H127446   3.610   4.716   2.238  0.8797 -0.2067  0.4484
 1985TIP3    H227447   3.583   4.749   2.093 -0.8225  0.5108  0.8997
 1986TIP3   OH227448   6.354   5.842  16.802  0.1079 -0.6445 -0.1338
 1986TIP3    H127449   6.351   5.811  16.892  1.0186 -1.7692 -0.4728
 1986TIP3    H227450   6.284   5.907  16.796 -1.2796 -2.0109  0.8396
 1987TIP3   OH227451   6.315   1.152   1.454 -0.0877 -0.0074  0.6848
 1987TIP3    H127452   6.250   1.196   1.398  0.3798  0.1469  0.2544
 1987TIP3    H227453   6.281   1.063   1.465 -0.5601  0.1800  0.7761
 1988TIP3   OH227454   0.142   5.156   5.182 -0.3337  0.2515 -0.4493
 1988TIP3    H127455   0.215   5.202   5.221  0.7447  0.0047 -2.0672
 1988TIP3    H227456   0.155   5.166   5.087 -0.3376 -2.8379 -0.8821
 1989TIP3   OH227457   5.126   0.799  13.957  0.1269  0.1024 -0.0088
 1989TIP3    H127458   5.093   0.804  14.047  2.4771 -0.1498  0.9467
 1989TIP3    H227459   5.176   0.717  13.955  0.4577  0.3193 -1.4227
 1990TIP3   OH227460   1.765   5.599   0.087 -0.3552  0.8818 -0.1292
 1990TIP3    H127461   1.763   5.692   0.110 -0.3652  1.1226 -1.0519
 1990TIP3    H227462   1.676   5.580   0.058 -0.8147  0.1433  1.6197
 1991TIP3   OH227463   3.145   2.619  14.813 -0.6586 -0.2965  0.3570
 1991TIP3    H127464   3.057   2.655  14.820 -0.3496  0.8014 -0.9000
 1991TIP3    H227465   3.137   2.547  14.751 -0.3859  1.1192 -1.4514
 1992TIP3   OH227466   2.538   2.519   2.025 -0.6434 -0.3359  0.3813
 1992TIP3    H127467   2.555   2.439   1.976 -0.6569 -0.0827 -0.0328
 1992TIP3    H227468   2.603   2.582   1.994  1.1562 -0.9519  2.5928
 1993TIP3   OH227469   3.585   4.480  11.809 -0.1852 -0.3431  0.9038
 1993TIP3    H127470   3.572   4.512  11.899  2.8948 -1.2765  1.7994
 1993TIP3    H227471   3.664   4.426  11.814 -0.6724 -1.5343 -2.1420
 1994TIP3   OH227472   0.280   2.110  14.443  0.2577  0.2307  0.6176
 1994TIP3    H127473   0.294   2.054  14.519  3.1221  1.0150  0.7647
 1994TIP3    H227474   0.253   2.194  14.481 -0.5491 -0.0027  0.5908
 1995TIP3   OH227475   2.939   0.267  15.676  0.3710  0.2187  0.1743
 1995TIP3    H127476   2.877   0.219  15.730 -0.8459  0.5010 -0.9148
 1995TIP3    H227477   2.928   0.230  15.588  0.2988  1.6220 -0.4379
 1996TIP3   OH227478   2.544   1.544  16.360  0.1078  0.5932  0.4634
 1996TIP3    H127479   2.597   1.550  16.280  1.2570  0.9087  1.2209
 1996TIP3    H227480   2.562   1.626  16.406 -2.1241  1.3399  0.1261
 1997TIP3   OH227481   3.492   2.864  13.030  0.1555 -0.0265 -0.0250
 1997TIP3    H127482   3.474   2.852  13.123 -1.9938 -2.1633 -0.6143
 1997TIP3    H227483   3.504   2.958  13.020  0.2043  0.2794  2.3497
 1998TIP3   OH227484   4.920   2.119  15.683  0.6882 -0.5653 -0.0403
 1998TIP3    H127485   4.915   2.214  15.671  0.4729 -0.2858  1.8314
 1998TIP3    H227486   4.832   2.094  15.712  1.0334 -1.1260  0.5635
 1999TIP3   OH227487   1.197   0.070   1.526  0.6129 -0.3934  0.3385
 1999TIP3    H127488   1.290   0.083   1.541  0.3839  0.2127  1.3228
 1999TIP3    H227489   1.183   0.099   1.436  0.9023  2.2568  1.0654
 2000TIP3   OH227490   0.105   4.603   4.805  0.3188  0.7443  0.6372
 2000TIP3    H127491   0.027   4.648   4.773  1.7855  2.5778 -0.5161
 2000TIP3    H227492   0.164   4.673   4.833  2.8731 -0.3552 -1.6074
 2001TIP3   OH227493   4.347   2.506   0.802 -0.3562 -0.6879 -0.1969
 2001TIP3    H127494   4.253   2.489   0.807 -0.7152  1.2452  0.6074
 2001TIP3    H227495   4.363   2.526   0.710 -1.1336  0.8298 -0.0330
 2002TIP3   OH227496   6.354   6.744   6.584  0.4041 -0.4072  0.3532
 2002TIP3    H127497   6.419   6.752   6.654  0.8186  0.4832 -0.1077
 2002TIP3    H227498   6.272   6.776   6.624  0.5335 -0.3448  0.5715
 2003TIP3   OH227499   6.395   3.240   2.403 -0.4727  0.3377 -0.2867
 2003TIP3    H127500   6.397   3.327   2.442  0.8351  0.2628 -0.1468
 2003TIP3    H227501   6.314   3.201   2.434 -0.6419  1.1884  0.3526
 2004TIP3   OH227502   0.878   3.526   6.206  1.0160  0.4601 -0.6578
 2004TIP3    H127503   0.943   3.470   6.163  0.7121  0.4557 -1.1218
 2004TIP3    H227504   0.930   3.586   6.259  1.3983  0.3735 -0.9258
 2005TIP3   OH227505   4.270   2.868   1.031  0.8717 -0.9314  0.5990
 2005TIP3    H127506   4.262   2.921   0.952 -1.2194 -0.1613  1.2484
 2005TIP3    H227507   4.329   2.797   1.007 -0.2226 -1.1032 -1.8619
 2006TIP3   OH227508   4.974   6.062  12.253  0.5091 -0.1182  0.0670
 2006TIP3    H127509   5.062   6.074  12.218  0.2096  2.0851 -0.0531
 2006TIP3    H227510   4.930   6.009  12.186  0.7996  1.5914 -1.5749
 2007TIP3   OH227511   1.217   2.051   3.308 -0.2947 -0.4876 -0.1050
 2007TIP3    H127512   1.165   2.083   3.234  0.6675  1.4342 -0.0191
 2007TIP3    H227513   1.241   1.961   3.283 -1.5145 -0.5244 -1.2700
 2008TIP3   OH227514   2.976   5.643  13.801 -0.1063  0.4371  0.2018
 2008TIP3    H127515   2.960   5.648  13.895  0.1850  0.0870  0.2730
 2008TIP3    H227516   3.039   5.572  13.791 -0.0134  0.5777 -0.2432
 2009TIP3   OH227517   3.802   5.563   2.552 -0.0917 -0.0952  0.5148
 2009TIP3    H127518   3.830   5.626   2.485  0.6601  0.6673  1.5278
 2009TIP3    H227519   3.707   5.576   2.559 -0.1281  0.0491 -0.1471
 2010TIP3   OH227520   1.349   1.357  17.072  0.0428  0.6009  0.4757
 2010TIP3    H127521   1.288   1.285  17.053  1.2002 -0.2294 -0.1933
 2010TIP3    H227522   1.318   1.429  17.018  0.3660 -0.2045 -0.8245
 2011TIP3   OH227523   6.344   5.261  17.048 -0.4865  0.0346 -0.0550
 2011TIP3    H127524   6.297   5.256  17.132 -0.8598  0.1424 -0.2558
 2011TIP3    H227525   6.435   5.273  17.073 -0.6938  0.8546  0.3305
 2012TIP3   OH227526   2.809   2.121  13.262 -0.6842  0.5645 -0.2994
 2012TIP3    H127527   2.839   2.103  13.351 -2.0818  1.2764  0.3602
 2012TIP3    H227528   2.739   2.186  13.273 -0.9095  0.6416 -1.9137
 2013TIP3   OH227529   2.701   6.129  13.882  0.1650  0.4069  0.3825
 2013TIP3    H127530   2.775   6.180  13.849 -0.8180  1.1171 -0.8335
 2013TIP3    H227531   2.737   6.043  13.900  1.1504  0.5428 -0.8209
 2014TIP3   OH227532   2.609   4.629   2.456 -0.4027  0.1609 -0.4347
 2014TIP3    H127533   2.525   4.586   2.440 -0.4932 -0.2608  1.0018
 2014TIP3    H227534   2.674   4.570   2.417 -0.7162  0.0484 -0.7877
 2015TIP3   OH227535   0.941   4.394   3.965 -0.6222  0.3742  0.2794
 2015TIP3    H127536   0.924   4.479   3.924  1.0213 -0.1681 -1.6542
 2015TIP3    H227537   1.032   4.374   3.944 -0.8934 -1.7724  0.8594
 2016TIP3   OH227538   6.223   1.532   3.425 -0.4332  0.2913  0.1375
 2016TIP3    H127539   6.279   1.580   3.486  0.2850 -0.6868  0.2642
 2016TIP3    H227540   6.193   1.456   3.475  0.0916 -0.4764 -0.6991
 2017TIP3   OH227541   3.429   0.931   3.206 -0.1574 -0.1598  0.2738
 2017TIP3    H127542   3.334   0.934   3.218 -0.2432 -0.3256 -0.3139
 2017TIP3    H227543   3.456   1.023   3.201 -0.4174 -0.1130 -0.4628
 2018TIP3   OH227544   2.596   5.655   2.505  0.1292 -0.1814 -0.1466
 2018TIP3    H127545   2.522   5.650   2.444  0.2703 -2.5345 -0.2409
 2018TIP3    H227546   2.583   5.580   2.564  1.8185  0.0277  0.5497
 2019TIP3   OH227547   1.624   1.265  14.739 -0.4713 -0.1183 -0.6376
 2019TIP3    H127548   1.545   1.236  14.784 -0.6726  0.5750 -0.5296
 2019TIP3    H227549   1.696   1.234  14.793 -0.6051 -1.8365 -1.3661
 2020TIP3   OH227550   0.057   1.380   2.784  0.2108 -0.1593  0.2334
 2020TIP3    H127551   0.139   1.374   2.735  1.7445 -0.2621  2.6339
 2020TIP3    H227552   0.044   1.474   2.798  0.2691 -0.1718  0.3773
 2021TIP3   OH227553   5.157   2.909  15.306 -0.0838 -0.2404  0.7079
 2021TIP3    H127554   5.161   2.921  15.401  0.8405 -0.6356  0.7311
 2021TIP3    H227555   5.134   2.995  15.271 -0.9873 -0.2171  1.3144
 2022TIP3   OH227556   5.787   2.664  16.660  0.6123  0.0704 -0.0011
 2022TIP3    H127557   5.814   2.573  16.674  0.8564  0.2124  0.4897
 2022TIP3    H227558   5.784   2.674  16.565 -1.1563 -0.9576 -0.0985
 2023TIP3   OH227559   6.187   0.853  16.247 -0.1250 -0.1749  0.0046
 2023TIP3    H127560   6.223   0.903  16.174 -0.8268  2.4777  1.3620
 2023TIP3    H227561   6.191   0.762  16.217 -0.2254  0.7537 -3.2597
 2024TIP3   OH227562   1.998   5.159   5.955 -0.1497  0.2572  0.9670
 2024TIP3    H127563   1.939   5.232   5.970 -2.1122 -1.0242 -0.0455
 2024TIP3    H227564   2.076   5.198   5.915 -1.7316  1.6636 -0.9025
 2025TIP3   OH227565   4.815   0.215  15.119  0.2358 -0.6596  0.1817
 2025TIP3    H127566   4.763   0.251  15.047  1.5509  1.7732  0.3334
 2025TIP3    H227567   4.897   0.187  15.078 -0.1666 -2.1037  0.3211
 2026TIP3   OH227568   5.164   4.116  11.738  0.2080 -0.3296  0.3455
 2026TIP3    H127569   5.083   4.119  11.789 -0.1085 -0.2693 -0.1571
 2026TIP3    H227570   5.187   4.208  11.723 -1.2194 -0.2688 -1.9869
 2027TIP3   OH227571   0.709   4.987  10.399 -0.0483  0.1213 -0.2353
 2027TIP3    H127572   0.638   4.994  10.463 -1.4839  0.1516 -1.7285
 2027TIP3    H227573   0.780   5.041  10.435 -0.5857 -0.3113  1.5495
 2028TIP3   OH227574   5.643   4.940  16.910  0.1825 -0.2800 -0.2546
 2028TIP3    H127575   5.655   4.953  16.816 -1.7407  2.3378 -0.2614
 2028TIP3    H227576   5.683   5.017  16.950  1.0758 -1.4097  1.1135
 2029TIP3   OH227577   4.653   3.760   1.197 -0.0752 -0.7688  0.3285
 2029TIP3    H127578   4.716   3.688   1.193  1.1590  0.3270 -1.3954
 2029TIP3    H227579   4.618   3.767   1.108 -1.8437 -0.6414  0.9982
 2030TIP3   OH227580   2.853   2.971   3.977  0.1634  0.3881  0.2760
 2030TIP3    H127581   2.938   2.966   3.932 -0.5874 -0.6477 -1.1054
 2030TIP3    H227582   2.875   2.961   4.070  1.6071  0.7454  0.0052
 2031TIP3   OH227583   4.083   3.775  13.941  0.6308 -0.0285  0.7051
 2031TIP3    H127584   4.122   3.751  14.025  0.7637  0.5658  0.8158
 2031TIP3    H227585   4.043   3.861  13.956  0.7092  0.1113  0.1493
 2032TIP3   OH227586   4.786   2.006   4.822 -0.2184  0.1912 -0.0666
 2032TIP3    H127587   4.706   1.973   4.780 -0.1084 -2.2406  1.4290
 2032TIP3    H227588   4.762   2.017   4.914  0.6991  1.2662  0.0702
 2033TIP3   OH227589   1.116   3.228  15.396 -0.2698  0.4033 -0.1444
 2033TIP3    H127590   1.100   3.136  15.372 -0.6818 -0.0398  1.6812
 2033TIP3    H227591   1.109   3.276  15.313  2.4315 -1.4768 -1.6051
 2034TIP3   OH227592   5.252   2.170  11.933 -0.2767 -0.2767  0.0975
 2034TIP3    H127593   5.198   2.232  11.884  1.5702  0.6707 -0.8524
 2034TIP3    H227594   5.341   2.205  11.926  0.8988 -3.1014 -0.5979
 2035TIP3   OH227595   5.338   5.697   0.023 -0.2670  0.3352 -0.1640
 2035TIP3    H127596   5.262   5.743   0.059  0.0606  1.5173 -0.9284
 2035TIP3    H227597   5.411   5.759   0.032  0.7025 -0.8931  0.8554
 2036TIP3   OH227598   3.325   3.995  17.252 -0.1039  0.6105 -0.3730
 2036TIP3    H127599   3.398   4.002  17.191  1.2699  1.4533  1.2837
 2036TIP3    H227600   3.275   4.075  17.238 -0.5480  0.1932 -1.2691
 2037TIP3   OH227601   4.604   1.763  14.480 -0.1934 -0.1385 -0.2133
 2037TIP3    H127602   4.641   1.680  14.509 -1.6848 -1.1074 -0.9948
 2037TIP3    H227603   4.644   1.828  14.538  2.7747 -1.0587 -1.0516
 2038TIP3   OH227604   3.188   6.389   4.898 -0.1682  0.6160  0.7770
 2038TIP3    H127605   3.111   6.344   4.863 -1.2448  0.8021  2.7587
 2038TIP3    H227606   3.182   6.478   4.864 -0.4638  0.4415  0.3726
 2039TIP3   OH227607   3.150   5.004  16.554 -0.2468 -0.1440 -0.6143
 2039TIP3    H127608   3.068   4.956  16.567  0.3225 -0.7821  0.8201
 2039TIP3    H227609   3.218   4.939  16.571  0.5678  1.3055  2.2999
 2040TIP3   OH227610   0.544   6.222   4.843  0.2990 -0.4189 -0.0143
 2040TIP3    H127611   0.491   6.276   4.901  1.1552 -0.1331  0.5106
 2040TIP3    H227612   0.508   6.133   4.853 -0.2741 -0.1774  0.0970
 2041TIP3   OH227613   4.738   5.346  13.467 -0.2181  0.2640  0.0339
 2041TIP3    H127614   4.667   5.301  13.422  0.9095 -0.2169 -1.2955
 2041TIP3    H227615   4.693   5.404  13.529 -1.7580 -3.2598  2.5623
 2042TIP3   OH227616   2.012   2.964   3.095  0.4362  0.5647  0.2362
 2042TIP3    H127617   2.097   2.946   3.055  0.2240 -1.6765  0.6822
 2042TIP3    H227618   1.953   2.977   3.021  0.4959 -1.3669 -0.2039
 2043TIP3   OH227619   5.967   5.217   4.464 -0.4559 -0.1458 -0.6448
 2043TIP3    H127620   6.027   5.160   4.415 -1.4299 -0.2515 -1.7656
 2043TIP3    H227621   5.896   5.159   4.490  0.0169 -0.0729  0.8963
 2044TIP3   OH227622   0.631   4.880   3.318  0.2312 -0.2405  0.4163
 2044TIP3    H127623   0.592   4.796   3.293  0.1046  0.1716 -0.8853
 2044TIP3    H227624   0.702   4.892   3.254 -1.0017  1.5504 -0.6899
 2045TIP3   OH227625   6.636   5.555   3.136 -0.3155  0.2490 -0.5412
 2045TIP3    H127626   6.681   5.615   3.075  0.6572  0.6914  0.5733
 2045TIP3    H227627   6.686   5.473   3.130  0.8327  0.8001  0.8420
 2046TIP3   OH227628   0.990   3.963  11.657 -0.1260  0.3405  0.2427
 2046TIP3    H127629   0.982   3.925  11.570 -0.6990  3.9482 -1.4887
 2046TIP3    H227630   1.084   3.961  11.676 -0.0780 -1.1566 -0.0962
 2047TIP3   OH227631   3.311   3.960  14.853  0.7045 -0.4893 -0.1329
 2047TIP3    H127632   3.217   3.972  14.838  0.5734 -2.4676 -1.2954
 2047TIP3    H227633   3.342   4.046  14.881 -2.0557 -0.5274  3.9864
 2048TIP3   OH227634   1.869   1.947  13.165 -0.8634  0.0725  0.0049
 2048TIP3    H127635   1.935   1.983  13.107  0.4196 -0.8029  0.8851
 2048TIP3    H227636   1.805   2.018  13.176  0.0065  0.9866 -0.7108
 2049TIP3   OH227637   0.954   1.690   5.461 -0.7434 -0.1578  0.1120
 2049TIP3    H127638   0.896   1.732   5.397 -2.2617 -0.9405  0.9534
 2049TIP3    H227639   0.965   1.756   5.530  0.4999  0.4990 -0.6702
 2050TIP3   OH227640   5.650   4.771   0.677 -0.3045 -0.0180  0.4023
 2050TIP3    H127641   5.626   4.761   0.769  1.0098 -0.3324  0.7277
 2050TIP3    H227642   5.742   4.798   0.679 -0.4515  0.6410 -0.8043
 2051TIP3   OH227643   3.273   6.550   3.174  0.3180  0.9784  0.1845
 2051TIP3    H127644   3.275   6.464   3.216  0.9675  0.0008 -1.7349
 2051TIP3    H227645   3.187   6.555   3.133  0.3919  1.1103  0.0456
 2052TIP3   OH227646   6.615   6.594  13.072 -0.5818  0.5204  1.0604
 2052TIP3    H127647   6.684   6.566  13.131  0.6727  0.0246 -0.5683
 2052TIP3    H227648   6.641   6.683  13.045 -0.2581  0.1366  0.0429
 2053TIP3   OH227649   6.454   1.746  16.835  0.2297 -0.0585 -0.3720
 2053TIP3    H127650   6.487   1.656  16.836  0.6207  0.0608  1.4126
 2053TIP3    H227651   6.373   1.741  16.785 -0.4071 -1.6584  0.7296
 2054TIP3   OH227652   3.612   6.511  15.803  0.2064  0.3794  0.4768
 2054TIP3    H127653   3.646   6.573  15.738 -0.3676  0.3496  0.1397
 2054TIP3    H227654   3.687   6.489  15.857  0.4134  1.3762  0.5996
 2055TIP3   OH227655   1.372   1.187   4.846 -0.8886 -0.0319 -0.0879
 2055TIP3    H127656   1.325   1.269   4.863  1.8702  1.1222  3.1939
 2055TIP3    H227657   1.383   1.147   4.932  1.8068 -1.4935 -0.9767
 2056TIP3   OH227658   6.629   4.404  10.702 -0.1590  0.2487  0.2892
 2056TIP3    H127659   6.651   4.338  10.637 -1.4581 -1.3829  1.4013
 2056TIP3    H227660   6.709   4.416  10.753 -0.5198 -2.4748  1.6832
 2057TIP3   OH227661   3.027   0.428  13.321  0.6145 -0.0217 -0.3839
 2057TIP3    H127662   3.014   0.520  13.343  2.1443  0.7305 -2.3368
 2057TIP3    H227663   2.949   0.403  13.272 -0.3814 -0.2006  1.1931
 2058TIP3   OH227664   5.137   3.568  13.532 -0.3286 -0.6201  0.3973
 2058TIP3    H127665   5.124   3.651  13.579 -3.1883 -1.0548  0.5180
 2058TIP3    H227666   5.137   3.594  13.440  1.5257 -0.2196  0.4700
 2059TIP3   OH227667   5.022   0.473  13.477 -0.2521 -0.4297 -0.1831
 2059TIP3    H127668   4.936   0.432  13.466  0.1953 -1.3083 -0.4521
 2059TIP3    H227669   5.059   0.432  13.555 -0.5278  0.7669  0.6043
 2060TIP3   OH227670   4.805   4.140  17.463 -0.0980 -0.5329 -0.0640
 2060TIP3    H127671   4.766   4.227  17.457 -1.0160 -0.9248  0.0798
 2060TIP3    H227672   4.736   4.085  17.500  0.3590 -1.3884 -0.4499
 2061TIP3   OH227673   0.420   1.212  11.242 -0.1150 -0.7091 -0.0819
 2061TIP3    H127674   0.467   1.290  11.272 -0.6011 -0.4464  0.0107
 2061TIP3    H227675   0.474   1.177  11.171 -0.1517 -0.0002 -0.4627
 2062TIP3   OH227676   1.319   3.233   0.588  0.0490 -0.6063  0.4272
 2062TIP3    H127677   1.237   3.278   0.605  1.1505  1.3570  0.8476
 2062TIP3    H227678   1.321   3.162   0.652 -0.2002  0.8884  2.1952
 2063TIP3   OH227679   2.919   1.743   4.558  0.0364  0.3543 -0.3822
 2063TIP3    H127680   2.889   1.665   4.606 -1.2712  0.2265 -1.3467
 2063TIP3    H227681   2.984   1.709   4.496  0.5955  0.2807  0.2355
 2064TIP3   OH227682   6.356   6.469  15.864  0.3253 -0.2209  0.9351
 2064TIP3    H127683   6.279   6.474  15.808  0.4612 -0.7048  0.6995
 2064TIP3    H227684   6.428   6.447  15.804  0.8906  1.4598  0.9419
 2065TIP3   OH227685   1.379   2.122   5.975 -0.0971 -0.2327  0.6240
 2065TIP3    H127686   1.469   2.088   5.967 -0.4541 -1.0276 -0.1442
 2065TIP3    H227687   1.368   2.137   6.068  1.0412  0.4311  0.6673
 2066TIP3   OH227688   2.828   2.317  15.394  0.4558  0.0613 -0.6679
 2066TIP3    H127689   2.917   2.305  15.361  0.5423  0.5464 -0.6110
 2066TIP3    H227690   2.791   2.387  15.340 -0.0092 -0.3559 -0.9131
 2067TIP3   OH227691   0.967   1.020  15.706  0.2826  0.2640  0.5084
 2067TIP3    H127692   0.875   1.044  15.691  0.1431 -0.0038  0.9067
 2067TIP3    H227693   1.014   1.059  15.633 -0.1637  0.3265  0.2473
 2068TIP3   OH227694   4.997   4.265  16.814 -0.1701  0.0160  0.1067
 2068TIP3    H127695   4.912   4.224  16.802  0.3685 -0.7558 -1.4182
 2068TIP3    H227696   5.021   4.297  16.727  1.5518 -0.7407  0.2534
 2069TIP3   OH227697   0.995   2.545   1.629 -0.6188 -0.3678 -0.6331
 2069TIP3    H127698   0.928   2.509   1.687 -0.1643 -0.1214  0.0657
 2069TIP3    H227699   0.968   2.636   1.616  0.4013  0.2034  0.9570
 2070TIP3   OH227700   4.002   5.194  17.138 -0.2008  0.3767  0.3258
 2070TIP3    H127701   3.985   5.278  17.096  0.9900  1.9036  2.6876
 2070TIP3    H227702   4.094   5.175  17.117 -0.5980 -0.6194 -0.5936
 2071TIP3   OH227703   5.143   4.070   0.092  0.5443 -0.3549 -0.3337
 2071TIP3    H127704   5.092   4.009   0.144 -1.3868  0.2537 -1.4183
 2071TIP3    H227705   5.157   4.026   0.009  1.9740 -0.5769  0.0035
 2072TIP3   OH227706   2.311   3.901   1.251  0.5076 -0.1154  0.0330
 2072TIP3    H127707   2.279   3.980   1.206  1.0568 -0.1625 -0.4443
 2072TIP3    H227708   2.392   3.929   1.293  2.0744 -1.0238 -2.2131
 2073TIP3   OH227709   6.700   4.715   1.989 -0.0403  0.0802 -0.1196
 2073TIP3    H127710   6.739   4.791   1.946  2.9474 -0.9061  0.5990
 2073TIP3    H227711   6.641   4.753   2.055  2.1270  1.8978  0.9363
 2074TIP3   OH227712   5.299   3.520   5.762  0.2958 -0.8209 -0.1714
 2074TIP3    H127713   5.340   3.606   5.775 -1.3446 -0.2970  2.4541
 2074TIP3    H227714   5.219   3.538   5.714 -0.4568 -0.6819  1.0721
 2075TIP3   OH227715   6.455   4.697  14.651  0.0308  0.0746  0.0054
 2075TIP3    H127716   6.543   4.735  14.651  0.3989 -0.7417  0.4184
 2075TIP3    H227717   6.412   4.734  14.728  0.2211  0.0336  0.1310
 2076TIP3   OH227718   2.475   5.159  15.235 -0.2605  0.2706  0.6076
 2076TIP3    H127719   2.417   5.218  15.283 -0.5784  0.2614  0.2326
 2076TIP3    H227720   2.522   5.216  15.174  0.5774  0.3767  1.3267
 2077TIP3   OH227721   4.153   4.757   2.956 -0.6357 -0.3295 -0.1706
 2077TIP3    H127722   4.174   4.665   2.970  1.4498  0.4118  2.4422
 2077TIP3    H227723   4.096   4.781   3.029  0.5915  0.8729  0.4663
 2078TIP3   OH227724   1.837   2.252   6.029 -0.0870  0.9077 -0.7240
 2078TIP3    H127725   1.777   2.177   6.034  0.0402  0.8759  1.2176
 2078TIP3    H227726   1.903   2.235   6.096  0.8264  2.0358 -1.2939
 2079TIP3   OH227727   2.105   4.996   5.217  0.3884  0.0190 -0.1423
 2079TIP3    H127728   2.150   5.037   5.291  1.0202  0.1891 -0.6164
 2079TIP3    H227729   2.013   4.998   5.241  0.6293 -0.3318  0.8416
 2080TIP3   OH227730   2.726   5.776  12.613  0.6794 -0.1178 -0.2965
 2080TIP3    H127731   2.676   5.813  12.686 -0.9719 -1.5844 -0.5933
 2080TIP3    H227732   2.773   5.850  12.575 -0.7647  1.2326  0.4267
 2081TIP3   OH227733   4.215   6.458   1.529 -0.1532  0.5623  0.4172
 2081TIP3    H127734   4.231   6.419   1.615 -0.7506 -1.1085 -0.2009
 2081TIP3    H227735   4.231   6.552   1.542  0.4038  0.2551  2.1784
 2082TIP3   OH227736   1.761   3.067  12.191  0.1611  0.1715 -0.3330
 2082TIP3    H127737   1.769   3.134  12.260  0.8265 -0.3285  0.0798
 2082TIP3    H227738   1.797   3.110  12.113 -0.6901  0.7777 -0.4113
 2083TIP3   OH227739   1.079   5.476  10.717  0.0683 -0.7787  0.0953
 2083TIP3    H127740   1.014   5.428  10.768  0.3663 -0.9130  0.3538
 2083TIP3    H227741   1.156   5.419  10.716  0.0908 -0.7508 -0.4514
 2084TIP3   OH227742   3.726   6.409  13.186 -0.2164 -0.6223 -0.1388
 2084TIP3    H127743   3.747   6.428  13.095  1.2184  1.9215  0.6266
 2084TIP3    H227744   3.778   6.332  13.208 -0.3865 -1.1025 -1.3808
 2085TIP3   OH227745   5.037   4.949   5.443 -0.0818  0.0433 -0.0011
 2085TIP3    H127746   5.028   5.022   5.504  1.4441 -0.4413  0.8528
 2085TIP3    H227747   5.064   4.875   5.497 -0.6584 -0.9210 -0.9867
 2086TIP3   OH227748   3.311   0.081   2.057 -0.4617 -0.4566  0.1118
 2086TIP3    H127749   3.399   0.043   2.044 -1.1326 -1.6164 -1.3465
 2086TIP3    H227750   3.306   0.151   1.992 -1.1776 -1.4741 -0.9727
 2087TIP3   OH227751   0.433   3.874  12.431 -0.5020  0.1336  0.0602
 2087TIP3    H127752   0.482   3.799  12.398  1.7641  1.5273  0.0610
 2087TIP3    H227753   0.417   3.854  12.523 -0.2550 -0.5066 -0.0306
 2088TIP3   OH227754   4.070   4.629  13.900  0.2307 -0.2413 -0.2795
 2088TIP3    H127755   4.114   4.685  13.836  0.2979  0.4268  0.3443
 2088TIP3    H227756   4.087   4.670  13.985 -0.8877 -0.4291  0.0558
 2089TIP3   OH227757   2.587   3.371   0.504 -0.3150  0.0278 -0.2580
 2089TIP3    H127758   2.597   3.323   0.422  0.5613  2.4625 -1.6940
 2089TIP3    H227759   2.653   3.333   0.562 -0.3638 -1.1643 -0.9437
 2090TIP3   OH227760   6.615   6.233  13.841 -0.0234 -0.0519  0.2341
 2090TIP3    H127761   6.653   6.317  13.867  1.6524 -0.7432  0.1476
 2090TIP3    H227762   6.521   6.250  13.834  0.0112  1.2984  2.2159
 2091TIP3   OH227763   3.464   2.966   2.366  0.3122 -0.1095 -0.2135
 2091TIP3    H127764   3.533   2.984   2.301  1.0396 -1.7894  0.0116
 2091TIP3    H227765   3.512   2.949   2.447 -0.6527  3.3111  1.2074
 2092TIP3   OH227766   2.436   5.745   1.611 -0.7154 -0.1350 -0.5796
 2092TIP3    H127767   2.452   5.832   1.574  2.5166  0.2404  1.2781
 2092TIP3    H227768   2.388   5.761   1.692 -0.0937 -0.0512 -0.2222
 2093TIP3   OH227769   3.228   2.314  16.193  0.7432 -0.0623  0.0933
 2093TIP3    H127770   3.237   2.409  16.181  0.9894  0.0496  1.0835
 2093TIP3    H227771   3.151   2.291  16.142  1.0716  0.5565 -0.7174
 2094TIP3   OH227772   1.449   0.384  13.671  0.2632  0.0148  0.4135
 2094TIP3    H127773   1.482   0.296  13.652 -0.6796 -0.2004 -0.2946
 2094TIP3    H227774   1.403   0.374  13.754 -0.0883 -0.2290  0.1916
 2095TIP3   OH227775   4.606   6.757   4.408 -0.5559  0.3843  0.3106
 2095TIP3    H127776   4.625   6.674   4.364 -0.2061  0.4909  0.2634
 2095TIP3    H227777   4.563   6.811   4.341 -0.7698  0.2508  0.3370
 2096TIP3   OH227778   2.065   2.043   4.686 -0.1989 -0.0183 -1.1568
 2096TIP3    H127779   2.046   2.007   4.772 -1.1297  1.4965 -0.6916
 2096TIP3    H227780   2.027   1.981   4.624  1.0938 -1.4893 -0.5469
 2097TIP3   OH227781   1.564   2.096   2.195 -0.6149  0.4281  0.5029
 2097TIP3    H127782   1.481   2.083   2.149 -0.8174  1.5001  0.5444
 2097TIP3    H227783   1.629   2.052   2.140 -0.8408  1.7161 -0.8653
 2098TIP3   OH227784   2.001   1.488   0.815  0.1182  0.1085  0.1885
 2098TIP3    H127785   2.016   1.442   0.897 -0.9467  0.0048  0.3406
 2098TIP3    H227786   2.085   1.485   0.769 -0.0260 -2.3803  0.0000
 2099TIP3   OH227787   0.998   5.341   6.146  0.0771  0.9621  0.0403
 2099TIP3    H127788   1.074   5.284   6.151 -0.8315 -0.2487  0.5660
 2099TIP3    H227789   0.928   5.292   6.190 -1.6902  0.9451 -2.5735
 2100TIP3   OH227790   1.475   1.409   2.656 -0.0649 -0.2043  0.2484
 2100TIP3    H127791   1.442   1.478   2.599 -2.6097 -1.9067 -0.5038
 2100TIP3    H227792   1.529   1.354   2.599 -0.5994 -0.5403  0.0571
 2101TIP3   OH227793   6.312   3.736  13.222 -0.5667  0.3344 -0.3730
 2101TIP3    H127794   6.234   3.686  13.247  0.2662 -0.6915  0.2815
 2101TIP3    H227795   6.313   3.811  13.281 -0.8950  0.1789 -0.1670
 2102TIP3   OH227796   0.514   1.794   4.173  0.0867 -0.1745  0.4452
 2102TIP3    H127797   0.557   1.808   4.257 -0.0963 -0.1670  0.5388
 2102TIP3    H227798   0.444   1.860   4.171 -0.4839 -0.7629  0.6826
 2103TIP3   OH227799   2.409   5.006  14.357 -0.0214 -0.3775 -0.0072
 2103TIP3    H127800   2.372   5.080  14.404 -1.1494 -0.0098 -1.4156
 2103TIP3    H227801   2.446   5.044  14.277  0.5048 -1.1789 -0.1636
 2104TIP3   OH227802   0.040   1.406   4.623 -0.0744  0.3506 -0.1917
 2104TIP3    H127803   0.121   1.429   4.578 -0.3904 -0.8391 -1.4488
 2104TIP3    H227804  -0.028   1.457   4.579 -0.0638  1.2743  0.7971
 2105TIP3   OH227805   5.284   3.561  17.048  0.0425  0.0974 -0.0269
 2105TIP3    H127806   5.299   3.613  16.970  0.7198  0.7756  0.5446
 2105TIP3    H227807   5.322   3.476  17.029 -1.1159 -0.2362 -0.9859
 2106TIP3   OH227808   0.686   1.148  16.505 -0.4387  0.1966  0.1692
 2106TIP3    H127809   0.747   1.126  16.434 -1.0621 -1.1714  0.0234
 2106TIP3    H227810   0.741   1.153  16.583 -0.1736 -1.5853  0.1433
 2107TIP3   OH227811   4.572   0.569   4.679  0.0782 -0.2331  0.6843
 2107TIP3    H127812   4.604   0.605   4.761 -1.3172 -1.1393  1.6824
 2107TIP3    H227813   4.484   0.605   4.669  0.4481  0.3341 -0.7363
 2108TIP3   OH227814   0.717   1.672   1.858 -0.0654  0.1775  0.4288
 2108TIP3    H127815   0.631   1.696   1.824  0.4832  0.9372 -0.4817
 2108TIP3    H227816   0.702   1.650   1.950 -1.4404 -0.9523 -0.0241
 2109TIP3   OH227817   2.527   3.568   3.301 -0.4269 -0.1568  0.1274
 2109TIP3    H127818   2.449   3.543   3.251  0.9960 -0.0211 -2.3179
 2109TIP3    H227819   2.564   3.486   3.332  0.8686 -0.7212 -2.6298
 2110TIP3   OH227820   2.541   4.140   4.198 -0.2800 -0.1136  0.0492
 2110TIP3    H127821   2.582   4.188   4.125  0.3099 -2.2727 -1.1455
 2110TIP3    H227822   2.448   4.161   4.191 -0.6927 -2.2844 -3.1341
 2111TIP3   OH227823   5.202   3.397  13.234  0.5589  0.0331  0.2993
 2111TIP3    H127824   5.263   3.371  13.165  0.7404  1.0419  0.0628
 2111TIP3    H227825   5.221   3.337  13.307  0.9745 -0.4638 -0.2119
 2112TIP3   OH227826   1.152   2.226   2.413  0.2531  0.1353  0.8947
 2112TIP3    H127827   1.248   2.222   2.410  0.3303  0.9146  1.9471
 2112TIP3    H227828   1.130   2.222   2.506 -0.9068 -2.8250  0.6081
 2113TIP3   OH227829   0.483   2.633  15.948  0.0715 -0.1077  0.0158
 2113TIP3    H127830   0.401   2.598  15.912  0.9600 -1.9524 -0.3365
 2113TIP3    H227831   0.464   2.653  16.039 -1.1443  0.8877 -0.4278
 2114TIP3   OH227832   2.066   4.120  11.149  0.1635  0.0019 -0.8743
 2114TIP3    H127833   2.009   4.050  11.115  0.2838  0.3309 -1.7726
 2114TIP3    H227834   2.134   4.074  11.197 -0.0546 -0.4737 -1.0131
 2115TIP3   OH227835   3.185   2.637   3.462 -0.4386 -0.0927  0.0461
 2115TIP3    H127836   3.186   2.670   3.372  3.5488 -0.2184 -0.1361
 2115TIP3    H227837   3.232   2.554   3.459  0.2816  0.1426  2.2836
 2116TIP3   OH227838   2.232   1.507  13.590  0.6225  0.0448  0.4549
 2116TIP3    H127839   2.155   1.544  13.546  0.2637  0.0500  1.0789
 2116TIP3    H227840   2.300   1.507  13.523 -0.7514 -2.8815 -1.1236
 2117TIP3   OH227841   2.225   5.520  15.410  0.2344 -0.0274 -0.0069
 2117TIP3    H127842   2.243   5.428  15.428 -0.6467  0.3102  3.3468
 2117TIP3    H227843   2.311   5.562  15.409  0.5297 -0.4019  2.3978
 2118TIP3   OH227844   1.739   3.974  14.215  0.5277 -0.6749  0.1993
 2118TIP3    H127845   1.742   3.939  14.126 -1.2426 -1.6338  0.4622
 2118TIP3    H227846   1.791   3.914  14.268 -0.5164 -1.5789  0.2268
 2119TIP3   OH227847   4.090   3.145  13.926 -0.4551 -0.2437  0.0216
 2119TIP3    H127848   4.003   3.123  13.891 -0.2161 -1.6921  0.2550
 2119TIP3    H227849   4.150   3.085  13.880  0.2659 -0.0574  0.6958
 2120TIP3   OH227850   3.026   0.523   5.916  0.0259  0.2028 -0.1598
 2120TIP3    H127851   3.093   0.587   5.938  0.4425 -0.4660  0.5764
 2120TIP3    H227852   3.047   0.447   5.970 -0.6475 -0.4359 -0.7781
 2121TIP3   OH227853   6.570   1.742  15.180 -0.7532 -0.2056  0.7972
 2121TIP3    H127854   6.554   1.648  15.173  4.4339 -1.3753  0.3564
 2121TIP3    H227855   6.582   1.771  15.090  0.6046  0.1382  1.0721
 2122TIP3   OH227856   4.510   1.194   0.493 -0.3547  0.0554 -0.1364
 2122TIP3    H127857   4.532   1.273   0.443 -1.7031 -0.4748 -1.6580
 2122TIP3    H227858   4.423   1.211   0.528 -0.0332 -0.1776  0.7973
 2123TIP3   OH227859   1.594   0.025  16.284 -0.6246  0.4789 -0.5290
 2123TIP3    H127860   1.597   0.119  16.305  0.8851  0.2533  0.4418
 2123TIP3    H227861   1.684   0.003  16.260 -1.2494 -0.4461 -2.1494
 2124TIP3   OH227862   2.010   5.394   0.035 -0.3567  0.3615  0.3524
 2124TIP3    H127863   1.988   5.301   0.037  0.9049  0.0574  1.0872
 2124TIP3    H227864   1.936   5.437   0.078 -0.0046 -0.5241  1.9156
 2125TIP3   OH227865   4.343   1.569   0.369  0.4533 -0.1983  0.8984
 2125TIP3    H127866   4.413   1.505   0.356 -0.0814 -0.7602  0.8025
 2125TIP3    H227867   4.387   1.654   0.361  1.1927 -0.5452  1.2062
 2126TIP3   OH227868   2.361   4.518  17.130  0.5412 -0.4502 -0.1167
 2126TIP3    H127869   2.344   4.445  17.072  0.7180 -0.9347  0.4281
 2126TIP3    H227870   2.365   4.595  17.073 -0.8313 -0.6854 -0.5554
 2127TIP3   OH227871   3.960   2.726  11.622  0.0145 -0.2084  0.7175
 2127TIP3    H127872   3.909   2.652  11.587 -0.6751  1.1736 -1.3420
 2127TIP3    H227873   4.044   2.720  11.578 -0.0322  0.2257  0.5717
 2128TIP3   OH227874   3.546   4.168   2.303  0.4222 -0.5768  0.2611
 2128TIP3    H127875   3.538   4.211   2.388  0.5948  0.2986 -0.1562
 2128TIP3    H227876   3.524   4.076   2.321 -2.4189  0.0948  0.7205
 2129TIP3   OH227877   5.619   2.360   0.011  0.0142  0.3968  0.3366
 2129TIP3    H127878   5.625   2.455   0.006  0.4016  0.3420 -0.4725
 2129TIP3    H227879   5.526   2.341   0.000  0.2391  0.5618 -2.8325
 2130TIP3   OH227880   4.734   5.346  14.349 -0.0966 -0.5593 -0.3442
 2130TIP3    H127881   4.778   5.282  14.405 -1.1799 -0.5256  0.5872
 2130TIP3    H227882   4.766   5.430  14.379 -0.4800 -0.5553  0.0661
 2131TIP3   OH227883   1.188   3.965  12.171  0.1153 -0.8853  0.2135
 2131TIP3    H127884   1.133   4.004  12.103  0.3518  0.8565  0.9690
 2131TIP3    H227885   1.143   3.985  12.253  1.4349 -0.1069  0.7909
 2132TIP3   OH227886   1.898   2.368  11.899 -0.2787 -0.0640  0.3128
 2132TIP3    H127887   1.940   2.376  11.813  1.6404  0.5842  1.2601
 2132TIP3    H227888   1.926   2.283  11.932  0.5941  0.5092  1.0873
 2133TIP3   OH227889   0.413   1.734  16.958  0.3118 -0.3835  0.1210
 2133TIP3    H127890   0.347   1.717  16.890  1.6614 -1.7045 -0.9310
 2133TIP3    H227891   0.431   1.648  16.995  1.8724 -0.1436 -0.0317
 2134TIP3   OH227892   2.494   4.545   2.924 -0.3630  0.3442 -0.6191
 2134TIP3    H127893   2.487   4.456   2.958  0.6092  0.6544  0.4509
 2134TIP3    H227894   2.408   4.562   2.884 -0.6935 -0.9144 -0.4967
 2135TIP3   OH227895   1.119   2.087   0.285 -0.0300  0.2458 -0.1455
 2135TIP3    H127896   1.199   2.080   0.234 -1.3310 -1.0865 -2.1233
 2135TIP3    H227897   1.078   2.169   0.256 -1.6577 -1.3678 -2.7586
 2136TIP3   OH227898   4.212   5.609   0.955 -0.3610 -0.4827  0.0346
 2136TIP3    H127899   4.194   5.570   1.040 -0.1583 -0.3634  0.1316
 2136TIP3    H227900   4.283   5.671   0.971 -0.8746  0.1414 -0.0624
 2137TIP3   OH227901   4.132   1.734   0.817 -0.3800  0.6546 -0.2481
 2137TIP3    H127902   4.171   1.660   0.771  2.4196  0.5982  1.9376
 2137TIP3    H227903   4.042   1.739   0.784 -1.3432 -4.7792  0.6244
 2138TIP3   OH227904   0.922   1.821  16.318 -0.2231  0.3637 -0.1149
 2138TIP3    H127905   1.010   1.842  16.347 -0.1884  1.5725 -0.9921
 2138TIP3    H227906   0.894   1.899  16.269 -1.5624 -0.2144 -0.3157
 2139TIP3   OH227907   2.286   5.961   6.500 -0.0913  0.4522 -0.2015
 2139TIP3    H127908   2.375   5.985   6.526 -0.2310  0.0746  0.6516
 2139TIP3    H227909   2.232   6.032   6.533 -0.2718 -0.0436  0.6084
 2140TIP3   OH227910   0.092   6.378  15.750 -0.3741 -0.2976 -1.1162
 2140TIP3    H127911   0.012   6.338  15.717  0.2249 -0.1713 -2.8199
 2140TIP3    H227912   0.113   6.447  15.687  0.6792  0.1581 -0.3095
 2141TIP3   OH227913   0.945   6.065   4.695  0.1112  0.2671  0.4340
 2141TIP3    H127914   0.916   6.110   4.774  0.3254 -0.5157  0.9714
 2141TIP3    H227915   0.933   6.129   4.625  0.0437  1.0153  1.1165
 2142TIP3   OH227916   6.202   4.325   1.621 -0.3568  0.3295 -0.0689
 2142TIP3    H127917   6.259   4.321   1.545 -0.3420 -0.8763 -0.0178
 2142TIP3    H227918   6.239   4.261   1.683  0.9216  2.7944  1.8972
 2143TIP3   OH227919   5.385   3.184   3.763 -0.0562  0.4214  0.1035
 2143TIP3    H127920   5.476   3.161   3.781  0.1981  1.6213  0.4184
 2143TIP3    H227921   5.367   3.257   3.822 -0.7158  1.2347 -1.0781
 2144TIP3   OH227922   2.565   5.403   5.334  0.0418 -0.2826  0.0484
 2144TIP3    H127923   2.548   5.467   5.264 -0.7776 -1.7089 -1.1289
 2144TIP3    H227924   2.546   5.450   5.415 -2.3716  0.4917 -0.8537
 2145TIP3   OH227925   3.788   2.140   6.399 -0.0881  0.3289 -0.3828
 2145TIP3    H127926   3.870   2.102   6.369 -0.4237 -0.8227  0.1073
 2145TIP3    H227927   3.727   2.066   6.405 -0.3364  0.6351  2.0561
 2146TIP3   OH227928   4.426   1.810   0.273  0.1096  0.1347 -0.6849
 2146TIP3    H127929   4.426   1.879   0.340 -1.7350  0.2975 -0.8145
 2146TIP3    H227930   4.511   1.818   0.231  0.8121  0.8571  0.7966
 2147TIP3   OH227931   5.560   5.870  16.741 -0.0361 -0.2756  0.2184
 2147TIP3    H127932   5.557   5.833  16.829 -0.1670  0.1224  0.3860
 2147TIP3    H227933   5.552   5.965  16.755  0.7939 -0.1401 -0.1633
 2148TIP3   OH227934   1.220   4.804  13.006 -0.3701  0.6758  0.1292
 2148TIP3    H127935   1.252   4.789  12.917 -1.7310 -1.1122 -0.1222
 2148TIP3    H227936   1.231   4.898  13.020  1.3704  0.7504 -1.3014
 2149TIP3   OH227937   4.395   0.187   3.600 -0.2159 -0.7632  0.2580
 2149TIP3    H127938   4.353   0.238   3.670 -1.0301 -1.2069  0.1118
 2149TIP3    H227939   4.333   0.193   3.527  1.2577  0.8482 -0.9323
 2150TIP3   OH227940   4.074   4.254  12.985 -0.3429  0.3155 -0.2167
 2150TIP3    H127941   4.085   4.186  13.051  0.6040  0.7640  0.0989
 2150TIP3    H227942   4.126   4.328  13.017  0.6596  0.3172 -1.7637
 2151TIP3   OH227943   1.737   6.606  13.985 -0.0676 -0.0187  0.1447
 2151TIP3    H127944   1.813   6.627  13.931  1.6376 -1.7298  1.7482
 2151TIP3    H227945   1.735   6.674  14.052 -0.4863  0.4941 -0.3739
 2152TIP3   OH227946   1.233   2.616   2.260 -0.4840 -0.0599 -0.1091
 2152TIP3    H127947   1.299   2.659   2.206  0.2259  0.3801  1.0732
 2152TIP3    H227948   1.154   2.669   2.249 -0.4102 -0.0990 -0.8634
 2153TIP3   OH227949   0.960   2.886  16.967  0.0828  0.4331 -0.6504
 2153TIP3    H127950   0.909   2.848  16.895  0.6869  0.7641 -1.2742
 2153TIP3    H227951   1.045   2.843  16.961  0.0410  0.2476  0.0644
 2154TIP3   OH227952   1.788   0.989  14.714  0.1067  0.2134 -0.1557
 2154TIP3    H127953   1.876   1.018  14.689  0.8274  0.3384  2.2100
 2154TIP3    H227954   1.798   0.894  14.729 -0.5765 -0.0686 -1.4124
 2155TIP3   OH227955   4.630   4.177   2.028  0.3914  0.0520  0.1680
 2155TIP3    H127956   4.674   4.147   2.107 -0.8890  0.6276  1.1267
 2155TIP3    H227957   4.563   4.239   2.058 -1.8997 -1.6440 -1.0718
 2156TIP3   OH227958   3.731   2.276  10.647  0.0795 -0.1698  0.1565
 2156TIP3    H127959   3.793   2.299  10.717 -0.6548  1.9548  0.1709
 2156TIP3    H227960   3.785   2.229  10.583  1.9970  2.3293 -0.2373
 2157TIP3   OH227961   3.423   1.472  10.732  0.2280 -0.5037  0.0396
 2157TIP3    H127962   3.456   1.562  10.724  0.6064 -0.6659 -0.3040
 2157TIP3    H227963   3.488   1.427  10.785 -0.4606 -0.3364  1.0359
 2158TIP3   OH227964   6.576   1.029   0.879  0.3327 -0.3902 -0.0698
 2158TIP3    H127965   6.641   0.993   0.939  1.4602  0.1083 -0.9628
 2158TIP3    H227966   6.602   0.997   0.792 -0.5915 -0.1590 -0.4484
 2159TIP3   OH227967   6.174   3.285  16.727 -0.5644 -0.2963 -0.3865
 2159TIP3    H127968   6.137   3.354  16.671 -0.0723 -0.0838 -0.4542
 2159TIP3    H227969   6.265   3.310  16.738 -1.0024  0.5475  1.8158
 2160TIP3   OH227970   6.447   0.279   3.718  0.1530  0.5735  0.6715
 2160TIP3    H127971   6.492   0.357   3.687  0.0715  1.2549  2.1666
 2160TIP3    H227972   6.512   0.209   3.710  0.2166  0.7677 -0.6986
 2161TIP3   OH227973   3.145   3.404  14.136 -0.3125 -0.0201 -0.1101
 2161TIP3    H127974   3.142   3.321  14.184 -1.2152  0.0431 -0.0497
 2161TIP3    H227975   3.077   3.458  14.176  0.0599  0.6429 -0.3538
 2162TIP3   OH227976   4.761   0.620   6.667 -0.2296  0.7060  0.0882
 2162TIP3    H127977   4.805   0.670   6.735 -0.4555  2.1583 -0.7743
 2162TIP3    H227978   4.692   0.679   6.635  0.5086  0.5061 -2.0549
 2163TIP3   OH227979   3.773   2.962  14.802 -0.6669 -0.1947  0.5440
 2163TIP3    H127980   3.778   2.895  14.869 -2.8424 -1.2834 -0.2775
 2163TIP3    H227981   3.750   3.042  14.850 -1.9682 -0.9025  1.1548
 2164TIP3   OH227982   1.251   5.328   4.285 -0.1975  0.0469 -0.0172
 2164TIP3    H127983   1.180   5.370   4.334 -0.5610  0.0811 -0.5583
 2164TIP3    H227984   1.330   5.371   4.315 -0.4709  0.4416  0.1475
 2165TIP3   OH227985   5.750   1.208   5.854 -0.1236  0.0921 -0.7858
 2165TIP3    H127986   5.737   1.133   5.911 -0.1457 -0.0884 -1.0262
 2165TIP3    H227987   5.798   1.271   5.908 -1.7132  0.6494  0.0177
 2166TIP3   OH227988   6.108   3.789  15.774 -0.5792  0.0951  0.1034
 2166TIP3    H127989   6.036   3.851  15.760 -3.1597 -2.7069  0.0134
 2166TIP3    H227990   6.074   3.705  15.744  3.5324 -1.1171 -1.9300
 2167TIP3   OH227991   3.574   5.057   3.629 -0.1327  0.2642  0.3027
 2167TIP3    H127992   3.529   4.996   3.687 -0.3931  0.4817  0.3316
 2167TIP3    H227993   3.612   5.002   3.561 -1.0726  0.1380 -0.1355
 2168TIP3   OH227994   1.176   5.304   3.494  0.0460  0.3059 -0.0703
 2168TIP3    H127995   1.206   5.214   3.487 -0.6980  0.1286 -1.2963
 2168TIP3    H227996   1.216   5.337   3.574  1.9364 -0.4864 -0.6445
 2169TIP3   OH227997   0.944   2.415  11.597 -0.3239  0.0913 -0.2658
 2169TIP3    H127998   0.991   2.380  11.673  1.9019  2.6153 -0.3366
 2169TIP3    H227999   0.989   2.377  11.521 -1.6945 -1.3763 -0.3988
 2170TIP3   OH228000   6.268   1.221   6.199  0.9452  0.4224 -0.1751
 2170TIP3    H128001   6.235   1.150   6.253  0.1631  0.0168 -1.1520
 2170TIP3    H228002   6.235   1.300   6.241  1.5572  0.2063  0.7394
 2171TIP3   OH228003   4.225   3.436  13.660 -0.2503 -0.0445 -0.2288
 2171TIP3    H128004   4.276   3.512  13.630 -3.2587  1.9358 -0.7506
 2171TIP3    H228005   4.216   3.450  13.754  0.8687 -0.9120  0.0311
 2172TIP3   OH228006   1.862   3.034  14.447 -0.1814 -0.2337 -0.5163
 2172TIP3    H128007   1.788   2.976  14.427  0.4726 -0.5869 -2.0039
 2172TIP3    H228008   1.934   2.976  14.470  0.0505  0.0515 -0.5058
 2173TIP3   OH228009   3.784   6.022  15.714 -0.3163  0.0666 -0.0207
 2173TIP3    H128010   3.831   6.014  15.797  0.1717 -0.4941 -0.3424
 2173TIP3    H228011   3.791   6.115  15.692  0.5885  0.0147 -0.0127
 2174TIP3   OH228012   1.372   4.152  17.191  0.2174 -0.2358  0.6080
 2174TIP3    H128013   1.445   4.175  17.248 -0.0849  0.3951  0.7413
 2174TIP3    H228014   1.324   4.084  17.240 -0.0364  0.2953  1.1055
 2175TIP3   OH228015   1.509   0.547  17.238  0.1325  0.3454  0.2264
 2175TIP3    H128016   1.475   0.507  17.318  1.4121  0.8029  1.0342
 2175TIP3    H228017   1.556   0.625  17.269  0.4636  0.6444 -0.9915
 2176TIP3   OH228018   6.750   0.097  13.895  0.0271 -0.4210 -0.3492
 2176TIP3    H128019   6.807   0.019  13.892  0.4467 -0.1181 -0.4164
 2176TIP3    H228020   6.800   0.160  13.946  0.0972  0.1200 -1.0725
 2177TIP3   OH228021   5.435   1.011   4.241 -0.5360  0.3315 -0.0806
 2177TIP3    H128022   5.491   0.962   4.301  0.4809  0.6697 -0.7246
 2177TIP3    H228023   5.368   1.050   4.297 -1.2370 -1.5891  0.4688
 2178TIP3   OH228024   3.565   5.919  13.556 -0.1860 -0.3779  0.1878
 2178TIP3    H128025   3.572   5.948  13.647  0.6741 -0.0048  0.0085
 2178TIP3    H228026   3.546   5.998  13.506 -1.3580 -0.6817  0.1040
 2179TIP3   OH228027   2.237   0.547  11.507  0.1969  0.0997  0.4388
 2179TIP3    H128028   2.188   0.488  11.564 -1.6018  0.8744 -0.2492
 2179TIP3    H228029   2.328   0.538  11.537 -0.2953 -1.5408  1.6096
 2180TIP3   OH228030   2.847   3.626  11.117  0.2025  0.2827  0.0021
 2180TIP3    H128031   2.776   3.689  11.106  2.2347  2.4488 -1.5817
 2180TIP3    H228032   2.863   3.624  11.211 -0.5993  1.3106  0.1736
 2181TIP3   OH228033   3.513   1.662   0.994  0.2194 -0.2290  0.0102
 2181TIP3    H128034   3.499   1.567   0.997 -1.0227 -0.0715 -0.0984
 2181TIP3    H228035   3.432   1.696   0.956  0.3096  0.9412  0.8230
 2182TIP3   OH228036   1.834   4.725  14.887 -0.2858 -0.1145  0.3567
 2182TIP3    H128037   1.800   4.772  14.963 -0.5825  0.0198  0.1401
 2182TIP3    H228038   1.778   4.752  14.814 -0.2701 -0.5703  0.1721
 2183TIP3   OH228039   3.777   3.985   4.805 -0.7846  0.5174 -0.3781
 2183TIP3    H128040   3.812   3.933   4.877 -1.1060  0.9730  0.1132
 2183TIP3    H228041   3.854   4.014   4.756 -0.5616  0.2618 -0.1795
 2184TIP3   OH228042   1.456   2.554   5.416  0.2387 -0.1327 -0.1797
 2184TIP3    H128043   1.465   2.618   5.487  0.4319  0.7571 -0.9889
 2184TIP3    H228044   1.364   2.561   5.389  0.3541  0.0890 -0.5243
 2185TIP3   OH228045   5.089   4.962  12.125  0.4477  0.1251 -0.0085
 2185TIP3    H128046   5.093   5.057  12.131 -1.6115  0.1721  3.5975
 2185TIP3    H228047   5.139   4.931  12.200  3.0289 -1.8935 -2.3213
 2186TIP3   OH228048   5.100   2.437   0.373  0.2326 -0.1390 -0.4598
 2186TIP3    H128049   5.070   2.348   0.396 -0.4465 -0.0685 -1.0546
 2186TIP3    H228050   5.030   2.494   0.404  0.7765  0.2234  0.1322
 2187TIP3   OH228051   5.208   6.022  15.090 -0.2240 -0.3249 -0.2035
 2187TIP3    H128052   5.130   5.993  15.043 -0.1883 -0.7437 -0.0096
 2187TIP3    H228053   5.254   6.078  15.028 -0.3704 -0.5653 -0.5324
 2188TIP3   OH228054   0.938   3.844  15.035 -0.0553 -0.3733 -0.3759
 2188TIP3    H128055   0.940   3.846  14.940 -0.3944 -0.2168 -0.3818
 2188TIP3    H228056   1.024   3.879  15.062 -1.2542  3.1227 -0.6072
 2189TIP3   OH228057   4.341   3.647   4.372  0.2752  0.4181 -0.3422
 2189TIP3    H128058   4.353   3.560   4.412 -1.8652 -1.2147 -2.8849
 2189TIP3    H228059   4.246   3.660   4.372  0.4608  2.0295 -1.4709
 2190TIP3   OH228060   1.658   2.889   1.762 -0.5765 -0.3227  0.4368
 2190TIP3    H128061   1.692   2.971   1.797 -1.1875 -0.1609  0.6801
 2190TIP3    H228062   1.717   2.821   1.797 -1.3274 -0.1989  2.0727
 2191TIP3   OH228063   3.933   2.462   0.507  0.0428 -0.2646 -0.1075
 2191TIP3    H128064   3.888   2.387   0.468  0.3277 -0.7610  0.5031
 2191TIP3    H228065   3.974   2.427   0.586  0.3221  0.4992  0.0939
 2192TIP3   OH228066   4.758   3.541  10.624 -0.4711 -0.0430  0.5296
 2192TIP3    H128067   4.696   3.476  10.591 -3.3519  2.4911  0.4910
 2192TIP3    H228068   4.735   3.622  10.579  2.2335  1.3304  1.3380
 2193TIP3   OH228069   1.048   5.869   0.817 -0.6063 -0.4820 -0.3561
 2193TIP3    H128070   1.121   5.923   0.847 -1.4041 -0.1006  0.9600
 2193TIP3    H228071   0.973   5.928   0.813 -0.8647 -0.8635 -1.7338
 2194TIP3   OH228072   4.788   3.346  14.057 -0.2712 -0.6997  0.1576
 2194TIP3    H128073   4.772   3.424  14.110 -1.4496 -1.0238  0.3116
 2194TIP3    H228074   4.874   3.360  14.017  0.1874  0.0042  1.3563
 2195TIP3   OH228075   5.920   6.067   4.946  0.3716 -0.0634  0.0069
 2195TIP3    H128076   6.012   6.041   4.949  0.0977 -1.0113  1.8477
 2195TIP3    H228077   5.873   5.990   4.976 -0.9376  0.7896  0.2242
 2196TIP3   OH228078   2.096   3.459  17.265 -0.3269 -0.4925  0.0832
 2196TIP3    H128079   2.120   3.542  17.307 -0.1887 -0.9862  1.0084
 2196TIP3    H228080   2.158   3.395  17.300 -0.6718 -1.0629 -0.3279
 2197TIP3   OH228081   1.111   4.143  13.139 -0.0197  0.0915  0.2943
 2197TIP3    H128082   1.159   4.217  13.177  3.5422 -1.0401 -1.5307
 2197TIP3    H228083   1.098   4.167  13.047 -0.9374 -0.6270  0.2161
 2198TIP3   OH228084   2.294   1.857  14.846 -0.1753 -0.3445  0.0724
 2198TIP3    H128085   2.361   1.805  14.891  1.3451 -0.9766 -2.6880
 2198TIP3    H228086   2.216   1.802  14.850  0.5720 -1.4691 -0.0910
 2199TIP3   OH228087   0.970   2.428  15.839 -0.4124  0.3236 -0.3097
 2199TIP3    H128088   0.897   2.490  15.835 -0.7986 -0.1704 -1.5901
 2199TIP3    H228089   0.936   2.349  15.797  1.0490  0.2977 -1.5666
 2200TIP3   OH228090   1.763   2.539  13.747 -0.1802  0.1928  0.3663
 2200TIP3    H128091   1.791   2.614  13.801 -0.4812  0.7304 -0.2124
 2200TIP3    H228092   1.668   2.541  13.751 -0.3700  1.8242 -2.2171
 2201TIP3   OH228093   5.345   1.086   7.136 -0.0525  0.2870 -0.2698
 2201TIP3    H128094   5.271   1.123   7.088 -1.4900  0.6840  2.0778
 2201TIP3    H228095   5.354   0.998   7.101 -1.2173  0.4535 -1.0716
 2202TIP3   OH228096   3.280   3.794   5.790  0.2685 -0.0053 -0.2881
 2202TIP3    H128097   3.205   3.748   5.828  0.8399 -1.4022 -0.7601
 2202TIP3    H228098   3.266   3.886   5.812  0.0254 -0.5879  2.3882
 2203TIP3   OH228099   5.501   2.045   2.046  1.0305 -0.4423  0.1784
 2203TIP3    H128100   5.479   2.096   2.124  1.9214 -0.5003  0.4800
 2203TIP3    H228101   5.463   1.959   2.063 -1.6907  0.4413 -0.9327
 2204TIP3   OH228102   0.790   5.236  13.434  0.5392 -0.1581 -0.1301
 2204TIP3    H128103   0.720   5.191  13.482  1.4939 -0.7290  0.7715
 2204TIP3    H228104   0.760   5.326  13.426 -1.1852 -0.7996 -1.5239
 2205TIP3   OH228105   4.615   3.186  15.239 -0.6531 -0.3729  0.1280
 2205TIP3    H128106   4.678   3.197  15.309  0.8865 -1.2264 -1.0526
 2205TIP3    H228107   4.589   3.094  15.244  0.5755 -0.8405 -1.2385
 2206TIP3   OH228108   4.724   6.475   1.386 -0.0054  0.5350 -0.0862
 2206TIP3    H128109   4.683   6.552   1.426  0.7233  1.8230 -1.7410
 2206TIP3    H228110   4.653   6.411   1.380 -0.7877  1.2937  0.7100
 2207TIP3   OH228111   5.369   1.228  15.745  0.0761 -0.3428 -0.7035
 2207TIP3    H128112   5.445   1.287  15.747 -0.6663  0.6500 -0.6799
 2207TIP3    H228113   5.359   1.200  15.836 -0.8643  1.2743 -0.2554
 2208TIP3   OH228114   3.915   2.516   3.935 -0.2031 -0.3165  0.2894
 2208TIP3    H128115   3.845   2.579   3.952 -0.4057  0.0613 -1.6981
 2208TIP3    H228116   3.971   2.520   4.013 -0.2512  2.2596  0.2655
 2209TIP3   OH228117   3.744   6.319   0.066  0.1635  0.1962  0.3027
 2209TIP3    H128118   3.713   6.375   0.137 -0.2821  0.5762 -0.1860
 2209TIP3    H228119   3.754   6.378  -0.008  1.7005  0.0165  0.3272
 2210TIP3   OH228120   0.489   6.153  16.916 -0.5121 -0.0519 -0.2648
 2210TIP3    H128121   0.479   6.243  16.946  0.5285 -0.9564  3.1524
 2210TIP3    H228122   0.583   6.142  16.901  0.0153 -1.5295  3.2474
 2211TIP3   OH228123   1.039   4.905  13.877 -0.2374  0.0806  0.6536
 2211TIP3    H128124   1.013   4.900  13.785  0.7112  0.7834  0.3363
 2211TIP3    H228125   1.058   4.997  13.892 -1.0000  0.0800  1.7435
 2212TIP3   OH228126   6.079   1.899   5.587 -0.3396 -0.2702  0.4946
 2212TIP3    H128127   6.168   1.901   5.552 -0.4254 -0.8152  0.2332
 2212TIP3    H228128   6.050   1.808   5.573 -1.1181  0.0303  0.1140
 2213TIP3   OH228129   5.029   5.953   1.300 -0.5029  0.2457  0.6177
 2213TIP3    H128130   5.069   5.970   1.215 -0.5336  0.1488  0.5832
 2213TIP3    H228131   5.076   5.877   1.334 -2.1842 -1.3753 -0.4631
 2214TIP3   OH228132   0.408   3.187  15.523  0.3000 -0.1195 -0.4524
 2214TIP3    H128133   0.480   3.176  15.460 -0.7381 -0.5712 -1.5946
 2214TIP3    H228134   0.403   3.281  15.537  2.0389 -0.1543  0.7780
 2215TIP3   OH228135   6.515   0.723   4.424  0.1603  0.4883 -0.5811
 2215TIP3    H128136   6.600   0.714   4.467  0.6540  0.4562 -1.5409
 2215TIP3    H228137   6.487   0.812   4.445 -1.9277 -0.9590  3.8886
 2216TIP3   OH228138   0.147   1.766   3.908  0.0298  0.0675 -0.4691
 2216TIP3    H128139   0.074   1.712   3.877 -1.1918  1.3232  0.0923
 2216TIP3    H228140   0.225   1.726   3.870 -0.6971 -2.6110  0.6433
 2217TIP3   OH228141   4.594   2.245   3.467 -0.5698 -0.0962 -0.1071
 2217TIP3    H128142   4.654   2.290   3.528 -2.5359  0.6893  1.3487
 2217TIP3    H228143   4.622   2.154   3.470  0.2835  0.1688  0.8748
 2218TIP3   OH228144   0.562   4.146  12.033  0.1399  0.0292  0.4439
 2218TIP3    H128145   0.608   4.216  12.079  1.7188 -1.6240  1.5260
 2218TIP3    H228146   0.602   4.144  11.946  1.6140 -0.8368  1.1006
 2219TIP3   OH228147   1.836   6.574   4.708  0.5450  0.4139 -0.0450
 2219TIP3    H128148   1.927   6.603   4.713  0.9160 -0.7752  0.4632
 2219TIP3    H228149   1.841   6.481   4.688 -0.5696  0.3868 -0.2788
 2220TIP3   OH228150   5.322   6.467   1.932 -0.2556  0.2586 -0.0138
 2220TIP3    H128151   5.347   6.514   2.012  2.4246 -3.0856  1.3428
 2220TIP3    H228152   5.391   6.487   1.870 -0.9410  0.7726 -0.6238
 2221TIP3   OH228153   3.905   4.958   0.986 -0.2736  0.2773 -0.0687
 2221TIP3    H128154   3.839   4.888   0.992 -0.0779  0.0527 -0.4848
 2221TIP3    H228155   3.931   4.974   1.077 -3.4126  2.8219  0.5403
 2222TIP3   OH228156   2.495   3.704   4.764 -0.3024 -0.2801  0.2991
 2222TIP3    H128157   2.469   3.795   4.755  2.5194  0.4871 -1.1346
 2222TIP3    H228158   2.532   3.697   4.852  0.9028  0.3961 -0.1385
 2223TIP3   OH228159   0.795   3.434  14.465  0.5278 -0.1488  0.3137
 2223TIP3    H128160   0.778   3.524  14.493  1.1302  0.1127 -0.1398
 2223TIP3    H228161   0.755   3.380  14.533  1.0236  0.4659  1.1097
 2224TIP3   OH228162   2.514   1.863   4.262  0.0785 -0.2737 -0.3614
 2224TIP3    H128163   2.553   1.902   4.184  0.8292  1.9689  1.0556
 2224TIP3    H228164   2.439   1.920   4.282 -0.6002 -1.2987  0.1193
 2225TIP3   OH228165   0.255   0.436   5.298 -0.2356  1.1805 -0.2876
 2225TIP3    H128166   0.334   0.478   5.330  1.2301  0.8935 -3.2597
 2225TIP3    H228167   0.230   0.486   5.220 -2.3084  0.5367 -0.1048
 2226TIP3   OH228168   2.646   1.987   2.187 -0.4240 -0.1220 -0.2888
 2226TIP3    H128169   2.583   2.025   2.248  1.9040  0.3914  1.9816
 2226TIP3    H228170   2.714   2.053   2.179  1.6464 -2.0439  0.3776
 2227TIP3   OH228171   3.178   3.115  11.448 -0.6992  0.1919 -0.3410
 2227TIP3    H128172   3.240   3.116  11.520 -1.4926  1.1163  0.3567
 2227TIP3    H228173   3.213   3.177  11.385  1.2732 -2.3422 -1.9421
 2228TIP3   OH228174   5.404   0.836  14.660 -0.1081  0.4002  0.4754
 2228TIP3    H128175   5.387   0.805  14.749 -1.4111  0.8092  0.3836
 2228TIP3    H228176   5.491   0.802  14.640 -0.6181 -1.4643  1.1372
 2229TIP3   OH228177   0.987   0.148  13.390 -0.4300 -0.3868  0.4607
 2229TIP3    H128178   0.940   0.165  13.472  0.7397  0.3395  1.0116
 2229TIP3    H228179   1.075   0.123  13.418 -0.1195 -0.5062 -0.5785
 2230TIP3   OH228180   0.150   1.267  13.565  0.4496  0.2111  0.3191
 2230TIP3    H128181   0.207   1.333  13.524  1.2733 -0.1716  0.8096
 2230TIP3    H228182   0.118   1.310  13.645  4.0805 -1.1675  2.7747
 2231TIP3   OH228183   1.253   5.606   4.694 -0.3267  0.0996  0.4536
 2231TIP3    H128184   1.273   5.637   4.782 -1.2956  1.3975  0.2493
 2231TIP3    H228185   1.281   5.678   4.636 -2.3923  0.5453 -0.0560
 2232TIP3   OH228186   3.581   6.735   3.238  0.2854  0.3165 -0.0744
 2232TIP3    H128187   3.504   6.714   3.186 -0.1406 -2.3588  1.4651
 2232TIP3    H228188   3.551   6.731   3.329  2.1450 -0.5319  0.5579
 2233TIP3   OH228189   0.327   1.400  13.827  0.0098 -0.2583 -0.6121
 2233TIP3    H128190   0.358   1.315  13.797 -0.0652 -0.4057 -0.2707
 2233TIP3    H228191   0.234   1.387  13.846  0.3513 -0.5303  1.0117
 2234TIP3   OH228192   1.011   1.866  12.181  0.3048  0.1043 -0.1408
 2234TIP3    H128193   1.078   1.924  12.216  1.0202  0.2287 -1.6396
 2234TIP3    H228194   0.928   1.904  12.210  0.7990  1.3310 -0.2669
 2235TIP3   OH228195   2.962   1.644   6.091 -0.5048  0.7587  0.4537
 2235TIP3    H128196   2.959   1.593   6.172  2.1519  0.0700  0.2147
 2235TIP3    H228197   3.018   1.593   6.032  1.8664  3.5834  0.0158
 2236TIP3   OH228198   4.243   4.652   6.512 -0.0263  0.2264  0.0255
 2236TIP3    H128199   4.227   4.731   6.460 -2.8622  0.1726  0.6167
 2236TIP3    H228200   4.317   4.675   6.569  0.8395  1.5125 -1.5483
 2237TIP3   OH228201   2.837   2.666   3.461 -0.0701 -0.1038 -0.9678
 2237TIP3    H128202   2.871   2.714   3.537  1.1514 -1.1940 -0.8003
 2237TIP3    H228203   2.915   2.638   3.413 -0.7734 -1.1879 -1.5151
 2238TIP3   OH228204   1.719   2.048  15.394 -0.1804  0.4349  0.8466
 2238TIP3    H128205   1.751   1.974  15.446  2.7597  2.0600  1.5921
 2238TIP3    H228206   1.754   2.033  15.306 -1.5964 -0.1702  0.3425
 2239TIP3   OH228207   2.821   2.446  17.246 -0.4572  0.0074  0.5277
 2239TIP3    H128208   2.875   2.432  17.323 -1.3348 -0.8654  1.0105
 2239TIP3    H228209   2.881   2.481  17.180  0.2265  1.1522  1.7180
 2240TIP3   OH228210   6.726   4.087  15.913  0.7461  0.2987  0.3993
 2240TIP3    H128211   6.817   4.061  15.901  0.9214  1.2126 -0.3639
 2240TIP3    H228212   6.713   4.085  16.008  1.0693 -1.3770  0.4473
 2241TIP3   OH228213   1.566   0.127  15.670  0.6707  0.2058 -0.1667
 2241TIP3    H128214   1.479   0.088  15.659  1.2290 -0.8905 -0.9200
 2241TIP3    H228215   1.551   0.204  15.724 -0.7316 -0.1121 -0.0578
 2242TIP3   OH228216   6.417   4.729   5.596  0.3986  0.1234  0.3504
 2242TIP3    H128217   6.452   4.656   5.545 -0.5730 -0.8172  0.9892
 2242TIP3    H228218   6.345   4.691   5.646 -1.3502  1.9203 -0.6833
 2243TIP3   OH228219   1.744   1.834  12.576 -1.0943 -0.3640 -0.1510
 2243TIP3    H128220   1.806   1.902  12.603  0.3574 -1.4399 -0.6563
 2243TIP3    H228221   1.695   1.814  12.656 -1.1980  0.9021  0.1209
 2244TIP3   OH228222   2.605   2.825   2.206 -0.1789 -0.1740 -0.2494
 2244TIP3    H128223   2.530   2.849   2.152 -0.3628  1.4533  0.6611
 2244TIP3    H228224   2.571   2.763   2.270 -0.1619 -1.3818 -1.3512
 2245TIP3   OH228225   4.250   4.487  13.061 -0.9301  0.0704 -0.0634
 2245TIP3    H128226   4.195   4.541  13.003  0.2318  1.5996  0.2096
 2245TIP3    H228227   4.251   4.534  13.144  0.3257 -0.2258  0.1064
 2246TIP3   OH228228   4.291   0.947   0.229  0.1524 -0.2968 -0.4994
 2246TIP3    H128229   4.365   0.922   0.286  1.8146  3.0201 -0.9503
 2246TIP3    H228230   4.244   1.013   0.279 -0.4470  0.1333 -1.6061
 2247TIP3   OH228231   6.651   3.644   5.074  0.4663  0.5301  0.4203
 2247TIP3    H128232   6.685   3.718   5.124  1.1191  0.4346  0.1276
 2247TIP3    H228233   6.602   3.683   5.001  2.6830  0.7274 -1.0353
 2248TIP3   OH228234   2.136   2.392   0.625 -0.3678  0.0363  0.2437
 2248TIP3    H128235   2.215   2.355   0.587  0.0523  0.7431  0.4185
 2248TIP3    H228236   2.071   2.387   0.555  0.4092  1.3723 -0.6329
 2249TIP3   OH228237   3.653   4.689   0.101  0.1071  0.2405 -0.7502
 2249TIP3    H128238   3.558   4.675   0.099  0.0688  0.5145 -0.8871
 2249TIP3    H228239   3.680   4.655   0.187  0.1029 -1.1942 -1.2937
 2250TIP3   OH228240   2.962   0.998  17.217  0.6665  0.9688  0.3166
 2250TIP3    H128241   2.948   0.994  17.122  2.9869  0.4382 -0.0727
 2250TIP3    H228242   3.026   1.068  17.228  1.1772  0.3574  1.3651
 2251TIP3   OH228243   2.418   2.144  13.887 -0.4697  0.1679 -0.3736
 2251TIP3    H128244   2.465   2.177  13.810 -1.2063  1.0791 -0.4465
 2251TIP3    H228245   2.373   2.220  13.922  0.2417 -0.1204  1.2623
 2252TIP3   OH228246   3.242   6.129   4.241  0.0600  0.0709 -0.0964
 2252TIP3    H128247   3.332   6.150   4.213  0.0895 -1.2393 -1.0869
 2252TIP3    H228248   3.186   6.174   4.177  0.0255  0.1731  0.0050
 2253TIP3   OH228249   0.675   4.241  10.917 -0.1561 -0.6161 -0.4219
 2253TIP3    H128250   0.685   4.332  10.887 -4.7524  0.3650  0.2326
 2253TIP3    H228251   0.735   4.234  10.991  0.4352  1.8182 -0.5707
 2254TIP3   OH228252   2.445   2.640  16.647 -0.1394  0.0135  0.1543
 2254TIP3    H128253   2.510   2.609  16.711  0.9611  0.3505 -0.7793
 2254TIP3    H228254   2.454   2.735  16.649 -0.2032  0.0310 -0.3926
 2255TIP3   OH228255   2.481   1.833   2.906  0.5911  0.0792  0.0700
 2255TIP3    H128256   2.499   1.806   2.816 -0.3159 -0.0354 -0.0834
 2255TIP3    H228257   2.522   1.765   2.960  0.2999 -0.3730 -0.2734
 2256TIP3   OH228258   1.443   0.429  12.836 -0.4155  0.8791 -0.2259
 2256TIP3    H128259   1.438   0.516  12.796  0.0042  0.5831 -0.9364
 2256TIP3    H228260   1.446   0.369  12.762 -0.3047  0.2824  0.2595
 2257TIP3   OH228261   4.289   0.020   5.700 -0.1669  0.2473 -0.0416
 2257TIP3    H128262   4.380   0.048   5.705 -0.1899  0.1344  1.5350
 2257TIP3    H228263   4.271  -0.019   5.785 -1.7043  0.2930 -0.3126
 2258TIP3   OH228264   6.622   3.774  13.482  0.4281  0.1924 -0.6987
 2258TIP3    H128265   6.679   3.824  13.541  1.2957 -0.3072 -1.1009
 2258TIP3    H228266   6.679   3.749  13.409 -0.6722  1.0108 -1.9028
 2259TIP3   OH228267   5.464   2.648  16.279  0.1309 -0.2553 -0.3814
 2259TIP3    H128268   5.529   2.611  16.339  1.5898  1.3484 -0.9102
 2259TIP3    H228269   5.415   2.710  16.333  0.7522  0.4100 -0.5590
 2260TIP3   OH228270   2.170   4.114  15.011  0.2831  0.7834 -0.3435
 2260TIP3    H128271   2.206   4.153  15.091 -0.6771  0.2120  0.3972
 2260TIP3    H228272   2.242   4.064  14.974  0.5143  0.3525  0.6474
 2261TIP3   OH228273   0.312   2.081   4.007  0.1492 -0.1547 -0.6549
 2261TIP3    H128274   0.231   2.078   3.956  1.3727 -1.5586 -2.6409
 2261TIP3    H228275   0.287   2.052   4.094 -1.8949  1.7176 -0.5328
 2262TIP3   OH228276   6.669   2.834  16.485  0.3325 -0.3619 -0.1325
 2262TIP3    H128277   6.581   2.804  16.461  0.7493 -1.7622 -0.0511
 2262TIP3    H228278   6.720   2.753  16.492  1.2985  0.3222  1.1515
 2263TIP3   OH228279   2.565   4.629  17.278  0.0642 -0.6310  0.1688
 2263TIP3    H128280   2.490   4.586  17.236  0.0898 -1.4894  0.9538
 2263TIP3    H228281   2.613   4.557  17.320  1.5807 -0.1478 -0.6778
 2264TIP3   OH228282   5.866   3.185   6.432 -0.9481 -0.2666 -0.1226
 2264TIP3    H128283   5.948   3.137   6.444  2.5230  3.9580 -3.4163
 2264TIP3    H228284   5.851   3.227   6.517 -0.0885 -1.5552  0.7100
 2265TIP3   OH228285   0.327   2.329   4.841 -0.1674 -0.1066  0.3646
 2265TIP3    H128286   0.314   2.236   4.857  1.3830 -0.3751  0.1790
 2265TIP3    H228287   0.345   2.335   4.747  2.4222  0.0174  0.8185
 2266TIP3   OH228288   3.199   0.937   2.713  0.1281 -0.4485  0.5596
 2266TIP3    H128289   3.201   0.926   2.808  0.9166  0.6829  0.7057
 2266TIP3    H228290   3.153   0.860   2.680 -0.4046 -0.7169  1.8756
 2267TIP3   OH228291   6.102   2.120  17.163 -0.5030  0.0692 -0.0247
 2267TIP3    H128292   6.061   2.141  17.079  0.1129  1.9355  0.1117
 2267TIP3    H228293   6.184   2.169  17.163  0.5712 -1.6180  0.7744
 2268TIP3   OH228294   4.320   1.175  15.202 -0.3731  0.2451 -0.3065
 2268TIP3    H128295   4.400   1.179  15.256 -0.5299  1.1938 -0.1370
 2268TIP3    H228296   4.258   1.127  15.256  0.6017 -2.1393 -1.1526
 2269TIP3   OH228297   2.762   2.024  16.536  0.4475 -0.1344 -0.1901
 2269TIP3    H128298   2.701   1.978  16.594 -0.2637  2.1037  0.9539
 2269TIP3    H228299   2.847   2.015  16.578  0.3925 -0.7776 -0.2142
 2270TIP3   OH228300   4.929   5.762   1.570 -0.1172 -0.3946 -0.5548
 2270TIP3    H128301   4.973   5.736   1.652 -0.0394  0.5748 -0.2709
 2270TIP3    H228302   5.000   5.769   1.506  0.4010  2.2784  0.1759
 2271TIP3   OH228303   1.330   6.388  11.434 -0.2690  0.0057 -0.4564
 2271TIP3    H128304   1.317   6.479  11.407  0.8821 -0.0342 -1.2003
 2271TIP3    H228305   1.288   6.383  11.520 -2.8143  0.4984 -1.6001
 2272TIP3   OH228306   3.376   6.693  13.500 -0.5323  0.3336  0.7613
 2272TIP3    H128307   3.361   6.649  13.584 -0.8364 -0.1132  0.4742
 2272TIP3    H228308   3.330   6.640  13.436 -1.2750  1.3102  0.4595
 2273TIP3   OH228309   5.018   2.889   3.002 -1.1467  0.6797  0.2727
 2273TIP3    H128310   5.014   2.833   3.080 -0.1327  0.3631  0.1074
 2273TIP3    H228311   5.094   2.945   3.017 -0.6353  0.2727 -0.7143
 2274TIP3   OH228312   4.937   4.487   4.887  0.1394  0.0407 -0.0067
 2274TIP3    H128313   5.013   4.515   4.938  0.8602 -0.5445 -0.7417
 2274TIP3    H228314   4.969   4.483   4.796 -0.1119 -2.4709 -0.0309
 2275TIP3   OH228315   0.892   6.038   1.128 -0.0049  0.2330  0.2962
 2275TIP3    H128316   0.829   6.097   1.169 -1.1030 -0.3155 -0.5524
 2275TIP3    H228317   0.941   6.093   1.067 -0.0106  0.5633  0.5882
 2276TIP3   OH228318   0.754   1.260   5.407 -0.4163 -0.6985 -0.1865
 2276TIP3    H128319   0.792   1.238   5.322 -1.1898  0.8118 -0.9790
 2276TIP3    H228320   0.735   1.176   5.448  0.4429 -1.4615 -1.2888
 2277TIP3   OH228321   4.833   2.979   4.159  0.0434  0.0369  0.1074
 2277TIP3    H128322   4.896   2.919   4.118  0.1137  1.1697 -1.5509
 2277TIP3    H228323   4.757   2.977   4.102 -1.6707 -1.5852  2.2763
 2278TIP3   OH228324   4.671   5.126  17.337 -0.3047 -0.1264 -0.0794
 2278TIP3    H128325   4.619   5.088  17.407  0.9568 -0.5770  0.6585
 2278TIP3    H228326   4.612   5.131  17.262 -1.3743 -0.6476  0.7134
 2279TIP3   OH228327   3.051   5.622   5.806  0.7621  0.0172  0.4662
 2279TIP3    H128328   3.041   5.569   5.886  1.0313  1.2849  1.3664
 2279TIP3    H228329   2.970   5.672   5.801  0.6201 -0.2780 -0.2405
 2280TIP3   OH228330   3.057   2.773   0.674 -0.0645 -0.1730 -0.2670
 2280TIP3    H128331   3.107   2.704   0.630 -0.8363 -0.3829 -0.8544
 2280TIP3    H228332   3.023   2.731   0.753  0.2292 -0.1929 -0.1518
 2281TIP3   OH228333   5.166   6.076  11.464 -0.1767  0.2150 -0.1273
 2281TIP3    H128334   5.120   5.998  11.496 -0.7420  0.1106 -1.1690
 2281TIP3    H228335   5.103   6.148  11.477 -0.6293  0.0824 -1.4985
 2282TIP3   OH228336   0.893   6.612   4.133  0.2945  0.4034  0.5706
 2282TIP3    H128337   0.960   6.555   4.095  0.3292  2.1109 -2.2047
 2282TIP3    H228338   0.936   6.651   4.210  2.1470  0.5968 -0.4991
 2283TIP3   OH228339   3.331   1.940   2.820 -0.1138  0.3482 -0.1167
 2283TIP3    H128340   3.390   1.916   2.749 -0.1424 -0.4711  0.1334
 2283TIP3    H228341   3.290   2.022   2.790  0.2672  0.2927 -0.8032
 2284TIP3   OH228342   4.185   6.092  13.861  0.3110  0.2546 -0.6947
 2284TIP3    H128343   4.143   6.162  13.910  2.5476  0.7749  0.6099
 2284TIP3    H228344   4.121   6.021  13.860 -0.1198  0.4531  2.4607
 2285TIP3   OH228345   1.631   1.363   0.347  0.2104 -0.2094  0.2693
 2285TIP3    H128346   1.582   1.335   0.425  2.2268  0.3772  1.8444
 2285TIP3    H228347   1.572   1.424   0.302 -0.0705  1.6262  2.8658
 2286TIP3   OH228348   4.008   6.043  14.776  0.1259 -0.1208 -0.2981
 2286TIP3    H128349   3.931   6.006  14.732 -0.2437 -0.1493  0.3703
 2286TIP3    H228350   4.071   6.056  14.705 -0.0844 -1.1403 -0.6980
 2287TIP3   OH228351   4.541   0.542  17.518  1.3205  0.0980 -0.3119
 2287TIP3    H128352   4.605   0.533  17.589  0.3105  1.1627  0.7547
 2287TIP3    H228353   4.466   0.490  17.546  0.8478  0.6605 -0.5276
 2288TIP3   OH228354   0.679   6.741  16.851 -0.3719 -0.0187  0.8744
 2288TIP3    H128355   0.655   6.684  16.779 -0.2207  0.3506  0.5248
 2288TIP3    H228356   0.596   6.776  16.883 -0.3410  0.9506 -0.0744
 2289TIP3   OH228357   0.372   0.712  16.533 -0.0582  0.4928 -0.3057
 2289TIP3    H128358   0.405   0.785  16.481 -0.1828  0.6606 -0.1463
 2289TIP3    H228359   0.395   0.733  16.623 -0.0090  0.2902 -0.2684
 2290TIP3   OH228360   2.369   3.674   0.661  0.6540  0.2283 -0.2715
 2290TIP3    H128361   2.322   3.757   0.671 -2.1760 -1.0308 -2.1312
 2290TIP3    H228362   2.407   3.678   0.574  0.6308 -0.3672 -0.3132
 2291TIP3   OH228363   0.020   6.166   3.644  0.3837  0.0646 -0.0943
 2291TIP3    H128364   0.110   6.179   3.673  0.0925  3.3532 -0.3439
 2291TIP3    H228365   0.029   6.140   3.552  1.1058  1.0981 -0.3371
 2292TIP3   OH228366   0.904   3.878   2.198  0.3370 -0.6356 -0.5692
 2292TIP3    H128367   0.876   3.815   2.132 -0.2083  0.4016 -1.3546
 2292TIP3    H228368   0.867   3.844   2.280  0.1633 -1.3961 -0.9462
 2293TIP3   OH228369   0.346   6.089   0.957 -0.2233 -0.4567  0.0486
 2293TIP3    H128370   0.427   6.069   0.908 -0.4259 -0.4774 -0.2816
 2293TIP3    H228371   0.276   6.056   0.901 -0.5316  0.6441 -0.2306
 2294TIP3   OH228372   1.619   5.895   0.017 -0.2254  0.6887 -0.0493
 2294TIP3    H128373   1.711   5.914  -0.003  0.0907 -1.0152 -0.4642
 2294TIP3    H228374   1.572   5.917  -0.064 -0.1954  1.6050  0.1787
 2295TIP3   OH228375   4.413   5.653  15.975  0.2542  0.2367  0.5108
 2295TIP3    H128376   4.460   5.654  15.891  2.1335 -2.4518  1.4060
 2295TIP3    H228377   4.482   5.662  16.041 -0.4265 -3.0714  1.8714
 2296TIP3   OH228378   6.680   3.305   1.297 -0.0593 -0.0968  0.0583
 2296TIP3    H128379   6.606   3.365   1.305  0.6306  0.6877  0.7681
 2296TIP3    H228380   6.714   3.297   1.386  0.8142 -0.3038 -0.2892
 2297TIP3   OH228381   6.209   6.130   1.737  0.0389  0.1666  0.3441
 2297TIP3    H128382   6.259   6.202   1.774 -0.9391  1.1682 -0.2175
 2297TIP3    H228383   6.244   6.052   1.780  1.8416  0.8490  0.2052
 2298TIP3   OH228384   6.367   4.877  12.963  0.1407  0.0949 -0.8250
 2298TIP3    H128385   6.391   4.964  12.995 -0.8812  0.4542 -0.9849
 2298TIP3    H228386   6.272   4.881  12.952 -0.0435 -1.3051 -0.0396
 2299TIP3   OH228387   0.778   6.215  16.834 -0.2180  0.0945  0.0853
 2299TIP3    H128388   0.791   6.153  16.762  0.3610 -0.4611  0.6517
 2299TIP3    H228389   0.748   6.295  16.792  1.7617  0.3379 -0.9552
 2300TIP3   OH228390   0.439   0.571   3.748 -0.2689 -0.3742 -0.0511
 2300TIP3    H128391   0.534   0.578   3.756 -0.4141  0.2508  1.7181
 2300TIP3    H228392   0.417   0.629   3.675  0.5660  0.9122  0.6830
 2301TIP3   OH228393   6.685   5.296   5.295  0.1838 -0.4891 -0.0941
 2301TIP3    H128394   6.775   5.265   5.285  0.0541 -0.8925 -0.0214
 2301TIP3    H228395   6.668   5.345   5.214  1.8630  3.2084  1.5558
 2302TIP3   OH228396   0.542   5.931  15.472 -0.0567  0.2736 -0.7528
 2302TIP3    H128397   0.572   5.947  15.383 -1.3573 -1.5224 -1.5806
 2302TIP3    H228398   0.619   5.898  15.518  0.0485 -1.3584 -1.9944
 2303TIP3   OH228399   3.345   2.774   3.640  0.4888  0.2805  0.2149
 2303TIP3    H128400   3.291   2.741   3.569  0.3857  1.1596 -0.1301
 2303TIP3    H228401   3.290   2.766   3.718 -1.2418  3.5746 -0.4950
 2304TIP3   OH228402   0.134   6.758  10.853  0.7834 -0.0222  0.7448
 2304TIP3    H128403   0.224   6.746  10.883  1.0159  2.2190  1.0799
 2304TIP3    H228404   0.102   6.833  10.902 -0.9947 -0.2413 -0.0088
 2305TIP3   OH228405   2.827   5.884   3.713 -0.1116  0.2724 -0.2687
 2305TIP3    H128406   2.777   5.862   3.634  0.9080 -1.5061 -0.4706
 2305TIP3    H228407   2.918   5.890   3.683  0.1783  0.4266  0.6275
 2306TIP3   OH228408   0.058   3.477   2.377  0.0005 -0.3276 -0.0166
 2306TIP3    H128409  -0.016   3.478   2.316  0.2796 -0.3767 -0.3586
 2306TIP3    H228410   0.135   3.491   2.321  0.1912  0.3890  0.4165
 2307TIP3   OH228411   2.142   3.116   5.538 -0.4024 -0.5485  0.0775
 2307TIP3    H128412   2.173   3.080   5.621 -0.6227  1.3155  1.0142
 2307TIP3    H228413   2.047   3.119   5.547 -0.5190 -1.3916 -0.7180
 2308TIP3   OH228414   4.668   0.609  11.858  0.1707 -0.1335  0.1305
 2308TIP3    H128415   4.693   0.517  11.843 -0.5724 -0.3451  0.1511
 2308TIP3    H228416   4.738   0.644  11.914  1.9073  0.0934 -2.0555
 2309TIP3   OH228417   4.336   0.362   0.673 -0.7130  0.0381 -0.3728
 2309TIP3    H128418   4.426   0.331   0.685 -0.9067 -2.4518 -3.9662
 2309TIP3    H228419   4.286   0.318   0.743  0.5335  0.0459  0.5552
 2310TIP3   OH228420   6.164   3.396   0.305  0.3078  0.1083 -0.3317
 2310TIP3    H128421   6.151   3.367   0.215  1.1884  1.3152 -0.8850
 2310TIP3    H228422   6.171   3.316   0.356 -3.2177 -0.6670 -0.8048
 2311TIP3   OH228423   6.698   4.764  13.377  0.1383 -0.0812 -0.1895
 2311TIP3    H128424   6.684   4.743  13.285  0.6478  2.3750 -0.9207
 2311TIP3    H228425   6.611   4.768  13.415 -0.1301 -0.3963 -0.7642
 2312TIP3   OH228426   3.658   5.044   5.514 -0.5893 -0.2379 -0.8224
 2312TIP3    H128427   3.618   5.022   5.598 -1.9968 -1.4481 -1.7627
 2312TIP3    H228428   3.622   5.130   5.492 -0.1029  0.1508 -0.1413
 2313TIP3   OH228429   6.264   0.433  11.597 -0.3612 -0.9039 -0.5885
 2313TIP3    H128430   6.263   0.441  11.501 -0.7708 -2.0166 -0.6873
 2313TIP3    H228431   6.211   0.507  11.627  1.0096  0.3430 -1.1347
 2314TIP3   OH228432   3.095   1.675  11.284  0.6218 -0.7413 -0.3410
 2314TIP3    H128433   3.189   1.662  11.296  0.9369  1.1666 -0.4555
 2314TIP3    H228434   3.057   1.652  11.369  1.2842 -0.7436 -0.0399
 2315TIP3   OH228435   3.225   1.379   1.684  0.4292  0.7567  0.8907
 2315TIP3    H128436   3.217   1.457   1.629  1.2707  1.4081  1.6675
 2315TIP3    H228437   3.182   1.310   1.633  0.8086  1.4258 -0.3977
 2316TIP3   OH228438   6.047   0.129   0.462  0.2272 -0.0730  0.7454
 2316TIP3    H128439   6.053   0.034   0.460 -1.8824 -0.2550  0.7969
 2316TIP3    H228440   6.087   0.154   0.546  1.1955 -0.8409  0.5291
 2317TIP3   OH228441   2.511   0.550  11.513 -0.3892  1.1580 -0.0212
 2317TIP3    H128442   2.535   0.641  11.497  0.8999  0.7623 -0.4650
 2317TIP3    H228443   2.561   0.500  11.448  1.9187 -0.1660  2.5813
 2318TIP3   OH228444   4.197   6.659   0.940 -0.3840  0.8472  0.5542
 2318TIP3    H128445   4.212   6.570   0.973 -1.6185  0.1907 -0.5452
 2318TIP3    H228446   4.197   6.714   1.018 -0.0230 -0.1768  1.3036
 2319TIP3   OH228447   1.333   2.430   4.365 -0.2513 -0.2360 -0.4833
 2319TIP3    H128448   1.356   2.371   4.294 -1.9210 -0.8679 -0.5185
 2319TIP3    H228449   1.318   2.373   4.440  0.2114  0.3241  0.0466
 2320TIP3   OH228450   6.173   4.228  11.372  0.2037 -0.2860 -0.9494
 2320TIP3    H128451   6.223   4.241  11.452  0.3375 -0.0760 -1.0657
 2320TIP3    H228452   6.133   4.142  11.382 -0.6300  0.1616 -0.1924
 2321TIP3   OH228453   1.681   0.519  15.277  0.2278  0.1101  0.1451
 2321TIP3    H128454   1.661   0.571  15.355  0.2436 -0.5049  0.5662
 2321TIP3    H228455   1.732   0.445  15.310 -1.6637 -1.3731 -0.0903
 2322TIP3   OH228456   5.449   4.326   0.486  0.7670  0.4822  0.0896
 2322TIP3    H128457   5.426   4.345   0.395  0.5899  2.0479  0.4299
 2322TIP3    H228458   5.507   4.398   0.511  0.8881  0.0183  1.1842
 2323TIP3   OH228459   5.337   5.317   3.333  0.0190  0.2879 -0.2925
 2323TIP3    H128460   5.378   5.357   3.258  1.5244  1.6683  1.1882
 2323TIP3    H228461   5.380   5.231   3.341 -1.0789 -0.4392 -1.7026
 2324TIP3   OH228462   3.901   4.981   2.929  0.5132  0.4677  0.2410
 2324TIP3    H128463   3.811   4.960   2.955 -0.5997  3.1813 -1.0394
 2324TIP3    H228464   3.899   4.984   2.834  1.5643  2.0168  0.2368
 2325TIP3   OH228465   1.220   0.780   1.689  0.1302  0.3912 -0.0606
 2325TIP3    H128466   1.199   0.804   1.780  0.2255 -0.5024  0.2043
 2325TIP3    H228467   1.295   0.835   1.667  0.3886  0.3029  0.5633
 2326TIP3   OH228468   1.376   4.811   3.495 -0.1307 -0.4091 -0.3959
 2326TIP3    H128469   1.288   4.815   3.533 -1.4063  0.0639 -3.1432
 2326TIP3    H228470   1.393   4.718   3.484  0.0174 -0.5268  0.7471
 2327TIP3   OH228471   3.228   3.331  14.946  0.4290  0.5011 -0.4032
 2327TIP3    H128472   3.290   3.326  14.873  1.5294  2.6550  0.2756
 2327TIP3    H228473   3.146   3.360  14.906  0.0927 -1.3159 -1.1573
 2328TIP3   OH228474   5.635   5.932  12.178  0.7857  0.1662  0.0691
 2328TIP3    H128475   5.696   5.875  12.131 -0.5576 -0.4610 -0.9824
 2328TIP3    H228476   5.566   5.951  12.114 -0.7582 -0.1449  1.5625
 2329TIP3   OH228477   2.009   6.382   0.844  0.0880  0.0059  0.2732
 2329TIP3    H128478   2.047   6.306   0.887 -0.4908  0.4958  1.7208
 2329TIP3    H228479   1.914   6.370   0.854 -0.0153  0.7791  0.2877
 2330TIP3   OH228480   4.108   0.461   2.377 -0.5436  0.0271  0.6048
 2330TIP3    H128481   4.175   0.516   2.337 -0.6887 -0.4757 -0.3586
 2330TIP3    H228482   4.156   0.406   2.439 -0.1129 -0.0828  0.1799
 2331TIP3   OH228483   5.980   1.572   0.309  0.0978  0.1909 -0.1555
 2331TIP3    H128484   5.956   1.601   0.397 -0.9232 -0.1544 -0.3036
 2331TIP3    H228485   6.025   1.489   0.322  0.4057  0.3933  0.0725
 2332TIP3   OH228486   0.375   2.149  13.779 -0.0716  0.1425  0.3148
 2332TIP3    H128487   0.296   2.100  13.802 -0.2983  0.3333 -0.0425
 2332TIP3    H228488   0.425   2.089  13.724  0.2720 -0.1601  0.9468
 2333TIP3   OH228489   4.135   4.490  11.273 -0.3158  0.3027 -0.1460
 2333TIP3    H128490   4.088   4.489  11.190 -0.0147 -1.7700 -0.3417
 2333TIP3    H228491   4.216   4.537  11.255 -1.1205  1.6006 -0.4853
 2334TIP3   OH228492   0.323   1.124   3.603 -0.4481  0.2451  0.5065
 2334TIP3    H128493   0.249   1.183   3.584  0.5599  3.4739  5.0539
 2334TIP3    H228494   0.393   1.155   3.546 -1.4690 -0.4566 -1.2165
 2335TIP3   OH228495   4.265   2.677  13.363 -0.5974  0.4142  0.7655
 2335TIP3    H128496   4.196   2.743  13.371 -1.0295  0.0188  0.3840
 2335TIP3    H228497   4.236   2.621  13.290  1.0636  1.3774 -0.7199
 2336TIP3   OH228498   0.636   2.396  11.192  0.2836 -0.6644 -0.5319
 2336TIP3    H128499   0.573   2.443  11.137 -1.3241 -2.8208 -0.6222
 2336TIP3    H228500   0.594   2.313  11.212  2.5975 -1.6649  0.5088
 2337TIP3   OH228501   0.763   2.983   5.502 -0.0919  0.0609 -0.2799
 2337TIP3    H128502   0.787   3.023   5.419 -0.3968 -1.7737 -1.3133
 2337TIP3    H228503   0.728   3.055   5.554  1.8968  1.6348 -0.9779
 2338TIP3   OH228504   2.347   3.526  13.122  0.4007 -0.7984 -0.0709
 2338TIP3    H128505   2.432   3.490  13.098 -0.1531 -1.6167 -0.9228
 2338TIP3    H228506   2.305   3.544  13.037 -0.0727  0.0748  0.3401
 2339TIP3   OH228507   1.771   5.254   1.738 -0.3969  0.2609  0.2236
 2339TIP3    H128508   1.817   5.191   1.683  1.9554  2.4973 -0.5399
 2339TIP3    H228509   1.679   5.243   1.714  0.1138 -1.5998 -1.1559
 2340TIP3   OH228510   1.475   1.309  11.863  0.2641 -0.4255  0.4167
 2340TIP3    H128511   1.406   1.263  11.911  0.2455 -0.4231  0.3928
 2340TIP3    H228512   1.498   1.250  11.791 -3.0661  1.5273 -2.5232
 2341TIP3   OH228513   4.740   2.101  16.224 -0.2951 -0.0025 -0.3708
 2341TIP3    H128514   4.794   2.042  16.277  1.0072  1.6015  0.1433
 2341TIP3    H228515   4.663   2.048  16.201  1.5754 -2.4871 -1.3949
 2342TIP3   OH228516   1.307   3.649  14.886 -0.2393 -0.1775  0.0449
 2342TIP3    H128517   1.358   3.729  14.868  0.7471 -0.9314 -0.5819
 2342TIP3    H228518   1.244   3.676  14.953  1.2266  0.6993  1.1288
 2343TIP3   OH228519   1.794   3.956   4.576  0.2962  0.0531 -1.0439
 2343TIP3    H128520   1.727   3.915   4.521 -0.2250  1.2451 -1.3458
 2343TIP3    H228521   1.815   3.890   4.642 -0.8198 -0.5371 -1.2462
 2344TIP3   OH228522   1.296   5.267  13.383  0.0065 -0.2629 -0.4304
 2344TIP3    H128523   1.220   5.231  13.430 -0.4447  1.1859 -0.0044
 2344TIP3    H228524   1.363   5.277  13.451 -0.0327  0.1283 -0.4467
 2345TIP3   OH228525   3.873   3.795   2.538  0.1062 -0.4361  0.4634
 2345TIP3    H128526   3.803   3.733   2.564 -0.7232 -1.0292 -2.7957
 2345TIP3    H228527   3.836   3.881   2.556 -0.9817 -0.7840  0.0091
 2346TIP3   OH228528   3.436   5.123  13.379  0.2679  0.4152  0.7132
 2346TIP3    H128529   3.398   5.109  13.292  3.8405 -0.5987 -0.8708
 2346TIP3    H228530   3.408   5.046  13.429  1.5687 -1.2384 -0.9469
 2347TIP3   OH228531   6.765   1.544   3.100  0.6469  0.4816  0.7652
 2347TIP3    H128532   6.761   1.450   3.117  0.2330  0.2418 -0.5702
 2347TIP3    H228533   6.857   1.567   3.115  0.8094 -0.1890  0.8291
 2348TIP3   OH228534   0.102   5.693   0.669  0.2964 -0.3028 -0.5331
 2348TIP3    H128535   0.152   5.748   0.730  1.0562 -1.1238 -0.3871
 2348TIP3    H228536   0.043   5.643   0.725  1.7460 -1.8507 -0.3034
 2349TIP3   OH228537   3.423   3.605  17.117 -0.1737  0.1958 -0.1428
 2349TIP3    H128538   3.431   3.667  17.045 -0.1747  0.0540 -0.2630
 2349TIP3    H228539   3.349   3.638  17.169 -1.0723 -0.4661 -0.9585
 2350TIP3   OH228540   3.978   5.248   0.990 -0.4321  0.2483  0.3336
 2350TIP3    H128541   3.898   5.277   1.035 -0.6551 -0.5294  0.4565
 2350TIP3    H228542   3.983   5.155   1.008 -0.4397 -0.0639 -1.1236
 2351TIP3   OH228543   0.671   5.369  12.519 -0.5885  0.2103 -0.5211
 2351TIP3    H128544   0.726   5.440  12.552 -1.6025  1.4763 -1.4472
 2351TIP3    H228545   0.672   5.304  12.589  1.4507  0.5205 -0.1949
 2352TIP3   OH228546   1.169   1.152   2.391 -0.5421 -0.4096  0.1683
 2352TIP3    H128547   1.239   1.108   2.438 -1.5320 -2.4799 -0.1785
 2352TIP3    H228548   1.209   1.231   2.355  1.4460 -1.2568  0.4264
 2353TIP3   OH228549   6.635   6.291  17.213  0.0385  0.3147 -0.1084
 2353TIP3    H128550   6.636   6.387  17.205 -0.7220  0.3030 -0.5372
 2353TIP3    H228551   6.657   6.274  17.304  0.0688  0.9064  0.0009
 2354TIP3   OH228552   2.364   6.572   0.328  0.3128  0.7948  0.6631
 2354TIP3    H128553   2.372   6.620   0.410 -1.0135  2.0865  0.0841
 2354TIP3    H228554   2.423   6.617   0.267  1.2408 -0.1151  0.8479
 2355TIP3   OH228555   3.239   6.468   5.833  0.3837 -0.3227  0.1956
 2355TIP3    H128556   3.243   6.560   5.808  1.6408 -0.7570 -1.3225
 2355TIP3    H228557   3.146   6.445   5.826  0.4120  0.0918 -2.3788
 2356TIP3   OH228558   1.182   2.759  12.886  0.3444 -0.4218 -0.0170
 2356TIP3    H128559   1.166   2.817  12.960 -0.3320 -0.0212 -0.4641
 2356TIP3    H228560   1.119   2.786  12.820  1.7657  0.0708 -1.2309
 2357TIP3   OH228561   4.596   6.162   2.512 -0.3505  0.0935 -0.2438
 2357TIP3    H128562   4.635   6.207   2.437 -0.8769  1.1465  0.0919
 2357TIP3    H228563   4.657   6.177   2.584 -0.2418 -0.2267 -0.2689
 2358TIP3   OH228564   2.312   3.305   3.619  0.4634 -0.0140  0.6333
 2358TIP3    H128565   2.282   3.286   3.530 -2.0254 -0.9139  1.5530
 2358TIP3    H228566   2.405   3.322   3.610  0.2608  0.1785 -2.1687
 2359TIP3   OH228567   2.520   4.824   4.114 -0.2737  0.6758  0.2627
 2359TIP3    H128568   2.426   4.839   4.123 -0.4683 -0.8250  1.1473
 2359TIP3    H228569   2.533   4.735   4.149  1.3958  0.6686 -0.3039
 2360TIP3   OH228570   1.354   2.967   3.915 -0.5578 -0.4759  0.0575
 2360TIP3    H128571   1.436   2.970   3.867  0.6508 -0.7392  2.0052
 2360TIP3    H228572   1.374   2.917   3.994 -2.3711  0.1546  0.9793
 2361TIP3   OH228573   6.578   0.138  17.360  0.1274  0.0219  0.2720
 2361TIP3    H128574   6.557   0.203  17.293  1.6068 -0.1959 -0.4369
 2361TIP3    H228575   6.673   0.139  17.367  0.0402 -0.2102  2.1543
 2362TIP3   OH228576   4.744   3.701   2.812  0.2493  0.4612 -0.0986
 2362TIP3    H128577   4.821   3.670   2.763  0.3054 -1.8319  1.3065
 2362TIP3    H228578   4.673   3.700   2.747  1.1696  1.7754 -1.1946
 2363TIP3   OH228579   0.126   0.282  14.031  0.2459  0.1659 -0.3852
 2363TIP3    H128580   0.216   0.317  14.029  0.4038 -0.2230 -0.1160
 2363TIP3    H228581   0.100   0.289  14.123  0.3535 -0.6112 -0.2893
 2364TIP3   OH228582   3.473   2.269   4.556  0.3785 -0.0247  0.0954
 2364TIP3    H128583   3.522   2.351   4.566  1.4609 -0.7146  0.6455
 2364TIP3    H228584   3.439   2.271   4.467 -1.4469  1.9951  0.7457
 2365TIP3   OH228585   0.199   4.229  13.043 -0.0878 -0.2658 -0.0181
 2365TIP3    H128586   0.243   4.209  12.960  0.9764  0.3789  0.3773
 2365TIP3    H228587   0.205   4.324  13.052 -3.0946  0.0899 -0.7652
 2366TIP3   OH228588   6.536   6.494   3.964 -0.2146  0.1841  0.3724
 2366TIP3    H128589   6.617   6.490   4.015 -0.5711 -1.9329  0.8818
 2366TIP3    H228590   6.553   6.437   3.888 -1.1242 -0.0869  0.3585
 2367TIP3   OH228591   2.412   4.482   2.363  0.1747 -0.0411  0.2982
 2367TIP3    H128592   2.444   4.489   2.273 -3.6516  2.3284 -1.1168
 2367TIP3    H228593   2.390   4.389   2.373  0.3078 -0.2905 -1.3568
 2368TIP3   OH228594   5.725   1.732   2.958 -0.4130  0.5315  0.0570
 2368TIP3    H128595   5.737   1.824   2.982  1.9200  0.4576 -0.5591
 2368TIP3    H228596   5.787   1.718   2.886 -0.2061 -1.6890  0.5948
 2369TIP3   OH228597   6.416   0.511   3.330 -0.0041  0.0511  0.5188
 2369TIP3    H128598   6.474   0.494   3.405 -2.5149  0.0525  2.6313
 2369TIP3    H228599   6.363   0.432   3.323 -0.4115  0.4168 -0.7277
 2370TIP3   OH228600   0.098   1.104  16.614 -0.7878  0.7037  0.1062
 2370TIP3    H128601   0.193   1.116  16.610 -0.8684  2.3139  1.7488
 2370TIP3    H228602   0.079   1.092  16.707 -2.1311 -0.3872 -0.2784
 2371TIP3   OH228603   5.980   3.875  14.873  0.3718 -0.2819 -0.5423
 2371TIP3    H128604   5.983   3.930  14.951 -0.5823 -1.9985  0.7574
 2371TIP3    H228605   5.896   3.829  14.879 -0.0986  0.0853 -2.9948
 2372TIP3   OH228606   0.750   2.284  13.804 -0.3192  0.8334 -0.1641
 2372TIP3    H128607   0.675   2.325  13.763 -0.3904 -0.7498 -1.7158
 2372TIP3    H228608   0.825   2.335  13.773 -0.6046  1.4172  0.0896
 2373TIP3   OH228609   4.893   2.691   3.172 -0.5617 -0.0952 -0.5253
 2373TIP3    H128610   4.827   2.748   3.212 -0.9733 -0.5100 -0.6121
 2373TIP3    H228611   4.960   2.681   3.239 -1.1079 -0.5492 -0.0408
 2374TIP3   OH228612   0.798   5.545  13.449  0.2298 -0.3266  0.0435
 2374TIP3    H128613   0.789   5.637  13.470  0.3961 -0.5695  1.2359
 2374TIP3    H228614   0.826   5.504  13.530 -0.7943 -1.5785 -0.1974
 2375TIP3   OH228615   3.989   3.076  13.253  0.8254 -0.5604 -0.1883
 2375TIP3    H128616   4.052   3.147  13.257  1.8284 -1.4297  3.5694
 2375TIP3    H228617   3.906   3.115  13.281  0.3045 -0.0663 -2.2483
 2376TIP3   OH228618   0.877   0.124  13.642  0.3721  0.1985  0.5078
 2376TIP3    H128619   0.945   0.157  13.700  1.1453  0.3134 -0.4401
 2376TIP3    H228620   0.854   0.038  13.677  0.9685  0.1846  0.8639
 2377TIP3   OH228621   2.529   3.381   6.690 -0.3905 -0.0659 -0.3144
 2377TIP3    H128622   2.542   3.346   6.602 -2.9853  0.2490 -0.8928
 2377TIP3    H228623   2.435   3.400   6.695  0.0954  2.2741  1.6647
 2378TIP3   OH228624   1.307   5.529  15.241 -0.0309 -0.2919  0.1633
 2378TIP3    H128625   1.293   5.563  15.153  0.0536  1.9342  0.9339
 2378TIP3    H228626   1.402   5.533  15.253  0.2991 -3.4884 -0.6519
 2379TIP3   OH228627   4.178   5.367  15.745  0.1035 -0.3089  0.3393
 2379TIP3    H128628   4.202   5.448  15.700 -1.8482  0.6958  0.9709
 2379TIP3    H228629   4.185   5.389  15.838  0.9081 -1.3241  0.5285
 2380TIP3   OH228630   1.163   4.335  14.729  0.3764  0.1914 -0.1778
 2380TIP3    H128631   1.189   4.399  14.795 -0.9899  0.7317 -0.1267
 2380TIP3    H228632   1.144   4.255  14.778  0.8458  0.1349 -0.0909
 2381TIP3   OH228633   5.498   5.624   5.496 -0.0600  0.1169  0.1756
 2381TIP3    H128634   5.476   5.707   5.540  0.5061  1.1695 -1.4473
 2381TIP3    H228635   5.568   5.586   5.549  0.2117  1.0690  0.5176
 2382TIP3   OH228636   0.704   1.717   1.481  0.2480 -0.7065  0.5596
 2382TIP3    H128637   0.756   1.661   1.423 -1.1406 -1.3170 -0.1536
 2382TIP3    H228638   0.626   1.737   1.429  0.1941  0.9588  1.2408
 2383TIP3   OH228639   2.703   1.105   4.370 -0.4151  0.2739 -0.1395
 2383TIP3    H128640   2.611   1.095   4.347 -0.7716 -1.3781  1.6896
 2383TIP3    H228641   2.734   1.015   4.384  1.2291  0.8459  0.1869
 2384TIP3   OH228642   1.560   4.395   3.071  0.0740  0.2235 -0.0972
 2384TIP3    H128643   1.623   4.467   3.080  0.6003 -0.3828  1.2929
 2384TIP3    H228644   1.579   4.358   2.984  1.9184 -0.1568  0.4177
 2385TIP3   OH228645   4.182   4.857  13.333 -0.0595 -0.1636  0.0394
 2385TIP3    H128646   4.173   4.769  13.297  1.3691 -0.1109 -0.5399
 2385TIP3    H228647   4.271   4.884  13.308  0.4202  0.5155  2.2001
 2386TIP3   OH228648   2.559   5.231   1.159 -0.4734  0.2506 -0.3275
 2386TIP3    H128649   2.486   5.252   1.217 -0.8148 -1.3327 -0.1193
 2386TIP3    H228650   2.571   5.136   1.170  2.4104  0.6198  0.5869
 2387TIP3   OH228651   5.762   6.447  13.235 -0.0075  0.4166 -0.1894
 2387TIP3    H128652   5.765   6.449  13.139  1.4583 -1.0021 -0.2248
 2387TIP3    H228653   5.831   6.385  13.260 -1.8630 -1.0564  1.7010
 2388TIP3   OH228654   0.978   4.996  14.768  0.3668  0.4160  0.1335
 2388TIP3    H128655   0.990   4.927  14.833  0.6224 -1.6569 -1.9742
 2388TIP3    H228656   0.963   4.949  14.685 -0.0247  2.9038 -1.3211
 2389TIP3   OH228657   4.237   2.035  15.000 -0.2814  0.6946 -0.0926
 2389TIP3    H128658   4.201   2.120  14.976 -0.1148  0.7647 -0.0998
 2389TIP3    H228659   4.311   2.023  14.939 -0.0762  0.7115  0.1502
 2390TIP3   OH228660   1.876   2.037   4.018  0.0335 -0.5757 -0.5067
 2390TIP3    H128661   1.939   1.982   4.065 -1.3949 -3.7002 -1.9900
 2390TIP3    H228662   1.797   2.035   4.071  0.6944  2.4862  0.8195
 2391TIP3   OH228663   3.558   4.497   5.591 -0.0116  0.1203  0.3195
 2391TIP3    H128664   3.591   4.524   5.677 -1.0539  0.1798  0.7134
 2391TIP3    H228665   3.635   4.464   5.546  0.4580 -0.4508  1.4901
 2392TIP3   OH228666   1.851   2.209   3.302  0.4040  0.0386  0.3275
 2392TIP3    H128667   1.800   2.135   3.270 -0.5999  0.4000  1.0200
 2392TIP3    H228668   1.904   2.236   3.227 -1.3009  0.3886 -0.8210
 2393TIP3   OH228669   2.158   5.763   5.413  0.3677  0.2079  0.2637
 2393TIP3    H128670   2.182   5.761   5.320  1.4089  0.6044  0.5158
 2393TIP3    H228671   2.233   5.803   5.457 -0.6196  1.1872  1.1271
 2394TIP3   OH228672   5.620   2.923  10.607  0.3980  0.5698 -0.0733
 2394TIP3    H128673   5.638   2.977  10.684 -0.9062  0.3506  0.4053
 2394TIP3    H228674   5.570   2.980  10.548 -0.8697 -0.0276  0.3801
 2395TIP3   OH228675   5.119   3.518  15.312  0.8677  0.6175  0.3209
 2395TIP3    H128676   5.056   3.524  15.241 -0.2241 -0.4055  1.1613
 2395TIP3    H228677   5.204   3.518  15.268  0.2159 -0.4440 -1.0459
 2396TIP3   OH228678   5.056   1.789   6.180 -0.2239 -0.1484 -0.0809
 2396TIP3    H128679   4.970   1.748   6.170 -1.4617  2.2974 -0.4421
 2396TIP3    H228680   5.090   1.754   6.262 -1.3606 -1.4856 -0.1382
 2397TIP3   OH228681   3.097   6.734  14.392  0.0993  0.5962 -0.1089
 2397TIP3    H128682   3.027   6.734  14.327  1.3802  1.1266 -1.5632
 2397TIP3    H228683   3.071   6.801  14.455 -1.2143  0.0095  0.0090
 2398TIP3   OH228684   0.635   3.194  12.674  0.3839 -0.4023 -0.6906
 2398TIP3    H128685   0.565   3.140  12.635  0.6174 -0.7316 -0.6619
 2398TIP3    H228686   0.706   3.132  12.691  0.4063 -0.2077 -0.0321
 2399TIP3   OH228687   1.279   3.007   1.250 -0.2749 -0.2167 -0.1917
 2399TIP3    H128688   1.187   3.011   1.275 -0.3507  0.0544 -0.5181
 2399TIP3    H228689   1.297   2.913   1.242 -0.3015 -0.3069  0.6681
 2400TIP3   OH228690   4.367   5.651  13.194 -0.7275 -0.0940  0.0854
 2400TIP3    H128691   4.422   5.686  13.264  0.9998 -0.3237 -1.0977
 2400TIP3    H228692   4.415   5.670  13.114 -1.5363 -1.8450 -0.8762
 2401TIP3   OH228693   5.156   0.859   2.893  0.2534  0.3804 -0.3088
 2401TIP3    H128694   5.072   0.847   2.849 -0.3104  3.2033 -0.1404
 2401TIP3    H228695   5.157   0.950   2.921  1.3895 -0.7294  3.9390
 2402TIP3   OH228696   0.041   0.807  17.034  0.0979  0.1059 -0.7631
 2402TIP3    H128697  -0.008   0.852  17.102 -1.8749 -3.0477  0.0881
 2402TIP3    H228698   0.105   0.754  17.082  0.7129  0.1065 -1.5630
 2403TIP3   OH228699   6.763   1.647  14.833  0.7400  0.4981 -0.5735
 2403TIP3    H128700   6.799   1.645  14.921 -0.3641  3.2604  0.0289
 2403TIP3    H228701   6.799   1.726  14.794 -1.9267  1.5379 -1.1312
 2404TIP3   OH228702   5.438   0.229  16.598  0.6866  0.6527  0.5595
 2404TIP3    H128703   5.511   0.211  16.538  0.7398 -0.4000  0.9175
 2404TIP3    H228704   5.449   0.165  16.668 -1.4942 -0.5886 -0.1625
 2405TIP3   OH228705   1.455   4.301   3.298  0.3563  0.2381  0.0740
 2405TIP3    H128706   1.532   4.299   3.356  1.0324  0.4591 -0.7887
 2405TIP3    H228707   1.491   4.324   3.212 -0.5152 -0.8745 -0.6129
 2406TIP3   OH228708   6.513   0.652  11.556  0.0743 -0.5447 -0.2579
 2406TIP3    H128709   6.486   0.571  11.512 -0.5848  0.0520 -1.0037
 2406TIP3    H228710   6.585   0.626  11.612 -0.6866 -1.8154  0.1804
 2407TIP3   OH228711   2.485   4.039  16.303  0.0992 -0.5462  0.5170
 2407TIP3    H128712   2.417   3.974  16.286  0.4322 -1.2086  1.6256
 2407TIP3    H228713   2.460   4.079  16.386 -0.0328  0.6683 -0.0932
 2408TIP3   OH228714   3.252   5.172  17.005  0.0793  0.6407  0.1682
 2408TIP3    H128715   3.286   5.254  17.039 -0.0240  0.5064  0.6041
 2408TIP3    H228716   3.201   5.135  17.078 -1.4379  1.0774 -0.6282
 2409TIP3   OH228717   4.867   4.975   1.058 -0.0915  0.3599 -0.5765
 2409TIP3    H128718   4.793   4.971   0.998 -1.3828 -0.6807  0.9900
 2409TIP3    H228719   4.914   4.893   1.045 -0.0250  0.3972 -0.5763
 2410TIP3   OH228720   0.339   1.051  16.457  0.6175 -0.1638  0.2442
 2410TIP3    H128721   0.326   1.053  16.363  0.0399 -0.1406  0.3239
 2410TIP3    H228722   0.368   1.139  16.480  0.6903 -0.1502  0.0998
 2411TIP3   OH228723   4.316   5.913  11.929  0.7391  0.0064 -0.4621
 2411TIP3    H128724   4.373   5.989  11.932  0.6521  0.1743 -2.1291
 2411TIP3    H228725   4.228   5.949  11.916  0.6267 -0.3510 -0.7132
 2412TIP3   OH228726   2.627   5.571   2.093  0.1540  0.0254 -0.0648
 2412TIP3    H128727   2.610   5.649   2.040 -0.2198  1.1569  1.6733
 2412TIP3    H228728   2.543   5.550   2.133  0.5759 -0.3885  0.6262
 2413TIP3   OH228729   3.192   4.489   0.855  0.4671 -0.7805 -0.1953
 2413TIP3    H128730   3.192   4.514   0.948 -0.4246 -0.8296 -0.1795
 2413TIP3    H228731   3.231   4.402   0.854  1.7251 -0.2417 -0.0240
 2414TIP3   OH228732   5.520   5.149   3.824  0.1443 -0.0364 -0.1446
 2414TIP3    H128733   5.608   5.160   3.788  0.8467  0.2956  1.5945
 2414TIP3    H228734   5.503   5.055   3.817  0.1540  0.0341 -1.4962
 2415TIP3   OH228735   4.267   6.130   5.927  0.5929 -0.4448  0.1905
 2415TIP3    H128736   4.280   6.117   6.021 -0.0327  1.7271  0.6507
 2415TIP3    H228737   4.174   6.152   5.919  0.7449 -0.1186 -0.8582
 2416TIP3   OH228738   5.655   0.930   5.198  0.0526  0.0838  1.0205
 2416TIP3    H128739   5.747   0.949   5.178  0.2921 -1.1854  0.7797
 2416TIP3    H228740   5.625   0.880   5.122 -1.7736  3.0523 -0.3721
 2417TIP3   OH228741   4.749   0.889   4.412  0.4209 -0.6745  0.5841
 2417TIP3    H128742   4.730   0.857   4.500  2.6941 -0.9524  1.0496
 2417TIP3    H228743   4.718   0.820   4.353 -0.9552 -0.5649  1.1578
 2418TIP3   OH228744   1.132   4.998  13.300  0.1555 -0.7611 -0.3403
 2418TIP3    H128745   1.107   5.059  13.369  0.2632 -0.7675 -0.2944
 2418TIP3    H228746   1.221   4.970  13.324  0.5118 -0.1542 -0.9043
 2419TIP3   OH228747   2.783   5.114  12.765  0.4632  0.0065 -0.4128
 2419TIP3    H128748   2.723   5.129  12.839 -0.3278  0.2834 -1.0926
 2419TIP3    H228749   2.807   5.021  12.772  0.3820  0.0267  0.1798
 2420TIP3   OH228750   6.194   0.593   5.741  0.2333 -0.3799  0.0117
 2420TIP3    H128751   6.132   0.623   5.808 -0.5154  0.0241 -0.8385
 2420TIP3    H228752   6.245   0.525   5.784 -0.0894  0.0261  1.0626
 2421TIP3   OH228753   6.269   5.992  13.762  0.5676 -0.4054 -0.0202
 2421TIP3    H128754   6.325   6.063  13.732  1.3892 -0.2104  1.8428
 2421TIP3    H228755   6.304   5.914  13.720  1.6941 -0.1505  0.4197
 2422TIP3   OH228756   6.082   6.129  14.283 -0.5858 -0.2753  0.4445
 2422TIP3    H128757   6.068   6.051  14.335  0.9940 -0.9646 -0.1098
 2422TIP3    H228758   6.169   6.161  14.309  1.0368 -1.5744 -2.8084
 2423TIP3   OH228759   2.475   1.096  13.051  0.2976  0.0289  0.5191
 2423TIP3    H128760   2.433   1.010  13.058  0.9106 -0.3542 -0.3479
 2423TIP3    H228761   2.541   1.096  13.119  1.5067 -0.9151 -0.5996
 2424TIP3   OH228762   1.082   1.904   3.560  0.8119  0.4776 -0.4212
 2424TIP3    H128763   1.115   1.959   3.489  1.4672  0.4975 -0.1128
 2424TIP3    H228764   1.064   1.819   3.519 -0.3312  0.9484 -0.9279
 2425TIP3   OH228765   0.337   5.786  15.620  0.3618 -0.2127  0.1970
 2425TIP3    H128766   0.388   5.707  15.638  2.3256  1.1862  1.1843
 2425TIP3    H228767   0.369   5.816  15.534  0.1852 -0.0945  0.1724
 2426TIP3   OH228768   6.645   3.638   6.121 -0.1590  0.3138  0.3109
 2426TIP3    H128769   6.648   3.732   6.106 -2.0974  0.4280  0.3734
 2426TIP3    H228770   6.652   3.600   6.033  2.7041  0.3805  0.4368
 2427TIP3   OH228771   3.046   4.853   1.601  0.0672  0.8711 -0.5218
 2427TIP3    H128772   3.079   4.848   1.690  1.5357  0.8267 -1.0340
 2427TIP3    H228773   3.028   4.946   1.586 -0.5423  0.8282 -0.0616
 2428TIP3   OH228774   3.654   3.175   2.140 -0.5436  0.3448 -0.1631
 2428TIP3    H128775   3.715   3.173   2.214 -1.0116 -0.3621  0.2132
 2428TIP3    H228776   3.679   3.101   2.085 -0.1367  0.9238 -0.7758
 2429TIP3   OH228777   3.113   3.650   6.566 -0.3865  0.0536 -0.1208
 2429TIP3    H128778   3.018   3.648   6.555 -0.4306 -0.3902  0.3212
 2429TIP3    H228779   3.132   3.741   6.588 -0.6046  0.3408 -1.0562
 2430TIP3   OH228780   0.502   2.393   2.466 -0.2217  0.2995 -0.1677
 2430TIP3    H128781   0.462   2.403   2.552 -1.1821 -1.1639 -0.4257
 2430TIP3    H228782   0.504   2.482   2.431 -0.3701  0.8346  1.1083
 2431TIP3   OH228783   2.738   3.327   0.840 -0.2893 -0.1204 -0.1380
 2431TIP3    H128784   2.667   3.330   0.905 -0.2649 -1.0021 -0.0572
 2431TIP3    H228785   2.763   3.418   0.828 -2.2261  0.3268 -1.0427
 2432TIP3   OH228786   6.587   6.331  12.893 -0.2420 -0.1007  0.2976
 2432TIP3    H128787   6.518   6.383  12.851 -0.2188  0.1892  0.6179
 2432TIP3    H228788   6.665   6.350  12.841 -0.0910  0.6982  0.8131
 2433TIP3   OH228789   0.432   2.679  12.371 -0.3662  0.0354 -0.5603
 2433TIP3    H128790   0.434   2.774  12.383  0.3612 -0.2457  2.2781
 2433TIP3    H228791   0.340   2.659  12.355 -0.9835  1.0225  1.4447
 2434TIP3   OH228792   6.665   1.210   4.791 -0.0758  0.7694 -0.2925
 2434TIP3    H128793   6.645   1.302   4.776 -2.0514  0.3473 -0.5353
 2434TIP3    H228794   6.698   1.178   4.706 -0.9354  0.8822 -0.6716
 2435TIP3   OH228795   3.874   4.067  12.066  0.3615  0.6755  0.0042
 2435TIP3    H128796   3.803   4.083  12.004  0.6132  0.7514 -0.2689
 2435TIP3    H228797   3.935   4.010  12.019  0.1257 -0.0009  0.4970
 2436TIP3   OH228798   2.262   1.178   2.895  0.3512  0.3133  0.1280
 2436TIP3    H128799   2.341   1.130   2.919  1.3765  1.3963 -0.9411
 2436TIP3    H228800   2.194   1.141   2.950  1.3911 -1.3521  0.3518
 2437TIP3   OH228801   3.529   1.706  12.706  0.1612 -0.6097 -0.4434
 2437TIP3    H128802   3.594   1.638  12.722 -0.6271 -1.2026  0.3771
 2437TIP3    H228803   3.538   1.727  12.613  2.8307  0.7270  0.0429
 2438TIP3   OH228804   4.382   4.492   5.370  0.1664  0.3217 -0.2395
 2438TIP3    H128805   4.387   4.538   5.286 -0.4179  0.7461 -0.0504
 2438TIP3    H228806   4.290   4.502   5.397 -0.0884 -1.3566 -0.4152
 2439TIP3   OH228807   1.505   3.913   4.461  0.1973 -0.7810  0.6776
 2439TIP3    H128808   1.508   3.819   4.444  0.8055 -1.1046  2.4168
 2439TIP3    H228809   1.428   3.924   4.517 -1.3146  0.1470 -1.4203
 2440TIP3   OH228810   2.859   0.472  13.744  0.2318 -0.1367  0.1528
 2440TIP3    H128811   2.806   0.531  13.798  1.0019  2.0293 -1.3402
 2440TIP3    H228812   2.803   0.452  13.668  0.5732 -0.0041 -0.1337
 2441TIP3   OH228813   4.394   0.006  16.088  0.0671 -0.5036 -0.3279
 2441TIP3    H128814   4.413   0.034  16.177  0.6716  0.7877 -0.8291
 2441TIP3    H228815   4.301  -0.015  16.089 -0.0708  0.0835  0.4697
 2442TIP3   OH228816   1.381   1.528  15.568 -0.2472 -0.1602 -0.5336
 2442TIP3    H128817   1.431   1.584  15.508 -2.6036  1.9681 -0.6963
 2442TIP3    H228818   1.415   1.548  15.655  0.3173 -0.0332 -0.7833
 2443TIP3   OH228819   0.731   3.715   4.815  0.3312  0.1769  0.8862
 2443TIP3    H128820   0.775   3.788   4.858  2.2509  1.0721 -2.2614
 2443TIP3    H228821   0.746   3.730   4.721 -1.6118 -2.7927 -0.0453
 2444TIP3   OH228822   5.990   0.394  14.242  0.2371 -0.2356  0.3897
 2444TIP3    H128823   5.932   0.324  14.273  0.3609 -0.4424  0.1612
 2444TIP3    H228824   6.078   0.356  14.249  0.3892  0.2451  1.1882
 2445TIP3   OH228825   3.109   6.194   3.997  0.8915  0.0934  0.1708
 2445TIP3    H128826   3.139   6.103   3.992  0.7523  0.0866 -0.7001
 2445TIP3    H228827   3.177   6.245   3.953  0.1509  0.1975 -0.9011
 2446TIP3   OH228828   1.421   5.032  13.590 -0.7868  0.0969  0.3351
 2446TIP3    H128829   1.385   4.947  13.616 -2.2609  0.8141  0.7342
 2446TIP3    H228830   1.466   5.063  13.669 -1.4304  0.2919  0.6294
 2447TIP3   OH228831   3.986   3.863  11.209 -0.2116 -0.6433 -0.3325
 2447TIP3    H128832   3.922   3.858  11.280  0.5332  1.8259  0.6325
 2447TIP3    H228833   4.061   3.814  11.241  0.1661  0.5491  0.7042
 2448TIP3   OH228834   4.025   0.377  12.647  0.7741 -0.2269  0.1524
 2448TIP3    H128835   4.083   0.301  12.646  0.5908 -0.3689 -1.1148
 2448TIP3    H228836   3.974   0.367  12.728 -0.4240 -2.3696 -0.7927
 2449TIP3   OH228837   0.177   4.166   5.700  0.4187  0.2260  0.0429
 2449TIP3    H128838   0.172   4.202   5.612 -1.1541 -3.2391 -1.4588
 2449TIP3    H228839   0.259   4.117   5.702 -1.0790 -2.5381 -0.8621
 2450TIP3   OH228840   5.951   4.805  12.210 -0.2918 -0.3344 -0.1676
 2450TIP3    H128841   5.871   4.760  12.237 -0.4981  0.8683  1.3463
 2450TIP3    H228842   5.922   4.895  12.190  0.5721 -0.0632 -0.2209
 2451TIP3   OH228843   5.506   0.394   4.463  1.1496 -0.3394 -0.8101
 2451TIP3    H128844   5.518   0.303   4.439  1.3385 -1.2953  2.4117
 2451TIP3    H228845   5.416   0.398   4.497  1.6079  0.3087  0.3731
 2452TIP3   OH228846   5.159   5.328   6.567  0.3117 -0.2890  0.1703
 2452TIP3    H128847   5.178   5.235   6.578  1.1313 -0.3777 -1.6324
 2452TIP3    H228848   5.091   5.332   6.500  0.4017  0.4376  0.1063
 2453TIP3   OH228849   2.716   0.519   5.402  0.2552 -0.3726 -0.5545
 2453TIP3    H128850   2.789   0.472   5.442 -0.2912 -1.6229 -0.9877
 2453TIP3    H228851   2.743   0.532   5.311  1.2541  1.9719 -0.0171
 2454TIP3   OH228852   5.886   1.051   4.685  0.2447 -0.0450 -0.0802
 2454TIP3    H128853   5.863   1.089   4.770  0.3511  1.3988 -0.6637
 2454TIP3    H228854   5.825   1.093   4.623  1.1957  0.1065 -0.9402
 2455TIP3   OH228855   0.402   6.598   4.676  0.1987 -0.0008 -0.2896
 2455TIP3    H128856   0.345   6.667   4.709  2.8812  1.7461  1.0284
 2455TIP3    H228857   0.459   6.642   4.613  0.9196 -1.4036 -0.6690
 2456TIP3   OH228858   1.531   2.628   4.673 -0.1740  0.1512 -0.1800
 2456TIP3    H128859   1.470   2.681   4.725  1.5125  0.8850  1.1465
 2456TIP3    H228860   1.614   2.676   4.678  1.2643 -2.2418  0.5136
 2457TIP3   OH228861   2.051   4.102  14.122 -0.1552 -0.2544 -0.1796
 2457TIP3    H128862   2.146   4.087  14.116  0.3148  1.3528  2.1722
 2457TIP3    H228863   2.034   4.112  14.216 -2.8101 -1.2371 -0.4804
 2458TIP3   OH228864   4.704   1.021  15.947 -0.9671  0.3779  0.8019
 2458TIP3    H128865   4.623   0.975  15.972 -0.5828  0.2263  1.8369
 2458TIP3    H228866   4.760   0.952  15.910 -1.3039  0.4835  0.0833
 2459TIP3   OH228867   3.864   4.343   4.801 -0.1517 -0.4453  0.0068
 2459TIP3    H128868   3.773   4.358   4.776 -0.4286  0.7347  1.5384
 2459TIP3    H228869   3.859   4.300   4.886  0.6285  1.8219  1.3063
 2460TIP3   OH228870   3.355   2.017   5.008  0.1943 -0.2893 -0.4111
 2460TIP3    H128871   3.299   1.952   4.967  0.9901 -0.2627 -1.6087
 2460TIP3    H228872   3.394   1.971   5.082 -1.9638 -0.0686  0.9420
 2461TIP3   OH228873   5.439   1.541   3.299 -0.3733 -0.0110  0.2666
 2461TIP3    H128874   5.387   1.598   3.243 -1.4691  0.7011  1.9177
 2461TIP3    H228875   5.528   1.573   3.290 -0.3580 -0.4792 -1.6972
 2462TIP3   OH228876   2.685   1.792  12.287  0.9122  0.7880 -0.5053
 2462TIP3    H128877   2.692   1.738  12.366 -0.9680  1.3348  0.1047
 2462TIP3    H228878   2.688   1.730  12.215 -1.7211 -0.2793  0.1873
 2463TIP3   OH228879   6.400   0.337   2.847  0.0854  0.3490  0.2377
 2463TIP3    H128880   6.375   0.329   2.939 -0.9830  3.6188  0.3836
 2463TIP3    H228881   6.490   0.369   2.850  1.0964 -2.2263 -0.0347
 2464TIP3   OH228882   5.670   2.653   0.066 -0.6261 -0.0666  0.2349
 2464TIP3    H128883   5.649   2.747   0.066  0.3195  0.2399  3.0132
 2464TIP3    H228884   5.660   2.627   0.157  1.1676 -2.1879 -0.1124
 2465TIP3   OH228885   2.316   2.638  12.663 -0.2907 -0.1257  0.0170
 2465TIP3    H128886   2.265   2.709  12.624  1.7303 -0.3401 -3.4302
 2465TIP3    H228887   2.251   2.585  12.709 -2.5755  1.5594 -1.0349
 2466TIP3   OH228888   3.276   2.656  11.545  0.2558 -0.1836  0.7620
 2466TIP3    H128889   3.204   2.696  11.594  0.3411  0.2535  0.5372
 2466TIP3    H228890   3.263   2.686  11.455  1.9749  1.7889  1.0894
 2467TIP3   OH228891   2.239   4.809   4.070  0.1916  0.0328 -0.4608
 2467TIP3    H128892   2.154   4.849   4.090  0.1720 -0.8822  1.4782
 2467TIP3    H228893   2.223   4.715   4.076  1.2809 -0.1575 -0.3904
 2468TIP3   OH228894   0.252   1.462   4.127 -0.1492  0.1530 -0.0556
 2468TIP3    H128895   0.293   1.546   4.146 -2.7300  1.8993 -1.4971
 2468TIP3    H228896   0.271   1.446   4.034  0.4984 -1.0181  0.2515
 2469TIP3   OH228897   1.734   0.755  12.563 -0.3738  0.0610 -0.0065
 2469TIP3    H128898   1.793   0.689  12.599 -0.1760 -0.0858 -0.5869
 2469TIP3    H228899   1.756   0.835  12.610  1.0130  0.2570 -0.9154
 2470TIP3   OH228900   1.756   3.748  15.750  0.0652  0.9445  0.0892
 2470TIP3    H128901   1.694   3.819  15.764 -1.4109 -0.3183  0.2263
 2470TIP3    H228902   1.771   3.713  15.838 -1.2572 -0.5329 -0.2390
 2471TIP3   OH228903   2.833   2.444   0.377 -0.0499  0.1588 -0.1980
 2471TIP3    H128904   2.784   2.508   0.430 -0.0673 -0.9506  1.1925
 2471TIP3    H228905   2.924   2.475   0.380  0.0844 -0.2760  1.1678
 2472TIP3   OH228906   6.414   6.491  12.731 -0.6793 -0.3330  0.2374
 2472TIP3    H128907   6.336   6.517  12.682  0.3943  1.3440 -0.6997
 2472TIP3    H228908   6.463   6.435  12.671 -0.6761 -0.5324  0.4272
 2473TIP3   OH228909   5.676   0.730   3.686  0.1462 -0.1178  0.3177
 2473TIP3    H128910   5.770   0.715   3.681  0.0260 -1.2036  1.0369
 2473TIP3    H228911   5.667   0.804   3.746  0.4954 -0.9214  1.4000
 2474TIP3   OH228912   2.070   1.478   5.635  0.4291 -0.4699  0.1259
 2474TIP3    H128913   2.006   1.496   5.703  0.9076  0.9921  0.2197
 2474TIP3    H228914   2.036   1.401   5.590 -1.0505 -0.1150  0.5833
 2475TIP3   OH228915   2.265   4.856   2.588  0.2452 -0.3607  0.1079
 2475TIP3    H128916   2.330   4.900   2.644  1.2790 -0.1547 -1.2144
 2475TIP3    H228917   2.198   4.922   2.572  0.2123 -0.2536  0.6413
 2476TIP3   OH228918   6.176   4.615   3.489 -0.4177  0.6695 -0.2603
 2476TIP3    H128919   6.232   4.692   3.485  0.8825 -0.2231  0.1478
 2476TIP3    H228920   6.158   4.593   3.397  2.0605 -0.5162 -0.5329
 2477TIP3   OH228921   4.775   6.183   4.937 -0.5105 -0.7373  0.4641
 2477TIP3    H128922   4.699   6.190   4.878  0.3587 -0.8947 -0.7043
 2477TIP3    H228923   4.806   6.093   4.926  2.4319  0.4460 -2.4293
 2478TIP3   OH228924   0.991   0.265   5.899 -0.3281  0.4434  0.0982
 2478TIP3    H128925   1.039   0.268   5.817 -0.5004  1.9295  0.0140
 2478TIP3    H228926   1.058   0.265   5.967 -0.1829 -1.0141 -0.0288
 2479TIP3   OH228927   4.388   6.395   0.582 -0.2397 -0.1326  0.0678
 2479TIP3    H128928   4.351   6.436   0.503 -0.6190 -1.1153 -0.2838
 2479TIP3    H228929   4.413   6.307   0.553  0.3408 -0.2370  0.8609
 2480TIP3   OH228930   6.157   2.407  12.601 -0.0974  0.0389 -0.4120
 2480TIP3    H128931   6.080   2.459  12.625  0.0204  0.4120 -0.8444
 2480TIP3    H228932   6.230   2.467  12.610  0.1750 -0.3763  0.2108
 2481TIP3   OH228933   1.291   2.164  13.595 -0.2217  0.2496  0.0282
 2481TIP3    H128934   1.219   2.156  13.532 -0.5582  0.0940  0.4278
 2481TIP3    H228935   1.259   2.229  13.658  0.2030  0.5671 -0.0838
 2482TIP3   OH228936   4.648   6.214   4.374 -0.0401 -0.2147  0.3953
 2482TIP3    H128937   4.723   6.159   4.396  0.2779 -0.4917 -1.2010
 2482TIP3    H228938   4.582   6.152   4.341  0.1895  0.2919 -1.0784
 2483TIP3   OH228939   1.583   5.821   4.151  0.2042  0.1730 -0.1557
 2483TIP3    H128940   1.656   5.764   4.128 -0.2069 -0.7746  0.8341
 2483TIP3    H228941   1.625   5.904   4.175  1.0062 -0.5016  0.8747
 2484TIP3   OH228942   5.025   2.089   1.442  0.0575 -0.2198  0.3413
 2484TIP3    H128943   5.015   2.113   1.350  0.4899 -0.6472  0.1808
 2484TIP3    H228944   5.010   2.171   1.490  3.7351  1.0148 -0.2928
 2485TIP3   OH228945   1.157   1.482  14.385  0.2046 -0.1756  0.3991
 2485TIP3    H128946   1.107   1.401  14.382 -2.2717  1.2281  0.2526
 2485TIP3    H228947   1.236   1.464  14.335 -0.3155 -2.4229  0.2754
 2486TIP3   OH228948   0.774   0.305   1.758  0.4200 -0.1648 -0.1088
 2486TIP3    H128949   0.804   0.348   1.838  0.1872 -2.2823  1.2054
 2486TIP3    H228950   0.699   0.357   1.730 -0.5312 -0.2641  2.0239
 2487TIP3   OH228951   0.257   5.505  15.083  0.2742 -0.3042 -0.2894
 2487TIP3    H128952   0.239   5.500  15.177  0.5123 -0.9747 -0.2687
 2487TIP3    H228953   0.352   5.510  15.076  0.2387  0.1092 -0.4846
 2488TIP3   OH228954   0.398   1.917   5.854 -0.6768 -0.1504  0.4814
 2488TIP3    H128955   0.403   1.899   5.948 -3.7930 -0.0426  0.7555
 2488TIP3    H228956   0.358   1.839   5.816  1.9671 -0.8756 -1.1229
 2489TIP3   OH228957   3.568   1.784   3.241 -0.1976 -0.2333 -0.0452
 2489TIP3    H128958   3.608   1.698   3.241 -0.4161 -0.3446 -0.6752
 2489TIP3    H228959   3.491   1.775   3.184  1.3036  1.0365 -2.4913
 2490TIP3   OH228960   5.784   3.397   0.479  0.0798  0.2083  0.5276
 2490TIP3    H128961   5.831   3.322   0.441  0.7587  0.9950 -0.2379
 2490TIP3    H228962   5.843   3.471   0.465 -0.9170  1.0259  0.5598
 2491TIP3   OH228963   0.987   4.935  15.213  0.6113 -0.3490  0.4676
 2491TIP3    H128964   1.059   4.939  15.151  0.5781  1.0250  0.4956
 2491TIP3    H228965   0.958   5.025  15.223  0.1939 -0.6244  1.9955
 2492TIP3   OH228966   4.966   2.828  14.321  0.6617  0.0832  0.1841
 2492TIP3    H128967   4.948   2.734  14.317  0.3121  0.1097  1.0587
 2492TIP3    H228968   4.957   2.857  14.230 -1.6727 -0.3023  0.2113
 2493TIP3   OH228969   2.753   4.585   1.289 -0.3908  0.0326  0.6780
 2493TIP3    H128970   2.804   4.659   1.257  2.0625 -1.5251  0.6932
 2493TIP3    H228971   2.717   4.615   1.372  0.3505  1.2850  0.5763
 2494TIP3   OH228972   3.956   4.914  14.542  0.0735  0.2543  0.1721
 2494TIP3    H128973   3.867   4.920  14.577  0.2626  0.4724  0.6163
 2494TIP3    H228974   3.945   4.867  14.459 -0.2044 -1.6034  1.1953
 2495TIP3   OH228975   2.713   0.838   5.483 -0.4064 -0.0624  0.1830
 2495TIP3    H128976   2.780   0.783   5.442  2.1510  1.8978  1.4038
 2495TIP3    H228977   2.676   0.782   5.552  1.8175 -0.4856  1.1277
 2496TIP3   OH228978   2.624   6.283  12.172  0.3198 -0.3895  0.3693
 2496TIP3    H128979   2.594   6.306  12.084 -1.9507 -1.2263  0.8581
 2496TIP3    H228980   2.610   6.363  12.224  0.9426 -0.1387  0.1700
 2497TIP3   OH228981   3.296   0.557  11.367  0.0175 -0.3181  0.2854
 2497TIP3    H128982   3.333   0.644  11.348 -1.0975 -0.0554 -0.7845
 2497TIP3    H228983   3.373   0.503  11.387  0.8173  0.6663 -0.0285
 2498TIP3   OH228984   4.072   2.589  15.983  0.1659  0.2393 -0.0885
 2498TIP3    H128985   4.007   2.635  15.930 -0.3658 -1.5319 -1.0538
 2498TIP3    H228986   4.143   2.570  15.922 -0.5248 -1.9663 -0.2962
 2499TIP3   OH228987   3.075   2.734  13.301 -0.1257 -0.0096 -0.4629
 2499TIP3    H128988   3.087   2.640  13.315  1.5100  0.2724  0.2764
 2499TIP3    H228989   2.997   2.740  13.246 -0.3991 -1.7802 -0.3397
 2500TIP3   OH228990   5.787   2.461   4.120  0.0266 -0.4035 -0.3281
 2500TIP3    H128991   5.874   2.480   4.155 -0.3223 -1.6599  1.3985
 2500TIP3    H228992   5.802   2.401   4.048  0.6008 -0.6478 -0.0101
 2501TIP3   OH228993   4.520   1.195   2.118  0.0371  0.3072 -0.0673
 2501TIP3    H128994   4.592   1.214   2.178  1.6760 -0.7357 -1.5962
 2501TIP3    H228995   4.444   1.239   2.157  1.7625  2.6496  0.9162
 2502TIP3   OH228996   2.571   2.001  12.452  0.1338 -0.2168  0.1404
 2502TIP3    H128997   2.626   1.988  12.530 -0.3800 -1.0785  0.3737
 2502TIP3    H228998   2.630   1.986  12.378  0.2291 -1.1837  0.3911
 2503TIP3   OH228999   4.854   1.008   3.822  0.3471  0.4137  0.0537
 2503TIP3    H129000   4.886   0.935   3.875 -0.3226 -0.0717 -0.1945
 2503TIP3    H229001   4.853   1.083   3.882 -1.6230 -0.3922  1.1277
 2504TIP3   OH229002   4.276   4.071  15.923 -0.1311  0.0558 -0.5704
 2504TIP3    H129003   4.236   3.998  15.971  0.2989  0.8149  1.0336
 2504TIP3    H229004   4.215   4.143  15.934 -1.2207 -0.3430 -3.2961
 2505TIP3   OH229005   3.500   2.337   2.268 -0.3609  0.2387  0.6886
 2505TIP3    H129006   3.475   2.248   2.294 -2.3502  0.7402  0.5989
 2505TIP3    H229007   3.516   2.382   2.351  0.1567 -0.0484  0.7512
 2506TIP3   OH229008   2.936   6.127  13.532  0.4696 -0.3486 -0.2841
 2506TIP3    H129009   2.969   6.067  13.599 -0.4098 -0.1420  0.3472
 2506TIP3    H229010   2.981   6.100  13.452  0.2345 -1.7203  0.0266
 2507TIP3   OH229011   4.782   1.444   3.395  0.2534  0.4864  0.1681
 2507TIP3    H129012   4.777   1.443   3.300  2.4671  0.4254  0.0080
 2507TIP3    H229013   4.735   1.366   3.423  2.3299 -1.2997 -1.0979
 2508TIP3   OH229014   3.538   3.482   4.883 -0.3175 -0.3164 -0.1223
 2508TIP3    H129015   3.474   3.470   4.812 -0.3992 -0.4312 -0.0287
 2508TIP3    H229016   3.534   3.401   4.933  0.3020 -0.5507 -0.4352
 2509TIP3   OH229017   5.873   2.825   3.264  0.5250  0.2172  0.2860
 2509TIP3    H129018   5.931   2.874   3.322  0.3139  0.7277  0.0660
 2509TIP3    H229019   5.863   2.740   3.307  0.8288  0.3899  0.7056
 2510TIP3   OH229020   4.597   0.885   2.076  0.0187  0.1712  0.2695
 2510TIP3    H129021   4.519   0.865   2.024 -1.1746  1.3486  1.5338
 2510TIP3    H229022   4.592   0.979   2.094  0.1592 -0.2266  2.7873
 2511TIP3   OH229023   5.370   1.452  12.062  0.3022 -0.2537  0.1065
 2511TIP3    H129024   5.421   1.449  12.143 -2.7806 -0.9057  2.1805
 2511TIP3    H229025   5.285   1.416  12.086 -2.2285  3.4829 -2.3101
 2512TIP3   OH229026   3.668   3.346   1.439 -0.4640 -0.4110  0.3259
 2512TIP3    H129027   3.586   3.323   1.397 -0.3833  0.0370 -0.0781
 2512TIP3    H229028   3.710   3.408   1.379 -0.5896  0.6519  1.3077
 2513TIP3   OH229029   6.532   4.315   3.805 -0.2555  0.0218 -0.3245
 2513TIP3    H129030   6.485   4.236   3.780  0.7355 -1.4818  2.1635
 2513TIP3    H229031   6.469   4.386   3.790 -2.0131 -1.4908 -0.4813
 2514TIP3   OH229032   1.424   4.092  13.144 -0.0970 -0.0792 -0.4518
 2514TIP3    H129033   1.391   4.182  13.149  0.0738  0.0300 -1.0639
 2514TIP3    H229034   1.517   4.100  13.168 -0.5552 -0.4382  1.6080
 2515TIP3   OH229035   4.013   1.048   3.718  0.1145  0.0260 -0.1524
 2515TIP3    H129036   4.095   1.084   3.686 -0.7625  1.1121 -1.2757
 2515TIP3    H229037   4.037   1.000   3.797  1.6648  1.1417  0.0984
 2516TIP3   OH229038   2.301   4.249   2.410  0.4257 -0.0865 -0.2938
 2516TIP3    H129039   2.252   4.219   2.486  2.1985 -0.6750  0.6767
 2516TIP3    H229040   2.333   4.168   2.369  0.0307  0.2545 -1.2807
 2517TIP3   OH229041   3.238   4.605   6.202  0.4794 -0.5381  0.2431
 2517TIP3    H129042   3.253   4.511   6.191  0.8536 -0.6198  1.2813
 2517TIP3    H229043   3.161   4.610   6.259 -0.0789 -0.1914 -0.5190
 2518TIP3   OH229044   4.433   0.566   1.960  0.4508 -0.4263 -0.3402
 2518TIP3    H129045   4.437   0.624   1.884 -0.3493 -1.0996 -0.9134
 2518TIP3    H229046   4.518   0.523   1.962  1.9087  2.2240  1.3247
 2519TIP3   OH229047   0.366   3.433   2.240 -0.0745  0.3701 -0.5119
 2519TIP3    H129048   0.437   3.392   2.290 -1.0707 -1.5533 -0.5904
 2519TIP3    H229049   0.376   3.527   2.257  0.9814 -0.0498  1.4918
 2520TIP3   OH229050   0.102   2.944  12.378 -0.2187 -0.3095 -0.0508
 2520TIP3    H129051   0.030   2.936  12.441 -0.7114  0.1262 -0.5435
 2520TIP3    H229052   0.065   2.913  12.295 -0.0739  0.5817 -0.4704
 2521TIP3   OH229053   6.052   6.754   4.020  0.0753 -0.0643 -0.4222
 2521TIP3    H129054   5.974   6.809   4.011  0.6126  0.6153 -1.0517
 2521TIP3    H229055   6.084   6.772   4.109 -0.4584 -0.3257 -0.1709
 2522TIP3   OH229056   3.518   6.100   5.716  0.0747 -0.1277  0.0201
 2522TIP3    H129057   3.598   6.152   5.718 -1.0139  1.6030  1.6641
 2522TIP3    H229058   3.540   6.020   5.763  1.0854 -0.1079 -0.3937
 2523TIP3   OH229059   4.421   0.860   3.793 -0.2125 -0.6870  0.4465
 2523TIP3    H129060   4.490   0.794   3.805 -1.2289 -1.8177  0.2945
 2523TIP3    H229061   4.341   0.815   3.819 -0.8546  0.7437  1.0386
 2524TIP3   OH229062   0.788   0.265   4.848  0.1220 -0.0964 -0.4846
 2524TIP3    H129063   0.780   0.257   4.943 -1.4641  0.4169 -0.5360
 2524TIP3    H229064   0.703   0.236   4.814  1.2029 -1.8345 -1.8809
 2525TIP3   OH229065   1.656   0.738   5.575  0.8717 -0.3805  0.0267
 2525TIP3    H129066   1.613   0.705   5.496  1.1527  1.0142 -0.7287
 2525TIP3    H229067   1.687   0.659   5.619  0.9620 -1.1799 -1.4015
 2526TIP3   OH229068   5.945   3.173   3.111  0.3743 -0.1029  0.1065
 2526TIP3    H129069   5.867   3.141   3.065 -0.5122  0.5757  1.0583
 2526TIP3    H229070   5.955   3.114   3.186  0.3041  0.2611  0.4098
 2527TIP3   OH229071   1.575   1.133   4.643 -0.0803 -0.0692  0.6324
 2527TIP3    H129072   1.510   1.163   4.707  0.9969 -0.4705  1.9719
 2527TIP3    H229073   1.564   1.038   4.639  1.9057 -0.4947  2.7125
 2528TIP3   OH229074   1.536   2.352  13.278 -0.5095  0.2698  0.2370
 2528TIP3    H129075   1.509   2.406  13.352 -0.4023 -1.2288  1.4366
 2528TIP3    H229076   1.455   2.309  13.249 -0.3223 -0.2166  0.4182
 2529TIP3   OH229077   1.377   3.849  13.223 -0.0713 -0.3889 -0.1902
 2529TIP3    H129078   1.377   3.938  13.189  1.7360  1.3306  3.6995
 2529TIP3    H229079   1.308   3.849  13.290  0.4817 -1.6538  0.4103
 2530TIP3   OH229080   0.354   0.432  12.803  0.4029  0.5197 -0.0108
 2530TIP3    H129081   0.434   0.438  12.751  0.2841  2.3496 -0.0507
 2530TIP3    H229082   0.381   0.454  12.892  0.1889 -0.3274  0.2783
 2531TIP3   OH229083   2.082   5.033  11.461  0.1975 -0.2194 -0.4917
 2531TIP3    H129084   2.008   5.087  11.432  1.0016 -0.0881 -2.4792
 2531TIP3    H229085   2.150   5.048  11.395  2.1721 -0.0409  1.4768
 2532TIP3   OH229086   1.873   1.433  12.329 -0.0269  0.2487  0.3587
 2532TIP3    H129087   1.905   1.361  12.274 -0.5632  0.3048 -0.0418
 2532TIP3    H229088   1.926   1.429  12.408  1.2815  0.6426 -0.4719
 2533TIP3   OH229089   4.380   1.256  15.641  0.1407 -0.1698 -0.1489
 2533TIP3    H129090   4.417   1.216  15.562 -1.5612 -1.4704 -0.3452
 2533TIP3    H229091   4.357   1.182  15.697  0.6728  0.7138  1.3001
 2534TIP3   OH229092   4.972   6.454   5.501  0.0027  0.3353 -0.5685
 2534TIP3    H129093   5.065   6.441   5.522  0.2527  1.2203 -1.0492
 2534TIP3    H229094   4.955   6.392   5.430 -0.1626 -0.8291  0.4577
 2535TIP3   OH229095   0.955   0.466   0.334 -0.4898 -0.3275 -0.2749
 2535TIP3    H129096   0.917   0.381   0.311  1.3379 -1.3292  0.2117
 2535TIP3    H229097   0.985   0.502   0.250  0.0592 -0.8577 -0.3146
 2536TIP3   OH229098   5.949   5.599   4.947 -0.1579 -0.0247  0.3701
 2536TIP3    H129099   5.894   5.524   4.967 -0.8587  0.0546 -1.0898
 2536TIP3    H229100   6.030   5.560   4.912 -0.8279 -0.1307 -1.1369
 2537TIP3   OH229101   4.334   2.089   2.488 -0.1273 -0.0504  0.2784
 2537TIP3    H129102   4.309   1.996   2.487  0.6950 -0.2729 -0.3343
 2537TIP3    H229103   4.412   2.093   2.544  0.8123 -0.0073 -0.9839
 2538TIP3   OH229104   1.848   2.042  15.160  0.0512 -0.2846  0.3070
 2538TIP3    H129105   1.880   1.956  15.131  0.2334 -0.0744 -0.1290
 2538TIP3    H229106   1.920   2.102  15.139 -1.2352  0.5124 -2.3321
 2539TIP3   OH229107   5.101   1.354  12.107  0.3069 -0.5365  0.6978
 2539TIP3    H129108   5.115   1.276  12.054 -0.3039 -0.9176  1.0899
 2539TIP3    H229109   5.055   1.414  12.047  3.0676  0.5744 -0.4633
 2540TIP3   OH229110   5.571   5.122  15.112 -0.0361 -0.2783 -0.0738
 2540TIP3    H129111   5.518   5.168  15.177 -0.1541 -0.1240 -0.2771
 2540TIP3    H229112   5.510   5.100  15.042 -0.2579 -1.8540  0.5662
 2541TIP3   OH229113   2.305   1.571   1.763  0.0493  0.5461  0.3356
 2541TIP3    H129114   2.317   1.587   1.857  0.1156  1.1959  0.2191
 2541TIP3    H229115   2.286   1.657   1.726  0.5754  0.3803 -0.3366
 2542TIP3   OH229116   4.618   6.460   2.124 -1.0267 -0.0045 -0.1450
 2542TIP3    H129117   4.686   6.419   2.070 -0.7676  1.0906 -0.6719
 2542TIP3    H229118   4.551   6.488   2.061 -1.4962 -0.1504  0.2749
 2543TIP3   OH229119   2.632   4.414  10.766 -0.3177  0.2464  0.0482
 2543TIP3    H129120   2.663   4.361  10.692 -1.3128 -1.2193  0.6193
 2543TIP3    H229121   2.697   4.483  10.775  0.5795 -0.3700 -1.3073
 2544TIP3   OH229122   1.398   0.568   6.062  0.4552 -0.1603  0.0734
 2544TIP3    H129123   1.434   0.515   5.991  0.8936  1.5426 -1.0208
 2544TIP3    H229124   1.354   0.641   6.019 -1.2189 -0.2648  1.5100
 2545TIP3   OH229125   4.417   3.553   0.062  0.6592  0.2106 -0.1966
 2545TIP3    H129126   4.418   3.505   0.144 -0.6135 -1.2134 -0.9746
 2545TIP3    H229127   4.502   3.533   0.021  0.5631 -0.5390 -0.0355
 2546TIP3   OH229128   2.518   1.881  13.517 -0.7341 -0.6730 -0.8393
 2546TIP3    H129129   2.540   1.951  13.455  1.6446 -0.6035 -0.0479
 2546TIP3    H229130   2.497   1.926  13.598  3.6226 -0.6627  0.5603
 2547TIP3   OH229131   3.932   3.205  17.160  0.3861  0.1152 -0.4812
 2547TIP3    H129132   3.934   3.207  17.256 -3.6202 -0.7102 -0.2125
 2547TIP3    H229133   3.922   3.296  17.134  1.2135  0.3146 -0.1306
 2548TIP3   OH229134   0.128   3.674  15.449  0.2656  0.0408  0.7055
 2548TIP3    H129135   0.201   3.735  15.439  0.1210  0.1643  0.3786
 2548TIP3    H229136   0.051   3.730  15.460  0.2721 -0.0926  1.4523
 2549TIP3   OH229137   1.295   4.659   4.293  0.4063 -0.1595  0.6160
 2549TIP3    H129138   1.357   4.689   4.227 -1.3987 -0.9555 -1.5963
 2549TIP3    H229139   1.349   4.634   4.368  2.6479 -0.0581 -0.8682
 2550TIP3   OH229140   1.080   1.404  14.780  0.2512 -0.1459  0.2895
 2550TIP3    H129141   1.037   1.472  14.729  0.0014 -0.1235  0.5278
 2550TIP3    H229142   1.137   1.451  14.841 -1.2042 -0.0508  1.6424
 2551TIP3   OH229143   3.412   5.711  11.920  0.8486 -0.2173 -0.0624
 2551TIP3    H129144   3.323   5.685  11.897  1.4938 -3.3251  0.5443
 2551TIP3    H229145   3.401   5.780  11.987 -0.9963  1.4330 -1.9321
 2552TIP3   OH229146   2.393   1.833  12.568 -0.6065 -0.1126 -0.1837
 2552TIP3    H129147   2.453   1.874  12.506 -1.6680  1.5560 -0.2002
 2552TIP3    H229148   2.445   1.767  12.613  0.9826  0.6746 -0.7967
 2553TIP3   OH229149   6.549   2.810   2.738 -0.1045  0.0903 -0.3497
 2553TIP3    H129150   6.606   2.886   2.728 -1.8801  1.5021 -0.1169
 2553TIP3    H229151   6.462   2.846   2.748 -1.0449 -2.0041 -0.4663
 2554TIP3   OH229152   2.583   0.621  15.907  0.1822 -0.1127 -0.6189
 2554TIP3    H129153   2.492   0.609  15.933  0.1076  0.1968 -0.7367
 2554TIP3    H229154   2.580   0.628  15.812  0.4780 -1.5108 -0.7660
 2555TIP3   OH229155   6.616   5.374   4.291  0.2465 -0.3070  0.4819
 2555TIP3    H129156   6.711   5.366   4.296  0.3451  1.0873  1.4244
 2555TIP3    H229157   6.598   5.466   4.314 -1.2028 -0.0110 -1.5059
 2556TIP3   OH229158   6.703   1.550   0.299 -0.1703  0.0183  0.7603
 2556TIP3    H129159   6.765   1.621   0.282 -0.5348  0.4900  1.3770
 2556TIP3    H229160   6.650   1.581   0.372 -0.5833 -0.7345  0.7904
 2557TIP3   OH229161   4.791   4.603   2.672 -0.0832  0.0333  0.0117
 2557TIP3    H129162   4.877   4.644   2.667  0.1383  0.0342  2.6232
 2557TIP3    H229163   4.780   4.560   2.587  1.7484  1.4127 -0.9919
 2558TIP3   OH229164   0.634   3.545  14.745  0.3431 -0.1810  0.3254
 2558TIP3    H129165   0.658   3.610  14.679  0.0516 -0.2660  0.1337
 2558TIP3    H229166   0.655   3.586  14.829 -0.9856  0.6550  0.2723
 2559TIP3   OH229167   3.631   0.843   1.874 -0.0516  0.5332 -0.1845
 2559TIP3    H129168   3.645   0.863   1.781 -0.1098 -0.6687 -0.4679
 2559TIP3    H229169   3.711   0.872   1.917  0.3018  0.3789 -0.7283
 2560TIP3   OH229170   3.300   4.107   3.695  0.5164  0.3002  0.2599
 2560TIP3    H129171   3.359   4.077   3.627  1.0041  1.7716 -0.0000
 2560TIP3    H229172   3.337   4.190   3.725 -1.7818  1.6723 -0.4317
 2561TIP3   OH229173   2.536   4.948  11.118  0.6079  0.1563  0.1671
 2561TIP3    H129174   2.446   4.964  11.148  1.5667  2.4515  2.1652
 2561TIP3    H229175   2.529   4.870  11.064 -2.1667 -1.3436  2.3933
 2562TIP3   OH229176   1.826   6.508  15.680  0.5784  0.2452 -0.5493
 2562TIP3    H129177   1.898   6.552  15.725  1.2013  0.4300 -1.6937
 2562TIP3    H229178   1.849   6.415  15.684  0.2160  0.1813  0.2147
 2563TIP3   OH229179   6.714   4.888  15.533 -0.6364  0.6532  0.0520
 2563TIP3    H129180   6.661   4.962  15.501 -0.1514  1.4957  1.1422
 2563TIP3    H229181   6.760   4.923  15.609  0.3173 -0.5182  0.0383
 2564TIP3   OH229182   0.138   2.350   1.360 -0.0998  0.0544  0.1397
 2564TIP3    H129183   0.157   2.344   1.453 -0.6567  0.7103  0.3063
 2564TIP3    H229184   0.187   2.279   1.320  0.3581 -0.0616  0.9018
 2565TIP3   OH229185   0.536   4.170  14.850  0.3673  0.3014 -0.3936
 2565TIP3    H129186   0.615   4.147  14.802  0.9655 -0.2041  0.7932
 2565TIP3    H229187   0.555   4.254  14.890  0.6150 -0.1672  0.5089
 2566TIP3   OH229188   4.662   1.996  16.956  0.1346  0.4792 -0.4555
 2566TIP3    H129189   4.697   1.916  16.916 -0.9192 -1.9143  2.9636
 2566TIP3    H229190   4.730   2.023  17.018 -0.1685  1.3451 -0.4879
 2567TIP3   OH229191   6.012   4.327   6.599 -0.9678 -0.8083 -0.1264
 2567TIP3    H129192   5.918   4.336   6.580 -0.8642  1.0523 -0.0136
 2567TIP3    H229193   6.051   4.407   6.564  0.1124 -0.0920  2.4356
 2568TIP3   OH229194   0.975   5.208   3.014 -0.0296  0.2676 -0.0899
 2568TIP3    H129195   0.984   5.208   3.109  0.3511 -1.5249 -0.0870
 2568TIP3    H229196   0.933   5.124   2.994  0.0728  0.5282 -1.5098
 2569TIP3   OH229197   3.813   0.316  17.336 -0.2632 -0.4143  0.2142
 2569TIP3    H129198   3.731   0.343  17.295  0.1257 -1.4803 -1.3592
 2569TIP3    H229199   3.786   0.254  17.404 -0.8476  0.4959  0.8332
 2570TIP3   OH229200   0.925   3.414  17.199 -0.0861  0.1293 -0.1402
 2570TIP3    H129201   0.880   3.458  17.272  0.7880 -0.0230  0.5072
 2570TIP3    H229202   0.868   3.340  17.176  1.0945 -1.7442  2.5096
 2571TIP3   OH229203   0.898   0.136   2.143  0.0620  0.2330  0.3458
 2571TIP3    H129204   0.960   0.087   2.196 -0.2493 -0.1526  0.3585
 2571TIP3    H229205   0.953   0.192   2.088  0.3904  0.5102  0.9427
 2572TIP3   OH229206   0.355   6.058  13.983 -0.0938  0.2742 -0.6269
 2572TIP3    H129207   0.389   5.979  14.026 -0.2897  0.0631 -0.8546
 2572TIP3    H229208   0.260   6.048  13.987 -0.1328 -0.3894 -2.2383
 2573TIP3   OH229209   0.896   0.448   1.956  0.3604 -0.1277 -0.1347
 2573TIP3    H129210   0.983   0.435   1.918  0.2489 -1.1411 -0.0719
 2573TIP3    H229211   0.914   0.483   2.043  0.6602  0.8532 -0.5835
 2574TIP3   OH229212   5.391   4.799   0.190  0.0134  0.0452  0.3587
 2574TIP3    H129213   5.357   4.710   0.201 -1.3257 -0.0149 -3.0176
 2574TIP3    H229214   5.460   4.789   0.124 -0.6521  1.5304 -0.6169
 2575TIP3   OH229215   4.498   1.290  14.646  0.6471 -0.0572  0.7560
 2575TIP3    H129216   4.519   1.245  14.728  0.1838  0.5539  1.2207
 2575TIP3    H229217   4.454   1.370  14.673 -0.1259 -0.1626 -0.1093
 2576TIP3   OH229218   2.612   3.612   1.401  0.0900 -0.6500 -0.5077
 2576TIP3    H129219   2.522   3.579   1.403  0.2295 -1.0230 -0.2843
 2576TIP3    H229220   2.644   3.588   1.314 -0.4595  0.6675 -1.0974
 2577TIP3   OH229221   6.526   0.627  16.500 -0.1483  0.6004  0.5105
 2577TIP3    H129222   6.465   0.673  16.556  0.0048  1.6783 -0.1861
 2577TIP3    H229223   6.523   0.673  16.417 -0.2386 -0.8569 -0.3352
 2578TIP3   OH229224   4.385   5.662  15.066 -0.3983 -0.2691  0.1614
 2578TIP3    H129225   4.307   5.650  15.121 -0.2356  2.3351  1.1193
 2578TIP3    H229226   4.430   5.738  15.105  1.1145  0.0557 -2.0434
 2579TIP3   OH229227   0.712   1.263   2.246 -0.5207  0.5066 -0.1946
 2579TIP3    H129228   0.713   1.288   2.338  1.2097 -1.5982  0.4605
 2579TIP3    H229229   0.621   1.240   2.228 -1.5631  3.9245 -0.0205
 2580TIP3   OH229230   4.349   3.281  16.145 -0.4280  0.0304 -0.4067
 2580TIP3    H129231   4.304   3.196  16.142 -1.8862  0.7652 -0.4044
 2580TIP3    H229232   4.317   3.327  16.067 -0.2253  0.8631 -0.0049
 2581TIP3   OH229233   5.033   1.320   2.232 -0.0258  0.3887  0.4022
 2581TIP3    H129234   5.100   1.267   2.275  0.2861  0.3689 -0.0932
 2581TIP3    H229235   5.081   1.371   2.167 -0.1973  1.9346  1.4491
 2582TIP3   OH229236   5.425   3.184  15.808 -0.6347 -0.2916  0.4872
 2582TIP3    H129237   5.400   3.206  15.719  2.2102 -0.7543 -0.5422
 2582TIP3    H229238   5.385   3.098  15.823 -0.7955 -0.4120 -0.5280
 2583TIP3   OH229239   3.549   0.598  17.139  0.1709  0.5645  0.1910
 2583TIP3    H129240   3.541   0.657  17.214 -0.3988  0.4001  0.2643
 2583TIP3    H229241   3.462   0.562  17.128  0.7680 -1.1906  0.8996
 2584TIP3   OH229242   3.944   1.971  11.696  0.1719 -0.0403  0.4138
 2584TIP3    H129243   3.866   1.965  11.641  0.5165 -0.8789 -0.0004
 2584TIP3    H229244   3.947   2.063  11.723 -1.2623 -0.1121  0.8987
 2585TIP3   OH229245   2.300   5.099  12.140 -0.3550  0.0750 -0.3503
 2585TIP3    H129246   2.378   5.051  12.165 -0.9241 -1.0157 -0.6239
 2585TIP3    H229247   2.228   5.038  12.153 -1.0106  0.5617 -1.4792
 2586TIP3   OH229248   5.873   5.314   6.743  0.4526  0.5964  0.5918
 2586TIP3    H129249   5.829   5.272   6.817 -1.0192  0.1107 -0.4917
 2586TIP3    H229250   5.873   5.407   6.765  0.8647  0.3727  1.5970
 2587TIP3   OH229251   3.949   3.465   2.860  0.4846 -0.5021  0.3458
 2587TIP3    H129252   3.881   3.458   2.793  2.0827  0.1792 -1.4376
 2587TIP3    H229253   3.901   3.465   2.943 -1.6681 -0.0226 -0.8291
 2588TIP3   OH229254   0.633   0.141   1.336  0.4958  0.5082 -0.7542
 2588TIP3    H129255   0.685   0.069   1.373 -1.1915 -0.4871 -0.1662
 2588TIP3    H229256   0.586   0.101   1.263 -0.9789  0.8069 -0.0030
 2589TIP3   OH229257   2.535   5.904  14.863  0.1225 -0.3960 -0.0631
 2589TIP3    H129258   2.446   5.914  14.895  1.0342  1.9024  2.0610
 2589TIP3    H229259   2.529   5.915  14.768 -1.9628 -1.6193 -0.1185
 2590TIP3   OH229260   2.041   6.615   0.720 -0.3686  0.3163  0.0607
 2590TIP3    H129261   2.016   6.529   0.756 -1.0441  0.7400  0.6430
 2590TIP3    H229262   2.056   6.670   0.797 -0.9421  0.9941 -0.2951
 2591TIP3   OH229263   0.563   0.456   4.150 -0.0297 -0.2700 -0.5445
 2591TIP3    H129264   0.632   0.523   4.152 -0.4087  0.1328  1.8526
 2591TIP3    H229265   0.487   0.502   4.114  0.2566  0.0112 -0.7971
 2592TIP3   OH229266   0.958   5.979  16.870  0.4842  0.4181 -0.0087
 2592TIP3    H129267   0.895   5.992  16.799  2.6539  1.6931 -1.8340
 2592TIP3    H229268   1.018   5.913  16.837 -0.2817 -1.4237  2.0514
 2593TIP3   OH229269   0.817   6.431   5.722 -0.0446 -0.3421  0.5061
 2593TIP3    H129270   0.737   6.430   5.775  0.8292  0.5744  1.9211
 2593TIP3    H229271   0.886   6.402   5.782  0.7802 -0.5245 -0.5026
 2594TIP3   OH229272   0.447   6.073  15.115 -0.1708  0.2845  0.5097
 2594TIP3    H129273   0.530   6.060  15.160 -0.7747 -1.5126  1.1929
 2594TIP3    H229274   0.381   6.035  15.173 -1.4499  1.3324 -0.1795
 2595TIP3   OH229275   4.357   0.988  15.815  0.1897  0.1849  0.6285
 2595TIP3    H129276   4.328   0.960  15.728  0.7352  0.6923  0.2813
 2595TIP3    H229277   4.429   0.928  15.836  0.8771  0.8495  0.1960
 2596TIP3   OH229278   1.624   6.213   0.796  0.3444 -0.0096  0.2610
 2596TIP3    H129279   1.633   6.268   0.718 -0.0152 -1.1580 -0.6131
 2596TIP3    H229280   1.691   6.246   0.856  0.5503  0.9726 -0.4766
 2597TIP3   OH229281   0.249   3.242  13.778 -0.0646 -0.5324 -0.0694
 2597TIP3    H129282   0.316   3.178  13.755 -1.6921 -3.3464  2.2489
 2597TIP3    H229283   0.286   3.290  13.852  0.5160  0.0921 -0.7494
 2598TIP3   OH229284   4.957   1.236   1.967  0.3189 -0.0855 -0.2456
 2598TIP3    H129285   4.989   1.154   2.002  0.2398 -0.5240 -1.1689
 2598TIP3    H229286   4.883   1.259   2.023  0.5294 -0.4849  0.2014
 2599TIP3   OH229287   2.557   5.952   3.083 -0.7945 -0.5860 -0.6600
 2599TIP3    H129288   2.644   5.939   3.121 -0.9860  2.8933  1.5133
 2599TIP3    H229289   2.515   5.866   3.088  1.3372 -1.6339  1.5476
 2600TIP3   OH229290   0.473   1.658  15.005  0.3914 -0.2378  0.0727
 2600TIP3    H129291   0.555   1.610  15.011  2.2087  2.6561  0.2863
 2600TIP3    H229292   0.458   1.692  15.093  0.7801  1.9368 -0.6438
 2601TIP3   OH229293   4.197   2.289  13.359 -0.4544  0.7965  0.3678
 2601TIP3    H129294   4.287   2.259  13.345 -0.8974 -0.2061 -0.4950
 2601TIP3    H229295   4.149   2.211  13.386 -1.4401  0.9001 -0.9706
 2602TIP3   OH229296   2.918   1.102  13.083 -0.2832  0.1767  0.0914
 2602TIP3    H129297   3.009   1.114  13.111 -0.4519 -1.9029  1.8931
 2602TIP3    H229298   2.879   1.050  13.154 -2.2685 -0.8651 -1.6638
 2603TIP3   OH229299   1.807   0.648  17.350  0.5186  0.2536 -0.0936
 2603TIP3    H129300   1.801   0.684  17.261 -0.1905 -0.3444 -0.3046
 2603TIP3    H229301   1.899   0.624  17.361  0.9511  1.8819 -0.0361
 2604TIP3   OH229302   4.674   5.137  11.847  0.0808  0.0707  0.4001
 2604TIP3    H129303   4.632   5.096  11.923 -0.3842 -0.2901 -0.0453
 2604TIP3    H229304   4.763   5.157  11.877  0.3341 -1.2723  0.6304
 2605TIP3   OH229305   1.480   3.412  11.105  0.0272  0.1314  0.0291
 2605TIP3    H129306   1.424   3.384  11.032  1.3826 -1.8045 -0.3545
 2605TIP3    H229307   1.561   3.440  11.063  0.5211 -0.2078  0.7400
 2606TIP3   OH229308   3.182   3.055   3.600 -0.7631  0.1196 -0.0963
 2606TIP3    H129309   3.200   3.147   3.617 -0.3353  0.0931 -0.4013
 2606TIP3    H229310   3.159   3.018   3.685  2.5739 -0.3063  0.7517
 2607TIP3   OH229311   0.434   1.232   5.246  0.2173 -0.1165 -0.6311
 2607TIP3    H129312   0.433   1.277   5.161  1.8141  1.0938 -0.0592
 2607TIP3    H229313   0.525   1.236   5.274 -0.3834  0.1263  1.4471
 2608TIP3   OH229314   3.534   0.290   4.770  0.4581 -0.2232 -0.2178
 2608TIP3    H129315   3.528   0.200   4.737  0.7214  0.3150 -1.8319
 2608TIP3    H229316   3.628   0.306   4.777  0.4130 -0.6333  1.7821
 2609TIP3   OH229317   5.724   1.214   1.866  0.2299  0.7939 -0.0394
 2609TIP3    H129318   5.645   1.183   1.822 -0.4924  0.2715  1.5921
 2609TIP3    H229319   5.694   1.245   1.951  1.6292  1.6324  0.1814
 2610TIP3   OH229320   6.747   0.512  16.027  0.2032 -0.7732  0.1511
 2610TIP3    H129321   6.829   0.526  16.075 -0.1917 -1.8731  1.2285
 2610TIP3    H229322   6.771   0.455  15.954  0.5891 -0.1835 -0.1836
 2611TIP3   OH229323   3.096   5.747  13.201  0.1299 -0.1241 -0.6860
 2611TIP3    H129324   3.053   5.685  13.143 -2.0292  0.1942  0.4650
 2611TIP3    H229325   3.112   5.697  13.281  2.5473 -0.3978 -1.2550
 2612TIP3   OH229326   3.986   2.885   3.894  0.1598  0.8604 -0.0009
 2612TIP3    H129327   3.998   2.979   3.912  1.7551  0.8193 -0.6260
 2612TIP3    H229328   3.953   2.883   3.804  1.1092  0.8236 -0.3660
 2613TIP3   OH229329   0.537   2.044  15.533  0.2545  0.1612 -0.2189
 2613TIP3    H129330   0.494   2.056  15.617  2.0267  3.4965  0.3837
 2613TIP3    H229331   0.466   2.041  15.469 -1.0502  2.0599  1.0383
 2614TIP3   OH229332   2.400   3.383  17.158  0.4064  0.9112  0.1993
 2614TIP3    H129333   2.452   3.336  17.093  3.1491 -0.3972  3.0607
 2614TIP3    H229334   2.323   3.328  17.173 -0.6050  1.5580 -2.2658
 2615TIP3   OH229335   2.467   2.861  12.391  0.5261 -0.2681 -0.1481
 2615TIP3    H129336   2.443   2.783  12.341  0.9045  1.7717 -3.8981
 2615TIP3    H229337   2.396   2.923  12.375  1.0436  0.7659  1.3094
 2616TIP3   OH229338   3.826   3.098   2.860 -0.2201  0.0122 -0.1578
 2616TIP3    H129339   3.810   3.057   2.775 -0.7289  0.8827 -0.5032
 2616TIP3    H229340   3.743   3.088   2.907 -0.1411  0.0846 -0.0006
 2617TIP3   OH229341   6.354   0.614  15.911  0.2908  0.1413 -0.0977
 2617TIP3    H129342   6.403   0.667  15.848  2.5293  0.1547  1.5226
 2617TIP3    H229343   6.377   0.524  15.890  0.2916  0.0887  0.1266
 2618TIP3   OH229344   1.355   5.945   3.742  0.4331  0.4914  0.0900
 2618TIP3    H129345   1.362   5.977   3.832 -0.1470  0.0192  0.3060
 2618TIP3    H229346   1.268   5.973   3.713  0.5595  0.5121 -0.2751
 2619TIP3   OH229347   3.111   0.075  15.061 -0.0167 -0.1643 -0.2265
 2619TIP3    H129348   3.103   0.071  14.966  1.9606 -0.4451 -0.4122
 2619TIP3    H229349   3.071  -0.006  15.092 -3.5569  1.2780 -0.5001
 2620TIP3   OH229350   6.443   5.486   3.653  0.0352 -0.1239  0.2459
 2620TIP3    H129351   6.390   5.407   3.668 -0.5154  0.0203 -0.7937
 2620TIP3    H229352   6.461   5.483   3.559  0.0301  0.9758  0.2084
 2621TIP3   OH229353   0.670   3.858  17.001  0.7141 -0.1475 -0.6115
 2621TIP3    H129354   0.678   3.762  17.002 -0.4184 -0.3532  2.6578
 2621TIP3    H229355   0.759   3.888  16.984  1.4180 -1.8346 -0.1894
 2622TIP3   OH229356   4.624   0.428   3.579  0.8579  0.4022 -0.1627
 2622TIP3    H129357   4.565   0.355   3.562 -0.9964  1.6820  0.4306
 2622TIP3    H229358   4.643   0.464   3.493 -0.1004  0.6045 -0.3036
 2623TIP3   OH229359   1.046   3.186  11.059  0.9139 -0.1604  0.4043
 2623TIP3    H129360   1.039   3.233  11.142  2.3650  1.0149 -0.0819
 2623TIP3    H229361   1.021   3.251  10.993  0.1155 -0.9761 -0.1281
 2624TIP3   OH229362   4.179   6.553  11.874  0.9283 -0.1901  0.3582
 2624TIP3    H129363   4.091   6.590  11.862  0.7309 -0.7834 -0.0609
 2624TIP3    H229364   4.232   6.592  11.805  0.8863 -0.1699  0.3378
 2625TIP3   OH229365   3.612   3.942  16.430  0.2057 -0.2263 -0.4209
 2625TIP3    H129366   3.689   3.999  16.435  0.2600 -0.1507 -1.7202
 2625TIP3    H229367   3.635   3.866  16.483 -0.5167  1.6132  2.8247
 2626TIP3   OH229368   3.696   1.454  12.726 -0.2340  0.4108  0.5811
 2626TIP3    H129369   3.668   1.372  12.767 -0.1418 -0.9197 -1.8349
 2626TIP3    H229370   3.767   1.486  12.781  1.1138 -2.2325  0.4969
 2627TIP3   OH229371   1.091   5.605   5.162  0.6475 -0.4613 -0.4844
 2627TIP3    H129372   1.152   5.558   5.220 -0.4850 -0.6967  0.5492
 2627TIP3    H229373   1.060   5.679   5.215  2.0782  1.2670 -1.9469
 2628TIP3   OH229374   1.490   5.546  17.333 -0.1398  0.1859 -0.2008
 2628TIP3    H129375   1.496   5.523  17.425 -1.0996  0.0433 -0.1588
 2628TIP3    H229376   1.446   5.472  17.292  0.7645  0.0084 -0.8814
 2629TIP3   OH229377   6.444   5.198   3.727  0.3611 -0.2163 -0.3223
 2629TIP3    H129378   6.505   5.241   3.788  0.4750 -0.6256 -0.1376
 2629TIP3    H229379   6.372   5.169   3.783  0.5611 -0.7699 -0.3451
 2630TIP3   OH229380   0.112   4.799  16.858 -0.4313  0.2362 -0.2169
 2630TIP3    H129381   0.173   4.867  16.885 -0.3342 -0.2319  0.8015
 2630TIP3    H229382   0.071   4.770  16.939 -1.3611 -0.0738 -0.7822
 2631TIP3   OH229383   5.285   6.627  13.218 -0.2271  0.0001 -0.1594
 2631TIP3    H129384   5.367   6.612  13.171 -0.1254  0.2029 -0.0508
 2631TIP3    H229385   5.311   6.677  13.296  0.0329 -2.7152  1.6287
 2632TIP3   OH229386   4.078   5.328  16.720 -0.0318 -0.0018  0.4379
 2632TIP3    H129387   4.071   5.331  16.816  2.9732  0.4286  0.7472
 2632TIP3    H229388   4.008   5.386  16.690 -0.4760  0.5827  2.4159
 2633TIP3   OH229389   1.302   1.163  14.112  0.4621  0.3149 -0.2856
 2633TIP3    H129390   1.216   1.125  14.095  0.3151  0.7267 -0.4905
 2633TIP3    H229391   1.334   1.189  14.025  0.4976  0.7809 -0.1358
 2634TIP3   OH229392   3.973   5.823   6.702 -0.7253 -0.1199 -0.1172
 2634TIP3    H129393   3.895   5.804   6.755 -0.5631  0.6161  0.4014
 2634TIP3    H229394   3.942   5.881   6.633 -1.2181 -2.1552 -1.6975
 2635TIP3   OH229395   2.508   2.005   3.242  0.4657  0.4899  0.3621
 2635TIP3    H129396   2.498   2.100   3.248  2.3132  0.7547 -0.1809
 2635TIP3    H229397   2.519   1.988   3.149 -1.7419 -0.5188  0.2246
 2636TIP3   OH229398   4.192   0.862   0.007  0.3304  0.1037 -0.2885
 2636TIP3    H129399   4.227   0.882   0.094 -0.5068  1.6686 -0.2772
 2636TIP3    H229400   4.262   0.887  -0.053 -0.0710  1.5639 -0.1790
 2637TIP3   OH229401   5.006   6.377  12.098  0.3644 -0.3647  0.6349
 2637TIP3    H129402   5.038   6.337  12.016  0.9672  3.0843 -1.0001
 2637TIP3    H229403   4.915   6.348  12.105  0.3306 -0.8748 -1.2339
 2638TIP3   OH229404   1.813   0.508  11.792  0.0259  0.8134 -0.2188
 2638TIP3    H129405   1.767   0.582  11.754 -2.3347  0.2273  1.3430
 2638TIP3    H229406   1.851   0.542  11.873 -1.2990  0.3046  0.6445
 2639TIP3   OH229407   1.811   4.554   0.276  0.1662  0.0090  0.5020
 2639TIP3    H129408   1.816   4.649   0.266  2.2569  0.0530  1.3866
 2639TIP3    H229409   1.741   4.526   0.217  0.2475  1.9721 -0.5696
 2640TIP3   OH229410   0.555   0.255  14.348  0.1039 -0.1763  0.4110
 2640TIP3    H129411   0.622   0.261  14.416  0.0289 -1.6697  0.6401
 2640TIP3    H229412   0.510   0.173  14.366 -2.0172  0.9360  0.4524
 2641TIP3   OH229413   5.730   0.419   2.944 -0.3253 -0.0118  0.2469
 2641TIP3    H129414   5.652   0.453   2.901  0.2295  0.5525 -0.3309
 2641TIP3    H229415   5.735   0.466   3.027  0.5172  1.4816 -0.6084
 2642TIP3   OH229416   0.310   5.963  16.941 -0.2939 -0.3770  0.3902
 2642TIP3    H129417   0.383   6.024  16.934 -1.8923  1.6349  0.1879
 2642TIP3    H229418   0.250   6.005  17.003 -1.4031 -1.8377  0.3583
 2643TIP3   OH229419   6.072   5.175  11.551  0.6330 -0.1391  0.0996
 2643TIP3    H129420   6.157   5.189  11.593  0.8080 -1.7510  0.3834
 2643TIP3    H229421   6.013   5.235  11.595  0.9931 -1.1450  2.1056
 2644TIP3   OH229422   1.705   5.633  15.852 -0.3910  0.2455  0.0618
 2644TIP3    H129423   1.672   5.723  15.856 -1.8533 -0.2316 -0.4636
 2644TIP3    H229424   1.632   5.580  15.884 -0.0956 -0.8627 -1.0256
 2645TIP3   OH229425   0.263   3.015  15.066  0.2070  0.3050  0.2984
 2645TIP3    H129426   0.215   3.082  15.115  1.4358  0.9036  0.7458
 2645TIP3    H229427   0.324   3.065  15.011  2.5843 -0.3707  2.1077
 2646TIP3   OH229428   4.201   6.480   3.975  0.2207 -0.0435  0.0908
 2646TIP3    H129429   4.245   6.408   3.931 -1.9088 -1.2669 -0.2139
 2646TIP3    H229430   4.208   6.459   4.068  0.7993  0.1028  0.0807
 2647TIP3   OH229431   1.882   5.265  15.645 -0.4375 -0.3480  0.8576
 2647TIP3    H129432   1.879   5.335  15.710  0.8466  0.7592 -0.2136
 2647TIP3    H229433   1.850   5.187  15.691  2.2199 -0.0756  3.4551
 2648TIP3   OH229434   3.529   0.962   2.889  0.1870  0.3349  0.1756
 2648TIP3    H129435   3.495   1.050   2.907  2.1915  1.2352 -0.1851
 2648TIP3    H229436   3.526   0.955   2.794  3.2459  1.4708 -0.1030
 2649TIP3   OH229437   4.485   4.858   3.559 -0.2267  0.4575 -0.4554
 2649TIP3    H129438   4.502   4.769   3.529  0.4986 -0.5857  2.6075
 2649TIP3    H229439   4.566   4.905   3.543 -0.8742  0.8801 -2.8286
 2650TIP3   OH229440   5.345   2.177   3.311  0.3547 -0.4889 -0.0669
 2650TIP3    H129441   5.292   2.185   3.390  0.7039 -0.4779  0.1706
 2650TIP3    H229442   5.283   2.183   3.239 -0.0178 -0.9278  0.2148
 2651TIP3   OH229443   5.102   5.106   1.098 -0.5229 -0.4942  0.7445
 2651TIP3    H129444   5.081   5.156   1.177  0.9374 -1.2753  1.6839
 2651TIP3    H229445   5.029   5.046   1.087 -0.0662 -1.4486  2.4646
 2652TIP3   OH229446   3.471   6.411   4.725  0.0989 -0.1699 -0.4418
 2652TIP3    H129447   3.394   6.356   4.729  0.1109 -0.2824 -1.6333
 2652TIP3    H229448   3.439   6.497   4.699 -0.1485  0.9115  2.8908
 2653TIP3   OH229449   4.422   2.998  10.610 -0.0949 -0.5232  0.0896
 2653TIP3    H129450   4.511   2.974  10.584 -0.2331 -0.2294 -0.6692
 2653TIP3    H229451   4.366   2.967  10.538 -0.5607 -0.3294  0.3623
 2654TIP3   OH229452   3.130   0.965  16.014 -0.5495 -0.1465 -0.2511
 2654TIP3    H129453   3.206   0.941  15.962  0.0228  0.1257  0.4386
 2654TIP3    H229454   3.074   1.016  15.955 -0.3347 -0.5836 -0.8388
 2655TIP3   OH229455   4.821   0.385  14.686 -0.1790  0.1522  0.2080
 2655TIP3    H129456   4.736   0.414  14.719 -0.8090  1.1609 -2.0993
 2655TIP3    H229457   4.845   0.451  14.620  1.9309 -0.6466  0.0879
 2656TIP3   OH229458   1.748   0.400   1.481 -0.3662 -0.1882 -0.5115
 2656TIP3    H129459   1.706   0.444   1.555 -1.4099 -1.2641 -0.4266
 2656TIP3    H229460   1.763   0.310   1.513  1.7092  0.0580 -0.6614
 2657TIP3   OH229461   0.175   5.022   1.534 -0.5364  0.4177 -0.3943
 2657TIP3    H129462   0.178   5.056   1.445 -0.5496  0.4739 -0.3735
 2657TIP3    H229463   0.175   4.927   1.524  2.2900  0.3293 -0.3847
 2658TIP3   OH229464   3.203   3.289   4.251  0.2361  0.5015 -0.0171
 2658TIP3    H129465   3.204   3.287   4.347 -0.0164  2.1045  0.0396
 2658TIP3    H229466   3.292   3.314   4.226  0.4137 -0.3131 -0.2333
 2659TIP3   OH229467   5.574   3.692   2.749  0.3442 -0.9479 -0.4339
 2659TIP3    H129468   5.514   3.724   2.817  0.1438 -0.7666 -0.6940
 2659TIP3    H229469   5.661   3.717   2.781  0.4151 -2.3978  0.6034
 2660TIP3   OH229470   1.120   4.758  14.079 -0.5930 -0.3735 -0.0090
 2660TIP3    H129471   1.065   4.805  14.016 -0.2703 -1.0076 -0.7816
 2660TIP3    H229472   1.077   4.771  14.163 -1.1732  0.2779 -0.3999
 2661TIP3   OH229473   6.600   6.692  15.844 -0.4332  0.4455 -0.0115
 2661TIP3    H129474   6.558   6.719  15.763  0.1784 -1.7170 -1.1439
 2661TIP3    H229475   6.537   6.633  15.886  0.0567 -0.0919 -0.0011
 2662TIP3   OH229476   4.371   2.616  15.294  0.6369  0.0249 -0.2986
 2662TIP3    H129477   4.298   2.647  15.348  1.7406  0.6934  0.8541
 2662TIP3    H229478   4.367   2.521  15.302 -0.2016  0.0381 -0.3957
 2663TIP3   OH229479   2.869   2.666  14.887  0.8004  0.0637 -0.4080
 2663TIP3    H129480   2.813   2.679  14.810  2.3843  1.4812 -1.3936
 2663TIP3    H229481   2.884   2.754  14.921 -1.5880 -0.6140  2.9212
 2664TIP3   OH229482   3.156   0.081   5.206 -0.1969  0.1615  0.3086
 2664TIP3    H129483   3.213   0.147   5.166 -1.0786  1.2598  0.8072
 2664TIP3    H229484   3.205  -0.000   5.198  1.1565  0.9557  0.1390
 2665TIP3   OH229485   2.158   6.736   0.944 -0.3912 -0.3142  0.0283
 2665TIP3    H129486   2.104   6.715   1.021 -0.5334  0.5044  0.1529
 2665TIP3    H229487   2.175   6.830   0.951 -0.4608 -0.2234 -0.9854
 2666TIP3   OH229488   0.589   4.010   4.977  0.6374 -0.5853 -0.1698
 2666TIP3    H129489   0.601   3.915   4.969  3.1659 -0.5096  1.5768
 2666TIP3    H229490   0.496   4.020   4.998 -0.2904 -2.4091 -2.9229
 2667TIP3   OH229491   1.359   2.620   3.096 -0.3002  0.4123  0.1521
 2667TIP3    H129492   1.317   2.635   3.011  1.8502  0.2763 -1.0017
 2667TIP3    H229493   1.413   2.698   3.110 -0.0246  0.0727  1.0223
 2668TIP3   OH229494   0.756   1.025   6.317  0.4269 -0.9911 -0.5062
 2668TIP3    H129495   0.815   1.045   6.390 -0.7418  1.5566 -0.1241
 2668TIP3    H229496   0.671   1.011   6.358 -0.5345  1.7535 -1.3403
 2669TIP3   OH229497   0.790   4.868  16.150  1.1475 -0.2657 -0.3324
 2669TIP3    H129498   0.886   4.864  16.151  1.2283  0.8086 -1.2841
 2669TIP3    H229499   0.770   4.960  16.167  0.1061 -1.0507  3.8041
 2670TIP3   OH229500   6.638   5.003  11.936 -0.2624  0.3218 -0.1803
 2670TIP3    H129501   6.586   4.931  11.974 -0.2743  0.7169  0.5862
 2670TIP3    H229502   6.691   5.035  12.009 -1.5431  2.2412 -0.0106
 2671TIP3   OH229503   6.009   3.359   6.234 -0.0646 -0.3314 -0.0786
 2671TIP3    H129504   5.921   3.360   6.270  0.6646  0.3298  1.8340
 2671TIP3    H229505   6.056   3.294   6.285  0.6688 -0.4073 -0.8115
 2672TIP3   OH229506   5.864   3.899  11.909  0.7952  0.3256 -0.2496
 2672TIP3    H129507   5.890   3.816  11.868 -0.3941 -0.0545 -0.2651
 2672TIP3    H229508   5.910   3.900  11.992  1.3275 -0.0425 -0.5310
 2673TIP3   OH229509   6.468   4.434  11.521 -0.0441  0.6555 -0.1754
 2673TIP3    H129510   6.561   4.421  11.538  0.7387  1.3313 -3.3266
 2673TIP3    H229511   6.448   4.519  11.561  1.2394  1.4450 -1.1425
 2674TIP3   OH229512   0.573   5.087  15.835  0.0676  0.3664 -0.1207
 2674TIP3    H129513   0.528   5.011  15.799  0.5347  0.7106 -1.5104
 2674TIP3    H229514   0.563   5.079  15.929 -2.1005 -0.0364 -0.3460
 2675TIP3   OH229515   3.536   3.729  13.237 -0.1121  0.6884  0.9604
 2675TIP3    H129516   3.481   3.804  13.217  0.8399  0.9672 -0.9697
 2675TIP3    H229517   3.518   3.667  13.166  1.2227  0.3521  0.8802
 2676TIP3   OH229518   2.237   4.988  11.222 -0.0915  0.0138 -0.0257
 2676TIP3    H129519   2.214   4.898  11.198 -0.1209  0.1207 -0.4111
 2676TIP3    H229520   2.175   5.043  11.173 -0.3915  0.2316  0.5805
 2677TIP3   OH229521   5.926   0.266  14.602 -0.2354 -0.5874 -0.1879
 2677TIP3    H129522   5.896   0.177  14.619 -0.4712 -0.7402 -1.3444
 2677TIP3    H229523   5.866   0.300  14.536 -0.0503  0.3811  0.1265
 2678TIP3   OH229524   6.249   4.832   5.935  0.8160  0.0302 -0.4096
 2678TIP3    H129525   6.288   4.875   5.859  0.6107 -0.8993 -1.0567
 2678TIP3    H229526   6.321   4.820   5.996  0.9058  1.1462 -0.2841
 2679TIP3   OH229527   5.806   3.929   2.583  0.5376 -0.0737 -0.6654
 2679TIP3    H129528   5.820   3.877   2.504  2.1573  0.1069 -0.5296
 2679TIP3    H229529   5.824   3.867   2.655 -0.1513 -0.0248 -0.4421
 2680TIP3   OH229530   2.534   2.859   0.742 -0.1165  0.0390  0.1456
 2680TIP3    H129531   2.628   2.865   0.723 -0.1154  0.4354  0.2649
 2680TIP3    H229532   2.519   2.928   0.807 -0.5099  0.0342  0.0580
 2681TIP3   OH229533   5.709   4.991  17.298 -0.5542  0.1861  0.5624
 2681TIP3    H129534   5.704   5.076  17.341 -2.8034  0.8712 -0.8885
 2681TIP3    H229535   5.799   4.986  17.265 -0.0002  1.3919  1.7895
 2682TIP3   OH229536   5.766   1.253  15.970  0.3736  0.5047 -0.0246
 2682TIP3    H129537   5.804   1.320  16.026 -1.7283  1.0519  0.8044
 2682TIP3    H229538   5.739   1.184  16.030  0.1736  0.0565 -0.6203
 2683TIP3   OH229539   3.297   4.322  15.772  0.2456 -0.0332  0.0502
 2683TIP3    H129540   3.325   4.293  15.858  0.1076 -0.1298  0.0626
 2683TIP3    H229541   3.233   4.256  15.743 -1.0432  0.9176  0.6216
 2684TIP3   OH229542   0.057   5.363  17.189 -0.0648 -0.4067 -0.4338
 2684TIP3    H129543   0.006   5.294  17.146  0.1317 -1.0412  0.3283
 2684TIP3    H229544   0.130   5.380  17.130 -1.0225  0.3580 -1.4334
 2685TIP3   OH229545   2.618   1.380   2.560  0.1570 -0.2020 -0.2447
 2685TIP3    H129546   2.673   1.309   2.592 -0.2018 -1.0604 -1.4713
 2685TIP3    H229547   2.659   1.459   2.595  2.2945 -0.7909 -1.2770
 2686TIP3   OH229548   1.496   1.759  17.112  0.0150  0.4564  0.2045
 2686TIP3    H129549   1.492   1.692  17.044  1.4586 -0.1092  0.6386
 2686TIP3    H229550   1.500   1.709  17.194 -0.0727  1.1058  0.6069
 2687TIP3   OH229551   0.420   1.150  15.249  0.7506 -0.7392 -0.0114
 2687TIP3    H129552   0.361   1.077  15.268  1.0921 -1.3060 -1.0476
 2687TIP3    H229553   0.497   1.134  15.303  0.4021 -0.5621  0.5536
 2688TIP3   OH229554   4.254   0.607   2.176  0.7039  0.0531  0.0020
 2688TIP3    H129555   4.201   0.670   2.127 -0.0866 -1.1423 -0.7524
 2688TIP3    H229556   4.316   0.573   2.111 -0.7759 -2.0259 -0.4383
 2689TIP3   OH229557   4.050   6.092   5.162  0.0172  0.2103 -0.2594
 2689TIP3    H129558   4.017   6.164   5.215  0.2031 -0.2199  0.4486
 2689TIP3    H229559   4.121   6.131   5.111 -0.0973  0.5995 -0.1278
 2690TIP3   OH229560   3.637   2.029   2.899 -0.3633  0.1537  0.0609
 2690TIP3    H129561   3.686   2.011   2.980 -1.3778 -0.2356  0.6077
 2690TIP3    H229562   3.621   1.943   2.861 -0.6482  0.2721 -0.0928
 2691TIP3   OH229563   5.008   2.762   4.973  0.0561 -0.2617  0.1011
 2691TIP3    H129564   4.931   2.818   4.981 -0.9032 -1.4085 -0.6288
 2691TIP3    H229565   4.978   2.688   4.919  1.6912 -0.7057 -0.2592
 2692TIP3   OH229566   4.693   0.660   5.398  0.3863  0.4917  0.2161
 2692TIP3    H129567   4.710   0.581   5.448 -1.7731 -0.1820  0.0076
 2692TIP3    H229568   4.692   0.730   5.464  0.7933  0.1189  0.6251
 2693TIP3   OH229569   6.201   1.786   2.130 -0.4148 -0.0451  0.3547
 2693TIP3    H129570   6.122   1.751   2.088  0.9303 -2.0219 -0.7189
 2693TIP3    H229571   6.241   1.710   2.172  1.5348  0.6120 -0.1749
 2694TIP3   OH229572   3.812   0.811  16.059  0.8971  0.1062 -0.1204
 2694TIP3    H129573   3.864   0.811  16.139  1.9777 -0.8777 -0.8015
 2694TIP3    H229574   3.873   0.785  15.990 -0.4384 -0.8642 -0.9850
 2695TIP3   OH229575   5.705   4.916  12.395 -0.5993 -0.5265  0.2771
 2695TIP3    H129576   5.662   4.930  12.311  0.3558 -1.1099 -0.3342
 2695TIP3    H229577   5.666   4.836  12.430 -2.3801  0.7330  1.3419
 2696TIP3   OH229578   5.471   2.130   4.433 -0.6241  0.6868  0.1227
 2696TIP3    H129579   5.521   2.200   4.476  1.3141 -0.8991  0.6174
 2696TIP3    H229580   5.484   2.146   4.339  0.4230  0.6093  0.2400
 2697TIP3   OH229581   1.202   5.682   1.130  0.0127  0.2339  0.0044
 2697TIP3    H129582   1.112   5.715   1.127 -0.5606 -1.2739 -0.4786
 2697TIP3    H229583   1.226   5.685   1.223 -0.2988  1.2151  0.0621
 2698TIP3   OH229584   5.544   6.157   4.521  0.2385 -0.0272 -0.6004
 2698TIP3    H129585   5.628   6.160   4.568 -0.2223  0.9335  0.2145
 2698TIP3    H229586   5.543   6.071   4.480  1.6787 -0.0128 -0.7339
 2699TIP3   OH229587   2.531   5.739  15.964  0.6740 -0.1669  0.5281
 2699TIP3    H129588   2.526   5.762  15.871  0.6137 -1.3535  0.2150
 2699TIP3    H229589   2.604   5.791  15.998  0.0151  1.0797  0.0736
 2700TIP3   OH229590   1.318   0.103  13.962 -0.3746 -0.0735 -0.2909
 2700TIP3    H129591   1.382   0.111  13.892  1.0042  0.0350  0.9437
 2700TIP3    H229592   1.340   0.020  14.006  0.4228  1.0400  1.5499
 2701TIP3   OH229593   6.615   3.292   2.621 -0.3299  0.1881 -0.1483
 2701TIP3    H129594   6.625   3.375   2.668  1.8948 -0.5471  0.7823
 2701TIP3    H229595   6.673   3.300   2.545 -0.8305 -0.1751 -0.5800
 2702TIP3   OH229596   0.599   4.000  11.499  0.3569 -0.3073  0.2824
 2702TIP3    H129597   0.542   3.950  11.558 -0.8570  0.7517  0.0597
 2702TIP3    H229598   0.563   4.089  11.502  0.4389 -0.1579 -1.8284
 2703TIP3   OH229599   0.320   6.139  12.196  0.3122 -0.0658  0.4844
 2703TIP3    H129600   0.372   6.157  12.274  1.2851  0.2838 -0.2233
 2703TIP3    H229601   0.286   6.224  12.169  1.2690  0.0797 -0.3423
 2704TIP3   OH229602   4.196   5.735   6.841  0.1270  0.6805  0.2197
 2704TIP3    H129603   4.155   5.767   6.761  2.6188  1.1043 -0.9706
 2704TIP3    H229604   4.129   5.681   6.882 -1.5987  1.3313 -1.5659
 2705TIP3   OH229605   6.264   0.550   4.880 -0.3256 -0.6622 -0.1971
 2705TIP3    H129606   6.270   0.578   4.788 -1.1923 -1.3237 -0.4687
 2705TIP3    H229607   6.355   0.537   4.906 -0.0380  0.1139 -0.7807
 2706TIP3   OH229608   0.503   4.082   3.705  0.6212  0.6411  0.5013
 2706TIP3    H129609   0.582   4.093   3.652  1.2856 -0.6297  1.1685
 2706TIP3    H229610   0.476   4.171   3.727  0.9428  1.1532 -1.0476
 2707TIP3   OH229611   3.917   2.500  14.194  0.0353  0.3050  0.4397
 2707TIP3    H129612   3.822   2.492  14.195  0.0013  0.5842 -0.2630
 2707TIP3    H229613   3.946   2.450  14.270 -0.6849  0.3980  0.7792
 2708TIP3   OH229614   4.657   6.093  14.045  0.1035 -0.1379 -0.2029
 2708TIP3    H129615   4.574   6.097  14.094  0.6573  1.1431  0.6880
 2708TIP3    H229616   4.645   6.155  13.973 -0.8180 -2.2293 -1.9740
 2709TIP3   OH229617   4.449   5.313  14.738 -0.3688  0.0339 -0.0562
 2709TIP3    H129618   4.459   5.251  14.810 -0.9423  0.4556  0.4021
 2709TIP3    H229619   4.479   5.397  14.774 -1.1232  0.3489 -0.1392
 2710TIP3   OH229620   1.097   6.602   2.088  0.3156  0.3099  0.0833
 2710TIP3    H129621   1.185   6.635   2.106  0.5204  1.0031 -1.8758
 2710TIP3    H229622   1.073   6.644   2.005 -0.3543 -2.7176 -1.3688
 2711TIP3   OH229623   6.396   4.988  12.165 -0.4589 -0.4481 -0.3474
 2711TIP3    H129624   6.376   4.940  12.085 -0.1694 -1.6400  0.2751
 2711TIP3    H229625   6.316   4.984  12.217  0.5495 -3.4536  1.2536
 2712TIP3   OH229626   1.228   5.797   4.920  0.7662 -0.4976 -0.1914
 2712TIP3    H129627   1.220   5.852   4.998 -0.0309 -3.5370  2.0247
 2712TIP3    H229628   1.142   5.757   4.909  1.6793 -2.4322 -0.7676
 2713TIP3   OH229629   0.929   1.768  11.762  0.0625 -0.1739  0.1740
 2713TIP3    H129630   0.905   1.728  11.845 -1.6148  0.1112 -0.1406
 2713TIP3    H229631   0.959   1.694  11.708  4.1813 -0.0337  1.9094
 2714TIP3   OH229632   0.980   2.746  14.523 -0.1835 -0.0133 -0.4147
 2714TIP3    H129633   1.067   2.725  14.488  0.3394 -0.0912  0.8935
 2714TIP3    H229634   0.992   2.748  14.618 -1.6787 -0.2725 -0.2027
 2715TIP3   OH229635   6.275   4.734  11.434  0.6724  0.5463  0.4827
 2715TIP3    H129636   6.242   4.677  11.365 -0.8752  0.1626  1.5033
 2715TIP3    H229637   6.269   4.823  11.398  0.2115  0.3143 -0.0094
 2716TIP3   OH229638   2.876   3.715   4.133  0.4790 -0.1311 -0.2101
 2716TIP3    H129639   2.855   3.805   4.157 -0.1251 -0.6430  1.2624
 2716TIP3    H229640   2.816   3.662   4.184  1.1581 -1.4074 -0.6913
 2717TIP3   OH229641   6.381   2.506  12.353  0.5141  0.6328  0.2809
 2717TIP3    H129642   6.374   2.542  12.442  1.0389 -0.5749  0.8328
 2717TIP3    H229643   6.316   2.555  12.303  0.4086  1.5474  1.2521
 2718TIP3   OH229644   6.496   6.012   1.722 -0.3182  0.2611 -0.2165
 2718TIP3    H129645   6.520   6.032   1.813  2.0597 -2.3328 -0.1244
 2718TIP3    H229646   6.413   5.965   1.729  0.3567 -0.8453  0.7845
 2719TIP3   OH229647   6.747   6.088   3.355 -0.0595 -0.0504  0.2342
 2719TIP3    H129648   6.798   6.144   3.296  1.5677 -0.7862  0.8762
 2719TIP3    H229649   6.688   6.039   3.298  2.0376 -1.3541 -0.9441
 2720TIP3   OH229650   0.086   2.254  12.998 -0.4465  0.0293 -0.1684
 2720TIP3    H129651   0.045   2.340  12.991 -0.9199 -0.1348  0.4075
 2720TIP3    H229652   0.022   2.194  12.961  0.5863  0.0780 -2.1645
 2721TIP3   OH229653   2.774   5.839  13.292 -0.4477  0.5187  0.0765
 2721TIP3    H129654   2.702   5.782  13.320  0.6213 -0.3979  1.0417
 2721TIP3    H229655   2.848   5.780  13.278  0.6031  1.6187  0.7660
 2722TIP3   OH229656   4.858   6.099   2.980  0.3486 -0.3754  0.1022
 2722TIP3    H129657   4.890   6.156   3.050 -0.3701 -0.8484  0.8301
 2722TIP3    H229658   4.924   6.029   2.974  1.8094  1.0512 -1.5336
 2723TIP3   OH229659   5.234   0.622   0.663  0.7499 -0.0547 -0.3796
 2723TIP3    H129660   5.163   0.581   0.612 -1.3651  1.6902  0.9878
 2723TIP3    H229661   5.261   0.697   0.610 -0.1577  0.6771  0.1572
 2724TIP3   OH229662   5.980   3.530   1.178  0.0566  0.4978 -0.1333
 2724TIP3    H129663   5.944   3.448   1.211  0.1112  0.4230 -0.2597
 2724TIP3    H229664   5.904   3.589   1.174  0.1478  0.6776  0.6454
 2725TIP3   OH229665   2.086   0.553   4.037  0.0357 -0.3221  0.0163
 2725TIP3    H129666   2.040   0.474   4.007 -0.7467  0.0765  0.1397
 2725TIP3    H229667   2.086   0.546   4.133 -0.9343  0.3137  0.0722
 2726TIP3   OH229668   6.485   3.194   5.569  0.5837  0.0197  0.4004
 2726TIP3    H129669   6.497   3.164   5.659  2.5207 -0.0097  0.1843
 2726TIP3    H229670   6.493   3.289   5.575 -2.1215  0.3179  0.5989
 2727TIP3   OH229671   1.682   0.013  11.934  0.5018  0.1311  0.3344
 2727TIP3    H129672   1.747  -0.022  11.995 -1.3973 -0.7579  2.0035
 2727TIP3    H229673   1.704  -0.026  11.850  0.2891 -2.7833  1.5162
 2728TIP3   OH229674   3.838   2.651   3.004 -0.4435  0.1791  0.5085
 2728TIP3    H129675   3.832   2.559   2.980  0.0869  0.8003 -2.3420
 2728TIP3    H229676   3.747   2.682   3.004 -0.5046  0.0010 -0.0717
 2729TIP3   OH229677   5.835   0.024   2.334 -0.8729 -0.1222 -0.5469
 2729TIP3    H129678   5.890   0.097   2.365  0.5770 -0.5500 -1.9614
 2729TIP3    H229679   5.885  -0.054   2.358 -1.1203 -0.5489 -1.4120
 2730TIP3   OH229680   4.202   3.175  15.414 -0.1022  0.1607  0.3061
 2730TIP3    H129681   4.260   3.154  15.342 -1.7826 -0.4214 -0.9333
 2730TIP3    H229682   4.114   3.159  15.380 -0.9620 -0.0007  2.4341
 2731TIP3   OH229683   6.731   0.857  14.006  0.6029  0.5351  0.1772
 2731TIP3    H129684   6.641   0.866  13.977  0.9830  0.2643 -1.1496
 2731TIP3    H229685   6.752   0.765  13.991  1.0728  0.5669  0.5845
 2732TIP3   OH229686   5.832   5.930   0.403  0.2799  0.2326  0.0101
 2732TIP3    H129687   5.837   5.911   0.496  0.4493  0.0418 -0.0372
 2732TIP3    H229688   5.910   5.889   0.365  0.4997  0.7696 -0.1398
 2733TIP3   OH229689   6.634   1.180  16.942 -0.8368 -0.2933  0.3355
 2733TIP3    H129690   6.651   1.104  16.998 -0.2267 -1.3306 -1.1791
 2733TIP3    H229691   6.588   1.144  16.866 -0.1894  0.7751 -0.5996
 2734TIP3   OH229692   0.398   3.329   1.166 -0.4548 -0.3137 -0.0849
 2734TIP3    H129693   0.443   3.288   1.240 -0.0358  0.2343 -0.0219
 2734TIP3    H229694   0.469   3.365   1.113 -0.7966  0.0307 -0.3109
 2735TIP3   OH229695   2.140   1.969   0.713  0.4317  0.1837 -0.0518
 2735TIP3    H129696   2.134   1.877   0.686  0.6776  0.9737 -3.2588
 2735TIP3    H229697   2.050   1.999   0.717  0.3983  0.1308 -0.3800
 2736TIP3   OH229698   1.208   2.898  15.758  0.3416  0.1900  0.0469
 2736TIP3    H129699   1.243   2.975  15.803  2.0796 -0.1819 -0.5758
 2736TIP3    H229700   1.232   2.825  15.815  0.7778 -0.0902 -0.4856
 2737TIP3   OH229701   5.597   0.990  15.917  0.1737 -0.8317 -0.5771
 2737TIP3    H129702   5.622   1.031  15.834 -0.1478  0.1275 -0.2118
 2737TIP3    H229703   5.635   0.902  15.913  0.9174 -0.4858 -1.3562
 2738TIP3   OH229704   6.340   5.671   6.071 -0.6898 -0.1116 -0.1291
 2738TIP3    H129705   6.376   5.697   6.156 -1.1165 -0.9119  0.3061
 2738TIP3    H229706   6.373   5.737   6.010  0.1007  0.1406  0.5516
 2739TIP3   OH229707   0.897   3.385  10.938  0.7596  0.8696 -0.2958
 2739TIP3    H129708   0.849   3.358  10.860 -1.0929  0.1473  1.0204
 2739TIP3    H229709   0.857   3.469  10.963 -0.5637 -0.1797  1.3319
 2740TIP3   OH229710   4.687   4.993  16.322 -0.0186 -0.3355 -0.5438
 2740TIP3    H129711   4.660   5.080  16.294 -0.6165 -1.1929 -2.9486
 2740TIP3    H229712   4.700   4.945  16.240  2.2305 -1.9687  0.6515
 2741TIP3   OH229713   0.860   0.176  11.357  0.0837 -0.0553  0.1587
 2741TIP3    H129714   0.808   0.110  11.312 -0.5348  0.7788 -0.3877
 2741TIP3    H229715   0.895   0.230  11.287 -0.2076  0.7624  0.6283
 2742TIP3   OH229716   5.301   0.455  16.733  0.1477  0.2444 -0.2056
 2742TIP3    H129717   5.384   0.411  16.715  0.8223  1.3434  0.1131
 2742TIP3    H229718   5.326   0.539  16.773 -1.1053  0.7153 -0.3490
 2743TIP3   OH229719   2.352   6.321   1.832  0.0859 -0.7191 -0.0227
 2743TIP3    H129720   2.412   6.341   1.904  0.5076 -0.8585 -0.3315
 2743TIP3    H229721   2.397   6.352   1.754 -0.4279 -0.4521 -0.2140
 2744TIP3   OH229722   1.645   1.437  17.383 -0.7665 -0.1938  0.0438
 2744TIP3    H129723   1.729   1.464  17.421 -1.3370 -1.0344  2.0783
 2744TIP3    H229724   1.645   1.474  17.295  1.4846  0.3032  0.1870
 2745TIP3   OH229725   4.773   3.117   3.200 -0.2832  0.9652 -0.1495
 2745TIP3    H129726   4.864   3.091   3.216 -0.4948  0.2599 -0.0740
 2745TIP3    H229727   4.753   3.179   3.270  0.2581  1.4302 -0.3917
 2746TIP3   OH229728   1.676   1.086   1.095 -0.2505  0.7175 -0.3905
 2746TIP3    H129729   1.688   1.167   1.046  2.3184  1.2028  0.8421
 2746TIP3    H229730   1.681   1.017   1.028 -0.8118  1.4939 -1.2581
 2747TIP3   OH229731   6.459   5.236   3.156 -0.0903 -0.5139 -0.0515
 2747TIP3    H129732   6.471   5.141   3.163  0.7548 -0.3841  0.3196
 2747TIP3    H229733   6.546   5.273   3.169 -0.1515  0.2611 -1.5653
 2748TIP3   OH229734   4.836   2.499  12.354  0.1517 -0.8571 -0.6780
 2748TIP3    H129735   4.770   2.452  12.405  0.1068  0.1575  0.2202
 2748TIP3    H229736   4.916   2.492  12.405 -0.3966  2.1250  0.8269
 2749TIP3   OH229737   2.024   3.075   0.558  0.0720  0.6001  0.0862
 2749TIP3    H129738   1.996   3.105   0.472 -2.3854 -1.7538 -0.1022
 2749TIP3    H229739   2.109   3.034   0.543  0.0366  0.9138 -1.0486
 2750TIP3   OH229740   0.219   0.939   2.658 -0.4744  0.7289  0.4528
 2750TIP3    H129741   0.142   0.952   2.603 -2.1406 -0.5986  2.3222
 2750TIP3    H229742   0.197   0.983   2.741 -1.1762 -3.1389  2.5511
 2751TIP3   OH229743   3.511   0.138  17.082  0.4133 -0.0510  0.2348
 2751TIP3    H129744   3.495   0.225  17.120  1.1621  0.5902 -0.8577
 2751TIP3    H229745   3.425   0.109  17.052  0.2277  0.5079  0.2082
 2752TIP3   OH229746   3.610   1.935  17.385  0.4032  0.5107 -0.0348
 2752TIP3    H129747   3.582   1.894  17.466  2.4213 -2.3264 -0.6179
 2752TIP3    H229748   3.701   1.960  17.401  0.3567  1.3505 -0.9488
 2753TIP3   OH229749   3.624   5.469   1.668 -0.4322  0.1884 -0.3615
 2753TIP3    H129750   3.578   5.478   1.752 -0.0165  1.5045 -0.2608
 2753TIP3    H229751   3.689   5.400   1.685 -2.1242 -1.5308 -0.4378
 2754TIP3   OH229752   1.282   4.344  15.401 -0.2732 -0.3584  0.1703
 2754TIP3    H129753   1.213   4.327  15.466  0.1919 -1.6771  0.3553
 2754TIP3    H229754   1.353   4.382  15.452 -0.7591  0.7844  0.0193
 2755TIP3   OH229755   6.518   1.244   0.187 -0.0542  0.1764 -0.4208
 2755TIP3    H129756   6.454   1.210   0.250 -0.4405  2.3743  0.4428
 2755TIP3    H229757   6.482   1.222   0.101 -1.8370  1.0885  0.0519
 2756TIP3   OH229758   2.287   2.973   4.146  0.6989 -0.1069  0.0158
 2756TIP3    H129759   2.265   2.901   4.088 -2.4956 -0.9081  1.9916
 2756TIP3    H229760   2.271   3.052   4.093  1.6983 -0.7875 -1.3493
 2757TIP3   OH229761   3.912   4.584  13.147  0.4498 -0.4065  0.0687
 2757TIP3    H129762   3.963   4.508  13.175 -1.3009 -1.9535 -0.7199
 2757TIP3    H229763   3.827   4.573  13.188 -0.2143  0.5042 -0.9932
 2758TIP3   OH229764   3.325   5.741  15.755 -0.7052 -0.0629  0.1644
 2758TIP3    H129765   3.314   5.664  15.810  0.1915 -1.0444 -0.9679
 2758TIP3    H229766   3.239   5.753  15.713 -0.5689 -1.1128 -0.4494
 2759TIP3   OH229767   5.426   4.307  12.426  0.0737  0.7403 -0.6863
 2759TIP3    H129768   5.411   4.337  12.336 -0.0230  1.5269 -0.4121
 2759TIP3    H229769   5.516   4.332  12.445 -0.2094  1.4349 -0.2352
 2760TIP3   OH229770   3.330   0.380   3.145 -0.2722  1.0709 -0.2136
 2760TIP3    H129771   3.308   0.414   3.232  0.1023 -1.1721  0.8187
 2760TIP3    H229772   3.248   0.384   3.097 -0.5679  2.0172  0.3317
 2761TIP3   OH229773   5.545   2.465  14.458 -0.5468  0.2643 -0.3858
 2761TIP3    H129774   5.633   2.439  14.484 -0.1133  1.4741 -0.6235
 2761TIP3    H229775   5.550   2.478  14.363 -1.0871 -0.0594 -0.4642
 2762TIP3   OH229776   1.180   2.026  17.245  0.5091 -0.1659  0.2020
 2762TIP3    H129777   1.256   2.084  17.243 -0.1990  0.8103  0.4403
 2762TIP3    H229778   1.129   2.051  17.168 -0.6881  0.7988  1.2556
 2763TIP3   OH229779   3.499   1.770   5.781  0.4480  0.2967  0.0420
 2763TIP3    H129780   3.522   1.708   5.712  0.6121  1.1159 -0.6611
 2763TIP3    H229781   3.553   1.743   5.856 -1.9221 -2.4816  0.9172
 2764TIP3   OH229782   4.507   4.267   0.057  0.1178  0.1393  0.4587
 2764TIP3    H129783   4.518   4.177   0.088 -0.8076  0.4132  1.6823
 2764TIP3    H229784   4.496   4.318   0.137 -1.1646  1.0770 -0.2742
 2765TIP3   OH229785   1.488   2.850   4.127 -0.3795 -0.4779 -0.2238
 2765TIP3    H129786   1.479   2.775   4.186  3.1265 -0.8443  0.0403
 2765TIP3    H229787   1.539   2.914   4.177 -2.0131  1.5331 -0.9912
 2766TIP3   OH229788   5.372   6.264  16.273 -0.5461  0.2722  0.5066
 2766TIP3    H129789   5.394   6.243  16.364 -1.2160 -1.6144  0.2687
 2766TIP3    H229790   5.347   6.181  16.234 -1.4357  1.2336 -1.0975
 2767TIP3   OH229791   5.733   2.421   3.822 -0.7636 -0.4554 -0.8495
 2767TIP3    H129792   5.762   2.347   3.875 -1.7947  0.4314  1.0703
 2767TIP3    H229793   5.640   2.407   3.810 -2.1799  2.6812  3.6966
 2768TIP3   OH229794   0.332   5.244  16.000  0.2498  0.6168 -0.0675
 2768TIP3    H129795   0.388   5.171  16.026 -0.3520  0.2077  0.0897
 2768TIP3    H229796   0.334   5.243  15.904  1.2790  1.2049 -0.0654
 2769TIP3   OH229797   6.440   2.054   4.570 -0.2202 -0.7555  0.3188
 2769TIP3    H129798   6.384   2.035   4.494  0.1431 -0.1232 -0.1117
 2769TIP3    H229799   6.524   2.081   4.532 -0.8742  2.3209  0.8503
 2770TIP3   OH229800   5.990   6.270  13.266  0.6635 -0.0505 -0.4084
 2770TIP3    H129801   6.010   6.229  13.350  0.3946  0.2363 -0.2047
 2770TIP3    H229802   6.035   6.216  13.202  1.8060  0.3784  0.0134
 2771TIP3   OH229803   5.142   1.813   4.512 -0.3924  0.5073 -0.4033
 2771TIP3    H129804   5.154   1.727   4.553  0.8822  0.3148 -1.1421
 2771TIP3    H229805   5.164   1.876   4.581  1.1537  0.1984 -0.5942
 2772TIP3   OH229806   4.645   2.479   5.316 -0.2467  0.4312 -0.1696
 2772TIP3    H129807   4.582   2.550   5.307  0.7390  1.3132 -0.2174
 2772TIP3    H229808   4.714   2.499   5.253  1.8951  1.4670  2.3090
 2773TIP3   OH229809   2.520   2.289   4.185 -0.2012  0.1824  0.1829
 2773TIP3    H129810   2.472   2.325   4.260  0.9964 -0.2812  1.2050
 2773TIP3    H229811   2.454   2.243   4.134 -1.1104  0.8312  0.7515
 2774TIP3   OH229812   4.852   2.831   4.433  0.3952  0.1034 -0.5182
 2774TIP3    H129813   4.817   2.882   4.361  0.5950  0.4285 -0.3853
 2774TIP3    H229814   4.922   2.779   4.394 -0.2171 -0.5469 -0.7846
 2775TIP3   OH229815   0.770   4.854  11.021 -0.5592  0.3461  0.2445
 2775TIP3    H129816   0.815   4.937  11.007 -0.1815  0.1587  0.3334
 2775TIP3    H229817   0.829   4.788  10.984 -0.3914  0.0173  1.0692
 2776TIP3   OH229818   5.365   3.209   4.750  0.1472 -0.0303 -0.4650
 2776TIP3    H129819   5.410   3.275   4.696  1.7020 -0.0856  0.6901
 2776TIP3    H229820   5.357   3.133   4.693  1.9709 -0.1695 -0.6060
 2777TIP3   OH229821   0.333   1.478  14.867 -0.1261 -0.4918  0.0117
 2777TIP3    H129822   0.369   1.559  14.905 -0.8490 -0.0699 -0.1835
 2777TIP3    H229823   0.328   1.417  14.940  0.9080 -0.5429  0.0637
 2778TIP3   OH229824   2.330   4.430  14.999 -0.1045  0.0193  0.2157
 2778TIP3    H129825   2.282   4.461  15.075 -1.5439 -0.4323 -0.4744
 2778TIP3    H229826   2.358   4.509  14.953  0.7314  0.2901  1.1796
 2779TIP3   OH229827   0.897   4.071   2.470  0.2232  0.3999 -0.6006
 2779TIP3    H129828   0.921   3.989   2.513 -0.8692  0.0330 -0.6523
 2779TIP3    H229829   0.916   4.139   2.534  2.4643  0.2926 -1.0422
 2780TIP3   OH229830   1.366   0.955   3.675  0.6767 -0.0681 -0.1804
 2780TIP3    H129831   1.308   0.960   3.599  0.7714  0.6424 -0.2145
 2780TIP3    H229832   1.350   1.037   3.723  0.6914 -0.4649  0.5116
 2781TIP3   OH229833   2.328   3.573  15.246  0.1320  0.6654  0.4537
 2781TIP3    H129834   2.374   3.496  15.213 -0.1410 -0.0523  1.6918
 2781TIP3    H229835   2.398   3.631  15.276  0.4643  1.8914 -2.4163
 2782TIP3   OH229836   5.958   5.711   1.273  0.2445  0.5026 -0.0090
 2782TIP3    H129837   6.035   5.675   1.318  0.5433 -0.0443 -0.9257
 2782TIP3    H229838   5.988   5.729   1.184 -0.4699  1.0803 -0.1432
 2783TIP3   OH229839   1.201   1.335   2.714 -0.5350  0.2258 -0.3580
 2783TIP3    H129840   1.295   1.326   2.696 -0.2722 -1.1229  1.4889
 2783TIP3    H229841   1.162   1.255   2.678 -0.8418  0.3044 -0.2017
 2784TIP3   OH229842   4.126   6.271   0.605 -0.0025 -0.3277  0.2985
 2784TIP3    H129843   4.089   6.319   0.678  1.0054  0.7676  0.1184
 2784TIP3    H229844   4.219   6.261   0.627 -0.1031 -1.8561  0.1434
 2785TIP3   OH229845   2.618   2.892  14.928 -0.0459 -0.2153 -0.2563
 2785TIP3    H129846   2.710   2.869  14.937  0.4708  1.4858 -0.7105
 2785TIP3    H229847   2.608   2.973  14.978 -1.4130 -0.6311  0.1837
 2786TIP3   OH229848   4.471   5.921   2.243 -1.0387 -0.4070  0.4334
 2786TIP3    H129849   4.479   5.940   2.336  2.0182 -1.1174  0.4253
 2786TIP3    H229850   4.485   6.006   2.200  0.1174 -0.4994  0.6034
 2787TIP3   OH229851   6.442   5.607   1.123  0.0076  0.1967 -0.1336
 2787TIP3    H129852   6.392   5.672   1.172 -0.1115  1.6298 -2.0710
 2787TIP3    H229853   6.534   5.631   1.140 -0.0265  0.4604 -0.3178
 2788TIP3   OH229854   3.205   1.389   6.380  0.7129 -0.1753 -0.5189
 2788TIP3    H129855   3.284   1.426   6.341  1.4498 -2.1464 -1.0281
 2788TIP3    H229856   3.237   1.323   6.441 -0.2833 -5.0045 -4.5559
 2789TIP3   OH229857   1.694   3.562  12.307 -0.0115 -0.0452  0.7093
 2789TIP3    H129858   1.737   3.641  12.273 -1.3308  0.7778  0.8955
 2789TIP3    H229859   1.633   3.594  12.373 -0.8753 -1.1843  0.4928
 2790TIP3   OH229860   4.800   0.422   3.146 -0.1050 -0.0486  0.0278
 2790TIP3    H129861   4.846   0.393   3.225 -1.9194 -0.7982  0.8502
 2790TIP3    H229862   4.848   0.380   3.074  0.5793 -0.6929  0.8372
 2791TIP3   OH229863   3.732   4.385   3.058  0.1002  0.6127  0.3292
 2791TIP3    H129864   3.645   4.372   3.095 -0.1253 -0.9085 -0.6506
 2791TIP3    H229865   3.786   4.317   3.098  0.2534  0.0352 -0.8240
 2792TIP3   OH229866   0.478   2.269   5.603 -0.4385 -0.0144  0.0019
 2792TIP3    H129867   0.462   2.335   5.535  0.0514 -0.4562 -0.5488
 2792TIP3    H229868   0.574   2.265   5.611 -0.4495 -0.9110 -0.2227
 2793TIP3   OH229869   4.463   3.808   2.734 -0.3296 -0.2259 -0.1602
 2793TIP3    H129870   4.514   3.856   2.800 -1.0747 -1.6365  1.5240
 2793TIP3    H229871   4.375   3.844   2.742 -0.2851  0.0572 -0.8833
 2794TIP3   OH229872   6.191   2.940  15.512 -0.5997 -0.0468 -1.0262
 2794TIP3    H129873   6.125   2.985  15.460 -0.4998  1.1359 -0.1816
 2794TIP3    H229874   6.156   2.941  15.601  1.8122  3.5082  0.1324
 2795TIP3   OH229875   2.228   5.443   5.132  0.4525  0.3041  0.0489
 2795TIP3    H129876   2.229   5.448   5.228 -1.0701 -2.1219  0.2806
 2795TIP3    H229877   2.276   5.362   5.113 -1.1441 -0.4274 -1.0571
 2796TIP3   OH229878   5.154   5.232  14.646 -0.5606 -0.0126 -0.0046
 2796TIP3    H129879   5.059   5.247  14.647 -0.5852 -0.1469  1.3538
 2796TIP3    H229880   5.166   5.151  14.694  0.3659  0.8992  1.3830
 2797TIP3   OH229881   0.254   0.056   5.785 -0.4788 -0.0651  0.1462
 2797TIP3    H129882   0.313   0.064   5.710  0.3351  1.0913  0.8806
 2797TIP3    H229883   0.280   0.127   5.844 -1.8131 -0.2803  1.0427
 2798TIP3   OH229884   6.622   3.229   1.614 -0.5476  0.4734  0.4245
 2798TIP3    H129885   6.694   3.166   1.616 -0.7783  0.0389 -2.0049
 2798TIP3    H229886   6.664   3.315   1.606 -0.2859  0.3860  0.8521
 2799TIP3   OH229887   5.152   6.320   3.784  0.3492 -0.2905  0.4703
 2799TIP3    H129888   5.154   6.401   3.733 -0.5301  0.0519  0.9595
 2799TIP3    H229889   5.167   6.348   3.874 -0.1800 -0.6381  0.6734
 2800TIP3   OH229890   5.141   2.246   5.876 -0.0380  0.1485  0.0986
 2800TIP3    H129891   5.137   2.341   5.891  0.7501  0.1797  0.1231
 2800TIP3    H229892   5.188   2.236   5.793  0.3331 -0.2369  0.3511
 2801TIP3   OH229893   5.102   0.444   3.849  0.1370 -0.3988  0.0345
 2801TIP3    H129894   5.034   0.384   3.879  0.0709 -0.4174 -0.1490
 2801TIP3    H229895   5.059   0.530   3.847  0.8221  0.0952  2.4593
 2802TIP3   OH229896   4.802   5.548   1.881  0.2159  0.8788  0.1570
 2802TIP3    H129897   4.711   5.547   1.853 -0.7064 -0.9418  2.7761
 2802TIP3    H229898   4.804   5.606   1.957  1.0201  0.1693  0.6998
 2803TIP3   OH229899   0.291   4.774   4.984  0.5721  0.4354  0.0010
 2803TIP3    H129900   0.314   4.860   4.951  0.8665 -0.4571 -2.2976
 2803TIP3    H229901   0.373   4.724   4.979  0.7916  0.3682  2.7377
 2804TIP3   OH229902   2.408   3.760  11.378 -0.6913  0.4096  0.2066
 2804TIP3    H129903   2.503   3.765  11.386 -0.3425 -2.6816 -0.8795
 2804TIP3    H229904   2.393   3.739  11.286 -2.3175 -0.5303  0.6499
 2805TIP3   OH229905   1.639   0.950  13.228  0.2077  0.2552 -0.3431
 2805TIP3    H129906   1.614   0.944  13.135  0.2773 -0.1648 -0.3363
 2805TIP3    H229907   1.633   1.043  13.248  1.9480  0.6178 -1.2740
 2806TIP3   OH229908   4.731   3.891  11.715 -0.3686  0.5673  0.2561
 2806TIP3    H129909   4.658   3.846  11.674  0.1745  0.8780 -1.0828
 2806TIP3    H229910   4.712   3.984  11.704 -0.6142  0.6727  1.4421
 2807TIP3   OH229911   6.648   2.412   2.306  0.1695 -0.0267 -0.4351
 2807TIP3    H129912   6.657   2.499   2.344 -0.0999 -0.4475  0.6176
 2807TIP3    H229913   6.731   2.368   2.325  0.2630 -0.0483 -0.8660
 2808TIP3   OH229914   5.293   2.177   5.148  0.1002  0.0914 -0.4080
 2808TIP3    H129915   5.290   2.240   5.220 -1.5120 -0.8470  0.3935
 2808TIP3    H229916   5.279   2.230   5.069 -0.5386  0.8249  0.1874
 2809TIP3   OH229917   4.736   5.693   0.047  0.2457  0.1376  0.3757
 2809TIP3    H129918   4.681   5.771   0.041  1.5300  1.0802  0.3893
 2809TIP3    H229919   4.793   5.709   0.123  0.8883 -0.5615  0.0630
 2810TIP3   OH229920   5.016   1.656   1.299  0.5205 -0.0364  0.5827
 2810TIP3    H129921   5.062   1.718   1.243  1.0097  0.1931  1.2295
 2810TIP3    H229922   4.965   1.710   1.359  0.4341 -0.2681  0.7223
 2811TIP3   OH229923   5.635   1.499  12.228 -0.6732 -0.4646  0.4381
 2811TIP3    H129924   5.718   1.475  12.186 -1.5571 -1.4654 -0.7812
 2811TIP3    H229925   5.652   1.586  12.266  0.4561  0.0504 -1.1434
 2812TIP3   OH229926   0.376   4.740  13.430  0.0329 -0.1407  0.1054
 2812TIP3    H129927   0.340   4.754  13.518  1.6140  0.1103  0.7513
 2812TIP3    H229928   0.392   4.646  13.425 -1.2322 -0.3498 -0.4218
 2813TIP3   OH229929   3.710   5.940   0.130  0.0634 -0.3212 -0.0120
 2813TIP3    H129930   3.648   5.872   0.104 -0.5353  0.0299  0.4589
 2813TIP3    H229931   3.674   5.975   0.212 -0.0396  1.0681 -0.6202
 2814TIP3   OH229932   5.355   4.188   4.413 -0.3430 -0.6664 -0.0466
 2814TIP3    H129933   5.264   4.168   4.394 -0.5185 -1.6209  1.6023
 2814TIP3    H229934   5.352   4.259   4.478  0.1629  0.7055 -1.4709
 2815TIP3   OH229935   1.280   1.556  12.065  0.0267  0.5026  0.0201
 2815TIP3    H129936   1.243   1.577  11.980 -2.1128  0.4070  0.8844
 2815TIP3    H229937   1.372   1.585  12.059 -0.0975  0.5568 -2.2557
 2816TIP3   OH229938   0.607   4.595  16.344  0.3820 -0.1633  0.0310
 2816TIP3    H129939   0.528   4.627  16.301  0.4119  1.4715  1.1146
 2816TIP3    H229940   0.637   4.523  16.289  0.1472  1.4919 -2.3901
 2817TIP3   OH229941   2.968   0.334  16.082 -0.4763  0.3367 -0.3605
 2817TIP3    H129942   2.875   0.357  16.080 -0.4947  0.3219  0.3003
 2817TIP3    H229943   3.009   0.396  16.021 -1.0618 -0.3614 -1.5055
 2818TIP3   OH229944   4.279   5.083  17.506  0.1734 -0.0757 -0.2264
 2818TIP3    H129945   4.274   5.054  17.415 -2.3520 -0.0547 -0.1528
 2818TIP3    H229946   4.223   5.022  17.554  0.8259  0.4094  1.2002
 2819TIP3   OH229947   4.101   0.937   3.272 -0.1878  0.8078 -0.0220
 2819TIP3    H129948   4.144   0.919   3.355  0.6555 -1.3098 -0.8602
 2819TIP3    H229949   4.025   0.879   3.271  0.6025 -0.2544 -1.2991
 2820TIP3   OH229950   3.979   2.109   2.254  0.3557 -0.1310  0.1369
 2820TIP3    H129951   3.994   2.198   2.287 -1.7995  0.0558  0.7653
 2820TIP3    H229952   3.884   2.104   2.242  0.4340 -2.3544  0.1090
 2821TIP3   OH229953   4.441   2.512  13.913  0.2243 -0.0008  0.2885
 2821TIP3    H129954   4.393   2.588  13.945 -0.7256  0.0758 -1.2069
 2821TIP3    H229955   4.391   2.437  13.945  0.2565  0.0393  0.4309
 2822TIP3   OH229956   5.128   5.728   1.387  0.2789 -0.0176 -0.2589
 2822TIP3    H129957   5.216   5.710   1.419  0.3984  0.1685 -0.4753
 2822TIP3    H229958   5.087   5.642   1.377  0.5981 -0.1332 -0.6100
 2823TIP3   OH229959   4.834   3.736   3.902  0.1037 -1.3820  0.6819
 2823TIP3    H129960   4.766   3.789   3.861 -1.3230 -2.9299  0.9338
 2823TIP3    H229961   4.855   3.782   3.984  0.7046  0.0547 -0.2523
 2824TIP3   OH229962   5.532   0.615   3.887  0.4621  0.3634  0.0947
 2824TIP3    H129963   5.574   0.665   3.817 -2.4230 -0.4542 -2.4526
 2824TIP3    H229964   5.473   0.677   3.929 -0.2064  0.1256 -0.4531
 2825TIP3   OH229965   3.042   3.613  16.386 -0.2571 -0.0845 -0.1947
 2825TIP3    H129966   3.129   3.574  16.373  0.3064  0.6632  1.1500
 2825TIP3    H229967   3.007   3.568  16.463  0.1797  1.6249  1.0561
 2826TIP3   OH229968   0.280   0.084   3.479 -0.1697  0.3615  0.0579
 2826TIP3    H129969   0.294   0.178   3.487 -1.1231  0.5276 -0.1514
 2826TIP3    H229970   0.200   0.075   3.427 -0.1886 -0.5596  0.2219
 2827TIP3   OH229971   6.147   1.494  13.150  0.5778  0.0582 -0.0379
 2827TIP3    H129972   6.074   1.542  13.111 -1.0383 -1.0269  1.4994
 2827TIP3    H229973   6.175   1.549  13.224 -0.4575 -0.6885  0.9598
 2828TIP3   OH229974   2.033   6.644  17.268  0.2969 -0.4067 -0.0898
 2828TIP3    H129975   2.091   6.613  17.338  0.3605  0.7396  0.3826
 2828TIP3    H229976   2.093   6.675  17.200  0.2689 -2.5123 -1.1943
 2829TIP3   OH229977   1.198   5.125  11.663 -0.1146 -0.4489 -0.5138
 2829TIP3    H129978   1.175   5.055  11.725  0.4871 -0.6622 -0.5192
 2829TIP3    H229979   1.221   5.199  11.719  3.3584 -1.5103 -0.2769
 2830TIP3   OH229980   0.069   4.232  17.138 -0.7546  0.8671 -0.4711
 2830TIP3    H129981   0.037   4.273  17.057  0.9685 -0.3541 -1.8358
 2830TIP3    H229982   0.093   4.143  17.112 -2.1978 -0.3120  1.8914
 2831TIP3   OH229983   0.177   0.332  11.343  0.3510 -0.5104  0.7545
 2831TIP3    H129984   0.115   0.390  11.298  2.2453  1.3056  0.3375
 2831TIP3    H229985   0.193   0.261  11.282 -0.9847 -0.8028  0.7148
 2832TIP3   OH229986   6.416   5.166  14.460 -0.1548  0.1407  0.1442
 2832TIP3    H129987   6.390   5.258  14.450  2.1180  0.9186  0.8780
 2832TIP3    H229988   6.411   5.150  14.554 -1.2626 -0.7744 -0.0384
 2833TIP3   OH229989   5.472   3.664  14.222  0.2330 -0.2772 -0.2873
 2833TIP3    H129990   5.382   3.680  14.253  0.3331  0.5850 -0.4042
 2833TIP3    H229991   5.464   3.657  14.127  0.3768  0.5560 -0.3703
 2834TIP3   OH229992   3.841   2.247   0.987  0.0728  0.1726  0.0927
 2834TIP3    H129993   3.845   2.257   1.082  0.6009 -1.8357  0.3297
 2834TIP3    H229994   3.750   2.224   0.969  0.3012 -0.9428  0.3099
 2835TIP3   OH229995   1.341   1.274   5.528  0.1992  0.3185 -0.4714
 2835TIP3    H129996   1.385   1.343   5.578 -0.0003  0.3144 -0.2856
 2835TIP3    H229997   1.409   1.209   5.512  0.1618  0.1081  0.1961
 2836TIP3   OH229998   6.026   5.473  11.483  0.5510 -0.5586  0.4212
 2836TIP3    H129999   6.052   5.460  11.574  0.4380  1.5250  0.7960
 2836TIP3    H230000   6.037   5.387  11.442  1.3210 -1.3533  2.2076
 2837TIP3   OH230001   2.524   6.661   0.115 -0.6830  0.0085 -0.8291
 2837TIP3    H130002   2.560   6.589   0.063  0.8317  0.6171 -0.6766
 2837TIP3    H230003   2.462   6.705   0.057  0.0288 -0.0946 -1.6859
 2838TIP3   OH230004   3.477   3.773   3.880  0.2582  0.6730  0.5589
 2838TIP3    H130005   3.525   3.804   3.803  1.7130 -0.5113  0.9387
 2838TIP3    H230006   3.523   3.694   3.907 -1.5972 -0.2080  1.3204
 2839TIP3   OH230007   1.976   0.749   4.501  0.5452 -0.3841  0.0027
 2839TIP3    H130008   1.989   0.826   4.446 -1.5924  0.2067  0.2349
 2839TIP3    H230009   1.955   0.679   4.439 -2.4775  0.4191 -0.0278
 2840TIP3   OH230010   3.665   0.868  16.374 -0.1078 -0.7469  0.1406
 2840TIP3    H130011   3.676   0.909  16.460  1.8724 -1.8433  0.4798
 2840TIP3    H230012   3.753   0.870  16.336 -1.0132  0.1842 -2.1302
 2841TIP3   OH230013   0.646   0.210  15.155  0.3233  0.1140  0.2943
 2841TIP3    H130014   0.691   0.140  15.201  0.7429 -1.0639 -1.7734
 2841TIP3    H230015   0.582   0.243  15.217  1.3959 -0.8307  1.9598
 2842TIP3   OH230016   1.056   5.372  15.012  0.4604 -0.1732  0.0076
 2842TIP3    H130017   0.997   5.352  14.939  0.7508  0.0969 -0.3066
 2842TIP3    H230018   1.030   5.311  15.082  0.8398 -1.1323 -0.6655
 2843TIP3   OH230019   0.355   2.677   3.862 -0.1220  0.5850 -0.0401
 2843TIP3    H130020   0.352   2.650   3.954 -0.6785  1.0927  0.0955
 2843TIP3    H230021   0.263   2.687   3.837  0.0162  0.2253 -0.7219
 2844TIP3   OH230022   4.553   1.293   0.769  0.0867 -0.9314 -0.0134
 2844TIP3    H130023   4.623   1.292   0.704  0.4782 -2.6378  0.3860
 2844TIP3    H230024   4.545   1.385   0.795  0.5834 -0.3646 -1.7431
 2845TIP3   OH230025   5.098   1.669   0.601  0.6173  0.4233  0.5066
 2845TIP3    H130026   5.034   1.628   0.542 -0.2155  0.5470  1.2925
 2845TIP3    H230027   5.093   1.762   0.580 -0.6239  0.6419  1.5993
 2846TIP3   OH230028   1.392   0.888  11.002  0.0901 -0.1202 -0.1944
 2846TIP3    H130029   1.383   0.793  11.011  0.2910  0.0283  2.2551
 2846TIP3    H230030   1.315   0.923  11.047  1.2061  0.8652  1.0439
 2847TIP3   OH230031   2.390   1.711   3.548  0.0382  0.5847  0.3964
 2847TIP3    H130032   2.340   1.722   3.468  2.3729 -1.1493 -1.4347
 2847TIP3    H230033   2.453   1.782   3.548  0.2661  0.3854  0.5338
 2848TIP3   OH230034   3.082   2.911  14.154 -0.6237  0.0630 -0.5728
 2848TIP3    H130035   3.176   2.896  14.153 -0.4207  1.2266 -0.5869
 2848TIP3    H230036   3.050   2.859  14.228 -0.4421 -2.7276 -2.3344
 2849TIP3   OH230037   2.380   5.561  16.701 -0.5517  0.2031 -0.2897
 2849TIP3    H130038   2.414   5.638  16.655  0.8767 -0.3576 -0.2058
 2849TIP3    H230039   2.402   5.576  16.793  0.4691 -0.6481 -0.3706
 2850TIP3   OH230040   5.098   5.249  14.964 -0.2895  0.4824  0.0741
 2850TIP3    H130041   5.033   5.317  14.981  0.7964  1.3584  0.8872
 2850TIP3    H230042   5.140   5.276  14.882 -0.0812  0.6357  0.2276
 2851TIP3   OH230043   1.422   2.402  11.106 -0.2590  0.8083  0.5375
 2851TIP3    H130044   1.374   2.345  11.046 -0.8748  0.9876  0.8575
 2851TIP3    H230045   1.514   2.383  11.087 -0.4048  1.6092 -1.1858
 2852TIP3   OH230046   3.798   4.312  11.787  0.0879 -0.0102 -0.0703
 2852TIP3    H130047   3.799   4.276  11.698  3.0662  0.5938 -0.3799
 2852TIP3    H230048   3.751   4.246  11.838 -1.5392 -0.4658 -1.9893
 2853TIP3   OH230049   3.911   1.997   4.074 -0.0833 -0.4298  0.1713
 2853TIP3    H130050   3.831   1.945   4.085  1.1042 -2.3860  0.0805
 2853TIP3    H230051   3.948   2.002   4.162 -0.7358  1.2787  0.3793
 2854TIP3   OH230052   1.871   5.972  14.361 -0.3206 -0.2709  0.4105
 2854TIP3    H130053   1.937   5.921  14.409 -0.1159 -0.3969  0.0011
 2854TIP3    H230054   1.877   6.060  14.399  2.1050  0.5209 -1.4931
 2855TIP3   OH230055   6.764   3.258  12.732 -0.2154  0.0329  0.4401
 2855TIP3    H130056   6.792   3.285  12.645 -1.5094  1.2994  0.3811
 2855TIP3    H230057   6.685   3.310  12.749 -1.0775 -1.5560  1.5916
 2856TIP3   OH230058   2.925   0.990  17.490  0.2573  0.1562  0.1574
 2856TIP3    H130059   2.925   1.009  17.397  0.0792  1.4652  0.4105
 2856TIP3    H230060   3.015   0.962  17.509  0.8867  1.9623 -0.0163
 2857TIP3   OH230061   0.084   5.032  11.365  0.1771  0.7276  0.1254
 2857TIP3    H130062   0.176   5.054  11.348  1.0694 -2.7744 -0.4527
 2857TIP3    H230063   0.057   4.982  11.288 -1.7711  0.5124  0.9036
 2858TIP3   OH230064   4.371   6.244   3.909 -0.7266 -0.2909 -0.2129
 2858TIP3    H130065   4.390   6.194   3.829  1.3485 -1.1393  0.7500
 2858TIP3    H230066   4.425   6.322   3.902  0.4114 -0.9506  0.8835
 2859TIP3   OH230067   2.536   5.710   3.409 -0.0116 -0.0740 -0.2102
 2859TIP3    H130068   2.535   5.806   3.409 -3.1812  0.0168 -1.7925
 2859TIP3    H230069   2.482   5.685   3.485 -0.9158 -0.5042 -0.9713
 2860TIP3   OH230070   0.230   5.252  12.823 -0.2145 -0.4659 -0.2102
 2860TIP3    H130071   0.303   5.224  12.767 -1.0570 -2.4184 -0.4403
 2860TIP3    H230072   0.163   5.280  12.761  0.0533  0.5862 -0.0294
 2861TIP3   OH230073   2.265   6.258   4.448 -0.2226  0.2830 -0.2340
 2861TIP3    H130074   2.201   6.210   4.395  0.6341 -1.5687  0.3395
 2861TIP3    H230075   2.326   6.191   4.478  0.2921  1.5406  1.6798
 2862TIP3   OH230076   1.387   5.421   3.052  0.8506 -0.3127 -0.6626
 2862TIP3    H130077   1.435   5.403   3.133  1.9056  3.6451 -0.1839
 2862TIP3    H230078   1.442   5.382   2.983  1.7501 -0.7514  0.2745
 2863TIP3   OH230079   3.489   1.788  11.210  0.4320  0.0015 -0.1203
 2863TIP3    H130080   3.468   1.857  11.274  0.4330  1.1438 -1.2939
 2863TIP3    H230081   3.570   1.748  11.243 -0.5554 -0.7128  1.5491
 2864TIP3   OH230082   5.082   5.854   0.372  0.2949  0.3589 -0.5778
 2864TIP3    H130083   5.052   5.896   0.453 -1.7352 -0.2422 -0.9498
 2864TIP3    H230084   5.113   5.768   0.400 -0.8680 -0.0405 -0.4583
 2865TIP3   OH230085   2.267   0.193  14.205 -0.1281 -0.1777  0.1113
 2865TIP3    H130086   2.291   0.203  14.297 -0.1306  2.2523 -0.0922
 2865TIP3    H230087   2.351   0.198  14.157 -0.2409 -0.0626 -0.0792
 2866TIP3   OH230088   4.226   0.353  12.904 -1.0384  0.3487 -0.2277
 2866TIP3    H130089   4.253   0.323  12.817 -0.2011 -2.7326  0.9607
 2866TIP3    H230090   4.177   0.433  12.887 -0.7741 -0.0270 -3.5088
 2867TIP3   OH230091   6.274   6.587   6.361 -0.3332  0.0427  0.2656
 2867TIP3    H130092   6.248   6.514   6.418  0.4538 -0.2704  0.2470
 2867TIP3    H230093   6.304   6.655   6.421 -1.5948  0.5830  0.3078
 2868TIP3   OH230094   2.769   3.252   3.133 -0.2386 -0.1250 -0.3123
 2868TIP3    H130095   2.786   3.260   3.227 -2.0253 -1.0318  0.1331
 2868TIP3    H230096   2.800   3.335   3.096  0.3052  0.3338  1.1031
 2869TIP3   OH230097   0.813   0.986   0.353  0.3295 -0.2354  0.1278
 2869TIP3    H130098   0.878   0.928   0.392  0.0594 -0.4336  0.2947
 2869TIP3    H230099   0.855   1.072   0.350  0.7748 -0.4634 -0.2265
 2870TIP3   OH230100   5.682   6.103  13.291 -0.2097  0.2164 -0.2006
 2870TIP3    H130101   5.673   6.107  13.387  1.7956 -0.7551  0.0838
 2870TIP3    H230102   5.769   6.139  13.274 -1.4523  2.7593 -1.9623
 2871TIP3   OH230103   3.381   3.525   5.138 -0.1071  0.5954 -0.2933
 2871TIP3    H130104   3.317   3.455   5.129  0.3270 -0.0040  0.9640
 2871TIP3    H230105   3.341   3.586   5.201 -0.3546  1.3403 -1.1524
 2872TIP3   OH230106   5.792   5.611   0.495 -0.1509 -0.0383  0.5309
 2872TIP3    H130107   5.881   5.608   0.531 -0.1188  0.7719  0.5405
 2872TIP3    H230108   5.735   5.607   0.571 -0.1333 -0.7674  0.5128
 2873TIP3   OH230109   0.519   4.589   5.025 -0.2047  0.0317 -0.3985
 2873TIP3    H130110   0.592   4.650   5.015  0.0810 -0.3917 -0.9390
 2873TIP3    H230111   0.488   4.604   5.114 -1.6281  2.6026 -1.2197
 2874TIP3   OH230112   0.089   2.507  16.940  0.4274  0.5760 -0.0761
 2874TIP3    H130113   0.091   2.442  17.010 -0.3314  1.0439  0.3860
 2874TIP3    H230114   0.002   2.545  16.944  0.3332  0.5350 -1.3524
 2875TIP3   OH230115   4.177   4.439   0.867  0.1250  0.2298 -0.2433
 2875TIP3    H130116   4.256   4.392   0.894 -0.0138  1.0344  1.6847
 2875TIP3    H230117   4.116   4.370   0.840  0.9231 -0.4955 -0.2189
 2876TIP3   OH230118   1.547   2.237  13.626 -0.0110 -0.1131  0.2652
 2876TIP3    H130119   1.596   2.188  13.560  0.9361  1.1901 -0.0283
 2876TIP3    H230120   1.465   2.189  13.635  0.2874 -0.9225 -1.0674
 2877TIP3   OH230121   4.193   3.898  16.622 -0.1257 -0.0390  0.1394
 2877TIP3    H130122   4.203   3.822  16.679 -1.9882  0.1416  0.7679
 2877TIP3    H230123   4.211   3.973  16.678  0.7700  0.0379 -0.2368
 2878TIP3   OH230124   4.679   1.990  14.315  0.3030  0.3341 -0.1884
 2878TIP3    H130125   4.656   2.008  14.224  1.0969  0.9675 -0.2693
 2878TIP3    H230126   4.638   1.905  14.334  0.0951  0.2243 -1.1125
 2879TIP3   OH230127   2.152   2.426   3.269 -0.0616  0.5604 -0.0075
 2879TIP3    H130128   2.176   2.407   3.360  1.2177 -0.1256 -0.4561
 2879TIP3    H230129   2.080   2.488   3.275 -2.6890 -2.3537  1.5563
 2880TIP3   OH230130   4.063   6.294  14.000 -0.1939  0.1005 -0.5144
 2880TIP3    H130131   4.100   6.377  13.969 -0.8641  0.6681  0.1599
 2880TIP3    H230132   4.020   6.317  14.083 -0.6989 -0.8502 -0.5050
 2881TIP3   OH230133   0.473   0.835   2.721 -0.1029 -0.1616 -0.5029
 2881TIP3    H130134   0.462   0.742   2.700 -2.4946  0.5494 -2.9038
 2881TIP3    H230135   0.396   0.877   2.684  0.2991  2.6814  1.5985
 2882TIP3   OH230136   0.186   2.333   0.076 -0.1998  0.0083  0.0696
 2882TIP3    H130137   0.217   2.405   0.131  0.1068  0.2441 -0.4021
 2882TIP3    H230138   0.091   2.344   0.074 -0.2441 -0.2123  0.8316
 2883TIP3   OH230139   0.962   5.848  14.539 -0.0773 -0.5237 -0.0018
 2883TIP3    H130140   0.955   5.878  14.448 -1.3511 -0.6402  0.0323
 2883TIP3    H230141   1.028   5.778  14.536 -1.8663 -2.3047 -1.3648
 2884TIP3   OH230142   1.790   0.154   2.811 -0.1343 -0.4515  0.0198
 2884TIP3    H130143   1.756   0.199   2.734 -0.1505  0.1977  0.4040
 2884TIP3    H230144   1.728   0.082   2.826 -1.1515  0.5024  0.4979
 2885TIP3   OH230145   3.166   0.198  17.208  0.2088  0.2814  0.5150
 2885TIP3    H130146   3.077   0.212  17.177  0.0385 -1.2170  0.2233
 2885TIP3    H230147   3.160   0.120  17.264  1.1864  0.6857  1.2205
 2886TIP3   OH230148   1.008   0.693  12.896  0.0656  0.1846 -0.3591
 2886TIP3    H130149   0.935   0.684  12.957  0.5249  0.1503  0.2001
 2886TIP3    H230150   0.970   0.733  12.818 -0.2635  1.5254  0.4632
 2887TIP3   OH230151   2.459   3.413  16.695 -0.2297  0.3781  0.0257
 2887TIP3    H130152   2.519   3.383  16.626 -1.0288  0.2994 -0.6456
 2887TIP3    H230153   2.516   3.459  16.757  0.6206 -0.2225 -0.2770
 2888TIP3   OH230154   5.092   0.809  13.365  0.2569 -0.1975  0.1278
 2888TIP3    H130155   5.145   0.866  13.310 -0.7543 -0.2010 -0.8983
 2888TIP3    H230156   5.140   0.803  13.448  0.7533  1.5114 -0.0103
 2889TIP3   OH230157   0.006   0.443  13.824 -0.1991 -1.0861  0.6850
 2889TIP3    H130158   0.067   0.390  13.773 -0.5486 -0.4677 -0.3901
 2889TIP3    H230159   0.063   0.501  13.876  0.1508 -0.0601 -0.7947
 2890TIP3   OH230160   3.973   0.856   5.607  0.8104 -0.3713  0.0278
 2890TIP3    H130161   3.903   0.903   5.562  1.1335 -0.8776 -1.0149
 2890TIP3    H230162   3.931   0.822   5.686 -0.1273 -0.6858 -0.5914
 2891TIP3   OH230163   1.109   0.468  15.917  1.0309 -0.5460  0.2254
 2891TIP3    H130164   1.120   0.563  15.919  2.5451 -0.6688 -0.4508
 2891TIP3    H230165   1.070   0.446  16.002  1.0315  0.6290  0.5440
 2892TIP3   OH230166   0.546   4.595  11.845  0.1648  0.1274  0.2385
 2892TIP3    H130167   0.515   4.632  11.762  1.1110  1.4535  0.4349
 2892TIP3    H230168   0.573   4.506  11.823 -2.5318 -0.6597 -0.1726
 2893TIP3   OH230169   0.383   4.609  12.904 -0.0524 -0.9739 -0.6154
 2893TIP3    H130170   0.429   4.685  12.868  0.3060 -1.1140 -0.4602
 2893TIP3    H230171   0.380   4.547  12.831 -0.3259 -0.8207 -0.7356
 2894TIP3   OH230172   2.637   3.967   2.524  0.2144 -0.2108  0.0308
 2894TIP3    H130173   2.630   3.871   2.528 -0.1564 -0.2281 -0.8082
 2894TIP3    H230174   2.670   3.992   2.610 -2.0014 -0.8784  1.1438
 2895TIP3   OH230175   6.265   5.564  15.563 -0.2716  0.1092 -0.0804
 2895TIP3    H130176   6.325   5.625  15.520 -1.2041  0.4573 -0.9221
 2895TIP3    H230177   6.319   5.488  15.582  0.1524 -0.1714 -2.1128
 2896TIP3   OH230178   0.055   2.203  14.790  0.0744  0.1691  0.0030
 2896TIP3    H130179   0.009   2.221  14.708  1.0052 -2.7292 -1.2931
 2896TIP3    H230180  -0.013   2.170  14.849 -0.0468 -1.6539 -1.0577
 2897TIP3   OH230181   4.108   5.602  12.152 -0.1770  0.2664 -0.0400
 2897TIP3    H130182   4.123   5.668  12.219 -1.0127 -1.2948  1.7697
 2897TIP3    H230183   4.192   5.592  12.108  0.4775  1.0874  0.9866
 2898TIP3   OH230184   5.943   5.622   4.291  0.2091  0.1114 -0.4405
 2898TIP3    H130185   5.953   5.652   4.201 -1.4503 -0.0801 -0.7218
 2898TIP3    H230186   5.929   5.528   4.283 -0.2715  0.1450 -0.0174
 2899TIP3   OH230187   5.452   1.744   3.774  0.2341  0.2495 -0.1546
 2899TIP3    H130188   5.496   1.666   3.809 -1.6358 -0.3611  1.0429
 2899TIP3    H230189   5.446   1.728   3.680 -0.2840 -1.1857  0.0924
 2900TIP3   OH230190   0.245   1.339   5.423 -0.9050  0.2537  0.3339
 2900TIP3    H130191   0.307   1.328   5.351 -0.2126  2.3681  0.5245
 2900TIP3    H230192   0.295   1.318   5.501 -0.7345  0.9220  0.4089
 2901TIP3   OH230193   2.249   4.826   2.003 -0.1470 -0.0422 -0.2991
 2901TIP3    H130194   2.309   4.888   2.045  0.8214  0.7976 -2.7823
 2901TIP3    H230195   2.261   4.744   2.052  1.7979  0.5613  0.3126
 2902TIP3   OH230196   0.763   4.161  15.555 -0.3443 -0.1728  0.5107
 2902TIP3    H130197   0.668   4.158  15.554 -0.3701  0.4240  0.7109
 2902TIP3    H230198   0.790   4.147  15.464 -0.5586 -1.9525  0.6903
 2903TIP3   OH230199   2.783   5.877   2.838  0.5750 -0.0965 -0.0539
 2903TIP3    H130200   2.860   5.926   2.809  0.0742 -0.6100 -2.5347
 2903TIP3    H230201   2.710   5.938   2.824  0.1787 -0.7941 -1.1537
 2904TIP3   OH230202   0.204   6.764   0.535 -0.2773  0.5228 -0.1229
 2904TIP3    H130203   0.151   6.803   0.465 -1.0964  0.0619  0.2291
 2904TIP3    H230204   0.166   6.678   0.549  0.6946  0.0962  0.0144
 2905TIP3   OH230205   1.553   3.635   4.808 -0.4132  0.7200 -0.4563
 2905TIP3    H130206   1.518   3.591   4.730 -0.1228  0.3164 -0.3629
 2905TIP3    H230207   1.505   3.596   4.881 -0.7909  1.2056 -0.4437
 2906TIP3   OH230208   0.078   4.643  11.052  0.2906  0.0938  0.1037
 2906TIP3    H130209   0.056   4.597  11.133 -0.8952 -0.9626 -0.7632
 2906TIP3    H230210   0.087   4.573  10.987  0.2019  0.9757 -0.8798
 2907TIP3   OH230211   5.317   2.574  11.673  0.1479 -0.3533  0.7154
 2907TIP3    H130212   5.282   2.539  11.591 -1.1388  2.1845  0.0798
 2907TIP3    H230213   5.304   2.504  11.737 -0.6469 -1.6553 -0.8026
 2908TIP3   OH230214   3.109   0.483   3.682 -0.5003 -0.2123 -0.3486
 2908TIP3    H130215   3.104   0.568   3.639 -0.3019 -1.2358 -2.5515
 2908TIP3    H230216   3.200   0.455   3.671  0.3229  0.5722  3.1815
 2909TIP3   OH230217   0.983   3.947  16.027 -0.5612  0.6531  0.6538
 2909TIP3    H130218   1.017   3.935  15.938 -0.8158  1.9378  0.3549
 2909TIP3    H230219   0.983   3.860  16.066  2.1229  0.4262  0.3226
 2910TIP3   OH230220   2.457   1.881  11.751  1.0133  0.2575  0.3870
 2910TIP3    H130221   2.493   1.807  11.703 -1.2091 -0.2804 -0.6086
 2910TIP3    H230222   2.397   1.842  11.814 -0.5423  1.1762 -0.4525
 2911TIP3   OH230223   4.888   3.710   0.951 -0.0823 -0.4041  0.6242
 2911TIP3    H130224   4.879   3.681   0.860  2.7869  1.3211 -0.3156
 2911TIP3    H230225   4.923   3.634   0.997  1.8835 -0.2715 -0.5494
 2912TIP3   OH230226   0.848   4.643   6.022  0.1451  0.1389  0.2476
 2912TIP3    H130227   0.754   4.659   6.027 -0.2949 -1.7706 -0.6248
 2912TIP3    H230228   0.861   4.610   5.933  1.4542 -0.5964  0.6884
 2913TIP3   OH230229   1.287   5.960   6.170  0.4968 -0.1787 -0.3642
 2913TIP3    H130230   1.372   5.982   6.132 -0.0010  0.3367 -1.2142
 2913TIP3    H230231   1.247   5.899   6.107  0.4239 -0.7856  0.2594
 2914TIP3   OH230232   6.416   6.086   5.098 -0.3154  0.0473  0.4901
 2914TIP3    H130233   6.493   6.116   5.050 -0.2214  1.0925  1.2604
 2914TIP3    H230234   6.376   6.020   5.041  1.8940 -1.5441  0.6277
 2915TIP3   OH230235   0.759   3.767  12.153  0.3919  0.1140 -0.8023
 2915TIP3    H130236   0.846   3.727  12.142  0.2800 -0.0995 -0.9131
 2915TIP3    H230237   0.739   3.804  12.067  0.5877  0.5980 -0.6425
 2916TIP3   OH230238   3.720   0.303   2.629 -0.1617  0.7882 -0.3184
 2916TIP3    H130239   3.772   0.227   2.603  0.3141  1.2977 -0.8843
 2916TIP3    H230240   3.634   0.287   2.592  0.3972  1.3136 -1.9344
 2917TIP3   OH230241   1.319   5.645  17.012 -0.3639 -0.3522 -0.1007
 2917TIP3    H130242   1.255   5.607  16.952  0.4512  0.0696 -1.2588
 2917TIP3    H230243   1.394   5.586  17.008  1.0738  1.4542 -2.2116
 2918TIP3   OH230244   0.825   3.111   0.166  0.2744  0.2125  0.3509
 2918TIP3    H130245   0.735   3.142   0.174  0.5317  1.4443 -1.1162
 2918TIP3    H230246   0.878   3.190   0.167  1.0745 -0.2154 -1.8610
 2919TIP3   OH230247   6.681   0.490   1.296 -0.6133 -0.0706 -0.7898
 2919TIP3    H130248   6.635   0.453   1.372  0.8479  0.1475  0.2468
 2919TIP3    H230249   6.768   0.451   1.300  0.1843  1.6091 -1.0778
 2920TIP3   OH230250   6.107   3.568  14.556  0.5314  0.6074 -0.1650
 2920TIP3    H130251   6.188   3.517  14.553  0.4958  0.5776 -1.2411
 2920TIP3    H230252   6.055   3.533  14.484 -1.1340 -0.4834  1.4798
 2921TIP3   OH230253   1.635   4.294  12.863 -0.5142 -0.4104 -0.4196
 2921TIP3    H130254   1.565   4.309  12.801  0.4598 -0.7488 -1.6372
 2921TIP3    H230255   1.694   4.369  12.852  0.5273 -1.3079 -1.1362
 2922TIP3   OH230256   5.249   3.760  17.229 -0.0551  0.8911  0.3060
 2922TIP3    H130257   5.254   3.705  17.151 -0.8804  0.1927  0.7234
 2922TIP3    H230258   5.290   3.707  17.298 -1.6195  0.4106  0.9046
 2923TIP3   OH230259   0.901   6.737  12.670 -0.0897  0.6491 -0.0203
 2923TIP3    H130260   0.986   6.766  12.637 -0.2869  2.3944  0.8880
 2923TIP3    H230261   0.840   6.758  12.599  0.2023 -0.5886 -0.6652
 2924TIP3   OH230262   2.321   1.177   5.083  0.7472  0.1604 -0.0148
 2924TIP3    H130263   2.343   1.265   5.114  0.8829  0.0162  0.3058
 2924TIP3    H230264   2.274   1.137   5.156 -1.2111  0.6907 -0.9143
 2925TIP3   OH230265   4.596   1.696   4.768 -0.2853 -0.4254  0.8410
 2925TIP3    H130266   4.669   1.638   4.790  1.3107  0.6862 -1.1272
 2925TIP3    H230267   4.558   1.719   4.853 -0.0365 -3.0634  1.7700
 2926TIP3   OH230268   2.381   3.333  12.807  0.0479 -0.0081 -0.2676
 2926TIP3    H130269   2.318   3.319  12.736 -0.2360  0.4843 -0.1173
 2926TIP3    H230270   2.461   3.289  12.778  0.2412  0.9945 -1.3292
 2927TIP3   OH230271   5.673   2.249   3.528  0.2833  0.4223  0.0254
 2927TIP3    H130272   5.707   2.272   3.442  2.1391  1.0148  0.8503
 2927TIP3    H230273   5.673   2.332   3.577 -0.6308  0.0810  0.6355
 2928TIP3   OH230274   1.056   5.804   3.349  0.3052  0.4150  0.1112
 2928TIP3    H130275   1.141   5.842   3.368  1.2947 -1.2855 -0.7155
 2928TIP3    H230276   1.074   5.733   3.288 -1.7089 -0.0192 -0.0589
 2929TIP3   OH230277   2.551   0.409   5.190 -0.4855  0.3999  0.1965
 2929TIP3    H130278   2.563   0.490   5.140  1.8088  0.5409  0.8439
 2929TIP3    H230279   2.547   0.438   5.282 -0.6430 -0.1259  0.3562
 2930TIP3   OH230280   4.081   1.335   1.066  0.1835 -0.0067  0.2730
 2930TIP3    H130281   3.999   1.383   1.057 -0.2946 -1.1805 -2.2349
 2930TIP3    H230282   4.136   1.392   1.121 -0.7528  2.8759 -1.5780
 2931TIP3   OH230283   3.396   4.883   0.002 -0.0343 -0.2547 -0.0021
 2931TIP3    H130284   3.350   4.962  -0.024  1.4605  0.1754 -1.5377
 2931TIP3    H230285   3.428   4.902   0.091  0.9078  1.1881 -0.6127
 2932TIP3   OH230286   5.778   4.846   5.803 -0.5365  0.3529 -0.2014
 2932TIP3    H130287   5.845   4.806   5.747 -0.3625 -2.3929  1.7148
 2932TIP3    H230288   5.795   4.940   5.799  2.4517 -0.1260 -1.0270
 2933TIP3   OH230289   4.938   6.294   5.741 -0.1182 -0.3325  0.1286
 2933TIP3    H130290   5.018   6.242   5.741  0.5388  0.6243  0.8012
 2933TIP3    H230291   4.968   6.384   5.727 -1.1953 -0.0944 -0.8053
 2934TIP3   OH230292   1.041   6.357   3.526 -0.4345  0.0088 -0.1540
 2934TIP3    H130293   1.008   6.369   3.437  0.3548 -1.0579 -0.6062
 2934TIP3    H230294   1.063   6.264   3.532  2.3806  0.5795  0.1165
 2935TIP3   OH230295   1.927   4.405   4.141 -0.2943 -0.1185 -0.2469
 2935TIP3    H130296   1.987   4.422   4.214  0.6031  0.8149 -1.1570
 2935TIP3    H230297   1.843   4.386   4.183 -0.5934  3.3256  1.0646
 2936TIP3   OH230298   6.430   0.534  14.449 -0.1287 -0.4050  0.0272
 2936TIP3    H130299   6.387   0.461  14.403 -1.0782  0.4848 -0.5260
 2936TIP3    H230300   6.388   0.612  14.415  1.6019  0.4943 -0.1565
 2937TIP3   OH230301   1.607   4.162   4.037 -0.5375 -0.2344  0.0271
 2937TIP3    H130302   1.582   4.165   3.945 -0.4732  1.6136  0.0335
 2937TIP3    H230303   1.531   4.125   4.082 -0.6579 -0.9254 -0.7373
 2938TIP3   OH230304   0.017   6.337  14.145  0.2042  0.2829  0.0566
 2938TIP3    H130305   0.087   6.380  14.194  2.3788 -1.9791 -0.8478
 2938TIP3    H230306   0.019   6.379  14.059 -0.4178  1.0223  0.3838
 2939TIP3   OH230307   3.173   5.348  12.293  0.0241 -0.1552  0.0684
 2939TIP3    H130308   3.094   5.355  12.239  0.1642  1.8420  0.0715
 2939TIP3    H230309   3.142   5.308  12.374 -0.8590  0.0313 -0.1629
 2940TIP3   OH230310   5.270   0.870  17.122 -0.1834 -0.2552 -0.2561
 2940TIP3    H130311   5.337   0.804  17.144  0.4481  0.2566 -0.6071
 2940TIP3    H230312   5.319   0.952  17.116 -0.8385  0.1121 -0.6114
 2941TIP3   OH230313   3.149   2.253  15.062  0.3361 -0.4509 -0.0984
 2941TIP3    H130314   3.064   2.215  15.084 -0.8982  1.4809 -1.2265
 2941TIP3    H230315   3.146   2.264  14.967  2.1194 -0.8745 -0.2460
 2942TIP3   OH230316   6.013   2.631   1.302  0.2899  0.0579  0.0941
 2942TIP3    H130317   6.002   2.721   1.335 -3.0426  0.8876 -2.6520
 2942TIP3    H230318   5.952   2.579   1.354 -0.1329  0.0640 -0.3857
 2943TIP3   OH230319   0.281   3.665  14.272  0.0111  0.1983  0.0298
 2943TIP3    H130320   0.211   3.637  14.213 -0.1513  0.6989 -0.0208
 2943TIP3    H230321   0.246   3.648  14.360 -0.8324  1.8953  0.0620
 2944TIP3   OH230322   1.634   5.430   3.676  1.1156  0.0382  0.0436
 2944TIP3    H130323   1.583   5.504   3.711  1.6159 -0.1834  1.3250
 2944TIP3    H230324   1.609   5.356   3.732  3.2701  0.0618  1.1444
 2945TIP3   OH230325   2.217   5.272  13.058  0.1563  0.6948  0.0278
 2945TIP3    H130326   2.154   5.290  12.989 -0.8435  0.2014  0.7825
 2945TIP3    H230327   2.171   5.293  13.139  1.2711  1.1756  0.5653
 2946TIP3   OH230328   2.184   5.114   2.257  0.3299  0.5166 -0.9635
 2946TIP3    H130329   2.246   5.045   2.232  0.0676  0.4182 -1.3476
 2946TIP3    H230330   2.183   5.174   2.182 -1.1711 -0.2757 -1.6076
 2947TIP3   OH230331   2.674   6.260  14.394  0.4976 -0.0748 -0.1367
 2947TIP3    H130332   2.726   6.288  14.470  2.6681 -0.2266 -1.4878
 2947TIP3    H230333   2.718   6.181  14.363 -0.7390 -0.3873 -1.1900
 2948TIP3   OH230334   3.388   5.520  11.593 -0.2853  0.1014  0.3237
 2948TIP3    H130335   3.436   5.440  11.573 -0.1966  0.7064 -2.1830
 2948TIP3    H230336   3.440   5.562  11.662  2.9561  0.6965 -2.1871
 2949TIP3   OH230337   0.738   2.226   1.078  0.0783 -1.0497  0.3644
 2949TIP3    H130338   0.723   2.267   0.992  0.7811 -0.6081  0.4459
 2949TIP3    H230339   0.652   2.193   1.104 -0.3050 -0.4725 -0.1463
 2950TIP3   OH230340   3.432   4.810  14.678 -0.2544  0.0983 -0.0013
 2950TIP3    H130341   3.517   4.784  14.642 -1.0645 -1.6962 -0.7171
 2950TIP3    H230342   3.408   4.888  14.628  0.6452  0.2082 -0.2816
 2951TIP3   OH230343   2.481   1.535  15.643  0.1506  0.1635  0.6023
 2951TIP3    H130344   2.487   1.441  15.661  2.3883 -0.5579 -2.7937
 2951TIP3    H230345   2.396   1.545  15.599  0.2456 -0.4767  0.2479
 2952TIP3   OH230346   6.499   0.493   6.892 -0.5697 -0.3063 -0.8315
 2952TIP3    H130347   6.467   0.404   6.878 -1.4761 -0.1293 -0.0356
 2952TIP3    H230348   6.587   0.481   6.929 -1.3529 -0.9531  0.9643
 2953TIP3   OH230349   4.657   5.004   5.490  0.3304  0.1430 -0.0848
 2953TIP3    H130350   4.729   4.969   5.543 -0.0178 -0.5040 -0.0299
 2953TIP3    H230351   4.591   4.934   5.489  0.7476 -0.2825 -2.2280
 2954TIP3   OH230352   3.127   5.347  13.838 -0.5515  0.7160 -0.0355
 2954TIP3    H130353   3.033   5.356  13.850 -0.7877  0.3848 -1.4939
 2954TIP3    H230354   3.137   5.270  13.781  0.6587  0.1696  0.8605
 2955TIP3   OH230355   6.103   4.611   4.674 -0.2975 -0.3221  0.2685
 2955TIP3    H130356   6.064   4.678   4.617  1.6043 -2.5994 -4.2593
 2955TIP3    H230357   6.053   4.531   4.654  1.1558 -1.4423  0.9236
 2956TIP3   OH230358   3.978   0.321  16.894  0.3174 -0.3619 -0.0460
 2956TIP3    H130359   4.000   0.262  16.966  1.0478 -0.7083 -0.5424
 2956TIP3    H230360   3.885   0.340  16.905  0.4588 -0.2908  1.0700
 2957TIP3   OH230361   5.872   1.616   5.782  0.1860 -0.9207 -0.0749
 2957TIP3    H130362   5.896   1.537   5.735 -2.6812 -1.4856 -0.8004
 2957TIP3    H230363   5.806   1.658   5.727  1.9007  2.2844  0.0518
 2958TIP3   OH230364   2.617   5.164   4.755 -0.0178 -0.5901  0.1227
 2958TIP3    H130365   2.565   5.219   4.815  0.8675 -1.5167  1.8237
 2958TIP3    H230366   2.555   5.099   4.723 -0.7271  0.4774 -0.7701
 2959TIP3   OH230367   5.791   5.181   5.956  0.1441  0.0809 -0.1618
 2959TIP3    H130368   5.786   5.227   6.040  2.3709  0.4729 -0.1873
 2959TIP3    H230369   5.710   5.205   5.911 -0.1439  1.5496  1.0354
 2960TIP3   OH230370   0.889   0.021  14.630  0.2385 -0.5029  0.4392
 2960TIP3    H130371   0.883   0.108  14.590 -1.3505 -0.3213  1.0163
 2960TIP3    H230372   0.859   0.034  14.720 -1.2666 -1.8757  0.1761
 2961TIP3   OH230373   0.956   3.664   6.521  0.7619 -0.8459  0.4618
 2961TIP3    H130374   0.877   3.613   6.504  1.6733 -2.4429  0.9018
 2961TIP3    H230375   0.956   3.732   6.454 -1.5204 -0.1377  1.0854
 2962TIP3   OH230376   4.306   0.458  11.147 -0.0352 -0.5088 -0.9081
 2962TIP3    H130377   4.344   0.451  11.234 -2.2995  2.8935  0.5711
 2962TIP3    H230378   4.376   0.491  11.091  0.6130  0.4135  0.4265
 2963TIP3   OH230379   2.134   2.778  16.343 -0.1925  0.5779  0.2445
 2963TIP3    H130380   2.217   2.760  16.299 -0.5145  0.4109 -0.3070
 2963TIP3    H230381   2.105   2.693  16.376 -0.6919  0.4404 -0.5411
 2964TIP3   OH230382   2.871   3.627   1.519 -0.1231  0.1961 -0.2407
 2964TIP3    H130383   2.846   3.717   1.539  0.0369 -0.2145  2.1253
 2964TIP3    H230384   2.790   3.584   1.493 -0.3869  0.7824 -0.3867
 2965TIP3   OH230385   1.522   3.748   1.006  0.2053  0.3596  0.3255
 2965TIP3    H130386   1.518   3.827   1.059 -0.0870  0.6758 -0.1562
 2965TIP3    H230387   1.515   3.676   1.069  1.1805  0.6963  0.8293
 2966TIP3   OH230388   4.600   4.702   5.812 -0.1388 -0.3393 -0.3739
 2966TIP3    H130389   4.681   4.743   5.782  0.1627  0.0048  0.8503
 2966TIP3    H230390   4.570   4.650   5.738 -1.0111  2.7266 -2.3354
 2967TIP3   OH230391   3.559   6.696  13.978 -0.1068  0.4417 -0.1810
 2967TIP3    H130392   3.551   6.605  14.007 -0.3673  1.0488  1.8068
 2967TIP3    H230393   3.595   6.743  14.054  0.7428  1.8731 -1.4121
 2968TIP3   OH230394   2.640   5.820  12.246  0.4230 -0.3629  0.4505
 2968TIP3    H130395   2.587   5.846  12.321 -0.3600  1.0817 -0.5691
 2968TIP3    H230396   2.605   5.735  12.220 -1.1251  0.3851  0.0406
 2969TIP3   OH230397   3.203   0.030   2.467 -0.1392 -0.0953 -0.6591
 2969TIP3    H130398   3.196  -0.055   2.511 -1.8924  0.0599 -0.5592
 2969TIP3    H230399   3.168   0.092   2.531  1.0096  0.7162 -0.7812
 2970TIP3   OH230400   1.074   4.507   0.737  0.0853 -0.3155 -0.1269
 2970TIP3    H130401   1.127   4.499   0.657  1.6024 -0.2282  0.8360
 2970TIP3    H230402   1.123   4.459   0.803 -0.6551  0.4365  1.0073
 2971TIP3   OH230403   0.571   0.679   4.613  0.1404  0.3397 -0.3402
 2971TIP3    H130404   0.624   0.647   4.686 -1.3076  1.0422  1.0852
 2971TIP3    H230405   0.513   0.606   4.592 -1.5062  1.0862  1.2992
 2972TIP3   OH230406   0.786   5.307   1.850 -0.3366 -0.1743  0.5504
 2972TIP3    H130407   0.728   5.236   1.881 -1.5182  0.5350  0.0324
 2972TIP3    H230408   0.784   5.371   1.921 -0.8921  0.2421  0.1645
 2973TIP3   OH230409   6.665   1.343  11.271 -0.0923 -0.4026 -0.0714
 2973TIP3    H130410   6.708   1.360  11.354 -0.0279 -0.9641  0.0173
 2973TIP3    H230411   6.684   1.419  11.217  1.7730 -1.0237 -0.3556
 2974TIP3   OH230412   3.343   2.892  16.162  0.6910 -0.7751 -0.2899
 2974TIP3    H130413   3.324   2.967  16.105  1.3908 -1.5588 -1.6143
 2974TIP3    H230414   3.438   2.894  16.174  0.4963 -0.2149  1.4972
 2975TIP3   OH230415   0.282   3.761   3.909 -0.4831  0.5429  0.8579
 2975TIP3    H130416   0.327   3.845   3.917  1.3303 -0.0909 -1.5595
 2975TIP3    H230417   0.200   3.782   3.864  0.6961  0.9211 -1.2604
 2976TIP3   OH230418   2.073   5.669   5.138  0.2936 -0.5112 -0.6130
 2976TIP3    H130419   2.011   5.643   5.207  0.4584 -1.3774 -0.7721
 2976TIP3    H230420   2.122   5.589   5.119  3.8845  0.8559  1.9048
 2977TIP3   OH230421   3.138   4.752  16.990  0.6929  0.3024 -0.1096
 2977TIP3    H130422   3.094   4.833  17.016 -0.1980  0.1707 -1.1504
 2977TIP3    H230423   3.125   4.693  17.064  0.3434  0.7316  0.1815
 2978TIP3   OH230424   3.617   2.138   4.781 -0.6337 -0.1878 -0.3539
 2978TIP3    H130425   3.711   2.131   4.764 -0.5927  1.2728 -0.8955
 2978TIP3    H230426   3.580   2.162   4.696 -1.3742  0.1026  0.0466
 2979TIP3   OH230427   3.933   6.106   3.191 -0.0058 -0.1933 -0.3329
 2979TIP3    H130428   3.879   6.107   3.270 -0.3597 -0.1522 -0.5719
 2979TIP3    H230429   3.967   6.017   3.186  1.2336  0.1875  0.6734
 2980TIP3   OH230430   2.413   0.548   6.407  0.2103 -0.1766  0.1214
 2980TIP3    H130431   2.362   0.628   6.393  1.2747  0.3187 -1.0561
 2980TIP3    H230432   2.426   0.544   6.502 -0.5402  0.5965  0.2675
 2981TIP3   OH230433   3.677   3.272   3.792 -0.2098 -0.1581  0.3898
 2981TIP3    H130434   3.667   3.226   3.875 -1.0848 -0.4079  0.1527
 2981TIP3    H230435   3.704   3.203   3.730  2.4409  0.3516  0.8390
 2982TIP3   OH230436   5.197   5.606   3.354  0.1106 -0.4050 -0.3039
 2982TIP3    H130437   5.182   5.644   3.268  0.2068 -0.9590 -0.5723
 2982TIP3    H230438   5.165   5.516   3.346  1.1012 -0.7854 -0.0832
 2983TIP3   OH230439   6.747   3.383  12.057  0.5788 -0.2654 -0.3144
 2983TIP3    H130440   6.659   3.412  12.081  0.0174 -0.0160 -2.4254
 2983TIP3    H230441   6.746   3.288  12.071 -0.3876 -0.4100 -1.2395
 2984TIP3   OH230442   0.736   4.051   3.298 -0.0990 -0.7167  0.3032
 2984TIP3    H130443   0.830   4.050   3.313  0.3418 -0.1924 -2.0831
 2984TIP3    H230444   0.716   3.961   3.270 -0.2100 -0.6916  0.3033
 2985TIP3   OH230445   5.156   2.249   1.014  0.0253 -0.0035  0.3323
 2985TIP3    H130446   5.178   2.300   1.092  1.6031 -0.6246  0.3269
 2985TIP3    H230447   5.077   2.292   0.979  1.0883  2.2424  0.4945
 2986TIP3   OH230448   1.948   1.942   2.284 -0.0671  0.0209  1.0125
 2986TIP3    H130449   1.957   1.883   2.359  1.8395 -1.2188 -0.1072
 2986TIP3    H230450   1.875   1.906   2.234  1.1598 -1.5937  0.2646
 2987TIP3   OH230451   5.361   5.680   4.430  0.0647 -0.0125  0.1880
 2987TIP3    H130452   5.288   5.628   4.396  0.0672  0.0783  0.0467
 2987TIP3    H230453   5.428   5.676   4.361  0.3473 -0.4201  0.4767
 2988TIP3   OH230454   1.206   0.647   0.297 -0.0638  1.0485  0.5621
 2988TIP3    H130455   1.183   0.652   0.204  0.5252 -2.3730  0.0909
 2988TIP3    H230456   1.298   0.621   0.297  0.0765  1.4869  2.1374
 2989TIP3   OH230457   4.868   4.653   1.316 -0.5304 -0.1372 -0.0028
 2989TIP3    H130458   4.953   4.693   1.296 -0.0559 -1.0479  0.1222
 2989TIP3    H230459   4.886   4.594   1.390 -1.4817  0.3840  0.6677
 2990TIP3   OH230460   3.244   2.893   2.818  0.4578 -0.1262  0.5021
 2990TIP3    H130461   3.247   2.901   2.914 -0.3337 -0.0644  0.5264
 2990TIP3    H230462   3.151   2.897   2.797  0.6940  1.3796 -0.4023
 2991TIP3   OH230463   3.459   0.092   2.517  0.0905  0.2511 -0.1015
 2991TIP3    H130464   3.513   0.088   2.438  0.7255 -0.0012  0.3327
 2991TIP3    H230465   3.379   0.045   2.494 -0.4015  1.5424 -1.0922
 2992TIP3   OH230466   2.891   2.767   5.278  0.8097  0.0741  0.2114
 2992TIP3    H130467   2.869   2.801   5.365  0.2298  0.8682 -0.2321
 2992TIP3    H230468   2.826   2.807   5.220  2.3451  1.0785 -0.8944
 2993TIP3   OH230469   5.555   6.676  13.105 -0.5468 -0.2873  0.0003
 2993TIP3    H130470   5.605   6.595  13.099  0.7161  0.3707  1.0459
 2993TIP3    H230471   5.603   6.728  13.169 -1.5106  1.1647 -0.4230
 2994TIP3   OH230472   5.301   5.028   3.050  0.0633  0.0999 -0.1436
 2994TIP3    H130473   5.222   5.082   3.051 -0.0109 -0.0146  0.1324
 2994TIP3    H230474   5.351   5.060   2.974  1.6874  3.0052  1.9428
 2995TIP3   OH230475   2.958   1.024  13.524 -0.8762  0.1931  0.2617
 2995TIP3    H130476   3.034   0.970  13.501  1.1824  2.6359  0.8128
 2995TIP3    H230477   2.925   0.985  13.605  0.0539 -0.6637  0.2557
 2996TIP3   OH230478   5.402   2.778  15.996  0.4537  0.0849 -0.3914
 2996TIP3    H130479   5.342   2.752  16.066  1.7471  0.5857  0.9715
 2996TIP3    H230480   5.472   2.713  15.998  1.0802  0.7339 -0.4198
 2997TIP3   OH230481   5.693   2.783   3.478 -0.0775 -0.1686 -0.2470
 2997TIP3    H130482   5.780   2.765   3.513 -0.6175  0.5111  1.5732
 2997TIP3    H230483   5.684   2.724   3.403  1.6157 -0.8434  0.0460
 2998TIP3   OH230484   4.805   5.005   3.858  0.3387 -0.1519 -0.2129
 2998TIP3    H130485   4.876   5.069   3.860  0.5722 -0.3276 -1.6686
 2998TIP3    H230486   4.821   4.949   3.934  0.9454  0.6332  0.2640
 2999TIP3   OH230487   6.279   1.171   0.300  0.1314 -0.1431  0.3184
 2999TIP3    H130488   6.231   1.095   0.334  0.2512 -0.0656  0.6672
 2999TIP3    H230489   6.211   1.238   0.286 -0.1004 -0.6011 -0.8352
 3000TIP3   OH230490   1.468   2.182  12.985  0.1624 -0.1951  0.2348
 3000TIP3    H130491   1.497   2.272  12.967  1.3965 -0.5309  0.4810
 3000TIP3    H230492   1.512   2.129  12.918  0.7441 -0.8171  1.0974
 3001TIP3   OH230493   2.997   1.523  16.400 -0.1414 -0.2057  0.0258
 3001TIP3    H130494   2.969   1.456  16.339 -1.9047  0.0884  0.4657
 3001TIP3    H230495   2.918   1.572  16.421  0.4631 -0.0461  2.2243
 3002TIP3   OH230496   1.164   3.960  11.029  0.1321 -0.0858 -0.2720
 3002TIP3    H130497   1.111   3.883  11.008  0.2774  0.0921 -1.3067
 3002TIP3    H230498   1.114   4.034  10.995 -0.1180  0.3251  0.9123
 3003TIP3   OH230499   5.963   4.925  12.568 -0.6735  0.3244 -0.0852
 3003TIP3    H130500   5.957   5.005  12.621  0.9773 -0.1316  0.8509
 3003TIP3    H230501   5.889   4.932  12.507 -0.8794  2.3013  0.3090
 3004TIP3   OH230502   2.152   5.302   3.952  0.8222  0.2005  0.0352
 3004TIP3    H130503   2.205   5.240   3.901  0.3033  0.1310 -0.4294
 3004TIP3    H230504   2.187   5.295   4.041  2.0521  0.6687 -0.3834
 3005TIP3   OH230505   5.658   0.523  16.441 -0.1000  0.5700  0.3658
 3005TIP3    H130506   5.579   0.532  16.388 -0.3366 -0.1242  0.5813
 3005TIP3    H230507   5.715   0.466  16.388 -0.2364  0.0828  0.7383
 3006TIP3   OH230508   5.277   5.631   6.722 -0.2166 -0.2120 -0.3373
 3006TIP3    H130509   5.190   5.670   6.726 -0.8833 -1.3471 -2.5396
 3006TIP3    H230510   5.283   5.578   6.801 -1.3928  0.1087 -0.0072
 3007TIP3   OH230511   0.870   0.277   3.418  0.5619  0.2727 -0.2994
 3007TIP3    H130512   0.811   0.221   3.367 -0.8328  1.0161  0.4663
 3007TIP3    H230513   0.940   0.218   3.445  1.3553 -0.1902 -2.9767
 3008TIP3   OH230514   5.457   4.187  16.588 -0.0053  0.4604 -0.4033
 3008TIP3    H130515   5.532   4.245  16.576 -0.2325  0.8282 -0.0521
 3008TIP3    H230516   5.478   4.136  16.666  0.7411 -0.7958 -1.3975
 3009TIP3   OH230517   0.258   6.510   1.161  0.2430 -0.1989  0.1181
 3009TIP3    H130518   0.276   6.531   1.070 -4.7150 -1.8354 -1.5689
 3009TIP3    H230519   0.242   6.595   1.202  0.1780  0.4479 -1.1950
 3010TIP3   OH230520   2.804   2.657   2.101  0.3880 -0.5082 -0.4912
 3010TIP3    H130521   2.733   2.719   2.108  1.0099  0.3497 -1.4160
 3010TIP3    H230522   2.796   2.601   2.178 -0.8732 -0.0145 -0.2497
 3011TIP3   OH230523   3.721   6.003   5.308 -0.0300  0.0203 -0.1068
 3011TIP3    H130524   3.773   5.938   5.354  0.0157 -0.8283 -1.2998
 3011TIP3    H230525   3.631   5.989   5.339  0.3003  0.9296  1.3294
 3012TIP3   OH230526   0.749   5.555   3.463 -0.3608  0.3208  0.3478
 3012TIP3    H130527   0.732   5.532   3.554  0.7710  0.7009  0.6673
 3012TIP3    H230528   0.797   5.638   3.467  0.0852  0.1261 -0.5618
 3013TIP3   OH230529   1.335   0.502   6.932 -0.4928 -0.1540  0.0189
 3013TIP3    H130530   1.420   0.533   6.961 -1.2621  0.7797  1.3892
 3013TIP3    H230531   1.321   0.543   6.847  0.1943  0.1052  0.0306
 3014TIP3   OH230532   3.587   4.122   0.930 -0.4015  0.3533 -0.2552
 3014TIP3    H130533   3.539   4.069   0.866  0.1288  0.7614 -1.0048
 3014TIP3    H230534   3.639   4.182   0.877 -0.1706  0.8979  0.5689
 3015TIP3   OH230535   2.090   1.369  12.510 -0.0870 -0.2780  0.6219
 3015TIP3    H130536   2.133   1.444  12.550 -0.6699  0.6972 -0.5431
 3015TIP3    H230537   2.159   1.304  12.498  0.7311  0.6572  0.2381
 3016TIP3   OH230538   5.738   0.603   3.143  0.2314  0.2909 -0.0235
 3016TIP3    H130539   5.673   0.603   3.213 -0.1690 -0.7521 -0.3743
 3016TIP3    H230540   5.715   0.678   3.089 -1.8345 -1.0451 -1.1466
 3017TIP3   OH230541   5.686   2.625   5.308  0.3782  0.5232  0.4190
 3017TIP3    H130542   5.634   2.674   5.372  0.6561  1.2564  0.0865
 3017TIP3    H230543   5.652   2.535   5.314  0.1694  0.6521  1.3471
 3018TIP3   OH230544   2.181   0.492  13.908  0.4664  0.0412 -0.5419
 3018TIP3    H130545   2.107   0.446  13.869  0.9514 -0.3276 -1.0404
 3018TIP3    H230546   2.258   0.444  13.878  1.0286  1.4373 -1.4534
 3019TIP3   OH230547   5.722   4.936   4.934  0.1973  0.4450  0.5011
 3019TIP3    H130548   5.814   4.959   4.949  0.5993 -0.5289 -0.3807
 3019TIP3    H230549   5.683   5.015   4.898  0.6356  0.9281  1.0617
 3020TIP3   OH230550   1.478   5.507   4.273  0.0533  0.0321 -0.0411
 3020TIP3    H130551   1.567   5.474   4.258 -0.2698 -1.9627  1.8963
 3020TIP3    H230552   1.490   5.584   4.329  0.5648 -0.8964  1.1864
 3021TIP3   OH230553   3.641   3.276  12.251 -0.5791 -1.2175  0.2046
 3021TIP3    H130554   3.692   3.278  12.332 -1.6080 -0.5771  0.8761
 3021TIP3    H230555   3.658   3.361  12.210 -1.2067 -0.9197  0.5281
 3022TIP3   OH230556   1.777   1.233  12.087  0.1385  0.2274 -0.4202
 3022TIP3    H130557   1.689   1.207  12.114  0.5846 -1.1895 -0.2210
 3022TIP3    H230558   1.779   1.328  12.098 -0.7912  0.0811  1.2432
 3023TIP3   OH230559   4.615   5.919  13.207  0.1920 -0.6303 -0.3816
 3023TIP3    H130560   4.528   5.897  13.174 -1.7328  0.7465  3.1715
 3023TIP3    H230561   4.633   5.853  13.273  1.2722 -0.1917 -0.2211
 3024TIP3   OH230562   4.230   5.179   4.077 -0.0932  0.3598  0.4441
 3024TIP3    H130563   4.240   5.093   4.116 -0.5636  0.5156  0.9204
 3024TIP3    H230564   4.150   5.214   4.116 -0.2165  0.7832 -0.1727
 3025TIP3   OH230565   1.255   0.059   2.560 -0.1167  0.2901 -0.9889
 3025TIP3    H130566   1.295   0.146   2.556  0.6014 -0.0304 -0.9603
 3025TIP3    H230567   1.184   0.068   2.623  1.0524  0.4233  0.3623
 3026TIP3   OH230568   0.119   1.868   3.503 -0.4551 -0.6295 -0.0078
 3026TIP3    H130569   0.055   1.800   3.521 -0.0426 -0.6571  1.5287
 3026TIP3    H230570   0.093   1.941   3.560  0.2032 -0.2139 -0.2195
 3027TIP3   OH230571   3.628   4.102  11.928  0.2470  0.0837 -0.4170
 3027TIP3    H130572   3.567   4.029  11.924  1.3069 -0.9213  0.8274
 3027TIP3    H230573   3.613   4.141  12.014 -0.2579  1.3189 -1.0339
 3028TIP3   OH230574   0.684   6.400   1.055 -0.2118  0.6173  0.5208
 3028TIP3    H130575   0.679   6.330   0.990 -0.7242 -0.0133  1.2152
 3028TIP3    H230576   0.683   6.481   1.004  0.1442  0.1285 -0.2838
 3029TIP3   OH230577   6.257   4.449  11.754  0.1306 -0.0490 -0.7345
 3029TIP3    H130578   6.342   4.438  11.797 -0.1701  1.4054  0.3246
 3029TIP3    H230579   6.193   4.421  11.820 -0.3237  1.9275 -0.2445
 3030TIP3   OH230580   3.448   2.758  11.877  0.4151  0.2554 -0.4974
 3030TIP3    H130581   3.446   2.674  11.830 -0.3244  0.4523 -0.8286
 3030TIP3    H230582   3.441   2.733  11.969 -1.9701  0.0195 -0.6826
 3031TIP3   OH230583   4.473   2.039  13.709  0.1472  0.5715 -0.0508
 3031TIP3    H130584   4.404   2.064  13.770 -0.1166 -0.4298  0.0798
 3031TIP3    H230585   4.514   2.122  13.684 -2.0349  1.3622 -1.2844
 3032TIP3   OH230586   6.534   4.453  17.185  0.0742  0.4030  0.1968
 3032TIP3    H130587   6.554   4.360  17.178  0.4587  0.4067  1.1488
 3032TIP3    H230588   6.564   4.491  17.102 -0.5075 -0.3825 -0.3890
 3033TIP3   OH230589   1.824   4.138   3.086 -0.6288  0.5222  0.0742
 3033TIP3    H130590   1.919   4.148   3.097 -0.3394 -0.2593 -1.3928
 3033TIP3    H230591   1.791   4.121   3.174  0.9392 -1.6504  0.3223
 3034TIP3   OH230592   1.102   4.787   1.967  0.2298  0.0553 -0.4981
 3034TIP3    H130593   1.190   4.795   1.931 -0.1682 -0.8302 -1.7364
 3034TIP3    H230594   1.063   4.713   1.920 -2.0339  1.9244 -1.8730
 3035TIP3   OH230595   3.703   4.228  10.781  0.5956  0.2400  0.1408
 3035TIP3    H130596   3.766   4.279  10.730 -0.2524  1.2761  0.1040
 3035TIP3    H230597   3.738   4.228  10.870  1.3758 -0.4280 -0.1432
 3036TIP3   OH230598   1.513   2.864  16.005  0.1246  0.7954 -0.3295
 3036TIP3    H130599   1.470   2.942  15.970  1.4802  1.8174  0.2134
 3036TIP3    H230600   1.598   2.895  16.036  0.2932 -0.7113  0.8268
 3037TIP3   OH230601   5.186   5.543   1.085  0.3659 -0.5597  0.1391
 3037TIP3    H130602   5.230   5.628   1.092  0.4390 -0.6781  1.4251
 3037TIP3    H230603   5.224   5.491   1.157  0.6349 -1.8232 -0.8853
 3038TIP3   OH230604   2.925   1.238  11.292  0.2448  0.2483 -0.1049
 3038TIP3    H130605   2.928   1.318  11.240  0.4734  2.1265  2.5818
 3038TIP3    H230606   3.014   1.227  11.325  0.3495 -1.4734 -0.8762
 3039TIP3   OH230607   5.189   1.123   4.724  0.1531  0.1685 -0.1051
 3039TIP3    H130608   5.259   1.181   4.695 -0.1995  1.0778  0.7908
 3039TIP3    H230609   5.124   1.125   4.654  0.3533  0.4846 -0.2792
 3040TIP3   OH230610   1.781   2.454  17.228 -0.4399  0.3637 -0.1223
 3040TIP3    H130611   1.857   2.426  17.278  0.0940  0.7350 -0.7077
 3040TIP3    H230612   1.709   2.400  17.261  0.2636 -0.6585 -0.2194
 3041TIP3   OH230613   5.974   4.154   5.690  0.2038 -0.2653 -0.0863
 3041TIP3    H130614   5.899   4.097   5.712 -0.4271  1.4574  2.7072
 3041TIP3    H230615   5.934   4.227   5.643  0.5750 -0.6447 -1.0082
 3042TIP3   OH230616   2.357   4.729  15.043  0.1489  0.1635 -0.2968
 3042TIP3    H130617   2.375   4.804  15.099 -2.9425  0.9261 -0.1558
 3042TIP3    H230618   2.410   4.744  14.965  1.7652  0.9471  0.9034
 3043TIP3   OH230619   1.671   3.787  11.114  0.6256  0.1421  0.4405
 3043TIP3    H130620   1.592   3.823  11.075 -0.3757  0.4668  2.6055
 3043TIP3    H230621   1.676   3.697  11.081 -0.4558  0.2422 -0.0177
 3044TIP3   OH230622   0.717   5.246   6.130  0.4943 -0.2369 -0.3601
 3044TIP3    H130623   0.712   5.246   6.226  0.2328  0.6607 -0.3609
 3044TIP3    H230624   0.689   5.158   6.104 -1.5703  0.1777  0.3043
 3045TIP3   OH230625   6.621   5.700  16.469 -0.8020  0.2324 -0.2560
 3045TIP3    H130626   6.660   5.761  16.407  0.9178 -1.3731 -0.8523
 3045TIP3    H230627   6.690   5.683  16.533 -0.8749 -1.7725 -0.6533
 3046TIP3   OH230628   4.169   1.619   5.815 -0.0614 -0.0314 -0.2967
 3046TIP3    H130629   4.134   1.700   5.852  2.1629  1.2069 -0.7316
 3046TIP3    H230630   4.147   1.624   5.722  0.8553  0.5533 -0.4956
 3047TIP3   OH230631   2.869   6.498  11.827  0.4747  0.4767 -0.0155
 3047TIP3    H130632   2.916   6.423  11.791  0.2958  0.0154  0.6944
 3047TIP3    H230633   2.881   6.491  11.921 -1.9642 -0.3249  0.3048
 3048TIP3   OH230634   5.100   3.288  16.106  0.9711 -0.6390  0.5929
 3048TIP3    H130635   5.129   3.345  16.035  4.6124  0.1075  2.4777
 3048TIP3    H230636   5.017   3.252  16.075  0.4984  2.5301 -2.3873
 3049TIP3   OH230637   5.398   5.109  12.212 -0.0583 -0.0709  0.0997
 3049TIP3    H130638   5.323   5.110  12.272  1.2867  0.2263  1.8626
 3049TIP3    H230639   5.403   5.018  12.182 -1.2629 -0.0350 -0.2735
 3050TIP3   OH230640   0.479   4.302   5.558  0.0505 -0.1091 -0.1988
 3050TIP3    H130641   0.481   4.240   5.631 -0.5842  0.7722  0.5843
 3050TIP3    H230642   0.476   4.246   5.480 -0.6019 -1.0703  0.4874
 3051TIP3   OH230643   4.991   2.493   3.470 -0.0737 -0.4022  0.7040
 3051TIP3    H130644   4.933   2.426   3.435 -1.0134  1.0910 -0.6935
 3051TIP3    H230645   5.071   2.485   3.417 -1.4364  1.7586 -1.8971
 3052TIP3   OH230646   1.498   4.779   6.219 -0.6309 -0.1423 -0.4476
 3052TIP3    H130647   1.477   4.723   6.144  1.4053 -0.9143 -0.4991
 3052TIP3    H230648   1.431   4.756   6.285 -2.0345  0.0687 -1.7353
 3053TIP3   OH230649   5.603   2.189  13.168 -0.3490 -0.4873 -0.0329
 3053TIP3    H130650   5.678   2.194  13.227 -1.9871  0.9345  2.0738
 3053TIP3    H230651   5.640   2.197  13.080  1.9697 -0.2651  0.9162
 3054TIP3   OH230652   4.849   2.946  14.557 -0.6284  0.6217  0.0244
 3054TIP3    H130653   4.799   2.882  14.608 -1.3813  2.1116  1.2459
 3054TIP3    H230654   4.906   2.893  14.501  0.0208 -1.0995  2.1819
 3055TIP3   OH230655   1.728   4.982  17.174 -0.3639 -0.1310 -0.2800
 3055TIP3    H130656   1.641   4.943  17.175  0.3486 -1.8163  1.8022
 3055TIP3    H230657   1.718   5.064  17.222 -0.5651 -0.9992  1.2159
 3056TIP3   OH230658   4.064   5.417   6.035  0.6216  0.0431  0.2478
 3056TIP3    H130659   3.988   5.474   6.022  1.6090  1.9316  2.1579
 3056TIP3    H230660   4.085   5.425   6.128  2.2732 -1.6126  0.0875
 3057TIP3   OH230661   4.858   0.081   4.287  0.1570  0.8233  0.2713
 3057TIP3    H130662   4.851   0.018   4.215 -2.9540  1.4935 -0.1207
 3057TIP3    H230663   4.919   0.040   4.349 -1.8692 -2.7206  0.1549
 3058TIP3   OH230664   1.490   6.537  11.852  0.0120 -0.1719 -0.2093
 3058TIP3    H130665   1.472   6.563  11.762  0.6056 -1.1444 -0.6313
 3058TIP3    H230666   1.430   6.589  11.905  1.4705  2.4059 -0.9209
 3059TIP3   OH230667   4.903   5.165  13.584  0.8826 -0.1289 -0.4210
 3059TIP3    H130668   4.865   5.172  13.672  0.5013 -3.3106 -0.1969
 3059TIP3    H230669   4.863   5.236  13.535 -3.7324 -1.8104  0.4314
 3060TIP3   OH230670   6.296   3.451  14.262  0.1993  0.6767 -0.0374
 3060TIP3    H130671   6.243   3.455  14.183  1.8253  0.8386 -1.1564
 3060TIP3    H230672   6.383   3.426  14.232  0.4828 -0.9800  1.8897
 3061TIP3   OH230673   1.192   0.076   2.269  0.0261 -0.5360 -1.0829
 3061TIP3    H130674   1.261   0.028   2.222  0.8554 -0.5201  0.0756
 3061TIP3    H230675   1.208   0.056   2.361 -0.6321  0.6531 -0.6948
 3062TIP3   OH230676   1.996   4.041   3.553 -0.0358 -0.1025 -0.2389
 3062TIP3    H130677   2.090   4.032   3.572 -0.4767 -2.7050  1.2531
 3062TIP3    H230678   1.978   4.133   3.568  2.3998  0.6487 -1.3231
 3063TIP3   OH230679   0.982   2.653  15.602 -0.5580  0.3912  0.6597
 3063TIP3    H130680   1.069   2.648  15.642  0.1287 -2.1136 -0.9173
 3063TIP3    H230681   0.973   2.745  15.577  1.5425  0.7724  1.0642
 3064TIP3   OH230682   5.939   1.969   4.441 -0.1676  0.3461  0.4440
 3064TIP3    H130683   5.951   1.953   4.535  1.8708 -0.9639  0.0454
 3064TIP3    H230684   5.854   1.931   4.420 -0.2399 -0.1675  1.6033
 3065TIP3   OH230685   1.438   4.326   5.783  0.1466 -0.5770  0.3478
 3065TIP3    H130686   1.416   4.237   5.810 -0.3065 -0.6087 -0.1213
 3065TIP3    H230687   1.371   4.381   5.824  0.5389 -0.4169  0.8021
 3066TIP3   OH230688   4.663   4.948   0.891  0.1633 -0.4765 -0.7047
 3066TIP3    H130689   4.594   4.890   0.925  1.4740 -1.3275  0.6803
 3066TIP3    H230690   4.619   5.032   0.877 -0.7930 -0.3785  2.1281
 3067TIP3   OH230691   3.894   0.756  11.468 -0.4243  0.3225  0.1287
 3067TIP3    H130692   3.919   0.786  11.381  1.6989 -1.2780  0.1070
 3067TIP3    H230693   3.845   0.676  11.454 -0.6168  0.3890  0.3961
 3068TIP3   OH230694   2.827   3.879   5.809  0.4476 -0.2465 -0.3678
 3068TIP3    H130695   2.816   3.811   5.743  0.7271 -0.3972 -0.2596
 3068TIP3    H230696   2.820   3.833   5.892 -1.4821  0.1589 -0.2470
 3069TIP3   OH230697   6.449   4.432   1.013  0.3326 -0.7033 -0.0389
 3069TIP3    H130698   6.410   4.359   0.964  0.6590 -1.2325  0.4648
 3069TIP3    H230699   6.426   4.414   1.105  0.2757 -0.0776  0.0743
 3070TIP3   OH230700   0.453   3.655  17.430  0.7473 -0.0264  0.2492
 3070TIP3    H130701   0.510   3.709  17.374  1.8108 -0.0509  1.2792
 3070TIP3    H230702   0.435   3.577  17.377  0.4903  0.6219 -0.6446
 3071TIP3   OH230703   1.017   2.900  11.202  0.1211  0.4897 -0.2150
 3071TIP3    H130704   1.033   2.817  11.246  1.1952  0.0439 -1.3997
 3071TIP3    H230705   1.052   2.966  11.261  0.2304  0.0250  0.2451
 3072TIP3   OH230706   1.431   3.487  16.183 -1.1332 -0.2940 -0.3812
 3072TIP3    H130707   1.388   3.496  16.098 -0.7487  0.7588 -0.4710
 3072TIP3    H230708   1.500   3.423  16.169 -1.5016 -0.6319 -0.6809
 3073TIP3   OH230709   3.586   2.444   6.062  0.3003 -0.1841  0.3647
 3073TIP3    H130710   3.582   2.525   6.011  0.8681 -0.4462 -0.1196
 3073TIP3    H230711   3.627   2.381   6.002  1.9323 -0.2353  1.4981
 3074TIP3   OH230712   3.406   5.970  11.633  0.1355  0.6642  0.5086
 3074TIP3    H130713   3.330   5.953  11.688 -0.3888 -0.5192 -0.5279
 3074TIP3    H230714   3.392   5.915  11.556  1.2979  1.5798 -0.3856
 3075TIP3   OH230715   1.790   3.297   5.463  0.1134 -0.0181 -0.5292
 3075TIP3    H130716   1.747   3.311   5.548  1.7411 -0.5677  0.4294
 3075TIP3    H230717   1.740   3.351   5.402 -0.1260  1.6750  1.0775
 3076TIP3   OH230718   6.671   3.731   1.392  0.5942 -0.4315  1.1325
 3076TIP3    H130719   6.676   3.749   1.298  0.1764 -1.9022  0.8080
 3076TIP3    H230720   6.589   3.772   1.420  0.4534 -0.4420  0.7423
 3077TIP3   OH230721   2.230   1.356  15.601 -0.9295  0.6885 -0.1270
 3077TIP3    H130722   2.237   1.260  15.601 -0.6844  0.6737 -1.8293
 3077TIP3    H230723   2.237   1.380  15.509 -0.5420  2.3928  0.3235
 3078TIP3   OH230724   0.620   1.219   3.531 -0.4122 -0.1293  0.3267
 3078TIP3    H130725   0.712   1.210   3.555 -0.2018 -0.0355 -0.3977
 3078TIP3    H230726   0.581   1.272   3.600  0.3240  0.7327  0.1005
 3079TIP3   OH230727   2.608   0.682   0.349 -0.0775 -0.1637  0.0107
 3079TIP3    H130728   2.612   0.598   0.396  1.2989 -0.1389 -0.0286
 3079TIP3    H230729   2.514   0.698   0.337 -0.4406 -0.6867  1.8276
 3080TIP3   OH230730   6.137   2.265   1.460  0.2238  0.1745 -0.2597
 3080TIP3    H130731   6.045   2.274   1.436 -0.2706  1.6117  1.9365
 3080TIP3    H230732   6.183   2.327   1.404 -0.1089 -0.5521 -1.3720
 3081TIP3   OH230733   4.481   3.794  16.773  0.0849  0.1569  0.1925
 3081TIP3    H130734   4.418   3.817  16.841 -0.0762 -1.0764  0.4866
 3081TIP3    H230735   4.431   3.740  16.711  0.7227 -0.4037  0.1569
 3082TIP3   OH230736   1.589   3.461  16.481  0.2134  0.2622  0.0178
 3082TIP3    H130737   1.584   3.547  16.524 -0.2111  0.8478 -1.1645
 3082TIP3    H230738   1.512   3.414  16.511 -0.4548  0.9251 -0.6209
 3083TIP3   OH230739   1.006   5.567  11.842  0.0214 -0.0183 -0.4842
 3083TIP3    H130740   1.029   5.638  11.902 -1.4363  0.0803  0.0030
 3083TIP3    H230741   0.961   5.611  11.770 -1.3508 -0.4523  0.0677
 3084TIP3   OH230742   5.561   3.735   4.054 -0.0827 -0.4256  0.1146
 3084TIP3    H130743   5.483   3.791   4.062 -1.4796 -1.8781 -2.2153
 3084TIP3    H230744   5.607   3.769   3.978 -0.0264 -1.3534 -0.2774
 3085TIP3   OH230745   3.488   2.089   5.859  0.0447  0.5373  0.2956
 3085TIP3    H130746   3.404   2.124   5.890 -0.8449 -0.6477 -0.6726
 3085TIP3    H230747   3.474   1.995   5.854  1.4221  0.3219  0.0061
 3086TIP3   OH230748   0.462   2.836   0.349  0.2866 -0.2062  0.3236
 3086TIP3    H130749   0.511   2.780   0.288 -1.5451 -1.7467  0.1645
 3086TIP3    H230750   0.434   2.910   0.295 -1.1448 -1.4537 -0.7533
 3087TIP3   OH230751   4.291   3.078  14.156 -0.0605  0.1048 -0.5839
 3087TIP3    H130752   4.327   3.154  14.109  0.6807 -1.0115 -1.8872
 3087TIP3    H230753   4.228   3.040  14.096 -0.9152  0.0474  0.3309
 3088TIP3   OH230754   1.611   6.362   3.349  0.4695  0.4137  0.3590
 3088TIP3    H130755   1.542   6.418   3.314 -0.1143 -0.6836 -0.3262
 3088TIP3    H230756   1.564   6.287   3.386  1.2467  0.1424  0.8156
 3089TIP3   OH230757   1.081   6.480  12.471  0.1390  0.1959  0.7186
 3089TIP3    H130758   1.133   6.436  12.404 -0.7499  0.3119 -0.0784
 3089TIP3    H230759   0.990   6.458  12.448 -0.1779  0.2173  1.9026
 3090TIP3   OH230760   3.645   0.261   5.823  0.1926  0.1239  0.2844
 3090TIP3    H130761   3.713   0.299   5.768  0.9082 -0.4694  0.7339
 3090TIP3    H230762   3.571   0.320   5.814  0.9953  1.1798  0.3348
 3091TIP3   OH230763   3.991   5.827   5.207 -0.4817  0.1900  0.2303
 3091TIP3    H130764   4.056   5.823   5.276 -0.9553 -0.9998  0.6261
 3091TIP3    H230765   4.002   5.914   5.168  0.7755  0.3090  0.8239
 3092TIP3   OH230766   3.648   5.465   5.148 -0.2901  0.0701  0.2169
 3092TIP3    H130767   3.681   5.397   5.090 -2.2836  0.8696 -2.0404
 3092TIP3    H230768   3.713   5.535   5.143 -0.2275 -0.0460 -0.7621
 3093TIP3   OH230769   2.174   2.172  12.183  0.3018  0.0030  0.4195
 3093TIP3    H130770   2.205   2.198  12.096 -0.4970  0.5015  0.2761
 3093TIP3    H230771   2.246   2.194  12.241  1.0387 -0.7695 -0.1642
 3094TIP3   OH230772   5.994   0.903  10.759 -0.0786 -0.0088 -0.3757
 3094TIP3    H130773   5.978   0.900  10.665  1.3565  0.1603 -0.6452
 3094TIP3    H230774   5.922   0.852  10.797 -1.2278  0.7451 -1.4766
 3095TIP3   OH230775   3.529   0.902   2.139  0.4817  0.1085  0.0371
 3095TIP3    H130776   3.449   0.851   2.148 -1.7517  2.6887 -2.8495
 3095TIP3    H230777   3.556   0.889   2.049  0.8203  2.5290 -0.2794
 3096TIP3   OH230778   0.727   2.660  17.473  0.0198 -0.5219 -0.1646
 3096TIP3    H130779   0.779   2.739  17.486  1.6431 -1.6972  0.9346
 3096TIP3    H230780   0.752   2.628  17.386  1.8914 -1.5309  0.6792
 3097TIP3   OH230781   4.421   1.253   3.227 -0.0460  0.2623  0.3928
 3097TIP3    H130782   4.360   1.196   3.179  0.0022  1.3412 -1.0078
 3097TIP3    H230783   4.378   1.339   3.226  1.3989  1.0137 -0.5055
 3098TIP3   OH230784   1.256   3.442   5.785 -0.3960  0.2383 -0.8939
 3098TIP3    H130785   1.218   3.446   5.698  1.0756  0.0880 -1.5703
 3098TIP3    H230786   1.238   3.528   5.823  0.5275  0.9747 -2.0483
 3099TIP3   OH230787   5.921   4.938   6.370  0.4609  0.2516 -0.1596
 3099TIP3    H130788   5.998   4.959   6.317 -0.4119  2.7024 -0.6139
 3099TIP3    H230789   5.921   5.005   6.439 -2.1046  1.4220 -1.1564
 3100TIP3   OH230790   2.776   5.917  15.939 -0.1389 -0.0945 -0.3582
 3100TIP3    H130791   2.783   5.884  15.849  0.1936 -2.2500  0.3900
 3100TIP3    H230792   2.750   6.008  15.929  1.6461  0.2620 -2.6660
 3101TIP3   OH230793   4.575   1.578   0.840  1.1752 -0.5952  0.6256
 3101TIP3    H130794   4.545   1.657   0.885 -1.4190 -0.4043 -1.1761
 3101TIP3    H230795   4.605   1.610   0.754  1.0291 -1.4634  0.2431
 3102TIP3   OH230796   6.137   0.764   2.618 -0.8009 -0.2719  1.1007
 3102TIP3    H130797   6.186   0.684   2.634 -0.5752 -0.5458 -0.7897
 3102TIP3    H230798   6.187   0.832   2.665 -0.8107 -1.1408  2.4294
 3103TIP3   OH230799   3.079   2.356   1.428  0.2213 -0.0376 -0.1225
 3103TIP3    H130800   3.133   2.416   1.480 -0.0209  0.2675 -0.2166
 3103TIP3    H230801   2.989   2.378   1.453  0.0109  1.2001 -1.7863
 3104TIP3   OH230802   0.374   5.270  15.737 -0.2927  0.4803  1.0457
 3104TIP3    H130803   0.379   5.335  15.667  0.2190 -0.2432  0.3859
 3104TIP3    H230804   0.463   5.234  15.742 -1.0387 -1.6636 -0.0718
 3105TIP3   OH230805   1.731   3.743   5.064  0.1818  0.0013  0.5368
 3105TIP3    H130806   1.712   3.819   5.119  0.5125  0.0146  0.6307
 3105TIP3    H230807   1.818   3.759   5.029  0.0798 -0.1314  0.2126
 3106TIP3   OH230808   3.277   5.255   2.788  0.2390 -0.0636 -0.0845
 3106TIP3    H130809   3.300   5.271   2.880  2.4931  1.5350 -0.8665
 3106TIP3    H230810   3.224   5.331   2.763  1.7861  0.8437 -0.7617
 3107TIP3   OH230811   2.720   1.798   0.391 -0.3827  0.4198  0.1269
 3107TIP3    H130812   2.686   1.878   0.431  1.7563  2.0683 -1.1522
 3107TIP3    H230813   2.814   1.811   0.388 -0.2071 -0.9405 -2.6498
 3108TIP3   OH230814   1.720   5.876  12.535 -0.5504 -0.3069  0.1056
 3108TIP3    H130815   1.765   5.930  12.600 -0.2480 -1.5074  0.9149
 3108TIP3    H230816   1.629   5.904  12.540 -1.0764 -2.1287  2.9754
 3109TIP3   OH230817   1.230   4.494   5.840 -0.3879 -0.1406 -0.8409
 3109TIP3    H130818   1.204   4.536   5.758  0.1478  0.9161 -0.4876
 3109TIP3    H230819   1.223   4.564   5.905  1.8191 -0.2151 -0.4655
 3110TIP3   OH230820   0.437   0.217   5.344 -0.0498  0.1231  0.3266
 3110TIP3    H130821   0.465   0.295   5.392  0.2845  0.5474 -0.5306
 3110TIP3    H230822   0.491   0.146   5.378 -0.0348  0.3501  0.7851
 3111TIP3   OH230823   5.828   3.757   4.183  0.0418  0.1500 -0.2731
 3111TIP3    H130824   5.740   3.779   4.154 -0.1142  0.7466  0.5967
 3111TIP3    H230825   5.816   3.712   4.266  0.5539  0.1676 -0.1855
 3112TIP3   OH230826   5.281   5.112  10.670 -0.2847 -0.0298 -0.0525
 3112TIP3    H130827   5.288   5.204  10.644 -3.4363  0.8797  1.6939
 3112TIP3    H230828   5.223   5.072  10.605  0.6663 -0.6526 -0.5236
 3113TIP3   OH230829   1.454   6.134   3.458  0.1171  0.4269 -0.6115
 3113TIP3    H130830   1.501   6.059   3.420  0.4385  0.7218 -0.8059
 3113TIP3    H230831   1.362   6.113   3.447  0.1969 -0.1848 -0.1864
 3114TIP3   OH230832   1.290   3.144   4.282  0.3756  0.2095  0.5673
 3114TIP3    H130833   1.236   3.217   4.253  1.8210  0.7258 -0.9980
 3114TIP3    H230834   1.375   3.183   4.301  0.7937 -0.8630  0.9847
 3115TIP3   OH230835   5.291   6.188   4.432 -0.1100 -0.0492  0.3341
 3115TIP3    H130836   5.260   6.098   4.440 -2.2993  0.5844 -0.3821
 3115TIP3    H230837   5.376   6.188   4.476 -0.0997 -2.4272  0.4233
 3116TIP3   OH230838   2.064   1.739   0.109 -0.2714  0.2785  0.4489
 3116TIP3    H130839   2.133   1.804   0.123  0.7973 -0.1855 -2.0583
 3116TIP3    H230840   2.111   1.657   0.095 -1.4088 -0.3110 -0.0139
 3117TIP3   OH230841   4.762   4.416   3.134 -0.0691 -0.5701  0.2650
 3117TIP3    H130842   4.766   4.397   3.228 -0.5967 -0.8829  0.2291
 3117TIP3    H230843   4.800   4.503   3.125 -1.5229  0.1666  0.9786
 3118TIP3   OH230844   3.457   3.899  15.226  0.2260 -0.3530  0.0267
 3118TIP3    H130845   3.522   3.948  15.176 -0.2762  0.0137 -0.2791
 3118TIP3    H230846   3.508   3.847  15.287  0.7677  1.0985  0.8699
 3119TIP3   OH230847   5.960   1.100  16.921  0.2771  0.1896  0.0643
 3119TIP3    H130848   5.901   1.026  16.933  2.0895 -0.9719  2.7217
 3119TIP3    H230849   6.005   1.081  16.838  1.3385 -2.2193  1.1136
 3120TIP3   OH230850   4.600   0.612  13.857 -0.0991 -0.2591 -0.2042
 3120TIP3    H130851   4.659   0.559  13.911 -1.3925 -1.7522 -0.2008
 3120TIP3    H230852   4.631   0.702  13.870  1.6818 -0.9083  0.3867
 3121TIP3   OH230853   6.128   3.742   1.008  0.3482 -0.1794  0.6763
 3121TIP3    H130854   6.059   3.689   1.048  0.3770  0.3689  1.4902
 3121TIP3    H230855   6.131   3.713   0.916 -0.8879 -0.2936  0.6528
 3122TIP3   OH230856   6.692   4.705   4.399 -0.2851  0.7625  0.3085
 3122TIP3    H130857   6.747   4.628   4.409 -0.0580  0.8966  0.1007
 3122TIP3    H230858   6.668   4.729   4.489  0.3900  0.9807  0.4401
 3123TIP3   OH230859   1.857   1.897   4.545 -0.0607 -0.0423 -0.1823
 3123TIP3    H130860   1.771   1.930   4.573  0.5685  0.2769  1.5019
 3123TIP3    H230861   1.851   1.802   4.556 -0.0708  0.0171  0.3655
 3124TIP3   OH230862   6.667   6.620   4.864  0.6258  0.0718 -0.5744
 3124TIP3    H130863   6.754   6.638   4.902  0.9207 -0.7051 -0.8741
 3124TIP3    H230864   6.676   6.534   4.823 -0.4504 -0.2683 -0.1233
 3125TIP3   OH230865   2.366   5.960   0.987 -0.0221 -0.1850  0.2033
 3125TIP3    H130866   2.320   6.035   1.024 -1.9787 -1.1353 -0.1592
 3125TIP3    H230867   2.384   5.903   1.062  0.0552 -0.0614  0.2775
 3126TIP3   OH230868   5.120   4.355   0.836 -0.6043  0.4579  0.1948
 3126TIP3    H130869   5.155   4.267   0.853 -0.4584  0.7088  1.3044
 3126TIP3    H230870   5.070   4.376   0.915  0.0050  1.6719  0.2764
 3127TIP3   OH230871   6.677   2.418  13.734 -0.6141  0.4092 -0.4663
 3127TIP3    H130872   6.707   2.403  13.644 -0.5987 -0.5083 -0.3258
 3127TIP3    H230873   6.752   2.392  13.789 -1.3338 -1.1205 -0.1373
 3128TIP3   OH230874   3.689   0.987   5.136 -0.1967  0.2615 -0.7215
 3128TIP3    H130875   3.633   1.014   5.063  0.3284 -0.0789 -1.2554
 3128TIP3    H230876   3.709   1.068   5.183 -0.1471  0.5470 -1.2345
 3129TIP3   OH230877   5.194   4.819  13.560 -0.1702  0.2670 -0.1687
 3129TIP3    H130878   5.239   4.794  13.640 -0.3658  0.9277  0.1578
 3129TIP3    H230879   5.215   4.911  13.548 -0.8079  0.3848 -0.4301
 3130TIP3   OH230880   3.411   4.353  12.586 -0.0239 -0.3256 -0.5551
 3130TIP3    H130881   3.480   4.367  12.521 -0.0855  0.3653 -0.4800
 3130TIP3    H230882   3.335   4.326  12.535  0.2060 -0.7723 -0.6692
 3131TIP3   OH230883   1.899   2.033  13.458  0.0271  0.4537 -0.1276
 3131TIP3    H130884   1.878   1.967  13.525  0.9223  0.8342  0.5396
 3131TIP3    H230885   1.925   1.981  13.382  0.6852  0.0172  0.3774
 3132TIP3   OH230886   0.080   3.777   3.724 -0.2089  0.3341  0.0309
 3132TIP3    H130887  -0.004   3.776   3.677 -0.6136  1.8532  0.6768
 3132TIP3    H230888   0.142   3.814   3.661  0.1928 -1.4965 -0.7195
 3133TIP3   OH230889   4.440   0.296   4.923 -0.0027  0.2337 -0.3029
 3133TIP3    H130890   4.435   0.260   5.012 -1.7902  1.8656  0.3167
 3133TIP3    H230891   4.515   0.251   4.884 -0.1310 -1.6987  1.4814
 3134TIP3   OH230892   3.505   5.476   2.719 -0.1993 -0.1220  0.5111
 3134TIP3    H130893   3.563   5.414   2.763 -0.3185 -0.9586 -0.4663
 3134TIP3    H230894   3.461   5.424   2.652  0.8961  1.3323 -1.4584
 3135TIP3   OH230895   1.598   1.876   1.589  0.0432  0.4371 -0.0837
 3135TIP3    H130896   1.664   1.864   1.656 -1.5123  3.4440  2.2298
 3135TIP3    H230897   1.628   1.951   1.538 -1.2745  1.5399  0.6992
 3136TIP3   OH230898   0.489   5.675  11.376  0.1599 -0.4011 -0.1508
 3136TIP3    H130899   0.408   5.666  11.325 -0.2212 -0.6200  0.4811
 3136TIP3    H230900   0.490   5.766  11.403 -0.4590 -0.6527  0.7759
 3137TIP3   OH230901   1.157   4.901   3.085  0.5988  1.0256  0.1027
 3137TIP3    H130902   1.238   4.951   3.092  1.4565 -0.3364  0.3843
 3137TIP3    H230903   1.181   4.824   3.033 -0.4095  0.3835  0.5561
 3138TIP3   OH230904   3.230   5.741   0.861  0.2459 -0.0788 -0.3531
 3138TIP3    H130905   3.188   5.821   0.894  0.5724 -0.2135  0.4111
 3138TIP3    H230906   3.196   5.671   0.917  0.0683 -0.4675 -0.9310
 3139TIP3   OH230907   4.952   0.144   2.125 -0.0726  0.1309 -0.3397
 3139TIP3    H130908   4.950   0.068   2.067 -1.4757  1.4918 -2.1912
 3139TIP3    H230909   4.977   0.108   2.210  1.1560 -2.0911 -1.5473
 3140TIP3   OH230910   4.026   0.992  14.654 -0.0826  0.5743 -0.9180
 3140TIP3    H130911   4.109   0.948  14.634 -0.2300 -0.9564  1.4676
 3140TIP3    H230912   4.049   1.057  14.721 -1.1808 -2.3284  2.5719
 3141TIP3   OH230913   0.432   2.137  15.750 -0.2577  0.4078 -0.7157
 3141TIP3    H130914   0.401   2.219  15.790 -2.5607  0.3119 -2.1295
 3141TIP3    H230915   0.412   2.070  15.816  1.4500  0.8965  0.3624
 3142TIP3   OH230916   5.817   1.438   5.977 -0.0966 -0.1736 -0.2397
 3142TIP3    H130917   5.904   1.411   6.007  0.4880 -0.0136 -1.7345
 3142TIP3    H230918   5.832   1.516   5.924 -1.4032  1.1472  1.1927
 3143TIP3   OH230919   3.529   0.820  14.246  0.6405  0.5548  0.1536
 3143TIP3    H130920   3.519   0.876  14.324  4.1408  0.5301  0.7830
 3143TIP3    H230921   3.602   0.858  14.199  0.2603 -0.9831 -1.7876
 3144TIP3   OH230922   2.712   3.306  12.083  0.5146 -0.3451 -0.6905
 3144TIP3    H130923   2.717   3.220  12.126  0.1799  0.0611  0.1878
 3144TIP3    H230924   2.669   3.288  11.999  0.0845 -0.9828 -0.3420
 3145TIP3   OH230925   5.871   5.891  12.723  0.0239 -1.2027  0.2679
 3145TIP3    H130926   5.777   5.902  12.711  0.2431  0.0866 -0.4538
 3145TIP3    H230927   5.895   5.954  12.790  0.8914  1.0660 -2.0212
 3146TIP3   OH230928   6.562   3.391   4.405 -0.3166  0.1925  0.4588
 3146TIP3    H130929   6.649   3.352   4.404 -0.5055 -0.3203  1.9322
 3146TIP3    H230930   6.572   3.470   4.459 -1.4193 -1.7009  3.7284
 3147TIP3   OH230931   3.204   2.626   4.652 -0.0472  0.4142 -0.0722
 3147TIP3    H130932   3.172   2.538   4.632 -0.5271  0.9484 -1.9026
 3147TIP3    H230933   3.201   2.632   4.747 -1.9567 -0.8366 -0.0030
 3148TIP3   OH230934   2.865   3.057  13.037 -0.6582 -0.0915 -0.3827
 3148TIP3    H130935   2.839   3.068  13.129  0.2024  1.4555 -0.2876
 3148TIP3    H230936   2.890   2.964  13.031 -0.7624 -0.2384  0.9417
 3149TIP3   OH230937   2.529   0.803  11.892  0.0430 -0.6451 -0.5155
 3149TIP3    H130938   2.459   0.739  11.907  1.4822 -1.8271  1.9097
 3149TIP3    H230939   2.609   0.753  11.907  1.6525  0.1813 -4.8788
 3150TIP3   OH230940   2.205   6.109  14.569 -0.1549 -0.5567 -0.2023
 3150TIP3    H130941   2.297   6.129  14.548 -0.1671  0.6794  0.8590
 3150TIP3    H230942   2.155   6.180  14.530 -0.5556 -0.5765  0.2698
 3151TIP3   OH230943   4.706   4.664   4.964 -0.0685  0.2781 -0.0731
 3151TIP3    H130944   4.768   4.616   4.910 -1.1381 -0.2568 -0.8709
 3151TIP3    H230945   4.758   4.698   5.036  0.6723 -2.4093  0.7664
 3152TIP3   OH230946   1.730   5.823  17.052  0.0335 -0.2803 -0.1035
 3152TIP3    H130947   1.792   5.895  17.045  1.5856 -1.7018 -3.4836
 3152TIP3    H230948   1.746   5.786  17.139  3.4674 -0.0728 -0.5010
 3153TIP3   OH230949   1.400   6.122   4.246 -0.6449  0.4486  0.3537
 3153TIP3    H130950   1.489   6.154   4.229 -0.6213  0.2316  0.0745
 3153TIP3    H230951   1.394   6.119   4.342 -0.4917  0.8546  0.3785
 3154TIP3   OH230952   5.086   5.105  15.647  0.3391  0.2800 -0.8024
 3154TIP3    H130953   5.000   5.085  15.684  0.4527 -2.7185 -1.8856
 3154TIP3    H230954   5.147   5.085  15.718  0.3886 -3.0008 -1.5975
 3155TIP3   OH230955   1.531   5.994  14.000 -0.5893  0.1688 -0.4219
 3155TIP3    H130956   1.577   5.963  14.077  3.5264  1.9258 -1.9163
 3155TIP3    H230957   1.519   5.916  13.946  1.4754 -0.2857 -0.3053
 3156TIP3   OH230958   6.032   0.162  11.722  0.3648  0.4937  0.1054
 3156TIP3    H130959   6.034   0.216  11.643 -3.6946 -1.0690 -1.3664
 3156TIP3    H230960   5.989   0.218  11.788  1.3265  0.9028  0.3975
 3157TIP3   OH230961   3.904   2.813   0.363  0.4884 -0.3959 -0.7000
 3157TIP3    H130962   3.952   2.770   0.433  3.4628 -1.0455 -2.9467
 3157TIP3    H230963   3.934   2.770   0.282 -0.2696  2.3948 -2.6449
 3158TIP3   OH230964   1.685   6.719  11.660 -0.3158 -0.0351 -0.0996
 3158TIP3    H130965   1.779   6.733  11.673  0.4055 -1.0386 -3.1976
 3158TIP3    H230966   1.655   6.798  11.615 -0.5712 -0.3762 -0.5376
 3159TIP3   OH230967   3.701   0.999   4.700  0.0696 -0.2076  0.4356
 3159TIP3    H130968   3.663   1.020   4.785 -0.3914  0.0384  0.1688
 3159TIP3    H230969   3.789   0.967   4.720  0.3622  0.8749  0.9278
 3160TIP3   OH230970   4.092   2.217   6.060 -0.5354 -0.0657 -0.6220
 3160TIP3    H130971   4.164   2.166   6.022 -0.7755  0.0697 -1.2737
 3160TIP3    H230972   4.099   2.202   6.154 -0.0845 -0.6210 -0.7387
 3161TIP3   OH230973   4.131   1.459  12.031 -0.2137 -0.0157  0.6134
 3161TIP3    H130974   4.183   1.423  11.959 -1.5335  1.3484 -1.1253
 3161TIP3    H230975   4.076   1.387  12.060 -0.5682 -0.2837 -0.6597
 3162TIP3   OH230976   2.278   1.474   3.447  0.2875 -0.2460 -0.0036
 3162TIP3    H130977   2.364   1.505   3.421  0.6129 -2.0508 -1.2566
 3162TIP3    H230978   2.271   1.497   3.540  2.3340 -0.5234  0.2593
 3163TIP3   OH230979   3.435   4.824  16.138 -0.5144  0.2616  0.0030
 3163TIP3    H130980   3.435   4.755  16.072 -0.5442 -0.3149  0.5924
 3163TIP3    H230981   3.503   4.885  16.110  0.7252 -0.9001  0.3732
 3164TIP3   OH230982   2.984   4.489  16.507  0.2327  0.0742 -0.1404
 3164TIP3    H130983   3.024   4.573  16.529  1.2521 -0.5687  0.5517
 3164TIP3    H230984   2.893   4.510  16.486  0.6881  1.4537 -0.8416
 3165TIP3   OH230985   1.234   6.096  12.304 -0.0221  0.2546 -0.4803
 3165TIP3    H130986   1.258   6.005  12.284 -2.4379 -0.4618 -0.3982
 3165TIP3    H230987   1.147   6.107  12.266 -0.7830  1.7934  1.5628
 3166TIP3   OH230988   4.055   1.909  12.309 -0.0439  0.4822 -0.1330
 3166TIP3    H130989   4.108   1.972  12.358  0.0167  0.8558 -0.6637
 3166TIP3    H230990   4.110   1.831  12.303 -0.1303  0.3676  0.5542
 3167TIP3   OH230991   6.046   5.727  12.177 -0.0582  0.2949 -0.1562
 3167TIP3    H130992   6.108   5.796  12.201 -0.4493  0.1672  1.3404
 3167TIP3    H230993   5.984   5.725  12.250  1.6965 -3.7508  1.5181
 3168TIP3   OH230994   1.020   0.225   4.627 -0.6907 -0.1361 -0.2705
 3168TIP3    H130995   1.074   0.247   4.703 -1.0615  2.6947 -0.7007
 3168TIP3    H230996   0.930   0.234   4.659 -0.8739  2.3348 -1.2169
 3169TIP3   OH230997   6.479   4.084   3.976  0.4654  0.2957 -0.3966
 3169TIP3    H130998   6.482   4.005   3.921 -0.5611  1.2377 -1.8566
 3169TIP3    H230999   6.530   4.149   3.927 -1.3491  1.4715 -0.8059
 3170TIP3   OH231000   1.862   0.331   4.399 -0.7005  0.5635 -0.0131
 3170TIP3    H131001   1.917   0.347   4.476  1.5866  0.6766 -1.5776
 3170TIP3    H231002   1.825   0.244   4.414  0.2552  0.2935  0.9140
 3171TIP3   OH231003   3.104   4.813   3.978  0.7533  0.1377 -0.0079
 3171TIP3    H131004   3.012   4.796   3.959  0.4003  2.2102 -0.3956
 3171TIP3    H231005   3.121   4.764   4.058 -0.3741 -1.1174 -0.4929
 3172TIP3   OH231006   3.250   1.719   6.104 -0.1051  0.5370 -0.1587
 3172TIP3    H131007   3.171   1.721   6.158  0.1968  0.1978  0.3129
 3172TIP3    H231008   3.218   1.719   6.014 -0.6550  0.1411  0.0263
 3173TIP3   OH231009   1.268   3.591  16.574 -0.0196  0.3240 -0.0371
 3173TIP3    H131010   1.175   3.583  16.556 -0.5270  1.4991  1.8085
 3173TIP3    H231011   1.300   3.501  16.573 -0.9125 -0.0204 -1.7451
 3174TIP3   OH231012   5.943   6.200   4.502 -0.0254  0.2772  0.3844
 3174TIP3    H131013   5.906   6.127   4.551 -0.0176  0.3966  0.5674
 3174TIP3    H231014   6.033   6.208   4.534  0.5242 -0.7152 -0.8293
 3175TIP3   OH231015   4.052   0.905  16.758 -0.2101 -0.1462  0.2633
 3175TIP3    H131016   4.037   0.905  16.664  0.5172  1.5479  0.1227
 3175TIP3    H231017   3.976   0.950  16.795  0.1654  0.4166  0.3578
 3176TIP3   OH231018   6.124   4.000  12.334 -0.7817  0.1743 -0.3111
 3176TIP3    H131019   6.219   3.991  12.338 -0.9493 -1.5483  1.1089
 3176TIP3    H231020   6.104   3.996  12.240  0.5797  1.3628 -0.6840
 3177TIP3   OH231021   3.315   4.115  12.973 -0.5176  0.5199 -0.0736
 3177TIP3    H131022   3.372   4.151  12.904  0.0191 -1.0684 -0.5116
 3177TIP3    H231023   3.367   4.124  13.053  0.6057 -1.3041 -0.5332
 3178TIP3   OH231024   0.196   6.305  14.762  0.1836  0.8576  0.8595
 3178TIP3    H131025   0.218   6.393  14.730  0.2984  0.4124 -0.3574
 3178TIP3    H231026   0.279   6.271  14.796  1.1572 -0.1923 -2.2091
 3179TIP3   OH231027   1.709   3.985  11.329 -0.3671 -0.2607  0.1051
 3179TIP3    H131028   1.672   3.948  11.249 -1.6939  0.5256  0.3287
 3179TIP3    H231029   1.792   3.939  11.341 -0.8063 -1.3668 -0.9651
 3180TIP3   OH231030   2.404   1.545  13.073 -0.2796  0.3198 -0.0166
 3180TIP3    H131031   2.339   1.480  13.045  0.9557 -0.4307 -1.3422
 3180TIP3    H231032   2.440   1.578  12.991  0.3731  1.3889  0.6844
 3181TIP3   OH231033   6.308   6.543  16.620 -0.1037 -0.7103  0.0008
 3181TIP3    H131034   6.397   6.509  16.607  1.1515  2.1349  0.3697
 3181TIP3    H231035   6.293   6.534  16.714 -0.7821 -2.4041 -0.2478
 3182TIP3   OH231036   4.364   5.810   0.960  0.7985 -0.1640 -0.0855
 3182TIP3    H131037   4.454   5.819   0.992  1.0663 -0.9174 -0.6123
 3182TIP3    H231038   4.348   5.890   0.909  1.3876 -0.3113 -0.5056
 3183TIP3   OH231039   1.014   2.855   0.578  0.4575 -0.1499 -0.1856
 3183TIP3    H131040   0.976   2.866   0.491 -0.6687  1.9471  0.5225
 3183TIP3    H231041   1.088   2.795   0.564  1.0284  1.0334 -2.7742
 3184TIP3   OH231042   3.821   5.743   1.173  0.1706  0.4204  0.7664
 3184TIP3    H131043   3.799   5.734   1.080 -0.6071  0.2457  0.9560
 3184TIP3    H231044   3.846   5.655   1.201 -0.3884  0.3033  0.9099
 3185TIP3   OH231045   2.297   1.628  13.835 -0.2574  0.3121  0.0951
 3185TIP3    H131046   2.239   1.700  13.811 -0.9740 -0.3156 -0.1182
 3185TIP3    H231047   2.272   1.557  13.776 -2.4001 -1.4605  2.8613
 3186TIP3   OH231048   4.438   1.055   1.561  0.1808 -0.4937  0.3841
 3186TIP3    H131049   4.521   1.068   1.607 -0.4707  0.9216  1.2217
 3186TIP3    H231050   4.464   1.039   1.470  1.4497 -2.6160  1.0560
 3187TIP3   OH231051   5.323   2.304  16.868 -0.3161  0.0505  0.3292
 3187TIP3    H131052   5.318   2.397  16.849  1.1807  0.2833  0.8802
 3187TIP3    H231053   5.370   2.267  16.793 -1.6722 -0.4268 -0.3074
 3188TIP3   OH231054   0.434   4.948  17.380  0.3942 -0.3153  0.7404
 3188TIP3    H131055   0.399   4.999  17.453  1.3596  0.4195  0.7108
 3188TIP3    H231056   0.420   4.857  17.405 -1.1445 -0.0560  0.9005
 3189TIP3   OH231057   1.567   4.133  17.379  0.7370  0.0003  0.2440
 3189TIP3    H131058   1.619   4.098  17.450  0.6710  1.6495  1.1589
 3189TIP3    H231059   1.596   4.085  17.301  2.5378 -0.1687  0.9789
 3190TIP3   OH231060   0.296   1.958   4.255 -0.1021  0.0224 -0.1343
 3190TIP3    H131061   0.242   1.881   4.240  0.6680 -1.0926  2.2472
 3190TIP3    H231062   0.295   1.970   4.350 -1.2903  3.8266 -0.4565
 3191TIP3   OH231063   5.854   1.334   0.465 -0.4844  1.1750 -0.2303
 3191TIP3    H131064   5.835   1.364   0.376  0.8655  1.0556 -0.5821
 3191TIP3    H231065   5.950   1.332   0.470 -0.5323  1.4376  1.3190
 3192TIP3   OH231066   5.898   0.263  12.002 -0.0529 -0.0385 -0.5532
 3192TIP3    H131067   5.954   0.186  12.015 -1.3014 -0.8589  0.2099
 3192TIP3    H231068   5.828   0.251  12.066  1.1054  3.0982  1.5351
 3193TIP3   OH231069   0.855   5.567   6.074 -0.4851 -0.2760 -0.3076
 3193TIP3    H131070   0.789   5.554   6.142  0.0333  0.2465  0.3149
 3193TIP3    H231071   0.921   5.500   6.091  0.2303  0.5865  0.4622
 3194TIP3   OH231072   6.631   3.101  17.196 -0.3128 -0.1362 -0.1216
 3194TIP3    H131073   6.710   3.099  17.251  0.1528 -1.0714 -0.7975
 3194TIP3    H231074   6.559   3.110  17.258  0.2739  0.0268  0.5575
 3195TIP3   OH231075   0.877   3.661  11.683 -0.5340 -0.0874  0.2964
 3195TIP3    H131076   0.886   3.693  11.593  1.4141 -3.2022 -0.7539
 3195TIP3    H231077   0.809   3.594  11.678 -2.1227  1.3131  1.7465
 3196TIP3   OH231078   3.156   6.006   5.042  0.4541 -0.4465 -0.6562
 3196TIP3    H131079   3.186   5.941   5.105 -0.8842 -1.0208 -0.5998
 3196TIP3    H231080   3.192   5.976   4.958  3.0210  0.8038 -0.1295
 3197TIP3   OH231081   6.208   6.698  13.521 -0.3645 -0.5738 -0.0291
 3197TIP3    H131082   6.222   6.713  13.427  0.6053  0.3179  0.2369
 3197TIP3    H231083   6.164   6.614  13.525 -0.0115 -0.8434 -1.2690
 3198TIP3   OH231084   3.137   4.384  13.869  0.2372 -0.4441 -0.3986
 3198TIP3    H131085   3.192   4.320  13.824 -1.2533 -1.5554 -0.7242
 3198TIP3    H231086   3.112   4.446  13.800  1.6481  0.5028 -0.0912
 3199TIP3   OH231087   0.439   5.337  17.134  0.1183  0.0361  0.3801
 3199TIP3    H131088   0.533   5.322  17.120  0.3603  1.8577 -0.2950
 3199TIP3    H231089   0.409   5.378  17.053 -1.5141 -1.3957  0.1985
 3200TIP3   OH231090   1.996   1.536   3.750  0.1237 -0.1205  0.1323
 3200TIP3    H131091   1.958   1.562   3.666  1.6739 -0.8272 -0.8475
 3200TIP3    H231092   1.950   1.455   3.773  1.6311 -1.5748 -1.5832
 3201TIP3   OH231093   1.397   5.704  14.318 -1.1052  0.2627 -0.1465
 3201TIP3    H131094   1.446   5.758  14.380  0.1128 -1.2431  0.2750
 3201TIP3    H231095   1.456   5.693  14.244 -0.4598 -2.0932  0.6332
 3202TIP3   OH231096   5.776   2.021  11.512 -0.0480  0.0379 -0.9763
 3202TIP3    H131097   5.855   2.049  11.558 -0.6299 -0.6774  0.5620
 3202TIP3    H231098   5.798   2.027  11.419  1.3140  1.2168 -0.6206
 3203TIP3   OH231099   0.044   3.972   2.665  0.0940  0.4948  0.3072
 3203TIP3    H131100   0.123   3.958   2.718  1.0214  0.3039 -1.0832
 3203TIP3    H231101  -0.018   3.906   2.697  1.6306 -1.5509 -0.7178
 3204TIP3   OH231102   1.479   1.606  13.410 -0.4828  0.7639  0.2664
 3204TIP3    H131103   1.495   1.605  13.504 -0.3394 -1.7114  0.2713
 3204TIP3    H231104   1.401   1.551  13.398  0.7345 -0.7470 -1.1970
 3205TIP3   OH231105   4.775   2.509   1.249 -0.9670 -0.3065 -0.1551
 3205TIP3    H131106   4.810   2.424   1.278 -1.8263 -0.0455  1.7689
 3205TIP3    H231107   4.781   2.505   1.153  0.4214 -1.9220 -0.0567
 3206TIP3   OH231108   6.442   4.309  14.097  0.4157 -0.3502  0.0318
 3206TIP3    H131109   6.473   4.347  14.180  1.0313  0.2118 -0.4420
 3206TIP3    H231110   6.503   4.238  14.079  1.0022  0.2681 -0.5118
 3207TIP3   OH231111   6.121   0.707  13.730  0.2489  0.0534  0.0408
 3207TIP3    H131112   6.130   0.669  13.817 -0.3300  0.4345  0.2731
 3207TIP3    H231113   6.168   0.647  13.673  0.5140 -0.2744  0.5944
 3208TIP3   OH231114   6.267   4.465  11.034 -0.2161  0.2498  0.2176
 3208TIP3    H131115   6.252   4.494  11.124 -0.4738 -1.0629  0.6249
 3208TIP3    H231116   6.363   4.461  11.027 -0.1999 -0.2360  0.6420
 3209TIP3   OH231117   2.296   0.553   5.373  0.2761  0.3467  0.2141
 3209TIP3    H131118   2.212   0.543   5.420  0.9282  1.7170  1.7692
 3209TIP3    H231119   2.346   0.475   5.398  1.2595  1.8044  3.3864
 3210TIP3   OH231120   0.801   5.875  15.560 -0.1723 -0.4915  0.4978
 3210TIP3    H131121   0.893   5.894  15.541 -0.1085  0.5455  1.7292
 3210TIP3    H231122   0.790   5.895  15.653 -2.0787  1.2692 -0.0180
 3211TIP3   OH231123   2.579   2.271   2.902  0.4255 -0.0103  0.2828
 3211TIP3    H131124   2.502   2.216   2.888 -0.0023  0.5210  0.5330
 3211TIP3    H231125   2.602   2.301   2.814  1.4120 -1.5665 -0.0245
 3212TIP3   OH231126   2.206   4.417  17.379  0.4882 -0.3873 -0.2849
 3212TIP3    H131127   2.224   4.324  17.362  1.1122 -0.0447 -1.7266
 3212TIP3    H231128   2.257   4.463  17.312 -0.6953  0.9461 -0.3183
 3213TIP3   OH231129   1.080   3.822  14.801  0.5412 -0.1502  0.0188
 3213TIP3    H131130   1.046   3.742  14.761 -0.3947 -0.3298  1.1153
 3213TIP3    H231131   1.133   3.863  14.732  1.8433 -2.1828 -0.2439
 3214TIP3   OH231132   0.891   0.584  11.253  0.1164  0.4490 -0.2316
 3214TIP3    H131133   0.855   0.638  11.183 -0.5453 -0.0642 -0.2985
 3214TIP3    H231134   0.912   0.501  11.210 -1.9371 -0.5059  0.4912
 3215TIP3   OH231135   4.010   5.082   3.395  0.4723 -0.0854 -0.4964
 3215TIP3    H131136   4.034   5.164   3.352  2.0752 -0.9434 -1.3118
 3215TIP3    H231137   4.079   5.068   3.461  0.4118 -0.9552 -0.6116
 3216TIP3   OH231138   5.041   5.941  15.883  0.5702 -0.3049  0.0874
 3216TIP3    H131139   5.077   5.854  15.863  0.4488 -0.7435  1.6199
 3216TIP3    H231140   4.958   5.923  15.925  0.1988  0.5976 -0.2405
 3217TIP3   OH231141   0.666   4.752   6.374  0.2248 -0.4708 -0.3315
 3217TIP3    H131142   0.667   4.664   6.411  1.1802 -0.1027  0.5469
 3217TIP3    H231143   0.587   4.793   6.409  1.7889  0.3435  2.5298
 3218TIP3   OH231144   4.482   6.207   0.301 -0.5572 -0.4021  0.3597
 3218TIP3    H131145   4.578   6.210   0.300 -0.4948 -0.9810  1.6251
 3218TIP3    H231146   4.456   6.212   0.209  0.6381  0.9222  0.0644
 3219TIP3   OH231147   6.006   1.275  16.552  0.1704 -1.0537  0.0667
 3219TIP3    H131148   5.985   1.190  16.591 -3.2526  0.0233  0.9130
 3219TIP3    H231149   6.011   1.257  16.458 -0.3255 -2.2042  0.2462
 3220TIP3   OH231150   2.432   2.886  12.715  0.4545 -0.1455 -0.5974
 3220TIP3    H131151   2.342   2.921  12.714  0.4569 -0.0116  1.2386
 3220TIP3    H231152   2.421   2.793  12.733  0.7172  0.2300  1.8055
 3221TIP3   OH231153   1.473   1.595  11.664 -0.4018  0.1589  0.1259
 3221TIP3    H131154   1.517   1.511  11.654  2.2593  1.6044 -1.6772
 3221TIP3    H231155   1.388   1.583  11.622  0.3203 -1.3836 -1.0011
 3222TIP3   OH231156   2.187   4.077  12.709 -0.2377  0.4133  0.0201
 3222TIP3    H131157   2.145   4.120  12.784 -0.5008 -1.5547  1.0776
 3222TIP3    H231158   2.251   4.017  12.749  1.7278  1.4215 -1.4689
 3223TIP3   OH231159   4.574   1.290   1.872  0.3276 -0.1310  0.3044
 3223TIP3    H131160   4.558   1.385   1.875 -0.1653 -0.1960  0.0046
 3223TIP3    H231161   4.547   1.258   1.958 -1.1667 -0.2266 -0.1691
 3224TIP3   OH231162   6.269   0.796  14.949 -0.0888 -0.1350 -0.4779
 3224TIP3    H131163   6.300   0.807  15.039 -2.2337 -0.0958  0.3408
 3224TIP3    H231164   6.262   0.701  14.938 -1.5116 -0.1313  0.0975
 3225TIP3   OH231165   4.049   1.038  14.369 -0.5095 -0.0266  0.2249
 3225TIP3    H131166   4.015   1.016  14.455  0.7132  2.0183  1.3092
 3225TIP3    H231167   4.063   1.133  14.372  0.4291 -0.0344 -1.9012
 3226TIP3   OH231168   2.742   3.072  17.293 -0.6641  0.1593 -0.6722
 3226TIP3    H131169   2.680   3.135  17.329  0.9230  1.8652 -0.7765
 3226TIP3    H231170   2.792   3.041  17.368 -1.1669 -0.6900 -0.6780
 3227TIP3   OH231171   0.882   2.720  14.146  0.1184 -0.1809  0.1209
 3227TIP3    H131172   0.963   2.707  14.096  0.1685 -1.1683  0.4519
 3227TIP3    H231173   0.888   2.811  14.177  0.9048 -0.1164 -0.1927
 3228TIP3   OH231174   4.613   4.611   0.462 -0.1764 -0.3555  0.2291
 3228TIP3    H131175   4.551   4.632   0.392 -0.2650 -0.8997  0.1361
 3228TIP3    H231176   4.634   4.695   0.502 -0.1981 -0.0468 -0.3925
 3229TIP3   OH231177   4.417   6.738  14.304  0.1508 -0.5780 -0.1868
 3229TIP3    H131178   4.446   6.717  14.393  1.1593 -3.6700 -1.1158
 3229TIP3    H231179   4.478   6.806  14.275  0.2457 -0.0182  1.2247
 3230TIP3   OH231180   5.738   6.328  13.725  0.3408  0.4372 -0.0834
 3230TIP3    H131181   5.831   6.311  13.739  0.2152 -0.2737 -0.0996
 3230TIP3    H231182   5.708   6.257  13.669 -0.6909 -0.5963  1.6697
 3231TIP3   OH231183   6.120   6.692   3.489 -0.0054  0.1353  0.3054
 3231TIP3    H131184   6.127   6.747   3.567 -0.2562 -0.3700  0.6935
 3231TIP3    H231185   6.027   6.667   3.485 -0.0381  0.3324 -0.2803
 3232TIP3   OH231186   4.085   6.574  15.750  0.4080  0.8773  0.2638
 3232TIP3    H131187   4.014   6.633  15.725  0.6895  0.7815 -0.7929
 3232TIP3    H231188   4.042   6.489  15.761  0.3708  0.7856 -0.5280
 3233TIP3   OH231189   1.596   1.333   5.375  0.0887 -0.1149 -0.4444
 3233TIP3    H131190   1.543   1.373   5.306  0.4454  1.1773 -0.0066
 3233TIP3    H231191   1.635   1.408   5.421  1.1934 -1.0013  0.1003
 3234TIP3   OH231192   0.838   0.539   5.850 -0.0989  0.0399  0.1688
 3234TIP3    H131193   0.777   0.466   5.861 -0.2802  0.2024  0.2531
 3234TIP3    H231194   0.895   0.512   5.778 -0.2719 -0.1118  0.0875
 3235TIP3   OH231195   4.121   5.306   1.512  0.8831 -0.2008 -0.2187
 3235TIP3    H131196   4.093   5.240   1.575  0.1170  0.2374 -0.0901
 3235TIP3    H231197   4.205   5.273   1.478  1.7901  0.0033  1.6833
 3236TIP3   OH231198   5.384   4.372   1.964 -0.1321 -0.2107 -0.1031
 3236TIP3    H131199   5.339   4.440   2.015 -0.0999 -1.3391  1.5118
 3236TIP3    H231200   5.471   4.409   1.947 -0.4279  0.5247 -0.0844
 3237TIP3   OH231201   1.060   3.471  14.156  0.2488  0.4412  0.3730
 3237TIP3    H131202   1.117   3.493  14.082  1.1994 -0.9579  0.6430
 3237TIP3    H231203   0.976   3.450  14.116  0.7326 -0.2494 -0.3265
 3238TIP3   OH231204   5.410   4.199  13.358  0.0663  0.2413 -0.1015
 3238TIP3    H131205   5.476   4.186  13.290  1.1772  0.2084  0.9412
 3238TIP3    H231206   5.450   4.261  13.419 -0.7864  0.0596  0.6720
 3239TIP3   OH231207   6.037   1.375  11.078 -0.5635 -0.1256  0.1684
 3239TIP3    H131208   6.120   1.404  11.040  0.3105 -1.2921  1.1513
 3239TIP3    H231209   6.061   1.322  11.154 -2.2434  3.1559  3.2828
 3240TIP3   OH231210   0.840   4.375   5.260 -0.0850  0.6611  0.2626
 3240TIP3    H131211   0.897   4.299   5.271 -0.8954 -0.4077 -2.1675
 3240TIP3    H231212   0.752   4.342   5.280 -0.6601  0.4214 -2.3001
 3241TIP3   OH231213   1.710   1.687   4.271  0.1642  0.6743  0.1673
 3241TIP3    H131214   1.748   1.601   4.290 -0.1133  1.0012  2.4275
 3241TIP3    H231215   1.623   1.667   4.234  0.3266 -0.0006  0.1325
 3242TIP3   OH231216   2.254   1.239   5.856 -0.2748 -0.2470 -0.7860
 3242TIP3    H131217   2.251   1.163   5.915  2.2609 -0.6385 -1.0288
 3242TIP3    H231218   2.336   1.228   5.808 -1.0873  1.3613 -2.6535
 3243TIP3   OH231219   4.587   6.037  16.162  0.2349  0.1197  0.1885
 3243TIP3    H131220   4.566   6.102  16.095  0.0171  0.6587  0.7676
 3243TIP3    H231221   4.504   5.993  16.180  0.2442  0.1271  0.2528
 3244TIP3   OH231222   5.163   5.519   6.072  0.1162 -0.0766 -0.8189
 3244TIP3    H131223   5.231   5.557   6.128 -0.2613 -0.7158  0.0999
 3244TIP3    H231224   5.205   5.443   6.032  0.0236 -0.3312 -0.4390
 3245TIP3   OH231225   1.723   3.967  12.993  0.0043 -0.3391  0.4857
 3245TIP3    H131226   1.738   4.050  13.039  0.5214 -0.5062  0.6257
 3245TIP3    H231227   1.728   3.900  13.062 -0.3416 -0.4938  0.3622
 3246TIP3   OH231228   0.185   2.037  15.147 -0.2541 -0.1557  0.0146
 3246TIP3    H131229   0.146   1.967  15.201 -1.3625  1.1863  1.0537
 3246TIP3    H231230   0.238   1.991  15.082 -0.2920 -1.9215  1.1636
 3247TIP3   OH231231   6.055   5.477   3.122 -0.4051  0.2237 -0.4670
 3247TIP3    H131232   6.139   5.459   3.079 -0.6269  0.1568 -0.8734
 3247TIP3    H231233   5.990   5.468   3.053 -0.4437  4.1059 -1.1925
 3248TIP3   OH231234   5.290   0.774  16.189 -0.6827  0.2008 -0.7285
 3248TIP3    H131235   5.339   0.825  16.254 -1.8088  0.7687 -0.2874
 3248TIP3    H231236   5.348   0.701  16.167 -1.4420 -2.0116  3.4824
 3249TIP3   OH231237   5.392   5.291  11.776  0.1964 -0.0142  0.1562
 3249TIP3    H131238   5.413   5.376  11.737 -2.3359  1.7424  2.2588
 3249TIP3    H231239   5.400   5.306  11.870  2.0436 -2.8742  0.5687
 3250TIP3   OH231240   3.891   6.421  12.931 -0.1511  0.0819 -0.0814
 3250TIP3    H131241   3.943   6.391  12.857 -1.2995  2.9719 -2.2553
 3250TIP3    H231242   3.941   6.494  12.968 -1.1578  0.8604 -0.2055
 3251TIP3   OH231243   2.705   0.228   5.351 -0.2857  0.2529 -0.1984
 3251TIP3    H131244   2.767   0.268   5.412  0.2636 -0.5868 -0.1942
 3251TIP3    H231245   2.674   0.301   5.298  1.4722  0.5751 -0.8677
 3252TIP3   OH231246   6.013   0.438   6.585  0.5467 -0.0411 -0.0730
 3252TIP3    H131247   6.102   0.427   6.553  0.5442  0.3640 -0.2312
 3252TIP3    H231248   6.009   0.530   6.613 -0.1419  0.2526 -1.1009
 3253TIP3   OH231249   0.867   3.113   5.297 -0.1021 -0.1628 -0.0960
 3253TIP3    H131250   0.862   3.130   5.203  0.0857  0.6953  0.0470
 3253TIP3    H231251   0.934   3.173   5.329  0.4430 -1.0417  0.4554
 3254TIP3   OH231252   6.171   6.010  15.222  0.3798  0.1897 -0.3580
 3254TIP3    H131253   6.163   5.919  15.253  1.3886 -0.0638 -0.8090
 3254TIP3    H231254   6.208   6.002  15.134 -1.6516  0.9442 -1.3563
 3255TIP3   OH231255   0.914   5.587  15.108 -0.3153 -0.3586 -0.3198
 3255TIP3    H131256   0.976   5.536  15.056  0.8474  1.3470 -0.6852
 3255TIP3    H231257   0.882   5.526  15.174 -0.8690 -2.2413 -2.1970
 3256TIP3   OH231258   3.652   5.262  12.662  0.7164  0.0291 -0.4143
 3256TIP3    H131259   3.589   5.279  12.592 -0.6817 -2.3476  0.1825
 3256TIP3    H231260   3.673   5.349  12.696 -1.6858  0.9578 -1.1128
 3257TIP3   OH231261   3.732   0.998  17.169 -0.6111  0.3457  0.2707
 3257TIP3    H131262   3.655   0.952  17.136 -2.7155  4.5118 -1.3367
 3257TIP3    H231263   3.703   1.039  17.250  0.2200  1.2039  0.1515
 3258TIP3   OH231264   1.248   2.809   6.528 -0.0521 -0.4168  0.8017
 3258TIP3    H131265   1.252   2.739   6.594  1.6032 -0.3981  0.7763
 3258TIP3    H231266   1.209   2.768   6.451 -1.4593 -0.6030  1.5950
 3259TIP3   OH231267   4.943   6.160   4.631  0.0642  0.1451  0.2572
 3259TIP3    H131268   4.931   6.248   4.596  2.3867  0.2069 -0.5529
 3259TIP3    H231269   4.893   6.103   4.572  0.0630  0.7274 -0.3125
 3260TIP3   OH231270   5.881   3.603   5.700 -0.7254 -0.2380  0.1329
 3260TIP3    H131271   5.945   3.613   5.770 -0.8640 -1.0408  0.3910
 3260TIP3    H231272   5.932   3.569   5.626 -0.4620  1.2080 -0.3751
 3261TIP3   OH231273   5.227   1.497  13.912 -0.2169 -0.1448 -0.1388
 3261TIP3    H131274   5.243   1.544  13.994 -2.2683 -0.1865  0.3439
 3261TIP3    H231275   5.201   1.565  13.850  1.9115 -0.0309 -0.9963
 3262TIP3   OH231276   0.828   0.342   6.188  0.4131 -0.4431 -0.0816
 3262TIP3    H131277   0.901   0.402   6.177  1.1512 -1.4260 -0.6875
 3262TIP3    H231278   0.752   0.391   6.157  0.9376  0.3190 -0.1756
 3263TIP3   OH231279   6.146   1.810   3.338  0.1763 -0.5952 -0.3268
 3263TIP3    H131280   6.158   1.904   3.330 -0.2154 -0.3621  1.3111
 3263TIP3    H231281   6.234   1.774   3.348  0.4509 -0.6137 -2.3802
 3264TIP3   OH231282   5.792   4.491  15.611  0.2293 -0.0577  0.2139
 3264TIP3    H131283   5.799   4.482  15.516 -1.4986  0.2275  0.0401
 3264TIP3    H231284   5.877   4.528  15.637  0.9445 -0.6706 -1.1292
 3265TIP3   OH231285   5.816   6.695  16.294 -0.2403 -0.0804 -0.2971
 3265TIP3    H131286   5.881   6.696  16.365 -0.0097  0.0912 -0.5084
 3265TIP3    H231287   5.858   6.645  16.224 -0.7243 -0.7984 -0.0745
 3266TIP3   OH231288   5.360   1.961  11.323  0.4685  0.4698 -0.1437
 3266TIP3    H131289   5.416   1.919  11.258  0.6727 -0.2329  0.4770
 3266TIP3    H231290   5.405   1.947  11.407 -0.7685 -0.3629  0.4040
 3267TIP3   OH231291   0.605   6.434  13.138 -0.1729 -0.4533 -0.5220
 3267TIP3    H131292   0.577   6.523  13.118  2.8162  1.0869  1.4247
 3267TIP3    H231293   0.701   6.437  13.131  0.0680 -3.3879  0.1313
 3268TIP3   OH231294   0.773   1.136   1.544 -0.3123 -0.2691 -0.3404
 3268TIP3    H131295   0.764   1.213   1.600 -0.2844  0.0263 -0.7422
 3268TIP3    H231296   0.700   1.079   1.569 -0.2022 -0.2129  0.1125
 3269TIP3   OH231297   0.238   4.852   4.462 -0.2003 -0.0764  0.0084
 3269TIP3    H131298   0.167   4.917   4.459 -1.5203 -1.4751 -0.2379
 3269TIP3    H231299   0.279   4.866   4.548 -1.0031  0.5222  0.3154
 3270TIP3   OH231300   1.420   6.589  14.182 -0.5727 -0.9022 -0.7566
 3270TIP3    H131301   1.365   6.524  14.226 -0.6434 -0.4747 -0.1914
 3270TIP3    H231302   1.485   6.537  14.133  0.4251 -1.4263  1.0115
 3271TIP3   OH231303   0.721   6.488   5.001  0.1899  0.2452 -0.2961
 3271TIP3    H131304   0.634   6.478   4.962 -0.2834  2.0370  0.2282
 3271TIP3    H231305   0.721   6.426   5.075 -0.4195 -0.1711 -0.6367
 3272TIP3   OH231306   5.691   4.067  11.059 -0.0785 -0.2026  0.4131
 3272TIP3    H131307   5.613   4.089  11.008  0.4512  1.7440  0.3798
 3272TIP3    H231308   5.748   4.022  10.996 -0.3545  0.1518 -0.1030
 3273TIP3   OH231309   6.679   1.296  12.222 -0.5083 -0.3878 -0.8405
 3273TIP3    H131310   6.644   1.225  12.277  1.2327  0.5962  1.7022
 3273TIP3    H231311   6.614   1.366  12.230  0.1928  0.1272  0.9332
 3274TIP3   OH231312   3.210   1.472  16.705  0.3731 -0.6347  0.3995
 3274TIP3    H131313   3.204   1.402  16.640 -0.5458 -0.6981  0.5515
 3274TIP3    H231314   3.187   1.430  16.788 -0.8458 -0.0190  0.3928
 3275TIP3   OH231315   6.026   3.293  14.701  0.1201  0.4784 -0.1817
 3275TIP3    H131316   6.113   3.296  14.741  0.4897  1.2219 -0.9968
 3275TIP3    H231317   6.042   3.308  14.608 -0.7641 -0.7653 -0.5503
 3276TIP3   OH231318   2.382   1.692  17.396 -0.1348 -0.1696  0.4189
 3276TIP3    H131319   2.332   1.756  17.346 -3.1389 -3.0328 -0.6392
 3276TIP3    H231320   2.473   1.703  17.366 -0.7887  2.3779 -0.9144
 3277TIP3   OH231321   1.619   4.730   2.310 -0.3847  0.3173 -0.7962
 3277TIP3    H131322   1.633   4.657   2.250  0.3805 -1.4998  1.4217
 3277TIP3    H231323   1.530   4.760   2.291 -1.0035 -1.6636 -1.3460
 3278TIP3   OH231324   1.937   1.517  16.088  0.6747  0.0611 -0.2244
 3278TIP3    H131325   1.877   1.592  16.084  0.7611  0.1071 -0.7847
 3278TIP3    H231326   1.943   1.496  16.181  2.3736  2.1427  0.2145
 3279TIP3   OH231327   2.866   6.260  13.304 -0.2154 -0.4986  0.1139
 3279TIP3    H131328   2.885   6.220  13.388  1.6218 -0.9547 -0.4640
 3279TIP3    H231329   2.795   6.208  13.267 -0.9639 -0.3517  1.3148
 3280TIP3   OH231330   2.726   5.462  12.861 -0.3033  0.1803 -0.0102
 3280TIP3    H131331   2.757   5.404  12.931  0.2242  1.3506  0.7558
 3280TIP3    H231332   2.786   5.446  12.788  0.5211  0.5409  0.5763
 3281TIP3   OH231333   4.690   2.602  11.292  0.0191 -0.5002 -0.4135
 3281TIP3    H131334   4.612   2.598  11.348 -0.7239 -0.3022 -1.4142
 3281TIP3    H231335   4.761   2.574  11.349 -0.5156  0.8233  0.9762
 3282TIP3   OH231336   3.044   1.358  12.418 -0.5366 -0.4495 -0.6180
 3282TIP3    H131337   3.033   1.451  12.397 -1.1878 -0.3297  0.1728
 3282TIP3    H231338   3.099   1.324  12.348  1.7762  1.0644  0.3191
 3283TIP3   OH231339   5.974   0.039  15.753  0.2496  0.1707 -0.2018
 3283TIP3    H131340   5.951   0.084  15.835 -0.7234  0.7948 -0.7910
 3283TIP3    H231341   5.961   0.106  15.685  3.1652  0.3482 -0.6961
 3284TIP3   OH231342   6.285   2.400   4.324  0.1289 -0.0185  0.5859
 3284TIP3    H131343   6.220   2.367   4.387  1.9781 -0.3050  2.4407
 3284TIP3    H231344   6.324   2.322   4.286 -0.7141  0.1545 -0.7117
 3285TIP3   OH231345   2.464   4.343   1.246 -0.3556 -0.5007  0.0379
 3285TIP3    H131346   2.441   4.433   1.266  2.2296  0.4047 -0.6468
 3285TIP3    H231347   2.452   4.296   1.329  0.9318  1.1058  1.2026
 3286TIP3   OH231348   2.261   3.137  16.341 -0.4751  0.0781  0.1528
 3286TIP3    H131349   2.234   3.219  16.382 -2.2996 -0.5020  0.2102
 3286TIP3    H231350   2.182   3.083  16.342  0.6693 -1.6721  0.0725
 3287TIP3   OH231351   2.792   6.139   5.545 -0.3473 -0.5366  0.3333
 3287TIP3    H131352   2.829   6.148   5.632  3.0540 -0.3017 -0.9789
 3287TIP3    H231353   2.811   6.048   5.520  1.7810  0.2607 -1.2919
 3288TIP3   OH231354   6.340   0.958  15.363  0.0731  0.1349  0.6566
 3288TIP3    H131355   6.356   0.984  15.454  1.2662  3.0697 -0.2452
 3288TIP3    H231356   6.414   0.903  15.340  0.1342 -0.0396  1.2556
 3289TIP3   OH231357   1.629   3.048   3.162 -0.2397 -0.1378  0.2782
 3289TIP3    H131358   1.683   3.028   3.238  0.8624  1.3574 -0.0573
 3289TIP3    H231359   1.566   3.112   3.193 -0.6414 -0.5077  0.2334
 3290TIP3   OH231360   1.078   1.187   3.092  0.0966 -0.0615  0.0052
 3290TIP3    H131361   0.998   1.159   3.047  0.5541  0.0125 -0.8763
 3290TIP3    H231362   1.143   1.120   3.069  1.0472  1.3368 -1.6703
 3291TIP3   OH231363   2.810   3.330  15.468  0.0779 -0.1561 -0.6437
 3291TIP3    H131364   2.821   3.417  15.431 -1.4414 -1.0820 -3.5505
 3291TIP3    H231365   2.729   3.336  15.519  0.6892  0.4274  0.2881
 3292TIP3   OH231366   2.013   3.415  13.954  0.5474 -0.0691 -0.4728
 3292TIP3    H131367   2.047   3.332  13.920 -1.9666 -0.7966 -1.4966
 3292TIP3    H231368   2.015   3.474  13.879  0.3804  0.1179 -0.3298
 3293TIP3   OH231369   2.528   0.156  15.282 -0.2165  0.4856 -0.5463
 3293TIP3    H131370   2.563   0.208  15.210 -0.9919  0.6672 -0.8095
 3293TIP3    H231371   2.461   0.101  15.241  1.4594 -1.7148 -0.5314
 3294TIP3   OH231372   5.743   6.384   2.820  0.0986  0.5458  0.2208
 3294TIP3    H131373   5.728   6.301   2.774  0.9190  0.8626 -0.6460
 3294TIP3    H231374   5.832   6.409   2.795 -0.0996  1.6256  0.5690
 3295TIP3   OH231375   2.119   6.537   2.501 -0.4117 -0.4033 -0.1961
 3295TIP3    H131376   2.063   6.578   2.435 -0.7977 -1.7446 -0.7485
 3295TIP3    H231377   2.116   6.597   2.576 -2.7452 -0.4912 -0.1490
 3296TIP3   OH231378   3.801   5.957  16.066  0.4247 -0.0536  0.4183
 3296TIP3    H131379   3.707   5.961  16.082  0.1165 -1.3810 -0.9300
 3296TIP3    H231380   3.835   5.906  16.140 -0.2539 -1.5934 -0.2997
 3297TIP3   OH231381   0.067   0.357   4.274 -0.1510  0.5281 -0.4488
 3297TIP3    H131382   0.108   0.270   4.275  0.2796  0.7262 -0.4136
 3297TIP3    H231383  -0.026   0.340   4.267 -0.2758 -0.0166  1.7490
 3298TIP3   OH231384   1.118   2.198   0.705  0.5043 -0.1530 -0.1447
 3298TIP3    H131385   1.062   2.122   0.684 -0.3961  0.4398  0.0526
 3298TIP3    H231386   1.100   2.217   0.796  0.4223  0.5473 -0.3023
 3299TIP3   OH231387   3.770   3.663  13.701  0.8537 -0.2239  0.0501
 3299TIP3    H131388   3.689   3.683  13.654  0.7358 -0.6617  0.0675
 3299TIP3    H231389   3.837   3.659  13.633  0.5795 -1.4540 -0.1649
 3300TIP3   OH231390   0.037   5.037  17.465 -0.2871  0.5575  0.0276
 3300TIP3    H131391  -0.040   5.015  17.516 -1.1570  0.4343 -1.2805
 3300TIP3    H231392   0.061   5.125  17.494 -1.0060  0.6505  0.3587
 3301TIP3   OH231393   1.244   5.405   3.742  0.0609 -0.1339  0.2540
 3301TIP3    H131394   1.158   5.404   3.784  0.2930 -1.3612  0.7574
 3301TIP3    H231395   1.303   5.439   3.809  0.2189 -0.8668  0.5043
 3302TIP3   OH231396   4.383   4.213   2.493 -0.2108 -0.2125  0.1741
 3302TIP3    H131397   4.469   4.178   2.517  0.4754  0.2272 -1.5196
 3302TIP3    H231398   4.398   4.306   2.476 -1.1052 -0.0423  0.2643
 3303TIP3   OH231399   5.347   6.574  14.838  0.6763  0.7150 -0.1827
 3303TIP3    H131400   5.426   6.562  14.785  0.4137 -0.8341 -0.2669
 3303TIP3    H231401   5.380   6.605  14.922  1.4117 -0.1598 -0.1306
 3304TIP3   OH231402   5.673   5.979  13.818 -0.1847 -0.0213  0.3184
 3304TIP3    H131403   5.578   5.994  13.819 -0.3524 -0.5843 -1.9114
 3304TIP3    H231404   5.683   5.890  13.853 -0.4418  0.1152  0.7571
 3305TIP3   OH231405   0.526   6.560   2.957 -0.1483 -0.6694  0.3907
 3305TIP3    H131406   0.575   6.630   2.914  0.7768 -1.5928 -0.1090
 3305TIP3    H231407   0.521   6.586   3.049 -2.0293  1.2777 -0.1780
 3306TIP3   OH231408   2.642   1.787  15.235  0.4964  0.1677  0.4758
 3306TIP3    H131409   2.733   1.810  15.213  1.3153 -1.8998  1.4702
 3306TIP3    H231410   2.608   1.745  15.155  0.6152  0.3839  0.3109
 3307TIP3   OH231411   6.252   4.956  13.594 -0.8473  0.0362 -0.1416
 3307TIP3    H131412   6.221   4.910  13.672 -1.5752 -0.3985 -0.6758
 3307TIP3    H231413   6.177   4.954  13.534 -0.3349  0.4770 -0.8028
 3308TIP3   OH231414   1.761   0.697   4.679  0.6616  0.0282  0.3997
 3308TIP3    H131415   1.800   0.625   4.728  0.6334  1.2571  2.3124
 3308TIP3    H231416   1.829   0.723   4.617  1.7817  0.1981  1.6585
 3309TIP3   OH231417   1.751   1.229  13.863  0.1457 -0.0938  0.2081
 3309TIP3    H131418   1.800   1.311  13.869  0.4660  0.1261 -3.4179
 3309TIP3    H231419   1.716   1.228  13.774 -3.3657 -2.0145  1.4188
 3310TIP3   OH231420   5.150   4.242  15.976 -0.6969  0.2777 -0.7392
 3310TIP3    H131421   5.195   4.212  15.897  1.6571 -2.6870  1.4681
 3310TIP3    H231422   5.086   4.173  15.995 -0.9308  0.7146  0.1259
 3311TIP3   OH231423   6.219   2.695   6.846  0.3015 -0.5260  0.4047
 3311TIP3    H131424   6.280   2.689   6.773  1.2526 -2.3346  1.2862
 3311TIP3    H231425   6.272   2.681   6.924 -1.0793 -1.2126  1.2716
 3312TIP3   OH231426   3.731   0.590  16.681 -0.5515  0.7500  0.8224
 3312TIP3    H131427   3.815   0.621  16.649 -0.2492  0.7369  1.5968
 3312TIP3    H231428   3.692   0.666  16.725 -2.2173  1.6412 -1.9272
 3313TIP3   OH231429   2.693   0.577  11.909 -0.0991  0.1080 -0.4514
 3313TIP3    H131430   2.704   0.483  11.895 -1.1838 -0.0724 -0.1645
 3313TIP3    H231431   2.682   0.613  11.821 -2.7256 -0.4701 -0.4357
 3314TIP3   OH231432   1.746   2.619   3.141 -0.3606 -0.4293 -0.0833
 3314TIP3    H131433   1.687   2.684   3.102  0.6107  0.7192  0.3033
 3314TIP3    H231434   1.735   2.541   3.086 -0.6000  0.4689 -1.3517
 3315TIP3   OH231435   1.852   0.454  10.818 -0.0922 -0.0993  0.2669
 3315TIP3    H131436   1.799   0.401  10.758  1.1478 -1.1133  0.0219
 3315TIP3    H231437   1.905   0.510  10.761  0.4193 -0.4062  0.4339
 3316TIP3   OH231438   2.572   6.107  16.907 -0.1099  0.0600 -0.3011
 3316TIP3    H131439   2.549   6.049  16.834  0.6896  0.6974 -1.0836
 3316TIP3    H231440   2.509   6.179  16.900  0.1159  0.2388 -0.5139
 3317TIP3   OH231441   4.103   0.243  11.210 -0.2467 -0.4490 -0.0261
 3317TIP3    H131442   4.179   0.297  11.187 -0.3430 -0.1392  0.3905
 3317TIP3    H231443   4.136   0.153  11.202  0.3304 -0.3103  0.7094
 3318TIP3   OH231444   0.685   4.312   4.962  0.7180  0.0349 -0.1911
 3318TIP3    H131445   0.652   4.309   5.052 -0.9288 -0.2487 -0.7793
 3318TIP3    H231446   0.681   4.222   4.931 -0.7496  0.4309 -1.2313
 3319TIP3   OH231447   3.655   2.817  10.939  0.0353 -0.2472  0.0913
 3319TIP3    H131448   3.746   2.789  10.926  0.2018  0.4745 -0.3340
 3319TIP3    H231449   3.661   2.887  11.005 -0.4788 -1.7982  1.8799
 3320TIP3   OH231450   2.754   6.182  17.100 -0.4480 -0.2663  0.0402
 3320TIP3    H131451   2.830   6.126  17.114 -0.3126  0.1459  1.0585
 3320TIP3    H231452   2.704   6.138  17.031 -1.3438 -2.7139  2.0508
 3321TIP3   OH231453   5.693   5.108  14.242  0.4089  0.0930  0.2649
 3321TIP3    H131454   5.687   5.146  14.330  0.1163 -1.4519  0.9418
 3321TIP3    H231455   5.602   5.093  14.216  0.4791  0.7980 -0.4523
 3322TIP3   OH231456   5.839   5.730   0.079  0.2569  0.1715 -0.0113
 3322TIP3    H131457   5.825   5.716   0.172 -0.6508 -0.3932 -0.2223
 3322TIP3    H231458   5.786   5.663   0.036  0.7324  0.3688 -0.9323
 3323TIP3   OH231459   3.876   2.013   3.393  0.0962 -0.2301 -0.3258
 3323TIP3    H131460   3.961   2.032   3.355  0.6193 -0.0237  0.8816
 3323TIP3    H231461   3.893   1.944   3.458 -0.0878  1.6899  1.9176
 3324TIP3   OH231462   2.348   2.202  11.384  0.0096 -0.1908  0.5847
 3324TIP3    H131463   2.282   2.254  11.339  0.6034  0.0683 -0.0137
 3324TIP3    H231464   2.307   2.175  11.466 -1.2860 -1.1136 -0.3353
 3325TIP3   OH231465   4.373   2.969   5.440  0.2336 -0.4936 -0.4572
 3325TIP3    H131466   4.351   2.957   5.348 -1.9019 -2.0662  0.1562
 3325TIP3    H231467   4.296   3.014   5.477  0.9609 -0.0816  0.5964
 3326TIP3   OH231468   6.011   2.788  12.802 -0.0274  0.1826  0.4957
 3326TIP3    H131469   5.993   2.771  12.894  1.2363  0.3106  0.7895
 3326TIP3    H231470   5.931   2.827  12.768 -0.6481 -0.2513  1.4374
 3327TIP3   OH231471   0.366   5.897   1.731  0.2482  0.2076  0.2200
 3327TIP3    H131472   0.412   5.937   1.804  1.3986 -0.4321 -0.1223
 3327TIP3    H231473   0.362   5.804   1.754  1.0223 -0.0750 -0.7024
 3328TIP3   OH231474   0.545   3.448  16.970 -0.7622 -0.2173  0.4861
 3328TIP3    H131475   0.573   3.357  16.975  0.5587  0.1988  1.6214
 3328TIP3    H231476   0.461   3.446  16.925  0.1011 -1.8041 -1.2052
 3329TIP3   OH231477   0.993   1.609  11.559  0.1277  0.1074 -0.0939
 3329TIP3    H131478   1.067   1.662  11.526  0.6165 -0.6587 -0.2581
 3329TIP3    H231479   1.013   1.520  11.530 -0.4616 -0.2464  0.5599
 3330TIP3   OH231480   5.622   0.543  15.493 -0.2619  0.0851  0.0555
 3330TIP3    H131481   5.582   0.471  15.541  0.6488  0.0249  0.7615
 3330TIP3    H231482   5.564   0.617  15.507 -1.3906 -0.5571 -0.9492
 3331TIP3   OH231483   2.775   2.170  14.354 -0.5124 -0.8745  0.1507
 3331TIP3    H131484   2.727   2.147  14.275  1.5888  0.4047 -1.6294
 3331TIP3    H231485   2.829   2.246  14.328 -0.3478  0.1261  3.0488
 3332TIP3   OH231486   6.383   5.699   3.192 -0.1436  0.2235 -0.5887
 3332TIP3    H131487   6.388   5.618   3.141  0.2814 -0.5455  0.6308
 3332TIP3    H231488   6.292   5.704   3.221  0.1762 -0.6701  0.6392
 3333TIP3   OH231489   3.437   4.378  16.987  0.2777  0.4539 -0.1405
 3333TIP3    H131490   3.444   4.285  17.006 -0.3694  0.3370 -0.4534
 3333TIP3    H231491   3.374   4.411  17.052  2.3074  1.1663  1.5828
 3334TIP3   OH231492   6.681   4.713  15.874 -0.2962  0.7189  0.0569
 3334TIP3    H131493   6.764   4.671  15.849 -0.6231  0.1220 -0.0474
 3334TIP3    H231494   6.704   4.767  15.949  0.1541  0.3954  0.1611
 3335TIP3   OH231495   2.848   0.429   4.579 -0.1254  0.2380 -0.5454
 3335TIP3    H131496   2.809   0.366   4.518 -2.5140 -0.1456  1.2537
 3335TIP3    H231497   2.882   0.375   4.651 -2.4426  0.8965  1.1550
 3336TIP3   OH231498   6.458   3.382  16.499 -0.2645 -0.1648  0.5213
 3336TIP3    H131499   6.398   3.394  16.425  1.2860 -0.1562 -0.8034
 3336TIP3    H231500   6.493   3.470  16.515  1.4060 -0.5850 -0.5645
 3337TIP3   OH231501   5.676   3.479   3.044 -0.0116 -0.1067 -0.2018
 3337TIP3    H131502   5.697   3.479   3.138  0.1783 -1.4680 -0.2260
 3337TIP3    H231503   5.634   3.394   3.029 -1.1166  0.5837 -1.1253
 3338TIP3   OH231504   6.062   4.000  11.385  0.4348 -0.3000 -0.1966
 3338TIP3    H131505   6.075   3.923  11.330  0.0599 -0.8976  0.5374
 3338TIP3    H231506   5.969   4.020  11.378  0.8785  1.4512 -2.1272
 3339TIP3   OH231507   6.364   2.196  12.904  0.0401  0.2680 -0.3828
 3339TIP3    H131508   6.309   2.222  12.978  2.1708 -2.6122  2.4805
 3339TIP3    H231509   6.428   2.266  12.895 -0.7719  1.0626 -0.1290
 3340TIP3   OH231510   1.506   5.576   0.380  0.1894 -0.0251  0.3447
 3340TIP3    H131511   1.419   5.582   0.342 -0.5834 -1.0235  1.8320
 3340TIP3    H231512   1.543   5.664   0.370 -0.9658  0.4031 -0.3378
 3341TIP3   OH231513   3.412   2.258  14.832 -0.5849  0.0778  0.7285
 3341TIP3    H131514   3.361   2.325  14.879 -3.5017 -1.2481 -0.2962
 3341TIP3    H231515   3.364   2.245  14.750  2.1805 -0.4524 -0.9160
 3342TIP3   OH231516   5.661   0.112   6.640  0.2152 -0.2285  0.0205
 3342TIP3    H131517   5.676   0.042   6.577  0.1050 -0.4188  0.2027
 3342TIP3    H231518   5.669   0.193   6.589  0.1084 -0.3816 -0.2400
 3343TIP3   OH231519   6.375   2.434   5.398 -0.0312 -0.0812 -0.3307
 3343TIP3    H131520   6.365   2.475   5.484  0.5839 -0.4546 -0.0714
 3343TIP3    H231521   6.470   2.437   5.381 -0.1575  0.0967 -1.0500
 3344TIP3   OH231522   5.730   6.154  12.325  0.2571 -0.3499  0.2870
 3344TIP3    H131523   5.685   6.072  12.305  1.9781 -1.5932  1.3062
 3344TIP3    H231524   5.711   6.169  12.418  1.0962 -0.3426  0.4580
 3345TIP3   OH231525   0.758   3.646  14.013 -0.3761 -0.1270  0.3912
 3345TIP3    H131526   0.835   3.683  14.056  0.6881 -0.4641 -1.1175
 3345TIP3    H231527   0.736   3.710  13.945 -0.5146 -0.7023 -0.1162
 3346TIP3   OH231528   0.980   1.866   4.964 -0.7446 -0.5124 -0.0431
 3346TIP3    H131529   0.978   1.771   4.980 -0.9965 -0.3575  0.9171
 3346TIP3    H231530   0.949   1.876   4.874  0.8437 -1.4610 -0.7407
 3347TIP3   OH231531   4.131   1.076   2.772 -0.0969 -0.5026 -0.0576
 3347TIP3    H131532   4.123   1.163   2.733 -0.2483 -1.0848 -1.3865
 3347TIP3    H231533   4.044   1.037   2.760  0.4476 -1.4616 -1.0786
 3348TIP3   OH231534   4.214   5.541   1.238  0.2799 -0.0069  0.4770
 3348TIP3    H131535   4.270   5.463   1.243 -1.4344 -1.3756 -0.5535
 3348TIP3    H231536   4.183   5.554   1.327 -0.2351 -1.1593  0.4811
 3349TIP3   OH231537   0.512   2.463   5.778  0.0255 -0.1750  0.6264
 3349TIP3    H131538   0.477   2.378   5.752 -0.9796  0.4337 -0.1430
 3349TIP3    H231539   0.468   2.525   5.719  1.3742  0.7889  0.5863
 3350TIP3   OH231540   3.032   3.288  10.597  0.3978  0.1509 -0.3176
 3350TIP3    H131541   3.028   3.237  10.678 -0.1712  1.3616  0.4453
 3350TIP3    H231542   2.967   3.247  10.540  0.2063 -0.2009  0.1436
 3351TIP3   OH231543   3.009   0.659  10.681 -0.2480  0.0714 -0.0038
 3351TIP3    H131544   3.087   0.694  10.724 -1.4745  1.0974  1.4791
 3351TIP3    H231545   3.011   0.698  10.594  0.4540  0.7679  0.3066
 3352TIP3   OH231546   5.761   2.586   1.405  0.5378  0.6150 -0.6406
 3352TIP3    H131547   5.693   2.634   1.452 -0.7556 -1.7348  0.0919
 3352TIP3    H231548   5.716   2.549   1.329  1.4426  0.4581 -1.1136
 3353TIP3   OH231549   3.168   2.809  11.913 -0.1837 -0.4419 -0.0519
 3353TIP3    H131550   3.260   2.794  11.892  0.0941  0.8853  0.1315
 3353TIP3    H231551   3.120   2.774  11.838  0.5855  0.6693 -1.1017
 3354TIP3   OH231552   0.392   1.073   1.723  0.3209 -0.0655 -0.2243
 3354TIP3    H131553   0.472   1.123   1.738  0.0418  0.2480  0.2485
 3354TIP3    H231554   0.336   1.095   1.798 -0.2746 -0.1380 -0.6456
 3355TIP3   OH231555   2.606   2.924   2.498 -0.1028  0.4518 -0.3363
 3355TIP3    H131556   2.512   2.927   2.519  0.1617 -1.9414  1.6076
 3355TIP3    H231557   2.609   2.904   2.404 -1.5250  0.8696 -0.4939
 3356TIP3   OH231558   0.748   2.170   1.822  0.0533 -0.4305 -0.2742
 3356TIP3    H131559   0.740   2.244   1.761 -1.4772 -0.9456 -0.7510
 3356TIP3    H231560   0.745   2.093   1.766  0.7185 -0.8760  0.2939
 3357TIP3   OH231561   5.103   6.230   0.086  0.2386  0.2262 -0.2802
 3357TIP3    H131562   5.020   6.276   0.078 -1.3517 -2.5792 -1.3741
 3357TIP3    H231563   5.155   6.260   0.011 -0.2505  1.1260 -0.2591
 3358TIP3   OH231564   6.101   5.708  14.221  0.5760  0.2613 -0.2390
 3358TIP3    H131565   6.032   5.699  14.156  0.0318  0.8876  0.2383
 3358TIP3    H231566   6.069   5.774  14.282  1.3562  0.1614  0.3047
 3359TIP3   OH231567   3.141   0.074   1.142  0.2459 -0.3529  0.4674
 3359TIP3    H131568   3.109  -0.010   1.107  1.1939 -0.1198 -1.0564
 3359TIP3    H231569   3.212   0.099   1.082 -0.6696  2.0456  0.2754
 3360TIP3   OH231570   2.669   1.729   4.983 -0.6210  0.0018  0.8486
 3360TIP3    H131571   2.648   1.714   4.891  0.0325 -1.6195  0.9242
 3360TIP3    H231572   2.697   1.821   4.987 -0.8633  0.1536 -0.5221
 3361TIP3   OH231573   1.131   2.416  14.661  0.1827 -0.0171  0.2665
 3361TIP3    H131574   1.074   2.346  14.692 -2.3931  1.4993 -0.6962
 3361TIP3    H231575   1.213   2.404  14.709 -1.2126 -1.8475  2.3773
 3362TIP3   OH231576   4.211   4.843  12.255 -0.1756  0.0595  0.3789
 3362TIP3    H131577   4.137   4.783  12.266 -0.3359  0.0377 -0.7622
 3362TIP3    H231578   4.173   4.923  12.220  0.4264 -0.2152 -0.9516
 3363TIP3   OH231579   4.805   2.384   5.720 -0.5157  0.0398  0.7855
 3363TIP3    H131580   4.719   2.369   5.759 -1.4059  1.8529 -0.3852
 3363TIP3    H231581   4.788   2.427   5.636  1.4792 -0.9122 -0.1981
 3364TIP3   OH231582   5.383   6.194  13.658  0.0289  0.5558  0.0222
 3364TIP3    H131583   5.473   6.191  13.625  0.8529  0.8241  2.1300
 3364TIP3    H231584   5.332   6.147  13.592  2.0575 -1.5722 -0.1477
 3365TIP3   OH231585   0.749   5.810  13.526 -0.6927  0.0596 -0.3225
 3365TIP3    H131586   0.693   5.887  13.537 -1.4438 -0.4344 -0.6468
 3365TIP3    H231587   0.764   5.779  13.616  0.1322  0.9312 -0.1389
 3366TIP3   OH231588   0.918   6.399  13.697  1.0080  0.5850  0.6289
 3366TIP3    H131589   0.989   6.340  13.722  0.2900 -0.4216  0.3905
 3366TIP3    H231590   0.838   6.355  13.727  0.4248  1.3026  0.1958
 3367TIP3   OH231591   4.739   1.215  17.312  0.0567 -0.9078 -0.5974
 3367TIP3    H131592   4.752   1.305  17.340 -0.2174 -0.5365 -1.6455
 3367TIP3    H231593   4.822   1.190  17.272 -0.0591 -0.9216 -0.8319
 3368TIP3   OH231594   0.828   1.021  14.703 -0.0837  0.1471 -0.4569
 3368TIP3    H131595   0.884   1.090  14.669 -0.7783  0.5958 -0.6938
 3368TIP3    H231596   0.871   0.993  14.784  0.7412  0.1436 -0.8873
 3369TIP3   OH231597   3.330   6.653  11.998  0.4059 -0.5191  0.7735
 3369TIP3    H131598   3.324   6.744  11.969 -0.2125 -0.0906  2.1462
 3369TIP3    H231599   3.279   6.604  11.935 -1.4118  0.4616  1.4073
 3370TIP3   OH231600   2.074   4.836  16.192 -0.1702  0.3172 -0.3058
 3370TIP3    H131601   1.980   4.842  16.172 -0.5459 -0.9414  0.8943
 3370TIP3    H231602   2.090   4.742  16.200  1.0155  0.5546  0.2977
 3371TIP3   OH231603   1.494   3.999   1.270 -0.1185  0.0430  0.2452
 3371TIP3    H131604   1.427   3.967   1.330  0.2357 -1.6322 -0.2054
 3371TIP3    H231605   1.577   3.971   1.309  0.1266 -0.8816 -0.8817
 3372TIP3   OH231606   3.062   4.434   4.514 -0.1697 -0.5758 -0.1192
 3372TIP3    H131607   3.139   4.379   4.524 -2.0384 -3.3896 -0.2186
 3372TIP3    H231608   3.048   4.439   4.420 -1.0166 -1.4998 -0.0582
 3373TIP3   OH231609   3.893   2.303   6.609  0.4134 -0.0669 -0.0695
 3373TIP3    H131610   3.859   2.257   6.533  1.3856 -0.0920 -0.5058
 3373TIP3    H231611   3.921   2.388   6.575 -1.1475  0.7897  0.6824
 3374TIP3   OH231612   2.120   2.327  11.200  0.6026  0.1576 -0.5005
 3374TIP3    H131613   2.186   2.390  11.171  1.4698 -1.1922 -1.6057
 3374TIP3    H231614   2.148   2.244  11.162 -1.6384 -0.5195 -0.7975
 3375TIP3   OH231615   0.965   6.441  13.424  0.0310 -0.3187  0.3786
 3375TIP3    H131616   1.046   6.391  13.409  0.1697  0.0056  0.0051
 3375TIP3    H231617   0.929   6.406  13.505  1.3759  0.6153  1.4158
 3376TIP3   OH231618   5.448   3.290   2.004  0.3493  0.3098 -0.1864
 3376TIP3    H131619   5.364   3.287   2.050  1.0392 -0.1535  1.0934
 3376TIP3    H231620   5.484   3.376   2.027  0.8634 -0.0739  0.4728
 3377TIP3   OH231621   3.948   5.512   1.142  0.2176  0.0234 -0.0130
 3377TIP3    H131622   4.037   5.547   1.148 -0.0888  1.1292 -1.4125
 3377TIP3    H231623   3.958   5.426   1.103  0.7389 -0.2408  0.6888
 3378TIP3   OH231624   6.287   6.274   4.550  0.0225 -0.0428  0.5566
 3378TIP3    H131625   6.378   6.247   4.554 -0.0543 -0.4733 -0.2608
 3378TIP3    H231626   6.241   6.214   4.609  0.1539 -0.3531  0.3472
 3379TIP3   OH231627   3.180   0.669  11.762 -0.5358 -0.5739 -1.0559
 3379TIP3    H131628   3.139   0.584  11.780  0.8352 -0.7494  1.9208
 3379TIP3    H231629   3.128   0.731  11.813  1.0344 -0.3897  0.4342
 3380TIP3   OH231630   3.222   1.925  12.652 -0.2391 -0.1981 -0.2311
 3380TIP3    H131631   3.251   1.985  12.584 -0.6029 -0.1075 -0.3106
 3380TIP3    H231632   3.241   1.970  12.734 -0.1920 -0.1233 -0.2836
 3381TIP3   OH231633   2.687   6.428   3.527 -0.7001  0.2612  0.5535
 3381TIP3    H131634   2.694   6.507   3.581  2.0973  1.3701 -1.2336
 3381TIP3    H231635   2.750   6.367   3.566 -1.2076 -0.2558  0.5806
 3382TIP3   OH231636   1.957   5.845  12.930  0.1938 -0.1346 -0.5683
 3382TIP3    H131637   2.006   5.772  12.892  2.4871 -0.6508  2.8605
 3382TIP3    H231638   1.921   5.810  13.012  1.8647  2.5607  1.5063
 3383TIP3   OH231639   2.972   5.928  14.987  0.2840  0.1958 -0.6109
 3383TIP3    H131640   3.023   5.866  14.935  0.0648 -2.1057  1.6673
 3383TIP3    H231641   3.018   5.931  15.072 -0.0814  2.7478 -0.4342
 3384TIP3   OH231642   2.145   5.479   2.815  0.4546  0.5440 -0.0623
 3384TIP3    H131643   2.104   5.463   2.900  0.5390 -0.7844 -0.2401
 3384TIP3    H231644   2.191   5.397   2.795  1.1598  1.1461 -0.9868
 3385TIP3   OH231645   4.973   2.804   5.562  0.3839 -0.0954 -0.8614
 3385TIP3    H131646   5.049   2.756   5.596 -0.0059 -1.3567 -1.7102
 3385TIP3    H231647   5.010   2.884   5.524  0.9616  0.7013  1.2541
 3386TIP3   OH231648   0.608   2.455   3.134 -0.1695  0.4841  0.5376
 3386TIP3    H131649   0.575   2.368   3.154 -2.6621  1.1592 -0.3030
 3386TIP3    H231650   0.685   2.466   3.191 -0.4380 -1.8164  1.4264
 3387TIP3   OH231651   2.185   4.373  15.548 -0.1070  0.1802 -0.5076
 3387TIP3    H131652   2.139   4.445  15.592  1.4819  0.0399  1.5537
 3387TIP3    H231653   2.219   4.319  15.620 -0.3974 -2.0960 -1.9894
 3388TIP3   OH231654   2.055   4.144  12.967  0.1258 -0.2165  0.1819
 3388TIP3    H131655   2.118   4.080  13.000  0.1552  0.0881  0.7339
 3388TIP3    H231656   2.106   4.225  12.957 -0.0930 -0.0634  0.2839
 3389TIP3   OH231657   5.198   6.362   2.188 -0.0341 -0.1289  0.0602
 3389TIP3    H131658   5.172   6.454   2.200 -1.1544 -0.4024 -0.1544
 3389TIP3    H231659   5.244   6.361   2.104  0.5665  0.3499  0.3792
 3390TIP3   OH231660   0.589   3.837  14.799 -0.5030 -0.0998 -0.0413
 3390TIP3    H131661   0.559   3.846  14.709 -1.0808  1.6866  0.2861
 3390TIP3    H231662   0.511   3.856  14.852  0.4858  1.7486  0.8301
 3391TIP3   OH231663   2.915   3.585  14.592  0.1378  0.0417 -0.8599
 3391TIP3    H131664   2.958   3.663  14.628  0.3972 -0.9200  1.0860
 3391TIP3    H231665   2.988   3.528  14.565  0.2631 -1.4592  2.1555
 3392TIP3   OH231666   0.579   2.330  16.679 -0.7037 -1.1461 -0.2611
 3392TIP3    H131667   0.494   2.296  16.652 -0.9979 -0.8582  0.2988
 3392TIP3    H231668   0.615   2.263  16.736 -1.6740 -0.1692  1.5773
 3393TIP3   OH231669   0.986   4.978   2.759  0.0789 -0.6285  0.3622
 3393TIP3    H131670   0.914   4.968   2.697 -0.5950 -1.0649  1.1950
 3393TIP3    H231671   1.005   4.889   2.788  1.4844 -0.6022 -0.4310
 3394TIP3   OH231672   0.277   6.636   2.288 -0.0562  0.0577  0.5350
 3394TIP3    H131673   0.197   6.650   2.339  1.3277 -1.0519  3.2586
 3394TIP3    H231674   0.315   6.556   2.325  1.7176 -0.1213 -1.4763
 3395TIP3   OH231675   5.851   3.115   6.119 -0.5656  0.3564  0.0767
 3395TIP3    H131676   5.913   3.186   6.136  0.1520 -0.4544  0.9441
 3395TIP3    H231677   5.845   3.111   6.023  0.6167  0.5283 -0.0133
 3396TIP3   OH231678   0.644   2.402  15.642  0.1632  0.1404 -0.6423
 3396TIP3    H131679   0.625   2.368  15.555  0.1509 -0.2760 -0.4799
 3396TIP3    H231680   0.645   2.324  15.698 -0.0468  0.4278 -0.2335
 3397TIP3   OH231681   1.186   4.723  12.026 -0.5239  0.2126  0.0073
 3397TIP3    H131682   1.165   4.810  12.061  0.2167  0.1557  0.5946
 3397TIP3    H231683   1.277   4.729  11.999 -0.3331 -0.5216  0.4665
 3398TIP3   OH231684   4.558   1.193   5.722  0.2997  0.2183  0.0697
 3398TIP3    H131685   4.590   1.258   5.783  1.2888  0.6634 -0.8883
 3398TIP3    H231686   4.624   1.190   5.652 -0.0045 -1.3928 -0.2062
 3399TIP3   OH231687   1.561   4.276  13.496 -0.1037  0.8372 -0.2495
 3399TIP3    H131688   1.601   4.356  13.533  0.4675  1.0397 -1.2795
 3399TIP3    H231689   1.516   4.306  13.417 -1.2512  0.3894  0.2171
 3400TIP3   OH231690   3.671   3.827   5.643 -0.4474  0.7268  0.2469
 3400TIP3    H131691   3.727   3.840   5.720 -0.0799  0.3350  0.0485
 3400TIP3    H231692   3.593   3.880   5.661 -0.8330 -0.1955  1.3728
 3401TIP3   OH231693   4.522   1.939  16.216 -0.1227 -0.0334  0.0302
 3401TIP3    H131694   4.544   1.851  16.246  0.7949 -0.0147 -0.5665
 3401TIP3    H231695   4.434   1.931  16.179 -0.3030 -0.5542  0.5710
 3402TIP3   OH231696   6.714   0.003  11.480 -0.2513 -0.0396 -0.6095
 3402TIP3    H131697   6.794  -0.050  11.487 -0.3783 -0.0412  1.3249
 3402TIP3    H231698   6.673  -0.026  11.398 -0.4158 -3.1401  0.4425
 3403TIP3   OH231699   2.275   0.337   4.969  0.0943 -0.4411  0.3550
 3403TIP3    H131700   2.247   0.322   4.878 -2.8340  0.6572  0.9650
 3403TIP3    H231701   2.197   0.317   5.021  1.6754 -0.9258  2.6556
 3404TIP3   OH231702   6.767   2.042  16.887 -0.8179 -0.3135 -0.3099
 3404TIP3    H131703   6.761   1.954  16.850 -0.5418 -0.7941  0.7534
 3404TIP3    H231704   6.818   2.031  16.967 -2.4779  0.4605  0.9194
 3405TIP3   OH231705   3.463   2.297  10.815 -0.1878  0.4488  0.3936
 3405TIP3    H131706   3.515   2.234  10.765 -2.4344 -1.0963 -0.1211
 3405TIP3    H231707   3.404   2.244  10.869 -1.1953  2.1039  1.0202
 3406TIP3   OH231708   0.712   5.631   5.005  0.5158  0.2854 -0.0132
 3406TIP3    H131709   0.707   5.603   5.096 -0.2555 -0.8747 -0.3723
 3406TIP3    H231710   0.631   5.680   4.990 -0.4888 -1.4630 -0.6313
 3407TIP3   OH231711   5.244   3.054   0.770 -0.1447  0.3177  0.0796
 3407TIP3    H131712   5.322   3.027   0.819 -0.8612  1.4029  1.9194
 3407TIP3    H231713   5.171   3.020   0.822 -0.9422 -0.6732 -1.6054
 3408TIP3   OH231714   1.062   5.866   5.752 -0.2472 -0.2381 -0.5221
 3408TIP3    H131715   1.035   5.873   5.844  1.0891 -0.3376 -0.0930
 3408TIP3    H231716   1.009   5.932   5.706  1.8277  2.7393  0.9975
 3409TIP3   OH231717   1.303   2.391   5.073 -0.0332 -0.4269 -0.4264
 3409TIP3    H131718   1.264   2.366   5.157  1.0525 -0.3711  0.1008
 3409TIP3    H231719   1.315   2.486   5.080  1.6863 -0.6581  0.0670
 3410TIP3   OH231720   4.752   2.213   6.783  0.0064 -1.3343  0.5405
 3410TIP3    H131721   4.799   2.213   6.699  0.5949  1.2312  0.7915
 3410TIP3    H231722   4.820   2.201   6.849 -0.1089 -0.8608  0.7521
 3411TIP3   OH231723   0.134   6.586  12.901 -0.1096  0.2058  0.2064
 3411TIP3    H131724   0.111   6.604  12.992 -0.4610 -1.8697  0.5826
 3411TIP3    H231725   0.229   6.569  12.903 -0.0600  0.4829  0.1389
 3412TIP3   OH231726   3.512   6.348  11.621 -0.0662 -0.9281 -0.0877
 3412TIP3    H131727   3.495   6.331  11.714 -0.4028  1.9523  0.4913
 3412TIP3    H231728   3.562   6.430  11.622 -0.8757 -0.3399 -2.4745
 3413TIP3   OH231729   4.451   1.953   5.333 -0.0504  0.0625  0.0074
 3413TIP3    H131730   4.373   2.007   5.328  0.3818  0.6631 -0.4631
 3413TIP3    H231731   4.496   1.982   5.412  0.5564  0.9284 -0.6411
 3414TIP3   OH231732   0.942   1.559  16.208 -0.2226  0.7137 -0.2842
 3414TIP3    H131733   0.855   1.521  16.219  0.1317  0.2720  1.3336
 3414TIP3    H231734   0.933   1.649  16.240  0.0925  0.3951  0.7494
 3415TIP3   OH231735   2.545   0.478   4.234 -0.2917  0.2850  0.4671
 3415TIP3    H131736   2.558   0.391   4.197 -2.3457 -0.1418  0.6142
 3415TIP3    H231737   2.633   0.512   4.248  0.5577 -0.9254 -1.5248
 3416TIP3   OH231738   2.490   6.055  11.524  0.2363  0.1750  0.2760
 3416TIP3    H131739   2.412   5.999  11.527  0.2340  0.1332 -0.4695
 3416TIP3    H231740   2.494   6.086  11.434  0.6208  0.8407  0.5164
 3417TIP3   OH231741   1.287   1.381   2.982  0.2844 -0.3603  0.1376
 3417TIP3    H131742   1.229   1.317   3.024 -0.4458  0.9545  1.2003
 3417TIP3    H231743   1.260   1.381   2.890 -0.2930 -0.9360  0.2981
 3418TIP3   OH231744   2.622   5.301  12.336  0.2287 -0.8099  0.4813
 3418TIP3    H131745   2.592   5.237  12.401  1.8659 -2.2633 -0.1357
 3418TIP3    H231746   2.614   5.256  12.252 -0.6697  0.6086 -0.2476
 3419TIP3   OH231747   1.643   3.828   0.741 -0.1782  0.4644  0.0090
 3419TIP3    H131748   1.698   3.902   0.769 -0.5339  0.5782  0.4293
 3419TIP3    H231749   1.618   3.785   0.823  0.9109 -0.7786 -0.2774
 3420TIP3   OH231750   4.724   2.707   5.725  0.1542  0.1872 -0.0329
 3420TIP3    H131751   4.775   2.762   5.784 -1.1513  0.2198  1.1287
 3420TIP3    H231752   4.787   2.678   5.658  1.3231  1.3931  0.4988
 3421TIP3   OH231753   3.903   2.071  12.110 -0.3522  0.0694 -0.6081
 3421TIP3    H131754   3.812   2.049  12.132 -0.5986  1.6811  0.0748
 3421TIP3    H231755   3.955   2.012  12.166 -0.9270 -1.5573 -1.7044
 3422TIP3   OH231756   0.560   3.069  11.052 -0.0285 -0.5835  0.1025
 3422TIP3    H131757   0.552   3.038  11.142 -0.2350  0.9784  0.6506
 3422TIP3    H231758   0.654   3.077  11.037  0.0286 -1.4098 -0.0447
 3423TIP3   OH231759   0.474   5.678  13.430 -0.2176 -0.2774 -0.5797
 3423TIP3    H131760   0.509   5.767  13.424  1.5283 -0.9970 -1.7683
 3423TIP3    H231761   0.426   5.677  13.513 -0.4373  1.8097 -0.6280
 3424TIP3   OH231762   5.521   2.245  11.969 -0.4625 -0.0623 -0.4318
 3424TIP3    H131763   5.599   2.269  11.920 -0.2513  1.7592  0.7103
 3424TIP3    H231764   5.555   2.196  12.044 -0.6101 -1.0032 -0.9645
 3425TIP3   OH231765   2.093   6.533   1.930 -0.0838 -0.1409  0.4872
 3425TIP3    H131766   2.103   6.443   1.900  1.0369 -1.1440  3.4831
 3425TIP3    H231767   2.001   6.542   1.952 -0.0004 -0.9683  1.2192
 3426TIP3   OH231768   0.678   5.648  12.190  0.4140 -0.4156 -0.1275
 3426TIP3    H131769   0.655   5.650  12.097  0.8325 -1.8734 -0.3019
 3426TIP3    H231770   0.627   5.718  12.230 -1.3644 -1.0758 -1.1267
 3427TIP3   OH231771   2.042   1.989   3.242 -0.4121  0.4272 -0.5678
 3427TIP3    H131772   2.058   2.054   3.173 -0.6408  1.6916  0.5320
 3427TIP3    H231773   2.031   2.041   3.321  4.4099 -1.0763  1.4240
 3428TIP3   OH231774   0.815   4.196  16.479 -0.1253  0.1328 -0.3380
 3428TIP3    H131775   0.720   4.185  16.479 -0.1932  0.2139 -2.5336
 3428TIP3    H231776   0.839   4.198  16.386  2.2571 -1.8493  0.1386
 3429TIP3   OH231777   3.160   3.266   1.360  0.6980  0.4779  0.6433
 3429TIP3    H131778   3.110   3.281   1.441 -2.4304  1.0644 -1.2265
 3429TIP3    H231779   3.107   3.204   1.310  2.5501  0.0981 -0.9830
 3430TIP3   OH231780   0.476   5.002  14.614 -1.0209 -0.6400 -0.0145
 3430TIP3    H131781   0.478   5.094  14.639 -0.1389 -0.3844 -0.9606
 3430TIP3    H231782   0.473   4.954  14.697  1.2147  0.1816  0.6136
 3431TIP3   OH231783   3.884   3.819  13.076 -0.2849  0.3337 -0.5350
 3431TIP3    H131784   3.835   3.900  13.086 -3.0828 -1.1866 -0.7265
 3431TIP3    H231785   3.918   3.822  12.987 -0.4967  1.2327 -0.5962
 3432TIP3   OH231786   2.592   6.535  12.500 -0.0059  0.0409 -0.1375
 3432TIP3    H131787   2.677   6.579  12.505  0.3983 -0.5647 -1.4395
 3432TIP3    H231788   2.532   6.594  12.546  0.9557  0.8668  0.0852
 3433TIP3   OH231789   5.184   6.671   4.896  0.2839 -0.4393  0.1715
 3433TIP3    H131790   5.187   6.762   4.867  0.8304 -0.3345  0.5507
 3433TIP3    H231791   5.270   6.635   4.870  1.1532 -0.1143  2.3843
 3434TIP3   OH231792   5.616   1.656   1.901 -0.3127 -0.2736  0.6549
 3434TIP3    H131793   5.657   1.680   1.818 -1.4018  0.2150  0.2402
 3434TIP3    H231794   5.577   1.570   1.884 -3.3809  1.1900 -0.4511
 3435TIP3   OH231795   3.106   2.045   1.377 -0.0514 -0.3200 -0.2950
 3435TIP3    H131796   3.055   2.125   1.365 -0.1673 -0.2914  0.3334
 3435TIP3    H231797   3.156   2.036   1.296 -1.0783 -0.3767 -0.9463
 3436TIP3   OH231798   6.458   6.569   4.510 -0.5276  0.1474 -0.2846
 3436TIP3    H131799   6.419   6.656   4.522 -0.5230  0.3120 -1.3501
 3436TIP3    H231800   6.390   6.519   4.464 -0.7886 -0.6322  0.9003
 3437TIP3   OH231801   1.738   4.361  15.606 -0.7764  0.1546  0.4269
 3437TIP3    H131802   1.691   4.427  15.554 -0.1577 -0.2151 -0.6378
 3437TIP3    H231803   1.774   4.410  15.680  0.5484  1.2545 -0.8826
 3438TIP3   OH231804   1.967   4.117   2.183 -0.0621 -0.2236 -0.2912
 3438TIP3    H131805   2.048   4.073   2.209  1.2501  1.4717 -1.2348
 3438TIP3    H231806   1.946   4.081   2.097  1.5783  1.5599 -1.5292
 3439TIP3   OH231807   3.337   3.066   0.838 -0.1194  0.4645  0.5265
 3439TIP3    H131808   3.301   3.128   0.902 -1.6393  1.6978 -1.3850
 3439TIP3    H231809   3.271   3.063   0.769  0.3587 -2.6164  0.0781
 3440TIP3   OH231810   4.876   5.697   0.308 -0.3362  0.5300 -0.3596
 3440TIP3    H131811   4.914   5.780   0.338 -1.1559  0.6993  0.2379
 3440TIP3    H231812   4.952   5.643   0.286  0.2524  0.9011  0.6977
 3441TIP3   OH231813   5.661   0.628   2.421  0.2027  0.0139 -0.1496
 3441TIP3    H131814   5.645   0.605   2.512  0.5046 -0.2908 -0.1733
 3441TIP3    H231815   5.751   0.600   2.404 -0.4369 -1.5722 -1.0565
 3442TIP3   OH231816   1.718   1.779   2.236  0.1326  0.6577 -0.0462
 3442TIP3    H131817   1.698   1.711   2.301 -0.0237 -0.8273 -1.5661
 3442TIP3    H231818   1.664   1.756   2.161  4.6449 -1.4898 -3.0690
 3443TIP3   OH231819   3.691   6.622  14.968  0.1310 -0.0008 -0.3594
 3443TIP3    H131820   3.625   6.553  14.977  0.8115 -0.5609  0.6115
 3443TIP3    H231821   3.772   6.576  14.946  0.6554  0.4329  0.5729
 3444TIP3   OH231822   1.854   1.493   5.790 -0.0497 -0.1165 -0.3332
 3444TIP3    H131823   1.774   1.543   5.776 -0.6940 -0.7857  0.7763
 3444TIP3    H231824   1.823   1.405   5.814  0.8784  0.3138  2.9405
 3445TIP3   OH231825   3.114   0.941   3.705 -0.0619 -0.2484  0.3873
 3445TIP3    H131826   3.199   0.944   3.750 -0.6278  0.0977  1.4634
 3445TIP3    H231827   3.121   0.866   3.646  1.3668  0.4059 -0.3256
 3446TIP3   OH231828   4.944   0.922  12.429 -0.2110  0.1181 -0.3602
 3446TIP3    H131829   4.929   0.832  12.398  1.1154 -0.0850 -0.4796
 3446TIP3    H231830   4.982   0.911  12.516 -1.3634  0.6203  0.2269
 3447TIP3   OH231831   6.379   4.327   2.937 -0.0224 -0.6559 -0.1631
 3447TIP3    H131832   6.426   4.252   2.901  1.7605  0.0272  0.6660
 3447TIP3    H231833   6.324   4.357   2.864 -0.5453 -2.5354 -0.6098
 3448TIP3   OH231834   6.761   0.504   4.633 -0.0548 -0.2938  0.4196
 3448TIP3    H131835   6.836   0.515   4.691 -1.4432 -0.6888  2.3841
 3448TIP3    H231836   6.753   0.589   4.589  2.9557 -0.9516 -1.7734
 3449TIP3   OH231837   2.640   5.371  15.505  0.0962  0.5198 -0.2121
 3449TIP3    H131838   2.663   5.287  15.466 -0.4293  0.5816 -0.6615
 3449TIP3    H231839   2.590   5.349  15.583  1.3738  0.3899  0.5973
 3450TIP3   OH231840   6.013   1.015  15.049 -0.5222 -0.3201 -0.4536
 3450TIP3    H131841   6.021   0.965  15.130 -0.0834  0.3997 -0.0443
 3450TIP3    H231842   6.098   1.058  15.039 -0.0721 -1.4609 -2.0247
 3451TIP3   OH231843   6.255   3.954  11.732  0.3924 -0.2322  0.0587
 3451TIP3    H131844   6.225   3.893  11.665  3.6188 -0.1364 -1.6971
 3451TIP3    H231845   6.258   3.902  11.812 -0.7197 -1.2059 -0.4978
 3452TIP3   OH231846   4.862   6.210  12.563 -0.2305  0.1087 -0.4089
 3452TIP3    H131847   4.928   6.160  12.611  0.4524  1.0611 -0.3056
 3452TIP3    H231848   4.889   6.204  12.471  0.8341  1.6338 -0.2301
 3453TIP3   OH231849   6.128   5.372  16.209 -0.3007 -0.1322 -0.3568
 3453TIP3    H131850   6.044   5.410  16.235 -0.9732 -1.7149 -0.0544
 3453TIP3    H231851   6.110   5.278  16.205  1.2603 -0.4159 -1.1014
 3454TIP3   OH231852   3.012   3.276  12.684 -0.8963 -0.0709  0.6403
 3454TIP3    H131853   3.066   3.209  12.644  0.9503  0.9068  1.3592
 3454TIP3    H231854   2.945   3.296  12.619  1.8691  1.3555 -2.0095
 3455TIP3   OH231855   2.661   6.146  15.790 -0.4827  0.0926 -0.0923
 3455TIP3    H131856   2.665   6.238  15.765  1.3399  0.3703  1.0267
 3455TIP3    H231857   2.696   6.099  15.715  2.2665  0.6885  0.7011
 3456TIP3   OH231858   3.312   4.753  14.111 -0.8252  0.3109 -0.0310
 3456TIP3    H131859   3.379   4.754  14.180  0.1854  0.5774 -0.9852
 3456TIP3    H231860   3.281   4.663  14.109  0.8043 -0.2674 -0.7727
 3457TIP3   OH231861   5.994   0.426   0.843  0.7148 -0.5947  0.6060
 3457TIP3    H131862   6.037   0.447   0.926 -1.7219 -1.3434  2.1454
 3457TIP3    H231863   5.953   0.341   0.857  0.0446 -0.6445 -1.3156
 3458TIP3   OH231864   1.833   6.331   4.390 -0.5141  0.1055  0.1741
 3458TIP3    H131865   1.739   6.346   4.403 -1.0944 -1.9985 -1.0956
 3458TIP3    H231866   1.862   6.292   4.473  0.0042  3.4684  1.7304
 3459TIP3   OH231867   3.467   2.077   2.065  0.1977 -0.5259 -0.4785
 3459TIP3    H131868   3.489   2.087   1.972 -1.0067 -0.1766 -0.7396
 3459TIP3    H231869   3.390   2.132   2.078  1.1300  0.4920  1.0503
 3460TIP3   OH231870   2.713   5.404  17.497  0.3014  0.4919 -0.5150
 3460TIP3    H131871   2.634   5.396  17.551  0.8478  0.7477  0.3495
 3460TIP3    H231872   2.785   5.413  17.561  1.1038 -0.3879 -1.2666
 3461TIP3   OH231873   0.698   0.223  17.123  0.2893  0.6715 -0.0398
 3461TIP3    H131874   0.730   0.310  17.101 -0.3485  0.4306 -2.1330
 3461TIP3    H231875   0.635   0.237  17.193 -1.4597  2.2183 -1.8183
 3462TIP3   OH231876   1.510   0.674  12.726  0.4122 -0.1378  0.5548
 3462TIP3    H131877   1.529   0.732  12.799  0.7013  0.3568  0.0955
 3462TIP3    H231878   1.567   0.704  12.655 -1.5656  1.0081 -0.6801
 3463TIP3   OH231879   4.307   4.051   5.980 -0.0794  0.3024 -0.0170
 3463TIP3    H131880   4.325   4.042   6.074 -1.7139  3.7807  0.7642
 3463TIP3    H231881   4.224   4.005   5.967 -0.5267  0.9580  0.5245
 3464TIP3   OH231882   1.992   0.983  16.446  0.7283 -0.7084 -0.1686
 3464TIP3    H131883   2.031   1.007  16.361  0.0719  0.1692 -0.2342
 3464TIP3    H231884   1.917   0.929  16.424 -0.4540  0.8938 -0.2698
 3465TIP3   OH231885   1.545   4.815  15.336 -0.3618 -0.1631 -0.0067
 3465TIP3    H131886   1.623   4.763  15.319 -0.5115 -0.0058 -1.2898
 3465TIP3    H231887   1.569   4.904  15.307 -0.4501  0.2666  1.1945
 3466TIP3   OH231888   5.465   3.293   1.689 -0.2468 -0.0743  0.4151
 3466TIP3    H131889   5.453   3.376   1.734  0.9753 -0.4226  1.4471
 3466TIP3    H231890   5.485   3.231   1.759 -0.1304 -1.0239 -0.4366
 3467TIP3   OH231891   2.020   2.607  12.952  0.0985 -0.1746 -0.4853
 3467TIP3    H131892   2.047   2.698  12.939  1.1879 -0.4128  0.0298
 3467TIP3    H231893   1.927   2.606  12.927  0.3176  0.8670 -1.4134
 3468TIP3   OH231894   5.053   0.858   0.704 -0.5982  0.1959  0.0923
 3468TIP3    H131895   4.995   0.933   0.714  1.2509  1.8611 -1.0073
 3468TIP3    H231896   5.135   0.895   0.672  0.3487 -2.3229 -0.6362
 3469TIP3   OH231897   1.803   2.507   4.433 -0.3649  0.6563 -0.2893
 3469TIP3    H131898   1.884   2.491   4.481  0.5605  1.4915 -1.5306
 3469TIP3    H231899   1.763   2.420   4.426  0.2015  0.2952  0.6960
 3470TIP3   OH231900   3.060   6.630  13.479  0.5058  0.8023  0.0902
 3470TIP3    H131901   3.107   6.554  13.443  0.0099 -0.1070  1.2890
 3470TIP3    H231902   3.011   6.665  13.404 -2.8664 -2.7941  0.2698
 3471TIP3   OH231903   4.800   6.612  13.431  0.1340 -0.4750  0.0914
 3471TIP3    H131904   4.863   6.660  13.377  0.2894  0.1822  0.8414
 3471TIP3    H231905   4.854   6.559  13.489  0.1388  1.6597  2.2078
 3472TIP3   OH231906   3.936   3.821   1.917  0.0309 -0.0873  0.0645
 3472TIP3    H131907   3.931   3.738   1.870 -1.1130  1.0769 -1.9940
 3472TIP3    H231908   4.025   3.851   1.902 -0.2050  0.0821 -1.0515
 3473TIP3   OH231909   1.224   1.129  15.005  0.0640  0.0666  0.1673
 3473TIP3    H131910   1.283   1.137  14.930  2.7100 -3.5073  1.6048
 3473TIP3    H231911   1.269   1.174  15.076 -1.8829  2.4012  0.0656
 3474TIP3   OH231912   4.029   5.549   2.731  0.3942 -0.7317 -0.3060
 3474TIP3    H131913   3.954   5.559   2.672 -0.3792 -2.3169  0.3264
 3474TIP3    H231914   4.056   5.458   2.719  2.1049 -0.2613 -0.3342
 3475TIP3   OH231915   0.333   2.882  12.087  0.1707  0.1258  0.5766
 3475TIP3    H131916   0.240   2.900  12.075  0.1323 -0.9376 -1.0311
 3475TIP3    H231917   0.336   2.788  12.109  0.8757  0.1019  0.3913
 3476TIP3   OH231918   1.316   2.801  14.882 -0.4322 -0.0976 -0.2208
 3476TIP3    H131919   1.262   2.848  14.819  0.0247  0.2163 -0.3858
 3476TIP3    H231920   1.357   2.869  14.935 -0.4958 -0.3443  0.1499
 3477TIP3   OH231921   5.078   4.421   2.608 -0.2625  0.2155  0.1390
 3477TIP3    H131922   5.109   4.395   2.694 -0.7537  2.8862  1.2175
 3477TIP3    H231923   5.150   4.400   2.549  0.9005  0.2005  1.5170
 3478TIP3   OH231924   0.415   2.168   3.301 -0.2669 -0.1532 -0.0662
 3478TIP3    H131925   0.373   2.243   3.342 -0.8760  0.4788 -1.7391
 3478TIP3    H231926   0.368   2.092   3.335 -1.2766  0.3995 -0.1926
 3479TIP3   OH231927   3.947   3.576   4.685  0.3716 -0.5262  0.2169
 3479TIP3    H131928   3.903   3.569   4.770  0.7698  0.1178  0.4861
 3479TIP3    H231929   4.005   3.652   4.695  1.0395 -0.9516 -0.3560
 3480TIP3   OH231930   2.257   3.687  17.006  0.3148 -0.6094 -0.6650
 3480TIP3    H131931   2.284   3.595  17.005 -0.7459 -0.9380 -1.1190
 3480TIP3    H231932   2.176   3.688  16.954  1.1895  0.8602 -2.0921
 3481TIP3   OH231933   5.424   5.308   0.247 -0.3421  0.7427 -0.2483
 3481TIP3    H131934   5.418   5.402   0.263 -0.9307  0.5253  0.9265
 3481TIP3    H231935   5.357   5.270   0.304 -0.2024 -0.3758 -0.8163
 3482TIP3   OH231936   6.573   0.101   0.682  0.1599 -0.1030  0.2536
 3482TIP3    H131937   6.652   0.133   0.638  1.1669 -0.2198  1.9108
 3482TIP3    H231938   6.526   0.054   0.613  1.9853 -0.8276 -0.5755
 3483TIP3   OH231939   0.686   2.879  14.891 -0.0026  0.1725  0.1037
 3483TIP3    H131940   0.614   2.869  14.829 -0.1200 -0.2712  0.3092
 3483TIP3    H231941   0.759   2.909  14.837 -0.2581  0.3336 -0.1567
 3484TIP3   OH231942   2.422   6.125  10.699  0.0802 -0.5466 -0.0317
 3484TIP3    H131943   2.369   6.205  10.691 -0.1132 -0.4755  1.6637
 3484TIP3    H231944   2.509   6.157  10.726  1.1486 -0.6390 -3.0277
 3485TIP3   OH231945   3.216   6.300  12.183 -0.4482 -0.2170  0.2426
 3485TIP3    H131946   3.167   6.377  12.154  0.2527  0.4279  0.7318
 3485TIP3    H231947   3.249   6.261  12.102 -1.8830 -0.7536 -0.1050
 3486TIP3   OH231948   0.748   4.458   0.490 -0.1804  0.3740  0.3993
 3486TIP3    H131949   0.715   4.516   0.559 -0.8527  0.6945 -0.1858
 3486TIP3    H231950   0.710   4.372   0.510 -0.4728  0.4939  0.3536
 3487TIP3   OH231951   4.667   2.213  12.142  0.3758 -0.0994  0.4071
 3487TIP3    H131952   4.674   2.307  12.127 -1.7797 -0.0208 -0.4425
 3487TIP3    H231953   4.691   2.173  12.059 -0.5992 -0.1874  0.1548
 3488TIP3   OH231954   2.208   5.365  16.325  0.0667  0.0098  0.5386
 3488TIP3    H131955   2.120   5.364  16.363 -0.4490  1.1464 -0.5530
 3488TIP3    H231956   2.264   5.326  16.392 -1.3027 -0.9636  1.1501
 3489TIP3   OH231957   0.913   2.959  12.278  0.2701  0.0882  0.5329
 3489TIP3    H131958   0.953   2.970  12.192  0.3019  0.3147  0.5742
 3489TIP3    H231959   0.836   3.017  12.276 -1.1630 -1.7224 -0.2198
 3490TIP3   OH231960   3.176   4.335  17.360 -0.1060 -0.1773  0.3596
 3490TIP3    H131961   3.083   4.331  17.335  0.4737  0.2105 -2.1006
 3490TIP3    H231962   3.189   4.425  17.390 -0.1935  0.3123 -0.9750
 3491TIP3   OH231963   3.605   1.521  14.381  0.6543  0.3393  0.4777
 3491TIP3    H131964   3.544   1.594  14.390 -0.3927 -0.6491  1.7383
 3491TIP3    H231965   3.630   1.499  14.471 -1.7921 -3.0604  0.5251
 3492TIP3   OH231966   2.757   4.120  12.083 -0.2352 -0.4148 -1.3231
 3492TIP3    H131967   2.706   4.045  12.112 -1.6775  1.1610  0.5404
 3492TIP3    H231968   2.843   4.108  12.123  0.0624 -1.7785 -2.3032
 3493TIP3   OH231969   4.470   0.052  12.356 -0.5725  0.3077  0.1968
 3493TIP3    H131970   4.443   0.140  12.331 -0.6175 -0.2763 -1.9670
 3493TIP3    H231971   4.390   0.010  12.387 -0.7465  0.7187  0.3155
 3494TIP3   OH231972   4.351   2.350  10.818  0.5301  0.1900 -0.1238
 3494TIP3    H131973   4.285   2.284  10.800  2.3724 -1.6842 -0.3324
 3494TIP3    H231974   4.400   2.358  10.735  1.6316  0.2456  0.5143
 3495TIP3   OH231975   0.661   4.646  14.539  1.1251  0.0825 -0.2783
 3495TIP3    H131976   0.581   4.669  14.492  2.3630  0.9910 -2.0535
 3495TIP3    H231977   0.668   4.551  14.529 -0.2181 -0.1618  0.7703
 3496TIP3   OH231978   6.674   5.987   4.388 -0.7500  0.2022  0.0861
 3496TIP3    H131979   6.710   5.946   4.310 -2.2718  1.1843 -1.1990
 3496TIP3    H231980   6.728   6.064   4.402 -1.2252  0.7212 -0.7984
 3497TIP3   OH231981   4.124   6.310  11.999  0.4385 -0.0234 -0.4633
 3497TIP3    H131982   4.085   6.291  11.914  0.0526 -0.1194 -0.2679
 3497TIP3    H231983   4.154   6.401  11.992  0.4525 -0.0487 -0.7193
 3498TIP3   OH231984   5.292   0.557  12.135  0.2680  0.3685  0.0235
 3498TIP3    H131985   5.383   0.579  12.113  0.6787  0.9670  2.1120
 3498TIP3    H231986   5.269   0.620  12.203 -0.5125 -1.9884  2.0456
 3499TIP3   OH231987   5.138   6.032  11.205 -0.0067  0.6252 -0.0430
 3499TIP3    H131988   5.105   5.942  11.208  0.1420  0.5792  0.3710
 3499TIP3    H231989   5.177   6.045  11.292 -0.1567  1.1370 -0.0543
 3500TIP3   OH231990   2.448   0.930   5.404  0.1802  0.3154 -0.9934
 3500TIP3    H131991   2.497   0.993   5.352  0.5476  0.6199 -0.2972
 3500TIP3    H231992   2.512   0.862   5.426  0.0614  0.2494 -0.8450
 3501TIP3   OH231993   0.471   3.140  14.962  0.1219 -0.1803 -0.0733
 3501TIP3    H131994   0.556   3.160  15.001 -0.2245 -0.8165  1.0721
 3501TIP3    H231995   0.491   3.093  14.882  0.8599  0.8035 -0.4859
 3502TIP3   OH231996   0.174   4.653   2.654 -0.0041 -0.2337 -0.3433
 3502TIP3    H131997   0.139   4.579   2.603 -0.4982 -0.9663  0.9957
 3502TIP3    H231998   0.106   4.672   2.718  0.3117  1.1205 -0.3750
 3503TIP3   OH231999   2.480   5.661  10.647 -0.8250  0.2164 -0.3220
 3503TIP3    H132000   2.412   5.596  10.629 -2.5042  0.5515  3.7497
 3503TIP3    H232001   2.448   5.741  10.605 -1.1646 -0.4456 -1.3539
 3504TIP3   OH232002   4.960   0.085  16.646  0.4276  0.0876  0.8395
 3504TIP3    H132003   4.928   0.173  16.627  2.6348  0.8834  0.4604
 3504TIP3    H232004   5.047   0.100  16.684  1.7210 -1.9544 -1.0925
 3505TIP3   OH232005   3.490   5.961  12.677  0.1559  0.5825  0.0952
 3505TIP3    H132006   3.525   5.971  12.588  0.1169  3.1194  0.2930
 3505TIP3    H232007   3.423   5.893  12.669  1.3668 -0.5139 -1.4148
 3506TIP3   OH232008   5.879   5.674   2.169  0.0559 -0.3221 -0.1187
 3506TIP3    H132009   5.868   5.688   2.263 -0.3403  0.6457 -0.2991
 3506TIP3    H232010   5.899   5.761   2.133 -0.3190 -0.5857 -0.9991
 3507TIP3   OH232011   3.678   0.323  16.277  0.0798 -0.0874  0.1160
 3507TIP3    H132012   3.655   0.231  16.265 -0.9798  0.0586  0.8103
 3507TIP3    H232013   3.709   0.352  16.192  0.3712 -1.0768 -0.1217
 3508TIP3   OH232014   6.624   5.148   2.295 -0.1654 -0.7160  0.2974
 3508TIP3    H132015   6.681   5.177   2.367  1.6537  2.6450 -2.1946
 3508TIP3    H232016   6.539   5.188   2.316  0.6849  1.3693  0.0762
 3509TIP3   OH232017   2.356   0.986   0.956 -0.0275 -0.3148  0.0665
 3509TIP3    H132018   2.319   0.984   0.868 -1.3719 -0.6235  0.6066
 3509TIP3    H232019   2.430   0.926   0.952 -2.0670 -3.0138 -0.0595
 3510TIP3   OH232020   4.987   2.854  11.525 -0.4784 -0.1417  0.3094
 3510TIP3    H132021   5.011   2.901  11.445 -0.6978  2.0621  1.4693
 3510TIP3    H232022   5.070   2.822  11.560 -0.2478 -0.0975 -0.1898
 3511TIP3   OH232023   0.108   1.719   2.099  0.4614 -0.2693 -0.0520
 3511TIP3    H132024   0.193   1.701   2.139 -0.4930 -2.1523  1.2420
 3511TIP3    H232025   0.047   1.660   2.143 -1.8115  1.9800  0.0262
 3512TIP3   OH232026   4.559   2.316  14.276  0.0146 -0.1434 -0.3527
 3512TIP3    H132027   4.476   2.340  14.234  1.0621  0.3708 -2.2436
 3512TIP3    H232028   4.600   2.255  14.215 -0.3610 -3.0579  2.0816
 3513TIP3   OH232029   3.988   0.151   1.106  0.3356 -0.0389 -0.4456
 3513TIP3    H132030   4.008   0.239   1.138 -0.3947 -0.0762  0.1254
 3513TIP3    H232031   4.063   0.098   1.131 -0.5798 -0.2702  2.0352
 3514TIP3   OH232032   3.731   1.457  13.174 -0.2665  0.4669  0.4179
 3514TIP3    H132033   3.775   1.388  13.223  0.6099  1.0402  0.4683
 3514TIP3    H232034   3.642   1.457  13.207  0.4238  1.1942  2.4369
 3515TIP3   OH232035   5.414   1.295   6.061  0.3484 -0.2401  0.2247
 3515TIP3    H132036   5.434   1.270   5.971 -1.0579 -1.0329  0.1038
 3515TIP3    H232037   5.395   1.213   6.106 -0.8966  0.2977  0.7316
 3516TIP3   OH232038   4.415   5.966   2.558  0.2113  0.0508  0.1703
 3516TIP3    H132039   4.483   6.034   2.555  1.5604 -1.2847 -0.5856
 3516TIP3    H232040   4.378   5.973   2.646  0.8017  1.2974  0.3408
 3517TIP3   OH232041   5.305   1.358   3.700 -0.6517  0.3298  0.0548
 3517TIP3    H132042   5.379   1.393   3.751 -0.9005  0.3226  0.4249
 3517TIP3    H232043   5.273   1.432   3.649 -1.3824  0.7400  1.0813
 3518TIP3   OH232044   0.271   4.618   1.638  0.1050 -0.0922  0.0444
 3518TIP3    H132045   0.235   4.531   1.621  1.8858 -1.1139  1.0671
 3518TIP3    H232046   0.227   4.676   1.576 -1.1782 -1.7096 -0.6204
 3519TIP3   OH232047   5.084   1.951   0.538 -0.2766 -0.2306 -0.2131
 3519TIP3    H132048   5.144   1.984   0.472 -0.8363  0.6390 -0.3092
 3519TIP3    H232049   4.998   1.983   0.510 -0.3294  1.6658  1.8041
 3520TIP3   OH232050   0.952   3.177  16.902  0.4044 -0.0176  0.1005
 3520TIP3    H132051   0.893   3.153  16.831  0.4139  0.7829 -0.1853
 3520TIP3    H232052   0.999   3.096  16.922 -0.8545 -0.6974  0.4122
 3521TIP3   OH232053   4.952   5.925  10.584 -0.3587  0.5267 -0.0507
 3521TIP3    H132054   5.022   5.885  10.531  0.4430  1.4863  0.2589
 3521TIP3    H232055   4.917   5.852  10.634 -0.5179 -0.2323 -1.2158
 3522TIP3   OH232056   6.714   1.744   6.337 -0.5115 -0.3587  0.1471
 3522TIP3    H132057   6.705   1.787   6.422  0.6512 -1.2400  0.7491
 3522TIP3    H232058   6.695   1.652   6.355  0.8518 -0.7484 -0.2849
 3523TIP3   OH232059   6.154   4.196  16.337 -0.2237 -0.3269  0.5625
 3523TIP3    H132060   6.069   4.185  16.379 -0.2997 -0.4648  0.3750
 3523TIP3    H232061   6.135   4.198  16.244  0.1987 -2.8529  0.3549
 3524TIP3   OH232062   4.055   1.983   4.334 -0.0604 -0.2842 -0.3767
 3524TIP3    H132063   4.125   2.024   4.283 -0.1197  0.1459 -0.1231
 3524TIP3    H232064   4.072   2.011   4.424  0.6201 -1.8533  0.0037
 3525TIP3   OH232065   3.040   6.719  12.044  0.9804  0.7022  0.4393
 3525TIP3    H132066   3.110   6.734  12.108  2.8111  0.6149 -1.4148
 3525TIP3    H232067   3.004   6.634  12.067  0.8779  1.1153  1.9274
 3526TIP3   OH232068   0.991   1.111   1.011 -0.0497  0.5021  0.0042
 3526TIP3    H132069   1.085   1.123   1.029 -0.1116  0.9848  0.0023
 3526TIP3    H232070   0.971   1.026   1.051 -0.0790  1.3308  1.8764
 3527TIP3   OH232071   0.352   4.746   0.710 -0.5227 -0.0227  0.2644
 3527TIP3    H132072   0.341   4.833   0.747 -0.9457  0.0011  0.0910
 3527TIP3    H232073   0.415   4.758   0.639 -0.7110  0.1758  0.1283
 3528TIP3   OH232074   1.152   0.826  16.126 -0.3553 -0.1272 -0.0049
 3528TIP3    H132075   1.197   0.881  16.062  0.4055 -0.3441  0.3272
 3528TIP3    H232076   1.221   0.769  16.161 -1.1944 -1.5709 -0.6319
 3529TIP3   OH232077   4.355   1.011   1.981 -0.4112  0.1531 -0.0972
 3529TIP3    H132078   4.327   1.048   1.898 -0.6828  0.6320  0.2024
 3529TIP3    H232079   4.393   1.085   2.029 -1.3929  0.1626  0.6955
 3530TIP3   OH232080   1.163   5.962   4.396 -0.1232 -0.1148  0.0880
 3530TIP3    H132081   1.115   6.036   4.358  0.7029  0.8370  0.8230
 3530TIP3    H232082   1.148   5.970   4.490  1.1033 -0.0462  0.2904
 3531TIP3   OH232083   3.404   4.789   1.720 -0.1049  0.1296 -0.1620
 3531TIP3    H132084   3.497   4.802   1.704  0.0195  0.3128  0.6582
 3531TIP3    H232085   3.376   4.725   1.654  0.4525  0.5632 -0.8251
 3532TIP3   OH232086   2.923   0.699   2.913 -0.0199 -0.5880 -0.3143
 3532TIP3    H132087   2.976   0.671   2.988  0.7347 -0.2426 -0.6997
 3532TIP3    H232088   2.833   0.699   2.945  0.2038 -1.2966  0.3303
 3533TIP3   OH232089   4.034   5.833  12.382 -0.0422 -0.4832 -0.3497
 3533TIP3    H132090   4.105   5.880  12.425 -0.9355  0.9138 -0.3745
 3533TIP3    H232091   4.019   5.881  12.300 -0.8514 -0.9145 -0.4663
 3534TIP3   OH232092   0.266   4.642  14.535 -0.4188  0.2052  0.1408
 3534TIP3    H132093   0.226   4.724  14.505  1.0846  1.0733  0.4611
 3534TIP3    H232094   0.336   4.625  14.472  0.3333  0.0375  1.0108
 3535TIP3   OH232095   0.233   6.767   0.930  0.0560  0.5219  0.3452
 3535TIP3    H132096   0.276   6.836   0.879  1.4727 -0.9306 -0.5338
 3535TIP3    H232097   0.273   6.685   0.898  0.3233 -0.5389  3.1391
 3536TIP3   OH232098   2.739   5.033   1.961 -0.3618 -0.1395  0.2655
 3536TIP3    H132099   2.739   5.048   1.866  0.9669 -2.0706 -0.1036
 3536TIP3    H232100   2.756   4.939   1.971 -0.2063  0.0586  2.4213
 3537TIP3   OH232101   1.625   2.642  15.427 -0.1745  0.2166  0.2382
 3537TIP3    H132102   1.584   2.559  15.403  1.3267 -0.3521 -0.5103
 3537TIP3    H232103   1.605   2.652  15.521  0.0303 -1.2432  0.4663
 3538TIP3   OH232104   1.697   4.495  12.241  0.4999  0.1631  0.1512
 3538TIP3    H132105   1.718   4.500  12.334  2.4853 -0.1234 -0.2233
 3538TIP3    H232106   1.679   4.402  12.225 -0.7955  0.3554  0.4063
 3539TIP3   OH232107   3.197   1.454  17.495  0.2843 -0.1470 -0.3665
 3539TIP3    H132108   3.274   1.470  17.440 -0.5141  1.2416 -1.1361
 3539TIP3    H232109   3.185   1.536  17.543 -0.5641 -0.4372 -0.0676
 3540TIP3   OH232110   2.680   4.614   3.142  0.1156 -0.3659  0.3377
 3540TIP3    H132111   2.664   4.689   3.199 -3.0085 -1.6166  1.3603
 3540TIP3    H232112   2.636   4.636   3.060  1.2490 -0.1498 -0.2276
 3541TIP3   OH232113   0.866   0.366  16.559  0.2769 -0.7060  0.3989
 3541TIP3    H132114   0.845   0.273  16.565  0.6582 -0.8574 -0.4874
 3541TIP3    H232115   0.800   0.401  16.498 -1.1348  0.0239  2.2546
 3542TIP3   OH232116   3.116   2.955   3.861  0.0683  0.0972 -0.2690
 3542TIP3    H132117   3.172   2.890   3.903  1.0953  0.0097 -1.6962
 3542TIP3    H232118   3.119   3.031   3.918  0.8337 -0.2676  0.1830
 3543TIP3   OH232119   5.569   6.101  15.198 -0.4586 -0.5946  0.1239
 3543TIP3    H132120   5.561   6.033  15.131 -0.6111 -0.8149  0.3586
 3543TIP3    H232121   5.529   6.178  15.160 -1.1750 -0.9130  0.2193
 3544TIP3   OH232122   6.090   0.435   1.119  0.1003  0.7968  0.5032
 3544TIP3    H132123   6.104   0.396   1.206 -0.2108  1.9491  1.0938
 3544TIP3    H232124   6.178   0.443   1.082  0.1208 -1.1888  0.0055
 3545TIP3   OH232125   3.824   2.626   6.669 -0.0547  0.2837  0.0507
 3545TIP3    H132126   3.895   2.662   6.723  0.4110  0.7691 -0.8617
 3545TIP3    H232127   3.824   2.681   6.591 -1.6980  0.5157  0.1956
 3546TIP3   OH232128   5.726   6.270  15.625 -0.0900  0.3871  0.4406
 3546TIP3    H132129   5.636   6.243  15.608 -0.2561  0.6719  0.8557
 3546TIP3    H232130   5.760   6.297  15.539 -0.0642 -0.6926  0.0922
 3547TIP3   OH232131   4.977   6.297  14.860  0.1933  0.0687 -0.3958
 3547TIP3    H132132   4.912   6.260  14.920 -0.5829  1.8387 -0.0853
 3547TIP3    H232133   4.958   6.390  14.859  1.9165  0.4445 -1.3447
 3548TIP3   OH232134   6.169   0.086  10.893 -0.0785  0.2135 -0.7512
 3548TIP3    H132135   6.114   0.159  10.921 -0.1556  0.1851 -0.8251
 3548TIP3    H232136   6.179   0.099  10.799  1.7560  1.3734 -0.4382
 3549TIP3   OH232137   3.532   0.581  14.881  0.2374 -0.4652 -0.5819
 3549TIP3    H132138   3.590   0.653  14.906  0.2554 -0.3989 -0.8111
 3549TIP3    H232139   3.580   0.502  14.908 -0.6868 -0.3473  1.5786
 3550TIP3   OH232140   5.429   2.123  10.660 -0.7051 -0.2122 -0.1652
 3550TIP3    H132141   5.520   2.139  10.683 -0.7261  0.6807 -0.6715
 3550TIP3    H232142   5.379   2.173  10.726 -0.8247 -0.3732 -0.1325
 3551TIP3   OH232143   2.715   0.191  15.066 -0.3044 -0.0345 -0.5221
 3551TIP3    H132144   2.749   0.173  14.978 -0.6541 -2.9661 -0.1501
 3551TIP3    H232145   2.792   0.185  15.123 -0.5144 -1.2552 -0.3239
 3552TIP3   OH232146   4.558   0.011   1.260 -0.1378 -0.2754  0.1311
 3552TIP3    H132147   4.508  -0.071   1.265  1.5432 -1.2631  2.2063
 3552TIP3    H232148   4.634  -0.011   1.206  0.5213 -0.2364  1.0221
 3553TIP3   OH232149   6.751   3.612  12.961  0.4595  0.0621  0.0498
 3553TIP3    H132150   6.767   3.550  13.033  0.4074  1.3832  1.2397
 3553TIP3    H232151   6.657   3.629  12.965  0.3656 -0.2614 -0.6900
 3554TIP3   OH232152   2.531   0.864   6.187  0.1254 -0.2607 -0.7103
 3554TIP3    H132153   2.578   0.927   6.133  0.4952 -0.9770 -1.2360
 3554TIP3    H232154   2.440   0.893   6.184 -0.0498 -0.9354 -2.6529
 3555TIP3   OH232155   1.286   6.613   4.837 -0.4617 -0.0559 -0.3232
 3555TIP3    H132156   1.262   6.649   4.922 -0.5841  0.2295 -0.4789
 3555TIP3    H232157   1.381   6.598   4.844 -0.1165  1.6808 -0.7532
 3556TIP3   OH232158   6.214   1.314   3.677 -0.5212 -0.4836 -0.6255
 3556TIP3    H132159   6.255   1.228   3.667 -0.9634 -0.6870 -0.7189
 3556TIP3    H232160   6.226   1.337   3.769 -0.6558 -0.7741 -0.5366
 3557TIP3   OH232161   4.013   1.881  14.699 -0.1441  0.5725  0.5225
 3557TIP3    H132162   4.058   1.799  14.681  1.1987  1.7927 -2.1993
 3557TIP3    H232163   4.079   1.937  14.739 -1.4406  0.0027  3.8320
 3558TIP3   OH232164   1.222   3.262  11.581 -0.0215 -0.1903 -0.0494
 3558TIP3    H132165   1.257   3.304  11.660  1.2062 -0.5281 -0.3865
 3558TIP3    H232166   1.219   3.332  11.516 -0.7987  0.0329  0.2201
 3559TIP3   OH232167   5.217   6.012  12.116  0.6084 -0.2988  0.3646
 3559TIP3    H132168   5.255   5.947  12.175 -0.6203 -0.6492  0.8142
 3559TIP3    H232169   5.289   6.071  12.095  1.5595 -1.3459  0.5870
 3560TIP3   OH232170   2.131   1.112   5.316  0.0724 -0.3633  0.2319
 3560TIP3    H132171   2.065   1.180   5.301  0.6864  0.1825 -0.0454
 3560TIP3    H232172   2.080   1.034   5.341 -0.5964  0.3581  1.1688
 3561TIP3   OH232173   6.736   3.471  14.512 -0.0357 -0.5821 -0.3273
 3561TIP3    H132174   6.814   3.526  14.502  0.2654 -1.1756 -1.4362
 3561TIP3    H232175   6.664   3.533  14.520  0.4668 -0.0259  0.0220
 3562TIP3   OH232176   0.040   0.097   2.011  0.2327  0.2086 -0.3449
 3562TIP3    H132177   0.012   0.188   2.002 -0.1671  0.1839  0.4855
 3562TIP3    H232178   0.126   0.102   2.053 -0.8021  0.1823  1.9369
 3563TIP3   OH232179   0.484   1.282  12.096  0.2422  0.4577  0.0909
 3563TIP3    H132180   0.500   1.239  12.012 -1.7961 -1.8921  0.7740
 3563TIP3    H232181   0.409   1.340  12.080  2.4216  3.2508 -0.6061
 3564TIP3   OH232182   3.676   3.727   4.266 -0.1723 -0.0850 -0.3795
 3564TIP3    H132183   3.747   3.753   4.324  0.6997  0.9179 -1.8170
 3564TIP3    H232184   3.600   3.778   4.295 -0.2301 -0.8793  0.9260
 3565TIP3   OH232185   2.311   5.484   6.309  0.1383 -0.3753 -0.5825
 3565TIP3    H132186   2.233   5.508   6.360  0.3562  0.7678 -0.7603
 3565TIP3    H232187   2.351   5.414   6.359 -0.2802 -0.0583  0.2261
 3566TIP3   OH232188   5.285   3.581   4.638  0.2733  0.5686 -0.4114
 3566TIP3    H132189   5.261   3.558   4.728  0.0299  1.5851 -0.2038
 3566TIP3    H232190   5.204   3.616   4.600  0.7583  1.6449 -0.5073
 3567TIP3   OH232191   6.098   2.130   2.004 -0.5809  0.0937  0.1588
 3567TIP3    H132192   6.029   2.179   1.960  0.4783  0.9700 -0.5942
 3567TIP3    H232193   6.155   2.196   2.042 -0.9280 -0.6420  2.0566
 3568TIP3   OH232194   6.694   2.250   2.796  0.0049  0.2562  0.3312
 3568TIP3    H132195   6.745   2.246   2.876 -0.5961  0.3625  0.7290
 3568TIP3    H232196   6.620   2.191   2.811  1.0450 -1.4714 -0.9997
 3569TIP3   OH232197   2.445   2.946  13.101  0.5724 -0.6334  0.2343
 3569TIP3    H132198   2.402   2.869  13.064  0.0017 -0.5059  0.6344
 3569TIP3    H232199   2.473   2.919  13.188 -0.7148 -0.0244  0.8610
 3570TIP3   OH232200   5.074   5.927   2.946 -0.3472  0.3104 -0.2110
 3570TIP3    H132201   5.051   5.911   2.854  2.5018  0.3744 -1.0399
 3570TIP3    H232202   5.153   5.980   2.942 -0.2124  0.4099  2.3101
 3571TIP3   OH232203   6.445   4.783  13.457  0.8972 -0.4044 -0.3295
 3571TIP3    H132204   6.442   4.823  13.544  0.1750  0.7864 -0.8679
 3571TIP3    H232205   6.398   4.845  13.401  1.5674 -1.0250 -1.6185
 3572TIP3   OH232206   3.639   5.061   3.237  0.1535  0.2379  0.1125
 3572TIP3    H132207   3.662   5.005   3.310  1.2968  1.0837  0.4209
 3572TIP3    H232208   3.646   5.005   3.160  1.2611 -0.0526  0.4166
 3573TIP3   OH232209   1.114   0.388   4.401  1.4739 -0.6067  0.2214
 3573TIP3    H132210   1.073   0.474   4.408 -0.4030 -1.3349 -1.0580
 3573TIP3    H232211   1.052   0.329   4.444  2.1183 -1.4988 -0.0512
 3574TIP3   OH232212   5.020   2.741  15.746  0.2940  0.1251 -0.7280
 3574TIP3    H132213   5.105   2.748  15.790 -0.1543  1.3544  0.0124
 3574TIP3    H232214   4.956   2.747  15.817 -0.4174 -1.2475 -1.2264
 3575TIP3   OH232215   2.539   4.735   2.702  0.4551 -0.8927  0.3888
 3575TIP3    H132216   2.584   4.701   2.625 -0.3842  0.9671 -0.9801
 3575TIP3    H232217   2.514   4.656   2.751  1.5212 -2.0976 -0.9053
 3576TIP3   OH232218   1.687   1.366  11.598  0.0431 -0.6713  0.0376
 3576TIP3    H132219   1.778   1.383  11.571  0.0856 -1.4363 -0.2974
 3576TIP3    H232220   1.695   1.341  11.690  0.3945 -2.6566 -0.4991
 3577TIP3   OH232221   6.079   0.588   0.177 -0.0086 -0.0030 -0.2022
 3577TIP3    H132222   6.141   0.531   0.132 -0.7651 -0.3762 -0.7967
 3577TIP3    H232223   6.114   0.598   0.266  0.2266 -1.2535 -0.1447
 3578TIP3   OH232224   5.214   1.050  13.918  0.1555  0.0126  0.1603
 3578TIP3    H132225   5.165   0.970  13.938  0.7026 -0.6289 -0.9216
 3578TIP3    H232226   5.290   1.048  13.976 -0.1035  0.0220  0.5017
 3579TIP3   OH232227   1.944   3.576  11.432 -0.3267  0.3727  0.0827
 3579TIP3    H132228   1.999   3.591  11.356 -0.5839  0.9507  0.0106
 3579TIP3    H232229   1.997   3.604  11.506  0.0107 -0.4011  0.1484
 3580TIP3   OH232230   3.080   5.116   3.985 -0.2267  0.1027 -0.0765
 3580TIP3    H132231   3.082   5.172   3.907 -0.1071  0.0941 -0.0793
 3580TIP3    H232232   3.063   5.028   3.951 -0.3108  0.1206 -0.0809
 3581TIP3   OH232233   0.987   0.612   5.103  1.1023  0.1266  0.0165
 3581TIP3    H132234   1.010   0.593   5.012  0.5624  0.7728 -0.2723
 3581TIP3    H232235   0.979   0.708   5.106  0.9439  0.0990  0.7034
 3582TIP3   OH232236   3.520   3.985  15.593 -0.5439  0.3409 -0.0108
 3582TIP3    H132237   3.564   3.933  15.526 -0.7157  0.7452 -0.4329
 3582TIP3    H232238   3.429   3.955  15.591 -0.1682 -1.0587  1.3955
 3583TIP3   OH232239   5.697   2.205  17.230  0.1151 -0.4141  0.5248
 3583TIP3    H132240   5.741   2.206  17.315  1.1956  2.7986  0.0260
 3583TIP3    H232241   5.731   2.126  17.187  1.1025 -1.0042  2.2695
 3584TIP3   OH232242   3.559   3.522  10.638  0.5178  0.6197  0.2429
 3584TIP3    H132243   3.485   3.469  10.666  0.1664  1.2038  0.4437
 3584TIP3    H232244   3.550   3.528  10.543  0.2098  0.8224  0.2821
 3585TIP3   OH232245   0.584   1.238  14.365  0.9984  0.3223 -0.5489
 3585TIP3    H132246   0.591   1.323  14.410  1.2852  0.4099 -0.7561
 3585TIP3    H232247   0.494   1.235  14.334  0.8896  0.4051 -0.2494
 3586TIP3   OH232248   4.875   4.475   1.925 -0.4840 -0.1560 -0.4319
 3586TIP3    H132249   4.922   4.542   1.875 -0.8443  0.5636  0.1646
 3586TIP3    H232250   4.887   4.394   1.875  2.8457 -0.3994  0.5164
 3587TIP3   OH232251   4.104   3.182  16.604  0.5008 -0.0978  0.6812
 3587TIP3    H132252   4.132   3.142  16.686  1.7297 -0.0376  0.3084
 3587TIP3    H232253   4.154   3.136  16.536 -0.1601  0.1603 -0.0001
 3588TIP3   OH232254   2.163   5.784   3.439 -0.1209 -0.0448 -0.3712
 3588TIP3    H132255   2.177   5.817   3.528 -0.9235 -0.7920  0.0466
 3588TIP3    H232256   2.165   5.689   3.448 -0.4142 -0.1299 -1.1223
 3589TIP3   OH232257   1.260   1.834   5.914  0.1626 -0.0962  0.1645
 3589TIP3    H132258   1.327   1.871   5.856 -0.4388  0.3932 -0.2229
 3589TIP3    H232259   1.306   1.766   5.963  1.2119  0.9372  0.6621
 3590TIP3   OH232260   2.767   1.525  14.539 -0.0343 -0.1466  0.0435
 3590TIP3    H132261   2.795   1.528  14.630  0.0356  0.7047  0.0020
 3590TIP3    H232262   2.710   1.448  14.533 -0.0862 -0.1691  0.8110
 3591TIP3   OH232263   2.322   0.303   2.332 -0.0191 -0.2312 -0.1207
 3591TIP3    H132264   2.398   0.353   2.303 -0.4897  1.1942  0.9455
 3591TIP3    H232265   2.341   0.279   2.422  0.7018 -3.1185 -0.9391
 3592TIP3   OH232266   4.535   0.342  16.972 -0.1740  0.3829 -0.3051
 3592TIP3    H132267   4.512   0.428  16.936 -1.0901 -0.2297 -1.2652
 3592TIP3    H232268   4.477   0.332  17.047  0.3329  0.8276  0.1554
 3593TIP3   OH232269   1.670   3.096   0.648 -0.6474 -0.4880  0.2317
 3593TIP3    H132270   1.684   3.167   0.710 -0.0374 -0.4173  0.0298
 3593TIP3    H232271   1.753   3.047   0.649 -0.3868 -0.1047 -0.9946
 3594TIP3   OH232272   1.390   5.689   2.273 -0.7711  0.1039  0.1873
 3594TIP3    H132273   1.323   5.717   2.336 -0.7661 -0.3239  0.3889
 3594TIP3    H232274   1.345   5.686   2.189 -0.5892  1.4385  0.0143
 3595TIP3   OH232275   5.810   5.706  10.945  0.4695 -0.3053  0.3141
 3595TIP3    H132276   5.775   5.660  10.868  0.4261  0.2114  0.0151
 3595TIP3    H232277   5.893   5.743  10.915  1.5207 -1.8948  1.1514
 3596TIP3   OH232278   2.823   2.125  11.400  0.2160  0.4825  0.6452
 3596TIP3    H132279   2.887   2.056  11.420 -0.0052  0.2553  0.5813
 3596TIP3    H232280   2.856   2.167  11.321 -0.4029 -0.5155 -0.1683
 3597TIP3   OH232281   3.919   2.122   5.142  0.4668  0.5355 -0.2416
 3597TIP3    H132282   3.855   2.096   5.209  0.1458  0.6087 -0.5177
 3597TIP3    H232283   3.905   2.217   5.132 -0.9495  0.2034 -1.9199
 3598TIP3   OH232284   4.271   4.091  11.509 -0.2328  1.4142  0.0612
 3598TIP3    H132285   4.192   4.056  11.550  0.7058  0.0298  0.7847
 3598TIP3    H232286   4.243   4.121  11.423 -1.0338 -1.7728 -0.9072
 3599TIP3   OH232287   1.285   3.120  13.233  0.7669 -0.0850 -0.0643
 3599TIP3    H132288   1.327   3.205  13.217  1.1804 -0.5633 -1.7170
 3599TIP3    H232289   1.297   3.105  13.327  1.0816  1.4652  0.1802
 3600TIP3   OH232290   2.123   2.757  15.130  0.3902  0.3939  0.1459
 3600TIP3    H132291   2.134   2.759  15.225 -0.2562 -0.0943  0.2412
 3600TIP3    H232292   2.204   2.793  15.096  0.3797  1.1824  0.8985
 3601TIP3   OH232293   2.584   0.536  16.400  0.3493 -0.3240 -0.2257
 3601TIP3    H132294   2.564   0.600  16.332 -1.4664  0.9473  1.3693
 3601TIP3    H232295   2.669   0.563  16.435 -0.0906  0.8430 -0.0186
 3602TIP3   OH232296   3.395   3.838   2.261 -0.4512  0.3091  0.2524
 3602TIP3    H132297   3.300   3.837   2.274 -0.6078 -3.8452  0.2021
 3602TIP3    H232298   3.406   3.861   2.169 -1.4012  0.6159  0.2015
 3603TIP3   OH232299   4.332   1.964  17.374  0.1906  0.2155  0.7634
 3603TIP3    H132300   4.379   2.000  17.299  1.2357  1.6052  2.0319
 3603TIP3    H232301   4.336   1.869  17.362  0.2348  0.4136 -0.9752
 3604TIP3   OH232302   2.764   0.479   1.279 -0.0941 -0.0865 -0.2549
 3604TIP3    H132303   2.746   0.435   1.362 -0.1395  0.9408  0.2848
 3604TIP3    H232304   2.828   0.421   1.236 -1.8533 -1.8866 -0.6070
 3605TIP3   OH232305   5.790   5.044  12.113 -0.1488  0.0844 -0.4162
 3605TIP3    H132306   5.781   5.112  12.046 -2.7877 -0.2857 -0.5685
 3605TIP3    H232307   5.804   5.092  12.194  0.9825  0.6386 -0.9181
 3606TIP3   OH232308   6.550   0.236   4.849 -0.0195  0.6928 -0.1087
 3606TIP3    H132309   6.524   0.144   4.845 -1.2136  1.0241 -0.4133
 3606TIP3    H232310   6.633   0.235   4.896  0.1743 -0.5724 -0.4253
 3607TIP3   OH232311   6.440   3.867   2.477  0.1413 -0.2983 -0.5046
 3607TIP3    H132312   6.350   3.869   2.446 -0.2555 -0.1900  0.6124
 3607TIP3    H232313   6.492   3.890   2.400 -0.8600  0.7467 -0.8987
 3608TIP3   OH232314   5.028   4.670   2.541  0.5474 -0.3852  0.0974
 3608TIP3    H132315   5.048   4.589   2.589 -0.2652 -0.3668  0.4830
 3608TIP3    H232316   5.095   4.732   2.571 -1.0444  0.2116  2.7411
 3609TIP3   OH232317   3.535   0.299  15.975 -0.6699  0.0098 -0.2635
 3609TIP3    H132318   3.512   0.337  15.890  1.5262 -1.6961 -1.7440
 3609TIP3    H232319   3.615   0.344  16.000 -0.6490 -0.3413  0.3100
 3610TIP3   OH232320   4.582   6.321   1.121  0.4016  0.6761  0.6660
 3610TIP3    H132321   4.623   6.240   1.092  1.4557  1.1547  0.7619
 3610TIP3    H232322   4.542   6.299   1.205 -0.9023 -0.1886 -0.1540
 3611TIP3   OH232323   1.548   0.320   5.142  0.1417 -0.0344  0.8171
 3611TIP3    H132324   1.460   0.338   5.108  0.5187  1.0950  0.3886
 3611TIP3    H232325   1.606   0.336   5.067  0.8313  0.7141  1.4844
 3612TIP3   OH232326   5.816   0.722   2.785 -0.0165  1.2559 -0.3804
 3612TIP3    H132327   5.779   0.641   2.752  1.8103 -0.0701  0.6351
 3612TIP3    H232328   5.802   0.786   2.715 -1.4719  0.0759 -1.1986
 3613TIP3   OH232329   5.220   3.079   0.500 -0.4039 -0.7684  0.0466
 3613TIP3    H132330   5.194   3.061   0.591  0.0376  2.0956  0.8358
 3613TIP3    H232331   5.314   3.058   0.498 -0.3772 -0.6738  0.2994
 3614TIP3   OH232332   5.360   0.450  13.674 -0.5745 -0.1855  0.2395
 3614TIP3    H132333   5.281   0.396  13.683 -0.8968 -0.2065 -2.1885
 3614TIP3    H232334   5.423   0.394  13.628  1.6083 -0.7909  3.5983
 3615TIP3   OH232335   0.364   2.986   4.728  0.2464 -0.3225  0.1916
 3615TIP3    H132336   0.352   2.949   4.815 -3.0754 -0.4633 -0.2156
 3615TIP3    H232337   0.365   3.081   4.743 -1.4323 -0.3017  0.3410
 3616TIP3   OH232338   1.100   6.322   5.810 -0.6685  0.0474 -0.2582
 3616TIP3    H132339   1.067   6.264   5.879 -2.3613 -0.2032 -1.2039
 3616TIP3    H232340   1.101   6.268   5.732  3.1874 -0.2854 -0.1758
 3617TIP3   OH232341   3.231   4.644  17.481 -0.0480 -0.1182  0.4644
 3617TIP3    H132342   3.289   4.703  17.433  0.5841 -0.2957  0.9947
 3617TIP3    H232343   3.223   4.684  17.568 -0.3455 -0.3422  0.5423
 3618TIP3   OH232344   2.751   3.706  11.761 -0.3964 -0.1424 -0.1358
 3618TIP3    H132345   2.770   3.654  11.840  0.3307 -0.3212 -0.4215
 3618TIP3    H232346   2.765   3.645  11.689  0.6616  0.4844 -0.4885
 3619TIP3   OH232347   3.075   1.490   3.874  0.2957 -0.3803 -0.4018
 3619TIP3    H132348   3.155   1.463   3.919  0.4910 -1.5658 -1.3850
 3619TIP3    H232349   3.082   1.585   3.866  1.9319 -0.5215 -1.0229
 3620TIP3   OH232350   3.964   4.293  15.095 -0.2803 -0.6215  0.9157
 3620TIP3    H132351   4.058   4.312  15.096 -0.4701  0.3402  1.8444
 3620TIP3    H232352   3.959   4.204  15.059  1.0111 -0.8340  1.1731
 3621TIP3   OH232353   6.192   5.046   5.504 -0.4921 -0.3072  0.0569
 3621TIP3    H132354   6.204   5.140   5.518 -0.6534 -0.1435 -0.8717
 3621TIP3    H232355   6.138   5.040   5.425 -1.0727 -1.1685  0.5033
 3622TIP3   OH232356   4.461   4.365   1.139  0.1991 -0.2158 -0.9013
 3622TIP3    H132357   4.424   4.451   1.116  1.4646  0.0993 -1.8146
 3622TIP3    H232358   4.536   4.354   1.081  1.9239 -0.5792  1.2795
 3623TIP3   OH232359   0.093   5.253  16.232 -0.1262  0.3249  0.2477
 3623TIP3    H132360   0.100   5.163  16.267 -0.3875 -0.3378 -1.3274
 3623TIP3    H232361   0.157   5.256  16.161  0.0830  1.5022  0.4635
 3624TIP3   OH232362   0.548   0.752   5.359  0.4221 -0.0635  0.6061
 3624TIP3    H132363   0.617   0.727   5.421 -0.8349 -2.5933  1.0893
 3624TIP3    H232364   0.595   0.789   5.285  2.0778  1.4815  2.3045
 3625TIP3   OH232365   1.983   2.396   4.205  0.3303  0.0982 -0.1240
 3625TIP3    H132366   1.946   2.366   4.122  0.8489  0.9719 -0.6918
 3625TIP3    H232367   2.018   2.317   4.246  0.1282 -0.3331 -0.7685
 3626TIP3   OH232368   0.707   1.264  13.984 -0.2233  0.0871  0.3858
 3626TIP3    H132369   0.749   1.187  13.946  0.4488 -0.2870  1.8088
 3626TIP3    H232370   0.702   1.244  14.078 -0.0923  1.7431  0.7743
 3627TIP3   OH232371   4.324   6.735  12.893  1.0540  0.0771 -0.7266
 3627TIP3    H132372   4.371   6.808  12.850  0.5267  0.2437 -1.0226
 3627TIP3    H232373   4.392   6.690  12.943  1.2468  1.2387  0.0987
 3628TIP3   OH232374   2.119   0.845  15.693 -0.1165 -0.7650 -0.2356
 3628TIP3    H132375   2.051   0.836  15.759  1.1979 -1.3400  1.1052
 3628TIP3    H232376   2.159   0.758  15.686  2.6888  0.2328  1.5838
 3629TIP3   OH232377   3.415   6.551  13.720  0.5479 -0.4364  0.1513
 3629TIP3    H132378   3.450   6.463  13.706  2.1061  0.3459 -1.1378
 3629TIP3    H232379   3.489   6.602  13.751 -0.0815  0.6660 -0.1071
 3630TIP3   OH232380   0.987   0.906  11.409 -0.6689  0.3211 -0.4801
 3630TIP3    H132381   0.937   0.831  11.441 -1.2322  1.1855  0.7245
 3630TIP3    H232382   0.936   0.939  11.336 -0.4572 -0.4101 -0.9712
 3631TIP3   OH232383   3.344   4.191  15.488  0.3287 -0.2131 -0.1416
 3631TIP3    H132384   3.303   4.139  15.420  0.7883 -0.5143 -0.1923
 3631TIP3    H232385   3.271   4.227  15.539  0.0082 -0.7765 -0.2026
 3632TIP3   OH232386   6.310   1.869   6.539  0.1924 -0.1646 -0.0327
 3632TIP3    H132387   6.333   1.949   6.587  0.6329 -0.2681 -0.0691
 3632TIP3    H232388   6.216   1.859   6.555  0.3316 -0.2167  0.8406
 3633TIP3   OH232389   4.955   4.905  15.261 -0.3206 -0.1760 -0.4418
 3633TIP3    H132390   4.902   4.985  15.265 -0.8217 -0.5387  0.4023
 3633TIP3    H232391   5.044   4.934  15.285 -0.4347  0.1851 -0.4550
 3634TIP3   OH232392   2.674   1.673  15.810 -0.0108 -0.2060  0.4380
 3634TIP3    H132393   2.685   1.595  15.865  0.7224 -0.1268  0.4127
 3634TIP3    H232394   2.611   1.646  15.743  0.8348 -1.0452 -0.0470
 3635TIP3   OH232395   0.771   6.611  12.392  0.2426  0.8093 -0.3287
 3635TIP3    H132396   0.801   6.670  12.322 -0.5523  2.5013  0.6875
 3635TIP3    H232397   0.676   6.615  12.386  0.1400 -1.3425 -0.9617
 3636TIP3   OH232398   0.008   0.723  16.302 -0.5819  0.5100  0.1330
 3636TIP3    H132399  -0.060   0.780  16.266  2.1075  2.2645 -2.6964
 3636TIP3    H232400   0.023   0.756  16.391 -1.5140  1.9522 -0.2104
 3637TIP3   OH232401   4.982   5.505   4.779 -0.0003 -0.0594  0.0976
 3637TIP3    H132402   5.057   5.450   4.758  0.1136  0.6513 -1.4519
 3637TIP3    H232403   4.947   5.467   4.860  2.1515 -0.2618  1.0074
 3638TIP3   OH232404   6.488   3.478   4.740  0.2590  0.0226  0.6186
 3638TIP3    H132405   6.566   3.434   4.774  1.2769  2.1839  1.2594
 3638TIP3    H232406   6.522   3.544   4.680 -1.2327 -0.3001 -0.6289
 3639TIP3   OH232407   5.459   6.188  16.787 -0.4104  0.1752  0.6352
 3639TIP3    H132408   5.395   6.170  16.857 -1.6985  1.4604 -0.1494
 3639TIP3    H232409   5.505   6.266  16.817  0.7956 -0.7252  1.1760
 3640TIP3   OH232410   1.472   4.219  11.153  0.3014  0.2388 -0.5206
 3640TIP3    H132411   1.416   4.292  11.129  0.1001 -0.1773 -1.3396
 3640TIP3    H232412   1.412   4.148  11.176  0.4892  0.0380 -0.6403
 3641TIP3   OH232413   3.166   1.872  15.846 -0.0234  0.6178  0.3951
 3641TIP3    H132414   3.202   1.901  15.763 -1.4221  1.2041 -0.0441
 3641TIP3    H232415   3.077   1.843  15.824  0.6760 -2.4693  1.0926
 3642TIP3   OH232416   1.634   0.261   5.394  0.2208  0.2624  0.2612
 3642TIP3    H132417   1.590   0.286   5.313  0.2091 -0.9000 -0.1137
 3642TIP3    H232418   1.566   0.268   5.462 -0.0715  0.1624 -0.0191
 3643TIP3   OH232419   4.996   3.032  11.294  0.0153  0.8138  0.2073
 3643TIP3    H132420   4.978   3.082  11.214  0.6585  2.6361  1.1497
 3643TIP3    H232421   4.913   2.987  11.313 -0.5256  1.3475 -0.7956
 3644TIP3   OH232422   2.863   6.251  16.328  0.1616 -0.4657 -0.8087
 3644TIP3    H132423   2.830   6.268  16.416  0.2042  0.0092 -0.8830
 3644TIP3    H232424   2.868   6.337  16.287 -0.6815 -0.7554 -1.5659
 3645TIP3   OH232425   1.778   0.694   0.741  0.5610  0.1502  0.1367
 3645TIP3    H132426   1.867   0.681   0.708 -0.0331 -0.2893 -1.4008
 3645TIP3    H232427   1.772   0.788   0.757  0.4031  0.7451 -2.7557
 3646TIP3   OH232428   2.020   1.931   1.504 -0.0068  0.1916 -0.0933
 3646TIP3    H132429   2.071   2.011   1.502  1.7129 -0.7940  1.1761
 3646TIP3    H232430   1.988   1.920   1.414  2.4345  0.6401 -1.0947
 3647TIP3   OH232431   2.236   2.592  14.351  0.4693  0.0848 -0.0908
 3647TIP3    H132432   2.187   2.519  14.388  0.8568  0.6023  1.5141
 3647TIP3    H232433   2.170   2.643  14.303 -0.0693 -0.5595 -0.0511
 3648TIP3   OH232434   1.733   2.165   0.427  0.6901 -0.0169  0.5043
 3648TIP3    H132435   1.770   2.080   0.404 -0.2795 -0.0759 -0.9655
 3648TIP3    H232436   1.669   2.146   0.496 -0.4757 -0.7065 -0.7205
 3649TIP3   OH232437   4.963   6.126  10.733  0.1822 -0.4295 -0.0690
 3649TIP3    H132438   4.947   6.072  10.655 -0.6012 -0.4428  0.0948
 3649TIP3    H232439   4.998   6.065  10.798  0.0822 -0.5772 -0.1529
 3650TIP3   OH232440   3.873   0.037   5.841 -0.0714  0.2774  0.0615
 3650TIP3    H132441   3.893  -0.029   5.775 -1.6935  0.5233 -0.7438
 3650TIP3    H232442   3.883   0.120   5.796 -0.0537  0.4934  0.4610
 3651TIP3   OH232443   1.369   1.026   2.565 -0.0300  0.4757  0.0393
 3651TIP3    H132444   1.393   1.054   2.653  0.8373  3.0144 -0.9278
 3651TIP3    H232445   1.448   0.982   2.532  0.6917  2.0861 -0.4524
 3652TIP3   OH232446   5.130   0.977  13.109 -0.3100 -0.5516 -0.3141
 3652TIP3    H132447   5.087   1.033  13.173  0.5410  0.5442 -0.6809
 3652TIP3    H232448   5.060   0.949  13.051 -0.4013  2.6316 -1.9705
 3653TIP3   OH232449   4.175   4.877   2.380  0.0951  0.1925 -0.0383
 3653TIP3    H132450   4.112   4.813   2.414  0.4653 -0.1296  0.0496
 3653TIP3    H232451   4.127   4.960   2.379 -0.4978 -0.1468 -0.4614
 3654TIP3   OH232452   4.391   3.601   5.489 -0.3422  0.0677  0.0561
 3654TIP3    H132453   4.372   3.659   5.416 -1.1054  1.3819  1.2573
 3654TIP3    H232454   4.471   3.637   5.528 -0.4735 -0.0562  0.4420
 3655TIP3   OH232455   4.873   1.150  12.931 -0.5511 -0.5414 -0.1958
 3655TIP3    H132456   4.828   1.165  12.849  1.9396 -0.5487 -1.6648
 3655TIP3    H232457   4.902   1.059  12.926 -1.6720 -1.0315  1.4201
 3656TIP3   OH232458   1.590   4.956  12.233 -0.3944 -0.4723 -0.0062
 3656TIP3    H132459   1.648   4.986  12.162 -0.2980 -0.5641  0.0342
 3656TIP3    H232460   1.576   4.863  12.215 -0.3530 -0.5004  0.1083
 3657TIP3   OH232461   3.026   6.009   2.715 -0.0112  0.3243  0.3704
 3657TIP3    H132462   3.118   6.034   2.722  0.1902 -0.6052  1.1946
 3657TIP3    H232463   3.024   5.944   2.644  0.1531 -0.4879  1.1035
 3658TIP3   OH232464   0.615   0.516   1.627 -0.1376 -0.0426  0.2011
 3658TIP3    H132465   0.607   0.611   1.627  0.9458  0.0656 -0.2503
 3658TIP3    H232466   0.699   0.499   1.583 -0.3485 -1.2042  0.2120
 3659TIP3   OH232467   2.012   4.013   1.218  0.3894  0.0881  0.6523
 3659TIP3    H132468   2.072   3.939   1.212 -0.1598 -0.2659 -1.2545
 3659TIP3    H232469   2.051   4.080   1.162 -0.8118 -0.0393 -0.3823
 3660TIP3   OH232470   2.202   1.981  13.379 -0.5279 -0.8042 -0.1555
 3660TIP3    H132471   2.296   1.995  13.372 -0.6802  0.9249  0.7341
 3660TIP3    H232472   2.168   2.004  13.292 -0.4543  2.1033  0.4789
 3661TIP3   OH232473   4.598   4.952  12.790 -0.6321  0.3772 -0.0105
 3661TIP3    H132474   4.655   4.925  12.718  0.4814 -1.4967  1.4612
 3661TIP3    H232475   4.510   4.951  12.752  0.1443  2.3911 -2.0878
 3662TIP3   OH232476   0.862   0.328   2.360 -0.7034 -0.4658  0.0905
 3662TIP3    H132477   0.893   0.284   2.439 -3.2125  0.0338  1.4724
 3662TIP3    H232478   0.862   0.259   2.293  2.2731 -0.6908  0.2022
 3663TIP3   OH232479   5.328   3.038   5.625  0.8681 -0.2453  0.4517
 3663TIP3    H132480   5.358   3.129   5.632  0.0960 -0.0702  1.9506
 3663TIP3    H232481   5.232   3.044   5.630  0.6761 -1.0225 -1.3383
 3664TIP3   OH232482   5.538   5.701  14.266  0.4742  0.2895 -0.5496
 3664TIP3    H132483   5.621   5.735  14.232  1.0735 -0.0199  0.5365
 3664TIP3    H232484   5.536   5.609  14.239 -0.4412  0.7571 -2.2056
 3665TIP3   OH232485   5.665   3.777   2.045 -0.4089  0.5057 -0.2365
 3665TIP3    H132486   5.590   3.826   2.012 -0.5132  0.2718 -0.3472
 3665TIP3    H232487   5.720   3.843   2.089 -0.0013  0.9178 -1.3360
 3666TIP3   OH232488   5.212   5.637   0.815  0.6075 -0.0500  0.1240
 3666TIP3    H132489   5.180   5.561   0.767 -2.5380  0.2137  1.5650
 3666TIP3    H232490   5.217   5.607   0.906  1.6437  0.8412  0.3839
 3667TIP3   OH232491   0.755   5.944  15.829  0.3365 -0.6308 -0.0255
 3667TIP3    H132492   0.714   5.860  15.849  0.6560 -0.9102 -0.5201
 3667TIP3    H232493   0.683   6.007  15.832 -0.0816 -1.0696 -0.5953
 3668TIP3   OH232494   0.972   3.768  14.168  0.3911  0.3394  0.0363
 3668TIP3    H132495   1.026   3.765  14.089 -0.2578  0.2246 -0.4160
 3668TIP3    H232496   1.025   3.727  14.235  1.2205  1.0282 -0.1747
 3669TIP3   OH232497   6.470   1.089   3.657  0.1462 -0.2890 -0.2329
 3669TIP3    H132498   6.411   1.043   3.597 -3.4327 -0.5061  2.9982
 3669TIP3    H232499   6.495   1.023   3.721 -0.3733  0.9324  1.3019
 3670TIP3   OH232500   0.142   6.714  16.167  0.2490 -0.5942  0.3723
 3670TIP3    H132501   0.147   6.800  16.126 -0.3102 -0.0470  1.4046
 3670TIP3    H232502   0.210   6.662  16.123  1.5878  0.7883  0.7282
 3671TIP3   OH232503   1.666   5.236   4.122 -0.1164 -0.8149  0.4098
 3671TIP3    H132504   1.710   5.269   4.043  0.2398  2.3115  1.7479
 3671TIP3    H232505   1.707   5.284   4.194 -1.3310 -2.5893  2.3931
 3672TIP3   OH232506   0.616   3.512   5.518  0.3300  0.5194 -0.7494
 3672TIP3    H132507   0.532   3.499   5.474 -0.3472  0.3102  0.5653
 3672TIP3    H232508   0.595   3.514   5.611  1.9840 -1.2955 -0.2630
 3673TIP3   OH232509   2.425   5.668  12.733 -0.0846  0.3966  0.4230
 3673TIP3    H132510   2.447   5.761  12.737  0.5322  0.3032 -0.5209
 3673TIP3    H232511   2.498   5.628  12.686  0.0534 -0.7021  1.5071
 3674TIP3   OH232512   4.871   3.382   6.036 -0.2252 -0.4097 -0.5275
 3674TIP3    H132513   4.876   3.430   5.953 -1.3150 -0.5612 -0.7002
 3674TIP3    H232514   4.835   3.296   6.011 -1.8633  0.0077  0.2633
 3675TIP3   OH232515   4.648   6.595   7.094  0.3175 -0.2761 -0.0119
 3675TIP3    H132516   4.586   6.564   7.160  1.0998 -3.9074 -0.7936
 3675TIP3    H232517   4.593   6.642   7.030 -1.1869 -0.9788  0.7131
 3676TIP3   OH232518   3.786   4.916   3.445  0.0559  0.3836  0.1929
 3676TIP3    H132519   3.818   4.839   3.396  0.0695  0.4041  0.1692
 3676TIP3    H232520   3.861   4.975   3.448  0.3682 -0.0551  1.1367
 3677TIP3   OH232521   5.052   6.423  12.398 -0.0295  0.7490  0.1373
 3677TIP3    H132522   4.980   6.469  12.442  0.0399 -0.0045  1.0701
 3677TIP3    H232523   5.010   6.381  12.323 -0.4183  0.9219  0.2507
 3678TIP3   OH232524   0.695   5.078  16.847  0.3513  0.3713  0.2824
 3678TIP3    H132525   0.677   5.049  16.757 -0.5533 -0.8800  0.8298
 3678TIP3    H232526   0.751   5.009  16.883 -0.6831 -0.0485  1.1804
 3679TIP3   OH232527   6.603   5.255  15.793 -0.3928 -0.5372  0.2730
 3679TIP3    H132528   6.677   5.197  15.772  0.2478 -0.0547  1.1546
 3679TIP3    H232529   6.598   5.253  15.888 -0.4265  0.7809  0.3110
 3680TIP3   OH232530   0.527   0.740  12.491 -0.0383 -0.0908 -0.0636
 3680TIP3    H132531   0.587   0.814  12.500 -1.1822  0.7399  1.0891
 3680TIP3    H232532   0.457   0.773  12.435 -0.5129 -0.3353  0.3873
 3681TIP3   OH232533   1.543   4.072  14.448  0.5310  0.0432 -0.9655
 3681TIP3    H132534   1.590   3.992  14.471  2.1191  0.9618 -0.8336
 3681TIP3    H232535   1.610   4.141  14.450 -0.4036  1.0924 -2.8443
 3682TIP3   OH232536   4.821   1.755   5.659  0.0787  0.7752  0.4518
 3682TIP3    H132537   4.731   1.774   5.687  0.1209  2.7043 -0.5360
 3682TIP3    H232538   4.811   1.714   5.573  0.0837 -2.0422  1.6850
 3683TIP3   OH232539   1.113   0.497  11.391 -0.1232  0.1283  0.2329
 3683TIP3    H132540   1.165   0.574  11.412 -0.1943  0.2881 -0.1668
 3683TIP3    H232541   1.034   0.532  11.348 -0.4902 -0.1173  0.6958
 3684TIP3   OH232542   6.341   1.065   4.581 -0.5059  0.2066  0.3400
 3684TIP3    H132543   6.330   1.096   4.671 -1.1849  0.7780  0.0630
 3684TIP3    H232544   6.254   1.039   4.553 -0.3567  0.3434 -0.2684
 3685TIP3   OH232545   1.809   2.724   0.317 -0.4542  0.3382 -0.6169
 3685TIP3    H132546   1.877   2.738   0.383  0.9614 -0.2809 -1.8677
 3685TIP3    H232547   1.729   2.708   0.367  0.5933 -0.2339  0.9488
 3686TIP3   OH232548   4.083   2.837  15.276 -0.0685 -0.1146  0.5722
 3686TIP3    H132549   4.112   2.909  15.332  1.5924 -0.0836 -0.2599
 3686TIP3    H232550   4.111   2.862  15.188 -2.2563 -0.3464 -0.2626
 3687TIP3   OH232551   0.502   2.928  12.934 -0.3705  0.4678 -0.0751
 3687TIP3    H132552   0.448   2.963  13.004 -1.8402 -2.2269  0.2761
 3687TIP3    H232553   0.450   2.940  12.854  0.6828  2.2296 -0.5506
 3688TIP3   OH232554   1.605   4.572  14.333 -0.1554  0.0005  0.3044
 3688TIP3    H132555   1.528   4.626  14.352  0.8176  0.8531  1.9779
 3688TIP3    H232556   1.678   4.619  14.372  1.0868 -1.3456 -0.3030
 3689TIP3   OH232557   0.033   2.532  12.926 -0.2319 -1.0180  0.3678
 3689TIP3    H132558   0.097   2.599  12.905 -0.5035 -0.4987  1.1561
 3689TIP3    H232559  -0.038   2.545  12.863 -0.2654 -0.5922  0.4946
 3690TIP3   OH232560   4.540   2.889   4.842  0.5669 -0.6476  0.1593
 3690TIP3    H132561   4.488   2.969   4.843  1.9374  0.3516 -1.4978
 3690TIP3    H232562   4.477   2.819   4.857 -1.2515  0.5051 -1.5526
 3691TIP3   OH232563   5.975   0.167   5.181 -0.0934 -0.7208 -0.0411
 3691TIP3    H132564   5.980   0.244   5.125  1.4436 -0.2504  0.6796
 3691TIP3    H232565   6.061   0.126   5.173  0.5773 -0.0746  2.6834
 3692TIP3   OH232566   1.989   5.810  12.610 -0.5685 -0.0415  0.6610
 3692TIP3    H132567   2.066   5.865  12.595  0.2411 -1.2807 -0.0094
 3692TIP3    H232568   1.930   5.864  12.662  0.4016  1.2460  0.4805
 3693TIP3   OH232569   4.196   2.155   4.585 -0.4175 -0.5072  0.1870
 3693TIP3    H132570   4.277   2.171   4.537 -0.0490 -0.8597  0.6771
 3693TIP3    H232571   4.220   2.092   4.653 -0.9871 -0.2061  0.6788
 3694TIP3   OH232572   5.559   2.583   1.786  0.2041 -0.1761 -0.0370
 3694TIP3    H132573   5.495   2.627   1.842 -0.8949 -1.0620 -0.5780
 3694TIP3    H232574   5.554   2.628   1.702  1.8992  1.1938  0.5348
 3695TIP3   OH232575   6.090   5.764   3.340  0.5695  0.3707  0.2137
 3695TIP3    H132576   6.076   5.774   3.434 -3.3250  2.3702 -0.3814
 3695TIP3    H232577   6.068   5.849   3.303 -1.4553 -1.2533 -2.7601
 3696TIP3   OH232578   4.722   3.185  14.664  0.0754  0.8162 -0.2158
 3696TIP3    H132579   4.626   3.184  14.659 -0.0273  1.6069  1.1768
 3696TIP3    H232580   4.750   3.125  14.595 -1.3866  1.2813 -1.2517
 3697TIP3   OH232581   5.898   4.903   0.695 -0.3977  0.6265 -0.0194
 3697TIP3    H132582   5.862   4.970   0.753 -1.0730  0.5067 -0.2891
 3697TIP3    H232583   5.991   4.900   0.717 -0.3548  1.6437  0.0005
 3698TIP3   OH232584   0.710   2.797   2.737 -0.5189 -0.5279  0.3947
 3698TIP3    H132585   0.669   2.860   2.678  0.3123  0.7036  1.0679
 3698TIP3    H232586   0.757   2.737   2.679 -1.0127 -0.3031 -0.2554
 3699TIP3   OH232587   6.641   0.887   0.092  0.0898  0.2780 -0.0581
 3699TIP3    H132588   6.699   0.825   0.136  0.1841  1.0751  0.9968
 3699TIP3    H232589   6.560   0.886   0.143 -0.3269  0.1979 -0.7022
 3700TIP3   OH232590   2.309   1.162   0.519  0.1840 -0.0918 -0.0913
 3700TIP3    H132591   2.382   1.116   0.479  1.5901  2.2236 -0.3777
 3700TIP3    H232592   2.348   1.213   0.590 -1.5351 -0.5083  1.2275
 3701TIP3   OH232593   6.648   4.756   4.692 -0.0928 -0.2656  0.2692
 3701TIP3    H132594   6.560   4.783   4.716 -0.7159  1.3400 -3.3163
 3701TIP3    H232595   6.704   4.828   4.722 -0.5733  0.6920 -1.0631
 3702TIP3   OH232596   3.782   4.645   2.692  0.2854 -0.9482  0.1721
 3702TIP3    H132597   3.785   4.551   2.674 -1.5906 -1.2261  1.0789
 3702TIP3    H232598   3.711   4.655   2.754 -0.1305  1.1926 -0.5804
 3703TIP3   OH232599   6.188   1.412   5.315  0.4370 -0.0443 -0.3554
 3703TIP3    H132600   6.127   1.483   5.295  0.1036 -0.5358 -1.1339
 3703TIP3    H232601   6.246   1.448   5.382 -2.4073 -0.4296  2.5323
 3704TIP3   OH232602   2.394   5.772   5.670  0.1975  0.0205 -0.8977
 3704TIP3    H132603   2.341   5.849   5.694  1.0006  0.1340  0.6074
 3704TIP3    H232604   2.476   5.783   5.718  1.0134 -0.9326 -2.0076
 3705TIP3   OH232605   3.469   6.348  16.856  0.2315 -0.1481 -0.2178
 3705TIP3    H132606   3.472   6.375  16.764  0.4352 -1.6638 -0.6815
 3705TIP3    H232607   3.452   6.429  16.904 -1.7866  0.3945 -1.7300
 3706TIP3   OH232608   5.401   0.033   3.824  0.2902  0.0931  0.4572
 3706TIP3    H132609   5.443   0.105   3.871 -1.3974  0.0436  2.1139
 3706TIP3    H232610   5.358   0.075   3.749 -2.4775  1.2656  2.5344
 3707TIP3   OH232611   2.268   0.382  15.467 -0.1172 -0.2985 -0.0845
 3707TIP3    H132612   2.234   0.292  15.474  0.8692 -0.7870 -1.1358
 3707TIP3    H232613   2.361   0.370  15.444 -0.3634  0.9792 -1.8936
 3708TIP3   OH232614   1.008   2.194  13.620  0.4648 -0.2526 -0.1476
 3708TIP3    H132615   1.027   2.273  13.670  1.6033 -1.8000  2.0096
 3708TIP3    H232616   0.969   2.227  13.539  2.3082  2.6038 -0.0501
 3709TIP3   OH232617   4.185   0.937   1.026  0.3254  0.0401 -0.2081
 3709TIP3    H132618   4.250   0.867   1.033 -0.3384 -0.4850  1.0809
 3709TIP3    H232619   4.148   0.944   1.114 -0.7483  0.9244 -0.7054
 3710TIP3   OH232620   3.753   6.343  16.586 -0.2583  0.4558 -0.1902
 3710TIP3    H132621   3.716   6.256  16.605 -1.4791  0.8422 -0.6805
 3710TIP3    H232622   3.716   6.400  16.653  1.3464  0.4382  0.7559
 3711TIP3   OH232623   4.852   6.321  17.302 -0.2015 -0.7736 -0.4665
 3711TIP3    H132624   4.919   6.344  17.238  1.6513 -0.6433  1.4215
 3711TIP3    H232625   4.880   6.236  17.336 -0.3728 -0.2296  1.1124
 3712TIP3   OH232626   2.000   5.224  13.256 -0.4138 -0.5311 -0.3419
 3712TIP3    H132627   2.011   5.241  13.350 -1.3010 -0.3306 -0.2595
 3712TIP3    H232628   1.981   5.130  13.250 -0.2510 -0.5646 -0.3284
 3713TIP3   OH232629   6.376   3.058  13.006 -0.3417  0.4265  0.2932
 3713TIP3    H132630   6.346   2.971  12.982 -0.9051  0.3917  1.0952
 3713TIP3    H232631   6.434   3.084  12.934  0.2362 -0.8074  0.2931
 3714TIP3   OH232632   6.158   1.395   4.386 -0.3687 -0.2898  0.0320
 3714TIP3    H132633   6.163   1.323   4.449 -1.0860  1.6913  2.5701
 3714TIP3    H232634   6.065   1.418   4.384 -0.2198  0.2645 -1.1125
 3715TIP3   OH232635   0.078   0.393   2.725  0.7243  0.0172 -0.1789
 3715TIP3    H132636   0.153   0.374   2.781  0.3463  0.5438  0.5210
 3715TIP3    H232637   0.099   0.477   2.684  0.3192  0.3841  0.3648
 3716TIP3   OH232638   1.399   2.881   1.872  0.2152  0.6576  0.4271
 3716TIP3    H132639   1.484   2.866   1.831  0.3616 -3.7775  1.7639
 3716TIP3    H232640   1.340   2.902   1.799  2.1512  2.6994 -0.6608
 3717TIP3   OH232641   6.710   1.002   5.146  0.2745 -0.5355  0.8885
 3717TIP3    H132642   6.752   1.051   5.218  0.1950  0.6028  0.1912
 3717TIP3    H232643   6.783   0.973   5.091  0.2524  0.3507  0.3603
 3718TIP3   OH232644   3.698   6.587  11.509  0.1079  0.0085  0.2672
 3718TIP3    H132645   3.641   6.657  11.542 -1.5098 -1.9096  1.8086
 3718TIP3    H232646   3.672   6.576  11.417  0.9324  1.8690 -0.2388
 3719TIP3   OH232647   2.718   1.665  13.521  0.2802 -0.1755  0.1986
 3719TIP3    H132648   2.813   1.662  13.508  0.4496 -0.2424  1.3689
 3719TIP3    H232649   2.697   1.758  13.518  0.3671 -0.1632 -0.1172
 3720TIP3   OH232650   4.632   5.652   3.291 -0.1103 -0.2771  0.5612
 3720TIP3    H132651   4.705   5.595   3.271  0.9073  0.9126  0.7487
 3720TIP3    H232652   4.592   5.613   3.369  1.5544  0.1084  1.6693
 3721TIP3   OH232653   0.711   2.823  16.188  0.6814 -0.3464  0.2535
 3721TIP3    H132654   0.616   2.833  16.183  0.8637  0.8721 -1.5168
 3721TIP3    H232655   0.745   2.878  16.117  2.5990 -2.5663 -0.6766
 3722TIP3   OH232656   0.532   6.388   5.683  0.0603 -0.3624 -0.2934
 3722TIP3    H132657   0.478   6.464   5.661  0.6447  0.5827  1.4390
 3722TIP3    H232658   0.472   6.328   5.728 -0.3064 -0.8142 -1.3298
 3723TIP3   OH232659   0.529   1.369   4.864  0.1424  0.5486 -0.7408
 3723TIP3    H132660   0.450   1.422   4.872 -0.1199  0.1315 -0.5226
 3723TIP3    H232661   0.588   1.403   4.931 -0.2140  0.2471 -0.2606
 3724TIP3   OH232662   3.546   6.350   5.899 -0.0976 -0.5445  0.3410
 3724TIP3    H132663   3.617   6.312   5.846  1.2280  1.3213  0.7064
 3724TIP3    H232664   3.550   6.302   5.982 -1.5942 -2.8531 -0.7959
 3725TIP3   OH232665   3.065   5.492  17.297 -0.8297 -0.1558  0.3213
 3725TIP3    H132666   3.100   5.436  17.367 -2.1569  1.5353  2.4662
 3725TIP3    H232667   2.994   5.440  17.258 -0.3240 -0.9682  0.4544
 3726TIP3   OH232668   1.495   1.285   6.183 -0.3268  0.5205  0.9887
 3726TIP3    H132669   1.437   1.244   6.248 -1.2487  0.7346  0.3217
 3726TIP3    H232670   1.446   1.281   6.102  1.0802 -0.3448  0.1341
 3727TIP3   OH232671   4.748   6.657  14.109 -0.0756 -0.3043 -0.4414
 3727TIP3    H132672   4.840   6.634  14.096 -0.3663 -0.7083 -1.9810
 3727TIP3    H232673   4.747   6.753  14.105  0.3543 -0.2537  0.3117
 3728TIP3   OH232674   4.280   2.705  14.002 -0.0594 -0.4977 -0.6209
 3728TIP3    H132675   4.212   2.684  13.939 -0.9881 -0.3756  0.3080
 3728TIP3    H232676   4.242   2.774  14.056 -0.4964 -2.5630  1.9308
 3729TIP3   OH232677   1.297   5.439  12.255  0.1573  0.1308  0.3970
 3729TIP3    H132678   1.311   5.415  12.164 -2.1419 -0.6246  0.1809
 3729TIP3    H232679   1.208   5.409  12.275 -0.1263  1.9662  2.3277
 3730TIP3   OH232680   4.810   2.327  17.245 -0.0449  0.3023  0.4075
 3730TIP3    H132681   4.743   2.366  17.189  2.3595  1.0733 -2.1205
 3730TIP3    H232682   4.838   2.399  17.302 -0.5435  0.2982  0.6611
 3731TIP3   OH232683   6.458   5.956   0.946 -0.3083 -0.0093 -0.3702
 3731TIP3    H132684   6.457   5.924   0.856 -0.7827 -0.9586 -0.0363
 3731TIP3    H232685   6.513   5.895   0.994 -0.7017  0.0248  0.1472
 3732TIP3   OH232686   3.171   3.390   5.835  0.2017 -0.4406 -0.0527
 3732TIP3    H132687   3.254   3.400   5.789 -0.2675  0.2641 -0.7678
 3732TIP3    H232688   3.195   3.358   5.922  1.2585  0.3491 -0.0428
 3733TIP3   OH232689   6.677   4.745  13.798  0.1726  0.0120  0.1720
 3733TIP3    H132690   6.612   4.740  13.867 -0.7101 -1.2536 -0.7079
 3733TIP3    H232691   6.760   4.726  13.841 -0.5496 -2.3211  0.6754
 3734TIP3   OH232692   3.993   0.490   6.440 -0.5860 -0.2022 -0.6841
 3734TIP3    H132693   4.020   0.582   6.434 -0.2511  0.0505  2.8619
 3734TIP3    H232694   3.903   0.494   6.471 -0.3224 -1.0637  0.2141
 3735TIP3   OH232695   0.490   1.217   2.481 -0.0402  0.6945 -0.5452
 3735TIP3    H132696   0.564   1.277   2.479 -0.7777  1.7172  0.9876
 3735TIP3    H232697   0.520   1.143   2.534  0.2197  0.6058 -0.8115
 3736TIP3   OH232698   1.362   0.445   3.009  0.2272  0.5081  0.6723
 3736TIP3    H132699   1.388   0.393   2.932  0.1561 -1.2211  1.7691
 3736TIP3    H232700   1.295   0.504   2.976 -0.6233 -0.9711 -0.3980
 3737TIP3   OH232701   0.601   5.367   3.324 -0.6076  0.2667  0.1665
 3737TIP3    H132702   0.672   5.424   3.353  0.6216 -1.0588 -0.1386
 3737TIP3    H232703   0.564   5.411   3.248 -1.8728  2.2628  1.8129
 3738TIP3   OH232704   0.283   5.311  13.758 -0.1661  0.1338 -0.2188
 3738TIP3    H132705   0.235   5.385  13.722 -0.9568 -0.8337 -1.2286
 3738TIP3    H232706   0.373   5.343  13.767 -0.1557  0.7674 -2.0963
 3739TIP3   OH232707   5.394   4.025   5.217 -0.3099 -0.3805  0.0339
 3739TIP3    H132708   5.424   4.104   5.172  0.9374  0.9319  2.9493
 3739TIP3    H232709   5.444   3.954   5.177 -0.5869  0.4203 -1.8358
 3740TIP3   OH232710   2.835   1.786   3.166  0.1032 -0.0082  0.2795
 3740TIP3    H132711   2.855   1.871   3.206  0.8450 -0.2746  0.4937
 3740TIP3    H232712   2.917   1.758   3.126 -0.5105  0.0390 -1.0692
 3741TIP3   OH232713   1.339   3.165  11.239 -0.2412  0.4054  0.1994
 3741TIP3    H132714   1.357   3.118  11.157  0.0130 -1.4828  1.2855
 3741TIP3    H232715   1.356   3.257  11.217 -0.3267 -0.0209 -1.8986
 3742TIP3   OH232716   1.131   4.337  14.137  0.3999  0.1575 -0.1907
 3742TIP3    H132717   1.192   4.407  14.117 -1.2697  1.9127  0.5775
 3742TIP3    H232718   1.146   4.317  14.229  0.8686 -0.5368 -0.4049
 3743TIP3   OH232719   2.543   1.178  11.556  0.8162  0.0884 -0.1053
 3743TIP3    H132720   2.462   1.178  11.505  0.6187 -1.1712  0.1579
 3743TIP3    H232721   2.515   1.157  11.645  1.3601  0.3075  0.1220
 3744TIP3   OH232722   3.888   6.443   1.299  0.5114  0.0732  0.1638
 3744TIP3    H132723   3.888   6.536   1.321  1.3371  0.1349 -0.0655
 3744TIP3    H232724   3.889   6.399   1.385  1.0303  0.2886  0.2735
 3745TIP3   OH232725   1.532   4.414  11.846 -0.0057 -0.6785  0.8281
 3745TIP3    H132726   1.612   4.410  11.793  0.8552  2.1665  1.7764
 3745TIP3    H232727   1.557   4.375  11.930  0.0282 -0.8027  0.7619
 3746TIP3   OH232728   2.418   1.543  14.077  0.5190  0.2676 -0.1919
 3746TIP3    H132729   2.407   1.626  14.123  1.5367 -0.1116  0.8254
 3746TIP3    H232730   2.395   1.561  13.986  2.3394  2.1173 -0.3636
 3747TIP3   OH232731   0.408   6.343   6.623  0.2432 -0.2226  0.6324
 3747TIP3    H132732   0.501   6.362   6.610  0.1655 -0.2240  0.0541
 3747TIP3    H232733   0.407   6.260   6.670  0.5179 -2.1518 -2.5062
 3748TIP3   OH232734   0.939   2.370  16.735  0.1219 -0.5978  0.1381
 3748TIP3    H132735   0.949   2.434  16.665 -2.8383 -2.4899 -2.2592
 3748TIP3    H232736   0.866   2.403  16.787 -0.1681 -1.0457  0.0262
 3749TIP3   OH232737   1.051   3.891   5.852  0.1013 -0.2862  0.5453
 3749TIP3    H132738   1.129   3.851   5.813 -0.2371  0.7385 -1.2763
 3749TIP3    H232739   1.045   3.851   5.939  1.3657 -2.0620 -0.1229
 3750TIP3   OH232740   3.085   4.524  11.655 -0.2625 -0.5924 -0.6177
 3750TIP3    H132741   3.045   4.555  11.573 -0.6897 -0.5375 -0.3912
 3750TIP3    H232742   3.159   4.583  11.669 -0.1621 -0.6254 -0.9853
 3751TIP3   OH232743   6.512   1.202   2.340  0.2049  0.0588  0.0598
 3751TIP3    H132744   6.559   1.261   2.400  0.2240 -2.2159  2.4430
 3751TIP3    H232745   6.492   1.125   2.393 -1.7439 -1.1962 -2.3216
 3752TIP3   OH232746   5.285   2.306   6.515  0.1410 -0.0640 -0.3172
 3752TIP3    H132747   5.292   2.212   6.536 -0.2118 -0.3443 -1.3979
 3752TIP3    H232748   5.196   2.329   6.543  0.2574 -0.0239  0.0277
 3753TIP3   OH232749   0.482   3.174  16.892 -0.0454  0.6609 -0.5893
 3753TIP3    H132750   0.439   3.163  16.806 -0.8924  1.2353 -0.2573
 3753TIP3    H232751   0.477   3.088  16.932  1.0408  0.1983 -1.4215
 3754TIP3   OH232752   5.723   4.817   4.034  0.3054  0.2383 -0.0065
 3754TIP3    H132753   5.662   4.891   4.046  0.6718  0.8626 -1.7449
 3754TIP3    H232754   5.677   4.743   4.073 -1.2162  0.8624 -0.5129
 3755TIP3   OH232755   0.946   5.010   4.483  0.0274  0.2384 -0.2613
 3755TIP3    H132756   0.916   4.923   4.507  0.1941  0.4542  0.7684
 3755TIP3    H232757   0.978   5.001   4.394 -0.3609 -0.6518 -0.3174
 3756TIP3   OH232758   2.931   2.298  11.204 -0.2381  0.4950 -0.1953
 3756TIP3    H132759   2.960   2.238  11.134  2.1722  0.7166  0.5106
 3756TIP3    H232760   2.986   2.375  11.194 -2.3094  2.0537 -0.1858
 3757TIP3   OH232761   5.354   1.527  13.095 -0.2785 -0.5809 -0.4075
 3757TIP3    H132762   5.298   1.604  13.088 -1.8700 -1.7236 -0.5726
 3757TIP3    H232763   5.436   1.554  13.053 -0.5183  1.2594  0.2269
 3758TIP3   OH232764   2.567   4.215   6.112  0.2055  0.3006 -0.1641
 3758TIP3    H132765   2.486   4.192   6.066  1.1947 -0.9518 -1.3886
 3758TIP3    H232766   2.566   4.161   6.191  0.0333 -0.0208 -0.3845
 3759TIP3   OH232767   3.694   2.076   2.226 -0.3473 -0.2557 -0.4091
 3759TIP3    H132768   3.654   2.116   2.303 -2.4097 -1.8890 -0.5589
 3759TIP3    H232769   3.622   2.068   2.164  1.6068  2.8349 -3.4321
 3760TIP3   OH232770   6.683   6.201   1.377 -0.3543  0.1725 -0.0321
 3760TIP3    H132771   6.690   6.280   1.430  0.6219 -0.1492  0.3576
 3760TIP3    H232772   6.756   6.206   1.316 -0.5186 -0.2334 -0.2691
 3761TIP3   OH232773   5.307   0.288   3.710  0.5003 -0.4424 -0.4893
 3761TIP3    H132774   5.390   0.333   3.692  1.0973 -0.5989  1.6115
 3761TIP3    H232775   5.254   0.354   3.755  0.1641 -0.8609 -0.2726
 3762TIP3   OH232776   2.291   3.476   6.209 -0.0170 -0.2956 -0.1974
 3762TIP3    H132777   2.292   3.386   6.241 -1.4626 -0.0288  0.7120
 3762TIP3    H232778   2.206   3.485   6.165 -0.1978  0.8004  0.3183
 3763TIP3   OH232779   2.317   3.969  11.960 -0.0916 -0.6999 -0.1196
 3763TIP3    H132780   2.353   3.881  11.956  1.5079 -0.0369 -2.6631
 3763TIP3    H232781   2.339   4.008  11.876 -1.0508  2.0427  0.7800
 3764TIP3   OH232782   2.605   1.277   3.396  0.4525  0.2344  0.6637
 3764TIP3    H132783   2.538   1.330   3.355 -0.5163  1.5006  3.6250
 3764TIP3    H232784   2.560   1.196   3.421  0.5259  0.3008  1.0080
 3765TIP3   OH232785   5.021   0.853   4.936 -0.4683  0.2429 -0.6606
 3765TIP3    H132786   5.102   0.852   4.987 -0.2148 -2.2219 -1.0215
 3765TIP3    H232787   5.049   0.856   4.845 -0.7989  0.0653 -0.7718
 3766TIP3   OH232788   3.966   5.540  12.903 -0.1559  0.6314  0.1472
 3766TIP3    H132789   3.991   5.625  12.868 -0.9300  1.8815  2.4315
 3766TIP3    H232790   3.942   5.557  12.994 -1.8206 -1.7759  0.2641
 3767TIP3   OH232791   1.637   2.357  15.148  0.3208  0.6664  0.1622
 3767TIP3    H132792   1.722   2.384  15.183  0.7735 -1.7758  1.1467
 3767TIP3    H232793   1.590   2.323  15.224 -0.0885 -1.4037 -0.9465
 3768TIP3   OH232794   0.321   5.333   3.309 -0.0811  0.2037 -0.2114
 3768TIP3    H132795   0.293   5.260   3.364  1.4098 -0.5071 -0.3321
 3768TIP3    H232796   0.371   5.390   3.369 -0.7886  0.8562 -0.2352
 3769TIP3   OH232797   5.224   5.548   3.957  0.2825 -0.1427 -0.0074
 3769TIP3    H132798   5.310   5.530   3.996  0.4536 -0.1632 -0.3907
 3769TIP3    H232799   5.240   5.622   3.898  0.2092 -0.6611 -0.6843
 3770TIP3   OH232800   4.113   6.146  17.401  0.0541 -0.2839  0.1179
 3770TIP3    H132801   4.195   6.190  17.426 -0.0308  0.3771 -0.7369
 3770TIP3    H232802   4.066   6.210  17.348 -0.5657 -1.0297 -0.2576
 3771TIP3   OH232803   5.999   0.273   5.653  0.1250  0.4913  0.4991
 3771TIP3    H132804   6.069   0.286   5.589  0.6379 -0.6820  0.7877
 3771TIP3    H232805   5.968   0.362   5.673 -0.5890  0.8530 -1.9028
 3772TIP3   OH232806   1.025   2.312   2.648  0.4946  0.1127 -0.0068
 3772TIP3    H132807   1.025   2.221   2.677  0.8603  0.1168  0.0097
 3772TIP3    H232808   0.944   2.321   2.598  0.6500 -0.3333 -0.3507
 3773TIP3   OH232809   1.637   1.579   3.632 -0.2042 -0.0493 -1.0648
 3773TIP3    H132810   1.642   1.494   3.676 -0.9715  0.1951 -0.4849
 3773TIP3    H232811   1.674   1.641   3.694  1.5497 -0.1092 -1.9887
 3774TIP3   OH232812   4.176   4.878   6.788  0.4310 -0.3850 -0.6646
 3774TIP3    H132813   4.152   4.915   6.703  0.0605  1.9791  0.3749
 3774TIP3    H232814   4.206   4.953   6.839 -3.0847 -0.8679  2.6019
 3775TIP3   OH232815   3.716   6.538  12.392 -0.0375  0.6189 -0.0014
 3775TIP3    H132816   3.747   6.601  12.327  0.2665  0.1395 -0.3273
 3775TIP3    H232817   3.684   6.592  12.465 -0.7164  1.1762 -0.6904
 3776TIP3   OH232818   6.072   4.508  12.438  0.3696 -0.1209  0.1255
 3776TIP3    H132819   6.156   4.502  12.393 -0.2026 -0.1292 -0.9528
 3776TIP3    H232820   6.039   4.418  12.441 -0.5657  0.1344 -1.3600
 3777TIP3   OH232821   1.649   1.623   2.877 -0.1814  0.1655 -0.0670
 3777TIP3    H132822   1.612   1.537   2.895 -0.4929  0.2295 -0.3738
 3777TIP3    H232823   1.681   1.654   2.961  0.0380 -0.2986  0.0236
 3778TIP3   OH232824   0.294   6.088  16.691 -0.0019 -0.5652  0.2527
 3778TIP3    H132825   0.259   6.083  16.780 -0.9662 -1.3904 -0.1443
 3778TIP3    H232826   0.388   6.072  16.701  0.1488  0.7746  1.2619
 3779TIP3   OH232827   4.633   0.902  13.191  0.4392  0.6625  0.6035
 3779TIP3    H132828   4.714   0.863  13.224  0.6235  0.6566  0.1382
 3779TIP3    H232829   4.576   0.826  13.175  0.2897  0.6744  1.0582
 3780TIP3   OH232830   0.954   4.073  12.011  0.0069 -0.5452 -0.2898
 3780TIP3    H132831   0.906   4.120  12.080  1.7230 -3.3042  3.0548
 3780TIP3    H232832   0.886   4.049  11.948 -1.7733  1.5985  0.6489
 3781TIP3   OH232833   6.534   5.941  15.501 -0.0055  0.3841 -0.4233
 3781TIP3    H132834   6.543   5.895  15.584 -0.8023  0.3290 -0.3669
 3781TIP3    H232835   6.520   5.872  15.437 -1.2797  0.5294 -0.3278
 3782TIP3   OH232836   3.413   4.116  16.281  0.2821  0.0842  0.6354
 3782TIP3    H132837   3.320   4.095  16.285  0.6521 -1.6978  0.6092
 3782TIP3    H232838   3.457   4.035  16.305  1.8707  0.3612 -1.0932
 3783TIP3   OH232839   2.094   3.538   3.633 -0.5653 -0.5299  0.5246
 3783TIP3    H132840   2.014   3.486   3.621 -0.4933 -0.5175 -0.0231
 3783TIP3    H232841   2.157   3.476   3.671 -0.4773 -0.8540 -0.1303
 3784TIP3   OH232842   4.850   1.591  13.014 -0.4317 -0.2798 -0.1728
 3784TIP3    H132843   4.909   1.574  12.941 -0.8944  0.4476 -0.7219
 3784TIP3    H232844   4.770   1.543  12.994 -0.0626 -1.2239  0.5472
 3785TIP3   OH232845   1.651   6.069   1.861  0.2098 -0.1105  0.3017
 3785TIP3    H132846   1.642   6.083   1.956  1.3304  1.0204  0.2862
 3785TIP3    H232847   1.585   6.004   1.839 -0.1706 -0.2828  1.8414
 3786TIP3   OH232848   4.263   1.930  14.157 -0.0307  0.0759 -0.6675
 3786TIP3    H132849   4.185   1.981  14.134 -2.0860 -2.5062  0.0161
 3786TIP3    H232850   4.276   1.947  14.250  0.8073  1.1868 -0.9725
 3787TIP3   OH232851   2.670   1.819  14.763 -1.2889 -0.2129 -0.8510
 3787TIP3    H132852   2.703   1.853  14.679 -1.4643 -0.5349 -1.0505
 3787TIP3    H232853   2.632   1.734  14.741 -2.0449  0.0484 -0.5796
 3788TIP3   OH232854   3.237   0.064   6.207 -1.1212 -0.5389  0.1163
 3788TIP3    H132855   3.199   0.062   6.295 -0.3974  3.5883  0.6903
 3788TIP3    H232856   3.178   0.118   6.156 -1.6164 -2.9916 -2.1443
 3789TIP3   OH232857   0.139   3.750  12.558  0.6267 -0.1886 -0.1545
 3789TIP3    H132858   0.153   3.844  12.573  0.5930  0.3255 -2.8239
 3789TIP3    H232859   0.080   3.746  12.483  1.5590 -2.3307 -0.8608
 3790TIP3   OH232860   5.117   6.602  11.315 -0.1231  0.6065  0.0965
 3790TIP3    H132861   5.150   6.615  11.227  1.4176  3.0728  0.9172
 3790TIP3    H232862   5.185   6.550  11.359 -1.3865 -1.5463 -0.3916
 3791TIP3   OH232863   2.912   4.373   4.726  0.6664  0.0162 -0.0442
 3791TIP3    H132864   2.977   4.331   4.783  1.3201  0.6122 -0.3371
 3791TIP3    H232865   2.963   4.407   4.652 -0.2164 -1.1277 -1.2321
 3792TIP3   OH232866   4.976   2.131  16.110 -0.4706 -0.2874 -0.1871
 3792TIP3    H132867   4.971   2.211  16.057  0.4116 -0.0290  0.0995
 3792TIP3    H232868   4.888   2.120  16.145 -0.0884  1.9322  1.7115
 3793TIP3   OH232869   4.949   1.949   4.358 -0.0632  0.2408  0.2728
 3793TIP3    H132870   5.026   1.909   4.399  1.9930  2.4687 -1.1947
 3793TIP3    H232871   4.880   1.936   4.423  1.2673 -2.5154  1.3442
 3794TIP3   OH232872   6.491   4.980   3.218  0.4110 -0.3108  0.0142
 3794TIP3    H132873   6.441   4.993   3.298 -0.4731  1.0428 -0.7249
 3794TIP3    H232874   6.564   4.923   3.244  0.0639 -0.0173  1.7246
 3795TIP3   OH232875   6.696   4.792   3.311  0.5748 -0.3844  0.4680
 3795TIP3    H132876   6.768   4.802   3.248  2.3117 -1.6976  2.1325
 3795TIP3    H232877   6.657   4.707   3.291  0.8485 -0.6098  0.8796
 3796TIP3   OH232878   0.165   6.582   4.928  0.5127 -0.4618 -0.2117
 3796TIP3    H132879   0.157   6.530   5.008 -1.2271  0.8807  0.5503
 3796TIP3    H232880   0.259   6.584   4.911  0.7291 -3.1929  0.1100
 3797TIP3   OH232881   4.667   4.459  12.198  0.2306  0.0767  0.2831
 3797TIP3    H132882   4.583   4.503  12.212 -0.3410 -1.2814  1.3921
 3797TIP3    H232883   4.666   4.431  12.107  0.9466  2.9252 -0.7202
 3798TIP3   OH232884   4.047   3.415  13.906  0.0006  0.3813 -0.0056
 3798TIP3    H132885   3.962   3.410  13.862 -0.3597  1.7042  0.4887
 3798TIP3    H232886   4.071   3.324  13.922 -2.1439 -0.0120  1.3764
 3799TIP3   OH232887   3.844   4.204   5.051  0.3039  0.4751  0.3189
 3799TIP3    H132888   3.912   4.204   5.119  0.7944  1.5225 -0.1533
 3799TIP3    H232889   3.791   4.127   5.071  1.7885 -0.5352  0.5510
 3800TIP3   OH232890   3.425   4.705  16.400  0.5432 -0.0382  0.1279
 3800TIP3    H132891   3.332   4.726  16.395  0.0402 -1.3073  2.4632
 3800TIP3    H232892   3.454   4.700  16.309 -2.0618 -1.1184 -0.7358
 3801TIP3   OH232893   6.404   2.188  16.986  0.1336  0.1350  0.0711
 3801TIP3    H132894   6.498   2.197  16.996  0.1155  0.3459  0.0435
 3801TIP3    H232895   6.383   2.105  17.029  0.4479 -0.3228 -0.6392
 3802TIP3   OH232896   6.620   5.593   4.611 -0.1825  0.2958 -0.2661
 3802TIP3    H132897   6.559   5.542   4.665 -0.3600 -0.3772 -1.0849
 3802TIP3    H232898   6.705   5.582   4.654 -0.4265  0.2697  0.2163
 3803TIP3   OH232899   0.938   1.518  13.601 -0.7462  0.0196  0.1888
 3803TIP3    H132900   0.941   1.543  13.693  0.2341 -2.4744  0.9104
 3803TIP3    H232901   0.854   1.552  13.570 -0.6165  1.8839  1.6523
 3804TIP3   OH232902   2.722   0.189   1.338  0.3974 -0.3604 -0.0650
 3804TIP3    H132903   2.813   0.212   1.358  0.9062 -1.6097 -0.8020
 3804TIP3    H232904   2.683   0.170   1.424  1.0480 -0.5376  0.2004
 3805TIP3   OH232905   6.576   0.170  13.203 -0.3500 -0.3496  0.7029
 3805TIP3    H132906   6.585   0.245  13.145  0.7010 -1.3388 -0.4788
 3805TIP3    H232907   6.486   0.140  13.190 -0.4814  0.1424  0.4713
 3806TIP3   OH232908   0.828   0.595   2.414  0.0372  0.1234  0.2394
 3806TIP3    H132909   0.838   0.502   2.399  0.5059  0.0608  0.8828
 3806TIP3    H232910   0.735   0.612   2.400  0.3353  0.0221 -2.2665
 3807TIP3   OH232911   3.106   3.059   0.677  0.4942  0.2357 -0.1474
 3807TIP3    H132912   3.147   3.049   0.591 -1.0929  0.8826 -1.0167
 3807TIP3    H232913   3.080   2.970   0.700  1.6331 -0.0635  0.0566
 3808TIP3   OH232914   3.908   3.766   5.465  0.8390  0.1187 -0.5039
 3808TIP3    H132915   3.824   3.800   5.495  1.3431  2.9693 -2.0373
 3808TIP3    H232916   3.903   3.672   5.484 -2.5763  0.1955 -0.3587
 3809TIP3   OH232917   0.067   3.101  17.341  0.1720 -0.0976  0.2888
 3809TIP3    H132918   0.160   3.121  17.351  0.2186 -0.1864  0.0355
 3809TIP3    H232919   0.062   3.006  17.351 -0.0049 -0.0110  1.1466
 3810TIP3   OH232920   6.605   2.678  13.574 -0.3125 -0.5176 -0.4089
 3810TIP3    H132921   6.649   2.624  13.640 -0.8837  0.2022  0.5845
 3810TIP3    H232922   6.671   2.743  13.549 -0.2036 -0.5773 -0.2796
 3811TIP3   OH232923   2.594   3.247   1.872 -0.0679 -0.3745 -0.3783
 3811TIP3    H132924   2.590   3.156   1.840  1.3166 -0.4115 -0.5143
 3811TIP3    H232925   2.655   3.290   1.813 -2.7084  1.4049 -2.0059
 3812TIP3   OH232926   4.688   5.536  17.200 -0.4775 -0.1857  0.3969
 3812TIP3    H132927   4.680   5.497  17.287  1.0427 -0.9758  0.2072
 3812TIP3    H232928   4.779   5.522  17.175 -0.7840  0.3763 -1.1658
 3813TIP3   OH232929   4.006   1.226  16.706 -0.2939  0.1190  0.1427
 3813TIP3    H132930   3.970   1.314  16.717  1.2991  0.9247 -0.7659
 3813TIP3    H232931   4.063   1.214  16.782  0.5567  0.4450 -0.4284
 3814TIP3   OH232932   1.620   2.913   1.268  0.0457  0.0337 -0.2913
 3814TIP3    H132933   1.654   2.876   1.186  2.3975  0.9126  0.1930
 3814TIP3    H232934   1.558   2.847   1.301  0.2460 -1.0523 -1.9766
 3815TIP3   OH232935   1.782   3.555  11.843  0.3921 -0.1009  0.1847
 3815TIP3    H132936   1.795   3.643  11.809  1.6959 -0.6302 -0.7730
 3815TIP3    H232937   1.839   3.550  11.920 -0.9807  0.4205  1.2703
 3816TIP3   OH232938   6.320   1.337  16.534 -0.5070 -0.1154 -0.3171
 3816TIP3    H132939   6.303   1.270  16.468  0.7588  0.4932 -1.2969
 3816TIP3    H232940   6.324   1.289  16.617  0.2546 -1.2340 -0.9797
 3817TIP3   OH232941   2.814   5.320   1.886  0.4926  0.3211 -0.5509
 3817TIP3    H132942   2.823   5.397   1.941  0.9656  1.1343 -1.7417
 3817TIP3    H232943   2.768   5.351   1.808 -0.9229 -0.9857 -0.3009
 3818TIP3   OH232944   0.916   4.346  11.829 -0.1777  0.1731 -0.1691
 3818TIP3    H132945   0.923   4.250  11.832 -0.3228  0.1759  0.1960
 3818TIP3    H232946   1.006   4.376  11.817  0.3858  0.1395  3.1277
 3819TIP3   OH232947   4.219   6.522   3.198  0.1819 -0.2796  0.2089
 3819TIP3    H132948   4.288   6.586   3.215 -0.5464  0.6687 -0.3187
 3819TIP3    H232949   4.168   6.559   3.126 -1.7564 -0.2135  1.5264
 3820TIP3   OH232950   2.189   3.047   1.778  0.9825  1.0720  0.2699
 3820TIP3    H132951   2.138   3.014   1.703  0.8556  1.3565  0.2308
 3820TIP3    H232952   2.275   3.006   1.767  0.9079  0.9631  0.0717
 3821TIP3   OH232953   0.262   0.258  14.513  0.0816  0.0352  0.0574
 3821TIP3    H132954   0.171   0.247  14.543 -1.5747  0.7266 -4.0071
 3821TIP3    H232955   0.287   0.345  14.542 -1.5099  0.7943 -0.7132
 3822TIP3   OH232956   3.730   0.018   4.949 -0.0121  0.0951 -0.3697
 3822TIP3    H132957   3.695  -0.040   4.882 -0.5845 -0.1376  0.1313
 3822TIP3    H232958   3.802  -0.032   4.989  0.3080  0.2213 -0.7734
 3823TIP3   OH232959   2.612   1.995  12.858  0.8251 -0.2683 -0.0514
 3823TIP3    H132960   2.697   2.026  12.890  0.5643  0.0157  0.3816
 3823TIP3    H232961   2.632   1.914  12.811  1.8992  1.7747 -3.4823
 3824TIP3   OH232962   0.832   1.186   5.158 -0.1545 -0.0055 -0.1981
 3824TIP3    H132963   0.780   1.258   5.122 -0.5162 -0.5207 -0.7170
 3824TIP3    H232964   0.904   1.175   5.096 -0.5894 -0.6699 -0.5993
 3825TIP3   OH232965   1.070   1.254  13.758  0.4073  0.3483  0.6740
 3825TIP3    H132966   1.117   1.214  13.685  0.0681  1.6906 -0.3237
 3825TIP3    H232967   1.063   1.346  13.734 -1.1806  0.5071  1.6189
 3826TIP3   OH232968   4.989   4.956   4.400 -0.0381  0.1515  0.2147
 3826TIP3    H132969   4.970   4.958   4.494  0.1746  1.8614  0.2608
 3826TIP3    H232970   5.068   5.010   4.390 -0.0840  0.0384 -0.9450
 3827TIP3   OH232971   0.323   6.208   5.475  0.2794 -0.1731 -0.3130
 3827TIP3    H132972   0.288   6.130   5.519  0.7093 -0.1541  0.0618
 3827TIP3    H232973   0.263   6.278   5.500  1.9278  0.3842  2.3448
 3828TIP3   OH232974   2.626   5.198   6.246 -0.1738  0.4574  0.7151
 3828TIP3    H132975   2.604   5.113   6.207 -0.3524  0.5297  0.6522
 3828TIP3    H232976   2.692   5.179   6.312  0.0662  0.3189  0.4355
 3829TIP3   OH232977   3.560   2.251   1.016 -0.3521  0.1210 -0.2071
 3829TIP3    H132978   3.482   2.244   0.961 -0.4389  0.8763 -0.1874
 3829TIP3    H232979   3.546   2.331   1.067  1.4690  1.5705 -1.8439
 3830TIP3   OH232980   1.227   2.866   2.613  0.0387 -0.1271  0.2095
 3830TIP3    H132981   1.281   2.845   2.689  1.0051 -2.7354 -1.0723
 3830TIP3    H232982   1.171   2.788   2.602  0.7483 -0.3542 -2.3866
 3831TIP3   OH232983   4.427   4.726  16.560 -0.1978 -0.2887  0.2271
 3831TIP3    H132984   4.374   4.718  16.639  0.2364 -1.2327  0.4285
 3831TIP3    H232985   4.403   4.651  16.507  1.0954 -0.8801  0.4316
 3832TIP3   OH232986   1.248   3.479   4.266  0.1864  0.2202  0.0601
 3832TIP3    H132987   1.163   3.519   4.286 -0.6497 -1.6421  0.4177
 3832TIP3    H232988   1.264   3.502   4.175 -1.2526 -0.3007 -0.3563
 3833TIP3   OH232989   5.825   3.644   0.146 -0.3273  0.0023  0.0880
 3833TIP3    H132990   5.837   3.607   0.233 -1.5078 -1.5429 -0.3456
 3833TIP3    H232991   5.770   3.580   0.101 -1.1537  1.5755 -1.2449
 3834TIP3   OH232992   0.311   3.162   5.489  0.5437  0.3975  0.1321
 3834TIP3    H132993   0.216   3.165   5.494  0.4492  0.7167 -1.3916
 3834TIP3    H232994   0.341   3.210   5.566 -0.5691  2.0509 -0.4030
 3835TIP3   OH232995   1.690   5.522  13.685  0.0535 -0.8417 -0.5467
 3835TIP3    H132996   1.740   5.544  13.764 -0.9647  1.1404 -0.3907
 3835TIP3    H232997   1.752   5.533  13.613  0.3769 -0.3462 -0.2003
 3836TIP3   OH232998   6.413   3.769   1.081 -0.0271 -0.0205 -0.2836
 3836TIP3    H132999   6.325   3.775   1.043  0.1618  2.4975 -0.4943
 3836TIP3    H233000   6.471   3.797   1.012  0.5609  2.0491  0.9678
 3837TIP3   OH233001   4.140   1.851   2.745 -0.7099 -0.1921  0.0456
 3837TIP3    H133002   4.091   1.863   2.827 -0.7576  1.6678 -0.2137
 3837TIP3    H233003   4.077   1.873   2.676 -0.3782 -0.7739 -0.4534
 3838TIP3   OH233004   5.602   5.299   5.201 -0.4556 -0.0956  0.5459
 3838TIP3    H133005   5.578   5.280   5.292 -2.1427 -2.5147 -0.2874
 3838TIP3    H233006   5.688   5.258   5.190 -1.3670 -2.1356  0.4597
 3839TIP3   OH233007   2.791   0.578  14.568 -0.2015 -0.3072 -0.0540
 3839TIP3    H133008   2.734   0.655  14.566 -0.0618 -0.2107 -0.7482
 3839TIP3    H233009   2.879   0.613  14.577 -0.0887 -0.3469 -0.9073
 3840TIP3   OH233010   4.990   2.106  12.174 -0.3806  0.4096  0.8287
 3840TIP3    H133011   4.935   2.060  12.237 -0.3896 -0.3948  0.2525
 3840TIP3    H233012   4.955   2.079  12.089 -1.8211  3.1987  0.4259
 3841TIP3   OH233013   4.027   0.884  17.113  0.7682 -0.0350 -0.2847
 3841TIP3    H133014   3.968   0.954  17.140  1.2171 -0.4327  1.9545
 3841TIP3    H233015   3.974   0.826  17.059 -0.8806 -0.2761  1.4958
 3842TIP3   OH233016   4.540   2.510   4.397  0.0675 -0.8626 -0.6323
 3842TIP3    H133017   4.600   2.532   4.468  0.2483 -0.9057 -0.7702
 3842TIP3    H233018   4.552   2.416   4.383 -0.0314 -0.8713 -0.6615
 3843TIP3   OH233019   4.188   3.718   2.205 -0.5284 -0.0391 -0.3711
 3843TIP3    H133020   4.209   3.807   2.176  1.6130 -0.7149 -1.0869
 3843TIP3    H233021   4.097   3.723   2.236 -0.4883  2.3469 -0.5073
 3844TIP3   OH233022   2.455   1.449   0.663 -0.0567  0.0429  0.2420
 3844TIP3    H133023   2.516   1.381   0.692  1.7422  1.2798 -0.4004
 3844TIP3    H233024   2.511   1.526   0.649 -1.9901  1.6684  0.9397
 3845TIP3   OH233025   1.451   1.407  16.441 -0.1065 -0.1117  0.2696
 3845TIP3    H133026   1.413   1.320  16.454 -0.3029  0.0468  0.7949
 3845TIP3    H233027   1.540   1.400  16.476 -0.0737 -0.1423  0.1799
 3846TIP3   OH233028   4.300   2.310  11.372  0.3446 -0.1320  0.4099
 3846TIP3    H133029   4.329   2.399  11.395  0.3665 -0.0835  0.1959
 3846TIP3    H233030   4.292   2.311  11.277 -0.0975 -0.2266  0.4430
 3847TIP3   OH233031   0.859   2.689  11.054 -0.1007 -0.8766 -0.5086
 3847TIP3    H133032   0.771   2.728  11.051 -0.5586 -1.8365  0.1117
 3847TIP3    H233033   0.914   2.758  11.091 -0.5365 -0.1808 -1.1085
 3848TIP3   OH233034   1.012   3.650  17.494  0.1816 -0.7580  0.4091
 3848TIP3    H133035   1.009   3.681  17.584  0.6088 -1.2382  0.5936
 3848TIP3    H233036   0.922   3.658  17.463 -0.1640 -1.4583  1.1863
 3849TIP3   OH233037   2.216   3.321  13.258  0.4306  0.0002 -0.2014
 3849TIP3    H133038   2.248   3.384  13.193 -0.3478 -1.4777 -2.1257
 3849TIP3    H233039   2.279   3.249  13.254  0.2232 -0.2255  0.4937
 3850TIP3   OH233040   1.438   0.724  14.484  0.3479 -0.0969  0.3145
 3850TIP3    H133041   1.419   0.750  14.394 -0.1039 -1.8985 -0.1458
 3850TIP3    H233042   1.487   0.643  14.476  2.0099  0.7150  1.6776
 3851TIP3   OH233043   4.335   2.754  12.729  0.0873  0.2063 -0.1655
 3851TIP3    H133044   4.410   2.714  12.684  3.0616  1.7475  2.9963
 3851TIP3    H233045   4.281   2.679  12.754  1.6338 -1.1901 -0.7695
 3852TIP3   OH233046   1.636   1.367  15.063 -0.1832  0.0763 -0.1809
 3852TIP3    H133047   1.677   1.403  15.142 -0.7759  3.1358 -1.1368
 3852TIP3    H233048   1.553   1.329  15.094  0.3554 -0.3134  0.8581
 3853TIP3   OH233049   4.985   1.014  12.171 -0.5571 -0.2090  0.0605
 3853TIP3    H133050   5.064   1.062  12.195  0.8162 -2.1025 -0.4801
 3853TIP3    H233051   4.940   0.999  12.254 -0.4044  0.9429  0.3669
 3854TIP3   OH233052   6.253   5.834   2.809 -0.6160 -0.2391  0.2137
 3854TIP3    H133053   6.217   5.790   2.886 -1.3033 -1.4902 -0.7648
 3854TIP3    H233054   6.306   5.905   2.844  1.0612 -2.2158  1.9413
 3855TIP3   OH233055   4.399   2.556  11.739  0.1863  0.0872 -0.1649
 3855TIP3    H133056   4.394   2.557  11.643  0.6904 -0.8530 -0.2127
 3855TIP3    H233057   4.487   2.588  11.759  0.4518 -0.6837 -0.0650
 3856TIP3   OH233058   0.356   2.946  14.431 -0.0411 -0.0121 -0.3715
 3856TIP3    H133059   0.379   2.905  14.348 -0.5826 -0.3303 -0.3727
 3856TIP3    H233060   0.381   3.037  14.421  0.4287 -0.1705 -0.6723
 3857TIP3   OH233061   6.254   3.591   5.445 -0.0690  0.3164 -0.4846
 3857TIP3    H133062   6.177   3.551   5.485 -0.3090 -1.5391 -2.6065
 3857TIP3    H233063   6.223   3.675   5.412 -1.2822 -0.5137 -1.5220
 3858TIP3   OH233064   1.510   6.150   5.123 -0.0080 -0.7829 -0.0107
 3858TIP3    H133065   1.425   6.121   5.091  0.4165  0.0404 -1.9915
 3858TIP3    H233066   1.542   6.211   5.057  1.9049 -0.6764  0.9383
 3859TIP3   OH233067   0.283   3.099   0.448 -0.6002 -0.2026  0.3618
 3859TIP3    H133068   0.196   3.087   0.409 -1.1907  1.4030  1.1148
 3859TIP3    H233069   0.267   3.151   0.527  1.2467  1.9378 -0.5613
 3860TIP3   OH233070   5.423   6.139  11.996  0.2867 -0.1177  0.1026
 3860TIP3    H133071   5.400   6.145  11.904  0.3954 -1.3960 -0.0250
 3860TIP3    H233072   5.512   6.174  12.001 -0.4073  1.7695  0.0674
 3861TIP3   OH233073   4.816   4.270   2.719  1.0487 -0.3267  0.9933
 3861TIP3    H133074   4.857   4.189   2.747  2.8726  1.2218  3.1866
 3861TIP3    H233075   4.886   4.319   2.676 -0.1494 -0.0671 -0.7608
 3862TIP3   OH233076   0.842   4.164   2.186 -0.2054  0.5090 -0.1502
 3862TIP3    H133077   0.868   4.193   2.274 -2.7918  1.6916  0.3151
 3862TIP3    H233078   0.878   4.076   2.179  2.1230  1.2507  1.0962
 3863TIP3   OH233079   4.682   1.821   0.139 -0.2370  0.2842  0.5062
 3863TIP3    H133080   4.682   1.733   0.101 -0.4118  0.5998 -0.2523
 3863TIP3    H233081   4.674   1.880   0.064 -0.0874  0.9536  0.9980
 3864TIP3   OH233082   4.188   1.135   2.436 -0.1590 -0.3701 -0.5729
 3864TIP3    H133083   4.106   1.147   2.483  0.8433 -0.5634  1.2978
 3864TIP3    H233084   4.177   1.051   2.390 -0.4045 -1.2279  1.0033
 3865TIP3   OH233085   0.881   0.801   5.913  0.1563  0.7703 -0.1261
 3865TIP3    H133086   0.863   0.710   5.893  0.7354  0.4544  0.7620
 3865TIP3    H233087   0.966   0.818   5.874 -0.0361  0.9958 -0.4581
 3866TIP3   OH233088   4.906   0.690  12.255 -0.0635  0.7721  0.0088
 3866TIP3    H133089   4.856   0.610  12.268  1.6304 -0.3881 -0.2096
 3866TIP3    H233090   4.858   0.739  12.188 -0.0608 -1.0801 -1.4302
 3867TIP3   OH233091   1.143   5.038  11.954  0.5419 -0.2645 -0.2754
 3867TIP3    H133092   1.061   4.989  11.958 -0.5877  1.6127  0.6259
 3867TIP3    H233093   1.121   5.125  11.987  2.7764  0.4672 -0.5579
 3868TIP3   OH233094   1.451   6.311  14.486 -0.5631  0.4179 -0.1489
 3868TIP3    H133095   1.397   6.300  14.565 -0.9076 -0.7899 -0.5398
 3868TIP3    H233096   1.412   6.386  14.441 -0.0646  1.4326  1.0574
 3869TIP3   OH233097   2.407   2.400  14.282 -0.0274  0.1933  0.1535
 3869TIP3    H133098   2.365   2.481  14.311 -0.1275  1.1657 -2.3900
 3869TIP3    H233099   2.391   2.338  14.353 -3.1963  1.3436  0.6308
 3870TIP3   OH233100   4.107   5.417   1.860  1.2293 -0.2608 -0.0784
 3870TIP3    H133101   4.097   5.511   1.880 -1.6780 -0.2773 -0.9993
 3870TIP3    H233102   4.163   5.414   1.783  0.8265  0.8089 -0.4327
 3871TIP3   OH233103   2.735   0.593  12.654 -0.1812  0.1340 -0.0848
 3871TIP3    H133104   2.679   0.662  12.690  1.3811 -0.4749  3.9723
 3871TIP3    H233105   2.821   0.634  12.649  0.6719 -1.2860  1.9432
 3872TIP3   OH233106   4.269   0.941   5.238  0.3570 -0.0299  0.0563
 3872TIP3    H133107   4.224   0.975   5.316  2.1946  1.9653  0.3334
 3872TIP3    H233108   4.201   0.893   5.191 -1.7154  1.6614  1.1196
 3873TIP3   OH233109   0.724   2.483  17.236 -0.3185  0.0767  0.6183
 3873TIP3    H133110   0.677   2.483  17.319 -0.8600  2.0055  0.3478
 3873TIP3    H233111   0.670   2.430  17.177 -0.3207 -0.6572  1.2642
 3874TIP3   OH233112   3.136   5.251  15.344 -0.3281 -0.3045 -0.1503
 3874TIP3    H133113   3.103   5.170  15.382 -0.9578 -0.6524 -1.3946
 3874TIP3    H233114   3.066   5.315  15.357 -1.5837 -1.0130 -2.6835
 3875TIP3   OH233115   3.776   0.447   0.187 -0.0758 -0.3378  0.1169
 3875TIP3    H133116   3.763   0.418   0.278  0.5294 -0.6760  0.0932
 3875TIP3    H233117   3.852   0.505   0.192  0.9009 -1.5382 -0.4187
 3876TIP3   OH233118   0.174   3.528  13.159 -0.1955 -0.2344  0.2996
 3876TIP3    H133119   0.183   3.481  13.242 -0.7464 -0.1678  0.4045
 3876TIP3    H233120   0.205   3.617  13.178 -1.8874  0.2663  0.9173
 3877TIP3   OH233121   1.290   3.927  14.617 -0.5921  0.0745  0.6043
 3877TIP3    H133122   1.338   3.882  14.687  0.6674 -0.3131 -0.4720
 3877TIP3    H233123   1.342   4.006  14.600  0.4823 -1.0047 -1.4761
 3878TIP3   OH233124   2.856   4.386   0.473 -0.3586  0.0611 -0.2258
 3878TIP3    H133125   2.893   4.451   0.533 -1.2771 -0.3344  0.8151
 3878TIP3    H233126   2.919   4.314   0.476 -0.7739 -0.2879  0.9298
 3879TIP3   OH233127   3.657   6.532  11.819 -0.0966  0.0958 -0.2458
 3879TIP3    H133128   3.733   6.475  11.807 -0.7576 -0.8314 -0.1423
 3879TIP3    H233129   3.675   6.581  11.899  0.1299 -0.5459  0.0978
 3880TIP3   OH233130   3.048   5.470  16.658  0.1357  0.1573 -0.0048
 3880TIP3    H133131   3.071   5.554  16.617 -0.0729  0.2608  0.0863
 3880TIP3    H233132   2.957   5.482  16.687  0.9981  0.9459  2.6610
 3881TIP3   OH233133   0.617   1.759  13.847 -0.4167  0.1394 -0.0344
 3881TIP3    H133134   0.631   1.683  13.904  0.7602  0.5925  0.2932
 3881TIP3    H233135   0.670   1.828  13.886  0.6638  0.3847 -1.8482
 3882TIP3   OH233136   2.151   1.656   5.433  0.4985  0.5798  0.4586
 3882TIP3    H133137   2.152   1.583   5.495  1.2228 -0.3332 -0.5939
 3882TIP3    H233138   2.059   1.668   5.411  0.2883  0.5734  1.3050
 3883TIP3   OH233139   3.909   1.906  17.496 -0.3186 -0.0408 -0.0292
 3883TIP3    H133140   3.883   1.814  17.494  1.0949 -0.4725  0.0668
 3883TIP3    H233141   3.869   1.941  17.575 -0.5810 -0.6704  0.1221
 3884TIP3   OH233142   1.627   2.510   5.174 -0.4757 -0.1517 -1.1199
 3884TIP3    H133143   1.642   2.594   5.218  1.2635 -0.9245 -0.1560
 3884TIP3    H233144   1.558   2.468   5.226 -0.1522 -0.0291 -0.5877
 3885TIP3   OH233145   4.899   3.526   6.604 -0.5708  0.0173  0.0028
 3885TIP3    H133146   4.909   3.616   6.635 -0.5837  0.6554 -1.7622
 3885TIP3    H233147   4.968   3.516   6.539 -1.1085 -0.9858 -0.4271
 3886TIP3   OH233148   1.032   1.275   1.814 -0.3043  0.4804 -1.1545
 3886TIP3    H133149   1.108   1.326   1.840  0.9022 -1.2421 -1.0950
 3886TIP3    H233150   0.979   1.268   1.894  0.0809  0.6835 -0.8785
 3887TIP3   OH233151   0.903   0.808   0.990  0.0552 -0.8405 -0.0038
 3887TIP3    H133152   0.859   0.751   1.054 -2.1525 -0.6236 -1.2428
 3887TIP3    H233153   0.885   0.767   0.905  2.3515 -0.7428 -0.6026
 3888TIP3   OH233154   1.680   5.513   1.582 -0.7840 -0.1142 -0.9477
 3888TIP3    H133155   1.738   5.516   1.506 -0.7223 -0.1904 -0.9037
 3888TIP3    H233156   1.725   5.567   1.648 -1.7708  1.6218 -1.6106
 3889TIP3   OH233157   1.926   0.464   2.732 -0.0329 -0.0644  0.4092
 3889TIP3    H133158   1.966   0.491   2.650 -0.4602 -1.7914 -0.4118
 3889TIP3    H233159   1.996   0.419   2.779 -0.1475 -0.2768  0.3786
 3890TIP3   OH233160   5.065   1.858   3.533 -0.2069 -0.2097  0.1010
 3890TIP3    H133161   5.141   1.827   3.485  0.0558  0.8920 -0.2163
 3890TIP3    H233162   4.994   1.799   3.507 -0.3067  0.9046 -2.4160
 3891TIP3   OH233163   6.553   2.972   0.732  1.1469  0.2683 -0.2117
 3891TIP3    H133164   6.500   2.903   0.772 -1.8932  1.9939 -0.9452
 3891TIP3    H233165   6.567   3.036   0.802  1.9893  0.0083 -0.1285
 3892TIP3   OH233166   2.727   0.600   4.371 -0.3607  0.1028  0.0880
 3892TIP3    H133167   2.774   0.555   4.441  0.6334  0.5873 -0.2503
 3892TIP3    H233168   2.653   0.642   4.415  0.5126  0.8012  0.9536
 3893TIP3   OH233169   2.876   6.240   2.678 -0.4197  0.0535 -0.1080
 3893TIP3    H133170   2.946   6.179   2.704 -0.7260 -0.4597 -0.4846
 3893TIP3    H233171   2.803   6.184   2.653 -0.0667  0.4944 -2.3462
 3894TIP3   OH233172   1.954   4.201   3.970  0.4596  0.4782  0.0477
 3894TIP3    H133173   1.959   4.278   4.027 -1.2803  1.0161 -0.4920
 3894TIP3    H233174   1.864   4.171   3.977  1.2922 -2.0693  0.9087
 3895TIP3   OH233175   4.385   5.762   5.611 -0.1730  0.1719 -0.1311
 3895TIP3    H133176   4.380   5.851   5.647 -0.5062  0.0071  0.2385
 3895TIP3    H233177   4.465   5.726   5.649  1.2256  1.0677 -2.0501
 3896TIP3   OH233178   2.917   4.213  11.002  0.4115  0.2142 -0.3736
 3896TIP3    H133179   2.995   4.206  10.947  0.7451  0.7258  0.0253
 3896TIP3    H233180   2.859   4.272  10.953  0.9671  1.1794  0.1047
 3897TIP3   OH233181   5.573   3.765  16.203  0.1143 -0.2241 -0.1402
 3897TIP3    H133182   5.654   3.769  16.152  0.5287  1.2279  0.5612
 3897TIP3    H233183   5.591   3.701  16.272  0.6482  0.0373 -0.0343
 3898TIP3   OH233184   3.406   0.568  15.223 -0.1416 -0.0066 -0.5524
 3898TIP3    H133185   3.408   0.662  15.235  1.2737  0.0710 -1.1106
 3898TIP3    H233186   3.358   0.555  15.141  1.4095  0.4078 -1.5679
 3899TIP3   OH233187   1.028   5.960  15.445  0.0022  0.0404 -0.0759
 3899TIP3    H133188   1.120   5.976  15.424  0.8038 -2.4056  1.1144
 3899TIP3    H233189   0.998   5.899  15.377 -0.1553 -0.6194  0.5687
 3900TIP3   OH233190   0.780   4.585   4.423  0.4864 -0.6773  0.8937
 3900TIP3    H133191   0.816   4.636   4.496 -1.5368  1.4089  0.5648
 3900TIP3    H233192   0.729   4.649   4.372 -0.1435 -2.5641 -0.9912
 3901TIP3   OH233193   0.182   0.850  10.635  0.3970  0.5956 -0.3972
 3901TIP3    H133194   0.134   0.907  10.695  1.2305  2.9876 -1.8771
 3901TIP3    H233195   0.121   0.778  10.616 -1.0218  1.4040  0.8744
 3902TIP3   OH233196   5.612   4.083   0.777  0.0018 -0.4781 -0.0626
 3902TIP3    H133197   5.651   4.106   0.692  0.0896  0.7877  0.2936
 3902TIP3    H233198   5.541   4.023   0.755 -2.0142  2.2057 -1.4099
 3903TIP3   OH233199   2.493   1.389   0.297 -0.6826 -0.1276  0.6093
 3903TIP3    H133200   2.549   1.429   0.231  1.6561 -1.7589  1.4624
 3903TIP3    H233201   2.468   1.461   0.354 -1.2999  1.0025 -1.0052
 3904TIP3   OH233202   3.186   4.489  14.101 -0.2367  0.0535  0.0035
 3904TIP3    H133203   3.179   4.428  14.028  1.4168  0.0328 -0.1894
 3904TIP3    H233204   3.147   4.444  14.175  1.9791 -1.7908  0.1525
 3905TIP3   OH233205   5.571   5.778   0.375  0.2590 -0.0531  0.2026
 3905TIP3    H133206   5.647   5.771   0.433 -0.9661  0.8777  2.0263
 3905TIP3    H233207   5.599   5.836   0.305  0.5044  2.4991  2.2694
 3906TIP3   OH233208   5.323   4.537   0.861  0.1378  0.0432  0.3089
 3906TIP3    H133209   5.257   4.468   0.863 -0.3678  0.5410  1.1720
 3906TIP3    H233210   5.407   4.490   0.866 -0.2226 -0.4875  2.0542
 3907TIP3   OH233211   0.586   2.825   3.935 -0.1547 -0.0312  0.1668
 3907TIP3    H133212   0.628   2.848   3.852  0.2428  1.0232  0.6373
 3907TIP3    H233213   0.509   2.775   3.910  2.2602 -3.7126 -0.7046
 3908TIP3   OH233214   1.461   4.018  11.805  0.2661  0.0051 -0.0829
 3908TIP3    H133215   1.485   4.014  11.712 -0.5050  0.1495 -0.2922
 3908TIP3    H233216   1.545   4.028  11.850  0.6820 -0.4320 -0.7361
 3909TIP3   OH233217   2.544   2.664   5.855  0.6329 -0.2005 -0.5105
 3909TIP3    H133218   2.465   2.708   5.824  1.0404  0.3891 -0.7263
 3909TIP3    H233219   2.605   2.669   5.783  0.6387 -1.3015 -0.6097
 3910TIP3   OH233220   4.832   3.992   2.809 -0.7496  0.7048 -0.1734
 3910TIP3    H133221   4.755   3.946   2.843 -0.5243  0.2563 -0.2711
 3910TIP3    H233222   4.873   3.929   2.750  0.0864  0.6871  0.4166
 3911TIP3   OH233223   6.319   5.414  12.163 -0.1177  0.3889  0.6401
 3911TIP3    H133224   6.303   5.333  12.114 -0.4925  0.3498  0.8258
 3911TIP3    H233225   6.407   5.441  12.135  0.6078 -0.8248  1.5952
 3912TIP3   OH233226   5.039   5.655  11.999  0.3992 -0.0786 -0.1032
 3912TIP3    H133227   5.134   5.649  12.009  0.8149 -2.1776 -3.6192
 3912TIP3    H233228   5.004   5.591  12.060  1.2367  0.2088  0.7157
 3913TIP3   OH233229   2.887   2.763  11.248  0.4120  0.4275  0.0725
 3913TIP3    H133230   2.851   2.840  11.205  2.3836  1.9846  1.0267
 3913TIP3    H233231   2.966   2.743  11.198  0.6596 -0.1189  0.6707
 3914TIP3   OH233232   6.091   0.740   4.446  0.2786 -0.2224 -0.0447
 3914TIP3    H133233   6.096   0.834   4.467  0.6621 -0.5503  1.4784
 3914TIP3    H233234   6.132   0.732   4.360  1.9149  0.7735  0.6029
 3915TIP3   OH233235   2.727   4.423  17.405 -0.1382  0.1993  0.2087
 3915TIP3    H133236   2.689   4.442  17.490 -0.3805  0.0375  0.1394
 3915TIP3    H233237   2.718   4.328  17.395  0.4311  0.1364  0.2583
 3916TIP3   OH233238   0.953   6.367  16.173 -0.2985 -0.9528 -0.0855
 3916TIP3    H133239   1.029   6.355  16.116 -0.3710  1.7035 -0.8762
 3916TIP3    H233240   0.990   6.397  16.256 -0.3711 -1.8108  0.2609
 3917TIP3   OH233241   5.444   0.178   3.428 -0.2295  0.0840 -0.2938
 3917TIP3    H133242   5.385   0.104   3.435 -0.8593  0.7127  1.9475
 3917TIP3    H233243   5.388   0.252   3.404 -0.0961  0.3471  0.1751
 3918TIP3   OH233244   1.113   3.468  15.793 -0.0328 -0.2020 -0.2735
 3918TIP3    H133245   1.166   3.509  15.725  1.9839 -1.4413  0.4674
 3918TIP3    H233246   1.123   3.374  15.777 -1.9855 -0.5028 -0.0355
 3919TIP3   OH233247   4.589   1.791  12.252 -0.7436  0.1939  0.5537
 3919TIP3    H133248   4.528   1.855  12.217 -0.5154  0.3143  0.3742
 3919TIP3    H233249   4.589   1.720  12.188  0.4994  0.8989 -0.2661
 3920TIP3   OH233250   4.741   4.395  14.535 -0.0008 -0.4716  0.5562
 3920TIP3    H133251   4.690   4.362  14.609  1.2660 -0.5387  1.4368
 3920TIP3    H233252   4.818   4.338  14.531  1.3396  1.1965  0.9805
 3921TIP3   OH233253   6.597   6.458   1.801  0.3568 -0.1701  0.5397
 3921TIP3    H133254   6.686   6.490   1.793  0.5767 -0.2752  2.1613
 3921TIP3    H233255   6.606   6.362   1.806 -0.0391 -0.3364 -1.2216
 3922TIP3   OH233256   6.116   1.800   4.143  0.1912  0.9997  0.1601
 3922TIP3    H133257   6.174   1.847   4.083 -0.2108  1.8922  0.4568
 3922TIP3    H233258   6.031   1.801   4.100  0.0192  1.1856  0.4963
 3923TIP3   OH233259   2.153   0.088   3.692 -0.2454  0.7939 -0.0373
 3923TIP3    H133260   2.237   0.127   3.670  1.5444 -2.4577  0.4254
 3923TIP3    H233261   2.110   0.074   3.608  0.8959  0.0669 -0.5225
 3924TIP3   OH233262   5.450   2.041  12.634  0.0317  0.8765 -0.5186
 3924TIP3    H133263   5.448   2.095  12.713  1.5777 -0.1583  0.2945
 3924TIP3    H233264   5.376   1.981  12.644  0.1583  0.8203  0.1034
 3925TIP3   OH233265   6.727   0.543  14.416 -0.0930  0.3324 -0.1507
 3925TIP3    H133266   6.732   0.485  14.340 -2.1511 -0.6422  0.3857
 3925TIP3    H233267   6.638   0.578  14.414 -0.0991  0.5343  1.5987
 3926TIP3   OH233268   0.236   0.627  16.184 -0.3552  0.1913 -0.0467
 3926TIP3    H133269   0.167   0.667  16.235  0.4748 -0.5344  1.7371
 3926TIP3    H233270   0.317   0.661  16.223  0.3132 -1.3080 -0.0705
 3927TIP3   OH233271   0.740   5.304   4.056  0.1848 -0.2577  0.1730
 3927TIP3    H133272   0.820   5.351   4.076  0.1817 -0.0797 -0.2230
 3927TIP3    H233273   0.725   5.247   4.132  0.9825 -0.6989  0.0041
 3928TIP3   OH233274   2.261   0.777  16.756 -0.0838 -0.6831 -0.4601
 3928TIP3    H133275   2.309   0.821  16.686 -0.4825 -0.2339 -0.4596
 3928TIP3    H233276   2.237   0.692  16.719 -0.2572 -0.4641 -0.8562
 3929TIP3   OH233277   5.590   1.173   0.483 -0.2669  0.0925  0.3114
 3929TIP3    H133278   5.501   1.202   0.464 -0.4730  1.2182  2.5855
 3929TIP3    H233279   5.646   1.229   0.429 -0.8998 -0.1963 -0.6656
 3930TIP3   OH233280   0.958   0.370  12.060 -0.3216  0.4874  0.0394
 3930TIP3    H133281   0.916   0.387  12.144 -1.1806 -0.2626 -0.2255
 3930TIP3    H233282   1.050   0.392  12.074 -0.9648  3.5472  0.2379
 3931TIP3   OH233283   4.929   4.349   5.233  0.3390  0.8505 -0.4140
 3931TIP3    H133284   4.991   4.348   5.160  0.6630 -0.4562 -0.1585
 3931TIP3    H233285   4.846   4.324   5.194  0.3499  0.9211 -0.4806
 3932TIP3   OH233286   3.170   0.263  12.329  0.0414  0.1407  0.0323
 3932TIP3    H133287   3.130   0.188  12.373 -2.5757  1.6172  0.3809
 3932TIP3    H233288   3.179   0.236  12.238  1.9979 -1.5975  0.6531
 3933TIP3   OH233289   5.985   0.216   1.859 -0.1846 -0.3898 -0.2854
 3933TIP3    H133290   5.970   0.239   1.767  0.8850  0.6654 -0.2302
 3933TIP3    H233291   5.900   0.229   1.901  0.0449  2.5406 -0.4929
 3934TIP3   OH233292   1.263   3.509   2.616 -0.2477  0.1877  0.5337
 3934TIP3    H133293   1.212   3.486   2.538  0.7128 -0.0347 -0.0453
 3934TIP3    H233294   1.227   3.594   2.644 -0.2880  0.5037 -0.4396
 3935TIP3   OH233295   4.407   0.909  16.505 -0.7656 -0.2554 -0.3673
 3935TIP3    H133296   4.433   0.986  16.456 -0.2716  0.7899  1.4521
 3935TIP3    H233297   4.481   0.849  16.496 -0.7401 -0.1364 -0.9897
 3936TIP3   OH233298   5.382   6.329  15.993 -0.1062  0.5645 -0.0176
 3936TIP3    H133299   5.477   6.316  15.992 -0.0754  0.6820  0.6639
 3936TIP3    H233300   5.360   6.335  16.086 -0.9301 -0.5464 -0.1112
 3937TIP3   OH233301   6.039   4.726  14.787 -0.6052  0.3367 -0.3765
 3937TIP3    H133302   5.975   4.727  14.858 -0.0444  1.2755  0.1377
 3937TIP3    H233303   6.009   4.794  14.727 -0.5983  0.1405 -0.6045
 3938TIP3   OH233304   5.436   1.259   1.016 -0.5547  0.4092  0.2800
 3938TIP3    H133305   5.523   1.221   1.023 -1.3936 -1.6063  0.5217
 3938TIP3    H233306   5.405   1.234   0.929 -1.4172 -0.1242  0.7263
 3939TIP3   OH233307   1.187   6.414  14.599  0.2823  0.2957  0.1374
 3939TIP3    H133308   1.214   6.506  14.597 -0.7614  0.5956 -0.3619
 3939TIP3    H233309   1.092   6.416  14.608  0.3912 -0.7483  2.2073
 3940TIP3   OH233310   2.738   4.743   5.935  0.3106 -0.3895 -0.0512
 3940TIP3    H133311   2.827   4.709   5.931 -0.2710 -1.9034 -1.5525
 3940TIP3    H233312   2.738   4.818   5.875  0.9059  0.6017  1.1313
 3941TIP3   OH233313   2.779   4.105   5.942 -0.7591  0.2894 -0.2167
 3941TIP3    H133314   2.714   4.055   5.992 -0.1516 -0.5914 -0.2793
 3941TIP3    H233315   2.795   4.051   5.864  0.0207  0.5073 -0.2117
 3942TIP3   OH233316   2.617   5.743   3.985 -0.6008  0.2730  0.1387
 3942TIP3    H133317   2.558   5.723   3.912  0.1861  0.0896 -0.4729
 3942TIP3    H233318   2.576   5.702   4.061 -0.1091 -1.9785 -0.7008
 3943TIP3   OH233319   6.551   4.726  15.151  0.2122 -0.3507 -0.7016
 3943TIP3    H133320   6.529   4.658  15.088 -1.1269  1.9278 -2.8849
 3943TIP3    H233321   6.471   4.740  15.200  0.2720  0.0899 -0.7261
 3944TIP3   OH233322   0.619   3.721   0.651  0.1773  0.3328 -0.5372
 3944TIP3    H133323   0.541   3.769   0.679 -1.2952 -1.8851 -0.5693
 3944TIP3    H233324   0.690   3.785   0.657 -1.1838  1.7737  1.9039
 3945TIP3   OH233325   0.422   0.104   3.707  0.6232  0.6737 -0.6466
 3945TIP3    H133326   0.365   0.102   3.630  0.4421 -1.4273 -0.5159
 3945TIP3    H233327   0.362   0.097   3.782  0.8306  2.2513 -0.2961
 3946TIP3   OH233328   0.650   3.124  15.306  0.3683  0.0733 -0.2697
 3946TIP3    H133329   0.660   3.034  15.274 -1.8113 -0.0609 -0.7316
 3946TIP3    H233330   0.677   3.179  15.233 -0.1693 -0.2121 -0.6815
 3947TIP3   OH233331   2.964   6.458   4.012  0.3385 -0.6912  0.1607
 3947TIP3    H133332   3.001   6.444   4.099  0.2412 -0.2981  0.2681
 3947TIP3    H233333   2.988   6.379   3.963  2.1833 -0.0335 -0.0746
 3948TIP3   OH233334   6.057   4.816   5.699 -0.2495  0.3814 -0.2305
 3948TIP3    H133335   6.081   4.834   5.608  1.5695  0.4954  0.2370
 3948TIP3    H233336   6.056   4.902   5.742  2.2927  0.0681  0.5909
 3949TIP3   OH233337   6.443   4.669  14.353 -0.5667 -0.0196 -0.0547
 3949TIP3    H133338   6.433   4.666  14.448 -1.0958  0.3029 -0.0963
 3949TIP3    H233339   6.509   4.602  14.333 -3.4369 -3.1661  0.1133
 3950TIP3   OH233340   2.682   2.420  16.172  0.0286 -0.3346  0.7408
 3950TIP3    H133341   2.700   2.378  16.088  0.4569 -0.8572  1.0824
 3950TIP3    H233342   2.599   2.381  16.201  0.2727 -0.7376  0.9161
 3951TIP3   OH233343   6.115   6.735  16.116  0.3902 -0.1303 -0.2493
 3951TIP3    H133344   6.180   6.724  16.185 -0.9331  0.0833  1.0840
 3951TIP3    H233345   6.162   6.777  16.045  1.1928  2.2661  1.5711
 3952TIP3   OH233346   1.692   1.395   2.179 -0.4461  0.6763  0.1874
 3952TIP3    H133347   1.779   1.420   2.147 -0.3108  1.0066  0.7915
 3952TIP3    H233348   1.661   1.329   2.117  1.1963 -1.1749  1.2265
 3953TIP3   OH233349   2.352   2.756   0.582 -0.4038 -0.1605  0.1329
 3953TIP3    H133350   2.345   2.849   0.559  1.8637 -0.3519 -1.6150
 3953TIP3    H233351   2.430   2.751   0.638 -0.9309 -0.9519  0.8220
 3954TIP3   OH233352   4.755   0.679  17.043  0.0539  0.1288 -0.0378
 3954TIP3    H133353   4.682   0.631  17.005 -0.4645  1.1181 -0.3227
 3954TIP3    H233354   4.741   0.673  17.138 -0.8601  0.9795 -0.0993
 3955TIP3   OH233355   3.675   6.085  16.653 -0.4477  0.5696 -0.0305
 3955TIP3    H133356   3.638   6.050  16.734 -0.5483  1.3897  0.2920
 3955TIP3    H233357   3.733   6.016  16.622 -0.9360 -0.0368  0.3717
 3956TIP3   OH233358   5.230   6.574  15.485  0.1814  0.1203  0.4093
 3956TIP3    H133359   5.319   6.540  15.485  0.7077  1.3337  2.3809
 3956TIP3    H233360   5.190   6.535  15.563 -1.4217 -1.3121 -1.0604
 3957TIP3   OH233361   1.246   0.154   2.879  0.0944  0.7031 -0.5168
 3957TIP3    H133362   1.284   0.111   2.955 -0.8639  0.4802 -0.1554
 3957TIP3    H233363   1.321   0.189   2.831  0.7624  0.0835  0.0645
 3958TIP3   OH233364   6.732   3.298  16.064 -0.7490  0.8806  0.1671
 3958TIP3    H133365   6.780   3.376  16.036 -0.1310 -0.1938 -1.9552
 3958TIP3    H233366   6.643   3.329  16.079 -0.2755  2.1879  0.4296
 3959TIP3   OH233367   0.300   5.634  11.625 -0.4623  0.4096  0.2246
 3959TIP3    H133368   0.253   5.680  11.695  2.9114  2.1608  1.5567
 3959TIP3    H233369   0.308   5.698  11.555  0.0816  0.1957  0.0894
 3960TIP3   OH233370   2.325   3.482   2.752  0.5074 -0.4166 -0.2018
 3960TIP3    H133371   2.404   3.427   2.746  0.4445 -0.4531 -0.7024
 3960TIP3    H233372   2.345   3.559   2.700 -0.1219 -0.8305 -1.0787
 3961TIP3   OH233373   3.438   1.079  14.890  0.4620  0.3823  0.2219
 3961TIP3    H133374   3.496   1.014  14.849  0.2526  1.1981 -1.4960
 3961TIP3    H233375   3.488   1.161  14.886  0.5074  0.4556  1.8535
 3962TIP3   OH233376   4.476   0.192  17.308  0.7177  0.1869 -0.0411
 3962TIP3    H133377   4.420   0.172  17.233 -0.9666  0.9133  0.9665
 3962TIP3    H233378   4.487   0.287  17.305 -0.6031  0.4222  1.4208
 3963TIP3   OH233379   2.920   2.720  12.445  0.1048  0.4754  0.7855
 3963TIP3    H133380   2.921   2.624  12.446  0.1815  0.4200 -1.0054
 3963TIP3    H233381   3.002   2.745  12.488 -0.0114 -0.2329  1.4571
 3964TIP3   OH233382   4.802   4.867   4.097  0.1947 -0.2137 -0.4151
 3964TIP3    H133383   4.710   4.872   4.123  0.6503 -1.1545  1.5428
 3964TIP3    H233384   4.850   4.853   4.179  2.1491  0.7500 -1.3128
 3965TIP3   OH233385   6.673   4.726   6.207  0.1364 -0.1584  0.4320
 3965TIP3    H133386   6.651   4.637   6.181  1.2659 -0.6329  0.9973
 3965TIP3    H233387   6.769   4.725   6.216 -0.0112  0.3737  2.9430
 3966TIP3   OH233388   4.588   5.191   3.814  0.1118  0.1258 -0.6242
 3966TIP3    H133389   4.636   5.232   3.742 -0.0761  0.9995 -0.2686
 3966TIP3    H233390   4.646   5.121   3.845  0.4501  0.1324 -1.2395
 3967TIP3   OH233391   0.343   6.176  13.735  0.3849  0.3390 -0.4843
 3967TIP3    H133392   0.248   6.162  13.741  0.6023 -0.6950  0.9806
 3967TIP3    H233393   0.377   6.155  13.822  1.9536  0.8219 -0.9403
 3968TIP3   OH233394   5.484   4.021  16.819 -0.0798  0.8589  0.0728
 3968TIP3    H133395   5.465   3.928  16.831  0.1630  0.7477 -0.4046
 3968TIP3    H233396   5.416   4.065  16.871 -0.7612  0.4348 -0.4287
 3969TIP3   OH233397   2.073   5.054   0.462 -0.3316 -0.1972  0.1604
 3969TIP3    H133398   1.992   5.092   0.497  0.4309  2.1446 -0.4765
 3969TIP3    H233399   2.128   5.040   0.538  0.4924  2.8597  0.2550
 3970TIP3   OH233400   4.650   3.169   0.588  0.2122 -0.0499 -0.0009
 3970TIP3    H133401   4.556   3.179   0.576  0.2629  1.5403  0.6673
 3970TIP3    H233402   4.671   3.228   0.660  1.8761  0.3421 -0.7626
 3971TIP3   OH233403   4.742   1.327  12.704  0.4258 -0.0281  0.9183
 3971TIP3    H133404   4.698   1.397  12.753 -0.5687  0.0208 -0.0067
 3971TIP3    H233405   4.820   1.369  12.668 -0.8135  1.0219 -0.7053
 3972TIP3   OH233406   4.136   0.665  11.965 -0.7863 -0.3109 -0.3630
 3972TIP3    H133407   4.185   0.601  11.914 -0.6013 -2.9463  2.8008
 3972TIP3    H233408   4.044   0.640  11.953 -0.9587  0.7878 -1.4834
 3973TIP3   OH233409   6.695   2.034   4.710  0.4524  0.2174 -0.2942
 3973TIP3    H133410   6.650   2.061   4.791  0.6419 -0.6584  0.1159
 3973TIP3    H233411   6.701   2.114   4.658  1.6393  1.1320  1.1851
 3974TIP3   OH233412   1.315   2.161   4.864 -0.2480 -0.0164  0.3531
 3974TIP3    H133413   1.365   2.234   4.827 -0.5804  0.8382  1.5424
 3974TIP3    H233414   1.361   2.139   4.945  0.8122 -2.2490 -0.7573
 3975TIP3   OH233415   1.247   5.890  13.264 -0.0319 -0.1541 -0.4786
 3975TIP3    H133416   1.175   5.902  13.202 -0.2071 -1.7871 -0.6296
 3975TIP3    H233417   1.218   5.821  13.323  0.8231  0.1912  0.3739
 3976TIP3   OH233418   2.894   4.092  10.741 -0.4717 -0.0993  0.2979
 3976TIP3    H133419   2.970   4.034  10.750 -0.4893 -0.3889 -1.1819
 3976TIP3    H233420   2.819   4.037  10.762 -0.4277 -0.4126 -0.3431
 3977TIP3   OH233421   6.593   2.176  14.956 -0.0335 -0.3336  0.1038
 3977TIP3    H133422   6.504   2.186  14.990 -0.1945  2.4119 -0.8851
 3977TIP3    H233423   6.650   2.206  15.028 -0.0968  0.7326 -0.2795
 3978TIP3   OH233424   1.009   1.269   4.362 -0.3525  0.2432  0.5735
 3978TIP3    H133425   1.103   1.272   4.379  0.1182 -2.4388 -0.9409
 3978TIP3    H233426   0.983   1.180   4.388 -2.1817  0.4706 -0.3387
 3979TIP3   OH233427   3.631   2.602   0.381  0.0253  0.3201  0.5441
 3979TIP3    H133428   3.587   2.554   0.453 -0.5741 -1.5962 -1.0006
 3979TIP3    H233429   3.559   2.629   0.324  0.6332 -0.2924 -0.5366
 3980TIP3   OH233430   6.255   6.039   3.445 -0.1468 -0.1845  0.6378
 3980TIP3    H133431   6.346   6.070   3.445 -0.3512  0.4662  1.3802
 3980TIP3    H233432   6.255   5.966   3.507  0.1539 -1.1315 -0.4492
 3981TIP3   OH233433   0.888   3.190  15.803 -0.2674  0.3926 -0.3606
 3981TIP3    H133434   0.972   3.230  15.780 -0.9607  1.6790 -0.7706
 3981TIP3    H233435   0.823   3.240  15.753 -1.5716  1.4132  2.2001
 3982TIP3   OH233436   4.833   3.387  16.685  0.3648 -0.3238 -0.1363
 3982TIP3    H133437   4.743   3.358  16.673  0.8121 -1.4488 -0.9007
 3982TIP3    H233438   4.825   3.471  16.729 -1.0433 -0.6186  0.2219
 3983TIP3   OH233439   0.922   1.887  11.473  0.0884 -0.2708 -0.2614
 3983TIP3    H133440   0.924   1.848  11.561 -1.9014  1.5902  0.7010
 3983TIP3    H233441   0.829   1.887  11.450  0.3435  1.3006 -1.3938
 3984TIP3   OH233442   4.431   6.360  12.915 -0.1312 -0.0142  0.5085
 3984TIP3    H133443   4.347   6.326  12.944 -0.6390  0.3428 -0.5175
 3984TIP3    H233444   4.466   6.406  12.992 -1.1436  0.3742  0.7487
 3985TIP3   OH233445   6.139   4.629   5.133  0.4864 -0.4290  0.5723
 3985TIP3    H133446   6.078   4.698   5.158  1.5477  0.9071 -0.3611
 3985TIP3    H233447   6.086   4.567   5.082  0.2013  1.6647 -1.8708
 3986TIP3   OH233448   3.409   6.583  14.744  0.4184 -0.1156 -0.0732
 3986TIP3    H133449   3.389   6.590  14.650 -1.9352 -0.8342  0.2893
 3986TIP3    H233450   3.386   6.493  14.766 -0.1233  0.3548  1.3906
 3987TIP3   OH233451   1.350   3.697  15.862  0.3290 -0.6171 -0.2845
 3987TIP3    H133452   1.379   3.748  15.937  1.7032 -0.4749 -0.8947
 3987TIP3    H233453   1.265   3.735  15.839  0.9132  0.8166 -0.1727
 3988TIP3   OH233454   0.967   4.118   0.006  0.8399 -0.6162  0.3728
 3988TIP3    H133455   0.977   4.188   0.070 -0.6981 -1.2899  1.4040
 3988TIP3    H233456   0.978   4.038   0.057 -0.8349 -1.1767 -0.0852
 3989TIP3   OH233457   5.947   3.859   3.318  0.8558  0.4287  0.1939
 3989TIP3    H133458   6.005   3.891   3.388  1.3277 -2.1742  1.1080
 3989TIP3    H233459   5.895   3.790   3.360 -0.7655  0.6131 -1.3994
 3990TIP3   OH233460   3.912   0.266  15.897 -0.4011 -0.0887  0.7265
 3990TIP3    H133461   3.990   0.220  15.865 -0.3280 -0.1406  0.9794
 3990TIP3    H233462   3.864   0.199  15.946 -1.0116 -0.2778 -0.0963
 3991TIP3   OH233463   3.686   3.558   4.055 -0.3655  0.3141 -0.0962
 3991TIP3    H133464   3.673   3.616   4.130  0.2529 -0.1049  0.3480
 3991TIP3    H233465   3.696   3.471   4.094 -0.5266  0.0237 -0.7011
 3992TIP3   OH233466   3.670   5.738   3.797  0.8146 -0.7032  0.1366
 3992TIP3    H133467   3.655   5.688   3.877  0.0140 -0.8192 -0.0832
 3992TIP3    H233468   3.645   5.828   3.819 -1.2786 -1.0798 -0.5247
 3993TIP3   OH233469   0.639   2.996  12.467  0.4136 -0.2982 -0.3396
 3993TIP3    H133470   0.702   2.925  12.459 -1.1979 -1.8602  0.2763
 3993TIP3    H233471   0.571   2.976  12.403 -1.2618 -0.6765  1.4379
 3994TIP3   OH233472   6.456   5.296   0.494 -0.8598 -0.1671 -0.1156
 3994TIP3    H133473   6.367   5.266   0.515 -1.5532  0.3830 -2.0496
 3994TIP3    H233474   6.490   5.330   0.577 -2.3085 -0.6985  0.7416
 3995TIP3   OH233475   4.502   6.389   3.290 -1.0371 -0.3247  0.4807
 3995TIP3    H133476   4.467   6.360   3.374  0.1186  2.0279  1.8692
 3995TIP3    H233477   4.471   6.480   3.281  0.7589  0.2348 -0.5004
 3996TIP3   OH233478   1.460   0.226  12.632 -0.6001  0.3770  0.6150
 3996TIP3    H133479   1.388   0.230  12.569 -2.4335  0.5734  2.5986
 3996TIP3    H233480   1.432   0.160  12.696  1.2668  0.0342  1.1236
 3997TIP3   OH233481   0.255   4.064  14.444  0.0698 -0.0356 -0.4217
 3997TIP3    H133482   0.173   4.022  14.417  0.4444  0.5325 -2.6767
 3997TIP3    H233483   0.323   4.013  14.398  0.8226  0.6812 -0.1190
 3998TIP3   OH233484   2.840   2.964   1.037  0.1609  0.1096 -0.2106
 3998TIP3    H133485   2.811   2.945   1.127 -1.1752  1.5726 -0.3101
 3998TIP3    H233486   2.847   2.878   0.996  0.5677 -0.5746  1.2110
 3999TIP3   OH233487   4.194   1.962  12.069 -0.2214 -0.3858 -0.5902
 3999TIP3    H133488   4.139   1.917  12.132  0.8345  0.2476  0.8277
 3999TIP3    H233489   4.283   1.935  12.090  0.2616  0.8545 -0.9408
 4000TIP3   OH233490   3.516   0.107  16.604 -0.0068  0.3981 -0.0900
 4000TIP3    H133491   3.442   0.137  16.551  0.0154  0.4245 -0.1061
 4000TIP3    H233492   3.581   0.176  16.596  0.6998 -0.3747 -1.4467
 4001TIP3   OH233493   3.021   1.893   0.998  0.1541  0.0363 -1.1842
 4001TIP3    H133494   2.990   1.977   1.031  1.2620  0.2354 -0.5933
 4001TIP3    H233495   2.956   1.830   1.026 -2.2510  0.9943 -4.0445
 4002TIP3   OH233496   3.818   5.941   6.111 -0.3928  0.0342  0.3592
 4002TIP3    H133497   3.887   5.907   6.053  0.6941  0.0862  1.5847
 4002TIP3    H233498   3.835   6.036   6.115  0.4663 -0.1547  1.8995
 4003TIP3   OH233499   4.286   1.367  16.584  0.1870  0.6335 -0.4227
 4003TIP3    H133500   4.303   1.284  16.627 -1.1538  1.0331  0.9468
 4003TIP3    H233501   4.197   1.359  16.549 -0.1708  1.6468  0.1938
 4004TIP3   OH233502   1.664   3.953  17.169 -0.2216  0.7717  0.5315
 4004TIP3    H133503   1.727   3.918  17.105  0.2521 -0.1365  1.4705
 4004TIP3    H233504   1.584   3.904  17.153 -0.3541  1.1149  0.1107
 4005TIP3   OH233505   5.751   1.092   2.458  0.3461  0.1429  0.1560
 4005TIP3    H133506   5.695   1.129   2.526  0.3568 -0.8588  0.7316
 4005TIP3    H233507   5.784   1.011   2.496  0.1886 -0.5465 -1.1113
 4006TIP3   OH233508   5.364   0.805   4.003  0.3042 -0.3371 -0.5039
 4006TIP3    H133509   5.294   0.843   3.949 -0.0759 -2.9457 -2.0066
 4006TIP3    H233510   5.325   0.798   4.090 -0.7751 -0.3283 -0.9689
 4007TIP3   OH233511   4.021   5.878  13.948  0.6559 -0.2665  0.0434
 4007TIP3    H133512   3.942   5.897  13.998  1.6253 -1.0246  1.9886
 4007TIP3    H233513   4.007   5.790  13.913  0.9107 -0.7192  1.0387
 4008TIP3   OH233514   6.359   6.605   6.951 -0.3293  0.3683  0.1621
 4008TIP3    H133515   6.417   6.666   6.997  0.7551 -0.5758  0.0843
 4008TIP3    H233516   6.417   6.557   6.892 -1.1848 -0.6719  0.1530
 4009TIP3   OH233517   3.049   3.731  15.997  0.4220 -0.4348 -0.5623
 4009TIP3    H133518   3.116   3.740  16.064 -0.1018  1.0663 -0.2056
 4009TIP3    H233519   3.097   3.734  15.914  0.9621 -1.2009 -0.2856
 4010TIP3   OH233520   5.709   3.087   4.428  0.1426  0.3696  0.3263
 4010TIP3    H133521   5.633   3.140   4.405  0.1682 -0.0451 -0.7738
 4010TIP3    H233522   5.783   3.133   4.387  0.2050 -0.3149 -0.3532
 4011TIP3   OH233523   2.824   1.877  11.695  0.6562  0.3737  0.5516
 4011TIP3    H133524   2.752   1.841  11.643 -0.8404  0.7324  2.2669
 4011TIP3    H233525   2.881   1.919  11.631 -0.0689 -0.8955 -0.9810
 4012TIP3   OH233526   3.654   1.681   1.397  0.2585 -0.6800  0.7355
 4012TIP3    H133527   3.630   1.632   1.476 -2.2194 -1.2064 -0.2760
 4012TIP3    H233528   3.579   1.672   1.339  0.1092  3.3813  0.0162
 4013TIP3   OH233529   1.128   2.623  13.610 -0.1904  0.2119  0.4783
 4013TIP3    H133530   1.140   2.587  13.522  1.1801 -0.2500  0.8325
 4013TIP3    H233531   1.204   2.679  13.623 -0.9179  1.1118  0.9853
 4014TIP3   OH233532   4.842   5.419  12.975  0.1730  0.1470  0.4533
 4014TIP3    H133533   4.896   5.348  13.010  0.3912 -0.4925 -1.1084
 4014TIP3    H233534   4.753   5.395  12.998  0.3286 -0.1569  0.7530
 4015TIP3   OH233535   3.610   1.245  13.409  0.5063 -0.5308 -0.3767
 4015TIP3    H133536   3.686   1.198  13.374  0.8130 -1.3927  1.3185
 4015TIP3    H233537   3.647   1.300  13.479 -0.5127 -1.8352  1.2753
 4016TIP3   OH233538   2.532   2.148  11.681 -0.0484 -0.6448  0.3058
 4016TIP3    H133539   2.468   2.205  11.722 -0.3311 -0.7539  0.0241
 4016TIP3    H233540   2.497   2.060  11.694 -0.1243 -0.6842 -0.1239
 4017TIP3   OH233541   0.745   0.746  12.235  0.1056  0.2120  0.1231
 4017TIP3    H133542   0.820   0.803  12.218  1.0448 -0.8504  0.5082
 4017TIP3    H233543   0.705   0.733  12.149  0.2537  0.9302 -0.0630
 4018TIP3   OH233544   0.367   2.666  16.184  0.0813 -0.3006  0.1443
 4018TIP3    H133545   0.339   2.757  16.180 -0.0367 -0.0576  3.7062
 4018TIP3    H233546   0.286   2.616  16.188  0.1584 -0.4716 -0.3345
 4019TIP3   OH233547   4.448   5.240   2.154  0.3791  0.5281 -0.1686
 4019TIP3    H133548   4.460   5.277   2.066 -0.7014  4.1576  1.0199
 4019TIP3    H233549   4.526   5.267   2.202 -0.4116  1.2902  0.7373
 4020TIP3   OH233550   4.758   3.053  12.941  0.2125 -0.5571  0.3706
 4020TIP3    H133551   4.819   2.979  12.945 -0.3339 -0.9877  1.1662
 4020TIP3    H233552   4.674   3.015  12.967 -0.2862  0.1310 -0.2231
 4021TIP3   OH233553   4.205   4.428  14.918 -0.3235  0.0677  0.4452
 4021TIP3    H133554   4.234   4.361  14.981  1.5724  0.5704  0.1540
 4021TIP3    H233555   4.210   4.510  14.967 -1.6148  0.1411  0.4789
 4022TIP3   OH233556   5.034   5.182   5.596  0.0882 -0.2031  0.0229
 4022TIP3    H133557   5.124   5.174   5.629  0.1871 -1.7739 -0.5573
 4022TIP3    H233558   5.042   5.243   5.522  0.3753  0.9678  0.9962
 4023TIP3   OH233559   1.082   2.718   1.891  0.1656  0.3702  0.2415
 4023TIP3    H133560   1.083   2.784   1.960  0.4314  1.5604 -0.8414
 4023TIP3    H233561   1.009   2.744   1.835  1.8662  1.3828 -1.6572
 4024TIP3   OH233562   1.564   1.553   6.159  0.2765  0.3519 -0.3543
 4024TIP3    H133563   1.551   1.458   6.153 -0.6432  0.4936 -0.8720
 4024TIP3    H233564   1.604   1.566   6.245 -1.0443 -0.3840  0.4193
 4025TIP3   OH233565   0.918   5.830  13.744 -0.2948  0.4963  0.1399
 4025TIP3    H133566   0.897   5.923  13.749 -2.3650  0.0471  1.0310
 4025TIP3    H233567   0.980   5.815  13.814 -2.1459  0.7467  1.9303
 4026TIP3   OH233568   3.972   3.062   4.841 -0.7364 -0.2832 -0.0395
 4026TIP3    H133569   3.983   3.084   4.749 -2.1881 -2.1671 -0.7450
 4026TIP3    H233570   3.907   3.124   4.873 -0.2377  0.3710 -0.2757
 4027TIP3   OH233571   5.756   6.581  14.863  0.1684  0.0409  0.5304
 4027TIP3    H133572   5.731   6.666  14.826  2.7800  1.1547  1.1390
 4027TIP3    H233573   5.770   6.599  14.956 -0.2632 -1.3316  0.8832
 4028TIP3   OH233574   6.538   0.326   0.330  0.3280  1.1228 -0.2479
 4028TIP3    H133575   6.502   0.267   0.397  0.8805  2.1862  1.0358
 4028TIP3    H233576   6.558   0.269   0.256  0.6386 -0.2742  0.8647
 4029TIP3   OH233577   6.347   0.357   5.533 -0.1016 -0.0314 -0.5344
 4029TIP3    H133578   6.273   0.365   5.473  1.0844 -0.5629 -2.1316
 4029TIP3    H233579   6.399   0.436   5.517  2.4469 -2.0451 -3.4711
 4030TIP3   OH233580   2.539   3.182   3.017 -0.0331 -0.2341 -0.0743
 4030TIP3    H133581   2.533   3.227   2.933 -1.2251 -0.3889 -0.0941
 4030TIP3    H233582   2.626   3.203   3.050  0.8013 -0.9247 -1.7567
 4031TIP3   OH233583   1.448   3.045   0.792 -0.0294 -0.1859  0.5191
 4031TIP3    H133584   1.475   3.098   0.867  0.4184  2.5433 -1.4225
 4031TIP3    H233585   1.526   3.041   0.737 -1.1768  0.6738 -1.2549
 4032TIP3   OH233586   6.623   4.826   3.734 -0.2511 -0.4371  0.9542
 4032TIP3    H133587   6.583   4.878   3.804  0.2139 -0.9649  1.6327
 4032TIP3    H233588   6.600   4.735   3.755  1.2114 -0.7511  1.3374
 4033TIP3   OH233589   0.797   4.764  11.748 -0.4277  0.9242 -0.1492
 4033TIP3    H133590   0.788   4.697  11.816 -0.7019  1.1418  0.0305
 4033TIP3    H233591   0.890   4.762  11.724  0.1925  2.4575  1.8919
 4034TIP3   OH233592   1.118   4.663   4.499 -0.1664 -0.1438 -0.2033
 4034TIP3    H133593   1.152   4.630   4.417 -2.6511 -1.7659 -0.6817
 4034TIP3    H233594   1.159   4.609   4.567 -3.0289 -3.5742 -0.8842
 4035TIP3   OH233595   3.238   3.109  12.651  0.3643  0.4921 -0.4791
 4035TIP3    H133596   3.180   3.041  12.619  1.4777 -1.7051  1.8582
 4035TIP3    H233597   3.308   3.114  12.587 -0.0231 -0.1545 -0.9562
 4036TIP3   OH233598   1.122   3.858  16.657 -0.6702  0.2607  0.2186
 4036TIP3    H133599   1.149   3.779  16.706 -1.8504 -0.6133 -0.4886
 4036TIP3    H233600   1.151   3.931  16.712  0.1541 -0.6631  1.0611
 4037TIP3   OH233601   4.547   0.410   3.061  0.2132 -0.1890 -0.5790
 4037TIP3    H133602   4.633   0.439   3.089  0.3154  1.0325 -2.0614
 4037TIP3    H233603   4.524   0.468   2.989 -1.4446 -1.1061 -0.8381
 4038TIP3   OH233604   1.429   0.056   6.414  0.1583  0.0950  0.0973
 4038TIP3    H133605   1.367   0.079   6.344  1.1416  3.0921  0.0528
 4038TIP3    H233606   1.373   0.036   6.489 -0.8808 -0.7692 -0.8534
 4039TIP3   OH233607   3.733   6.760  17.004 -0.3352  0.5134  0.1154
 4039TIP3    H133608   3.640   6.781  16.995 -0.5113 -0.3472 -0.2180
 4039TIP3    H233609   3.740   6.720  17.091 -0.6346 -1.1124 -0.5731
 4040TIP3   OH233610   0.901   3.126  10.705 -0.2018  0.3465 -0.0459
 4040TIP3    H133611   0.873   3.214  10.679  1.7892  1.2695  0.6501
 4040TIP3    H233612   0.971   3.105  10.644  0.3968 -0.0595  0.7637
 4041TIP3   OH233613   6.081   2.273   3.850  0.1208 -0.3391  0.1689
 4041TIP3    H133614   6.084   2.366   3.871 -1.4857 -0.0542 -0.7245
 4041TIP3    H233615   6.024   2.267   3.774  0.9439 -1.9701 -0.3734
 4042TIP3   OH233616   1.726   6.031   1.495  0.1368 -0.0039 -0.0857
 4042TIP3    H133617   1.637   6.017   1.527  0.0934 -0.6523 -0.4707
 4042TIP3    H233618   1.731   6.125   1.478 -1.2308 -0.2378 -2.2029
 4043TIP3   OH233619   6.393   2.954  16.743  0.4047  0.5273  0.3890
 4043TIP3    H133620   6.455   3.010  16.695 -0.8955  1.2466 -0.5369
 4043TIP3    H233621   6.422   2.959  16.834  1.2514  1.4682  0.0969
 4044TIP3   OH233622   3.206   4.083   5.436  0.7083 -0.3243  0.2012
 4044TIP3    H133623   3.146   4.060   5.507 -0.1858 -0.8201 -0.6991
 4044TIP3    H233624   3.269   4.143   5.477  0.2665 -0.6643  1.4310
 4045TIP3   OH233625   2.247   0.943  15.225 -0.1898 -0.0761 -0.0744
 4045TIP3    H133626   2.339   0.925  15.207 -0.3086 -0.7837  0.0071
 4045TIP3    H233627   2.219   0.872  15.284 -0.6122  0.4996  0.4383
 4046TIP3   OH233628   0.010   1.126  10.813 -0.5325 -0.0387  0.2490
 4046TIP3    H133629  -0.033   1.044  10.838 -0.2140 -0.4638 -0.5742
 4046TIP3    H233630  -0.035   1.152  10.733  0.0384  0.0608 -0.0438
 4047TIP3   OH233631   1.023   4.176   5.922 -0.1382 -0.3315  0.1111
 4047TIP3    H133632   1.014   4.082   5.904  0.5335 -0.4470  0.3608
 4047TIP3    H233633   1.108   4.185   5.965 -0.5014  0.3081  0.7258
 4048TIP3   OH233634   3.018   0.418  11.279 -0.0566  0.1872  0.2559
 4048TIP3    H133635   3.043   0.478  11.350 -1.8893  0.3709  0.8063
 4048TIP3    H233636   3.093   0.419  11.220  0.1572  2.7689  0.4321
 4049TIP3   OH233637   6.684   6.092  14.130  1.1384 -0.6392 -0.1339
 4049TIP3    H133638   6.615   6.100  14.196  0.3960  0.7931 -1.0023
 4049TIP3    H233639   6.726   6.178  14.129  0.3686 -0.2210 -2.2682
 4050TIP3   OH233640   0.769   3.670   6.003  0.2597  0.1399  0.3194
 4050TIP3    H133641   0.801   3.754   6.037 -1.3401  0.2384  1.7651
 4050TIP3    H233642   0.797   3.606   6.068  0.9009 -0.3484 -0.4348
 4051TIP3   OH233643   3.192   5.229   3.736  0.1411 -0.2785 -0.6465
 4051TIP3    H133644   3.195   5.150   3.682 -0.3493  0.8154 -2.3623
 4051TIP3    H233645   3.268   5.280   3.708 -1.4270  1.3758 -2.1104
 4052TIP3   OH233646   4.779   3.766   0.239  0.0905 -0.7880 -0.0790
 4052TIP3    H133647   4.720   3.779   0.313  0.7729  1.1481  0.1749
 4052TIP3    H233648   4.731   3.708   0.180 -2.0617  0.6800  0.1287
 4053TIP3   OH233649   5.010   4.455  17.010 -0.1500  0.1077  0.2999
 4053TIP3    H133650   5.023   4.416  17.096  0.9097  0.0963  0.1541
 4053TIP3    H233651   5.014   4.381  16.949 -0.7131  0.1378  0.2199
 4054TIP3   OH233652   2.933   1.827  16.831  0.4731 -0.2970  0.3013
 4054TIP3    H133653   3.016   1.837  16.785 -0.3968 -0.3074 -1.3389
 4054TIP3    H233654   2.935   1.738  16.866  0.2698 -1.0902 -1.6220
 4055TIP3   OH233655   4.581   3.389  17.031  0.0227 -0.1330  0.6225
 4055TIP3    H133656   4.664   3.428  17.003  0.0404 -0.7743 -0.2720
 4055TIP3    H233657   4.519   3.411  16.961  0.3444 -2.7437 -0.6265
 4056TIP3   OH233658   0.631   1.686  12.496  0.7338  0.0244 -0.5570
 4056TIP3    H133659   0.641   1.605  12.447  0.7230 -0.6320  0.5053
 4056TIP3    H233660   0.712   1.695  12.545  0.1408 -0.1440  0.4871
 4057TIP3   OH233661   6.545   4.212   3.309 -0.0291 -0.8992 -0.3508
 4057TIP3    H133662   6.474   4.276   3.299  0.4047 -0.3545 -0.0003
 4057TIP3    H233663   6.549   4.195   3.403 -0.7209 -2.1218 -0.5307
 4058TIP3   OH233664   5.557   4.734  12.885 -0.2714 -0.1376  0.2533
 4058TIP3    H133665   5.623   4.718  12.818  0.8745  1.8105  0.8285
 4058TIP3    H233666   5.484   4.677  12.861  1.1432 -1.4903 -1.0764
 4059TIP3   OH233667   1.606   1.891   6.559  0.2013  0.0045  0.4955
 4059TIP3    H133668   1.685   1.837   6.567 -1.3500 -2.7241 -0.9034
 4059TIP3    H233669   1.550   1.862   6.631  0.3097  1.7285  1.3205
 4060TIP3   OH233670   0.022   1.526   1.048  0.0860 -0.5758 -0.5588
 4060TIP3    H133671   0.115   1.505   1.057  0.1130 -0.1106  0.2768
 4060TIP3    H233672  -0.020   1.441   1.033  0.6301 -0.7924 -0.9044
 4061TIP3   OH233673   4.835   5.429   5.868  0.2748 -0.4702 -0.2991
 4061TIP3    H133674   4.809   5.343   5.835  0.9356 -0.6814 -0.2775
 4061TIP3    H233675   4.867   5.476   5.791 -2.4661  0.7052 -0.8209
 4062TIP3   OH233676   5.740   0.890   0.295  0.1382  0.1097  0.1852
 4062TIP3    H133677   5.776   0.905   0.383  1.0905  1.0755 -0.3479
 4062TIP3    H233678   5.765   0.800   0.274 -2.6442 -1.2422  2.0426
 4063TIP3   OH233679   3.501   1.796   4.765 -0.3349  0.0297 -0.2863
 4063TIP3    H133680   3.592   1.821   4.750 -0.5208  0.1217 -1.3618
 4063TIP3    H233681   3.497   1.774   4.858  0.8722 -0.3473 -0.3006
 4064TIP3   OH233682   4.014   4.446  11.925  0.1362 -0.0859 -0.1028
 4064TIP3    H133683   4.106   4.447  11.899 -0.4102  1.1971 -2.3252
 4064TIP3    H233684   3.975   4.375  11.873 -0.6700  1.4454 -1.7249
 4065TIP3   OH233685   2.264   4.668  12.931 -0.4436  0.1341 -0.0228
 4065TIP3    H133686   2.338   4.683  12.872 -0.4421 -0.3660 -0.1505
 4065TIP3    H233687   2.300   4.675  13.019 -0.2368 -0.1666 -0.0860
 4066TIP3   OH233688   3.492   4.277   3.788  0.2170  0.0692  0.2043
 4066TIP3    H133689   3.536   4.324   3.717  1.5214 -0.8041  0.3883
 4066TIP3    H233690   3.554   4.207   3.812 -0.4553 -0.0164  1.7984
 4067TIP3   OH233691   3.251   4.133   0.175 -0.6695  0.2615  0.2076
 4067TIP3    H133692   3.325   4.102   0.122 -0.7963 -1.1123  0.7870
 4067TIP3    H233693   3.260   4.086   0.258 -1.8797  0.4940  0.4828
 4068TIP3   OH233694   1.463   1.057  15.467  0.4018 -0.2530  0.1957
 4068TIP3    H133695   1.482   1.118  15.539 -0.6542  0.5908 -0.1952
 4068TIP3    H233696   1.547   1.040  15.426  1.0048 -0.6679  1.5657
 4069TIP3   OH233697   5.726   1.053  11.417 -0.0184 -0.0331  0.6681
 4069TIP3    H133698   5.723   0.975  11.472  0.4131  0.2818  1.1528
 4069TIP3    H233699   5.773   1.025  11.338 -0.3499 -0.4025  0.5980
 4070TIP3   OH233700   2.599   5.649  15.690  0.3509  0.6031  0.4734
 4070TIP3    H133701   2.613   5.594  15.613  0.7490 -1.3173  1.8572
 4070TIP3    H233702   2.566   5.732  15.654  1.1376  0.0160 -1.7950
 4071TIP3   OH233703   3.584   5.027  15.995 -0.0461 -0.1952  1.1087
 4071TIP3    H133704   3.497   5.067  16.004 -0.5426 -1.1699  0.8429
 4071TIP3    H233705   3.645   5.097  16.017 -0.8121  1.0999 -0.6184
 4072TIP3   OH233706   1.244   2.395   0.029 -0.1602 -0.6150  0.1539
 4072TIP3    H133707   1.322   2.450   0.027  0.1600 -0.9546  1.8468
 4072TIP3    H233708   1.219   2.384  -0.063  0.7066  1.0063 -0.3011
 4073TIP3   OH233709   0.053   2.573   4.178  0.3077 -0.0738  0.3980
 4073TIP3    H133710   0.029   2.483   4.198 -3.0139  0.9772  1.7218
 4073TIP3    H233711  -0.030   2.619   4.167  1.8729  2.7947 -0.6489
 4074TIP3   OH233712   6.746   4.640   2.269  0.1077 -0.3710 -0.0408
 4074TIP3    H133713   6.689   4.702   2.225  0.9935  0.3086 -0.2561
 4074TIP3    H233714   6.687   4.585   2.321 -0.6573  0.7993  0.3479
 4075TIP3   OH233715   3.010   4.155   2.843 -0.5279  0.2306 -0.4087
 4075TIP3    H133716   2.925   4.131   2.807 -1.2917  3.1958 -0.8319
 4075TIP3    H233717   3.068   4.159   2.767 -0.6913  0.8427 -0.5023
 4076TIP3   OH233718   2.431   1.661   5.365 -0.3867 -0.3594  0.0185
 4076TIP3    H133719   2.362   1.703   5.416 -2.2353 -0.1032 -2.4791
 4076TIP3    H233720   2.391   1.580   5.333  1.3531 -1.4554  0.5265
 4077TIP3   OH233721   0.729   0.831   2.636  0.1010 -0.8969 -0.5934
 4077TIP3    H133722   0.658   0.886   2.668  1.0073  0.3487 -0.6601
 4077TIP3    H233723   0.691   0.743   2.631 -1.3480 -0.3080 -0.3837
 4078TIP3   OH233724   3.003   0.188   0.681 -0.2698  0.4300  0.2853
 4078TIP3    H133725   2.929   0.178   0.621 -0.6273  1.3586  0.5682
 4078TIP3    H233726   2.964   0.218   0.763  0.4805  1.5345  0.2533
 4079TIP3   OH233727   2.435   6.012   1.594 -0.2205  0.2541  0.1504
 4079TIP3    H133728   2.376   6.053   1.531  0.1456 -0.4634 -0.6862
 4079TIP3    H233729   2.398   6.034   1.679 -1.4233  0.2214 -0.3377
 4080TIP3   OH233730   5.494   6.733  12.816  0.6013  0.3838 -0.2285
 4080TIP3    H133731   5.405   6.700  12.803  0.6966  0.8016 -2.2347
 4080TIP3    H233732   5.507   6.730  12.911 -1.5639  0.3488  0.1203
 4081TIP3   OH233733   2.335   0.920   2.444 -0.3076  0.3916 -0.3957
 4081TIP3    H133734   2.377   1.001   2.470 -0.1304 -0.1157  1.0039
 4081TIP3    H233735   2.284   0.943   2.367  1.0511  1.4405 -1.0368
 4082TIP3   OH233736   3.406   4.374  12.222  0.2861 -0.3840  0.3977
 4082TIP3    H133737   3.335   4.337  12.170  1.9592 -1.4293 -1.2595
 4082TIP3    H233738   3.364   4.400  12.305 -2.3606  0.7957 -1.1856
 4083TIP3   OH233739   6.221   4.534   6.082  0.3599  0.5258 -0.3464
 4083TIP3    H133740   6.159   4.490   6.140  1.4748  0.0263  0.5149
 4083TIP3    H233741   6.305   4.529   6.129  1.9160 -2.2844 -3.0671
 4084TIP3   OH233742   2.188   5.300   4.667  0.1861 -0.1965  0.4320
 4084TIP3    H133743   2.166   5.209   4.646 -0.4869 -0.0255  0.3727
 4084TIP3    H233744   2.119   5.328   4.727  0.2541  0.3555  0.2544
 4085TIP3   OH233745   2.258   5.303  14.210  0.4881  0.1453 -0.1645
 4085TIP3    H133746   2.314   5.373  14.244  0.0500 -0.3953  1.8173
 4085TIP3    H233747   2.175   5.316  14.256 -0.2531 -0.4742 -1.2974
 4086TIP3   OH233748   0.332   2.434  15.112  0.1757  0.2049 -0.1403
 4086TIP3    H133749   0.261   2.431  15.048 -0.9648  1.7560  0.9850
 4086TIP3    H233750   0.386   2.508  15.084  0.7287 -0.2822 -0.3635
 4087TIP3   OH233751   2.472   3.379   4.935 -0.0109  0.0138  0.0731
 4087TIP3    H133752   2.438   3.425   5.012 -0.3916 -0.6557  0.3030
 4087TIP3    H233753   2.396   3.366   4.879 -0.9859 -4.4979  2.0520
 4088TIP3   OH233754   2.364   4.973  11.632  0.0419  0.2265  0.1457
 4088TIP3    H133755   2.276   5.006  11.615  0.3303  0.6001 -0.6714
 4088TIP3    H233756   2.384   5.003  11.721 -0.2956  0.9584 -0.0161
 4089TIP3   OH233757   1.344   5.283   5.177 -0.4540 -0.0284  0.4004
 4089TIP3    H133758   1.367   5.193   5.153 -1.6530 -0.5601  1.1188
 4089TIP3    H233759   1.346   5.331   5.094 -0.0653 -0.7731 -0.0344
 4090TIP3   OH233760   0.821   4.078  11.376  0.7286  0.1432 -0.0949
 4090TIP3    H133761   0.864   3.992  11.377 -0.2542 -0.4309 -2.0283
 4090TIP3    H233762   0.736   4.062  11.416  1.2519  0.7052  1.3317
 4091TIP3   OH233763   2.102   6.236   1.844  0.6104 -0.0885  0.0282
 4091TIP3    H133764   2.192   6.267   1.844  0.8343 -0.7224  0.0839
 4091TIP3    H233765   2.100   6.167   1.910  0.2022 -0.4078 -0.3066
 4092TIP3   OH233766   3.738   4.689   0.378 -0.0540 -0.8593  0.2500
 4092TIP3    H133767   3.730   4.784   0.387 -0.7472 -0.8305 -0.5515
 4092TIP3    H233768   3.660   4.654   0.420 -1.2995 -0.9049 -1.9695
 4093TIP3   OH233769   4.917   3.216  13.297 -0.4166  0.4910 -0.1277
 4093TIP3    H133770   4.839   3.197  13.246  0.4078 -0.3632 -1.1078
 4093TIP3    H233771   4.983   3.243  13.233 -0.0362  1.6961  0.7271
 4094TIP3   OH233772   2.316   1.983  14.612  0.4160  0.3296 -0.3590
 4094TIP3    H133773   2.311   1.955  14.703 -1.5481  1.0697 -0.1921
 4094TIP3    H233774   2.309   1.902  14.561 -0.2553  0.0624  0.1455
 4095TIP3   OH233775   3.222   3.034   5.295 -0.1809 -0.0337  0.3262
 4095TIP3    H133776   3.244   2.969   5.228  2.0963  0.8995  0.0764
 4095TIP3    H233777   3.172   3.101   5.248  1.3899  0.6083 -0.5284
 4096TIP3   OH233778   6.131   4.767  12.900 -0.5344  0.1209 -0.1177
 4096TIP3    H133779   6.117   4.687  12.951  1.6650 -0.3704 -0.2079
 4096TIP3    H233780   6.099   4.746  12.813  1.5486 -1.3230 -0.6088
 4097TIP3   OH233781   4.740   3.665   1.617  0.3549  0.6107  0.7015
 4097TIP3    H133782   4.681   3.589   1.615 -0.3286  1.1354  0.7858
 4097TIP3    H233783   4.727   3.708   1.533  1.4039  0.1582  0.2811
 4098TIP3   OH233784   2.908   4.385  17.200  0.0281 -0.2412  0.0291
 4098TIP3    H133785   2.878   4.411  17.287 -2.4244  1.2431 -1.1384
 4098TIP3    H233786   2.853   4.310  17.176 -0.5145  0.4049 -0.8436
 4099TIP3   OH233787   4.218   4.239   1.953  0.2556  0.2337 -0.2000
 4099TIP3    H133788   4.289   4.183   1.921  0.3238  1.1147 -1.6689
 4099TIP3    H233789   4.262   4.300   2.013  1.1927  2.0507 -2.5816
 4100TIP3   OH233790   1.882   3.039   5.644 -0.1898 -0.2394 -0.4245
 4100TIP3    H133791   1.930   3.052   5.726 -0.2494 -1.3064 -0.2075
 4100TIP3    H233792   1.814   3.107   5.645  0.3004  0.2554  0.0256
 4101TIP3   OH233793   2.246   4.245  12.508  0.6393  0.5668 -0.2979
 4101TIP3    H133794   2.219   4.188  12.581  1.8115  1.0579  0.5661
 4101TIP3    H233795   2.268   4.184  12.438 -0.1265  0.0580 -0.1109
 4102TIP3   OH233796   3.824   2.816  16.141  0.1600  0.3179  0.1430
 4102TIP3    H133797   3.789   2.726  16.145 -2.5076  1.2843  1.6379
 4102TIP3    H233798   3.907   2.811  16.189 -0.3182 -1.2224  0.9055
 4103TIP3   OH233799   3.293   5.205  11.536 -0.0480  0.3230 -0.0280
 4103TIP3    H133800   3.234   5.236  11.605  0.7379 -2.4812  2.0935
 4103TIP3    H233801   3.235   5.184  11.463 -1.3556  0.2374  0.9973
 4104TIP3   OH233802   0.320   3.848   0.569 -0.2441 -0.7639  0.5969
 4104TIP3    H133803   0.243   3.866   0.515 -0.5758 -0.8104  1.0461
 4104TIP3    H233804   0.394   3.870   0.513 -0.5957 -0.0432  0.3997
 4105TIP3   OH233805   4.675   3.761   0.672 -0.4694  0.0130 -0.6567
 4105TIP3    H133806   4.590   3.724   0.650 -0.8360 -0.6796  1.6730
 4105TIP3    H233807   4.731   3.685   0.688  0.5134  0.4655 -1.7272
 4106TIP3   OH233808   0.849   0.816  12.685  0.1432  0.2320 -0.2167
 4106TIP3    H133809   0.787   0.883  12.712 -0.9751 -1.1679  0.8156
 4106TIP3    H233810   0.914   0.863  12.633  1.3000  2.7654  3.1407
 4107TIP3   OH233811   5.256   0.232   2.780 -0.0149 -0.0433 -0.2472
 4107TIP3    H133812   5.289   0.152   2.822 -1.5921 -1.3915 -1.4418
 4107TIP3    H233813   5.183   0.202   2.726 -2.0128  2.5013  0.8494
 4108TIP3   OH233814   3.523   5.757  16.735  0.2013 -0.8320  0.1408
 4108TIP3    H133815   3.494   5.806  16.659  1.6998  1.1192  0.7409
 4108TIP3    H233816   3.500   5.813  16.810  0.2306 -1.9489  1.0121
 4109TIP3   OH233817   0.878   1.999  12.621 -0.3040  0.1879  0.2201
 4109TIP3    H133818   0.867   2.088  12.654 -0.0198  0.6452 -0.8670
 4109TIP3    H233819   0.854   2.005  12.528  1.3476 -0.4804 -0.2888
 4110TIP3   OH233820   4.552   4.614  12.813 -0.2338  0.0422  0.6615
 4110TIP3    H133821   4.629   4.670  12.822  0.3578 -0.7847  0.8950
 4110TIP3    H233822   4.481   4.664  12.854 -0.5310  2.0858 -2.1266
 4111TIP3   OH233823   2.743   3.493  15.786  0.5281 -0.0824 -0.1295
 4111TIP3    H133824   2.770   3.549  15.712  0.9238 -1.1636 -0.8212
 4111TIP3    H233825   2.679   3.433  15.748 -1.5292  1.2292  1.0818
 4112TIP3   OH233826   3.485   5.328  14.191  0.7250 -0.2193  0.5520
 4112TIP3    H133827   3.438   5.244  14.192 -0.0848  0.2194  0.4267
 4112TIP3    H233828   3.549   5.319  14.120 -0.4221 -0.1792 -0.5323
 4113TIP3   OH233829   3.862   1.735   0.779  0.1322 -0.5652 -0.2079
 4113TIP3    H133830   3.831   1.761   0.692  2.1989 -2.0884 -1.4906
 4113TIP3    H233831   3.858   1.639   0.778 -1.7063 -0.6107  2.1934
 4114TIP3   OH233832   6.329   1.102  13.089 -0.1819 -0.2699  0.1411
 4114TIP3    H133833   6.414   1.123  13.050  0.6382 -2.0996  0.8303
 4114TIP3    H233834   6.302   1.021  13.046 -0.9059 -0.4609  0.9232
 4115TIP3   OH233835   2.726   3.295   1.320 -0.7362  0.3316  0.2787
 4115TIP3    H133836   2.655   3.253   1.368  0.5011  0.0061  1.9413
 4115TIP3    H233837   2.805   3.273   1.370  0.7175 -0.2878 -2.1016
 4116TIP3   OH233838   3.434   0.554  10.917  0.4401 -0.3910  0.3463
 4116TIP3    H133839   3.465   0.463  10.914 -0.7779 -0.8239  0.5052
 4116TIP3    H233840   3.508   0.603  10.952  1.1333 -1.3119  0.2056
 4117TIP3   OH233841   5.984   1.695   1.997 -0.2124  0.6105  0.8662
 4117TIP3    H133842   6.001   1.606   2.030  0.8595  0.3317 -0.3849
 4117TIP3    H233843   5.977   1.685   1.902  0.0986  1.8905  0.6912
 4118TIP3   OH233844   4.203   3.609   0.353 -0.0145  0.3549 -0.3742
 4118TIP3    H133845   4.223   3.643   0.265  1.9913  1.5066  0.4598
 4118TIP3    H233846   4.286   3.572   0.383 -1.1191 -1.5898  0.3968
 4119TIP3   OH233847   3.942   2.740   4.156 -0.0706 -0.3743 -0.0656
 4119TIP3    H133848   3.961   2.810   4.093 -1.0544 -0.3083 -0.3028
 4119TIP3    H233849   4.022   2.688   4.158  0.4124  0.3345 -0.4402
 4120TIP3   OH233850   5.794   1.995   3.116  0.2711  0.6594 -0.1722
 4120TIP3    H133851   5.772   2.021   3.205  0.6724  2.1386 -0.4813
 4120TIP3    H233852   5.865   2.055   3.090 -0.2720  0.6825 -1.7044
 4121TIP3   OH233853   3.056   0.503   4.948 -0.1281 -0.0891 -0.1150
 4121TIP3    H133854   3.142   0.527   4.981  0.3384 -1.4359 -0.2754
 4121TIP3    H233855   3.015   0.586   4.922  1.1691  0.5496 -0.1528
 4122TIP3   OH233856   3.296   6.615  16.624 -0.2655  0.5411 -0.5325
 4122TIP3    H133857   3.373   6.669  16.639 -0.2694 -0.0111  1.9003
 4122TIP3    H233858   3.330   6.525  16.618 -0.5077  0.5218 -1.9350
 4123TIP3   OH233859   0.235   3.377  14.875 -0.6702 -0.0806  0.6249
 4123TIP3    H133860   0.212   3.341  14.789 -2.7395  0.5189  0.8855
 4123TIP3    H233861   0.304   3.440  14.857  0.2876 -1.3329 -0.3239
 4124TIP3   OH233862   4.866   6.582  13.137 -0.1211 -0.3155 -0.6585
 4124TIP3    H133863   4.825   6.500  13.111  1.7090 -1.3764 -0.3158
 4124TIP3    H233864   4.935   6.597  13.073 -0.5542  1.0969 -0.8420
 4125TIP3   OH233865   6.758   5.441   6.232  0.2304 -0.2132  0.0646
 4125TIP3    H133866   6.845   5.475   6.254  0.5962  0.2654 -1.9202
 4125TIP3    H233867   6.697   5.505   6.270  0.7494 -0.1687  0.8503
 4126TIP3   OH233868   6.359   1.837  12.886 -0.7132  0.1044 -0.5663
 4126TIP3    H133869   6.313   1.779  12.826 -0.5126  0.2188 -0.8320
 4126TIP3    H233870   6.292   1.901  12.913 -0.8813 -0.1284 -0.4284
 4127TIP3   OH233871   5.334   3.909  11.810 -0.0763  0.5584  0.1705
 4127TIP3    H133872   5.280   3.985  11.787 -0.1843  0.4249 -0.0178
 4127TIP3    H233873   5.382   3.889  11.729 -2.2408 -1.4112 -0.7373
 4128TIP3   OH233874   2.120   2.471  13.448  0.0593 -0.0681 -0.0168
 4128TIP3    H133875   2.092   2.382  13.466  0.6452 -0.4856 -1.0959
 4128TIP3    H233876   2.043   2.525  13.466 -0.2627 -0.7648  0.7576
 4129TIP3   OH233877   5.688   5.841   3.115  0.6842 -0.6631 -0.5193
 4129TIP3    H133878   5.765   5.864   3.062  1.1122  1.0949  0.7740
 4129TIP3    H233879   5.719   5.768   3.169  1.5465  0.1555  0.1325
 4130TIP3   OH233880   4.945   0.747   6.846  0.0269  0.4472  0.1734
 4130TIP3    H133881   4.981   0.836   6.843 -0.8721  0.8506  0.8397
 4130TIP3    H233882   5.006   0.698   6.901  0.7070  0.5648 -0.4723
 4131TIP3   OH233883   1.921   6.437  12.533  0.0170  0.2497 -0.0153
 4131TIP3    H133884   1.926   6.509  12.597  0.4586  0.5593 -0.3934
 4131TIP3    H233885   1.930   6.358  12.586  2.6994  0.5370  0.1334
 4132TIP3   OH233886   6.230   5.212   1.286  0.0174 -0.0513  0.2964
 4132TIP3    H133887   6.176   5.265   1.227 -0.7676  0.8665  1.7628
 4132TIP3    H233888   6.189   5.223   1.372  2.1714  0.1253  1.3627
 4133TIP3   OH233889   4.379   4.426  15.963 -0.5816 -0.2417 -0.5389
 4133TIP3    H133890   4.345   4.368  16.031 -0.4402 -1.9930 -1.8901
 4133TIP3    H233891   4.301   4.471  15.929 -0.9795 -1.1082 -0.7924
 4134TIP3   OH233892   6.253   2.981  16.476 -0.0480  0.6943 -0.2837
 4134TIP3    H133893   6.313   3.039  16.428 -0.5884  1.6441  0.1536
 4134TIP3    H233894   6.266   3.004  16.568  0.8035 -0.9459  0.0421
 4135TIP3   OH233895   0.517   1.430  12.617 -0.2988 -0.5325  0.2316
 4135TIP3    H133896   0.547   1.508  12.662 -0.0821 -1.1842  1.2562
 4135TIP3    H233897   0.570   1.426  12.537  0.4077 -0.1943  0.6805
 4136TIP3   OH233898   1.660   3.528  15.337 -0.0593 -0.3163  0.0033
 4136TIP3    H133899   1.649   3.495  15.248 -0.0086  1.2098 -0.6039
 4136TIP3    H233900   1.751   3.510  15.359  0.6263  1.3844 -1.2045
 4137TIP3   OH233901   2.867   1.211   0.803 -0.4625 -0.2432  0.2240
 4137TIP3    H133902   2.795   1.188   0.863 -1.9447 -1.5783 -1.9220
 4137TIP3    H233903   2.847   1.163   0.723  1.4800  1.3984 -1.3367
 4138TIP3   OH233904   3.789   3.025   3.669  0.1315  0.2612  0.0911
 4138TIP3    H133905   3.725   2.986   3.729  0.6920 -0.3706  0.2974
 4138TIP3    H233906   3.823   2.950   3.619 -1.3674  0.9389 -2.0604
 4139TIP3   OH233907   1.296   5.411   2.178  0.0060  0.5132 -0.3735
 4139TIP3    H133908   1.335   5.329   2.207 -0.6532  0.4694  0.4075
 4139TIP3    H233909   1.370   5.463   2.147  0.6014  0.1840  0.4871
 4140TIP3   OH233910   1.246   5.687  11.724  0.2747 -0.7822  0.0807
 4140TIP3    H133911   1.249   5.615  11.787  1.9774 -1.0526 -0.2448
 4140TIP3    H233912   1.257   5.765  11.778  1.1404 -0.9689  0.1873
 4141TIP3   OH233913   4.672   4.401   5.120  0.2455 -0.0093 -0.0147
 4141TIP3    H133914   4.702   4.462   5.053  0.1004 -0.5031 -0.5428
 4141TIP3    H233915   4.609   4.451   5.172 -1.0769 -0.1494 -1.4184
 4142TIP3   OH233916   5.557   4.394   4.329 -0.2050  0.0977  0.0487
 4142TIP3    H133917   5.612   4.406   4.406 -1.1320  0.3399  0.6982
 4142TIP3    H233918   5.476   4.356   4.363 -0.8203  0.6618 -0.7295
 4143TIP3   OH233919   3.201   4.044  15.302  0.1798  0.1478  0.2308
 4143TIP3    H133920   3.268   3.994  15.255  1.3128  1.0720  0.8262
 4143TIP3    H233921   3.165   4.104  15.236 -0.1939 -0.4556 -0.1271
 4144TIP3   OH233922   5.546   4.889   2.662 -0.1441 -0.0268 -0.1298
 4144TIP3    H133923   5.642   4.892   2.659 -0.0973 -0.6086  0.5762
 4144TIP3    H233924   5.523   4.813   2.607 -0.2204  0.2779 -0.5254
 4145TIP3   OH233925   2.922   5.155   3.639  0.3417 -0.0415 -0.4823
 4145TIP3    H133926   2.981   5.214   3.687 -1.0740  1.3858 -0.4173
 4145TIP3    H233927   2.968   5.136   3.557  1.0476  0.7501 -0.2827
 4146TIP3   OH233928   5.977   4.027  14.110 -0.2337  0.0020  0.0401
 4146TIP3    H133929   5.984   4.073  14.026 -1.1831  2.1659  1.0579
 4146TIP3    H233930   6.065   4.030  14.147 -0.1613  0.5357 -0.1651
 4147TIP3   OH233931   5.042   5.534   1.767 -0.2892  0.3466 -0.4442
 4147TIP3    H133932   4.958   5.537   1.814  0.3711 -1.3578  0.9343
 4147TIP3    H233933   5.107   5.555   1.834  0.7074 -2.5479 -0.3832
 4148TIP3   OH233934   2.729   5.643  16.173  0.0631  0.1088 -0.1816
 4148TIP3    H133935   2.677   5.578  16.221 -2.0764  0.6089 -1.6872
 4148TIP3    H233936   2.723   5.616  16.081  1.0830  1.1641 -0.5851
 4149TIP3   OH233937   1.135   4.269  12.098  0.2809  0.1693  0.1493
 4149TIP3    H133938   1.080   4.329  12.149 -1.0708 -0.1024 -0.9246
 4149TIP3    H233939   1.076   4.197  12.075  0.5966  0.6252 -2.3796
 4150TIP3   OH233940   1.352   0.794  16.763  0.8835  0.2700  0.0549
 4150TIP3    H133941   1.274   0.743  16.786  0.2311  1.1149 -0.2129
 4150TIP3    H233942   1.317   0.872  16.719  1.7540  1.6039  1.6126
 4151TIP3   OH233943   3.518   2.317  12.939 -0.5660  0.8777 -0.3571
 4151TIP3    H133944   3.512   2.304  13.034 -1.0562 -0.1889 -0.5131
 4151TIP3    H233945   3.441   2.370  12.918 -0.6733  0.7874 -0.2023
 4152TIP3   OH233946   5.378   3.659   5.474 -0.0055 -0.2777 -0.1575
 4152TIP3    H133947   5.315   3.725   5.445 -0.7506 -0.7974  0.2427
 4152TIP3    H233948   5.367   3.656   5.569  0.6440 -0.3597 -0.0830
 4153TIP3   OH233949   6.125   3.006   6.197 -0.3101  0.1950 -0.1378
 4153TIP3    H133950   6.031   2.989   6.194 -0.1324 -1.3565  1.3567
 4153TIP3    H233951   6.135   3.080   6.257 -0.4718 -1.1033  1.5525
 4154TIP3   OH233952   3.250   4.944  11.232  0.1845 -0.2444 -0.1601
 4154TIP3    H133953   3.174   4.990  11.267  0.2753  0.9811 -1.4861
 4154TIP3    H233954   3.231   4.933  11.139  1.3549 -0.4796 -0.3911
 4155TIP3   OH233955   2.734   6.600   1.812  0.4376 -0.1412 -0.1420
 4155TIP3    H133956   2.754   6.517   1.770  0.1119 -0.4578  0.3175
 4155TIP3    H233957   2.795   6.663   1.772 -1.2878  0.0604 -2.6761
 4156TIP3   OH233958   4.798   1.958  13.872  0.1402 -0.3768  0.2250
 4156TIP3    H133959   4.744   1.879  13.878  0.0385 -0.3578 -0.3935
 4156TIP3    H233960   4.799   1.980  13.779  1.3116 -0.4482  0.2011
 4157TIP3   OH233961   5.098   3.470  12.734 -0.5160  0.0543 -0.1613
 4157TIP3    H133962   5.142   3.410  12.794  1.1696 -0.3031 -1.6708
 4157TIP3    H233963   5.016   3.426  12.712  0.4693 -1.4929 -0.8591
 4158TIP3   OH233964   1.712   2.674   5.766 -0.1941 -0.0385  0.1066
 4158TIP3    H133965   1.695   2.726   5.844  0.7893  1.4041 -0.5925
 4158TIP3    H233966   1.633   2.684   5.713 -0.2371  0.2665  0.2258
 4159TIP3   OH233967   4.141   2.195  12.555 -0.0555  0.0021  0.6949
 4159TIP3    H133968   4.117   2.264  12.493  0.3158  0.0408  0.5955
 4159TIP3    H233969   4.080   2.207  12.628  0.9934  1.4087  1.3789
 4160TIP3   OH233970   1.234   6.384  15.661 -0.4103 -0.0138 -0.0966
 4160TIP3    H133971   1.243   6.306  15.715  1.3478  1.6928  2.2478
 4160TIP3    H233972   1.234   6.457  15.723  1.6132  2.0832 -2.3428
 4161TIP3   OH233973   3.539   3.202  12.601 -0.2002 -0.4504  0.4335
 4161TIP3    H133974   3.486   3.282  12.604 -2.4635 -1.8239 -0.1587
 4161TIP3    H233975   3.624   3.231  12.569 -0.7779  1.7774  0.7121
 4162TIP3   OH233976   2.133   4.974  17.052 -0.1959 -0.1628 -0.0179
 4162TIP3    H133977   2.055   4.996  17.001 -0.1924 -0.8667 -0.3452
 4162TIP3    H233978   2.201   5.030  17.016 -0.4959  0.2913  0.1128
 4163TIP3   OH233979   6.041   2.046  14.140  0.4789 -0.3598 -0.1272
 4163TIP3    H133980   6.034   2.024  14.047 -0.4835  0.3204 -0.2373
 4163TIP3    H233981   5.982   2.121  14.150  1.7000  0.5117  0.7349
 4164TIP3   OH233982   0.616   2.936  12.188 -0.1526  0.5496  0.3854
 4164TIP3    H133983   0.649   3.026  12.178  0.1853  0.6124  1.8026
 4164TIP3    H233984   0.525   2.940  12.157  0.9994  0.3988 -3.5086
 4165TIP3   OH233985   5.959   2.097  10.846 -0.9248  0.1044 -0.9635
 4165TIP3    H133986   6.005   2.140  10.918 -2.0751  0.1004 -0.1998
 4165TIP3    H233987   6.014   2.113  10.769  0.7870 -0.6530  0.0484
 4166TIP3   OH233988   6.594   0.714   2.837  0.5635  0.1691  0.2224
 4166TIP3    H133989   6.653   0.694   2.765 -0.7425  0.2358 -0.9103
 4166TIP3    H233990   6.604   0.808   2.852  0.1941  0.3271 -0.4867
 4167TIP3   OH233991   2.735   4.227   2.788 -0.1321 -0.7319 -0.1606
 4167TIP3    H133992   2.648   4.236   2.748 -0.8965  0.2563  1.5701
 4167TIP3    H233993   2.771   4.316   2.786  0.7438 -1.0900 -0.6303
 4168TIP3   OH233994   1.376   2.693  17.187 -0.2045 -0.3260 -0.0236
 4168TIP3    H133995   1.295   2.655  17.151 -1.0181 -0.0646  1.4482
 4168TIP3    H233996   1.372   2.674  17.281  2.2070 -1.6349 -0.1028
 4169TIP3   OH233997   0.408   2.655   1.246  0.0605  0.0611 -0.0323
 4169TIP3    H133998   0.371   2.644   1.334  0.1325 -2.0455 -0.2101
 4169TIP3    H233999   0.464   2.578   1.233 -1.2707 -0.6167 -2.5254
 4170TIP3   OH234000   2.335   0.432  16.445  0.0566  0.1225 -0.1947
 4170TIP3    H134001   2.420   0.454  16.409 -0.0357  0.8788  0.0263
 4170TIP3    H234002   2.274   0.439  16.372  0.3223 -1.5159 -0.6228
 4171TIP3   OH234003   5.316   4.626  15.135 -0.0065  0.1210  0.3250
 4171TIP3    H134004   5.409   4.622  15.161  0.1703 -0.2584 -0.3509
 4171TIP3    H234005   5.270   4.646  15.217  0.6254 -0.1942  0.7742
 4172TIP3   OH234006   4.623   2.938   5.881  0.1580 -0.2657  0.0349
 4172TIP3    H134007   4.582   2.894   5.956 -2.4916  0.2546 -1.0041
 4172TIP3    H234008   4.595   2.886   5.805 -1.8347  2.2276 -1.0735
 4173TIP3   OH234009   1.621   1.264   4.420  0.2961 -0.2610  0.4895
 4173TIP3    H134010   1.641   1.195   4.356 -0.0359 -0.5297  0.6684
 4173TIP3    H234011   1.593   1.216   4.498  0.4743  0.0705  0.7587
 4174TIP3   OH234012   6.176   2.935   3.163  0.2910  0.4653 -0.4283
 4174TIP3    H134013   6.149   2.970   3.247 -0.1009  0.7672 -0.6787
 4174TIP3    H234014   6.253   2.881   3.183  0.0480  0.3316  0.1537
 4175TIP3   OH234015   5.530   3.676   3.629 -0.3295 -0.0500 -0.3875
 4175TIP3    H134016   5.595   3.713   3.689 -0.6699  1.2115 -0.7656
 4175TIP3    H234017   5.537   3.582   3.642  0.1787  0.1504  1.0348
 4176TIP3   OH234018   0.607   0.389  12.940 -0.1845 -0.1608 -0.4252
 4176TIP3    H134019   0.620   0.446  12.865  1.1547 -1.6611 -1.3937
 4176TIP3    H234020   0.691   0.345  12.952 -0.9694 -1.4426  0.6958
 4177TIP3   OH234021   6.267   1.553   4.196 -0.0988 -0.0045 -0.4296
 4177TIP3    H134022   6.211   1.630   4.193 -2.3771 -1.4941  0.3943
 4177TIP3    H234023   6.236   1.504   4.273  3.7484 -0.0138  1.3587
 4178TIP3   OH234024   2.671   2.919   0.467  0.5034 -0.0588  0.4715
 4178TIP3    H134025   2.699   2.941   0.555  1.6892  0.1330  0.0633
 4178TIP3    H234026   2.712   2.986   0.411 -0.6622  0.1430 -0.1697
 4179TIP3   OH234027   4.503   6.314  16.470 -0.2544 -0.6850 -0.0022
 4179TIP3    H134028   4.482   6.404  16.443  0.5295 -0.5740 -0.2972
 4179TIP3    H234029   4.565   6.284  16.403 -0.3236 -1.3557  0.2371
 4180TIP3   OH234030   1.196   3.895  11.308 -0.4424  0.4250  0.4681
 4180TIP3    H134031   1.199   3.899  11.212 -2.2116  1.8107  0.4301
 4180TIP3    H234032   1.108   3.924  11.331 -0.0927  0.0162  2.5342
 4181TIP3   OH234033   2.908   2.930  15.030  0.6697 -0.5486  0.4500
 4181TIP3    H134034   2.838   2.939  15.094  1.8331  0.9984  1.5941
 4181TIP3    H234035   2.970   3.000  15.052  2.1478 -1.3007 -1.0527
 4182TIP3   OH234036   6.737   3.696   6.428  0.1865 -0.2641 -0.2098
 4182TIP3    H134037   6.718   3.659   6.514 -1.6609 -0.4614 -0.6710
 4182TIP3    H234038   6.788   3.775   6.447  0.5457 -0.7600  1.0066
 4183TIP3   OH234039   1.367   6.551  15.475  0.0430 -0.2166 -0.2036
 4183TIP3    H134040   1.343   6.516  15.389 -2.5119  0.9055 -0.0545
 4183TIP3    H234041   1.325   6.492  15.538  0.2665  0.0595  0.2143
 4184TIP3   OH234042   1.692   4.920  13.436 -0.5191 -0.1095  0.2632
 4184TIP3    H134043   1.757   4.962  13.380 -0.4670 -0.5248  0.0067
 4184TIP3    H234044   1.619   4.899  13.377  0.8600 -3.5873 -0.4635
 4185TIP3   OH234045   5.563   3.012   1.959  0.2730 -0.4529  0.0430
 4185TIP3    H134046   5.508   2.946   2.000  0.5655 -0.6816  0.0670
 4185TIP3    H234047   5.525   3.096   1.988 -1.8355 -0.5300 -2.2162
 4186TIP3   OH234048   3.849   5.577  14.661  0.0471 -0.2637 -0.2067
 4186TIP3    H134049   3.803   5.611  14.584  1.5313  1.2159 -0.4961
 4186TIP3    H234050   3.837   5.482  14.656 -1.4257 -0.0625 -1.2298
 4187TIP3   OH234051   1.903   5.099  16.970  0.0516 -0.5304 -0.3942
 4187TIP3    H134052   1.853   5.172  16.933 -1.5581  0.9529  3.9511
 4187TIP3    H234053   1.843   5.060  17.034  2.7605 -2.0425  1.4089
 4188TIP3   OH234054   0.020   5.719   0.241 -0.6076  0.3368  0.4513
 4188TIP3    H134055  -0.051   5.772   0.203 -0.0258  0.5811 -0.3045
 4188TIP3    H234056  -0.026   5.653   0.294 -1.6850 -1.8653 -2.8579
 4189TIP3   OH234057   0.614   6.762  15.499  0.4679 -1.0058  0.2013
 4189TIP3    H134058   0.590   6.670  15.494  0.0638 -1.0415  1.9965
 4189TIP3    H234059   0.637   6.776  15.591 -1.7494  1.2045  0.5245
 4190TIP3   OH234060   3.637   5.302   5.727  0.2163  0.4545  0.0760
 4190TIP3    H134061   3.717   5.255   5.748  0.2172 -0.7943 -2.3514
 4190TIP3    H234062   3.567   5.252   5.769  0.5239  0.3878  0.5100
 4191TIP3   OH234063   3.516   2.671  15.232  0.5105  0.2020 -0.7031
 4191TIP3    H134064   3.428   2.693  15.203  0.0667 -0.6566 -0.0496
 4191TIP3    H234065   3.564   2.651  15.151  0.4914  1.9243 -1.1759
 4192TIP3   OH234066   2.217   3.951  17.094  0.6759 -0.3840  0.0190
 4192TIP3    H134067   2.228   3.962  17.000  2.7235 -1.0709  0.1304
 4192TIP3    H234068   2.206   3.857  17.106  2.8935 -0.6130  0.6251
 4193TIP3   OH234069   0.024   2.901   4.669 -0.0803 -0.3898  0.4114
 4193TIP3    H134070  -0.047   2.930   4.727  0.1100 -0.7098  0.8120
 4193TIP3    H234071   0.099   2.955   4.695 -0.2424  0.1302 -0.1895
 4194TIP3   OH234072   0.850   6.302   5.469 -0.0598  0.2919 -0.1856
 4194TIP3    H134073   0.755   6.303   5.458 -0.3463 -1.9231  1.3094
 4194TIP3    H234074   0.865   6.347   5.552  0.0107 -0.6449  0.3271
 4195TIP3   OH234075   0.429   4.004  12.984  0.0261  0.0353 -0.5637
 4195TIP3    H134076   0.385   4.005  13.069 -0.2320  0.7883 -0.6960
 4195TIP3    H234077   0.493   4.075  12.990 -0.2682  0.3582 -1.1345
 4196TIP3   OH234078   0.056   6.493   3.652  0.2335  0.3493 -0.4956
 4196TIP3    H134079   0.129   6.527   3.602 -0.0760  1.7703 -0.0340
 4196TIP3    H234080   0.037   6.407   3.613  0.5081  1.0565 -2.2622
 4197TIP3   OH234081   2.862   6.095  14.819  0.3289  0.1435  0.2786
 4197TIP3    H134082   2.902   6.025  14.870 -0.5887 -0.4864  0.1577
 4197TIP3    H234083   2.798   6.051  14.763  1.0507  0.8589 -1.1604
 4198TIP3   OH234084   3.802   3.179  12.894  0.0743 -0.0940 -0.1405
 4198TIP3    H134085   3.855   3.219  12.825  0.6455  1.9679  1.4053
 4198TIP3    H234086   3.759   3.252  12.937 -0.5660 -1.3563  1.4545
 4199TIP3   OH234087   1.762   5.377   2.777  0.3844  0.1920 -0.4010
 4199TIP3    H134088   1.707   5.322   2.721  0.7940  1.6237 -2.3089
 4199TIP3    H234089   1.829   5.412   2.718 -0.2137  3.2124  0.5621
 4200TIP3   OH234090   0.792   6.740   1.499  0.2392  0.2815 -0.4977
 4200TIP3    H134091   0.833   6.807   1.554  1.9707 -0.1233 -1.2215
 4200TIP3    H234092   0.761   6.674   1.561  1.1986  0.3351  0.0561
 4201TIP3   OH234093   3.390   3.634  13.001 -0.6631  0.3683  0.0594
 4201TIP3    H134094   3.361   3.545  13.024  2.0789 -0.5550  0.2183
 4201TIP3    H234095   3.308   3.683  12.992 -2.2720 -2.0662  0.2998
 4202TIP3   OH234096   6.623   5.891  16.275  0.0219 -0.3765  0.0912
 4202TIP3    H134097   6.643   5.984  16.281  2.9455 -0.8252 -0.8203
 4202TIP3    H234098   6.584   5.881  16.188 -0.3762  0.0152  0.2243
 4203TIP3   OH234099   1.319   6.668  11.619  0.0445  0.8568 -0.0186
 4203TIP3    H134100   1.285   6.630  11.538 -0.7405  0.3942  0.5153
 4203TIP3    H234101   1.242   6.694  11.669  0.5264  1.5506  0.4006
 4204TIP3   OH234102   4.254   1.993   3.867 -0.3046 -0.3627  0.1722
 4204TIP3    H134103   4.184   1.929   3.877 -0.9894  0.2610 -0.4732
 4204TIP3    H234104   4.210   2.072   3.835  0.9408 -0.5695 -2.3421
 4205TIP3   OH234105   3.239   6.144   5.877  0.0598 -0.7308  0.4417
 4205TIP3    H134106   3.224   6.062   5.924  1.1485 -1.1521  0.1013
 4205TIP3    H234107   3.185   6.136   5.798 -2.7572  0.5115  2.0901
 4206TIP3   OH234108   6.195   0.564  13.961  0.0691 -0.0589 -0.5923
 4206TIP3    H134109   6.262   0.606  14.014 -1.2045  0.6141  0.5502
 4206TIP3    H234110   6.229   0.477  13.943  0.5373 -0.3135  1.3589
 4207TIP3   OH234111   2.344   5.772  13.260 -0.3258 -0.6419 -0.2269
 4207TIP3    H134112   2.258   5.797  13.294 -0.8059 -0.4773 -1.5007
 4207TIP3    H234113   2.326   5.699  13.202  0.4782 -0.9415 -0.1129
 4208TIP3   OH234114   1.181   5.098  16.534 -0.3917  0.3246 -0.5922
 4208TIP3    H134115   1.173   5.186  16.497  1.7257  0.9550  0.2679
 4208TIP3    H234116   1.246   5.108  16.603 -1.0002 -1.7047  0.3263
 4209TIP3   OH234117   5.439   1.844  14.449 -0.3391  0.6545  0.0238
 4209TIP3    H134118   5.423   1.882  14.362 -0.8025  0.9497  0.2350
 4209TIP3    H234119   5.535   1.842  14.456 -0.1825 -1.6226 -1.4629
 4210TIP3   OH234120   2.966   6.416   2.396 -0.0938 -0.8793 -0.1853
 4210TIP3    H134121   2.906   6.377   2.459 -1.7428  1.9202  0.1570
 4210TIP3    H234122   2.915   6.428   2.317  1.0558 -1.5463 -1.0580
 4211TIP3   OH234123   1.859   2.837  16.580 -0.1968 -0.3103 -0.2777
 4211TIP3    H134124   1.895   2.749  16.565  2.9827  1.0157 -1.0270
 4211TIP3    H234125   1.859   2.878  16.493 -0.0039  1.0100  0.3329
 4212TIP3   OH234126   3.167   0.585  16.457  0.0240  0.2580 -0.4922
 4212TIP3    H134127   3.233   0.653  16.470  0.5316 -0.3808  0.3249
 4212TIP3    H234128   3.212   0.518  16.406 -0.3667  0.3523 -0.9755
 4213TIP3   OH234129   4.190   5.393   4.352 -0.1500 -0.6068  0.0857
 4213TIP3    H134130   4.194   5.440   4.435 -3.1623  1.6507 -0.8423
 4213TIP3    H234131   4.251   5.441   4.295 -1.4197  0.8027 -0.1705
 4214TIP3   OH234132   2.567   6.327   6.281 -0.3416 -0.3576  0.3544
 4214TIP3    H134133   2.484   6.361   6.316 -0.9536 -2.3306  0.9266
 4214TIP3    H234134   2.561   6.233   6.294  2.9731 -0.4066  2.5514
 4215TIP3   OH234135   2.247   2.461   2.067  0.6448  0.2401  0.0420
 4215TIP3    H134136   2.271   2.427   2.154  1.3475 -1.4524 -0.7611
 4215TIP3    H234137   2.287   2.547   2.063  2.0006 -0.3219  0.8050
 4216TIP3   OH234138   4.894   0.783   2.738  0.7991 -0.1032 -0.5326
 4216TIP3    H134139   4.813   0.805   2.785  0.4600  2.9531 -2.3142
 4216TIP3    H234140   4.873   0.702   2.692 -0.2390 -0.8861  1.1924
 4217TIP3   OH234141   4.181   4.226  11.262  0.1399  0.2222  0.9593
 4217TIP3    H134142   4.167   4.312  11.300  0.4909 -0.3033  2.3364
 4217TIP3    H234143   4.270   4.229  11.226  0.0970  0.4833  0.8780
 4218TIP3   OH234144   3.627   5.614  16.104 -1.0416 -0.5070  0.1639
 4218TIP3    H134145   3.598   5.566  16.026 -1.1122  0.5655 -0.4893
 4218TIP3    H234146   3.720   5.592  16.113 -0.7160  0.2994 -0.9589
 4219TIP3   OH234147   0.143   0.136  12.234 -0.2358  0.0382  0.5294
 4219TIP3    H134148   0.117   0.194  12.306  0.8214 -1.4064  2.1658
 4219TIP3    H234149   0.220   0.177  12.196 -1.2958  1.2500 -0.3830
 4220TIP3   OH234150   0.855   2.007  11.036 -0.0460  0.1721 -0.4668
 4220TIP3    H134151   0.947   1.985  11.050 -0.0369  1.1182  1.3456
 4220TIP3    H234152   0.857   2.087  10.984  0.1368 -0.0949 -0.8722
 4221TIP3   OH234153   2.156   5.346  15.712  0.3562  0.1486  0.2472
 4221TIP3    H134154   2.144   5.436  15.742 -0.3465  0.2405 -0.3017
 4221TIP3    H234155   2.068   5.310  15.706  0.6365 -0.6157  0.5511
 4222TIP3   OH234156   0.726   5.007   0.346  0.0106  0.1465  0.0598
 4222TIP3    H134157   0.806   4.998   0.398 -1.6457 -3.2255  2.4041
 4222TIP3    H234158   0.718   4.924   0.299 -2.9762 -0.5121  1.4620
 4223TIP3   OH234159   4.277   3.297   2.072  0.2011  0.5096  0.3930
 4223TIP3    H134160   4.270   3.346   2.154 -1.1542 -2.1251  1.9903
 4223TIP3    H234161   4.210   3.336   2.016  0.2048  1.4548  1.0122
 4224TIP3   OH234162   0.783   6.257   5.188 -0.2023  0.2200 -0.2414
 4224TIP3    H134163   0.698   6.260   5.233  0.0471  0.2796  0.2371
 4224TIP3    H234164   0.847   6.265   5.259  0.2074 -0.1305 -0.5733
 4225TIP3   OH234165   4.958   0.385   1.420 -0.0843  0.2138 -0.1000
 4225TIP3    H134166   4.910   0.322   1.366  1.1717 -1.1809  0.3505
 4225TIP3    H234167   4.957   0.466   1.368  0.2005 -0.7993 -1.7558
 4226TIP3   OH234168   4.372   4.525  16.916  0.2923  0.0256  0.0946
 4226TIP3    H134169   4.406   4.613  16.923 -0.8373  0.4605  0.3328
 4226TIP3    H234170   4.278   4.536  16.900  0.0316 -1.1263  0.6586
 4227TIP3   OH234171   3.582   5.863  17.242 -0.9046 -0.7353 -0.0853
 4227TIP3    H134172   3.588   5.959  17.244 -0.0214 -0.7948  0.8075
 4227TIP3    H234173   3.493   5.844  17.271 -1.0914 -0.1832 -0.2835
 4228TIP3   OH234174   1.114   0.177  16.491  0.6719 -0.0282 -0.7773
 4228TIP3    H134175   1.141   0.265  16.463  1.0634 -0.1904 -0.9163
 4228TIP3    H234176   1.024   0.169  16.462  0.5017  0.4799 -0.4102
 4229TIP3   OH234177   3.173   5.951   4.409  0.2895 -0.1193  0.8849
 4229TIP3    H134178   3.187   6.029   4.355  0.6000  0.1694  1.3790
 4229TIP3    H234179   3.083   5.959   4.440 -0.2037 -0.7537 -0.3284
 4230TIP3   OH234180   5.910   1.403   2.273 -0.2812  0.5156 -0.3943
 4230TIP3    H134181   5.841   1.458   2.237 -1.0884  0.0847  0.4578
 4230TIP3    H234182   5.974   1.465   2.309 -1.3119  0.9300  0.8011
 4231TIP3   OH234183   2.290   0.849  15.917 -0.0497  0.2790  0.1660
 4231TIP3    H134184   2.276   0.755  15.925 -0.0824  0.2297 -0.4083
 4231TIP3    H234185   2.241   0.874  15.839  0.7645  0.5974 -0.2622
 4232TIP3   OH234186   3.444   3.455  14.136 -0.4837  0.1768  0.8362
 4232TIP3    H134187   3.425   3.549  14.139  0.2596  0.3413  0.6901
 4232TIP3    H234188   3.359   3.413  14.148 -1.0225  0.8684 -0.3245
 4233TIP3   OH234189   0.052   2.300   0.404 -0.3600  0.1460  0.1109
 4233TIP3    H134190   0.006   2.304   0.489 -2.8561 -0.2773 -1.1243
 4233TIP3    H234191   0.088   2.388   0.393 -0.9140  0.5255  1.1440
 4234TIP3   OH234192   4.868   5.300   5.273  0.0359  0.3204  0.5407
 4234TIP3    H134193   4.835   5.374   5.221  0.1874 -0.2540 -0.4024
 4234TIP3    H234194   4.963   5.314   5.277  0.3342 -0.8197 -1.3271
 4235TIP3   OH234195   4.675   4.895   0.613 -0.0127 -0.2953  0.3094
 4235TIP3    H134196   4.687   4.875   0.705  0.5326  0.2737  0.3700
 4235TIP3    H234197   4.694   4.989   0.606  1.5717 -0.6579 -0.6592
 4236TIP3   OH234198   1.930   2.560  16.539  0.1243  0.1501 -0.2822
 4236TIP3    H134199   1.966   2.529  16.456  0.2097  1.2351 -0.6564
 4236TIP3    H234200   1.990   2.525  16.605 -0.7693 -1.9957 -0.5116
 4237TIP3   OH234201   5.304   0.885   6.773 -0.0074 -0.1170 -0.5956
 4237TIP3    H134202   5.224   0.923   6.809 -0.6795 -0.6220 -1.4979
 4237TIP3    H234203   5.337   0.952   6.712 -0.2021 -0.2393 -0.8380
 4238TIP3   OH234204   0.458   1.894   3.813 -0.2283  0.1999 -0.3779
 4238TIP3    H134205   0.537   1.889   3.867 -0.3034  5.0206  0.5917
 4238TIP3    H234206   0.390   1.927   3.872 -1.4873  1.4262 -2.3805
 4239TIP3   OH234207   1.212   4.393   0.936 -0.6579 -0.3944 -0.6363
 4239TIP3    H134208   1.188   4.315   0.987  0.2097  0.0457  0.4912
 4239TIP3    H234209   1.307   4.395   0.939 -0.5887 -0.3712 -2.3546
 4240TIP3   OH234210   3.236   0.717   1.187 -0.3549 -0.2510 -0.1708
 4240TIP3    H134211   3.150   0.706   1.147  0.1014 -1.5165 -0.8432
 4240TIP3    H234212   3.284   0.637   1.166  1.0258  0.4507  0.1254
 4241TIP3   OH234213   2.310   4.738  15.425  0.9931  0.6715 -0.4706
 4241TIP3    H134214   2.300   4.811  15.364  0.3380 -0.1745 -1.4078
 4241TIP3    H234215   2.222   4.701  15.432  1.2489  0.1771  0.2651
 4242TIP3   OH234216   2.033   1.639  12.292  0.3642 -0.2962 -0.7144
 4242TIP3    H134217   1.955   1.593  12.262  0.5062 -0.2163 -1.2178
 4242TIP3    H234218   2.102   1.613  12.231  0.8221 -0.6525 -0.0529
 4243TIP3   OH234219   3.820   3.978   2.141 -0.3021 -0.0963  0.4005
 4243TIP3    H134220   3.858   3.913   2.082  1.4267  0.0919  1.2163
 4243TIP3    H234221   3.885   3.987   2.211 -0.6172  2.2745  0.4766
 4244TIP3   OH234222   1.622   1.621   5.892 -0.0393 -0.2097  0.0151
 4244TIP3    H134223   1.615   1.584   5.980  1.1977 -0.8686 -0.1355
 4244TIP3    H234224   1.612   1.715   5.905  0.1901 -0.2904  0.8734
 4245TIP3   OH234225   6.026   2.340  12.346 -0.1574 -0.0874 -0.3006
 4245TIP3    H134226   5.952   2.395  12.372 -0.1251  0.2720 -0.9384
 4245TIP3    H234227   6.068   2.315  12.428 -2.2903 -2.1724  0.2346
 4246TIP3   OH234228   4.536   6.617   0.190 -0.5604 -0.1652 -0.1948
 4246TIP3    H134229   4.560   6.553   0.122 -0.7067  0.5220 -0.9057
 4246TIP3    H234230   4.524   6.699   0.142 -1.3396  0.1770  0.5770
 4247TIP3   OH234231   5.676   6.151   5.922 -0.7584  0.0906 -0.4162
 4247TIP3    H134232   5.640   6.104   5.996  0.7707 -0.3490  0.0963
 4247TIP3    H234233   5.769   6.125   5.920  0.3276  3.4611  0.2374
 4248TIP3   OH234234   0.381   1.007  13.491 -0.1464  0.0690  0.2616
 4248TIP3    H134235   0.460   0.957  13.513  1.0432  1.5661 -0.5214
 4248TIP3    H234236   0.310   0.957  13.532  1.2134 -1.1651  1.2138
 4249TIP3   OH234237   2.253   1.467   3.837 -0.3559  0.1030  0.3361
 4249TIP3    H134238   2.232   1.408   3.909  0.9694  0.5196  1.0914
 4249TIP3    H234239   2.169   1.481   3.792 -1.2282 -0.1200  1.8237
 4250TIP3   OH234240   2.350   5.120   4.117  0.5136 -0.2372  0.5148
 4250TIP3    H134241   2.357   5.097   4.210 -0.7147 -2.9177  0.0522
 4250TIP3    H234242   2.438   5.105   4.082  1.0866  1.1794  1.2802
 4251TIP3   OH234243   0.067   3.543   4.195  0.4360  0.6193 -0.5553
 4251TIP3    H134244   0.097   3.485   4.125  2.0742  0.3581  0.2961
 4251TIP3    H234245   0.023   3.484   4.257  1.8887  0.2683  0.1922
 4252TIP3   OH234246   3.781   2.224   6.097 -0.6708 -0.3224  0.0922
 4252TIP3    H134247   3.873   2.198   6.089 -0.3424  0.2189  1.8165
 4252TIP3    H234248   3.750   2.227   6.006  0.4523 -2.4259 -0.4359
 4253TIP3   OH234249   0.779   0.622  14.867 -0.4873  0.0666 -0.4035
 4253TIP3    H134250   0.717   0.593  14.800 -0.9351  1.3447 -0.5689
 4253TIP3    H234251   0.842   0.676  14.820  0.0177 -0.1757 -0.0189
 4254TIP3   OH234252   1.344   0.502   0.602 -0.1415  0.0764 -0.2505
 4254TIP3    H134253   1.350   0.462   0.515  0.3496  0.9312 -0.6297
 4254TIP3    H234254   1.405   0.577   0.597  2.4889 -1.7439  1.8755
 4255TIP3   OH234255   0.416   4.106   4.297 -0.1582 -0.1954 -0.2813
 4255TIP3    H134256   0.455   4.057   4.369 -1.9958 -0.1234  0.8222
 4255TIP3    H234257   0.322   4.090   4.304 -0.3741 -0.8039 -3.1635
 4256TIP3   OH234258   6.503   4.693  15.663  0.3960 -0.3365  0.3514
 4256TIP3    H134259   6.551   4.704  15.745 -1.2824  1.8054  1.1223
 4256TIP3    H234260   6.556   4.738  15.598  1.0581 -0.8602  0.5197
 4257TIP3   OH234261   0.232   3.921   2.183 -0.9904  0.2203 -0.5115
 4257TIP3    H134262   0.167   3.966   2.237 -0.7473 -1.1697  0.9787
 4257TIP3    H234263   0.196   3.833   2.170  1.2916 -1.1712  1.7938
 4258TIP3   OH234264   1.794   1.592  14.401 -0.2866  0.1890 -0.3927
 4258TIP3    H134265   1.825   1.569  14.313 -1.1515  1.8054 -1.1639
 4258TIP3    H234266   1.842   1.532  14.459  3.5091  1.7773 -1.5400
 4259TIP3   OH234267   2.789   6.233  16.805  0.8815  0.2846  0.0727
 4259TIP3    H134268   2.745   6.313  16.777  1.4350  1.4746  2.2845
 4259TIP3    H234269   2.718   6.173  16.828  0.4485  0.6622 -0.2610
 4260TIP3   OH234270   4.918   0.230   2.623 -0.1818  0.2371  0.4592
 4260TIP3    H134271   4.830   0.229   2.585  0.0602 -0.2093 -0.1175
 4260TIP3    H234272   4.931   0.141   2.656  0.1301  0.2412  0.3523
 4261TIP3   OH234273   4.782   0.838   1.250  0.0895 -0.2778 -0.1102
 4261TIP3    H134274   4.805   0.856   1.159 -1.4610 -0.5687 -0.5870
 4261TIP3    H234275   4.858   0.790   1.285  1.2188  0.8962 -0.8588
 4262TIP3   OH234276   3.959   0.498  14.609 -0.0617 -0.0890 -0.0960
 4262TIP3    H134277   4.042   0.503  14.657 -0.0545 -0.0105 -0.1157
 4262TIP3    H234278   3.892   0.493  14.677 -0.0140 -0.6033 -0.0856
 4263TIP3   OH234279   4.910   0.391  17.057 -0.2410  0.6448  0.0379
 4263TIP3    H134280   4.820   0.363  17.075  0.9211 -2.5445  1.5395
 4263TIP3    H234281   4.927   0.460  17.121 -0.5786 -1.1698  2.2063
 4264TIP3   OH234282   4.808   6.762  15.649 -0.0742  0.3764 -0.5512
 4264TIP3    H134283   4.838   6.727  15.733 -0.1180 -0.6707 -0.9593
 4264TIP3    H234284   4.756   6.839  15.673  1.2417  1.0391  0.2778
 4265TIP3   OH234285   1.161   4.099   2.024 -0.2077  0.2579  0.5290
 4265TIP3    H134286   1.136   4.104   2.116 -1.1350  1.7820  0.2300
 4265TIP3    H234287   1.079   4.079   1.978  0.1470  0.0329 -0.0141
 4266TIP3   OH234288   2.694   2.571  16.750 -0.3326  0.0162  0.1949
 4266TIP3    H134289   2.688   2.499  16.686  0.5370 -0.6470  0.8264
 4266TIP3    H234290   2.787   2.573  16.774 -0.5546  0.6103  1.0265
 4267TIP3   OH234291   6.586   0.029   0.932 -0.3290 -0.0568  0.4861
 4267TIP3    H134292   6.580   0.063   0.843 -0.4433 -1.9891 -0.3040
 4267TIP3    H234293   6.645  -0.046   0.925 -0.8470 -0.6298  1.9197
 4268TIP3   OH234294   5.137   2.084  13.318  0.2579  0.0277 -0.5918
 4268TIP3    H134295   5.138   2.140  13.396  0.3931 -1.8237  0.8074
 4268TIP3    H234296   5.046   2.083  13.289  0.1351  0.4181 -0.2232
 4269TIP3   OH234297   3.631   0.668  11.061  0.4927 -0.4522 -0.2934
 4269TIP3    H134298   3.673   0.721  10.993 -0.3917  3.2913  1.7805
 4269TIP3    H234299   3.700   0.610  11.093  2.4650  1.4746 -0.8361
 4270TIP3   OH234300   2.530   6.081   6.591 -0.3219  0.0584 -0.9089
 4270TIP3    H134301   2.483   6.164   6.585 -2.9089 -1.1168  0.9556
 4270TIP3    H234302   2.613   6.103   6.633 -0.9731  1.7279 -0.4330
 4271TIP3   OH234303   1.037   4.074   3.020  0.1062 -0.2119 -0.2428
 4271TIP3    H134304   0.977   4.137   2.980  1.1563  1.3422  0.5489
 4271TIP3    H234305   1.086   4.038   2.947 -0.9715 -0.6580 -0.7755
 4272TIP3   OH234306   3.257   1.034  13.039  0.7877  0.5483  0.5699
 4272TIP3    H134307   3.245   1.068  13.127 -1.1668 -0.0940  0.6093
 4272TIP3    H234308   3.199   0.958  13.035  0.0935  1.1087 -1.5436
 4273TIP3   OH234309   0.304   4.196   3.423 -0.3209 -0.1208 -0.4517
 4273TIP3    H134310   0.293   4.279   3.377  0.7795 -0.2753 -1.0239
 4273TIP3    H234311   0.367   4.215   3.492 -1.5316 -0.0291  0.6695
 4274TIP3   OH234312   0.997   3.257  11.398 -0.3219 -0.1715  0.1323
 4274TIP3    H134313   0.960   3.177  11.433  0.7828 -0.7958 -0.0540
 4274TIP3    H234314   1.082   3.265  11.441  0.2478  0.0492 -0.9894
 4275TIP3   OH234315   4.306   2.479   3.063 -0.9123  0.5848 -1.1928
 4275TIP3    H134316   4.267   2.426   3.132  0.7026 -1.2944 -1.6490
 4275TIP3    H234317   4.268   2.446   2.982 -0.7447  0.9010 -1.4065
 4276TIP3   OH234318   6.734   0.613  11.705 -0.3887  0.0795  0.2200
 4276TIP3    H134319   6.729   0.641  11.796  1.8267  1.1359  0.0672
 4276TIP3    H234320   6.796   0.541  11.704  0.6406  0.9355 -0.5974
 4277TIP3   OH234321   5.586   0.424  14.679  0.0167 -0.3599 -0.5419
 4277TIP3    H134322   5.662   0.368  14.659 -0.8952 -0.7868 -3.1227
 4277TIP3    H234323   5.514   0.363  14.691 -0.1952  0.1090  0.6853
 4278TIP3   OH234324   2.674   0.956  15.906  0.0329  0.1396  0.5718
 4278TIP3    H134325   2.630   0.913  15.833  0.5025  0.7816 -0.1070
 4278TIP3    H234326   2.742   1.010  15.865  0.9048 -0.1910  1.5406
 4279TIP3   OH234327   1.567   2.042  15.058  0.4447  0.6275 -0.8454
 4279TIP3    H134328   1.624   2.043  14.981  0.3887  1.3960 -0.8847
 4279TIP3    H234329   1.626   2.063  15.131  0.5679 -0.4504 -0.6180
 4280TIP3   OH234330   6.093   6.448   4.221 -0.5311 -0.0675  0.5366
 4280TIP3    H134331   6.165   6.386   4.210 -1.3205 -1.0382  0.6481
 4280TIP3    H234332   6.127   6.531   4.190  0.8013 -0.3965  1.0672
 4281TIP3   OH234333   3.036   3.472  14.840  0.2273  0.1473 -0.1297
 4281TIP3    H134334   3.070   3.562  14.847  2.9072 -0.6280 -1.7690
 4281TIP3    H234335   3.028   3.457  14.746 -1.1960 -1.0268  0.1494
 4282TIP3   OH234336   3.329   1.013  12.115  0.6465  0.4451 -0.3512
 4282TIP3    H134337   3.348   0.948  12.182  1.9440  0.6881 -0.4577
 4282TIP3    H234338   3.375   1.091  12.143  0.0818  0.9674 -0.8374
 4283TIP3   OH234339   5.876   4.766   6.558 -1.3227 -0.6740  0.3375
 4283TIP3    H134340   5.904   4.831   6.494 -2.2573 -0.4118  0.1796
 4283TIP3    H234341   5.781   4.772   6.558 -1.3311  0.3357  2.7627
 4284TIP3   OH234342   0.944   4.997  17.228  0.3985  0.1919 -0.4618
 4284TIP3    H134343   0.852   5.008  17.253 -0.0438 -0.2256 -1.8282
 4284TIP3    H234344   0.950   4.906  17.198  1.1458  0.3672 -0.8592
 4285TIP3   OH234345   4.055   3.482   2.486  0.1328  0.2532  0.3080
 4285TIP3    H134346   4.081   3.554   2.544  3.2250  0.4360 -1.0726
 4285TIP3    H234347   4.040   3.408   2.545  3.0846  0.4484  1.4920
 4286TIP3   OH234348   3.249   2.426  14.351  0.2492 -0.7046  0.3901
 4286TIP3    H134349   3.260   2.430  14.256 -1.7309 -0.4423  0.1385
 4286TIP3    H234350   3.327   2.470  14.386 -1.1028  3.3797 -1.2554
 4287TIP3   OH234351   3.389   4.467  14.686 -0.2157 -0.3603  0.2763
 4287TIP3    H134352   3.449   4.499  14.619  0.3263  0.2756  1.0518
 4287TIP3    H234353   3.322   4.534  14.694  2.2236  2.0420  3.6485
 4288TIP3   OH234354   2.023   1.680  13.801 -0.0673  0.0347 -0.1055
 4288TIP3    H134355   1.988   1.750  13.856  0.2330  0.6494 -0.6762
 4288TIP3    H234356   2.026   1.718  13.713  1.1331 -0.3230 -0.2371
 4289TIP3   OH234357   6.319   5.638  12.685  0.3257 -0.3794 -0.1592
 4289TIP3    H134358   6.354   5.679  12.765  1.8056 -1.4030 -0.2448
 4289TIP3    H234359   6.272   5.561  12.717 -2.0198  0.9927 -0.0449
 4290TIP3   OH234360   5.396   5.518  17.361 -0.1729 -0.0425  0.0995
 4290TIP3    H134361   5.373   5.573  17.436  1.5860 -1.4892  1.7925
 4290TIP3    H234362   5.340   5.441  17.370  1.4560 -1.1709  1.2168
 4291TIP3   OH234363   1.379   2.730   4.904  0.3900  0.2174  0.4784
 4291TIP3    H134364   1.286   2.748   4.887  0.8186  2.6828  0.3461
 4291TIP3    H234365   1.381   2.701   4.996 -0.3336  2.3081  1.2053
 4292TIP3   OH234366   0.019   6.069  15.968 -0.1420  0.5066  0.2659
 4292TIP3    H134367   0.070   6.066  16.049  1.4707 -3.2166 -0.6843
 4292TIP3    H234368   0.084   6.081  15.899 -1.4103  2.7108 -0.6780
 4293TIP3   OH234369   1.291   5.413  16.845 -0.1573  0.4164 -0.4666
 4293TIP3    H134370   1.308   5.477  16.776  2.8222 -0.5419 -0.7416
 4293TIP3    H234371   1.251   5.339  16.799  1.4929 -0.0791 -1.1884
 4294TIP3   OH234372   3.388   6.496   4.288 -0.0406  0.5034 -0.5661
 4294TIP3    H134373   3.418   6.520   4.200  0.3988 -1.0533 -0.8653
 4294TIP3    H234374   3.464   6.455   4.330 -1.0415 -1.4665 -0.5466
 4295TIP3   OH234375   3.760   1.073  17.494  0.1292  0.2137  0.1419
 4295TIP3    H134376   3.851   1.042  17.496 -0.2467 -1.0233 -0.6663
 4295TIP3    H234377   3.708   0.993  17.481 -1.0076  1.0158 -0.4065
 4296TIP3   OH234378   3.619   3.699  14.282  0.0001 -0.1212 -0.0206
 4296TIP3    H134379   3.707   3.680  14.250  0.0007  0.7731 -0.5947
 4296TIP3    H234380   3.562   3.639  14.234  0.2521 -0.4491  0.0850
 4297TIP3   OH234381   1.450   4.078  12.460 -0.0903  0.1614 -0.6561
 4297TIP3    H134382   1.369   4.032  12.485  0.3321  0.1921  0.9076
 4297TIP3    H234383   1.518   4.012  12.467  0.4712  0.8690  1.2619
 4298TIP3   OH234384   4.812   4.717  17.432 -0.4979 -0.2755 -0.1036
 4298TIP3    H134385   4.796   4.768  17.512 -0.4542 -3.1309  1.8581
 4298TIP3    H234386   4.869   4.773  17.380 -0.4707  1.6941  1.8766
 4299TIP3   OH234387   4.776   3.000   5.509 -0.4732 -0.5084  0.2544
 4299TIP3    H134388   4.700   3.022   5.563  1.0739  0.7169  2.0720
 4299TIP3    H234389   4.812   2.921   5.550  0.4448  0.1600  0.7651
 4300TIP3   OH234390   0.048   4.965  17.205 -0.1760  0.3481 -0.4521
 4300TIP3    H134391   0.062   4.995  17.294  0.0352  1.9617 -0.9887
 4300TIP3    H234392   0.116   5.009  17.154 -1.8514  1.5264 -1.7869
 4301TIP3   OH234393   1.113   0.231  11.474 -0.4048 -0.5490 -0.6083
 4301TIP3    H134394   1.032   0.202  11.432 -0.5488 -0.1871 -0.5846
 4301TIP3    H234395   1.115   0.325  11.460 -1.2295 -0.1607  1.4837
 4302TIP3   OH234396   0.729   4.924  15.347 -0.0293 -0.5943  0.0282
 4302TIP3    H134397   0.821   4.912  15.322  0.2599  0.2266  0.6401
 4302TIP3    H234398   0.692   4.836  15.348  0.8615 -0.9742  0.1652
 4303TIP3   OH234399   4.759   3.946  11.340 -0.0279 -0.4707  0.4299
 4303TIP3    H134400   4.706   3.877  11.381  1.0545 -1.3840  0.3290
 4303TIP3    H234401   4.846   3.935  11.379  0.0299  1.1903  0.8041
 4304TIP3   OH234402   3.060   4.038  14.802 -0.3367  0.2337  0.1531
 4304TIP3    H134403   3.069   4.129  14.828  0.6222  1.0076 -2.5219
 4304TIP3    H234404   2.966   4.026  14.790 -0.5233  0.6702  1.0606
 4305TIP3   OH234405   2.842   4.324  15.060  0.5368  0.6116  0.1192
 4305TIP3    H134406   2.747   4.329  15.071  0.5791  1.8138  0.0641
 4305TIP3    H234407   2.877   4.371  15.135  1.0940  0.1753  0.1360
 4306TIP3   OH234408   5.982   2.864  15.704  0.1786 -0.0164  0.0277
 4306TIP3    H134409   5.897   2.871  15.661 -1.2435 -0.1598  2.6095
 4306TIP3    H234410   6.006   2.771  15.696 -1.1419 -0.5140  1.3284
 4307TIP3   OH234411   4.713   1.982  14.710  0.2965  0.0200 -0.9347
 4307TIP3    H134412   4.740   2.073  14.721  0.5956 -0.2039  0.3689
 4307TIP3    H234413   4.794   1.931  14.718  0.4504 -0.2994 -3.5235
 4308TIP3   OH234414   1.699   1.246   5.849 -0.7360 -0.2251 -0.2285
 4308TIP3    H134415   1.615   1.200   5.854 -1.7242  1.5952  1.5130
 4308TIP3    H234416   1.731   1.247   5.939  1.5448 -1.4729 -0.9701
 4309TIP3   OH234417   0.185   3.460  16.250  0.0272 -0.2676  0.4773
 4309TIP3    H134418   0.261   3.455  16.308 -0.1098 -0.2021  0.6617
 4309TIP3    H234419   0.120   3.402  16.290 -0.1383 -0.0709  0.4950
 4310TIP3   OH234420   1.264   0.126   6.204  0.0007  0.0760 -0.2025
 4310TIP3    H134421   1.170   0.138   6.220 -0.1165  0.6879 -1.2466
 4310TIP3    H234422   1.269   0.054   6.142  0.1538  0.6510 -0.8673
 4311TIP3   OH234423   0.808   5.908   1.703 -0.5766 -0.1667 -0.3073
 4311TIP3    H134424   0.835   5.986   1.656 -0.2043  0.5529  1.0527
 4311TIP3    H234425   0.781   5.940   1.789  2.5410 -1.8035  1.4420
 4312TIP3   OH234426   6.228   6.457   1.607 -0.9065  0.0192  0.0414
 4312TIP3    H134427   6.296   6.447   1.540 -0.2528 -0.4372  0.7504
 4312TIP3    H234428   6.174   6.379   1.598 -0.7114 -0.1317  0.1590
 4313TIP3   OH234429   2.137   0.479   6.763  0.5454 -0.4002  0.5426
 4313TIP3    H134430   2.112   0.393   6.797 -3.7135  1.2091  2.1823
 4313TIP3    H234431   2.079   0.493   6.687 -0.5214  1.7944  1.6604
 4314TIP3   OH234432   5.062   0.409   0.543  0.4493  0.5574 -0.4433
 4314TIP3    H134433   5.046   0.366   0.459  0.7394  1.9832 -1.2691
 4314TIP3    H234434   5.090   0.339   0.601 -0.8575 -0.6585 -1.2035
 4315TIP3   OH234435   4.177   6.542  13.503  0.0222 -0.4046  0.2801
 4315TIP3    H134436   4.123   6.613  13.537  1.1866  0.2310  0.8616
 4315TIP3    H234437   4.136   6.518  13.420  0.0723  1.5111 -0.3379
 4316TIP3   OH234438   1.032   2.076  15.067 -0.5019 -0.0663 -0.5771
 4316TIP3    H134439   1.123   2.090  15.092 -0.8057 -0.0943  0.5785
 4316TIP3    H234440   1.036   2.012  14.995  0.4238  0.5200 -1.0584
 4317TIP3   OH234441   3.850   3.232  14.632  0.1119  0.0473  0.2427
 4317TIP3    H134442   3.917   3.166  14.611 -2.0478 -2.3292  0.3036
 4317TIP3    H234443   3.828   3.272  14.548  1.8576  1.2237  0.2837
 4318TIP3   OH234444   3.650   1.440   2.405  0.0673  0.4867 -0.0581
 4318TIP3    H134445   3.590   1.514   2.412  0.5399  0.9838 -1.0548
 4318TIP3    H234446   3.596   1.363   2.420 -0.2478  1.0627  2.0214
 4319TIP3   OH234447   0.580   3.667  11.568  0.5769 -0.0791  0.1833
 4319TIP3    H134448   0.499   3.710  11.539  0.4166 -0.6395 -0.2131
 4319TIP3    H234449   0.572   3.663  11.664  0.0388 -0.3139  0.1321
 4320TIP3   OH234450   4.144   3.750  13.159  0.5161 -0.0067  0.2262
 4320TIP3    H134451   4.066   3.799  13.185 -0.1763 -0.2073 -1.3972
 4320TIP3    H234452   4.208   3.770  13.228 -0.3186  1.7204  0.5573
 4321TIP3   OH234453   3.581   0.205   6.717  0.0384 -0.8233  1.0537
 4321TIP3    H134454   3.530   0.152   6.656  0.0463  0.2235  0.1202
 4321TIP3    H234455   3.548   0.294   6.706  0.8360 -0.4268  1.7426
 4322TIP3   OH234456   0.539   1.389   3.129  0.2115 -0.3956  0.3930
 4322TIP3    H134457   0.530   1.455   3.060 -2.2329 -1.0872 -0.0506
 4322TIP3    H234458   0.619   1.341   3.107  2.2710  2.5081  0.9107
 4323TIP3   OH234459   2.833   1.394  12.142  0.3843 -0.3048  0.2382
 4323TIP3    H134460   2.925   1.404  12.118  0.6533  2.0712  1.8438
 4323TIP3    H234461   2.785   1.431  12.068  0.9018  1.2230  0.6257
 4324TIP3   OH234462   5.202   5.571  16.186  0.0341 -0.5384  0.3698
 4324TIP3    H134463   5.297   5.557  16.182 -0.0326 -1.1405 -3.7783
 4324TIP3    H234464   5.166   5.484  16.205  0.2423 -0.2836  2.0829
 4325TIP3   OH234465   3.304   4.975  11.685 -0.1972  0.3032  0.0234
 4325TIP3    H134466   3.315   5.059  11.640  0.8876  0.7868  1.1252
 4325TIP3    H234467   3.358   4.983  11.764 -0.6988 -1.1443  0.5460
 4326TIP3   OH234468   3.813   2.931   1.859 -0.0722 -0.4233  0.4518
 4326TIP3    H134469   3.845   2.851   1.900  2.8396  0.9076  1.0164
 4326TIP3    H234470   3.798   2.907   1.768  0.6157 -1.6454  0.6452
 4327TIP3   OH234471   5.316   3.150  14.248  0.3380  0.1762  0.6280
 4327TIP3    H134472   5.375   3.081  14.217 -1.4206 -0.8365 -0.6113
 4327TIP3    H234473   5.267   3.110  14.319  1.0779  1.0145  1.6440
 4328TIP3   OH234474   2.877   3.987  16.759  0.1503  0.1317 -0.2361
 4328TIP3    H134475   2.827   3.917  16.718  2.3492 -1.7629  0.0886
 4328TIP3    H234476   2.876   4.058  16.695 -1.5781 -0.4370 -0.8830
 4329TIP3   OH234477   6.679   2.539   3.772  0.5277  0.0207  0.2851
 4329TIP3    H134478   6.665   2.447   3.794 -0.8794 -0.0466 -0.7672
 4329TIP3    H234479   6.615   2.558   3.704 -1.5382  2.6653  2.7387
 4330TIP3   OH234480   6.680   4.576  11.424  0.2751 -0.0681  0.3685
 4330TIP3    H134481   6.722   4.522  11.357 -1.5572 -1.8622  0.5726
 4330TIP3    H234482   6.724   4.550  11.506 -0.6237 -1.3478  0.4712
 4331TIP3   OH234483   1.187   3.207  14.472  0.1406 -0.0977  0.2275
 4331TIP3    H134484   1.250   3.154  14.424  0.3287 -0.6891  1.0874
 4331TIP3    H234485   1.113   3.218  14.412  1.0922  0.7157 -0.8443
 4332TIP3   OH234486   1.119   0.785   1.433  0.8329  0.3549 -0.1718
 4332TIP3    H134487   1.136   0.772   1.526 -0.0834 -2.8140 -0.3271
 4332TIP3    H234488   1.029   0.814   1.428  0.1295 -1.6335 -0.0663
 4333TIP3   OH234489   0.949   2.796  13.764 -0.0073 -0.2131  0.4383
 4333TIP3    H134490   0.971   2.733  13.695  0.5818 -0.4085  0.8030
 4333TIP3    H234491   0.878   2.754  13.812  0.3553 -0.5798  0.6550
 4334TIP3   OH234492   2.545   1.604  11.731  0.0251 -0.3355  0.4367
 4334TIP3    H134493   2.554   1.553  11.650  1.8132 -1.5148  1.3113
 4334TIP3    H234494   2.455   1.587  11.760 -0.5736 -0.0700 -1.1483
 4335TIP3   OH234495   0.729   3.466   0.756  0.4040 -0.2378  0.1206
 4335TIP3    H134496   0.824   3.459   0.755  0.3892 -0.5187  0.3718
 4335TIP3    H234497   0.710   3.552   0.718  0.7098 -0.5892 -0.8478
 4336TIP3   OH234498   4.164   5.024  12.899  0.1283  0.5929 -1.1089
 4336TIP3    H134499   4.166   5.056  12.989 -1.3576  1.5259 -1.3674
 4336TIP3    H234500   4.250   5.045  12.864  0.6448  0.4330  0.0141
 4337TIP3   OH234501   6.643   0.684   6.399  0.7557 -0.1226  0.2998
 4337TIP3    H134502   6.720   0.741   6.404  1.4214 -1.0917  3.0655
 4337TIP3    H234503   6.589   0.709   6.474 -0.0937 -1.5056  0.1981
 4338TIP3   OH234504   5.035   2.713   3.654 -0.1844 -0.1191 -0.0755
 4338TIP3    H134505   4.994   2.668   3.581 -1.6691 -0.0565  0.6775
 4338TIP3    H234506   5.104   2.654   3.684  0.2541 -0.2644 -1.3339
 4339TIP3   OH234507   2.641   2.490   3.638 -0.0422  0.7938  0.6777
 4339TIP3    H134508   2.688   2.549   3.579  1.2510 -1.1400 -0.3550
 4339TIP3    H234509   2.549   2.496   3.611  0.4070  0.5973 -0.9961
 4340TIP3   OH234510   3.351   5.720  14.447  0.2911  0.0938 -0.1207
 4340TIP3    H134511   3.338   5.806  14.486 -2.1550 -1.3777  2.6713
 4340TIP3    H234512   3.268   5.701  14.403  0.5486 -1.1411 -0.1028
 4341TIP3   OH234513   5.434   1.094  12.312  0.8266  0.0447 -0.2066
 4341TIP3    H134514   5.479   1.149  12.248  0.0733  1.3495  0.3292
 4341TIP3    H234515   5.341   1.114  12.300  0.5882 -0.5990  0.4696
 4342TIP3   OH234516   0.862   0.921   3.009  0.0830 -0.2071 -1.1511
 4342TIP3    H134517   0.770   0.893   3.014 -0.0834  0.3161 -1.1846
 4342TIP3    H234518   0.910   0.842   2.983 -0.0089 -1.1106  1.1834
 4343TIP3   OH234519   1.902   6.730  12.074  0.2535 -0.9429  0.0420
 4343TIP3    H134520   1.951   6.769  12.146  0.5220 -1.1259 -0.0393
 4343TIP3    H234521   1.965   6.672  12.031 -0.2369 -1.7187  0.3658
 4344TIP3   OH234522   0.914   5.698  10.644 -0.1635  0.3536  0.0584
 4344TIP3    H134523   0.962   5.616  10.634 -1.0572 -0.3878  1.4090
 4344TIP3    H234524   0.978   5.766  10.625  1.5678 -0.5650  2.1498
 4345TIP3   OH234525   0.656   3.942  15.073  0.2165  0.1821  0.2655
 4345TIP3    H134526   0.620   3.886  15.004 -0.5020  0.2340  0.5919
 4345TIP3    H234527   0.695   4.016  15.026 -0.5685  0.3893 -0.0834
 4346TIP3   OH234528   0.440   0.513  11.452 -0.0787 -0.5322  0.1131
 4346TIP3    H134529   0.474   0.569  11.522  0.9823 -1.2206  0.1754
 4346TIP3    H234530   0.361   0.474  11.488  0.2730 -0.6129  0.8083
 4347TIP3   OH234531   6.651   0.285  12.848 -0.2160 -1.0513 -0.2174
 4347TIP3    H134532   6.713   0.281  12.776  0.1325 -0.5317  0.0426
 4347TIP3    H234533   6.582   0.223  12.825 -0.6809 -0.0873 -1.5378
 4348TIP3   OH234534   3.729   1.988   5.830  0.7244 -0.1540 -0.3985
 4348TIP3    H134535   3.645   2.036   5.832 -0.0632 -1.4553 -1.0058
 4348TIP3    H234536   3.794   2.056   5.815 -0.0663  1.0694  1.3034
 4349TIP3   OH234537   6.265   6.603  11.679  0.2506 -0.4365  0.0869
 4349TIP3    H134538   6.193   6.644  11.727 -1.4062 -1.6082 -1.2657
 4349TIP3    H234539   6.304   6.542  11.741  0.3758  0.5270  0.9718
 4350TIP3   OH234540   1.543   5.053   3.254 -0.2793  0.0257  0.1470
 4350TIP3    H134541   1.526   5.147   3.258 -1.1597 -0.1150 -0.1200
 4350TIP3    H234542   1.527   5.029   3.163 -1.1299 -0.5749  0.4411
 4351TIP3   OH234543   3.011   0.851   0.880 -0.2762  0.1872  0.3626
 4351TIP3    H134544   2.957   0.826   0.955  1.6080 -0.4301  1.5775
 4351TIP3    H234545   3.056   0.770   0.855 -0.3806  0.5351 -1.0358
 4352TIP3   OH234546   5.468   5.652   3.468  0.0633  0.0323 -0.1130
 4352TIP3    H134547   5.483   5.558   3.482  0.5600 -0.0291 -0.9500
 4352TIP3    H234548   5.393   5.656   3.409 -0.0156  0.1563 -0.0017
 4353TIP3   OH234549   6.192   6.615   2.457 -0.2101 -0.5949  0.3940
 4353TIP3    H134550   6.149   6.658   2.531  0.2069  1.2836 -0.3798
 4353TIP3    H234551   6.134   6.543   2.434 -1.5915  0.2613  1.0406
 4354TIP3   OH234552   2.468   2.401   0.778 -0.0397  0.1444 -0.4163
 4354TIP3    H134553   2.417   2.323   0.803 -2.6362  1.1847 -2.0283
 4354TIP3    H234554   2.500   2.381   0.689  0.6589  0.3265 -0.2122
 4355TIP3   OH234555   3.046   0.214   3.678 -0.5805 -0.3585 -0.4488
 4355TIP3    H134556   3.022   0.205   3.586  1.2014  0.0227 -0.9838
 4355TIP3    H234557   3.064   0.308   3.689 -1.8859 -0.2035  0.6007
 4356TIP3   OH234558   2.372   4.318   0.590  0.2054  0.5092  0.1744
 4356TIP3    H134559   2.366   4.413   0.580 -0.4313  0.5503  0.8363
 4356TIP3    H234560   2.463   4.297   0.568  0.8454  1.4948  1.6964
 4357TIP3   OH234561   2.016   6.334  13.567 -0.4536 -0.0375  0.1827
 4357TIP3    H134562   1.969   6.327  13.649  1.2640 -1.2809  1.1401
 4357TIP3    H234563   2.107   6.350  13.593 -0.0035  0.3220 -1.4928
 4358TIP3   OH234564   2.981   2.921   2.406  0.0684 -0.3341  0.1690
 4358TIP3    H134565   2.968   2.829   2.430  0.6941 -0.4125  0.2277
 4358TIP3    H234566   3.061   2.921   2.353  2.0809  0.5619  2.9319
 4359TIP3   OH234567   5.009   5.853   5.066  0.0020 -0.1084 -0.1015
 4359TIP3    H134568   5.036   5.886   4.980  0.0873 -1.1092 -0.4702
 4359TIP3    H234569   5.085   5.866   5.122  0.2087 -0.1449 -0.3694
 4360TIP3   OH234570   5.908   1.664   0.581  0.0151 -0.9804 -0.5049
 4360TIP3    H134571   5.862   1.584   0.606 -2.4562  0.6545  0.5180
 4360TIP3    H234572   5.865   1.733   0.631  2.9578  0.8788 -0.2887
 4361TIP3   OH234573   3.663   5.307  14.735  0.5162 -0.0030  0.4008
 4361TIP3    H134574   3.731   5.263  14.685 -1.1717 -1.0324 -1.1019
 4361TIP3    H234575   3.622   5.237  14.787  2.5204  1.0801  3.7909
 4362TIP3   OH234576   0.914   4.879   5.023 -0.1480  0.0375  0.6463
 4362TIP3    H134577   0.919   4.975   5.029 -0.1781 -0.0177  1.6628
 4362TIP3    H234578   0.920   4.849   5.114 -0.9576 -0.8932  0.4006
 4363TIP3   OH234579   1.426   5.094  14.679  0.1007 -0.1911 -0.0252
 4363TIP3    H134580   1.333   5.111  14.694  0.3626  1.1068  0.2029
 4363TIP3    H234581   1.436   5.093  14.584 -0.1628 -0.4336 -0.0505
 4364TIP3   OH234582   3.042   2.884  13.870 -0.7845 -0.4389 -0.1554
 4364TIP3    H134583   3.105   2.845  13.809 -0.4516 -2.1051  1.1984
 4364TIP3    H234584   3.065   2.848  13.955 -2.4327  0.3670  0.6777
 4365TIP3   OH234585   5.019   1.567  17.100 -0.1063 -0.1905 -0.4703
 4365TIP3    H134586   4.974   1.592  17.181 -0.2285  0.3701 -0.7038
 4365TIP3    H234587   5.036   1.650  17.056 -0.1225 -0.5018 -1.0643
 4366TIP3   OH234588   2.351   5.833   5.236 -0.0490  0.6489  0.3547
 4366TIP3    H134589   2.443   5.845   5.210 -0.3252  2.0572 -0.0514
 4366TIP3    H234590   2.320   5.921   5.256 -1.2578  0.1615  0.6959
 4367TIP3   OH234591   4.512   0.029  15.105 -0.4918  0.1010  0.0268
 4367TIP3    H134592   4.473  -0.019  15.033 -0.2594 -0.4292  0.2455
 4367TIP3    H234593   4.573   0.090  15.063 -1.0857  0.4878 -0.2740
 4368TIP3   OH234594   2.897   2.346   3.529 -0.3805  0.2624 -0.4070
 4368TIP3    H134595   2.822   2.313   3.579 -0.6683 -2.1957 -2.2807
 4368TIP3    H234596   2.966   2.356   3.595 -2.2712  2.7661  1.3997
 4369TIP3   OH234597   6.199   4.922   3.594  0.0210  0.0681 -0.3241
 4369TIP3    H134598   6.123   4.872   3.565  0.4329 -0.7274 -0.0606
 4369TIP3    H234599   6.174   5.014   3.580 -1.1132 -0.1646  0.0843
 4370TIP3   OH234600   5.870   5.696   5.324  0.5029  0.8180 -0.5324
 4370TIP3    H134601   5.783   5.667   5.297  0.4443  0.3164  0.1592
 4370TIP3    H234602   5.898   5.631   5.389  0.8477  1.6810  0.2091
 4371TIP3   OH234603   6.262   1.482   0.017  0.3333 -0.1790 -0.4589
 4371TIP3    H134604   6.286   1.478  -0.076  0.4668  1.7324 -0.5593
 4371TIP3    H234605   6.346   1.491   0.063  0.2362 -0.6219 -0.1914
 4372TIP3   OH234606   1.932   2.921  17.393  0.1052  0.0753 -0.4746
 4372TIP3    H134607   1.874   2.890  17.462  0.9358  0.2574  0.3203
 4372TIP3    H234608   1.946   2.845  17.337  1.1527 -0.6785  0.7706
 4373TIP3   OH234609   5.514   0.333   1.068 -0.5013 -0.2530  0.2791
 4373TIP3    H134610   5.457   0.381   1.129  1.4391 -0.4568  2.4101
 4373TIP3    H234611   5.602   0.358   1.095  0.4819 -2.2196 -0.9563
 4374TIP3   OH234612   4.714   4.257  15.932 -0.0136 -0.4307  0.2540
 4374TIP3    H134613   4.651   4.190  15.903 -1.0480  0.5164  0.2528
 4374TIP3    H234614   4.742   4.227  16.018  0.7671 -1.6873 -0.4039
 4375TIP3   OH234615   5.465   3.071   4.242 -0.7351 -0.5358  0.6133
 4375TIP3    H134616   5.461   3.029   4.328  1.3580 -0.8081  0.6425
 4375TIP3    H234617   5.456   2.998   4.180 -1.3988 -0.4476  0.5998
 4376TIP3   OH234618   4.418   2.259  10.424  0.5232  0.4709  0.6494
 4376TIP3    H134619   4.457   2.330  10.476 -0.2374  0.1474  1.6902
 4376TIP3    H234620   4.343   2.230  10.476  1.1488 -1.4933  0.5371
 4377TIP3   OH234621   0.028   6.172   6.326  0.2325  0.1194  0.1649
 4377TIP3    H134622   0.088   6.246   6.334  0.7241 -0.2726  0.1612
 4377TIP3    H234623  -0.057   6.212   6.308  0.5559  0.6708 -0.1866
 4378TIP3   OH234624   3.416   4.865  12.588 -0.0829 -0.2799  0.5404
 4378TIP3    H134625   3.334   4.913  12.577  0.6576  1.2521  1.3366
 4378TIP3    H234626   3.460   4.874  12.504  0.6902  1.7918  1.1023
 4379TIP3   OH234627   2.106   4.952  17.319 -0.4997  0.3703 -0.2145
 4379TIP3    H134628   2.086   4.950  17.226 -1.2581  0.3873 -0.0580
 4379TIP3    H234629   2.107   4.860  17.346 -0.6171  0.3821 -0.1697
 4380TIP3   OH234630   0.356   3.344  15.133  0.1349  0.1230 -0.4557
 4380TIP3    H134631   0.287   3.387  15.083 -0.5558 -1.1808 -0.6460
 4380TIP3    H234632   0.384   3.271  15.078 -0.0161 -0.8004  0.6542
 4381TIP3   OH234633   5.627   6.568  11.880 -0.0793  0.0076 -0.2248
 4381TIP3    H134634   5.592   6.536  11.797 -1.0466 -1.3908  0.6816
 4381TIP3    H234635   5.574   6.646  11.899 -0.8319 -0.4932 -0.2298
 4382TIP3   OH234636   5.314   6.038  15.876 -0.3387  0.0839  0.4548
 4382TIP3    H134637   5.261   5.987  15.937 -0.5319  2.4227  2.3846
 4382TIP3    H234638   5.341   6.115  15.925  2.7351  0.2979 -1.2591
 4383TIP3   OH234639   1.507   4.733   4.124 -0.3858  0.2716  0.0469
 4383TIP3    H134640   1.572   4.712   4.190  0.0284  0.1371 -0.3984
 4383TIP3    H234641   1.550   4.713   4.041 -1.4848 -1.1618 -0.2016
 4384TIP3   OH234642   5.675   5.632  16.610 -0.3710 -0.2677 -0.2589
 4384TIP3    H134643   5.679   5.715  16.658 -0.9372  0.3222 -1.1949
 4384TIP3    H234644   5.742   5.577  16.651 -0.1670  0.5551  0.5494
 4385TIP3   OH234645   5.996   2.536   6.077  0.1797  0.6771  0.4156
 4385TIP3    H134646   6.019   2.590   6.153 -0.6627  0.2634  0.9791
 4385TIP3    H234647   5.954   2.459   6.115  0.0662  0.2977 -0.4613
 4386TIP3   OH234648   3.445   6.182   5.325  0.9977  0.3507 -0.2683
 4386TIP3    H134649   3.533   6.156   5.298  0.4144  0.8982 -3.0576
 4386TIP3    H234650   3.406   6.219   5.246 -1.6735  0.3325  0.9322
 4387TIP3   OH234651   0.041   1.624   1.392 -0.1648  0.2909  0.6044
 4387TIP3    H134652   0.017   1.643   1.482  1.6350  0.1331  1.1496
 4387TIP3    H234653  -0.026   1.561   1.362 -0.8475  0.4319  1.7664
 4388TIP3   OH234654   1.528   0.577  16.851 -1.0360  0.3513 -0.4330
 4388TIP3    H134655   1.524   0.522  16.772 -0.5780 -0.3962  0.0412
 4388TIP3    H234656   1.464   0.646  16.836 -1.0221  0.1710 -1.4206
 4389TIP3   OH234657   4.486   5.864  16.656 -0.2001 -0.1279 -0.1403
 4389TIP3    H134658   4.438   5.932  16.704  0.5126  1.3819 -1.4698
 4389TIP3    H234659   4.558   5.840  16.715 -0.3816  0.3708  0.2941
 4390TIP3   OH234660   2.713   1.304   3.659  0.0128  0.1651 -0.4008
 4390TIP3    H134661   2.632   1.270   3.698 -0.1822  0.7741 -0.2623
 4390TIP3    H234662   2.699   1.298   3.565  0.5064 -1.3664 -0.4053
 4391TIP3   OH234663   6.306   6.642  16.277 -0.5615  0.3417  0.0207
 4391TIP3    H134664   6.352   6.613  16.198  1.5896 -0.2468  1.4121
 4391TIP3    H234665   6.265   6.562  16.312  1.2379 -0.1284  1.1964
 4392TIP3   OH234666   6.582   3.825   0.522 -0.3227  0.0994  0.0771
 4392TIP3    H134667   6.546   3.744   0.558  0.1938  0.1432  0.7098
 4392TIP3    H234668   6.507   3.884   0.519 -0.8268 -0.5637 -0.9105
 4393TIP3   OH234669   2.247   4.798  14.676  0.4480  0.0325  0.3849
 4393TIP3    H134670   2.340   4.786  14.655  0.1632  0.0142 -0.9208
 4393TIP3    H234671   2.202   4.788  14.593 -0.7975 -0.5482  1.1020
 4394TIP3   OH234672   2.122   1.464  14.415 -0.1421 -0.1824  0.7697
 4394TIP3    H134673   2.189   1.432  14.355  0.2519 -2.0287  2.1314
 4394TIP3    H234674   2.039   1.450  14.369  0.2402 -0.1805  0.0712
 4395TIP3   OH234675   1.621   3.750   5.576  0.3245  0.0468 -0.1325
 4395TIP3    H134676   1.539   3.770   5.620  1.3451 -2.4182  3.3079
 4395TIP3    H234677   1.609   3.662   5.541  1.0755  0.2043 -0.8224
 4396TIP3   OH234678   6.352   1.372  12.810  0.3194  0.6016  0.0687
 4396TIP3    H134679   6.350   1.451  12.863 -1.4375  1.2992 -0.9691
 4396TIP3    H234680   6.271   1.326  12.831  0.5353 -0.0950 -0.5653
 4397TIP3   OH234681   6.189   3.301   5.598 -0.1018  0.2555  0.2579
 4397TIP3    H134682   6.282   3.316   5.586 -0.1154 -0.7787 -1.6428
 4397TIP3    H234683   6.173   3.318   5.691  2.1148 -0.3164  0.8023
 4398TIP3   OH234684   2.693   5.621   2.830 -0.2201 -0.9091  0.1374
 4398TIP3    H134685   2.760   5.556   2.810  0.2241 -1.0144  1.7755
 4398TIP3    H234686   2.733   5.705   2.811  1.1314 -0.8483  2.7968
 4399TIP3   OH234687   3.653   3.172   0.243 -0.7321 -0.4639 -0.2404
 4399TIP3    H134688   3.741   3.199   0.216 -0.3514 -1.8242 -0.4745
 4399TIP3    H234689   3.669   3.102   0.307 -1.6451  0.6376  1.2393
 4400TIP3   OH234690   3.100   2.773  15.872  0.0456 -0.0826 -0.0180
 4400TIP3    H134691   3.019   2.728  15.849 -0.3360  0.9487 -0.7919
 4400TIP3    H234692   3.147   2.781  15.789  0.6601 -0.1126  0.3203
 4401TIP3   OH234693   2.243   3.981   3.629 -0.5402 -0.5619  0.5233
 4401TIP3    H134694   2.242   3.888   3.606 -1.1650 -0.7662  1.3695
 4401TIP3    H234695   2.311   3.989   3.695 -0.1925 -0.3356  0.1449
 4402TIP3   OH234696   4.860   0.349   6.912  0.1959  0.1039  0.0267
 4402TIP3    H134697   4.937   0.329   6.860  0.1630 -0.7710  0.3084
 4402TIP3    H234698   4.895   0.379   6.996  0.2374  0.8866 -0.2593
 4403TIP3   OH234699   6.485   6.228   0.970  0.1069 -0.5976  0.2343
 4403TIP3    H134700   6.478   6.133   0.978  2.0942 -0.9551 -1.4144
 4403TIP3    H234701   6.416   6.252   0.908 -0.3114 -0.9875  0.5475
 4404TIP3   OH234702   2.072   5.372   6.143  0.3936  0.0148  0.3072
 4404TIP3    H134703   2.004   5.376   6.076  0.8560 -0.2953 -0.1883
 4404TIP3    H234704   2.043   5.434   6.210  0.3855  1.0629 -0.6233
 4405TIP3   OH234705   3.185   3.288  12.310  0.2544  0.3153 -0.8211
 4405TIP3    H134706   3.113   3.229  12.288  0.2081  0.6815 -1.6726
 4405TIP3    H234707   3.263   3.233  12.308  0.4204  0.5649 -3.1577
 4406TIP3   OH234708   3.028   3.772  11.731  0.0696  0.4503  0.2962
 4406TIP3    H134709   2.950   3.722  11.708  0.8207 -0.2586 -0.7793
 4406TIP3    H234710   3.099   3.708  11.730  1.2385  1.6724 -2.1133
 4407TIP3   OH234711   6.602   2.831   5.215 -0.3285  0.2624  0.4832
 4407TIP3    H134712   6.555   2.812   5.297 -0.5248  0.9275  0.5292
 4407TIP3    H234713   6.532   2.845   5.151 -0.1872 -1.6862 -0.1609
 4408TIP3   OH234714   2.236   0.101  13.291  0.3121  0.0893 -0.2597
 4408TIP3    H134715   2.219   0.010  13.268 -0.3834 -0.1691  1.1716
 4408TIP3    H234716   2.288   0.097  13.371 -0.3408  0.9320  0.2291
 4409TIP3   OH234717   2.449   6.646   6.560  0.7676 -0.1934  0.3723
 4409TIP3    H134718   2.544   6.645   6.571  0.9140 -0.0638 -0.8071
 4409TIP3    H234719   2.429   6.562   6.519  0.1710 -0.8761  1.9485
 4410TIP3   OH234720   4.368   6.715   2.735 -0.2727  0.0173  0.0448
 4410TIP3    H134721   4.338   6.634   2.694 -1.9213  0.6827 -0.1472
 4410TIP3    H234722   4.343   6.784   2.673  0.7941  0.7125  0.3629
 4411TIP3   OH234723   1.224   5.520   5.385  0.3738 -0.7883 -0.2908
 4411TIP3    H134724   1.182   5.561   5.460  0.7945 -0.0795 -0.4431
 4411TIP3    H234725   1.318   5.532   5.399  0.4931 -1.4749 -0.4612
 4412TIP3   OH234726   6.730   0.328  15.828 -0.0448 -0.1917  0.2721
 4412TIP3    H134727   6.790   0.385  15.779  1.7535 -0.4018  2.1078
 4412TIP3    H234728   6.766   0.240  15.816 -1.2976 -0.6411 -0.3926
 4413TIP3   OH234729   3.774   1.280   4.010  0.1727  0.0414 -0.5689
 4413TIP3    H134730   3.814   1.346   3.953  2.7223 -0.0154  0.9804
 4413TIP3    H234731   3.786   1.314   4.098  1.0492 -2.1741  0.2528
 4414TIP3   OH234732   2.900   5.261   2.724 -0.5664 -0.0992 -0.2251
 4414TIP3    H134733   2.953   5.182   2.712 -2.0062 -1.2401  0.5395
 4414TIP3    H234734   2.823   5.247   2.669 -0.7405  0.8806 -0.2536
 4415TIP3   OH234735   3.760   0.445  16.036  0.3182 -0.0125  0.4302
 4415TIP3    H134736   3.826   0.482  16.095 -1.1330  1.3554  1.2645
 4415TIP3    H234737   3.811   0.405  15.965  2.0283  1.0496  1.0010
 4416TIP3   OH234738   0.807   2.551   5.566  0.7068 -0.6813 -0.2371
 4416TIP3    H134739   0.828   2.594   5.483 -1.9505  0.4617 -0.4139
 4416TIP3    H234740   0.738   2.605   5.605  0.2242 -2.4822  1.6113
 4417TIP3   OH234741   5.507   3.511   2.305 -0.1517  1.0682  0.0476
 4417TIP3    H134742   5.428   3.500   2.252  0.4364  0.3423 -0.6976
 4417TIP3    H234743   5.491   3.590   2.357 -1.1562  1.2031 -0.4636
 4418TIP3   OH234744   5.159   2.045   2.546 -0.2724  0.0364 -0.3363
 4418TIP3    H134745   5.104   1.980   2.502  1.6515 -1.9175  0.0303
 4418TIP3    H234746   5.239   1.999   2.569  0.7521  2.2623  0.9531
 4419TIP3   OH234747   4.425   1.533  14.126 -0.4206 -0.2955 -0.0841
 4419TIP3    H134748   4.345   1.490  14.095  0.4016 -1.8628 -0.0820
 4419TIP3    H234749   4.483   1.533  14.050 -0.8883  2.1536 -0.5285
 4420TIP3   OH234750   5.251   5.541  16.557 -0.2910  0.0936 -0.1228
 4420TIP3    H134751   5.171   5.490  16.569  0.7198 -0.9851  2.6155
 4420TIP3    H234752   5.235   5.623  16.605 -0.0436  0.2243 -0.2594
 4421TIP3   OH234753   3.130   1.202   1.503 -0.1626 -0.0636  0.0077
 4421TIP3    H134754   3.209   1.167   1.462  0.3006  0.1677  0.6957
 4421TIP3    H234755   3.076   1.230   1.429 -1.0382 -3.1526 -0.6776
 4422TIP3   OH234756   1.579   3.331  12.185 -0.1464 -0.2376  0.4181
 4422TIP3    H134757   1.640   3.383  12.237 -0.3414 -0.0656  0.4808
 4422TIP3    H234758   1.530   3.396  12.135 -0.0185 -0.3993  0.0861
 4423TIP3   OH234759   6.293   4.836   5.313 -0.1414 -0.3830  0.0961
 4423TIP3    H134760   6.207   4.796   5.298  0.7174 -2.0841 -0.5889
 4423TIP3    H234761   6.341   4.821   5.231  0.5698  1.2064  0.1923
 4424TIP3   OH234762   0.938   0.716   2.864 -0.1536 -0.0168 -0.9507
 4424TIP3    H134763   1.004   0.648   2.872  0.4400  0.3684 -2.2702
 4424TIP3    H234764   0.975   0.779   2.801 -2.0909 -0.2061 -2.3806
 4425TIP3   OH234765   1.262   1.778   3.322  0.1873 -0.3524  0.0615
 4425TIP3    H134766   1.222   1.714   3.381  1.2802 -1.5105 -0.4118
 4425TIP3    H234767   1.224   1.758   3.236  0.6663 -0.4946 -0.1196
 4426TIP3   OH234768   0.888   3.400  13.862  0.6887  0.3831  0.0965
 4426TIP3    H134769   0.857   3.418  13.951  2.4654  0.2205  0.7890
 4426TIP3    H234770   0.880   3.305  13.852 -0.5911  0.5218 -0.3702
 4427TIP3   OH234771   4.373   5.951   3.132 -0.1901 -0.4246 -0.3219
 4427TIP3    H134772   4.363   5.965   3.226 -1.4457 -0.8252 -0.3737
 4427TIP3    H234773   4.378   6.040   3.096 -0.8639 -0.2387  0.0190
 4428TIP3   OH234774   3.551   3.803  12.851 -0.1391  0.4066  1.0139
 4428TIP3    H134775   3.629   3.767  12.809 -1.8679  0.0714 -2.2391
 4428TIP3    H234776   3.517   3.731  12.905  0.7416 -0.0921  0.9162
 4429TIP3   OH234777   4.253   3.185  14.408 -0.3660 -0.3831 -0.1515
 4429TIP3    H134778   4.260   3.174  14.313  1.0574  0.8149 -0.2232
 4429TIP3    H234779   4.191   3.257  14.421  0.8802  0.7511 -0.2866
 4430TIP3   OH234780   4.030   4.485  16.084  0.4067 -0.3251 -0.3822
 4430TIP3    H134781   3.948   4.516  16.046  0.2059  0.9690  1.0104
 4430TIP3    H234782   4.080   4.565  16.102  1.3843 -1.0163  0.0827
 4431TIP3   OH234783   3.712   2.327   2.068 -0.4723 -0.4574 -0.5017
 4431TIP3    H134784   3.707   2.246   2.118 -1.5095  0.0299  0.2381
 4431TIP3    H234785   3.700   2.396   2.133  2.1608  0.4151 -0.8305
 4432TIP3   OH234786   3.371   0.796  14.749  0.5908  0.0573 -0.1316
 4432TIP3    H134787   3.399   0.719  14.799 -1.9740 -0.1573  1.1971
 4432TIP3    H234788   3.360   0.865  14.815 -1.0104  0.3357 -0.6314
 4433TIP3   OH234789   5.526   5.277  16.619 -0.1151  0.0066  0.1849
 4433TIP3    H134790   5.481   5.282  16.534  0.0205 -0.7430  0.0586
 4433TIP3    H234791   5.572   5.360  16.627 -0.3867  0.2114 -0.3302
 4434TIP3   OH234792   2.452   2.138  14.418 -0.2850  0.1667  0.5613
 4434TIP3    H134793   2.394   2.097  14.483 -0.7312  1.1867  0.8349
 4434TIP3    H234794   2.540   2.125  14.453 -0.3790 -0.9453  0.4086
 4435TIP3   OH234795   4.704   5.539   4.634 -0.2600  0.3232 -0.2351
 4435TIP3    H134796   4.637   5.521   4.568 -1.6396 -0.8516  1.4080
 4435TIP3    H234797   4.661   5.524   4.718  1.6742  0.9390  0.9506
 4436TIP3   OH234798   1.594   3.178  15.230 -0.1920  0.3752  0.6502
 4436TIP3    H134799   1.645   3.162  15.309 -0.5169  1.3117  1.0694
 4436TIP3    H234800   1.513   3.217  15.262 -0.8022 -0.2723 -0.0701
 4437TIP3   OH234801   3.730   0.815   5.391  0.5963  0.2034  0.0242
 4437TIP3    H134802   3.707   0.871   5.465  0.1906  0.3716 -0.2293
 4437TIP3    H234803   3.695   0.859   5.315 -1.9499 -1.5945  0.0339
 4438TIP3   OH234804   4.507   4.311   3.885  0.2305  0.5794 -0.1569
 4438TIP3    H134805   4.421   4.327   3.924  0.8780  0.0528  1.6227
 4438TIP3    H234806   4.528   4.392   3.839 -0.6091  1.2593  0.6148
 4439TIP3   OH234807   6.155   0.854   5.387  0.5950 -0.3907 -0.5270
 4439TIP3    H134808   6.193   0.804   5.459 -1.2776  0.1376  0.8686
 4439TIP3    H234809   6.190   0.943   5.398 -1.5926  0.3294  1.3063
 4440TIP3   OH234810   1.807   5.763   5.818 -0.3237 -0.8119  0.4702
 4440TIP3    H134811   1.810   5.856   5.794 -1.2562 -1.0998 -0.8294
 4440TIP3    H234812   1.723   5.732   5.784  0.4860 -2.4153 -0.1423
 4441TIP3   OH234813   5.724   0.466   0.724 -0.0289  0.4169  0.9469
 4441TIP3    H134814   5.662   0.535   0.748 -0.8825 -0.0106  0.0116
 4441TIP3    H234815   5.792   0.472   0.791 -1.0431  0.9240  1.9705
 4442TIP3   OH234816   0.088   1.473  16.549  0.1156  0.0189  0.2415
 4442TIP3    H134817   0.065   1.433  16.632 -1.1783  0.3676  0.0705
 4442TIP3    H234818   0.044   1.420  16.483  0.1881  0.4209 -0.1380
 4443TIP3   OH234819   0.691   4.961  10.691 -0.0396  0.2512  0.3303
 4443TIP3    H134820   0.711   4.868  10.683 -0.9001  0.0635  0.2275
 4443TIP3    H234821   0.740   4.990  10.767 -2.3564 -1.0586  2.4870
 4444TIP3   OH234822   4.466   5.291   3.155 -0.5241  0.7605 -0.4819
 4444TIP3    H134823   4.436   5.293   3.246  1.9894  0.8522  0.4256
 4444TIP3    H234824   4.441   5.204   3.123 -2.9345  1.3371 -0.3107
 4445TIP3   OH234825   4.657   4.585   0.088  0.0716 -0.4845 -0.0554
 4445TIP3    H134826   4.703   4.620   0.012 -1.0532  1.3597  0.0533
 4445TIP3    H234827   4.588   4.649   0.106 -2.5661 -3.0954 -0.2102
 4446TIP3   OH234828   0.239   5.417  16.418 -0.2512 -0.0168  0.7169
 4446TIP3    H134829   0.158   5.389  16.375  0.2025 -2.5626  1.3805
 4446TIP3    H234830   0.216   5.423  16.510  0.3125 -0.8850  0.9257
 4447TIP3   OH234831   0.442   6.688  11.801  0.2392  0.8236 -0.2795
 4447TIP3    H134832   0.381   6.639  11.746 -0.8948  0.0242  1.6231
 4447TIP3    H234833   0.477   6.623  11.862  1.2039  1.7599  0.1896
 4448TIP3   OH234834   6.722   5.134  13.096  0.5607  0.2017 -0.2579
 4448TIP3    H134835   6.755   5.059  13.047  0.7671 -0.2543  0.5711
 4448TIP3    H234836   6.629   5.115  13.108  0.0679  1.1858 -2.0379
 4449TIP3   OH234837   4.282   5.405  16.939 -0.1540  0.2687  0.2043
 4449TIP3    H134838   4.265   5.484  16.990 -0.6150 -0.7155  1.6062
 4449TIP3    H234839   4.364   5.424  16.893  0.5823  0.9784  1.7421
 4450TIP3   OH234840   4.161   2.623  11.922  0.4849 -0.6621  0.2084
 4450TIP3    H134841   4.175   2.552  11.859  0.4136 -0.4298 -0.0758
 4450TIP3    H234842   4.068   2.644  11.912  1.0588  1.3509 -1.7625
 4451TIP3   OH234843   4.593   4.373  17.351  0.4419 -0.1572  0.2665
 4451TIP3    H134844   4.525   4.340  17.292 -0.4355  0.1187  1.0939
 4451TIP3    H234845   4.558   4.357  17.439  0.9400  1.0329  0.6966
 4452TIP3   OH234846   2.782   3.942  13.553  0.5605 -0.0828  0.1907
 4452TIP3    H134847   2.877   3.931  13.555  0.4401 -1.0532  1.3790
 4452TIP3    H234848   2.764   4.013  13.615  0.5946  1.0117 -1.0088
 4453TIP3   OH234849   1.320   1.360   4.198  0.2116  0.3166 -0.5805
 4453TIP3    H134850   1.400   1.309   4.203  0.6588  0.9632 -1.0649
 4453TIP3    H234851   1.318   1.411   4.279  0.0926  0.0119 -0.3923
 4454TIP3   OH234852   4.637   4.949   2.150 -0.1883 -0.1189  0.2327
 4454TIP3    H134853   4.671   4.868   2.113 -0.8916 -0.3591  0.1083
 4454TIP3    H234854   4.545   4.932   2.167 -0.3943  0.7092  0.0307
 4455TIP3   OH234855   3.677   6.396  17.273  0.0868 -0.2381 -0.2368
 4455TIP3    H134856   3.761   6.352  17.258  0.8754  1.4338 -1.0056
 4455TIP3    H234857   3.693   6.487  17.249 -1.0541  0.8363  2.6618
 4456TIP3   OH234858   5.957   5.625  11.810 -0.5210  0.3514  0.1589
 4456TIP3    H134859   5.996   5.568  11.876 -1.8246 -1.9507 -0.9223
 4456TIP3    H234860   6.032   5.669  11.770  0.5440 -0.4678  1.1665
 4457TIP3   OH234861   5.943   6.385   0.774 -0.5108  0.7961 -0.9795
 4457TIP3    H134862   5.985   6.363   0.691  0.1308  0.1293 -0.4923
 4457TIP3    H234863   5.911   6.301   0.808 -2.3828  1.2880 -1.3845
 4458TIP3   OH234864   1.935   0.943  13.308 -0.3405  0.0003 -0.6485
 4458TIP3    H134865   1.889   0.860  13.326 -0.4951  0.2581  0.1852
 4458TIP3    H234866   1.928   0.992  13.390  2.5847 -0.4890 -0.0131
 4459TIP3   OH234867   0.389   4.688   5.719  0.4540  0.2317 -0.0343
 4459TIP3    H134868   0.439   4.652   5.645  2.3058  0.5902  0.9808
 4459TIP3    H234869   0.337   4.614   5.751 -0.9248  0.2334 -2.0553
 4460TIP3   OH234870   2.717   4.003  15.071  0.1184 -0.1614 -0.7704
 4460TIP3    H134871   2.624   4.027  15.076 -0.4713 -1.8971 -2.2396
 4460TIP3    H234872   2.764   4.085  15.089 -1.6584  0.5062  1.1369
 4461TIP3   OH234873   1.730   0.135   1.513 -0.0713 -0.5597 -0.4935
 4461TIP3    H134874   1.816   0.098   1.534  0.0224  0.0372  0.1857
 4461TIP3    H234875   1.670   0.094   1.575 -0.1277 -0.2986 -0.3740
 4462TIP3   OH234876   5.041   3.398   3.592 -0.3583  0.3114  0.3994
 4462TIP3    H134877   5.068   3.487   3.570  1.7597  0.5092  3.3099
 4462TIP3    H234878   5.002   3.405   3.679 -0.1842 -1.5782  0.6724
 4463TIP3   OH234879   4.469   4.313  16.656 -0.2904  0.1556 -0.4414
 4463TIP3    H134880   4.522   4.393  16.654  0.3789 -0.2255  0.7051
 4463TIP3    H234881   4.389   4.336  16.609 -0.5405  1.8323  0.6887
 4464TIP3   OH234882   6.308   1.260   5.674  0.3621 -0.3206 -0.7650
 4464TIP3    H134883   6.390   1.228   5.636  0.8474 -1.7451  1.3366
 4464TIP3    H234884   6.240   1.209   5.632  0.3315  1.7029 -3.4305
 4465TIP3   OH234885   4.096   4.490   4.502  0.2278  0.4078 -0.4964
 4465TIP3    H134886   4.134   4.402   4.496  0.2474  0.4071 -0.3480
 4465TIP3    H234887   4.126   4.523   4.586  0.5708  0.7201 -0.7402
 4466TIP3   OH234888   4.249   2.940   0.730  0.3442  0.2592  0.1334
 4466TIP3    H134889   4.156   2.942   0.709  0.3733  2.4776 -0.0710
 4466TIP3    H234890   4.292   2.920   0.647  0.0626 -0.8140  0.2377
 4467TIP3   OH234891   6.686   6.508  14.934 -0.1289  0.1785 -0.0367
 4467TIP3    H134892   6.711   6.440  14.996  0.6391 -1.1957 -1.7754
 4467TIP3    H234893   6.734   6.586  14.963  0.8204 -0.6428  0.6502
 4468TIP3   OH234894   5.192   4.379  11.718  0.2979 -0.3881 -0.0401
 4468TIP3    H134895   5.286   4.390  11.706  0.1760 -0.5402 -1.2487
 4468TIP3    H234896   5.171   4.431  11.796  1.1789  0.6635 -0.4795
 4469TIP3   OH234897   6.392   2.546  11.480 -0.1706  0.2097  0.4183
 4469TIP3    H134898   6.428   2.536  11.392  0.1985  0.9192  0.4802
 4469TIP3    H234899   6.466   2.576  11.533 -0.8004  1.5488  0.5794
 4470TIP3   OH234900   5.268   0.379   4.253 -0.2081 -0.4156  0.2915
 4470TIP3    H134901   5.196   0.386   4.316  0.2294  1.1803  0.6655
 4470TIP3    H234902   5.234   0.324   4.183 -1.3052 -0.8146  1.1156
 4471TIP3   OH234903   5.617   5.465  15.647  0.1202 -0.1346  0.7119
 4471TIP3    H134904   5.631   5.558  15.627 -0.5658 -0.3050 -0.6873
 4471TIP3    H234905   5.705   5.427  15.648  0.3208  0.3058  0.0909
 4472TIP3   OH234906   4.341   3.749  14.363 -1.0003  0.1773  0.4690
 4472TIP3    H134907   4.411   3.684  14.359  0.4657  1.7250 -0.2799
 4472TIP3    H234908   4.346   3.786  14.451 -1.4959 -0.3513  0.7232
 4473TIP3   OH234909   1.963   2.896  13.928  0.3441  0.6488 -0.3998
 4473TIP3    H134910   1.975   2.959  13.999  0.6489  1.2530 -0.9756
 4473TIP3    H234911   1.870   2.875  13.930  0.3639  0.6046  0.2237
 4474TIP3   OH234912   2.578   4.675  12.106 -0.3116 -0.2170  0.3996
 4474TIP3    H134913   2.547   4.607  12.166 -0.7476 -0.1731  0.2312
 4474TIP3    H234914   2.539   4.755  12.140  0.4456 -0.0068  0.7687
 4475TIP3   OH234915   0.915   1.136   6.522  0.0505  0.0170 -0.8484
 4475TIP3    H134916   0.981   1.194   6.485 -0.8965  2.0209  0.4198
 4475TIP3    H234917   0.870   1.189   6.587 -2.1503 -1.5836 -0.9401
 4476TIP3   OH234918   0.297   5.769   2.101 -0.1613  0.4581  1.0190
 4476TIP3    H134919   0.203   5.750   2.093 -0.3569  1.2544  1.2757
 4476TIP3    H234920   0.340   5.704   2.046 -0.9215  0.5518  0.2920
 4477TIP3   OH234921   6.708   6.180  16.660  0.0327  0.4585 -0.3111
 4477TIP3    H134922   6.741   6.094  16.685  0.9399  1.0688  0.7140
 4477TIP3    H234923   6.785   6.226  16.626 -0.2685  1.1082 -0.1297
 4478TIP3   OH234924   5.591   1.950   0.552 -0.4531 -0.2114  0.5395
 4478TIP3    H134925   5.536   2.015   0.508  1.7000  0.5053 -1.2753
 4478TIP3    H234926   5.540   1.869   0.548 -0.9482  0.1196 -2.2294
 4479TIP3   OH234927   4.852   5.434  12.053  0.0725 -0.5601  0.0795
 4479TIP3    H134928   4.855   5.351  12.006 -1.8504 -1.0913  0.8273
 4479TIP3    H234929   4.782   5.484  12.011  0.5948  0.3354  0.2309
 4480TIP3   OH234930   2.797   4.014  11.804  0.4893 -0.0348 -0.0405
 4480TIP3    H134931   2.777   4.046  11.892  0.1891  1.6962 -0.6932
 4480TIP3    H234932   2.793   3.919  11.812 -0.7104  0.0957  1.5484
 4481TIP3   OH234933   0.546   1.863  11.876 -0.1743  0.7712  0.4347
 4481TIP3    H134934   0.554   1.919  11.798  1.1192  0.4865  0.3382
 4481TIP3    H234935   0.624   1.883  11.928  0.1291 -0.6592  0.5709
 4482TIP3   OH234936   1.493   2.222   0.546  0.0667  0.2783 -0.2339
 4482TIP3    H134937   1.441   2.272   0.483 -0.9403 -0.4796 -0.0329
 4482TIP3    H234938   1.442   2.142   0.561 -0.5812  1.1345  2.7584
 4483TIP3   OH234939   0.415   3.829   5.482  0.4329 -0.2233  0.6075
 4483TIP3    H134940   0.493   3.820   5.537  0.2454 -1.3281  0.7073
 4483TIP3    H234941   0.375   3.743   5.483 -0.4782  0.1841  0.0731
 4484TIP3   OH234942   4.505   4.303   0.770  0.0993 -0.1336  0.6880
 4484TIP3    H134943   4.484   4.214   0.741 -0.7570  0.4736 -0.6182
 4484TIP3    H234944   4.593   4.319   0.737 -0.6483  0.3449 -1.1947
 4485TIP3   OH234945   4.586   6.536  16.854  0.2852 -0.4775 -0.5605
 4485TIP3    H134946   4.630   6.591  16.788 -0.3530  0.2010 -0.4399
 4485TIP3    H234947   4.592   6.587  16.935 -0.0958 -0.7010 -0.3890
 4486TIP3   OH234948   6.496   4.729  11.908 -0.1618 -0.0562  0.0295
 4486TIP3    H134949   6.587   4.743  11.885 -0.1591 -0.2355 -0.0724
 4486TIP3    H234950   6.447   4.763  11.833 -0.1921  0.3751  0.2428
 4487TIP3   OH234951   4.370   0.191  14.509  0.2013  0.5865 -0.1803
 4487TIP3    H134952   4.445   0.166  14.456 -0.9826  2.1055 -2.7619
 4487TIP3    H234953   4.387   0.281  14.536  0.7261 -0.1177  2.0511
 4488TIP3   OH234954   5.319   5.120   2.244 -0.0805  0.6468  0.4542
 4488TIP3    H134955   5.291   5.029   2.235  0.9958  0.4392 -1.4388
 4488TIP3    H234956   5.238   5.170   2.240 -0.5644 -0.1530 -0.3036
 4489TIP3   OH234957   0.073   6.152   4.768  0.1558  0.7666  0.0739
 4489TIP3    H134958   0.013   6.145   4.843  1.5678 -0.2346  1.1757
 4489TIP3    H234959   0.049   6.078   4.711 -0.9187  1.5260 -0.4960
 4490TIP3   OH234960   0.915   2.480  14.516  0.0329 -0.1466  0.2487
 4490TIP3    H134961   0.991   2.443  14.562  2.3167 -0.9114 -3.6622
 4490TIP3    H234962   0.940   2.570  14.496  0.5059 -0.7225 -2.0035
 4491TIP3   OH234963   5.796   0.844   4.286 -1.1642  0.4578 -0.1130
 4491TIP3    H134964   5.857   0.908   4.323 -0.2928  0.8667 -2.1011
 4491TIP3    H234965   5.767   0.792   4.361  1.1389  0.6759  1.0340
 4492TIP3   OH234966   4.539   4.786  13.622  0.0061 -0.1556  0.5722
 4492TIP3    H134967   4.461   4.745  13.659 -0.0509  0.5914  1.2975
 4492TIP3    H234968   4.515   4.806  13.532 -0.3029 -0.7987  0.5034
 4493TIP3   OH234969   4.212   6.193   2.719 -0.0771 -0.2683  0.6944
 4493TIP3    H134970   4.260   6.267   2.683  1.8466 -1.3760  0.8724
 4493TIP3    H234971   4.175   6.226   2.801  0.4159  0.5996  0.5734
 4494TIP3   OH234972   3.362   5.804   3.000  0.4038  0.0502 -0.5722
 4494TIP3    H134973   3.424   5.737   2.971  0.2514 -0.5903  0.5559
 4494TIP3    H234974   3.413   5.862   3.055 -0.0156 -0.5863  0.5175
 4495TIP3   OH234975   1.568   0.966  11.709  0.5235 -0.8428 -0.7427
 4495TIP3    H134976   1.597   0.921  11.788  0.1447  0.8594  0.4218
 4495TIP3    H234977   1.474   0.951  11.705  0.3912 -0.1491 -0.3335
 4496TIP3   OH234978   0.975   3.252   4.122 -0.1176  0.3031 -0.2018
 4496TIP3    H134979   0.949   3.344   4.117  0.1844  0.3136 -2.3283
 4496TIP3    H234980   1.038   3.241   4.051  0.1107 -1.4748  0.2401
 4497TIP3   OH234981   4.414   3.126   3.816  0.0160 -0.6206  0.1051
 4497TIP3    H134982   4.341   3.117   3.755  0.4209 -2.6514 -0.1640
 4497TIP3    H234983   4.428   3.220   3.823 -2.4888 -0.1725  0.0446
 4498TIP3   OH234984   2.961   4.646  14.176 -0.5546 -0.1645  0.5567
 4498TIP3    H134985   2.902   4.641  14.100 -0.0996  0.7932  0.1281
 4498TIP3    H234986   3.045   4.614  14.143  0.7045  3.7439 -0.4834
 4499TIP3   OH234987   0.175   0.508  15.764  0.0215  0.4435  0.1972
 4499TIP3    H134988   0.254   0.462  15.790 -0.6547 -0.5553  0.5669
 4499TIP3    H234989   0.205   0.592  15.731  1.0979  0.7962  1.9854
 4500TIP3   OH234990   3.446   3.623   1.514 -0.0791  0.3381  1.0012
 4500TIP3    H134991   3.446   3.670   1.598 -0.2840 -0.7109  1.5960
 4500TIP3    H234992   3.472   3.690   1.451 -0.1548  1.2126  1.8575
 4501TIP3   OH234993   5.398   1.095  17.023  0.2019 -0.3053 -0.4930
 4501TIP3    H134994   5.340   1.078  16.949 -0.9040  1.3059 -0.0630
 4501TIP3    H234995   5.477   1.044  17.005 -1.5744 -3.1579 -0.7636
 4502TIP3   OH234996   1.577   6.396   4.468 -0.2172 -0.1928 -0.2843
 4502TIP3    H134997   1.499   6.449   4.456 -0.4108  0.6391  3.5472
 4502TIP3    H234998   1.544   6.308   4.487  0.0037 -0.8267 -2.5035
 4503TIP3   OH234999   3.468   5.875  10.469 -0.3611  0.2729 -0.1932
 4503TIP3    H135000   3.457   5.960  10.512  0.7615 -0.7904  2.4072
 4503TIP3    H235001   3.465   5.811  10.540  0.8301 -1.7161 -1.8026
 4504TIP3   OH235002   0.637   4.168  16.011  0.3183  0.1718  0.2756
 4504TIP3    H135003   0.680   4.112  16.075  0.8283  0.1773 -0.0572
 4504TIP3    H235004   0.608   4.244  16.061 -0.8126 -0.6004  0.8238
 4505TIP3   OH235005   2.918   0.763   4.255  0.0078  0.7645  0.2172
 4505TIP3    H135006   2.848   0.710   4.293 -0.8077  1.2400 -0.5761
 4505TIP3    H235007   2.996   0.736   4.302 -0.3594 -1.2072 -0.1902
 4506TIP3   OH235008   1.240   1.965   3.805  0.0779 -0.7775 -0.0853
 4506TIP3    H135009   1.162   1.961   3.748  0.3662  0.1609 -0.5694
 4506TIP3    H235010   1.285   1.882   3.789 -0.8540 -1.3740  0.2590
 4507TIP3   OH235011   2.030   4.115  13.457 -0.1150 -0.0481  0.5963
 4507TIP3    H135012   2.075   4.176  13.516  1.8647 -1.1753  0.3273
 4507TIP3    H235013   2.017   4.165  13.377  1.1588  0.1738  0.5029
 4508TIP3   OH235014   6.092   5.569  16.855 -0.1755 -0.1270  0.5074
 4508TIP3    H135015   6.185   5.551  16.867  0.1337  1.3080  0.4615
 4508TIP3    H235016   6.067   5.616  16.934 -0.9095 -0.6208  0.5804
 4509TIP3   OH235017   0.392   0.802  16.822 -0.0076  0.2680  0.3342
 4509TIP3    H135018   0.319   0.852  16.859  0.4466 -0.5279  2.4518
 4509TIP3    H235019   0.469   0.836  16.868  0.8306  0.3924 -1.1313
 4510TIP3   OH235020   1.392   2.172   3.470  0.1007 -0.4364 -0.3439
 4510TIP3    H135021   1.347   2.251   3.498  0.8270 -1.0529  2.9220
 4510TIP3    H235022   1.326   2.124   3.420 -1.4541  0.6752  0.5560
 4511TIP3   OH235023   3.261   0.526  16.721 -0.4591  0.6492  0.4126
 4511TIP3    H135024   3.246   0.535  16.627  1.2322 -0.2689  0.0285
 4511TIP3    H235025   3.230   0.438  16.742  2.0352 -0.3884  0.0475
 4512TIP3   OH235026   0.737   4.779   2.703 -0.3875  0.2177 -0.1434
 4512TIP3    H135027   0.739   4.796   2.608  1.4143  3.3825  0.3030
 4512TIP3    H235028   0.747   4.684   2.711  1.4620  0.0445 -3.1080
 4513TIP3   OH235029   3.811   4.081   2.600 -0.0608 -0.0251  0.7840
 4513TIP3    H135030   3.876   4.107   2.665 -0.0298  1.3689  0.2232
 4513TIP3    H235031   3.848   4.108   2.516 -0.5963 -0.8028  0.2846
 4514TIP3   OH235032   2.527   4.565   5.026 -0.1713  0.3942  0.3017
 4514TIP3    H135033   2.533   4.658   5.004 -2.0714  1.2562  2.8385
 4514TIP3    H235034   2.560   4.559   5.115 -0.7681 -1.2231  0.4617
 4515TIP3   OH235035   6.531   1.476   3.468 -0.2117 -0.1538  0.0309
 4515TIP3    H135036   6.525   1.456   3.562 -0.2395 -1.6909 -0.2690
 4515TIP3    H235037   6.533   1.390   3.426  1.6246  0.4947 -1.2858
 4516TIP3   OH235038   4.555   1.580   1.783 -0.0163 -0.2675  0.3455
 4516TIP3    H135039   4.576   1.660   1.736 -0.8553 -0.3493 -0.1963
 4516TIP3    H235040   4.526   1.609   1.870  0.8564 -0.0708  0.5777
 4517TIP3   OH235041   1.971   0.894   4.231  0.0665 -0.1918 -0.7015
 4517TIP3    H135042   1.917   0.854   4.163 -0.6281 -0.6693  0.1280
 4517TIP3    H235043   2.055   0.911   4.187 -0.9522  1.2212 -2.2083
 4518TIP3   OH235044   3.017   0.838  16.903 -0.5189  0.0718  0.0282
 4518TIP3    H135045   3.040   0.776  16.834  0.1494  0.3567 -0.0106
 4518TIP3    H235046   3.037   0.792  16.984  0.9956  0.6071 -0.0159
 4519TIP3   OH235047   1.423   0.242  10.910  0.5776 -0.5748  0.0935
 4519TIP3    H135048   1.349   0.280  10.957 -0.0665 -0.6944 -0.7944
 4519TIP3    H235049   1.392   0.155  10.884  1.1925 -0.7934  0.0880
 4520TIP3   OH235050   5.422   5.998  14.705 -0.8368  0.6488  0.0289
 4520TIP3    H135051   5.402   6.092  14.699 -1.1161  0.5841 -0.0327
 4520TIP3    H235052   5.518   5.994  14.703 -0.7573  1.0613  1.6368
 4521TIP3   OH235053   2.500   3.688  14.417  0.1473  0.5098  0.4089
 4521TIP3    H135054   2.566   3.757  14.417  0.1728  0.4862  0.2642
 4521TIP3    H235055   2.477   3.677  14.325 -1.0381  1.4419  0.5769
 4522TIP3   OH235056   4.093   4.198   0.298 -0.2017 -0.0079 -0.2781
 4522TIP3    H135057   4.113   4.153   0.380 -2.5601  0.1214  0.4330
 4522TIP3    H235058   4.102   4.291   0.320 -0.9699  0.0314 -0.1077
 4523TIP3   OH235059   2.984   1.973  13.872 -0.1474 -0.1765 -0.0213
 4523TIP3    H135060   2.899   1.949  13.837 -0.3706  0.1816  0.2674
 4523TIP3    H235061   3.047   1.948  13.804 -0.6084  0.9584 -0.8934
 4524TIP3   OH235062   1.081   0.901  12.153  0.0967 -1.0395 -0.4292
 4524TIP3    H135063   1.093   0.949  12.235 -1.9752 -1.5063  0.2101
 4524TIP3    H235064   1.123   0.955  12.087 -0.6539  0.7997  0.5326
 4525TIP3   OH235065   0.063   6.751  11.861 -0.2759 -0.0588 -0.5935
 4525TIP3    H135066   0.122   6.700  11.916  0.2932 -0.3987 -1.5164
 4525TIP3    H235067   0.009   6.686  11.817 -0.9162  0.2252 -0.2543
 4526TIP3   OH235068   6.413   1.755   3.447 -0.1293  0.6782  0.5490
 4526TIP3    H135069   6.470   1.802   3.508  1.5535  0.0692 -0.4977
 4526TIP3    H235070   6.432   1.662   3.462 -0.3075  0.4904 -0.3289
 4527TIP3   OH235071   6.402   5.830  16.538 -0.7080  0.0800  0.6284
 4527TIP3    H135072   6.412   5.832  16.633 -1.4070  2.1473  0.7251
 4527TIP3    H235073   6.477   5.781  16.506  0.0433  0.1551  2.1986
 4528TIP3   OH235074   0.471   3.728  16.226 -0.0406  0.7628  0.2461
 4528TIP3    H135075   0.427   3.670  16.289  0.5500  0.7660  0.6663
 4528TIP3    H235076   0.539   3.771  16.277  1.3228 -0.2147 -0.6910
 4529TIP3   OH235077   6.497   2.560  15.486 -0.3598  0.6081 -0.2863
 4529TIP3    H135078   6.472   2.596  15.401 -0.8822 -0.7027 -0.7115
 4529TIP3    H235079   6.535   2.474  15.466  1.1028  0.9753  0.6690
 4530TIP3   OH235080   4.984   5.813  16.461 -0.2076 -0.3671  0.2629
 4530TIP3    H135081   4.944   5.887  16.415  1.0987  0.0750 -0.2127
 4530TIP3    H235082   4.911   5.768  16.503 -0.8932  2.3014  2.2322
 4531TIP3   OH235083   4.056   2.336  14.708 -0.5397  0.2660  0.1017
 4531TIP3    H135084   4.082   2.284  14.784 -0.6023 -0.8070 -0.5774
 4531TIP3    H235085   4.011   2.412  14.745  1.2848  0.8765  1.1955
 4532TIP3   OH235086   2.390   1.754   5.963  0.4286  0.3128  0.5732
 4532TIP3    H135087   2.396   1.846   5.987  0.0386  0.4961 -0.0142
 4532TIP3    H235088   2.426   1.750   5.874  0.6941 -0.1444  0.7002
 4533TIP3   OH235089   6.177   5.218   6.457  0.6499 -0.2168 -0.0013
 4533TIP3    H135090   6.092   5.183   6.483 -0.1022  0.9408 -0.8219
 4533TIP3    H235091   6.189   5.295   6.513  0.1860  0.8121 -1.2730
 4534TIP3   OH235092   1.423   2.272   4.115  0.6818  0.0912 -0.1463
 4534TIP3    H135093   1.458   2.201   4.063  0.3325 -0.8571  0.8618
 4534TIP3    H235094   1.500   2.317   4.150  1.1126 -2.7556  3.1197
 4535TIP3   OH235095   2.092   0.089   5.590  0.2243 -0.9832  0.3905
 4535TIP3    H135096   2.112   0.090   5.496 -0.3957  0.0720  0.2584
 4535TIP3    H235097   2.018   0.148   5.600 -0.1955 -1.6542  1.4567
 4536TIP3   OH235098   5.063   0.759   1.000 -0.3137  0.1230 -0.6831
 4536TIP3    H135099   5.140   0.769   0.943 -0.4284  2.0975 -0.5795
 4536TIP3    H235100   5.010   0.837   0.982 -1.9521 -0.8172 -0.2078
 4537TIP3   OH235101   0.556   1.262  17.237 -0.0145 -0.2170 -0.0767
 4537TIP3    H135102   0.625   1.218  17.286  0.9038 -0.9808 -1.9550
 4537TIP3    H235103   0.479   1.207  17.251  0.0417 -0.0278  1.0589
 4538TIP3   OH235104   1.271   6.286   4.042  0.2047 -0.4904  0.3422
 4538TIP3    H135105   1.221   6.227   3.987 -1.0156 -0.2844  1.1981
 4538TIP3    H235106   1.320   6.229   4.102  3.1571 -0.8364 -2.1461
 4539TIP3   OH235107   2.089   3.044   2.451 -0.0478  0.2042 -0.2086
 4539TIP3    H135108   2.058   3.033   2.541 -1.6582  0.4315 -0.7127
 4539TIP3    H235109   2.062   2.963   2.407  2.5281 -0.8496 -0.0711
 4540TIP3   OH235110   1.386   3.504  12.075  0.3085 -0.2230 -0.7779
 4540TIP3    H135111   1.316   3.517  12.139 -0.1783 -0.9744 -1.1406
 4540TIP3    H235112   1.413   3.593  12.051  0.0968  0.0650  0.0304
 4541TIP3   OH235113   2.777   5.451  16.767 -0.0771 -0.2592  0.1740
 4541TIP3    H135114   2.758   5.385  16.834  1.8422  1.1591  2.3053
 4541TIP3    H235115   2.804   5.528  16.817  1.6241  0.8528 -2.2436
 4542TIP3   OH235116   1.404   6.517  16.347  0.0398  0.5626  0.4450
 4542TIP3    H135117   1.406   6.543  16.255 -0.7607  3.7416  1.2016
 4542TIP3    H235118   1.488   6.474  16.362  0.4556  0.5815 -1.5865
 4543TIP3   OH235119   3.677   0.583  17.494 -0.2448  0.9296 -0.4592
 4543TIP3    H135120   3.691   0.504  17.547 -2.9111  1.0297  0.5563
 4543TIP3    H235121   3.749   0.583  17.431  0.3697 -1.7962  0.1213
 4544TIP3   OH235122   6.167   3.385   3.417 -0.6552 -0.0137 -0.0391
 4544TIP3    H135123   6.082   3.359   3.382 -0.9663  1.1707 -0.1808
 4544TIP3    H235124   6.226   3.314   3.390 -1.1351  0.2344 -1.8988
 4545TIP3   OH235125   6.451   3.586   0.594  0.1438  0.2803  0.2612
 4545TIP3    H135126   6.369   3.603   0.640 -0.2271  0.0105 -0.2776
 4545TIP3    H235127   6.479   3.501   0.625  0.3537  0.4854  0.6349
 4546TIP3   OH235128   0.158   2.326  14.278  0.5573 -0.6248 -0.4715
 4546TIP3    H135129   0.087   2.312  14.215  1.4785 -0.9669 -1.4547
 4546TIP3    H235130   0.201   2.406  14.250  1.3404 -1.0918 -0.6368
 4547TIP3   OH235131   5.439   4.936  17.131  0.2566 -0.3963 -0.2926
 4547TIP3    H135132   5.461   4.862  17.075 -0.4841  0.0829 -1.2590
 4547TIP3    H235133   5.515   4.994  17.127  0.9384 -1.1914  0.6625
 4548TIP3   OH235134   6.650   0.538  12.677  0.7180 -0.3198  0.0658
 4548TIP3    H135135   6.703   0.553  12.598  1.0985  1.6639  0.6447
 4548TIP3    H235136   6.708   0.488  12.735  0.8504 -0.7840 -0.4533
 4549TIP3   OH235137   2.163   1.220  14.869  0.0614 -0.0190  0.2181
 4549TIP3    H135138   2.182   1.276  14.944  1.4670  0.6460 -0.5866
 4549TIP3    H235139   2.174   1.131  14.902  1.2559  0.2736  0.6827
 4550TIP3   OH235140   1.470   3.522   3.388 -0.6461  0.6844  0.5786
 4550TIP3    H135141   1.422   3.605   3.394 -1.0909  0.3822  1.2394
 4550TIP3    H235142   1.455   3.479   3.472  1.0880  0.7483  0.9565
 4551TIP3   OH235143   5.768   0.445  15.303  0.0531  0.3728 -0.6809
 4551TIP3    H135144   5.732   0.488  15.381  0.1365  1.4053 -1.2017
 4551TIP3    H235145   5.849   0.493  15.284  1.1961 -1.2497 -0.1492
 4552TIP3   OH235146   0.450   3.208  11.996 -0.0518 -0.5841 -0.1190
 4552TIP3    H135147   0.442   3.242  12.085  0.0566  1.3676 -0.8005
 4552TIP3    H235148   0.520   3.144  12.001  2.4320  1.9518  0.6011
 4553TIP3   OH235149   5.291   4.393  15.740  0.1430  0.5968  0.3197
 4553TIP3    H135150   5.205   4.423  15.708  0.2338  0.5080 -0.0155
 4553TIP3    H235151   5.354   4.440  15.685  0.3614  2.0270  1.7401
 4554TIP3   OH235152   4.714   0.074  14.686  0.2287 -0.4668 -0.4733
 4554TIP3    H135153   4.728   0.165  14.662 -1.0501  0.5923  2.3637
 4554TIP3    H235154   4.802   0.036  14.688  1.0499  1.3517  0.4413
 4555TIP3   OH235155   2.001   4.712  13.183  0.2009 -0.2546  0.3107
 4555TIP3    H135156   1.917   4.735  13.145  0.6330  0.1000 -0.4439
 4555TIP3    H235157   1.990   4.622  13.214  0.1667 -0.9616 -1.6417
 4556TIP3   OH235158   0.346   6.741  11.479 -0.4020 -0.1446  0.2604
 4556TIP3    H135159   0.345   6.659  11.529  1.8328 -0.3599  0.0324
 4556TIP3    H235160   0.310   6.717  11.394 -0.6026 -0.6849  0.4881
 4557TIP3   OH235161   2.471   5.027  13.713 -0.0326  0.1255  0.2290
 4557TIP3    H135162   2.558   5.052  13.744 -0.0870 -1.6668  2.0096
 4557TIP3    H235163   2.447   4.952  13.766 -1.9462 -0.5523 -1.4645
 4558TIP3   OH235164   3.416   5.643  13.212  0.0668 -0.1299  0.0827
 4558TIP3    H135165   3.355   5.711  13.184 -1.0907 -1.7837 -1.6794
 4558TIP3    H235166   3.498   5.689  13.225 -0.7270  1.6633 -0.8021
 4559TIP3   OH235167   3.284   5.392  13.354 -0.3497  0.2716  0.3870
 4559TIP3    H135168   3.339   5.467  13.330 -1.3699  1.2004  0.8607
 4559TIP3    H235169   3.346   5.322  13.375  0.6963  1.5847  1.8908
 4560TIP3   OH235170   2.917   5.359   1.295 -0.1176  0.0490 -0.4728
 4560TIP3    H135171   2.838   5.404   1.267 -0.3175  0.9334  1.3605
 4560TIP3    H235172   2.959   5.419   1.356  0.8976 -1.2554  0.1814
 4561TIP3   OH235173   3.975   1.303  13.599 -0.3686 -0.4853 -0.3590
 4561TIP3    H135174   4.005   1.361  13.669 -1.5851  0.0425 -0.2595
 4561TIP3    H235175   3.985   1.215  13.635 -2.6925 -0.1896  1.2488
 4562TIP3   OH235176   5.718   0.800   6.277  0.2205  0.1510  0.2980
 4562TIP3    H135177   5.630   0.775   6.304 -0.4001 -0.1328 -1.7987
 4562TIP3    H235178   5.715   0.895   6.269 -0.6092  0.0011 -1.8481
 4563TIP3   OH235179   0.368   5.268   1.422  0.4945 -0.4928 -0.5331
 4563TIP3    H135180   0.293   5.236   1.371 -1.5001  0.3200  1.7169
 4563TIP3    H235181   0.409   5.190   1.457 -2.2699 -0.9370  2.1010
 4564TIP3   OH235182   3.989   5.841   5.938  0.4144  0.3173  0.6611
 4564TIP3    H135183   3.952   5.902   5.874  1.0253  0.0719  0.0579
 4564TIP3    H235184   4.050   5.787   5.887 -0.4959 -1.1513  1.0748
 4565TIP3   OH235185   1.307   1.336  14.608  0.0509 -0.1383  0.1718
 4565TIP3    H135186   1.222   1.379  14.599 -1.2306 -1.8391  2.8758
 4565TIP3    H235187   1.361   1.399  14.654 -0.0802  0.5360 -0.5784
 4566TIP3   OH235188   5.014   2.205  13.658 -0.5987  0.4679 -0.3187
 4566TIP3    H135189   5.082   2.225  13.595  0.6929  0.2402  0.9577
 4566TIP3    H235190   4.959   2.283  13.661  1.0827  1.6624  0.4479
 4567TIP3   OH235191   4.548   5.466   2.977  0.1672 -0.3084  0.5667
 4567TIP3    H135192   4.507   5.410   3.042 -1.6700  1.2703  0.8800
 4567TIP3    H235193   4.479   5.481   2.911  1.4230 -0.4676 -0.8280
 4568TIP3   OH235194   4.212   1.895   5.864 -0.2295  0.0434 -0.0686
 4568TIP3    H135195   4.181   1.871   5.777  0.1024  0.0632 -0.1918
 4568TIP3    H235196   4.241   1.985   5.856 -0.0787  0.0046  0.0324
 4569TIP3   OH235197   1.529   6.074   0.411  0.3271 -0.4488  0.2251
 4569TIP3    H135198   1.465   6.064   0.340 -0.2186 -0.6598  0.7365
 4569TIP3    H235199   1.514   6.162   0.445  0.7508 -0.2597 -0.0798
 4570TIP3   OH235200   5.331   0.452  15.084 -0.4372 -0.0528 -0.3022
 4570TIP3    H135201   5.236   0.465  15.090 -1.0087 -3.2202 -0.6832
 4570TIP3    H235202   5.344   0.360  15.108  2.6493  0.4472  0.3638
 4571TIP3   OH235203   3.820   4.998  16.698 -0.3254  0.6881  0.2113
 4571TIP3    H135204   3.805   5.091  16.714 -1.7767  0.5928 -0.5218
 4571TIP3    H235205   3.755   4.973  16.633 -0.3853 -0.9984  0.8673
 4572TIP3   OH235206   6.526   4.428   0.279  0.1365  0.4600 -0.0810
 4572TIP3    H135207   6.473   4.396   0.206 -0.9629  1.2650  0.3375
 4572TIP3    H235208   6.563   4.349   0.319 -1.4628 -0.2066  0.1418
 4573TIP3   OH235209   2.787   5.244  16.019 -0.4387  0.7972  0.0308
 4573TIP3    H135210   2.761   5.248  16.111 -1.3768  1.4281 -0.2510
 4573TIP3    H235211   2.873   5.286  16.017  0.2091 -0.4320  0.8150
 4574TIP3   OH235212   5.943   5.446   3.370 -0.5862  0.0662 -0.2643
 4574TIP3    H135213   5.886   5.524   3.370 -0.7934 -0.0457  1.0818
 4574TIP3    H235214   6.003   5.460   3.297 -2.6349 -0.0498 -2.0656
 4575TIP3   OH235215   0.911   2.616   5.295 -0.0944  0.1407  0.3297
 4575TIP3    H135216   0.865   2.693   5.261 -1.0750 -1.2331 -1.6702
 4575TIP3    H235217   0.925   2.560   5.218 -0.1813 -2.0678  1.8208
 4576TIP3   OH235218   2.953   0.800  15.753 -0.4005 -0.2530  0.4775
 4576TIP3    H135219   2.872   0.796  15.703 -1.8520  0.7383  2.5953
 4576TIP3    H235220   2.967   0.711  15.785 -0.7367 -0.3941  0.2290
 4577TIP3   OH235221   2.629   2.638   1.280  0.1144  0.1403  0.3038
 4577TIP3    H135222   2.553   2.624   1.224  0.2175  1.0901 -0.0946
 4577TIP3    H235223   2.687   2.564   1.260 -0.6312 -0.5105  0.5041
 4578TIP3   OH235224   1.683   1.285   0.900 -0.1403 -0.1903  0.2195
 4578TIP3    H135225   1.631   1.259   0.824 -0.0104 -0.5251  0.2460
 4578TIP3    H235226   1.680   1.381   0.899  1.4355 -0.0958 -1.3173
 4579TIP3   OH235227   5.485   4.130  11.293 -0.0726 -0.1275 -0.3412
 4579TIP3    H135228   5.433   4.159  11.218 -1.1404  1.8255  1.0589
 4579TIP3    H235229   5.549   4.199  11.306  3.4999 -2.7097 -2.3614
 4580TIP3   OH235230   0.706   4.678  13.441 -0.5211 -0.2749  0.0325
 4580TIP3    H135231   0.775   4.700  13.379 -1.0720  0.1467 -0.4463
 4580TIP3    H235232   0.625   4.685  13.390 -1.1346  1.6701  1.1353
 4581TIP3   OH235233   5.445   2.745  16.886  0.0882  0.8123  0.8866
 4581TIP3    H135234   5.418   2.770  16.797 -1.2105 -0.2517  0.9442
 4581TIP3    H235235   5.511   2.809  16.910  1.6931  0.1664 -1.4712
 4582TIP3   OH235236   1.593   1.824  12.806  0.2326  0.4420  0.0966
 4582TIP3    H135237   1.650   1.812  12.882 -0.7894 -0.4901  0.7509
 4582TIP3    H235238   1.519   1.874  12.839  0.6823  1.7165 -0.7636
 4583TIP3   OH235239   0.617   6.248   2.887 -0.0313  0.0682  0.3701
 4583TIP3    H135240   0.635   6.218   2.798 -2.5863  0.1121 -0.2580
 4583TIP3    H235241   0.632   6.342   2.884  3.4269 -0.3399  1.0654
 4584TIP3   OH235242   5.524   0.512  14.362 -0.2638  0.2473 -0.4320
 4584TIP3    H135243   5.530   0.536  14.455  1.2801 -0.0081 -0.4419
 4584TIP3    H235244   5.469   0.433  14.362  0.1901 -0.0843  0.3342
 4585TIP3   OH235245   0.616   4.271   0.922  0.0162  0.2423 -0.4495
 4585TIP3    H135246   0.604   4.279   0.827 -1.1488 -2.5214 -0.5946
 4585TIP3    H235247   0.531   4.294   0.959 -0.2094 -0.8710 -0.2495
 4586TIP3   OH235248   4.050   0.802  15.196  0.3069  0.2741  0.3533
 4586TIP3    H135249   4.006   0.877  15.237  0.3538  0.5612 -0.1250
 4586TIP3    H235250   4.143   0.821  15.205  0.3155  0.6296 -0.4189
 4587TIP3   OH235251   5.083   5.623  14.997 -0.4037  0.0924  0.0701
 4587TIP3    H135252   5.163   5.588  14.958 -0.6384 -0.4219  0.0354
 4587TIP3    H235253   5.110   5.656  15.083  0.0811  1.0656 -0.4341
 4588TIP3   OH235254   1.498   5.300   3.319 -0.1546 -0.1887  0.2239
 4588TIP3    H135255   1.458   5.237   3.379 -0.1017 -0.2927  0.1496
 4588TIP3    H235256   1.455   5.384   3.341 -2.1826 -0.7046 -1.4526
 4589TIP3   OH235257   6.610   6.187   5.804  0.1433 -0.7699  0.0221
 4589TIP3    H135258   6.663   6.120   5.762 -0.9844 -1.4948 -0.3130
 4589TIP3    H235259   6.608   6.162   5.897  0.4009 -0.7290  0.0383
 4590TIP3   OH235260   0.242   4.140   0.474 -0.8031  0.4477 -0.3358
 4590TIP3    H135261   0.257   4.231   0.450 -0.7128 -0.1801 -3.0341
 4590TIP3    H235262   0.308   4.091   0.425 -0.2722 -1.0520  1.7307
 4591TIP3   OH235263   3.310   5.317  12.674  0.2016  0.3707 -0.3624
 4591TIP3    H135264   3.385   5.311  12.614  0.1586  2.1082 -0.6473
 4591TIP3    H235265   3.344   5.288  12.759  1.2881  1.4201 -0.4258
 4592TIP3   OH235266   5.225   1.870   0.098 -0.1682  0.2206 -0.3354
 4592TIP3    H135267   5.209   1.958   0.066  0.0054  0.3626 -0.0290
 4592TIP3    H235268   5.253   1.821   0.020  1.3423  0.8317 -0.1921
 4593TIP3   OH235269   2.215   3.219   1.347  0.0110 -0.3782 -0.0401
 4593TIP3    H135270   2.192   3.145   1.404  0.1739 -1.5128 -1.3979
 4593TIP3    H235271   2.134   3.270   1.341 -0.7195 -1.5883 -0.7490
 4594TIP3   OH235272   2.138   6.159  12.451 -0.2342  0.2200  0.4517
 4594TIP3    H135273   2.071   6.199  12.506  0.1101  1.1245  0.2297
 4594TIP3    H235274   2.090   6.098  12.395 -1.1477  2.0246 -0.8373
 4595TIP3   OH235275   3.015   3.949  11.084  0.2627 -0.1309  0.6515
 4595TIP3    H135276   3.045   3.908  11.002  2.0577  0.8635  0.7538
 4595TIP3    H235277   2.937   3.998  11.058  0.6314 -0.0641 -0.4044
 4596TIP3   OH235278   0.946   4.349   2.020  0.3004  0.6911 -0.1699
 4596TIP3    H135279   0.880   4.280   2.025  1.9136 -1.0068 -0.8906
 4596TIP3    H235280   0.978   4.358   2.110 -0.8281  1.4862  0.1729
 4597TIP3   OH235281   1.035   3.162  13.120 -0.1513 -0.2173 -0.6375
 4597TIP3    H135282   1.048   3.240  13.066 -0.5743 -0.0644 -0.5179
 4597TIP3    H235283   1.117   3.153  13.169  0.4937 -0.7199 -1.7591
 4598TIP3   OH235284   5.410   4.746  16.404 -0.0099 -0.4268 -0.2107
 4598TIP3    H135285   5.390   4.715  16.316 -0.3767 -0.9543  0.0515
 4598TIP3    H235286   5.347   4.816  16.421 -0.4909 -0.8902 -0.0577
 4599TIP3   OH235287   2.134   0.244  17.102 -0.1595  0.8329  0.1193
 4599TIP3    H135288   2.180   0.326  17.119 -1.6110  1.4824  1.1187
 4599TIP3    H235289   2.074   0.264  17.030  1.5644 -0.2294 -1.7435
 4600TIP3   OH235290   2.800   4.091  14.105 -0.0239 -0.1421  0.0534
 4600TIP3    H135291   2.859   4.050  14.167  0.9292  1.5147  0.3122
 4600TIP3    H235292   2.855   4.113  14.030 -0.2966  1.2606  0.2202
 4601TIP3   OH235293   0.521   0.279   3.928 -0.0819  0.0779 -0.3634
 4601TIP3    H135294   0.427   0.264   3.937 -0.2113  0.5798 -0.8196
 4601TIP3    H235295   0.547   0.317   4.012 -0.1438 -0.7192  0.0283
 4602TIP3   OH235296   1.837   4.242  13.774  0.0006 -0.6041  1.0160
 4602TIP3    H135297   1.753   4.208  13.805 -0.6531 -1.3437 -1.3708
 4602TIP3    H235298   1.822   4.335  13.762 -0.7280 -0.8532 -0.0892
 4603TIP3   OH235299   0.616   2.102  11.155  0.2524  0.2991  0.5364
 4603TIP3    H135300   0.703   2.066  11.138  0.9254  0.8195  2.6483
 4603TIP3    H235301   0.570   2.092  11.071  2.1826 -0.3690 -0.5168
 4604TIP3   OH235302   1.718   3.440  12.653  0.7304  0.0238 -0.1331
 4604TIP3    H135303   1.660   3.365  12.665  0.3397  0.7703  4.0701
 4604TIP3    H235304   1.789   3.426  12.716  1.4324  2.4474 -0.2803
 4605TIP3   OH235305   5.321   1.245   0.381  0.0784  0.5397 -0.4240
 4605TIP3    H135306   5.309   1.337   0.355  0.4956  0.7978  0.2627
 4605TIP3    H235307   5.242   1.224   0.431 -0.4538  0.2226 -1.3709
 4606TIP3   OH235308   3.578   4.828   1.166 -1.0532  0.2527 -0.1696
 4606TIP3    H135309   3.640   4.815   1.095 -0.6135  0.7857  0.1105
 4606TIP3    H235310   3.543   4.916   1.152  0.0257  0.9052  1.0154
 4607TIP3   OH235311   4.021   3.664  15.153 -0.0228  0.5358 -0.1066
 4607TIP3    H135312   4.057   3.718  15.223 -1.3529  0.4916  0.6311
 4607TIP3    H235313   4.091   3.603  15.131 -0.1442 -0.6190  2.3885
 4608TIP3   OH235314   2.926   6.107   4.286  0.2572  0.6878  0.3739
 4608TIP3    H135315   2.853   6.106   4.224 -1.1279  1.6075  1.9061
 4608TIP3    H235316   2.927   6.019   4.323 -0.4970  0.8404  0.7806
 4609TIP3   OH235317   3.938   6.535   6.065 -0.7155 -0.0333 -0.6703
 4609TIP3    H135318   3.928   6.451   6.110 -1.1536 -0.8567 -2.2331
 4609TIP3    H235319   3.855   6.580   6.080 -0.1273  0.5584  0.9790
 4610TIP3   OH235320   1.378   3.552   4.530  0.5039 -0.4607 -0.4139
 4610TIP3    H135321   1.345   3.638   4.557  1.7501 -0.1870  0.3490
 4610TIP3    H235322   1.301   3.505   4.499 -0.1170  1.1294 -1.4077
 4611TIP3   OH235323   5.931   4.864   3.491  0.5317  0.6847 -0.1997
 4611TIP3    H135324   5.876   4.915   3.431 -0.1021  0.3041  0.0413
 4611TIP3    H235325   5.871   4.799   3.528  0.4526  2.0421  2.2552
 4612TIP3   OH235326   2.103   0.719  16.455  0.2970  0.4974 -0.5612
 4612TIP3    H135327   2.191   0.754  16.472  0.8866 -1.0160 -0.3640
 4612TIP3    H235328   2.045   0.792  16.476  1.2553  0.4290  3.0477
 4613TIP3   OH235329   5.421   3.891  15.820 -0.4140 -0.6882  0.3163
 4613TIP3    H135330   5.348   3.923  15.873 -0.7220  0.8465 -0.9391
 4613TIP3    H235331   5.493   3.951  15.839 -0.9014  0.7224 -1.8451
 4614TIP3   OH235332   1.061   4.261  12.885 -0.1848  0.0061 -0.0989
 4614TIP3    H135333   1.065   4.246  12.790  1.6217  0.5566 -0.1470
 4614TIP3    H235334   0.993   4.327  12.896  0.5231  0.9687 -1.1854
 4615TIP3   OH235335   0.488   4.906   4.078 -0.0716  0.1994 -0.1209
 4615TIP3    H135336   0.438   4.960   4.140 -0.4151  0.1865 -0.3815
 4615TIP3    H235337   0.421   4.853   4.034  0.3353 -1.0354  0.6951
 4616TIP3   OH235338   4.923   0.521   7.183 -0.0738 -0.7099 -0.0691
 4616TIP3    H135339   4.960   0.585   7.122  1.2701 -1.7342 -0.3639
 4616TIP3    H235340   4.828   0.534   7.176  0.1168  0.3393 -1.1011
 4617TIP3   OH235341   1.155   5.623  14.009 -0.0304 -0.3736 -0.2909
 4617TIP3    H135342   1.164   5.718  14.008  2.1179 -0.5189  0.3596
 4617TIP3    H235343   1.215   5.593  13.940 -0.6080 -1.2633 -0.4155
 4618TIP3   OH235344   2.975   6.189  12.021  0.6147  0.0816  0.4886
 4618TIP3    H135345   2.968   6.227  11.934 -2.1644  3.1492  1.8328
 4618TIP3    H235346   2.939   6.101  12.013 -0.8136  0.7811 -1.2343
 4619TIP3   OH235347   2.696   0.263   5.830  0.2782 -0.4359  0.4063
 4619TIP3    H135348   2.683   0.352   5.863  1.7443 -0.3252  0.7405
 4619TIP3    H235349   2.790   0.255   5.819  0.2764 -2.2839  1.3239
 4620TIP3   OH235350   2.174   3.680   1.693 -0.6077  0.0791 -0.0444
 4620TIP3    H135351   2.113   3.636   1.635 -0.9384  0.3943  0.0557
 4620TIP3    H235352   2.178   3.624   1.771 -0.5997 -0.0533 -0.1402
 4621TIP3   OH235353   4.136   0.997  12.874 -0.2495 -0.4408  0.1485
 4621TIP3    H135354   4.100   1.082  12.852  2.7965  0.9438 -0.0118
 4621TIP3    H235355   4.060   0.942  12.893 -2.3611  1.9563 -0.8995
 4622TIP3   OH235356   3.883   5.863   2.020 -0.1643 -0.3579 -0.5767
 4622TIP3    H135357   3.872   5.902   1.933 -0.9840  1.2355  0.1957
 4622TIP3    H235358   3.846   5.928   2.080  0.2025 -1.5112  0.9547
 4623TIP3   OH235359   5.827   4.335   0.757 -0.3203 -0.5110  0.3551
 4623TIP3    H135360   5.906   4.386   0.774  0.0652 -1.4513  1.4859
 4623TIP3    H235361   5.825   4.325   0.661  1.8292 -1.8313  0.3963
 4624TIP3   OH235362   2.536   0.854   1.239  0.3278 -0.5453 -0.4344
 4624TIP3    H135363   2.449   0.870   1.204  0.4063 -1.0490 -0.8715
 4624TIP3    H235364   2.542   0.759   1.245  0.9103 -0.5194 -0.5694
 4625TIP3   OH235365   0.910   0.488   3.197  0.3642 -0.3231 -0.2903
 4625TIP3    H135366   0.962   0.449   3.128 -1.3964 -1.3751 -1.0937
 4625TIP3    H235367   0.919   0.429   3.272 -1.4505 -1.8367 -1.1702
 4626TIP3   OH235368   6.577   3.403   5.931 -0.5441 -0.3334  0.2714
 4626TIP3    H135369   6.553   3.340   5.999  2.7779  0.4135  2.3819
 4626TIP3    H235370   6.638   3.355   5.875 -0.6166  0.0333 -0.1239
 4627TIP3   OH235371   5.712   0.237  12.208  0.5111  0.4978 -0.5713
 4627TIP3    H135372   5.623   0.242  12.172  1.2690  0.4678 -2.5734
 4627TIP3    H235373   5.718   0.313  12.265 -0.4978  1.0565 -1.1654
 4628TIP3   OH235374   2.270   4.712  11.966  0.1098  0.0156  0.3960
 4628TIP3    H135375   2.327   4.726  11.891  1.0780  1.5499  1.3730
 4628TIP3    H235376   2.243   4.620  11.959  1.0072 -0.1482 -1.2279
 4629TIP3   OH235377   4.149   6.315   0.340  0.2044  0.4252  0.1950
 4629TIP3    H135378   4.075   6.261   0.315 -0.3472  0.9396  0.6652
 4629TIP3    H235379   4.160   6.298   0.434 -0.0415  1.1848  0.3690
 4630TIP3   OH235380   4.700   2.044   3.787  0.8720 -0.0467  0.2172
 4630TIP3    H135381   4.789   2.009   3.783  1.3069  1.0861 -0.3651
 4630TIP3    H235382   4.701   2.120   3.729 -0.4176  0.1172  0.3790
 4631TIP3   OH235383   3.573   4.183  17.236  0.5023  0.4663 -0.1015
 4631TIP3    H135384   3.654   4.176  17.287 -0.3615 -0.8122  1.2063
 4631TIP3    H235385   3.571   4.104  17.182 -0.4672 -0.2064  0.8641
 4632TIP3   OH235386   2.882   5.102  15.812  0.9861  0.1354  0.1551
 4632TIP3    H135387   2.804   5.051  15.794  1.1556  0.4960 -1.8426
 4632TIP3    H235388   2.859   5.156  15.888 -0.1203 -0.9163  0.5861
 4633TIP3   OH235389   0.246   4.766   5.488 -0.2510  0.5265  0.3061
 4633TIP3    H135390   0.273   4.776   5.579  0.2914  1.1037  0.0851
 4633TIP3    H235391   0.199   4.847   5.467 -2.9752 -0.7692  0.9325
 4634TIP3   OH235392   1.928   1.227   1.471 -0.2154  0.2008 -0.3670
 4634TIP3    H135393   1.945   1.174   1.393 -2.1604 -2.2848  0.7171
 4634TIP3    H235394   1.832   1.235   1.473 -0.1224  1.2697  1.0944
 4635TIP3   OH235395   2.528   0.911  15.222 -0.1884  0.8498  0.0239
 4635TIP3    H135396   2.599   0.939  15.281 -0.4570  1.2228  0.1711
 4635TIP3    H235397   2.571   0.851  15.160 -0.0544 -0.1826  1.0797
 4636TIP3   OH235398   2.148   6.142   4.211  0.1848 -0.2705 -0.6023
 4636TIP3    H135399   2.207   6.110   4.143  1.1789  0.5909 -0.1712
 4636TIP3    H235400   2.124   6.230   4.182 -0.0021 -0.1936 -0.2164
 4637TIP3   OH235401   3.750   0.788   3.779  0.5901 -0.1812 -0.3150
 4637TIP3    H135402   3.786   0.795   3.867  1.5842 -1.2927 -0.5996
 4637TIP3    H235403   3.729   0.878   3.754 -0.0965  0.1085  1.1921
 4638TIP3   OH235404   2.080   2.502  15.060 -0.3213 -0.1142 -0.1426
 4638TIP3    H135405   2.047   2.591  15.044 -1.9477 -0.6567 -0.0267
 4638TIP3    H235406   2.018   2.466  15.124 -2.0710 -2.6555 -3.0320
 4639TIP3   OH235407   1.943   5.173   5.558  0.6249  0.0857 -0.0441
 4639TIP3    H135408   1.885   5.147   5.629  1.6330 -2.1307  0.0352
 4639TIP3    H235409   1.946   5.269   5.563 -1.3979  0.1303  1.1921
 4640TIP3   OH235410   6.370   6.507   1.322 -0.1668 -0.0663  0.4530
 4640TIP3    H135411   6.376   6.412   1.318 -0.2070 -0.0235 -1.0733
 4640TIP3    H235412   6.453   6.538   1.284 -1.5629  0.4865 -2.3534
 4641TIP3   OH235413   4.310   2.527   1.368 -0.0470  0.0267 -0.2281
 4641TIP3    H135414   4.327   2.619   1.392 -0.0854  0.1125 -0.5297
 4641TIP3    H235415   4.376   2.507   1.302 -0.7966  0.2148 -1.0590
 4642TIP3   OH235416   1.544   5.350  14.981 -0.4165 -0.7553  0.2495
 4642TIP3    H135417   1.535   5.255  14.977  0.2118 -0.7775 -1.2771
 4642TIP3    H235418   1.458   5.384  14.955 -0.8484 -0.8784  1.4494
 4643TIP3   OH235419   4.129   0.210  13.208 -0.3043 -0.4354 -0.4187
 4643TIP3    H135420   4.127   0.283  13.145 -0.9704 -1.8813 -2.1801
 4643TIP3    H235421   4.210   0.163  13.186 -0.6058 -1.0197 -0.2814
 4644TIP3   OH235422   3.301   2.233   0.909 -0.7630 -0.5447  0.2803
 4644TIP3    H135423   3.240   2.192   0.847 -1.3063 -1.2564  1.2687
 4644TIP3    H235424   3.246   2.296   0.958 -0.3951 -0.1806  0.2317
 4645TIP3   OH235425   6.613   3.073   1.976 -0.3755  0.5967 -0.3088
 4645TIP3    H135426   6.688   3.061   2.034 -0.1898  0.2706 -0.6083
 4645TIP3    H235427   6.540   3.095   2.034  0.6240  4.3749 -0.2135
 4646TIP3   OH235428   2.296   1.035   1.897 -0.1673 -0.1352  0.1451
 4646TIP3    H135429   2.251   1.053   1.814 -1.5047 -0.2949  0.8082
 4646TIP3    H235430   2.339   1.117   1.919  3.6380 -1.0820 -2.6315
 4647TIP3   OH235431   4.736   2.938   1.344 -0.1407  0.4157  0.0458
 4647TIP3    H135432   4.671   2.948   1.414 -1.9457 -1.4770 -1.2334
 4647TIP3    H235433   4.798   2.874   1.378  0.1875  1.0579  0.6824
 4648TIP3   OH235434   4.229   4.685  17.194  0.5078  0.1368 -0.1624
 4648TIP3    H135435   4.164   4.744  17.232  1.1368  1.5613 -1.2087
 4648TIP3    H235436   4.292   4.743  17.151 -0.3445 -1.3062 -3.7236
 4649TIP3   OH235437   2.122   3.972  15.838 -0.0419  0.0465 -0.1574
 4649TIP3    H135438   2.165   3.903  15.788  0.1460 -1.2802  1.7135
 4649TIP3    H235439   2.041   3.990  15.790  0.7881 -0.1338 -1.6702
 4650TIP3   OH235440   1.233   4.771   0.142 -0.3474 -0.1889  0.0466
 4650TIP3    H135441   1.300   4.745   0.078 -1.2079 -4.6386  0.6340
 4650TIP3    H235442   1.246   4.712   0.215 -3.6461  0.1537  1.0636
 4651TIP3   OH235443   2.036   2.070   5.361 -0.4619 -0.3828  0.4087
 4651TIP3    H135444   2.057   2.057   5.453  1.8512 -0.3311 -0.0484
 4651TIP3    H235445   2.055   2.162   5.345  0.3606 -0.6851 -0.3983
 4652TIP3   OH235446   2.427   0.390   2.826 -0.1855 -0.0179 -0.1285
 4652TIP3    H135447   2.447   0.311   2.876  2.2192 -0.6326 -1.8529
 4652TIP3    H235448   2.356   0.432   2.874 -0.6656 -2.5485  1.5551
 4653TIP3   OH235449   4.475   3.078   2.653 -1.0604  0.2903 -0.2022
 4653TIP3    H135450   4.410   3.084   2.582  0.8306 -0.5936 -2.1011
 4653TIP3    H235451   4.511   3.166   2.659 -3.1338  1.1183  1.6931
 4654TIP3   OH235452   5.412   2.369  15.848 -0.2941 -0.1548  0.5301
 4654TIP3    H135453   5.425   2.392  15.940 -2.0221  0.2019  0.7236
 4654TIP3    H235454   5.344   2.429  15.817  1.3125  0.7591 -1.4283
 4655TIP3   OH235455   5.600   1.206  14.843 -0.0435 -0.3820 -0.1581
 4655TIP3    H135456   5.642   1.196  14.758  0.2505 -0.1342 -0.0437
 4655TIP3    H235457   5.644   1.141  14.898 -0.5189 -0.8253 -0.3011
 4656TIP3   OH235458   1.224   2.997   1.712  0.2424  0.0349 -1.0014
 4656TIP3    H135459   1.154   2.966   1.654  0.1380  0.2954 -1.0166
 4656TIP3    H235460   1.299   3.009   1.654 -0.1768  1.3723 -1.2929
 4657TIP3   OH235461   0.540   5.061  16.099  0.0252  0.2842  0.1943
 4657TIP3    H135462   0.498   5.009  16.167 -0.5592 -1.1452 -1.2047
 4657TIP3    H235463   0.622   5.091  16.139 -1.0524  0.8580  2.0462
 4658TIP3   OH235464   3.677   2.063  13.143  0.5284 -0.2005 -0.5823
 4658TIP3    H135465   3.733   2.122  13.193 -0.4327  1.0902 -0.9877
 4658TIP3    H235466   3.679   1.981  13.193  1.7759  0.1913  0.0594
 4659TIP3   OH235467   6.370   4.026  14.861 -0.0350 -0.4075 -0.1402
 4659TIP3    H135468   6.280   4.010  14.829 -0.7743 -0.3715  1.7948
 4659TIP3    H235469   6.386   3.953  14.921 -0.1480  1.4146  2.2174
 4660TIP3   OH235470   5.651   6.427   2.480  0.0964 -0.2809 -0.9032
 4660TIP3    H135471   5.571   6.407   2.432 -0.0934 -0.4848 -0.5080
 4660TIP3    H235472   5.680   6.343   2.515 -0.5808  0.0565  0.5729
 4661TIP3   OH235473   2.115   1.974  14.241  0.0773 -0.6225 -0.4848
 4661TIP3    H135474   2.042   1.977  14.303 -0.7117 -0.8206 -1.3759
 4661TIP3    H235475   2.143   1.882  14.241 -0.5564 -0.8265 -1.1145
 4662TIP3   OH235476   6.302   2.004  12.344 -0.6690  0.2349 -0.7217
 4662TIP3    H135477   6.252   1.924  12.330  0.3115 -0.4629 -0.3163
 4662TIP3    H235478   6.333   1.998  12.434  0.3732  0.5266 -1.0530
 4663TIP3   OH235479   5.807   6.317  10.597 -0.1394 -0.5009  0.0490
 4663TIP3    H135480   5.873   6.355  10.656 -0.8900  4.5828 -1.8293
 4663TIP3    H235481   5.856   6.296  10.517 -0.1800 -0.5559  0.0386
 4664TIP3   OH235482   3.584   5.128   2.671  0.2199  0.3510  0.6023
 4664TIP3    H135483   3.636   5.190   2.620 -1.2195  1.7108  0.7082
 4664TIP3    H235484   3.500   5.124   2.624  0.4949 -2.1300  0.1656
 4665TIP3   OH235485   5.034   6.421   0.274  0.1500  0.2007  0.2332
 4665TIP3    H135486   5.005   6.387   0.359  1.0123 -1.5246 -0.1207
 4665TIP3    H235487   5.124   6.448   0.289 -0.6665  3.0777  0.6545
 4666TIP3   OH235488   1.294   2.222  12.677 -0.6166  0.4038  0.2087
 4666TIP3    H135489   1.228   2.175  12.729 -1.5783  0.1879 -1.1516
 4666TIP3    H235490   1.374   2.172  12.689 -1.3419 -0.9261 -0.2656
 4667TIP3   OH235491   5.490   3.715   5.988 -0.5870 -0.6424 -0.2474
 4667TIP3    H135492   5.456   3.804   5.979  1.0200  0.0352  0.0758
 4667TIP3    H235493   5.448   3.681   6.067 -0.8946 -0.0172 -0.1343
 4668TIP3   OH235494   4.247   4.104   1.034  0.1728  0.1832  0.8445
 4668TIP3    H135495   4.301   4.153   1.096 -1.3717  0.3380  2.1401
 4668TIP3    H235496   4.283   4.015   1.035  1.4687  0.6780  0.3362
 4669TIP3   OH235497   0.242   6.687  16.474 -0.2174  0.4147 -0.3839
 4669TIP3    H135498   0.185   6.654  16.405 -1.2928  1.3525  0.0266
 4669TIP3    H235499   0.190   6.680  16.554 -0.0522  1.9357 -0.1056
 4670TIP3   OH235500   2.700   0.140   3.410  0.4007 -0.1465  0.1038
 4670TIP3    H135501   2.720   0.049   3.389  1.2229 -0.4419  1.9108
 4670TIP3    H235502   2.606   0.148   3.400  0.2534 -1.3603  0.4401
 4671TIP3   OH235503   1.558   4.560   5.420  0.1528  0.1896  0.7957
 4671TIP3    H135504   1.630   4.616   5.392  2.0816 -2.0947  0.8121
 4671TIP3    H235505   1.556   4.490   5.355 -4.3157  1.7547 -1.1412
 4672TIP3   OH235506   4.862   2.311   4.408  0.1188  0.1024 -0.5163
 4672TIP3    H135507   4.956   2.300   4.422  0.2204  1.1015 -0.3226
 4672TIP3    H235508   4.838   2.385   4.464 -0.9188 -0.5537 -0.0588
 4673TIP3   OH235509   2.578   3.240  16.952 -0.0233 -0.1572 -0.1524
 4673TIP3    H135510   2.571   3.149  16.924 -0.3385  0.1100 -0.9570
 4673TIP3    H235511   2.629   3.282  16.883  0.3763  0.2180  0.3663
 4674TIP3   OH235512   4.174   0.071  13.947  0.0898 -0.5459  0.1322
 4674TIP3    H135513   4.121   0.119  13.883  2.0101 -0.5596 -1.5527
 4674TIP3    H235514   4.151   0.111  14.031 -2.3992 -0.4185 -0.5247
 4675TIP3   OH235515   6.740   2.530   1.074 -0.6663  0.5597 -0.2651
 4675TIP3    H135516   6.702   2.476   1.144  0.6000  1.6522  1.3703
 4675TIP3    H235517   6.701   2.616   1.087 -0.3757  0.7873 -0.8783
 4676TIP3   OH235518   6.076   3.024   3.398 -0.3819 -0.1367 -0.4925
 4676TIP3    H135519   6.007   3.089   3.405 -1.0356 -0.8343 -0.3427
 4676TIP3    H235520   6.077   2.980   3.483  1.3639  0.9552  0.0949
 4677TIP3   OH235521   3.996   2.925   1.304 -0.2526  0.4623  0.0793
 4677TIP3    H135522   3.920   2.973   1.270 -0.1517  1.6793  1.5027
 4677TIP3    H235523   3.959   2.844   1.339 -0.4585 -0.4593 -2.1039
 4678TIP3   OH235524   4.715   3.536   0.037 -0.3464 -0.1712  0.2129
 4678TIP3    H135525   4.697   3.590  -0.040  1.5734 -0.4421 -0.4772
 4678TIP3    H235526   4.802   3.500   0.022 -0.4682 -1.3143  1.9097
 4679TIP3   OH235527   2.505   5.241   0.709 -0.6874 -0.1185  0.3641
 4679TIP3    H135528   2.546   5.280   0.632  1.2575 -0.0956  1.3605
 4679TIP3    H235529   2.511   5.309   0.777 -0.2921 -0.9373  1.1731
 4680TIP3   OH235530   2.808   5.551   2.331  0.0664 -0.5362 -0.6591
 4680TIP3    H135531   2.746   5.555   2.259  0.2589  0.2435 -0.7919
 4680TIP3    H235532   2.757   5.572   2.409 -0.1135 -1.2430 -0.5862
 4681TIP3   OH235533   3.944   6.292  17.240 -0.8332 -0.1130 -0.8666
 4681TIP3    H135534   4.003   6.346  17.186  0.7358  0.7698  1.5547
 4681TIP3    H235535   3.954   6.204  17.205  2.3059 -0.0799 -0.3595
 4682TIP3   OH235536   3.983   1.505  13.788  0.0363 -0.4722  0.6323
 4682TIP3    H135537   4.035   1.490  13.867 -0.5075 -1.5476  0.8081
 4682TIP3    H235538   3.895   1.524  13.821 -0.1372 -0.6834  0.2912
 4683TIP3   OH235539   5.590   3.616  15.387  0.2394  0.1624  0.0112
 4683TIP3    H135540   5.532   3.690  15.404  1.5293  1.1894  0.1485
 4683TIP3    H235541   5.584   3.561  15.466 -1.5079 -0.4518 -0.5140
 4684TIP3   OH235542   1.826   3.291  12.362 -0.1130 -0.2397  0.1738
 4684TIP3    H135543   1.846   3.349  12.289 -0.5733 -0.3318 -0.0314
 4684TIP3    H235544   1.783   3.348  12.426  0.6807 -0.0681  0.5601
 4685TIP3   OH235545   4.058   0.004  16.437  0.5863 -0.7122  0.7423
 4685TIP3    H135546   4.031  -0.085  16.458  0.1475 -0.8880 -0.4501
 4685TIP3    H235547   4.135   0.019  16.491  1.5439 -2.3617 -0.0778
 4686TIP3   OH235548   5.362   1.116   4.007 -0.4172  0.5585  0.1530
 4686TIP3    H135549   5.391   1.054   4.074  0.0342  0.4499 -0.1327
 4686TIP3    H235550   5.301   1.066   3.953 -0.5994  0.5760  0.3427
 4687TIP3   OH235551   0.771   5.315  12.239  0.3122 -0.0634  0.2658
 4687TIP3    H135552   0.762   5.389  12.179 -0.5594 -1.3998 -1.3216
 4687TIP3    H235553   0.760   5.353  12.326 -0.9713  1.5370 -0.5545
 4688TIP3   OH235554   5.485   3.659  17.399  0.0455  0.2963  0.0575
 4688TIP3    H135555   5.517   3.620  17.480 -0.9529 -2.9830 -0.9306
 4688TIP3    H235556   5.563   3.691  17.355  1.0718 -0.9730  0.8718
 4689TIP3   OH235557   1.976   3.569   5.039  0.1534 -0.1031 -0.3250
 4689TIP3    H135558   2.056   3.622   5.044 -0.0950  0.3605 -1.1432
 4689TIP3    H235559   1.990   3.511   4.964  0.9600 -2.1350  1.3079
 4690TIP3   OH235560   3.041   2.101   2.314  0.5979  0.5426 -0.1026
 4690TIP3    H135561   3.025   2.026   2.256 -3.2435  0.7703  0.4153
 4690TIP3    H235562   3.060   2.174   2.255  2.9008 -0.4277 -0.6745
 4691TIP3   OH235563   0.281   3.897  15.414  0.1195 -0.3934  0.4392
 4691TIP3    H135564   0.374   3.888  15.392 -0.1935 -0.9991 -0.7444
 4691TIP3    H235565   0.272   3.988  15.444  0.9220 -0.0196 -0.4059
 4692TIP3   OH235566   6.178   5.995   0.024 -0.1417 -0.3297  0.1231
 4692TIP3    H135567   6.147   6.029   0.107  0.9361  0.5931  0.1700
 4692TIP3    H235568   6.150   6.060  -0.041 -1.4397 -1.3010 -0.3381
 4693TIP3   OH235569   5.083   2.339   4.687  0.3976 -0.4944  0.6818
 4693TIP3    H135570   5.037   2.273   4.739 -0.2122 -0.6926 -0.0929
 4693TIP3    H235571   5.130   2.289   4.620 -3.1584 -0.0992 -2.4348
 4694TIP3   OH235572   2.141   3.064  15.267  0.1867 -0.7416 -0.0809
 4694TIP3    H135573   2.104   2.988  15.312 -3.3407  0.9197  0.1636
 4694TIP3    H235574   2.226   3.078  15.310  0.0223 -3.2560  1.2623
 4695TIP3   OH235575   6.315   1.157  14.863  0.3498 -0.2140 -0.2635
 4695TIP3    H135576   6.342   1.085  14.920  1.6569  0.7302  0.3511
 4695TIP3    H235577   6.337   1.127  14.775  0.0273 -0.9254 -0.1148
 4696TIP3   OH235578   4.588   4.420  14.927  0.4595  0.3510  0.1687
 4696TIP3    H135579   4.535   4.464  14.994 -0.4508 -0.1886 -0.1683
 4696TIP3    H235580   4.667   4.393  14.972  0.6723  1.6077  0.5766
 4697TIP3   OH235581   5.600   4.589   6.559  0.1956 -0.2569  0.4216
 4697TIP3    H135582   5.560   4.573   6.644 -0.8016 -0.6462 -0.1036
 4697TIP3    H235583   5.601   4.684   6.550 -0.4237 -0.2337  0.5424
 4698TIP3   OH235584   5.660   4.339  11.280  0.4668 -0.2931  0.3791
 4698TIP3    H135585   5.713   4.328  11.359 -0.4411 -0.8930  0.9104
 4698TIP3    H235586   5.630   4.430  11.284  1.5206  0.0849  0.0218
 4699TIP3   OH235587   3.085   1.111  12.245  0.4193  0.4147 -0.0808
 4699TIP3    H135588   3.162   1.081  12.196  3.1343 -0.0980  3.9631
 4699TIP3    H235589   3.014   1.109  12.182  2.6180 -4.0337 -2.9599
 4700TIP3   OH235590   5.388   4.667  14.419  0.0198 -0.6400  0.2548
 4700TIP3    H135591   5.325   4.726  14.377  0.2814 -0.5521 -0.0185
 4700TIP3    H235592   5.471   4.686  14.376 -0.0073 -1.6352 -0.2652
 4701TIP3   OH235593   1.140   3.150   2.334 -0.3405  0.0939 -0.6897
 4701TIP3    H135594   1.211   3.168   2.272  0.3844  2.2092  0.6404
 4701TIP3    H235595   1.166   3.196   2.415 -2.1542 -0.9515  0.5704
 4702TIP3   OH235596   5.970   3.873  16.820 -0.1143 -0.6489  0.4238
 4702TIP3    H135597   6.049   3.922  16.843  0.1600  0.5690 -2.6046
 4702TIP3    H235598   5.964   3.805  16.886  1.0711  1.7329  3.2194
 4703TIP3   OH235599   4.148   2.626   2.738 -0.2774 -0.6145 -0.0780
 4703TIP3    H135600   4.164   2.677   2.817 -0.9434 -1.2293  0.4690
 4703TIP3    H235601   4.157   2.535   2.767 -0.0272 -0.8309 -0.8267
 4704TIP3   OH235602   3.383   0.070  11.426  0.3235  0.1907 -0.6988
 4704TIP3    H135603   3.395   0.070  11.331  0.1146  0.3902 -0.7245
 4704TIP3    H235604   3.462   0.113  11.460  0.8626 -0.7449 -0.7198
 4705TIP3   OH235605   2.532   4.205   2.596 -0.4088  0.7940 -0.1333
 4705TIP3    H135606   2.570   4.138   2.539 -1.1880 -0.7104  1.0456
 4705TIP3    H235607   2.507   4.276   2.537  0.4278  0.0380 -1.4269
 4706TIP3   OH235608   6.511   2.604   3.533  0.2167  0.2847 -0.2490
 4706TIP3    H135609   6.578   2.627   3.468  1.5057 -2.1546  0.0760
 4706TIP3    H235610   6.444   2.558   3.483 -0.3343  1.0865 -0.2745
 4707TIP3   OH235611   2.069   5.286  17.124 -0.3613 -0.3889  0.6059
 4707TIP3    H135612   2.162   5.280  17.099 -0.8081  0.4853 -1.5501
 4707TIP3    H235613   2.033   5.200  17.102  0.1010 -1.0921  2.4330
 4708TIP3   OH235614   4.228   1.042   0.513  0.5166 -0.2776 -0.1962
 4708TIP3    H135615   4.234   1.105   0.585 -1.5491  0.4601 -0.5812
 4708TIP3    H235616   4.169   0.974   0.546  1.3048 -1.0840 -0.4255
 4709TIP3   OH235617   0.122   5.071   3.936 -0.1544  0.3063  0.0369
 4709TIP3    H135618   0.118   4.976   3.928  1.4120  0.2086  0.0707
 4709TIP3    H235619   0.144   5.102   3.848 -0.0557  0.5806  0.1563
 4710TIP3   OH235620   0.054   4.134   5.949  0.2301  0.5825 -0.2231
 4710TIP3    H135621   0.097   4.141   5.863  0.5124 -0.7589 -0.2197
 4710TIP3    H235622  -0.023   4.190   5.941 -0.2903 -0.2793 -1.7135
 4711TIP3   OH235623   1.448   5.223   2.272  0.6623  0.4074 -0.3108
 4711TIP3    H135624   1.448   5.152   2.336  1.7849 -0.5556 -1.3200
 4711TIP3    H235625   1.484   5.298   2.319 -0.4631  0.3195  0.7482
 4712TIP3   OH235626   6.051   2.682   4.372 -0.1472  0.1720 -0.7418
 4712TIP3    H135627   6.068   2.601   4.421  1.8316 -0.2764 -2.0400
 4712TIP3    H235628   5.962   2.707   4.397 -0.5738 -2.0446  0.1890
 4713TIP3   OH235629   1.474   5.978   0.826  0.5401 -0.0618  0.2728
 4713TIP3    H135630   1.540   6.047   0.833 -0.8387  1.2996  0.1193
 4713TIP3    H235631   1.390   6.022   0.837 -0.4340 -1.5820 -0.6281
 4714TIP3   OH235632   4.491   0.450   1.343  0.5545  0.3465  0.0996
 4714TIP3    H135633   4.535   0.535   1.340  0.0554  0.7360  2.2523
 4714TIP3    H235634   4.528   0.407   1.420 -0.1264 -0.8753 -0.2246
 4715TIP3   OH235635   2.786   0.392   2.707 -0.1770  0.6292 -0.5939
 4715TIP3    H135636   2.834   0.397   2.789  0.6854  1.3134 -1.1324
 4715TIP3    H235637   2.807   0.305   2.672  1.9700  1.4989 -1.5875
 4716TIP3   OH235638   1.261   2.249  15.363 -0.0538  0.2728 -0.3594
 4716TIP3    H135639   1.293   2.192  15.434 -1.1857  0.0575 -0.0040
 4716TIP3    H235640   1.281   2.201  15.283  0.1117 -0.0525 -0.1251
 4717TIP3   OH235641   5.817   4.143  15.463 -0.4303  0.1538 -0.2802
 4717TIP3    H135642   5.827   4.076  15.395 -0.4237  0.2372 -0.3619
 4717TIP3    H235643   5.725   4.137  15.489  0.1459 -1.7047  1.5912
 4718TIP3   OH235644   2.718   4.203  13.693 -0.1542 -0.2396  0.1652
 4718TIP3    H135645   2.701   4.223  13.785  0.1291  0.3735  0.0840
 4718TIP3    H235646   2.774   4.274  13.663  0.1931 -0.7213 -0.3418
 4719TIP3   OH235647   0.275   2.460   0.592 -0.4643 -0.0250 -0.1949
 4719TIP3    H135648   0.195   2.504   0.561 -0.6120 -0.0340  0.1639
 4719TIP3    H235649   0.332   2.532   0.620 -0.7541 -0.0570  0.5064
 4720TIP3   OH235650   1.145   4.250  15.147 -0.2371  0.0713  0.3891
 4720TIP3    H135651   1.166   4.299  15.067  1.8664  0.4160  1.0956
 4720TIP3    H235652   1.200   4.291  15.214  0.6068 -2.3981  1.2878
 4721TIP3   OH235653   4.052   0.941  12.076  0.0618  0.4888  0.1663
 4721TIP3    H135654   4.067   0.913  12.166 -2.3208  0.1742  0.5509
 4721TIP3    H235655   4.010   0.865  12.035  1.2915  0.5545 -1.3020
 4722TIP3   OH235656   3.028   5.494   0.379 -0.2814 -0.3967 -0.4988
 4722TIP3    H135657   3.103   5.528   0.330  0.0128 -0.8018 -0.3396
 4722TIP3    H235658   3.037   5.532   0.467 -1.2597  0.9847 -0.9591
 4723TIP3   OH235659   5.515   5.761  13.549 -0.7773  0.5422 -0.0925
 4723TIP3    H135660   5.542   5.801  13.466 -1.0415  1.7596  0.3875
 4723TIP3    H235661   5.468   5.682  13.523 -0.1076  0.4487 -1.0676
 4724TIP3   OH235662   2.387   4.094   3.874  0.4466 -0.1912  0.1554
 4724TIP3    H135663   2.348   4.052   3.950 -1.0595 -0.1468 -0.5570
 4724TIP3    H235664   2.328   4.167   3.854  0.5448 -0.4804 -1.3101
 4725TIP3   OH235665   5.328   6.181  15.523  0.3281  0.1958 -0.5001
 4725TIP3    H135666   5.306   6.234  15.446  0.0026 -0.7285 -1.0632
 4725TIP3    H235667   5.409   6.136  15.498  1.3787  1.4471  0.5002
 4726TIP3   OH235668   3.239   5.833   3.423 -0.2123  0.7479  0.1079
 4726TIP3    H135669   3.213   5.913   3.377  0.5462  2.4720  2.4265
 4726TIP3    H235670   3.334   5.831   3.414 -0.2947 -0.3878 -0.6228
 4727TIP3   OH235671   1.256   5.734   3.922  1.4136  0.6902  0.2751
 4727TIP3    H135672   1.297   5.819   3.911 -0.2239  1.6576  1.3026
 4727TIP3    H235673   1.206   5.741   4.004 -1.4168 -0.1069 -1.2558
 4728TIP3   OH235674   0.470   2.791  13.980  0.7296 -0.0340  0.0639
 4728TIP3    H135675   0.497   2.804  14.071  1.3781 -1.3681  0.0883
 4728TIP3    H235676   0.380   2.824  13.977  0.5869 -0.2578  1.2647
 4729TIP3   OH235677   6.110   5.068  10.692 -0.1121  0.2625  0.7576
 4729TIP3    H135678   6.057   5.078  10.771  0.9278  2.7396  1.2186
 4729TIP3    H235679   6.147   4.980  10.699 -3.5061 -1.3076  0.7426
 4730TIP3   OH235680   3.111   6.760  12.916  0.0659 -0.1292 -0.5354
 4730TIP3    H135681   3.131   6.825  12.983 -0.0252 -0.5670 -0.0747
 4730TIP3    H235682   3.117   6.808  12.834 -1.7464  0.9040 -0.1252
 4731TIP3   OH235683   5.139   4.585  17.323  0.0381 -0.2193 -0.3719
 4731TIP3    H135684   5.193   4.584  17.244 -0.0954 -0.8851 -0.4612
 4731TIP3    H235685   5.097   4.671  17.323 -0.4633 -0.4519 -1.3809
 4732TIP3   OH235686   3.070   4.394   3.956  0.3472 -0.4635  0.8033
 4732TIP3    H135687   3.073   4.313   3.905  0.2234 -0.9275  1.5227
 4732TIP3    H235688   3.152   4.394   4.006  0.6451  0.1783  0.3393
 4733TIP3   OH235689   1.864   4.195  12.453 -0.7303  0.3596  0.1025
 4733TIP3    H135690   1.813   4.276  12.459 -0.7969  0.2552  1.1821
 4733TIP3    H235691   1.872   4.165  12.544 -1.8860 -1.5996 -0.3802
 4734TIP3   OH235692   1.414   2.718   2.810  0.6758 -0.4003 -0.2125
 4734TIP3    H135693   1.428   2.649   2.745  0.5765  0.0457 -0.7202
 4734TIP3    H235694   1.500   2.755   2.826  0.9989 -1.7103  1.3021
 4735TIP3   OH235695   5.927   6.455  12.249 -0.1867 -0.5547  0.2950
 4735TIP3    H135696   5.850   6.406  12.278 -0.4616  0.1162  0.7288
 4735TIP3    H235697   5.897   6.499  12.169  0.5415 -2.3297 -1.0289
 4736TIP3   OH235698   1.640   6.384  16.361  0.1506 -0.4888  0.8458
 4736TIP3    H135699   1.710   6.391  16.297  0.7982  0.5448  1.6371
 4736TIP3    H235700   1.683   6.355  16.441 -0.8135 -2.8639  0.5736
 4737TIP3   OH235701   4.215   6.751   1.687  0.4392 -0.2696 -0.6318
 4737TIP3    H135702   4.255   6.720   1.768 -1.1458 -2.0786 -0.4520
 4737TIP3    H235703   4.267   6.828   1.662  1.6749 -0.3381  1.4602
 4738TIP3   OH235704   4.980   2.469  13.416  0.2262  0.2401 -0.0825
 4738TIP3    H135705   5.070   2.444  13.396  0.0950  0.3465 -0.8133
 4738TIP3    H235706   4.931   2.452  13.336 -1.0807 -2.9476  1.2397
 4739TIP3   OH235707   4.822   6.461   6.933 -0.0475  0.1966 -0.4087
 4739TIP3    H135708   4.784   6.503   7.010  0.9000  0.9583 -0.3367
 4739TIP3    H235709   4.766   6.489   6.861 -0.7164 -0.2158 -0.0717
 4740TIP3   OH235710   0.122   2.792  13.828  0.1478  0.4622  0.6260
 4740TIP3    H135711   0.058   2.752  13.887  2.8697 -1.7572  2.3659
 4740TIP3    H235712   0.169   2.854  13.884  0.3644  1.1295 -0.2775
 4741TIP3   OH235713   2.930   3.967  17.275 -0.1859 -0.4336 -0.0139
 4741TIP3    H135714   2.984   3.933  17.346  0.2925  1.8358  0.7821
 4741TIP3    H235715   2.992   3.988  17.205 -0.2305  0.5391  0.2289
 4742TIP3   OH235716   5.159   4.405   5.729  0.5108  0.5449  0.4500
 4742TIP3    H135717   5.170   4.488   5.775  0.8827 -0.2670  1.8879
 4742TIP3    H235718   5.235   4.353   5.754  0.5805 -0.0241 -0.8912
 4743TIP3   OH235719   4.627   2.681  16.552  0.5979  0.2001 -0.4509
 4743TIP3    H135720   4.609   2.619  16.482 -1.5567 -0.8966  0.9252
 4743TIP3    H235721   4.612   2.631  16.633 -2.0211  2.5653  0.7461
 4744TIP3   OH235722   3.678   3.977   5.126 -0.3009  0.0520  0.1484
 4744TIP3    H135723   3.606   4.030   5.157 -0.2269 -0.2716  0.8793
 4744TIP3    H235724   3.637   3.906   5.078 -0.4221  0.4209 -0.3033
 4745TIP3   OH235725   4.009   0.582   0.166 -0.1345  0.1802 -0.0215
 4745TIP3    H135726   4.037   0.623   0.249  0.9757 -0.2631 -0.1624
 4745TIP3    H235727   3.989   0.656   0.109 -3.3105  0.5511  1.3527
 4746TIP3   OH235728   6.111   4.808   2.871 -0.3000 -0.0229  0.6597
 4746TIP3    H135729   6.197   4.820   2.911  0.1544  0.0213 -0.3072
 4746TIP3    H235730   6.052   4.862   2.923  0.4857  0.9391  0.5752
 4747TIP3   OH235731   2.809   2.855   1.764 -0.2928  0.1841  0.2243
 4747TIP3    H135732   2.859   2.775   1.782 -1.2204  0.1793  3.2634
 4747TIP3    H235733   2.876   2.921   1.743  0.9635 -0.2332  2.5416
 4748TIP3   OH235734   0.842   5.605  15.459  1.1536  0.1833  0.1895
 4748TIP3    H135735   0.937   5.610  15.448  1.0834  0.1774 -0.4579
 4748TIP3    H235736   0.816   5.693  15.486  1.2707  0.3409 -0.2126
 4749TIP3   OH235737   5.664   5.890  17.284 -0.0040  0.2548  0.4034
 4749TIP3    H135738   5.744   5.900  17.231 -1.7415  0.5244 -2.3972
 4749TIP3    H235739   5.637   5.799  17.269 -1.6863  0.9307 -1.1071
 4750TIP3   OH235740   2.322   2.929   1.504  0.1381 -0.1955 -0.0497
 4750TIP3    H135741   2.384   2.906   1.434  1.1688 -0.5415  0.9379
 4750TIP3    H235742   2.297   2.845   1.541 -1.2015 -0.0750 -0.6423
 4751TIP3   OH235743   4.455   6.011  13.754 -0.2754  0.3058 -0.9527
 4751TIP3    H135744   4.369   6.019  13.796  0.2460 -0.6398  0.3665
 4751TIP3    H235745   4.503   6.088  13.784 -0.0353 -0.1631 -0.1206
 4752TIP3   OH235746   2.420   3.794  10.481  0.1912 -0.7549  0.1885
 4752TIP3    H135747   2.367   3.867  10.513 -0.3465 -1.0395 -0.0545
 4752TIP3    H235748   2.484   3.835  10.423  0.3271 -0.3951  0.5825
 4753TIP3   OH235749   2.512   5.644   5.942  0.0686 -0.5990 -0.3195
 4753TIP3    H135750   2.575   5.640   6.013 -0.8999 -0.2319  0.5912
 4753TIP3    H235751   2.557   5.605   5.867  1.3532 -0.3495  0.3004
 4754TIP3   OH235752   5.585   6.701  15.334  0.2698  0.1269  0.3545
 4754TIP3    H135753   5.549   6.623  15.377  0.2919 -0.5922 -0.8836
 4754TIP3    H235754   5.548   6.774  15.384 -1.5073 -0.6174  0.2401
 4755TIP3   OH235755   4.660   0.171   3.770 -0.0508  0.2103  0.7076
 4755TIP3    H135756   4.598   0.244   3.761  0.2510  0.2212 -2.2313
 4755TIP3    H235757   4.727   0.203   3.830 -1.9264  0.8565  2.5667
 4756TIP3   OH235758   3.253   2.750   3.978 -0.5456 -0.3596 -0.2570
 4756TIP3    H135759   3.323   2.793   4.028  1.3184 -1.2142 -2.0041
 4756TIP3    H235760   3.269   2.657   3.990 -0.0847 -0.5893 -2.3260
 4757TIP3   OH235761   3.657   2.629   3.951 -0.5121  0.1499  0.2232
 4757TIP3    H135762   3.651   2.587   4.037  1.0464 -1.9867 -0.6198
 4757TIP3    H235763   3.577   2.603   3.906 -2.2278  2.7548  1.5214
 4758TIP3   OH235764   2.403   4.283   3.062 -0.3504 -0.1517 -0.3263
 4758TIP3    H135765   2.436   4.338   3.134  1.4124  0.9405 -1.8532
 4758TIP3    H235766   2.457   4.204   3.065 -0.9050 -0.5207  0.0942
 4759TIP3   OH235767   4.793   0.282  16.336 -0.0815 -0.1670 -0.0530
 4759TIP3    H135768   4.707   0.309  16.305 -0.8677 -1.9176  0.4926
 4759TIP3    H235769   4.840   0.364  16.350 -1.1553  0.7957 -1.6945
 4760TIP3   OH235770   6.682   4.067  16.334 -0.2391 -0.1474 -0.3371
 4760TIP3    H135771   6.695   3.979  16.368  3.7652  1.1527  2.1752
 4760TIP3    H235772   6.657   4.119  16.410  1.4564  1.5404 -0.8579
 4761TIP3   OH235773   6.747   2.128  11.941 -0.2828  0.1842 -0.1180
 4761TIP3    H135774   6.764   2.157  12.030 -0.8646  1.3752 -0.3818
 4761TIP3    H235775   6.786   2.040  11.936  0.9890  0.6770  0.8732
 4762TIP3   OH235776   5.413   3.958   4.052 -0.4277 -0.0845  0.0015
 4762TIP3    H135777   5.342   3.954   4.115 -0.3946  0.6334  0.0837
 4762TIP3    H235778   5.387   4.025   3.989  0.5558  0.8204  0.5167
 4763TIP3   OH235779   1.271   1.791  14.755 -0.1701 -0.2182 -0.4890
 4763TIP3    H135780   1.357   1.820  14.723 -0.5165  0.0448 -1.2067
 4763TIP3    H235781   1.235   1.869  14.798  0.5657 -0.7532  1.1672
 4764TIP3   OH235782   5.309   5.161   1.945  0.2020  0.0093 -0.6123
 4764TIP3    H135783   5.327   5.144   2.037 -1.1419 -0.8047 -0.4770
 4764TIP3    H235784   5.343   5.249   1.929 -0.8400  0.7480  1.0225
 4765TIP3   OH235785   0.888   4.898   3.097  0.0614 -0.3292  0.2332
 4765TIP3    H135786   0.980   4.920   3.104 -0.2101  0.6351  0.9732
 4765TIP3    H235787   0.880   4.814   3.142  0.2895  0.4538  1.8198
 4766TIP3   OH235788   2.504   6.083  16.491 -0.4435 -0.0708  0.3670
 4766TIP3    H135789   2.433   6.099  16.553  2.0432  0.4764  3.3201
 4766TIP3    H235790   2.534   6.170  16.466  0.2641 -0.2538  0.5469
 4767TIP3   OH235791   3.787   1.669   0.006 -0.0793  0.0710 -0.3079
 4767TIP3    H135792   3.783   1.662   0.101  0.0771 -1.8423 -0.4148
 4767TIP3    H235793   3.696   1.685  -0.020  0.2503  4.1100  0.2907
 4768TIP3   OH235794   6.273   0.459  13.669  0.0485  0.6778  0.3769
 4768TIP3    H135795   6.350   0.507  13.638 -0.2971  1.3184  0.4851
 4768TIP3    H235796   6.282   0.372  13.631 -0.0256  1.2454 -1.0002
 4769TIP3   OH235797   2.275   5.416   0.997 -0.3922  0.0399  0.3622
 4769TIP3    H135798   2.218   5.375   0.933  0.9364 -0.9904 -0.2082
 4769TIP3    H235799   2.255   5.371   1.079 -0.9296  0.2311  0.3430
 4770TIP3   OH235800   3.423   0.857  12.341 -0.5003  0.3655  0.0231
 4770TIP3    H135801   3.408   0.763  12.329 -1.3054  0.5474 -0.4355
 4770TIP3    H235802   3.354   0.885  12.401  0.1765  0.5379  0.7423
 4771TIP3   OH235803   4.836   6.569  12.453  0.7169  0.7312  0.2819
 4771TIP3    H135804   4.827   6.651  12.502  1.6474  0.6744  0.5695
 4771TIP3    H235805   4.751   6.557  12.410  0.4910  1.7171  0.4297
 4772TIP3   OH235806   4.941   2.392  16.900 -0.7269  0.0755 -0.1376
 4772TIP3    H135807   4.873   2.338  16.940  0.2874 -1.0837  0.0950
 4772TIP3    H235808   4.970   2.341  16.825  0.4141  0.1810  0.2175
 4773TIP3   OH235809   4.459   5.678  14.003  0.4712  0.3394 -0.0463
 4773TIP3    H135810   4.492   5.654  14.090 -1.3597 -1.5675  0.2062
 4773TIP3    H235811   4.373   5.716  14.020  1.1992  2.5266 -0.8867
 4774TIP3   OH235812   3.334   3.935  13.229 -0.4455  0.2340 -0.2561
 4774TIP3    H135813   3.286   3.895  13.156 -0.3303  2.1256 -1.4473
 4774TIP3    H235814   3.276   4.004  13.261 -0.6294 -0.7671  1.7027
 4775TIP3   OH235815   4.524   5.967   4.561  0.1718 -0.3810 -0.4315
 4775TIP3    H135816   4.466   5.922   4.622 -0.1911  1.4672  0.6436
 4775TIP3    H235817   4.467   6.031   4.518  0.5968 -1.1333 -2.1965
 4776TIP3   OH235818   1.232   1.730  12.928  0.6617 -0.2414 -0.3807
 4776TIP3    H135819   1.269   1.816  12.947  0.8735 -0.6993  1.5166
 4776TIP3    H235820   1.145   1.749  12.892  0.9705  0.7730 -0.6182
 4777TIP3   OH235821   2.409   3.084  14.303 -0.2917 -0.0497 -0.2445
 4777TIP3    H135822   2.361   3.112  14.225 -0.1166  0.7294 -0.0899
 4777TIP3    H235823   2.435   3.166  14.345 -0.0721 -0.4617  0.4413
 4778TIP3   OH235824   5.200   2.916   0.268  0.5133  0.3114 -0.4618
 4778TIP3    H135825   5.149   2.970   0.328  0.7363 -0.6739  0.6482
 4778TIP3    H235826   5.141   2.900   0.194  0.0810  1.1736 -0.3161
 4779TIP3   OH235827   1.608   2.981  15.448  1.0270 -0.3793 -0.2704
 4779TIP3    H135828   1.541   2.949  15.387  0.4515 -0.3938  0.3548
 4779TIP3    H235829   1.608   2.917  15.519  0.7800  0.3170  0.3652
 4780TIP3   OH235830   2.427   2.739   3.002  0.3131  0.7855 -0.0917
 4780TIP3    H135831   2.441   2.669   3.065 -0.4376 -1.1726 -1.9961
 4780TIP3    H235832   2.358   2.793   3.040 -1.7455 -1.6385 -0.1613
 4781TIP3   OH235833   4.194   2.868  14.722 -0.4489 -0.2461  0.0290
 4781TIP3    H135834   4.278   2.912  14.710 -0.5822 -0.1166 -0.4263
 4781TIP3    H235835   4.201   2.787  14.671 -1.4084  0.8203 -1.8945
 4782TIP3   OH235836   0.464   5.294  17.437 -0.1916  0.6082  0.6869
 4782TIP3    H135837   0.434   5.365  17.493  0.8712  1.0497  0.7146
 4782TIP3    H235838   0.451   5.326  17.348 -0.4064  0.5433  0.6962
 4783TIP3   OH235839   3.509   1.742  13.768 -0.1936 -0.1591  0.0526
 4783TIP3    H135840   3.474   1.653  13.767  2.2531 -1.2489  1.0118
 4783TIP3    H235841   3.586   1.736  13.825 -0.4060  2.7769  0.8139
 4784TIP3   OH235842   4.498   0.605  16.929  0.1854 -0.1543  0.2321
 4784TIP3    H135843   4.507   0.693  16.966  3.1331 -0.5748  0.7697
 4784TIP3    H235844   4.549   0.608  16.848 -0.0166 -1.2618  0.0446
 4785TIP3   OH235845   0.662   1.508  14.798 -0.1573  0.0843 -1.0810
 4785TIP3    H135846   0.660   1.603  14.786 -0.7334  0.0743 -1.0523
 4785TIP3    H235847   0.673   1.496  14.892 -2.3665  0.1201 -0.7731
 4786TIP3   OH235848   5.023   0.713  16.504  0.3950 -0.3428 -0.5456
 4786TIP3    H135849   4.990   0.784  16.449  0.4469 -1.6113 -2.3022
 4786TIP3    H235850   5.112   0.740  16.527 -0.3253  1.1625  0.7322
 4787TIP3   OH235851   6.669   1.852  11.600 -0.0176  0.4392  0.0769
 4787TIP3    H135852   6.697   1.944  11.602  0.4367  0.3653 -1.7647
 4787TIP3    H235853   6.688   1.823  11.511 -1.0601 -1.1746  0.3496
 4788TIP3   OH235854   1.973   1.236   3.769  0.2342  0.0367 -0.1156
 4788TIP3    H135855   1.932   1.224   3.684 -0.8323 -1.2810  0.5410
 4788TIP3    H235856   2.023   1.156   3.783 -0.8141 -0.4498  1.1078
 4789TIP3   OH235857   3.436   0.999   2.546 -0.2120 -0.0133 -0.0575
 4789TIP3    H135858   3.366   0.981   2.610  0.9148 -1.5201  0.8146
 4789TIP3    H235859   3.429   0.929   2.482  2.6989 -2.4959  2.0422
 4790TIP3   OH235860   4.954   6.750   3.375 -0.0355  0.1657  1.0595
 4790TIP3    H135861   5.004   6.701   3.310 -0.4683 -0.8486  1.4623
 4790TIP3    H235862   4.948   6.838   3.339  1.6764  0.2254  0.8070
 4791TIP3   OH235863   6.500   6.262  11.705  0.2320 -0.1444  0.6598
 4791TIP3    H135864   6.405   6.248  11.695  0.7683 -2.9614 -2.0104
 4791TIP3    H235865   6.515   6.252  11.799 -1.9482 -1.3927  0.9589
 4792TIP3   OH235866   5.433   4.072  16.155  0.1492 -0.3233  0.3785
 4792TIP3    H135867   5.457   4.120  16.076  0.3180 -0.2557  0.4680
 4792TIP3    H235868   5.363   4.013  16.127  0.2665 -0.3601  0.1587
 4793TIP3   OH235869   2.280   4.325  16.840  0.2724  0.2826  0.0924
 4793TIP3    H135870   2.242   4.349  16.755 -0.0494  0.9704  0.4240
 4793TIP3    H235871   2.211   4.344  16.903  0.1175 -1.1982  0.4254
 4794TIP3   OH235872   1.433   2.527  12.679  0.5737 -0.4213  0.8552
 4794TIP3    H135873   1.478   2.454  12.635  1.0470 -0.3848  1.2695
 4794TIP3    H235874   1.341   2.501  12.680  0.6745 -0.7979  0.5766
 4795TIP3   OH235875   1.085   5.745   1.446  0.5898  0.6206  0.2481
 4795TIP3    H135876   1.013   5.805   1.427 -0.5807 -0.9469 -0.4172
 4795TIP3    H235877   1.083   5.736   1.542 -1.1379 -0.5832  0.1467
 4796TIP3   OH235878   5.050   2.284  14.285 -0.1619  0.4344 -0.5981
 4796TIP3    H135879   4.982   2.233  14.329  0.6861 -0.5262 -0.3686
 4796TIP3    H235880   5.099   2.326  14.356 -0.1057  0.5864 -0.7271
 4797TIP3   OH235881   6.527   4.555   2.436 -0.0839  0.5228 -0.1946
 4797TIP3    H135882   6.475   4.503   2.497  1.7183  0.2313  1.1505
 4797TIP3    H235883   6.471   4.562   2.358 -1.9461 -0.1076  1.0147
 4798TIP3   OH235884   4.778   3.866  14.300 -0.0343  0.0587  0.3727
 4798TIP3    H135885   4.687   3.849  14.276 -0.4677  1.9998  0.4553
 4798TIP3    H235886   4.775   3.950  14.346  1.7141 -0.1903  1.0226
 4799TIP3   OH235887   2.758   0.336   0.098 -0.2466 -0.1477  0.0704
 4799TIP3    H135888   2.667   0.359   0.120 -0.8479 -0.3314 -1.9630
 4799TIP3    H235889   2.760   0.240   0.102  0.3198 -0.1002  1.6186
 4800TIP3   OH235890   0.812   1.654   4.872 -0.2435 -0.5169 -0.0039
 4800TIP3    H135891   0.830   1.604   4.792  1.7277 -0.9580  0.6695
 4800TIP3    H235892   0.802   1.744   4.841  0.0350 -0.7470 -0.8128
 4801TIP3   OH235893   1.913   5.695  15.554 -0.1717 -0.2161 -0.4458
 4801TIP3    H135894   1.856   5.763  15.592 -4.3936 -2.7073 -1.6424
 4801TIP3    H235895   1.920   5.629  15.623 -1.5999 -1.3889 -1.3755
 4802TIP3   OH235896   0.708   6.393   2.079  0.3414  0.1007  0.1182
 4802TIP3    H135897   0.625   6.424   2.044  0.9667  2.3749  0.5318
 4802TIP3    H235898   0.745   6.467   2.126  1.6318 -1.4969  1.7950
 4803TIP3   OH235899   5.992   3.759   4.885  0.1034  0.5753 -0.0750
 4803TIP3    H135900   5.905   3.795   4.867  0.7110  1.1266 -2.1823
 4803TIP3    H235901   5.989   3.670   4.848  0.6776  0.8975 -0.9138
 4804TIP3   OH235902   2.014   5.418  13.989 -0.9984  0.2679 -0.0372
 4804TIP3    H135903   2.010   5.447  14.080 -1.0309  0.0289  0.0368
 4804TIP3    H235904   2.108   5.407  13.972 -0.8725  1.8109 -0.5029
 4805TIP3   OH235905   0.452   3.654   3.726  0.2432  0.1969  0.4338
 4805TIP3    H135906   0.394   3.693   3.792 -0.5456  0.0176 -0.1412
 4805TIP3    H235907   0.409   3.672   3.642  1.4054  0.7055 -0.0612
 4806TIP3   OH235908   1.538   2.463  12.982  0.3768 -0.5864  0.4534
 4806TIP3    H135909   1.625   2.478  12.945  0.1593  2.3823  0.9431
 4806TIP3    H235910   1.556   2.424  13.068  1.2348 -0.2235  0.4576
 4807TIP3   OH235911   3.500   6.448  14.095  0.3000  0.6846 -0.1664
 4807TIP3    H135912   3.500   6.361  14.054 -0.7780  0.0004  1.2276
 4807TIP3    H235913   3.415   6.485  14.073 -0.0258  0.5798  0.8869
 4808TIP3   OH235914   6.258   3.194   1.901 -0.3810  0.0216  1.3052
 4808TIP3    H135915   6.215   3.279   1.893  0.8013  0.5200 -0.1793
 4808TIP3    H235916   6.293   3.176   1.814  0.1339 -1.6042  1.8033
 4809TIP3   OH235917   5.107   0.444   0.080  0.1401 -0.2407  0.2191
 4809TIP3    H135918   5.038   0.460   0.016  0.9979 -0.9707 -0.9211
 4809TIP3    H235919   5.145   0.531   0.095 -1.7786  0.4107  1.8348
 4810TIP3   OH235920   0.661   6.473   6.419  0.1235  0.6293  0.0080
 4810TIP3    H135921   0.718   6.407   6.379  0.0339  0.8544 -0.5043
 4810TIP3    H235922   0.720   6.540   6.451  0.1473  0.9064 -0.6039
 4811TIP3   OH235923   1.535   4.802   5.859  0.2599  0.0532 -0.0028
 4811TIP3    H135924   1.466   4.858   5.895 -0.8514 -1.9033  1.0577
 4811TIP3    H235925   1.503   4.779   5.772 -0.8755 -1.4632  0.7670
 4812TIP3   OH235926   4.805   0.560   6.384 -0.0525  0.1279  0.4531
 4812TIP3    H135927   4.824   0.641   6.432 -0.8003  0.7910 -0.3544
 4812TIP3    H235928   4.854   0.568   6.302 -1.6587  0.6646 -0.4882
 4813TIP3   OH235929   0.115   2.890  11.267 -0.3305  0.4808  0.2176
 4813TIP3    H135930   0.192   2.835  11.279 -1.1103 -0.7597 -0.2456
 4813TIP3    H235931   0.120   2.953  11.338  0.1548 -0.7239  1.3043
 4814TIP3   OH235932   1.017   3.409   4.964  0.3450 -0.0834 -0.0530
 4814TIP3    H135933   0.933   3.408   5.010  0.2156 -1.3777 -0.2646
 4814TIP3    H235934   1.020   3.495   4.922 -0.9569 -0.0741 -0.1807
 4815TIP3   OH235935   5.931   3.288   1.485 -0.2214  0.7973 -0.4640
 4815TIP3    H135936   5.882   3.297   1.404 -3.2028  0.0214  1.0915
 4815TIP3    H235937   5.885   3.218   1.533  0.1460  2.5179  2.6785
 4816TIP3   OH235938   0.065   1.604  11.652 -0.4340 -0.3394 -0.1691
 4816TIP3    H135939   0.145   1.614  11.600  0.1740  1.1220  0.9915
 4816TIP3    H235940   0.021   1.689  11.644 -1.5194 -0.8910 -0.2020
 4817TIP3   OH235941   1.888   4.801  16.622 -0.5536 -0.2426  0.5177
 4817TIP3    H135942   1.931   4.731  16.574 -1.3161 -0.5521  0.2852
 4817TIP3    H235943   1.942   4.812  16.701  0.1147 -0.4221  0.0959
 4818TIP3   OH235944   4.386   5.685  12.045  0.0868 -0.0962  0.2300
 4818TIP3    H135945   4.432   5.714  12.123 -1.2031  0.5425  0.7786
 4818TIP3    H235946   4.367   5.766  11.997 -0.6687 -0.3215  0.1418
 4819TIP3   OH235947   3.844   4.775   5.685  0.3065 -0.4008 -0.4453
 4819TIP3    H135948   3.865   4.704   5.624  0.3295 -1.3626  0.6577
 4819TIP3    H235949   3.862   4.739   5.771 -2.4866 -0.0627  0.3746
 4820TIP3   OH235950   0.309   4.726  17.433 -0.4776  0.4496  0.2095
 4820TIP3    H135951   0.275   4.689  17.352  1.2775  1.4613 -1.0720
 4820TIP3    H235952   0.232   4.759  17.479 -1.6887 -1.5609 -0.2529
 4821TIP3   OH235953   1.395   3.014  16.898 -0.0216 -0.0563  0.4130
 4821TIP3    H135954   1.448   2.956  16.844 -1.6991 -2.0527  0.7703
 4821TIP3    H235955   1.336   3.057  16.835  0.1603  0.0741  0.3285
 4822TIP3   OH235956   6.055   3.350  13.200 -0.0164  0.1690 -0.8362
 4822TIP3    H135957   6.044   3.437  13.237 -0.2501 -0.4041  0.5149
 4822TIP3    H235958   5.995   3.347  13.126 -0.2203  1.0497 -0.7131
 4823TIP3   OH235959   5.068   1.814   3.115 -0.5915 -1.1131 -0.0362
 4823TIP3    H135960   4.974   1.811   3.102 -0.2023 -0.4580 -4.9453
 4823TIP3    H235961   5.094   1.901   3.085  1.6342 -1.4588  0.6473
 4824TIP3   OH235962   4.264   3.290   4.121 -0.0647 -0.4482 -0.6363
 4824TIP3    H135963   4.347   3.337   4.123 -0.3623  0.1269  2.5957
 4824TIP3    H235964   4.288   3.198   4.113  1.0792 -0.4516  1.9807
 4825TIP3   OH235965   6.430   6.734   2.521 -0.2461 -0.3882 -0.2664
 4825TIP3    H135966   6.343   6.707   2.493 -0.4146  0.4009 -0.5087
 4825TIP3    H235967   6.420   6.824   2.551  0.5719 -0.1320 -0.7264
 4826TIP3   OH235968   0.664   1.481  16.284  0.3627  0.1299  0.2799
 4826TIP3    H135969   0.619   1.412  16.332  1.8758 -0.2853  1.1413
 4826TIP3    H235970   0.611   1.492  16.204 -0.9195 -0.7328  0.9718
 4827TIP3   OH235971   5.692   5.535  17.479  0.0202 -0.4539  0.5902
 4827TIP3    H135972   5.733   5.460  17.436 -0.1185 -0.1876 -0.0136
 4827TIP3    H235973   5.599   5.526  17.460  0.1724  0.7348 -0.8649
 4828TIP3   OH235974   4.428   1.253  11.514 -0.3322 -0.1591 -0.4324
 4828TIP3    H135975   4.349   1.221  11.559 -0.0033 -0.1127  0.1955
 4828TIP3    H235976   4.426   1.210  11.429  0.3227 -2.2338  0.5262
 4829TIP3   OH235977   5.774   4.823  13.001 -0.1674 -0.6064 -0.2039
 4829TIP3    H135978   5.806   4.875  12.927 -0.4419  0.1260  0.1839
 4829TIP3    H235979   5.698   4.777  12.967 -0.0915 -0.5360 -0.4730
 4830TIP3   OH235980   4.982   4.297   5.522  0.6144 -0.1255  0.0352
 4830TIP3    H135981   4.951   4.362   5.459  1.1652  1.1908  1.0805
 4830TIP3    H235982   4.986   4.343   5.605  0.0191 -1.7924  1.0490
 4831TIP3   OH235983   5.600   1.435  15.025  0.6032  0.3393  0.7065
 4831TIP3    H135984   5.557   1.374  14.965  3.1856 -1.8007  0.8532
 4831TIP3    H235985   5.543   1.512  15.026 -0.6480 -0.3536 -2.8258
 4832TIP3   OH235986   1.867   4.417   3.043  0.3768 -0.1449  0.2256
 4832TIP3    H135987   1.954   4.417   3.003  0.4207 -2.4699  0.1843
 4832TIP3    H235988   1.848   4.325   3.058 -1.9023  0.3504  0.6848
 4833TIP3   OH235989   6.754   6.285   4.060  0.2987  0.1303 -0.7196
 4833TIP3    H135990   6.828   6.240   4.021  0.6779  0.9135 -0.9308
 4833TIP3    H235991   6.677   6.250   4.015  0.7205  1.0206 -2.2065
 4834TIP3   OH235992   0.874   5.619   1.976 -0.6170 -0.2227  0.2515
 4834TIP3    H135993   0.897   5.542   2.029  1.6321 -0.1750 -0.5190
 4834TIP3    H235994   0.802   5.589   1.921  0.4590 -1.9908 -0.3160
 4835TIP3   OH235995   2.297   3.936   6.730  0.0167 -0.2189  0.1572
 4835TIP3    H135996   2.236   3.899   6.666 -0.6555 -0.7758  1.0901
 4835TIP3    H235997   2.324   3.861   6.783  1.9322 -0.0880 -0.5346
 4836TIP3   OH235998   4.946   6.759  17.245 -0.0024 -0.0356  0.0900
 4836TIP3    H135999   5.038   6.774  17.269  0.5024 -3.0548  0.4784
 4836TIP3    H236000   4.939   6.791  17.155  1.3599  0.5342  0.1654
 4837TIP3   OH236001   6.191   0.937   3.027 -0.0361  0.1460  0.0870
 4837TIP3    H136002   6.152   0.850   3.037  3.8118 -1.8825 -0.7125
 4837TIP3    H236003   6.224   0.938   2.937  3.1412  0.8950  1.1459
 4838TIP3   OH236004   3.824   2.462  14.641 -0.4974 -0.0519  0.6940
 4838TIP3    H136005   3.750   2.434  14.696 -0.1663 -0.2955  1.0187
 4838TIP3    H236006   3.793   2.542  14.598 -2.1674 -1.8173 -1.6839
 4839TIP3   OH236007   2.965   3.121   4.817  0.0356 -0.3137  0.3867
 4839TIP3    H136008   2.898   3.145   4.881 -0.0296 -1.0848  0.6238
 4839TIP3    H236009   2.990   3.032   4.841  0.0278 -0.6109 -0.6382
 4840TIP3   OH236010   5.463   5.443   1.572  0.2921  0.4840 -0.3093
 4840TIP3    H136011   5.549   5.449   1.531  1.4298  0.0694  1.8782
 4840TIP3    H236012   5.433   5.354   1.552 -0.6507  1.3016 -2.8644
 4841TIP3   OH236013   4.245   5.798  14.497 -0.6828  0.0175 -0.4154
 4841TIP3    H136014   4.202   5.756  14.572  0.4872 -0.7442 -0.1388
 4841TIP3    H236015   4.174   5.814  14.435 -1.7461  1.0389  1.0011
 4842TIP3   OH236016   3.234   5.122  13.680 -0.4737  0.1332  0.9600
 4842TIP3    H136017   3.260   5.056  13.617  1.0324  3.5429 -2.3796
 4842TIP3    H236018   3.289   5.105  13.757  0.0103 -2.2647  0.1561
 4843TIP3   OH236019   1.316   1.252  17.331  0.3582  0.0272  0.7521
 4843TIP3    H136020   1.248   1.194  17.299 -1.3252  1.4325  1.6021
 4843TIP3    H236021   1.337   1.308  17.257  1.3319 -1.0230  0.2029
 4844TIP3   OH236022   2.317   4.018  11.642 -0.1010 -0.2209  0.4207
 4844TIP3    H136023   2.345   4.097  11.688  1.1181 -1.3024  1.5976
 4844TIP3    H236024   2.395   3.985  11.598 -0.0643 -1.8675  1.6249
 4845TIP3   OH236025   0.410   0.671   4.021  0.7479 -0.5308  0.2307
 4845TIP3    H136026   0.333   0.723   4.042  1.4486  0.4193  0.4970
 4845TIP3    H236027   0.413   0.672   3.925  1.8588  1.6373  0.2295
 4846TIP3   OH236028   2.384   4.582   1.341 -0.3530  0.5191  0.0025
 4846TIP3    H136029   2.442   4.613   1.410 -0.5801  2.8311 -0.7734
 4846TIP3    H236030   2.296   4.597   1.375 -0.4751  0.4259 -0.2689
 4847TIP3   OH236031   5.817   2.838   6.084  0.2303  0.7963  0.1769
 4847TIP3    H136032   5.815   2.934   6.085  0.6457  0.8120 -0.3962
 4847TIP3    H236033   5.725   2.813   6.070  0.3103  1.1352 -1.0420
 4848TIP3   OH236034   1.625   3.055   2.392  0.3516  0.0841 -0.1846
 4848TIP3    H136035   1.643   3.077   2.484 -1.1500 -1.9676  0.6888
 4848TIP3    H236036   1.671   2.972   2.379 -0.3881 -0.2124 -0.9263
 4849TIP3   OH236037   1.366   5.128   0.587 -0.5172 -0.3855 -0.0402
 4849TIP3    H136038   1.374   5.052   0.529 -2.9209 -0.3239 -0.5253
 4849TIP3    H236039   1.366   5.203   0.528 -2.2814 -0.2880  0.0278
 4850TIP3   OH236040   3.243   2.834  15.210  0.6643  0.4072 -0.4811
 4850TIP3    H136041   3.196   2.916  15.226  0.6224  0.1097  1.1369
 4850TIP3    H236042   3.173   2.769  15.196  0.6419  0.3280 -0.0149
 4851TIP3   OH236043   3.613   3.120  12.039  0.3641  0.3533 -0.0505
 4851TIP3    H136044   3.518   3.124  12.044  0.2653  2.1234 -1.9373
 4851TIP3    H236045   3.643   3.159  12.121 -0.5631  0.9408  0.0257
 4852TIP3   OH236046   0.667   5.846   0.929 -0.9858 -0.2042 -0.6514
 4852TIP3    H136047   0.658   5.761   0.972  0.7317  0.3233  0.8544
 4852TIP3    H236048   0.738   5.833   0.866 -0.7250  0.1089 -0.4232
 4853TIP3   OH236049   4.731   0.849  13.852  0.3414  0.3625 -0.4415
 4853TIP3    H136050   4.712   0.923  13.909  0.2404 -1.1965  1.6540
 4853TIP3    H236051   4.801   0.802  13.897 -1.9632 -2.7357  0.1901
 4854TIP3   OH236052   4.648   1.988   6.649  0.4155 -0.0073  0.3767
 4854TIP3    H136053   4.685   2.066   6.691  1.1171  0.7259 -1.5211
 4854TIP3    H236054   4.707   1.970   6.576 -0.6677 -1.3282 -0.2094
 4855TIP3   OH236055   6.495   0.805  17.370  0.3084  0.2592 -0.7370
 4855TIP3    H136056   6.566   0.854  17.413  0.7879  0.1188 -1.3525
 4855TIP3    H236057   6.437   0.873  17.335 -1.6379  0.4444  2.4984
 4856TIP3   OH236058   2.547   2.854   4.905  0.3884 -0.0765  0.1868
 4856TIP3    H136059   2.458   2.866   4.938  0.5059  0.1913  0.4106
 4856TIP3    H236060   2.541   2.875   4.811  0.4146  0.9046  0.3984
 4857TIP3   OH236061   6.429   4.066   6.009  0.5270 -0.0763 -0.9458
 4857TIP3    H136062   6.455   4.082   6.099  2.1584  0.6662 -1.5124
 4857TIP3    H236063   6.334   4.049   6.014  0.6657 -0.5190  0.9298
 4858TIP3   OH236064   4.686   5.862  13.642 -0.4481  0.3830  0.2979
 4858TIP3    H136065   4.613   5.920  13.664 -1.2909 -0.8885  1.0053
 4858TIP3    H236066   4.698   5.808  13.721  1.2567  0.5584  0.1916
 4859TIP3   OH236067   1.980   1.939  12.119 -0.1011 -0.2921  0.6493
 4859TIP3    H136068   2.058   1.987  12.147 -0.1265  0.9435 -1.2108
 4859TIP3    H236069   1.911   1.969  12.178 -0.2513  2.5454 -0.7905
 4860TIP3   OH236070   0.423   5.556   1.587  0.8392 -0.1942  0.1177
 4860TIP3    H136071   0.499   5.501   1.605  0.7276 -0.4568 -0.2069
 4860TIP3    H236072   0.360   5.534   1.656  0.4781 -1.0711 -0.4780
 4861TIP3   OH236073   5.729   6.658  13.425 -0.6001 -0.2100  0.5878
 4861TIP3    H136074   5.737   6.577  13.375  0.6390 -0.0537  0.4999
 4861TIP3    H236075   5.748   6.727  13.362 -0.3339  0.0673  0.9716
 4862TIP3   OH236076   3.741   2.987  16.531 -0.2711 -0.7666 -0.1131
 4862TIP3    H136077   3.791   2.914  16.567 -0.1678 -0.2181  0.9161
 4862TIP3    H236078   3.795   3.064  16.550 -0.8245 -0.3229 -0.3113
 4863TIP3   OH236079   0.578   1.609   2.374  0.3470  0.4028 -0.2483
 4863TIP3    H136080   0.508   1.634   2.434 -0.1378  0.0980 -0.6803
 4863TIP3    H236081   0.646   1.572   2.431  0.3437  1.0921  0.2173
 4864TIP3   OH236082   3.355   1.271  14.521 -0.3050  0.6190  0.6043
 4864TIP3    H136083   3.359   1.357  14.481  0.0721 -0.2377 -1.3333
 4864TIP3    H236084   3.261   1.254  14.532 -0.5379  0.2166 -1.5626
 4865TIP3   OH236085   2.019   3.229  16.810  0.5268 -0.4152  0.3908
 4865TIP3    H136086   2.000   3.287  16.883  0.5352  1.6626 -1.1771
 4865TIP3    H236087   2.113   3.212  16.817  0.2246 -1.7403  1.8491
 4866TIP3   OH236088   2.892   6.261   3.710 -0.9380 -0.4602 -0.0637
 4866TIP3    H136089   2.841   6.229   3.785 -1.9102 -0.1276 -0.5645
 4866TIP3    H236090   2.973   6.210   3.713 -1.2274 -0.8976  0.8418
 4867TIP3   OH236091   4.103   6.562  13.937 -0.3650  0.2256  0.0059
 4867TIP3    H136092   4.113   6.639  13.994 -1.5144  0.5576 -0.2187
 4867TIP3    H236093   4.110   6.598  13.849 -0.3848 -0.0116 -0.0912
 4868TIP3   OH236094   5.512   1.053   2.262  0.1902  0.0235  0.5186
 4868TIP3    H136095   5.520   0.958   2.272  0.6743  0.1131  1.0462
 4868TIP3    H236096   5.517   1.087   2.351  0.5641  0.5838  0.2915
 4869TIP3   OH236097   2.171   0.965  14.949  0.0119  0.2738 -0.0552
 4869TIP3    H136098   2.230   0.964  15.024  1.3841  1.7395 -1.0458
 4869TIP3    H236099   2.099   0.907  14.974  1.4338 -0.8978  1.5401
 4870TIP3   OH236100   3.095   0.125   4.657  0.2677 -0.0877 -0.3158
 4870TIP3    H136101   3.046   0.171   4.725  0.8133 -0.9741  0.6910
 4870TIP3    H236102   3.160   0.189   4.627 -0.3679  0.5109 -0.4632
 4871TIP3   OH236103   4.024   4.553  17.466  0.1137 -0.4454  0.0233
 4871TIP3    H136104   3.992   4.553  17.376 -0.2147 -1.6707  0.1197
 4871TIP3    H236105   4.068   4.469  17.475  0.5607 -0.1300  0.8692
 4872TIP3   OH236106   5.974   3.518   0.891 -0.0606  0.7017  0.7420
 4872TIP3    H136107   5.912   3.588   0.909  1.2200  2.0525  0.1137
 4872TIP3    H236108   5.920   3.444   0.862 -1.4012  1.5728  0.9531
 4873TIP3   OH236109   3.997   1.525  16.502 -0.3162  0.4954 -1.1080
 4873TIP3    H136110   4.027   1.503  16.414  1.7197  2.5181 -1.0243
 4873TIP3    H236111   3.979   1.619  16.498  1.5800  1.0537  0.9896
 4874TIP3   OH236112   3.680   0.255   1.484  0.2325 -0.1449  0.0870
 4874TIP3    H136113   3.742   0.195   1.526  0.7103 -0.6904 -1.3367
 4874TIP3    H236114   3.609   0.265   1.547  0.7262 -1.2619  0.8415
 4875TIP3   OH236115   3.060   3.530   2.439 -0.2189 -0.6895 -0.3626
 4875TIP3    H136116   3.122   3.525   2.366 -0.4679 -0.7828 -0.5711
 4875TIP3    H236117   3.112   3.560   2.513  0.1245 -1.0065 -0.4753
 4876TIP3   OH236118   6.456   3.127  15.985 -0.0873 -0.3212  0.1821
 4876TIP3    H136119   6.517   3.079  15.930  0.0230 -1.2377  1.0710
 4876TIP3    H236120   6.372   3.083  15.972 -0.0738 -0.5077  0.6766
 4877TIP3   OH236121   5.145   2.890   4.728 -0.2676 -0.2561 -0.0500
 4877TIP3    H136122   5.237   2.901   4.752 -0.0222 -1.5341 -0.3640
 4877TIP3    H236123   5.106   2.844   4.803 -0.2633 -1.2049 -0.6160
 4878TIP3   OH236124   6.087   6.608   0.522  0.1063  0.1979  0.3745
 4878TIP3    H136125   6.077   6.514   0.503 -0.6406  0.5731 -1.3316
 4878TIP3    H236126   5.998   6.637   0.545  0.6354  0.1863  2.6189
 4879TIP3   OH236127   6.661   1.547  16.998  0.2661  0.1311  0.1240
 4879TIP3    H136128   6.733   1.538  17.061  0.0765  0.2119  0.3552
 4879TIP3    H236129   6.700   1.525  16.913  0.6416  0.4979  0.2002
 4880TIP3   OH236130   5.478   0.360   2.643 -0.2534  0.6413  0.7842
 4880TIP3    H136131   5.422   0.288   2.672  1.5333 -1.3266 -0.3972
 4880TIP3    H236132   5.555   0.318   2.605 -0.2263  3.1135 -2.3548
 4881TIP3   OH236133   0.805   3.483   4.093  0.5077 -0.6850  0.0680
 4881TIP3    H136134   0.716   3.455   4.070  0.3541  0.6050 -1.0507
 4881TIP3    H236135   0.806   3.483   4.188 -0.5560 -1.1351  0.1016
 4882TIP3   OH236136   0.520   0.427  13.548  0.8609  0.2905  0.4054
 4882TIP3    H136137   0.458   0.487  13.506 -1.4634 -3.7815 -2.7994
 4882TIP3    H236138   0.602   0.441  13.501 -0.0644  0.0448 -1.3940
 4883TIP3   OH236139   2.971   1.466   4.537 -0.4235 -0.1445  0.4226
 4883TIP3    H136140   2.993   1.396   4.475  0.9222  1.6242 -1.2449
 4883TIP3    H236141   3.041   1.461   4.603  0.4104  0.3700 -0.3907
 4884TIP3   OH236142   2.877   6.106   3.330  0.1302 -0.0990 -0.4992
 4884TIP3    H136143   2.875   6.016   3.299 -2.4836  0.1448 -1.3273
 4884TIP3    H236144   2.959   6.114   3.378 -1.2259 -4.1121  3.1195
 4885TIP3   OH236145   4.959   1.739   3.963  0.1531 -0.0461 -0.0602
 4885TIP3    H136146   5.043   1.696   3.978 -0.4942 -1.1079  0.6224
 4885TIP3    H236147   4.894   1.674   3.989 -0.8903  0.6620 -0.8439
 4886TIP3   OH236148   1.923   1.857   1.272 -0.2262  0.1591 -0.2299
 4886TIP3    H136149   1.830   1.836   1.284  0.4095 -2.2938  1.1118
 4886TIP3    H236150   1.940   1.841   1.180 -1.0737  0.4215 -0.4410
 4887TIP3   OH236151   0.747   3.479  11.468  0.0193 -0.2818 -0.3410
 4887TIP3    H136152   0.737   3.434  11.384 -0.9692 -1.6543  0.4575
 4887TIP3    H236153   0.673   3.539  11.473  0.4395  0.2810 -0.7076
 4888TIP3   OH236154   0.991   6.675   5.992  0.3358  0.2124  0.6259
 4888TIP3    H136155   0.940   6.730   5.933 -1.8517 -1.7344  0.5634
 4888TIP3    H236156   0.988   6.721   6.076 -2.3149 -0.1737  0.8369
 4889TIP3   OH236157   1.318   4.136  11.388  0.4918  0.0614 -0.0959
 4889TIP3    H136158   1.289   4.045  11.395 -0.3387  0.3673  0.7503
 4889TIP3    H236159   1.238   4.184  11.367  1.2208  0.4227 -2.2296
 4890TIP3   OH236160   1.911   1.596   3.507 -0.0224 -0.4188 -0.1942
 4890TIP3    H136161   1.937   1.610   3.416  0.7185 -0.1700  0.0477
 4890TIP3    H236162   1.836   1.537   3.501  0.1058 -0.5230 -0.9556
 4891TIP3   OH236163   4.729   6.273  16.287 -0.3357  0.0797  0.3217
 4891TIP3    H136164   4.734   6.364  16.317 -1.2866  0.4507 -0.6115
 4891TIP3    H236165   4.752   6.277  16.195  1.9807 -0.9814  0.7826
 4892TIP3   OH236166   1.654   3.239  12.905  0.4169  0.0359 -0.4557
 4892TIP3    H136167   1.639   3.332  12.921 -0.9708 -0.0253 -1.2016
 4892TIP3    H236168   1.594   3.194  12.964  1.0823 -0.3967 -0.0956
 4893TIP3   OH236169   2.480   0.121   5.760 -0.0927  0.6538  0.1025
 4893TIP3    H136170   2.557   0.168   5.791  0.3955 -0.9743  1.5073
 4893TIP3    H236171   2.509   0.076   5.681  0.4716 -0.0810  0.7144
 4894TIP3   OH236172   4.062   5.207  16.051  0.5029 -0.4075 -0.3744
 4894TIP3    H136173   4.079   5.145  15.980  0.9039  0.0735 -0.7030
 4894TIP3    H236174   4.124   5.277  16.037 -1.4640  1.2312 -1.3978
 4895TIP3   OH236175   4.151   5.102  15.605  0.1439 -0.4454  0.2823
 4895TIP3    H136176   4.130   5.180  15.656 -1.0648 -1.2443  1.0465
 4895TIP3    H236177   4.080   5.096  15.541  0.9757 -0.1571 -0.6927
 4896TIP3   OH236178   0.732   0.537   4.773  0.4970 -0.0904 -0.7193
 4896TIP3    H136179   0.781   0.456   4.785  0.6094 -0.1339 -1.4248
 4896TIP3    H236180   0.691   0.553   4.858  0.0730 -1.1482 -0.7148
 4897TIP3   OH236181   6.357   2.647   3.891  0.2554  0.0749 -0.5701
 4897TIP3    H136182   6.369   2.610   3.979  0.8920 -1.7509 -1.3676
 4897TIP3    H236183   6.392   2.735   3.896  0.6476 -0.1406  0.8994
 4898TIP3   OH236184   5.749   6.201   0.360  0.0434 -0.5716 -0.2813
 4898TIP3    H136185   5.787   6.116   0.382 -0.9171 -1.0639 -0.4594
 4898TIP3    H236186   5.780   6.219   0.271 -0.2508 -1.0261 -0.4748
 4899TIP3   OH236187   2.270   2.037   5.056  0.4618 -0.1358 -0.1552
 4899TIP3    H136188   2.302   2.011   4.970  1.8936  0.2297  0.2433
 4899TIP3    H236189   2.222   1.960   5.087  0.5811 -0.5446 -0.9538
 4900TIP3   OH236190   1.904   4.962  13.254 -0.2840 -0.0532  0.4965
 4900TIP3    H136191   1.848   4.927  13.185 -0.0900  1.2049 -0.3277
 4900TIP3    H236192   1.965   4.891  13.274  1.8423  0.6001 -2.9913
 4901TIP3   OH236193   1.862   3.054  15.266 -0.0594  0.4076  0.1652
 4901TIP3    H136194   1.834   2.989  15.201  0.6535 -0.0389  0.2915
 4901TIP3    H236195   1.957   3.054  15.259  0.1169 -0.4645  1.9779
 4902TIP3   OH236196   2.846   3.455   0.284  0.4251 -0.3109 -0.0314
 4902TIP3    H136197   2.905   3.382   0.263  2.5800  2.1751 -3.5664
 4902TIP3    H236198   2.894   3.505   0.350  0.1975 -0.5838  0.3489
 4903TIP3   OH236199   1.967   3.498   2.101 -0.0689  0.1687 -0.0547
 4903TIP3    H136200   2.035   3.532   2.043  0.7494 -1.4723 -0.1361
 4903TIP3    H236201   1.912   3.573   2.121  0.7616  1.1760 -1.3926
 4904TIP3   OH236202   5.764   2.974   3.081  0.1314 -0.1104  0.3138
 4904TIP3    H136203   5.744   2.904   3.020  0.9564 -0.0262 -0.0703
 4904TIP3    H236204   5.779   2.929   3.165 -0.0236 -0.3230  0.2279
 4905TIP3   OH236205   4.013   3.615  12.378  0.8201  0.1128  0.1749
 4905TIP3    H136206   4.079   3.550  12.399  0.0481 -0.5799  0.5411
 4905TIP3    H236207   3.932   3.564  12.366  0.3358  0.9377 -0.1657
 4906TIP3   OH236208   1.145   2.609   2.526 -0.4479  0.1013  0.4531
 4906TIP3    H136209   1.179   2.602   2.437  0.9105  0.0022  0.9537
 4906TIP3    H236210   1.150   2.520   2.561 -0.5528  0.2227  0.7831
 4907TIP3   OH236211   4.667   0.857   4.119 -0.2055 -0.1357 -0.1001
 4907TIP3    H136212   4.613   0.807   4.057 -0.7050 -0.9014  0.9158
 4907TIP3    H236213   4.624   0.942   4.124  0.3146  0.2389 -1.4045
 4908TIP3   OH236214   1.155   1.937   2.553  0.1014 -0.0538 -0.0662
 4908TIP3    H136215   1.068   1.967   2.580 -0.2227 -1.3737  0.4168
 4908TIP3    H236216   1.169   1.976   2.467 -1.4152 -0.6657 -0.6060
 4909TIP3   OH236217   6.550   5.995  11.560 -0.3352  0.1409  0.3264
 4909TIP3    H136218   6.523   6.071  11.611 -2.4013  0.4838 -1.1233
 4909TIP3    H236219   6.504   5.921  11.601  0.9173 -0.2096  1.1516
 4910TIP3   OH236220   5.756   5.888   1.173 -0.4569 -0.0857  0.9797
 4910TIP3    H136221   5.821   5.923   1.234 -0.7982  0.4948  1.0237
 4910TIP3    H236222   5.780   5.796   1.161  0.9177  0.3389  0.2781
 4911TIP3   OH236223   0.159   0.964   2.187 -0.4297 -0.0530 -0.3784
 4911TIP3    H136224   0.187   1.025   2.255  2.8057 -0.4754 -1.1592
 4911TIP3    H236225   0.145   0.881   2.234 -0.0652  0.1118  0.0255
 4912TIP3   OH236226   1.198   5.137   2.718 -0.6406  0.3050  0.2368
 4912TIP3    H136227   1.182   5.226   2.687  0.0756  0.2851 -0.2137
 4912TIP3    H236228   1.113   5.095   2.713 -1.1216  1.1397  1.0495
 4913TIP3   OH236229   2.388   3.985   5.465 -0.2419 -0.2385 -0.7522
 4913TIP3    H136230   2.377   3.952   5.554 -1.0456 -2.5933 -1.6316
 4913TIP3    H236231   2.470   4.033   5.467  0.2356 -1.0390  1.0414
 4914TIP3   OH236232   0.682   3.235  16.357  0.0946  0.1323 -0.1154
 4914TIP3    H136233   0.617   3.224  16.287  0.3372  1.1482 -0.5218
 4914TIP3    H236234   0.709   3.146  16.379  0.1325 -0.1978 -1.4241
 4915TIP3   OH236235   3.487   5.388   0.217  1.2507  0.2030  0.4072
 4915TIP3    H136236   3.502   5.443   0.140  2.0594  0.1299  0.5022
 4915TIP3    H236237   3.401   5.348   0.202  0.6435  1.4875  0.3367
 4916TIP3   OH236238   4.714   5.197  11.140  0.2173  0.2124 -0.6728
 4916TIP3    H136239   4.709   5.177  11.234 -0.5062  3.6903  0.1672
 4916TIP3    H236240   4.772   5.129  11.105  1.1352 -0.8056  2.4131
 4917TIP3   OH236241   4.843   3.104  16.834  0.3928  0.4809  0.6665
 4917TIP3    H136242   4.915   3.042  16.819 -0.2084 -0.0478 -0.1143
 4917TIP3    H236243   4.883   3.174  16.885  1.1605 -0.4093  1.3502
 4918TIP3   OH236244   1.006   1.653  11.161  0.0350  0.2569  0.2079
 4918TIP3    H136245   0.963   1.576  11.198  1.4050 -0.4911  0.3003
 4918TIP3    H236246   1.099   1.631  11.161  0.5221  2.1144  0.7047
 4919TIP3   OH236247   5.886   1.953  17.178  0.4960  0.3627  0.1773
 4919TIP3    H136248   5.970   1.994  17.197  2.0361 -1.6105 -1.8576
 4919TIP3    H236249   5.868   1.899  17.256  1.3827  0.3942  0.4151
 4920TIP3   OH236250   5.291   1.279  14.893  0.5006  0.0187 -0.0560
 4920TIP3    H136251   5.379   1.257  14.862  0.2843  1.2106 -1.6199
 4920TIP3    H236252   5.296   1.371  14.919  0.4705 -0.6944  2.9339
 4921TIP3   OH236253   3.253   5.035  14.114  0.7571 -0.4093  0.5676
 4921TIP3    H136254   3.300   5.041  14.031 -1.0996 -0.1477 -0.5200
 4921TIP3    H236255   3.251   4.941  14.134  1.6822 -0.4228  0.6169
 4922TIP3   OH236256   1.124   6.081   1.309  0.1146  0.0585 -0.2859
 4922TIP3    H136257   1.189   6.056   1.243 -1.1843  0.3099 -1.7160
 4922TIP3    H236258   1.040   6.051   1.273 -0.6884  0.6188  1.0442
 4923TIP3   OH236259   2.831   4.120   6.369  0.0817 -0.0279 -0.2639
 4923TIP3    H136260   2.738   4.127   6.389  0.2548  0.6896  0.3298
 4923TIP3    H236261   2.872   4.092   6.451  0.3406 -0.7714 -0.6367
 4924TIP3   OH236262   0.898   4.207  16.755 -0.5972  0.1900  0.8469
 4924TIP3    H136263   0.808   4.204  16.789 -0.6822  2.1880  0.9381
 4924TIP3    H236264   0.888   4.236  16.664 -0.0118  2.2336  1.3714
 4925TIP3   OH236265   1.574   0.459  15.019 -0.4365 -0.6475 -0.4793
 4925TIP3    H136266   1.603   0.464  15.110  0.7432 -1.9969 -0.7571
 4925TIP3    H236267   1.563   0.365  15.002 -2.2320 -0.3429 -1.2672
 4926TIP3   OH236268   2.996   3.442   4.723 -0.1897  0.3083  0.2115
 4926TIP3    H136269   2.911   3.427   4.681  0.0616 -0.2276 -0.1113
 4926TIP3    H236270   2.981   3.417   4.815  0.3298 -2.6026 -0.3813
 4927TIP3   OH236271   2.826   1.897   3.533 -0.6719 -0.2313  0.0611
 4927TIP3    H136272   2.817   1.869   3.624 -3.2307 -0.3794 -0.1654
 4927TIP3    H236273   2.754   1.958   3.519  1.8206  2.7759 -0.8938
 4928TIP3   OH236274   4.365   6.299  13.252  0.1552 -0.6677 -0.4272
 4928TIP3    H136275   4.377   6.218  13.204 -1.2356 -1.3996  0.3899
 4928TIP3    H236276   4.451   6.318  13.290  0.3775 -2.0559 -0.2002
 4929TIP3   OH236277   1.437   1.952  12.106  0.6379 -0.8868 -0.0875
 4929TIP3    H136278   1.421   1.891  12.178  0.3537 -1.6346 -0.7544
 4929TIP3    H236279   1.532   1.959  12.100  0.6987  1.2164  1.9854
 4930TIP3   OH236280   4.233   4.992  17.263  0.6154 -0.5171 -0.1820
 4930TIP3    H136281   4.251   5.064  17.203  1.1484  0.6228  1.2566
 4930TIP3    H236282   4.145   4.963  17.241 -0.5290  2.0617  0.5401
 4931TIP3   OH236283   3.325   6.033  15.338 -1.1616 -0.6633  0.2008
 4931TIP3    H136284   3.388   5.980  15.288 -0.1272  1.7617 -1.2650
 4931TIP3    H236285   3.378   6.078  15.403 -1.9344 -0.9385  1.0484
 4932TIP3   OH236286   1.546   4.999   2.433 -0.4146 -0.3660 -0.1622
 4932TIP3    H136287   1.565   4.984   2.525  1.0428  0.7121 -0.2525
 4932TIP3    H236288   1.626   4.973   2.387  0.1537  2.2306 -0.7834
 4933TIP3   OH236289   2.003   5.297  12.834 -0.2573  0.4754  0.3418
 4933TIP3    H136290   1.928   5.308  12.776 -0.4719  0.5553  0.6285
 4933TIP3    H236291   2.075   5.270  12.777  0.1122  2.6593 -0.3087
 4934TIP3   OH236292   0.261   1.370   0.267 -0.3140 -0.0396  0.0698
 4934TIP3    H136293   0.306   1.351   0.185  3.1743 -1.1660  2.0411
 4934TIP3    H236294   0.312   1.440   0.307 -0.2233 -1.3354  2.4200
 4935TIP3   OH236295   5.429   2.582  11.344  0.3869  0.3270  0.4958
 4935TIP3    H136296   5.425   2.678  11.341  2.2939  0.4281 -1.7942
 4935TIP3    H236297   5.467   2.562  11.429 -0.7786  1.5289  1.3402
 4936TIP3   OH236298   0.355   6.379  12.472 -0.4648  0.5595 -0.5178
 4936TIP3    H136299   0.330   6.452  12.529 -0.3247  1.3067 -1.3885
 4936TIP3    H236300   0.379   6.308  12.532 -1.8954  0.7630  0.3518
 4937TIP3   OH236301   6.002   5.856  13.793 -0.4144  0.3960  0.3245
 4937TIP3    H136302   6.040   5.777  13.753 -2.3083 -0.3342 -0.1562
 4937TIP3    H236303   6.077   5.904  13.828  0.7678 -1.8897  1.1203
 4938TIP3   OH236304   0.146   4.477   4.289  0.4502  0.1556  0.5135
 4938TIP3    H136305   0.159   4.393   4.245  0.5482 -0.1653  1.1427
 4938TIP3    H236306   0.136   4.454   4.382 -0.7863  0.7251  0.5368
 4939TIP3   OH236307   3.929   4.532   6.132 -0.0604  0.0998  0.0100
 4939TIP3    H136308   3.956   4.559   6.220  0.4651  2.5360 -0.8125
 4939TIP3    H236309   3.995   4.467   6.106 -0.0088 -0.3731  1.2522
 4940TIP3   OH236310   1.336   5.252   4.606  0.1706 -0.6482 -0.4473
 4940TIP3    H136311   1.261   5.272   4.662 -0.2324 -0.7155 -0.9550
 4940TIP3    H236312   1.307   5.179   4.552 -0.2164  0.7347 -2.2064
 4941TIP3   OH236313   0.571   6.557  11.364 -0.0899  0.2975  0.2552
 4941TIP3    H136314   0.650   6.600  11.331  0.1237  1.5522  2.2648
 4941TIP3    H236315   0.499   6.613  11.335 -0.0402  0.5046  0.5338
 4942TIP3   OH236316   0.989   4.014  12.359 -0.4311 -0.2019 -0.3633
 4942TIP3    H136317   0.898   3.985  12.350 -0.9328  0.9394  0.8021
 4942TIP3    H236318   0.990   4.066  12.439  1.7340 -2.0447  0.9327
 4943TIP3   OH236319   0.748   1.145  11.360 -0.3294  1.2250 -0.1816
 4943TIP3    H136320   0.808   1.113  11.293  1.4846  0.6227  1.5957
 4943TIP3    H236321   0.738   1.238  11.342  2.0447  1.5818  0.0356
 4944TIP3   OH236322   1.049   1.250   4.029  0.2103 -0.3932 -0.2215
 4944TIP3    H136323   1.053   1.168   4.077  1.9905  1.4349  3.0880
 4944TIP3    H236324   0.989   1.305   4.080 -1.2012  0.3586 -2.5183
 4945TIP3   OH236325   6.386   4.023   0.578  0.2286 -0.1795 -0.2345
 4945TIP3    H136326   6.388   4.119   0.577 -1.3205 -0.1265 -1.4469
 4945TIP3    H236327   6.299   4.000   0.548  0.7345 -1.9912 -0.4409
 4946TIP3   OH236328   5.698   5.156  13.243  0.7114 -0.1804 -0.2576
 4946TIP3    H136329   5.620   5.203  13.212 -0.4685 -0.8721  1.4962
 4946TIP3    H236330   5.705   5.081  13.185 -0.1465 -0.2843 -0.2439
 4947TIP3   OH236331   6.067   1.552   3.857  0.2940 -0.5376  0.3173
 4947TIP3    H136332   6.142   1.596   3.816 -0.5740  0.2666 -0.4496
 4947TIP3    H236333   6.037   1.490   3.791  0.1632 -0.7259  0.5537
 4948TIP3   OH236334   4.918   5.211   4.214 -0.0890  0.1003 -0.3404
 4948TIP3    H136335   4.837   5.179   4.254  0.1659  0.1217  0.1988
 4948TIP3    H236336   4.902   5.304   4.197 -0.4781 -0.0775 -1.0170
 4949TIP3   OH236337   5.668   0.466  13.411 -0.7917 -0.7033 -0.4803
 4949TIP3    H136338   5.655   0.492  13.502  0.7174 -1.6234  0.0312
 4949TIP3    H236339   5.581   0.435  13.382 -1.3784 -0.0314  0.5029
 4950TIP3   OH236340   3.391   6.326  12.383 -0.2978 -0.3441 -0.2086
 4950TIP3    H136341   3.335   6.317  12.461 -0.0719 -1.8815 -0.1857
 4950TIP3    H236342   3.330   6.324  12.309 -0.3683 -0.9913 -0.1415
 4951TIP3   OH236343   6.405   4.088  16.654 -0.3924 -0.1838 -0.7107
 4951TIP3    H136344   6.310   4.092  16.665 -0.4190  0.4286 -1.0907
 4951TIP3    H236345   6.418   4.055  16.566 -0.2472 -0.3973 -0.6116
 4952TIP3   OH236346   5.526   1.120   1.684 -0.1280  0.0590  0.3754
 4952TIP3    H136347   5.463   1.048   1.674  0.8356 -1.0211  1.8127
 4952TIP3    H236348   5.589   1.105   1.613  0.7214 -1.2442  1.3617
 4953TIP3   OH236349   0.636   6.452   2.654 -0.5442  0.2279  0.1599
 4953TIP3    H136350   0.556   6.498   2.628  0.6956  1.2307 -2.2243
 4953TIP3    H236351   0.683   6.516   2.707  0.6926  1.4967 -2.2813
 4954TIP3   OH236352   5.327   5.914  15.369  0.5187  0.2228  0.3583
 4954TIP3    H136353   5.351   5.959  15.287  2.3327 -0.6862  0.3456
 4954TIP3    H236354   5.295   5.984  15.426  0.0601  1.0054 -0.8229
 4955TIP3   OH236355   3.215   6.385   4.540  0.0044  0.0448 -0.7831
 4955TIP3    H136356   3.151   6.324   4.577 -0.1991  0.7003 -0.0394
 4955TIP3    H236357   3.168   6.430   4.470 -0.1508  0.0749 -0.6581
 4956TIP3   OH236358   4.162   4.811  10.604  0.2287 -0.2341 -0.0783
 4956TIP3    H136359   4.140   4.901  10.578  0.4302 -0.3118 -0.5396
 4956TIP3    H236360   4.116   4.798  10.687  0.3616  0.3636  0.0948
 4957TIP3   OH236361   3.123   1.249  13.524 -0.2439 -0.2589  0.0502
 4957TIP3    H136362   3.077   1.166  13.531  0.5097 -0.7425 -0.6447
 4957TIP3    H236363   3.093   1.287  13.442 -0.6379  0.2004  0.3970
 4958TIP3   OH236364   3.272   3.703  13.605 -0.1364  0.0956 -0.0386
 4958TIP3    H136365   3.365   3.705  13.582 -0.5413 -0.4978 -1.9518
 4958TIP3    H236366   3.270   3.712  13.700  1.8470  0.5373  0.0019
 4959TIP3   OH236367   6.228   0.430   2.422 -0.5147  0.1529 -0.1710
 4959TIP3    H136368   6.216   0.406   2.331 -1.7588  0.0403  0.0042
 4959TIP3    H236369   6.236   0.525   2.422  0.8938  0.0439 -0.5242
 4960TIP3   OH236370   3.909   2.343   2.566  0.4038 -0.2012  0.2745
 4960TIP3    H136371   3.896   2.395   2.646 -0.1267 -2.1098  1.4963
 4960TIP3    H236372   3.997   2.305   2.577  0.9162  0.6363 -0.7587
 4961TIP3   OH236373   2.499   1.147  15.992  0.2116  0.7294  0.0385
 4961TIP3    H136374   2.417   1.097  15.992 -0.3149  1.5669 -0.4334
 4961TIP3    H236375   2.566   1.083  15.969 -0.2618 -0.0300  0.7110
 4962TIP3   OH236376   1.099   4.825   5.293  0.3112 -0.4609 -0.3021
 4962TIP3    H136377   1.057   4.886   5.353  0.0401 -0.8863 -0.0568
 4962TIP3    H236378   1.037   4.753   5.284 -0.5966  0.5092 -2.7155
 4963TIP3   OH236379   1.028   2.652  11.312 -0.2020  0.0914 -0.3367
 4963TIP3    H136380   0.938   2.619  11.321 -0.4551  0.7071 -0.5416
 4963TIP3    H236381   1.081   2.591  11.363 -0.8741  0.3577  0.7049
 4964TIP3   OH236382   3.100   0.578  14.799 -0.7827  1.3655 -0.3957
 4964TIP3    H136383   3.056   0.623  14.727 -1.4219  0.4505 -0.6026
 4964TIP3    H236384   3.035   0.514  14.830  0.0054  0.7586  0.0374
 4965TIP3   OH236385   2.646   4.785   0.263  0.4211 -0.1047 -0.5691
 4965TIP3    H136386   2.603   4.867   0.241  0.0021 -0.2769 -0.4174
 4965TIP3    H236387   2.624   4.726   0.191  0.8989 -0.0241 -0.7835
 4966TIP3   OH236388   0.219   4.914  13.262  0.1709  0.0996  0.3912
 4966TIP3    H136389   0.242   4.916  13.170 -0.8033  1.5939  0.1347
 4966TIP3    H236390   0.245   4.827  13.292 -0.1737 -0.6881 -1.4644
 4967TIP3   OH236391   2.996   2.840  14.624  0.1731  0.3005 -0.5696
 4967TIP3    H136392   3.028   2.868  14.709 -2.1164  1.8799 -0.1496
 4967TIP3    H236393   2.918   2.894  14.608  0.7615  0.3628 -3.8606
 4968TIP3   OH236394   6.187   3.977  16.956 -0.1253  0.2371  0.5908
 4968TIP3    H136395   6.226   4.062  16.935  0.4614  0.0322  0.8450
 4968TIP3    H236396   6.261   3.918  16.966 -0.3353  0.3155  3.2214
 4969TIP3   OH236397   3.936   5.137  15.418 -0.1819  0.3874 -0.2892
 4969TIP3    H136398   3.858   5.082  15.423 -0.7885  1.2789  3.6238
 4969TIP3    H236399   3.903   5.224  15.397 -0.1883  0.5854  0.4914
 4970TIP3   OH236400   6.129   4.995  13.132 -0.0477 -0.3161 -0.2039
 4970TIP3    H136401   6.069   4.920  13.128  1.8986 -1.9172 -1.6129
 4970TIP3    H236402   6.197   4.968  13.192  1.7272 -0.5995 -2.2234
 4971TIP3   OH236403   4.013   5.401   4.707 -0.0474  0.1109  0.2754
 4971TIP3    H136404   4.104   5.411   4.678  0.7202 -1.1731  2.0649
 4971TIP3    H236405   4.007   5.454   4.786 -0.0832 -1.7570  1.5872
 4972TIP3   OH236406   2.814   6.693   5.655 -0.2918  0.0288 -0.1608
 4972TIP3    H136407   2.819   6.654   5.742  0.8607 -0.1519 -0.2925
 4972TIP3    H236408   2.849   6.626   5.596 -3.7715 -1.0510 -1.2167
 4973TIP3   OH236409   3.348   1.845  13.576 -0.4278 -0.0451 -0.2688
 4973TIP3    H136410   3.390   1.795  13.645 -0.2380 -0.1872 -0.4848
 4973TIP3    H236411   3.406   1.919  13.561 -1.6881  1.3612  1.4300
 4974TIP3   OH236412   4.738   2.958   6.189  0.0269  0.3497 -0.6402
 4974TIP3    H136413   4.654   2.932   6.153 -0.3348 -0.9521  0.9931
 4974TIP3    H236414   4.728   3.050   6.211 -1.3102  0.0053  0.3199
 4975TIP3   OH236415   4.900   2.910  17.307 -0.3216  0.1705 -0.3586
 4975TIP3    H136416   4.900   2.879  17.216  0.9931  1.1879 -0.7339
 4975TIP3    H236417   4.897   3.005  17.300  0.4865  0.2894  0.6462
 4976TIP3   OH236418   2.894   2.602  10.927  1.0123  0.0922 -0.1573
 4976TIP3    H136419   2.945   2.527  10.958  3.0595  1.8879  1.1315
 4976TIP3    H236420   2.941   2.633  10.849  0.3616  0.2513 -0.4998
 4977TIP3   OH236421   5.945   1.984  14.583  0.2659 -0.0144 -0.2346
 4977TIP3    H136422   6.019   1.991  14.523  0.1695 -0.6907 -0.4421
 4977TIP3    H236423   5.900   2.068  14.576  0.9205  0.3446 -0.2223
 4978TIP3   OH236424   3.404   0.846  15.211  0.3982  0.2723 -0.5598
 4978TIP3    H136425   3.366   0.926  15.247 -1.2028 -1.7011  2.5725
 4978TIP3    H236426   3.485   0.875  15.168 -0.4682  3.5918 -0.2147
 4979TIP3   OH236427   2.051   3.630  12.479  0.4459 -0.5472  0.5721
 4979TIP3    H136428   1.988   3.671  12.420 -0.2316 -2.0749  0.1652
 4979TIP3    H236429   2.083   3.554  12.430  2.9498  0.4076  0.6068
 4980TIP3   OH236430   6.026   2.833   2.171  0.1286  0.8035 -0.1374
 4980TIP3    H136431   6.053   2.860   2.083 -2.1341  2.5880 -0.3608
 4980TIP3    H236432   6.026   2.737   2.167  1.0503  0.8162 -1.7328
 4981TIP3   OH236433   6.596   5.564  13.459 -0.8055 -0.2409  0.1551
 4981TIP3    H136434   6.507   5.596  13.463  0.1500  2.4728  2.6695
 4981TIP3    H236435   6.649   5.640  13.436  1.1668 -0.9482  1.9659
 4982TIP3   OH236436   3.778   2.548  16.086 -0.2561 -0.1386  0.3954
 4982TIP3    H136437   3.869   2.519  16.093  0.5993  2.0337 -0.8979
 4982TIP3    H236438   3.732   2.474  16.046  1.5367 -0.2731 -1.5700
 4983TIP3   OH236439   4.431   6.248   1.332 -0.2254 -0.2628 -0.5543
 4983TIP3    H136440   4.439   6.152   1.331 -0.5494 -0.3026 -0.0168
 4983TIP3    H236441   4.370   6.266   1.404 -0.2166  0.3452 -0.6939
 4984TIP3   OH236442   5.859   5.085   5.512 -0.1644  0.3824 -0.2254
 4984TIP3    H136443   5.880   5.004   5.466 -0.8276  0.7936 -1.2860
 4984TIP3    H236444   5.937   5.104   5.564  0.1366 -0.7381 -0.2421
 4985TIP3   OH236445   2.267   2.162  16.446  0.1980  0.0122 -0.0026
 4985TIP3    H136446   2.191   2.220  16.438  1.1269  1.1575 -0.8856
 4985TIP3    H236447   2.342   2.220  16.440  1.2008 -0.8774  2.6055
 4986TIP3   OH236448   2.108   0.612   1.736 -0.0737  0.0258  0.5539
 4986TIP3    H136449   2.110   0.521   1.707  0.5518 -0.0941  0.9550
 4986TIP3    H236450   2.035   0.616   1.798 -2.6557  0.7034 -2.2887
 4987TIP3   OH236451   2.113   2.427  13.771  0.2803 -0.2177  0.3497
 4987TIP3    H136452   2.101   2.336  13.747 -0.6536  0.0163 -0.1153
 4987TIP3    H236453   2.050   2.475  13.718  0.9200  0.7319  0.4129
 4988TIP3   OH236454   1.730   6.594   2.496 -0.2409 -0.1404 -0.2877
 4988TIP3    H136455   1.737   6.549   2.580 -0.0635 -2.1329 -1.3217
 4988TIP3    H236456   1.646   6.565   2.459 -1.2913  2.2361 -0.0179
 4989TIP3   OH236457   1.204   6.664  16.498  0.0587 -0.0947 -0.0614
 4989TIP3    H136458   1.181   6.738  16.554 -1.0196  0.4494 -1.2003
 4989TIP3    H236459   1.297   6.676  16.479 -0.3399  1.5728 -1.1080
 4990TIP3   OH236460   2.993   4.499   3.575 -0.9913  0.0465 -0.0984
 4990TIP3    H136461   3.038   4.548   3.644 -2.3902  1.3386 -0.0504
 4990TIP3    H236462   2.926   4.448   3.620 -0.4318 -0.8975 -0.2975
 4991TIP3   OH236463   0.831   1.137  17.301  0.1601 -0.4177  0.0309
 4991TIP3    H136464   0.924   1.140  17.280  0.1407  0.6818  0.0660
 4991TIP3    H236465   0.820   1.200  17.372 -0.5621 -0.7549  0.2279
 4992TIP3   OH236466   5.635   0.585  14.030  0.0952 -0.1363  0.3338
 4992TIP3    H136467   5.620   0.519  14.098  0.1524 -0.7423 -0.2336
 4992TIP3    H236468   5.729   0.602  14.034  0.0238  0.1709  0.7185
 4993TIP3   OH236469   0.773   2.590  13.566 -0.1989  0.1485 -0.0667
 4993TIP3    H136470   0.715   2.618  13.496 -0.3027  0.4057  0.1208
 4993TIP3    H236471   0.728   2.615  13.647  0.1474  0.3099  0.0808
 4994TIP3   OH236472   5.216   1.026   3.607 -0.0000  0.2663 -0.5555
 4994TIP3    H136473   5.215   1.110   3.561  0.8394 -0.3733 -1.8047
 4994TIP3    H236474   5.297   0.984   3.578  0.9025  0.0552  2.0053
 4995TIP3   OH236475   4.792   2.826   5.221 -0.3661 -0.1556 -0.1208
 4995TIP3    H136476   4.816   2.890   5.287  0.1075  0.2247 -0.6481
 4995TIP3    H236477   4.797   2.874   5.138 -0.0368 -0.8620 -0.5169
 4996TIP3   OH236478   4.847   5.343   4.517 -0.0895  0.0627  0.0220
 4996TIP3    H136479   4.776   5.282   4.538 -0.4075  0.6100  0.5579
 4996TIP3    H236480   4.820   5.426   4.557  0.6322  0.3984 -0.1737
 4997TIP3   OH236481   4.315   2.161   0.714  0.0830 -0.3064  0.1442
 4997TIP3    H136482   4.267   2.084   0.684  1.7739 -0.9723 -0.9880
 4997TIP3    H236483   4.351   2.200   0.635  2.0339 -0.2965  0.9733
 4998TIP3   OH236484   6.298   5.105   2.390 -0.0121 -0.1454 -0.3588
 4998TIP3    H136485   6.274   5.123   2.481  1.5861 -0.2479  0.1048
 4998TIP3    H236486   6.310   5.192   2.351 -2.3679 -0.0307 -1.0001
 4999TIP3   OH236487   6.078   4.254  15.702 -0.7166  0.6467  0.5678
 4999TIP3    H136488   6.167   4.224  15.724 -1.2674 -0.6458  1.1453
 4999TIP3    H236489   6.021   4.186  15.738 -1.7894 -1.0489 -3.7559
 5000TIP3   OH236490   5.873   0.826  14.594  0.2134  0.0962 -0.8073
 5000TIP3    H136491   5.914   0.786  14.517  0.5354 -1.6193  0.2200
 5000TIP3    H236492   5.946   0.846  14.652 -0.0785  0.8499 -0.6945
 5001TIP3   OH236493   1.050   0.401   3.838 -0.0196 -0.1399  0.3208
 5001TIP3    H136494   1.130   0.379   3.885 -0.1457 -0.2345  0.4933
 5001TIP3    H236495   1.056   0.496   3.823 -1.1116  0.3987  2.7440
 5002TIP3   OH236496   4.194   0.143  14.224  0.9963 -0.0915  0.2542
 5002TIP3    H136497   4.262   0.089  14.265  2.1057  0.3771 -0.9007
 5002TIP3    H236498   4.215   0.232  14.250  1.8447  0.2409 -1.4124
 5003TIP3   OH236499   2.535   1.148   1.980  0.3017 -0.8180  0.0376
 5003TIP3    H136500   2.589   1.072   1.961  1.2274  0.3385 -2.4390
 5003TIP3    H236501   2.577   1.188   2.056  1.9190 -0.9282 -0.7457
 5004TIP3   OH236502   6.351   0.948  15.701 -0.1501 -0.1477 -0.0578
 5004TIP3    H136503   6.396   1.029  15.724 -0.8323  1.0183 -2.4645
 5004TIP3    H236504   6.421   0.883  15.690  0.3031 -0.5389  3.6866
 5005TIP3   OH236505   3.153   6.766  14.776  0.0314 -0.1616 -0.8969
 5005TIP3    H136506   3.151   6.845  14.722  1.0456  1.8551  1.8308
 5005TIP3    H236507   3.244   6.735  14.770  0.6252  1.0992  0.9418
 5006TIP3   OH236508   0.070   2.044   0.269 -0.3630 -0.5082 -0.1819
 5006TIP3    H136509   0.073   2.118   0.330 -0.9624 -1.0798  0.5604
 5006TIP3    H236510   0.160   2.037   0.235  0.2451 -0.8413  1.4330
 5007TIP3   OH236511   5.305   4.319  17.220 -0.6182 -0.0232 -0.2027
 5007TIP3    H136512   5.324   4.400  17.173 -0.5073  1.3175  2.0047
 5007TIP3    H236513   5.390   4.276  17.232 -0.3070  0.8413  0.8117
 5008TIP3   OH236514   1.466   5.355  13.604  0.3253  0.7752 -0.4722
 5008TIP3    H136515   1.494   5.273  13.646 -0.1773  0.2003 -1.2293
 5008TIP3    H236516   1.548   5.402  13.588  0.5023  1.2432  1.5563
 5009TIP3   OH236517   5.299   5.630  15.436 -0.0459  0.1816 -0.6239
 5009TIP3    H136518   5.326   5.702  15.379  1.7027  1.0036  1.1074
 5009TIP3    H236519   5.270   5.673  15.517  2.9477 -0.9625  1.2244
 5010TIP3   OH236520   4.292   6.700   1.945  0.0409 -0.3996 -0.3427
 5010TIP3    H136521   4.346   6.766   1.988  0.2759 -0.8780  0.1054
 5010TIP3    H236522   4.278   6.633   2.012 -2.0127  0.2197 -0.0897
 5011TIP3   OH236523   6.421   5.805   3.885  0.2761 -0.5671 -0.2350
 5011TIP3    H136524   6.512   5.817   3.913 -0.1363 -0.8004  1.3460
 5011TIP3    H236525   6.373   5.793   3.967 -1.7978  3.3475 -0.6295
 5012TIP3   OH236526   1.714   2.584   2.010  0.0156  0.2467 -0.0654
 5012TIP3    H136527   1.618   2.590   2.015 -0.0757  3.3630 -2.3954
 5012TIP3    H236528   1.731   2.507   1.957 -1.0512 -1.2230  1.6044
 5013TIP3   OH236529   5.247   1.805  16.405  0.0539 -0.4555 -0.0853
 5013TIP3    H136530   5.208   1.851  16.332  0.2734 -0.0129  0.0726
 5013TIP3    H236531   5.321   1.757  16.367  0.4304  0.1194 -0.0817
 5014TIP3   OH236532   4.699   4.071   0.880  0.1181 -0.3936 -0.5662
 5014TIP3    H136533   4.642   3.994   0.887  1.8109 -1.6403  0.3583
 5014TIP3    H236534   4.758   4.063   0.955  0.6748  1.5597 -0.7502
 5015TIP3   OH236535   2.558   3.787  16.380 -0.4100  0.4240  0.6607
 5015TIP3    H136536   2.568   3.862  16.321 -1.0928  0.4807  0.6168
 5015TIP3    H236537   2.647   3.753  16.390 -0.2680  0.4834 -0.3080
 5016TIP3   OH236538   1.061   1.935  15.429  0.4421  0.3394  0.2511
 5016TIP3    H136539   1.123   1.915  15.358 -0.3434  1.1612 -0.6912
 5016TIP3    H236540   1.106   1.906  15.509  1.7535  0.2911 -0.4804
 5017TIP3   OH236541   4.961   4.087  17.032 -0.2820 -0.1491  0.1917
 5017TIP3    H136542   5.000   4.002  17.009  2.3847  0.6776  1.3027
 5017TIP3    H236543   4.972   4.140  16.953  0.4046 -0.0989  0.3098
 5018TIP3   OH236544   2.653   2.866  15.963  0.6421  0.4133 -0.1433
 5018TIP3    H136545   2.632   2.811  15.888 -0.9026  0.0438  0.5054
 5018TIP3    H236546   2.705   2.809  16.020  0.8219  0.3125 -0.4063
 5019TIP3   OH236547   2.001   2.334  17.400 -0.2395  0.0476 -0.7707
 5019TIP3    H136548   2.006   2.387  17.479  0.7612  0.5498 -1.1553
 5019TIP3    H236549   1.979   2.246  17.432  0.7145  0.1140  0.1353
 5020TIP3   OH236550   5.004   4.454  15.003  0.1249  0.4053 -0.1092
 5020TIP3    H136551   5.029   4.452  14.910 -2.1864  1.0843 -0.8191
 5020TIP3    H236552   4.974   4.543  15.018 -0.2589  0.0946  1.0961
 5021TIP3   OH236553   2.007   0.685  14.028  0.1243 -0.0256  0.3783
 5021TIP3    H136554   1.919   0.657  14.003  0.2938  0.6182 -1.0519
 5021TIP3    H236555   2.063   0.611  14.004  0.0495 -0.2115  0.7660
 5022TIP3   OH236556   6.708   5.912  11.949 -0.5513 -0.4985  0.2121
 5022TIP3    H136557   6.751   5.861  11.880  0.1388 -1.1834  1.1308
 5022TIP3    H236558   6.617   5.882  11.948 -0.1210 -1.8773  0.8385
 5023TIP3   OH236559   4.729   5.120   1.285 -0.0227 -0.4790  0.5536
 5023TIP3    H136560   4.771   5.196   1.326 -0.9977 -0.1103  0.8923
 5023TIP3    H236561   4.802   5.068   1.250  0.6716  0.5234  0.4648
 5024TIP3   OH236562   0.081   0.756   4.875  0.1387 -0.0238  0.1436
 5024TIP3    H136563   0.113   0.835   4.832 -0.9676 -1.0262 -2.6978
 5024TIP3    H236564  -0.014   0.762   4.868  0.0305 -1.5128  0.0613
 5025TIP3   OH236565   6.590   1.253   5.313 -0.6145  0.3445  0.1099
 5025TIP3    H136566   6.625   1.333   5.352 -1.9659  0.5324  1.0439
 5025TIP3    H236567   6.665   1.211   5.271 -0.0880  2.7055 -1.5132
 5026TIP3   OH236568   6.139   3.681   2.761  0.2806 -0.3653 -0.3893
 5026TIP3    H136569   6.115   3.651   2.673  0.5541  2.2491 -1.4628
 5026TIP3    H236570   6.179   3.605   2.803  0.9397 -1.4504 -2.8289
 5027TIP3   OH236571   4.025   1.274  17.004 -0.5856  0.0755  0.6633
 5027TIP3    H136572   4.023   1.353  16.950  0.0178 -0.2773  0.1143
 5027TIP3    H236573   4.113   1.272  17.041 -0.4977 -0.4974  0.4327
 5028TIP3   OH236574   3.892   5.268  14.401  0.4276  0.1450  0.3597
 5028TIP3    H136575   3.910   5.256  14.494  2.0564  0.1958  0.0756
 5028TIP3    H236576   3.799   5.291  14.398 -0.4467 -2.7217  1.7275
 5029TIP3   OH236577   1.323   5.988   4.023  0.3957 -0.2160  0.0603
 5029TIP3    H136578   1.353   6.014   4.110 -0.9879 -0.1592  0.5557
 5029TIP3    H236579   1.228   5.979   4.032  0.3818 -1.6341 -1.0910
 5030TIP3   OH236580   5.532   5.152   3.526  0.2257  0.0728 -0.2379
 5030TIP3    H136581   5.491   5.080   3.478 -1.2774  0.7192  0.0497
 5030TIP3    H236582   5.620   5.119   3.547 -0.7978 -2.1270  0.9134
 5031TIP3   OH236583   1.191   0.957   2.964 -0.3555  0.0693  0.0609
 5031TIP3    H136584   1.184   0.929   2.873  0.0146  0.9876 -0.2606
 5031TIP3    H236585   1.276   0.924   2.993  0.1759  1.0113 -0.3831
 5032TIP3   OH236586   5.934   4.748  15.530  0.7540 -0.2937 -0.1396
 5032TIP3    H136587   6.021   4.751  15.491  0.9581  2.9674  0.2715
 5032TIP3    H236588   5.875   4.773  15.459  0.4004 -0.4769  0.0886
 5033TIP3   OH236589   4.247   5.143   6.145 -0.2206  0.2116  0.0372
 5033TIP3    H136590   4.217   5.193   6.069  3.1930  0.0492 -1.5972
 5033TIP3    H236591   4.272   5.209   6.209 -1.7374  0.3735  0.5074
 5034TIP3   OH236592   6.089   5.395  14.767 -0.3112 -0.0659  0.5229
 5034TIP3    H136593   6.096   5.303  14.744 -1.8199 -0.2689  0.7264
 5034TIP3    H236594   6.015   5.399  14.827 -0.5938  1.3346  0.1342
 5035TIP3   OH236595   1.449   0.533   0.141 -0.2828 -0.0869  0.7994
 5035TIP3    H136596   1.449   0.467   0.072 -2.0418  0.5086  0.1457
 5035TIP3    H236597   1.541   0.552   0.157  0.1912 -1.0177 -0.6366
 5036TIP3   OH236598   0.876   1.006  11.164  0.4567 -0.6287  0.6172
 5036TIP3    H136599   0.853   1.073  11.100  1.6767  0.0322  0.8326
 5036TIP3    H236600   0.860   0.923  11.119 -0.6017 -0.1991  0.1738
 5037TIP3   OH236601   4.896   1.096   4.820 -0.6795 -0.4307 -0.1032
 5037TIP3    H136602   4.831   1.065   4.883  0.3294 -0.1944  1.0759
 5037TIP3    H236603   4.978   1.057   4.849  0.1099  1.0902 -0.2350
 5038TIP3   OH236604   2.236   5.476  12.684  0.9291 -0.3726 -0.3365
 5038TIP3    H136605   2.175   5.494  12.755  2.0894 -1.2515  0.9593
 5038TIP3    H236606   2.302   5.546  12.691  1.7575 -1.1832  0.3500
 5039TIP3   OH236607   5.183   1.585   1.633  0.4449 -0.1595  0.1599
 5039TIP3    H136608   5.108   1.545   1.589  0.6784 -0.4668  0.0414
 5039TIP3    H236609   5.188   1.674   1.597 -0.9332  0.4874  1.4260
 5040TIP3   OH236610   0.364   5.439  16.876  0.5437  0.2207  0.0487
 5040TIP3    H136611   0.307   5.494  16.822 -0.1642  0.1084  0.6633
 5040TIP3    H236612   0.402   5.377  16.814 -2.3428 -1.6885 -0.0393
 5041TIP3   OH236613   3.270   5.439   1.692 -0.3370  0.0514 -0.0324
 5041TIP3    H136614   3.352   5.451   1.646 -0.5506 -2.9993 -1.4576
 5041TIP3    H236615   3.217   5.516   1.669  0.7406  0.1805 -2.2644
 5042TIP3   OH236616   4.883   5.206  14.689  0.1347  0.1261  0.1865
 5042TIP3    H136617   4.819   5.212  14.759  0.1762 -0.2615  0.2563
 5042TIP3    H236618   4.869   5.119  14.651  0.9918 -0.1771  0.5580
 5043TIP3   OH236619   4.239   5.835  14.108 -0.4724 -0.4465 -0.3699
 5043TIP3    H136620   4.196   5.827  14.193 -0.4170 -0.3416 -0.3318
 5043TIP3    H236621   4.173   5.876  14.052  0.3299  1.9412  0.2897
 5044TIP3   OH236622   0.345   5.562   5.164  0.2088 -0.1850  0.0295
 5044TIP3    H136623   0.277   5.587   5.227  1.7145  2.3379  0.8179
 5044TIP3    H236624   0.375   5.476   5.194 -0.5070  0.0715  1.5598
 5045TIP3   OH236625   5.791   6.752   5.270  0.1702 -0.0358 -0.3227
 5045TIP3    H136626   5.765   6.712   5.187 -1.3482  0.0009  0.1023
 5045TIP3    H236627   5.855   6.819   5.246 -0.7259  0.4175 -1.5361
 5046TIP3   OH236628   3.379   4.978   3.016 -0.2924 -0.3335 -0.0185
 5046TIP3    H136629   3.294   4.949   3.048 -1.2517  0.6349 -1.5409
 5046TIP3    H236630   3.394   5.062   3.060 -0.4306 -0.2036 -0.2165
 5047TIP3   OH236631   1.950   3.759   1.902 -0.5273 -0.0689 -0.2376
 5047TIP3    H136632   2.026   3.748   1.958 -1.3348 -0.3538  0.8250
 5047TIP3    H236633   1.949   3.681   1.848 -1.7265 -1.5592  1.8130
 5048TIP3   OH236634   1.569   3.666   5.939 -0.3988  0.4749 -0.2989
 5048TIP3    H136635   1.612   3.720   5.872 -1.3718 -1.8699 -3.0210
 5048TIP3    H236636   1.618   3.585   5.940 -1.8709 -0.4569 -0.0056
 5049TIP3   OH236637   4.755   5.935  12.960  0.0821 -0.0194  0.2626
 5049TIP3    H136638   4.708   5.928  13.043  0.9115 -0.1681  0.7247
 5049TIP3    H236639   4.816   5.861  12.960 -1.0424 -1.0121 -1.2226
 5050TIP3   OH236640   4.215   2.576   5.748 -0.2776 -0.0918 -0.1336
 5050TIP3    H136641   4.186   2.620   5.668 -1.8196  0.4305  0.6617
 5050TIP3    H236642   4.310   2.577   5.743 -0.1086  3.9562  0.0559
 5051TIP3   OH236643   2.935   6.125   5.112 -0.2947  0.5528  0.2361
 5051TIP3    H136644   3.007   6.073   5.076 -1.5560 -0.6786 -0.6512
 5051TIP3    H236645   2.944   6.116   5.207 -0.2469 -1.0035  0.1109
 5052TIP3   OH236646   5.071   5.041  11.456 -0.4368  0.3130 -0.3161
 5052TIP3    H136647   5.116   4.958  11.469  0.5143  0.7711 -0.6289
 5052TIP3    H236648   5.100   5.071  11.370  1.2666  2.1976  0.8219
 5053TIP3   OH236649   0.329   0.015   6.265 -0.5378 -0.2655 -0.2753
 5053TIP3    H136650   0.337  -0.016   6.175  0.9328 -1.1472  0.1163
 5053TIP3    H236651   0.298   0.105   6.257 -0.7939 -0.4491 -1.6376
 5054TIP3   OH236652   3.789   4.339  16.747  0.7200  0.0198 -0.0171
 5054TIP3    H136653   3.794   4.298  16.660 -2.2468  0.3710 -0.4468
 5054TIP3    H236654   3.827   4.426  16.734  0.6098 -0.0478 -0.8916
 5055TIP3   OH236655   4.546   3.440  13.846 -0.3488  0.6318  0.5001
 5055TIP3    H136656   4.557   3.470  13.756 -1.7426  1.9347  0.7215
 5055TIP3    H236657   4.623   3.473  13.892 -1.0764  2.6661  0.3884
 5056TIP3   OH236658   5.266   4.901   0.893  0.4876 -0.0832 -0.3369
 5056TIP3    H136659   5.200   4.962   0.924 -0.6237 -1.4502  0.0402
 5056TIP3    H236660   5.234   4.871   0.808  1.6267  0.7356 -1.0933
 5057TIP3   OH236661   6.443   1.348   1.174  0.0042 -0.6901 -0.2043
 5057TIP3    H136662   6.512   1.361   1.109  0.8117 -0.1004  0.7429
 5057TIP3    H236663   6.479   1.284   1.236  0.1427  0.4176  0.8898
 5058TIP3   OH236664   5.996   3.702  17.047  0.6442  0.4160 -0.0153
 5058TIP3    H136665   5.961   3.786  17.075  0.8231  0.4098  0.2304
 5058TIP3    H236666   6.032   3.663  17.127 -1.2050 -0.7724  0.2854
 5059TIP3   OH236667   5.664   4.675   5.987 -0.2248  0.4958 -0.5746
 5059TIP3    H136668   5.719   4.693   6.064  1.1803 -1.7197 -0.9955
 5059TIP3    H236669   5.696   4.736   5.921  2.0343 -0.9628 -0.9103
 5060TIP3   OH236670   6.162   0.972  14.261  0.0348 -0.1821  0.2290
 5060TIP3    H136671   6.142   1.017  14.342  0.4759 -2.8842  1.9777
 5060TIP3    H236672   6.077   0.962  14.217 -0.6335 -0.8805  1.6235
 5061TIP3   OH236673   4.025   3.107  17.416  0.1377  1.2727 -0.2884
 5061TIP3    H136674   4.018   3.024  17.368  0.5138 -0.0576  1.8218
 5061TIP3    H236675   3.936   3.127  17.443  0.3738 -0.2380  1.9193
 5062TIP3   OH236676   1.212   3.978   4.459  0.2380 -0.0369 -0.9983
 5062TIP3    H136677   1.136   3.956   4.405 -1.0451 -0.3457  0.8570
 5062TIP3    H236678   1.217   4.073   4.455 -0.7954  0.0571 -0.4677
 5063TIP3   OH236679   5.077   6.452   6.803  0.4365  0.0854  0.6109
 5063TIP3    H136680   4.993   6.453   6.850 -0.6711  0.2391 -1.2773
 5063TIP3    H236681   5.126   6.526   6.839 -0.9591  1.0931  0.5080
 5064TIP3   OH236682   0.102   3.480  15.255 -0.1256 -0.3110  0.2053
 5064TIP3    H136683   0.159   3.423  15.308 -1.1421 -1.5382  0.0309
 5064TIP3    H236684   0.113   3.567  15.293  2.5056 -0.3097 -0.3359
 5065TIP3   OH236685   5.084   6.235  15.887  0.3616  0.0970  0.0584
 5065TIP3    H136686   5.055   6.177  15.957  1.7114  0.4911  0.9668
 5065TIP3    H236687   5.163   6.193  15.852 -1.0212 -0.8445 -2.2291
 5066TIP3   OH236688   2.834   6.701  14.284 -0.0233 -0.4369 -0.3669
 5066TIP3    H136689   2.775   6.763  14.241 -1.4475 -1.2032  0.4171
 5066TIP3    H236690   2.783   6.665  14.356  2.1645  0.5262  1.7934
 5067TIP3   OH236691   6.261   1.782   1.181  0.5368  0.0695  0.5508
 5067TIP3    H136692   6.229   1.700   1.219 -0.3283 -0.0288 -0.3383
 5067TIP3    H236693   6.202   1.849   1.215  0.3494  0.1127  0.1485
 5068TIP3   OH236694   1.308   2.199  10.941 -0.4813 -0.2343  0.2269
 5068TIP3    H136695   1.241   2.217  10.875  0.3352 -0.6029 -0.7242
 5068TIP3    H236696   1.335   2.109  10.924  0.3531 -0.0472  0.5092
 5069TIP3   OH236697   0.911   1.485   5.683  0.2710 -0.1611  0.2060
 5069TIP3    H136698   0.902   1.518   5.594 -2.0741  1.5887  0.9642
 5069TIP3    H236699   1.004   1.464   5.692  0.7242  0.3824 -2.3655
 5070TIP3   OH236700   5.627   5.276  12.090  0.2010 -0.0783  0.3343
 5070TIP3    H136701   5.560   5.232  12.143 -0.6083 -0.7346 -1.1717
 5070TIP3    H236702   5.619   5.368  12.115 -0.7868 -0.2424  0.7065
 5071TIP3   OH236703   3.255   2.901   3.110 -0.0002 -0.2111 -0.0420
 5071TIP3    H136704   3.161   2.910   3.126 -0.0766 -0.9491 -0.0683
 5071TIP3    H236705   3.296   2.957   3.177 -0.4366 -0.4105  0.3948
 5072TIP3   OH236706   1.227   6.016   1.791 -0.9575  0.4526  0.6613
 5072TIP3    H136707   1.166   5.945   1.811 -1.0747  0.9397  2.1628
 5072TIP3    H236708   1.206   6.042   1.701 -2.0068 -0.3142  0.6753
 5073TIP3   OH236709   2.619   4.688  15.703  1.2689 -0.5104  0.0574
 5073TIP3    H136710   2.650   4.706  15.614 -0.5280 -0.2594 -0.5669
 5073TIP3    H236711   2.645   4.598  15.721  1.0112 -0.8139 -1.0293
 5074TIP3   OH236712   4.782   5.328  11.622  0.1946  0.1017 -0.3659
 5074TIP3    H136713   4.875   5.307  11.633 -0.0134 -0.6479  0.0725
 5074TIP3    H236714   4.743   5.307  11.707 -0.2363  1.2413 -0.2633
 5075TIP3   OH236715   1.604   5.750   1.276  0.0196  0.0606  0.0959
 5075TIP3    H136716   1.563   5.790   1.353 -1.0788  0.3940 -0.6337
 5075TIP3    H236717   1.542   5.683   1.249  0.2487  0.1556 -0.6707
 5076TIP3   OH236718   4.529   2.917  16.454  0.0320  0.1554 -0.9441
 5076TIP3    H136719   4.563   2.847  16.510 -0.5590  0.6513  0.0553
 5076TIP3    H236720   4.574   2.996  16.483  0.5681  0.2487 -1.9566
 5077TIP3   OH236721   3.675   2.570  15.420  0.2024  0.2364 -0.2310
 5077TIP3    H136722   3.630   2.626  15.357  2.1764  2.5487  0.2672
 5077TIP3    H236723   3.716   2.501  15.368  0.1062  0.9227 -1.2300
 5078TIP3   OH236724   2.269   2.485   4.091 -0.2297 -0.0742 -0.0433
 5078TIP3    H136725   2.360   2.515   4.095 -0.8925  2.0368  0.4876
 5078TIP3    H236726   2.234   2.498   4.179 -1.1828 -0.3764 -0.3563
 5079TIP3   OH236727   6.461   4.842   6.092 -0.1707 -0.1734 -0.2922
 5079TIP3    H136728   6.491   4.933   6.081 -0.4900  0.1880  1.5274
 5079TIP3    H236729   6.527   4.801   6.147 -0.3696 -0.8733 -0.5626
 5080TIP3   OH236730   2.816   0.303  14.064  0.3933 -0.0544 -0.0665
 5080TIP3    H136731   2.845   0.236  14.002 -1.4347 -0.7880 -0.1971
 5080TIP3    H236732   2.862   0.282  14.145 -1.1412 -2.4232  0.3245
 5081TIP3   OH236733   5.551   4.134  15.539 -0.1666  0.4980  0.0368
 5081TIP3    H136734   5.536   4.218  15.582 -0.7030  1.3000 -1.6141
 5081TIP3    H236735   5.467   4.111  15.500  0.6507  0.6689 -1.9695
 5082TIP3   OH236736   0.750   2.377   4.377 -0.1393 -0.9640  0.7161
 5082TIP3    H136737   0.709   2.450   4.424  0.7671 -0.2605  0.4458
 5082TIP3    H236738   0.680   2.313   4.366 -1.2918  0.3805 -0.1002
 5083TIP3   OH236739   5.218   3.991  14.715 -0.1077  0.0970 -0.4891
 5083TIP3    H136740   5.239   4.053  14.645 -0.9935  1.1324  0.1106
 5083TIP3    H236741   5.303   3.964  14.749  0.3301 -0.2047 -1.7609
 5084TIP3   OH236742   0.057   0.698  15.569  0.5678  0.3258 -0.6124
 5084TIP3    H136743  -0.010   0.692  15.501  0.9299 -0.0074 -0.9425
 5084TIP3    H236744   0.031   0.632  15.634  0.2396  0.6227 -0.4403
 5085TIP3   OH236745   1.963   5.381  12.387  0.5515  0.5110  0.1836
 5085TIP3    H136746   1.878   5.401  12.348  1.2050 -1.8461 -2.8952
 5085TIP3    H236747   2.013   5.462  12.379 -0.5791  1.1761 -0.4130
 5086TIP3   OH236748   4.641   0.016   2.677 -0.8919  0.2369 -0.0540
 5086TIP3    H136749   4.683   0.081   2.734 -0.5852 -0.0633  0.0649
 5086TIP3    H236750   4.568  -0.017   2.729  0.1874 -1.0221  0.7198
 5087TIP3   OH236751   1.259   2.771   1.113  0.0055 -0.3301 -0.2436
 5087TIP3    H136752   1.239   2.801   1.024 -0.6745 -1.3132 -0.4412
 5087TIP3    H236753   1.267   2.676   1.105  1.5630 -0.2866  0.4617
 5088TIP3   OH236754   6.434   6.546  15.062 -0.0884  0.3632 -0.0362
 5088TIP3    H136755   6.412   6.637  15.043 -0.9682  0.4999  1.5060
 5088TIP3    H236756   6.492   6.520  14.990  0.0813  2.0855 -0.5613
 5089TIP3   OH236757   3.478   4.624   4.551  0.0707 -0.2453  0.1990
 5089TIP3    H136758   3.399   4.647   4.599 -0.4443  0.3162 -0.8800
 5089TIP3    H236759   3.461   4.653   4.461  2.0106  1.1281  0.1997
 5090TIP3   OH236760   4.816   1.746   3.486 -0.0764 -0.1792 -0.2918
 5090TIP3    H136761   4.818   1.662   3.439  1.1190  0.2261 -1.0070
 5090TIP3    H236762   4.774   1.726   3.569  0.2765 -1.5139 -0.4111
 5091TIP3   OH236763   3.884   0.450  16.458 -0.4121 -0.7323 -0.2189
 5091TIP3    H136764   3.907   0.375  16.512 -0.1232 -0.4814  0.0030
 5091TIP3    H236765   3.840   0.411  16.382 -0.9418 -1.0764  0.2514
 5092TIP3   OH236766   1.521   0.925   5.193 -0.0211 -0.1746  0.2861
 5092TIP3    H136767   1.565   1.008   5.212 -0.0003  0.0345 -0.6063
 5092TIP3    H236768   1.592   0.860   5.193  0.2307  0.0824 -0.6494
 5093TIP3   OH236769   5.417   0.988  15.335  0.1691 -0.1327 -0.2517
 5093TIP3    H136770   5.391   0.995  15.427 -2.4441 -0.2442 -0.9080
 5093TIP3    H236771   5.353   0.928  15.296  1.8415 -0.9288 -1.9532
 5094TIP3   OH236772   2.482   2.500   0.198  0.4129 -0.0125 -0.0710
 5094TIP3    H136773   2.509   2.591   0.210  0.0317  0.2592 -1.1539
 5094TIP3    H236774   2.538   2.467   0.128 -2.0726  0.6571 -2.5957
 5095TIP3   OH236775   3.490   3.547   0.578 -0.3582 -0.5387  0.0898
 5095TIP3    H136776   3.423   3.480   0.572  0.5177 -1.3084 -2.0834
 5095TIP3    H236777   3.537   3.527   0.659 -0.5922 -2.0734 -0.1304
 5096TIP3   OH236778   5.867   1.527  13.838 -0.0639 -0.4110  0.1041
 5096TIP3    H136779   5.940   1.522  13.899 -0.0984  0.0287  0.1886
 5096TIP3    H236780   5.794   1.560  13.891 -0.4588 -1.3324  0.1394
 5097TIP3   OH236781   2.457   4.204  17.520 -0.2355  0.0589 -0.3144
 5097TIP3    H136782   2.425   4.265  17.587  0.3015  0.1304 -0.1116
 5097TIP3    H236783   2.388   4.201  17.455 -0.9141 -0.2516  0.3994
 5098TIP3   OH236784   0.536   3.160  16.151  0.2124 -0.5903  0.2469
 5098TIP3    H136785   0.582   3.091  16.101  1.3924 -0.5618  1.2486
 5098TIP3    H236786   0.451   3.167  16.108  1.5940  0.3181 -2.5802
 5099TIP3   OH236787   4.100   4.185  15.478 -0.3031  0.3551  0.4989
 5099TIP3    H136788   4.010   4.196  15.508 -0.6371 -1.0391  0.0525
 5099TIP3    H236789   4.092   4.137  15.395  0.8569  0.0827  0.5320
 5100TIP3   OH236790   0.457   3.752   3.418 -0.0662  0.0247 -0.1540
 5100TIP3    H136791   0.365   3.771   3.437  0.0896  0.4838  0.1554
 5100TIP3    H236792   0.454   3.688   3.347 -0.6342 -0.4923  0.3241
 5101TIP3   OH236793   0.443   1.506   1.948  0.3617 -0.0708  0.3803
 5101TIP3    H136794   0.412   1.589   1.984 -0.4806 -0.4320  0.5149
 5101TIP3    H236795   0.449   1.521   1.854  0.0433  0.0927  0.3848
 5102TIP3   OH236796   4.502   2.237   0.910 -0.0449 -0.3290 -0.0286
 5102TIP3    H136797   4.546   2.154   0.890 -0.7480 -1.1394  1.6213
 5102TIP3    H236798   4.418   2.231   0.863 -1.0908 -1.6131  1.8776
 5103TIP3   OH236799   2.558   3.307   2.759 -0.3643 -0.1491  0.8296
 5103TIP3    H136800   2.554   3.229   2.704 -1.7402  1.1551 -1.0264
 5103TIP3    H236801   2.651   3.331   2.758 -0.0849 -1.1653  0.5965
 5104TIP3   OH236802   4.915   5.773   0.916  0.2082  0.4719  0.0328
 5104TIP3    H136803   4.894   5.826   0.839 -1.3418  1.4856  1.1034
 5104TIP3    H236804   5.009   5.759   0.911  0.4875  2.4248 -0.8527
 5105TIP3   OH236805   1.192   4.328   3.925  0.0443 -0.7911 -0.1029
 5105TIP3    H136806   1.183   4.236   3.951 -0.7249 -1.1253 -1.4573
 5105TIP3    H236807   1.287   4.344   3.926  0.0789 -0.7116  2.9749
 5106TIP3   OH236808   6.408   4.773   3.486  0.3651  0.2033  0.0749
 5106TIP3    H136809   6.341   4.831   3.522 -1.3226 -0.3293 -2.0256
 5106TIP3    H236810   6.481   4.780   3.548 -1.5466  0.9047  2.4029
 5107TIP3   OH236811   2.901   5.417   0.709  0.6435 -0.3153 -0.6390
 5107TIP3    H136812   2.909   5.471   0.788  3.8806 -1.1125 -0.2557
 5107TIP3    H236813   2.826   5.360   0.727  0.9805 -0.1455  1.6841
 5108TIP3   OH236814   0.749   3.190   5.034  0.1767 -0.5532  0.0714
 5108TIP3    H136815   0.679   3.153   4.981 -0.3820 -0.8537  0.9967
 5108TIP3    H236816   0.735   3.284   5.030 -0.8734 -0.6517  1.0195
 5109TIP3   OH236817   3.657   4.421   5.185  0.5006 -0.1900 -0.5698
 5109TIP3    H136818   3.688   4.351   5.128  2.2242  0.6655 -0.7691
 5109TIP3    H236819   3.675   4.501   5.137  0.0197  0.4537  0.2967
 5110TIP3   OH236820   3.481   1.881  16.340 -0.0968  0.0834 -0.3211
 5110TIP3    H136821   3.407   1.823  16.356  0.3546 -0.1328  1.1920
 5110TIP3    H236822   3.546   1.854  16.405  0.4266  1.7674 -0.1067
 5111TIP3   OH236823   4.409   5.020   0.493  0.0739 -0.2244  0.4483
 5111TIP3    H136824   4.492   5.015   0.539  1.1705  0.1227 -1.3932
 5111TIP3    H236825   4.381   5.111   0.503  0.7309  0.0625 -0.2525
 5112TIP3   OH236826   0.364   4.836  16.211 -0.6683  0.0803 -0.2126
 5112TIP3    H136827   0.291   4.783  16.179 -0.3195  0.0984 -1.0692
 5112TIP3    H236828   0.326   4.891  16.279 -1.7270  0.8502 -1.3684
 5113TIP3   OH236829   6.541   0.099  11.803 -0.1403  0.4399  0.0492
 5113TIP3    H136830   6.574   0.067  11.886 -1.1905  2.1295  1.1829
 5113TIP3    H236831   6.614   0.147  11.765  0.3762 -0.4303 -0.0754
 5114TIP3   OH236832   3.852   4.104   3.121  0.2753 -0.1096 -0.2014
 5114TIP3    H136833   3.761   4.083   3.140  0.8994 -2.2159  0.7258
 5114TIP3    H236834   3.902   4.055   3.186  2.0498  2.3242  0.4123
 5115TIP3   OH236835   5.530   2.203  14.247  0.3527 -0.1132  0.5854
 5115TIP3    H136836   5.464   2.134  14.251 -1.6776  1.7183  0.4063
 5115TIP3    H236837   5.529   2.243  14.333  2.2040 -0.8422  0.9912
 5116TIP3   OH236838   4.624   2.962  15.852  0.0226 -0.2177 -0.4280
 5116TIP3    H136839   4.692   2.895  15.860 -0.7896 -0.8993  1.7712
 5116TIP3    H236840   4.613   2.995  15.941 -0.9195  1.5294 -1.1471
 5117TIP3   OH236841   0.309   4.626  11.206  0.1716  0.2220 -0.6301
 5117TIP3    H136842   0.327   4.714  11.240  1.5096  0.5419 -2.0556
 5117TIP3    H236843   0.244   4.640  11.137 -0.4516 -0.0775 -0.1208
 5118TIP3   OH236844   4.932   0.270   2.959  0.4662  0.4176  0.4822
 5118TIP3    H136845   4.906   0.293   2.870 -0.9672  0.4865  0.8891
 5118TIP3    H236846   4.966   0.181   2.952  1.7185  0.9274 -0.3438
 5119TIP3   OH236847   0.109   5.451   1.958 -0.0080 -0.0361 -0.4253
 5119TIP3    H136848   0.044   5.386   1.986 -1.2509  0.7971 -1.2540
 5119TIP3    H236849   0.062   5.534   1.962  1.7540  0.9726  1.3085
 5120TIP3   OH236850   4.023   5.005  15.197  0.2365 -0.0404  0.0324
 5120TIP3    H136851   4.000   4.918  15.228 -0.5194 -0.1519 -0.7777
 5120TIP3    H236852   4.000   5.063  15.269 -0.6578 -0.3760  0.0370
 5121TIP3   OH236853   3.723   1.334  17.080 -0.2358 -0.2662 -0.0469
 5121TIP3    H136854   3.678   1.269  17.135  1.7033 -1.3441  0.3809
 5121TIP3    H236855   3.807   1.293  17.059  0.5309  1.6075 -0.8610
 5122TIP3   OH236856   0.858   2.648   2.547  0.4682  0.1883  0.2797
 5122TIP3    H136857   0.954   2.648   2.539  0.5595  1.4501  1.0433
 5122TIP3    H236858   0.835   2.556   2.552  1.5074 -0.2074 -1.2847
 5123TIP3   OH236859   4.358   6.676   3.506 -0.1311 -0.1624 -0.1545
 5123TIP3    H136860   4.278   6.709   3.546 -0.4018  0.2387 -1.0050
 5123TIP3    H236861   4.415   6.754   3.499  0.2917 -0.4223  0.3474
 5124TIP3   OH236862   0.529   6.021  13.600 -0.5819 -0.6884 -0.1118
 5124TIP3    H136863   0.519   6.000  13.507  0.9296  0.0703 -0.4667
 5124TIP3    H236864   0.448   6.066  13.623  0.3199  2.0851 -1.9302
 5125TIP3   OH236865   2.802   1.234  12.506  0.0707  0.2045  0.4514
 5125TIP3    H136866   2.765   1.322  12.510  0.5424  0.5403 -1.4250
 5125TIP3    H236867   2.888   1.246  12.464 -0.2369 -1.2277 -0.6641
 5126TIP3   OH236868   5.065   2.038   1.177 -0.3257 -0.2191 -0.2657
 5126TIP3    H136869   5.076   2.108   1.113  1.9112  1.5795  1.8867
 5126TIP3    H236870   5.142   1.982   1.164  0.1626  0.1823  0.8227
 5127TIP3   OH236871   4.369   3.232   5.824 -0.2966  0.1245  0.3401
 5127TIP3    H136872   4.318   3.252   5.903  0.4119 -0.0328  0.8522
 5127TIP3    H236873   4.359   3.309   5.768  1.3266  1.4289  1.7186
 5128TIP3   OH236874   1.529   0.073   3.325  0.2602  0.5178 -0.0366
 5128TIP3    H136875   1.512   0.099   3.416 -1.6616  1.9792 -0.7507
 5128TIP3    H236876   1.608   0.018   3.330 -0.0730  0.1519  2.5529
 5129TIP3   OH236877   6.171   6.582  16.979 -0.2453 -0.5370  0.1907
 5129TIP3    H136878   6.149   6.534  17.059  0.0236 -0.7866  0.1154
 5129TIP3    H236879   6.244   6.533  16.941 -2.0076 -1.9486 -1.5772
 5130TIP3   OH236880   2.709   2.910   5.473 -0.0295  0.1758 -0.5543
 5130TIP3    H136881   2.621   2.927   5.438 -0.3679 -1.5085 -0.5868
 5130TIP3    H236882   2.702   2.825   5.515  0.8290  1.3041  2.1064
 5131TIP3   OH236883   5.724   2.437   1.060  0.5247  0.3407 -0.1561
 5131TIP3    H136884   5.753   2.528   1.048 -1.7890  1.2108  0.2082
 5131TIP3    H236885   5.662   2.423   0.988  0.6633 -0.8672 -0.0555
 5132TIP3   OH236886   1.604   0.098   4.793 -0.0442 -0.3739 -0.0414
 5132TIP3    H136887   1.575   0.007   4.783  1.9617 -1.1713  0.8562
 5132TIP3    H236888   1.698   0.095   4.774 -0.2677  1.9047 -1.9666
 5133TIP3   OH236889   1.053   3.678  17.173 -0.2736  0.0740 -0.2469
 5133TIP3    H136890   1.063   3.608  17.238 -0.8308  0.4870  0.2911
 5133TIP3    H236891   1.037   3.631  17.091 -4.0219 -0.5097  0.6124
 5134TIP3   OH236892   2.591   2.846   6.312 -0.2051  0.4768  0.5891
 5134TIP3    H136893   2.630   2.905   6.376  0.4537 -0.4539  1.0740
 5134TIP3    H236894   2.497   2.861   6.319 -0.0231  1.9269  0.2280
 5135TIP3   OH236895   5.298   4.402  15.402  0.3988 -0.1385 -0.5240
 5135TIP3    H136896   5.375   4.403  15.459  0.7733 -0.8644 -1.0051
 5135TIP3    H236897   5.275   4.495  15.391  0.7061  0.0425  0.2764
 5136TIP3   OH236898   2.791   2.881   0.032 -0.5568  0.0156 -0.2413
 5136TIP3    H136899   2.863   2.945   0.030 -0.4615 -0.0996 -0.5150
 5136TIP3    H236900   2.794   2.839  -0.054  0.5129 -1.6175  0.5292
 5137TIP3   OH236901   2.033   0.637   5.698 -0.0782 -0.0123 -0.1967
 5137TIP3    H136902   2.047   0.542   5.703 -0.6908 -0.1265 -0.6343
 5137TIP3    H236903   2.103   0.674   5.753 -0.6989 -0.7783  1.1573
 5138TIP3   OH236904   6.464   2.206   5.935  0.3269  0.1137 -0.0085
 5138TIP3    H136905   6.377   2.244   5.934 -0.3352 -1.2835  0.7980
 5138TIP3    H236906   6.482   2.184   5.843 -0.2687  0.1754 -0.1410
 5139TIP3   OH236907   1.646   3.131   2.119 -0.3923  0.2219  0.1252
 5139TIP3    H136908   1.732   3.090   2.124  0.6668  2.3654  0.3418
 5139TIP3    H236909   1.610   3.123   2.207  0.6698  1.4921  0.7024
 5140TIP3   OH236910   1.912   3.917  11.006 -0.0871  0.7736  0.1929
 5140TIP3    H136911   1.911   3.930  10.911  0.5788 -2.9116 -0.4544
 5140TIP3    H236912   1.835   3.865  11.024  1.9364 -2.2352  0.8880
 5141TIP3   OH236913   4.917   3.213  14.886  0.4448  0.4136  0.3285
 5141TIP3    H136914   4.936   3.302  14.856 -0.5549  0.6296  0.2956
 5141TIP3    H236915   4.834   3.191  14.844 -0.7060  0.4913  2.4473
 5142TIP3   OH236916   6.620   3.188  11.113 -0.2248 -0.4463 -0.0615
 5142TIP3    H136917   6.670   3.122  11.063  0.1067  0.5728 -1.1266
 5142TIP3    H236918   6.649   3.272  11.077 -1.7622  0.2312  0.1969
 5143TIP3   OH236919   4.253   3.515  12.485  0.1890  0.7315  0.0104
 5143TIP3    H136920   4.332   3.514  12.432  0.3153  0.2344  0.2035
 5143TIP3    H236921   4.249   3.428  12.524 -0.0202  1.0082  0.6325
 5144TIP3   OH236922   0.110   4.203  12.051  0.2297  0.2160 -0.1559
 5144TIP3    H136923   0.136   4.284  12.005 -0.1080  0.5129  0.1699
 5144TIP3    H236924   0.166   4.201  12.129  0.6506 -0.1743 -0.4650
 5145TIP3   OH236925   2.722   2.805  16.385  0.0016  0.3397 -0.0966
 5145TIP3    H136926   2.685   2.892  16.399 -1.7582 -0.2444 -0.7647
 5145TIP3    H236927   2.756   2.779  16.470 -0.9993  1.0106  0.5263
 5146TIP3   OH236928   5.077   2.067  12.785  0.1242 -0.3065  0.0381
 5146TIP3    H136929   5.047   2.039  12.699  2.5541 -1.4010 -0.5460
 5146TIP3    H236930   5.004   2.118  12.821 -1.8487 -1.7664 -1.6734
 5147TIP3   OH236931   4.055   6.258  16.549  0.1237 -0.2956  0.3373
 5147TIP3    H136932   4.083   6.173  16.581  0.4681  0.0995  1.0843
 5147TIP3    H236933   3.976   6.278  16.599 -0.4811 -0.5696 -0.4709
 5148TIP3   OH236934   4.118   4.474   0.279  0.1214 -0.0118 -0.2861
 5148TIP3    H136935   4.173   4.538   0.323  0.3637 -1.0809  1.0208
 5148TIP3    H236936   4.141   4.482   0.187  0.0180  1.8813 -0.2000
 5149TIP3   OH236937   3.496   4.047   5.728  0.4079 -0.0469  0.9468
 5149TIP3    H136938   3.433   4.057   5.800 -0.3485 -1.8781  0.6023
 5149TIP3    H236939   3.463   4.106   5.659  0.5311  0.9046  1.6769
 5150TIP3   OH236940   5.756   1.234  16.355  0.0481 -0.3407 -0.0319
 5150TIP3    H136941   5.744   1.154  16.303  0.5661 -1.4375  1.4803
 5150TIP3    H236942   5.817   1.210  16.424  0.7420  1.5663  0.0949
 5151TIP3   OH236943   4.431   2.376   1.115  0.2650  0.0349  0.2859
 5151TIP3    H136944   4.462   2.350   1.028  0.2362 -0.1053  0.3182
 5151TIP3    H236945   4.382   2.301   1.146  0.6572 -0.0861  0.6162
 5152TIP3   OH236946   6.115   3.220   4.432 -0.7091 -0.2607  0.2935
 5152TIP3    H136947   6.062   3.276   4.488 -1.2799  0.0597 -0.5610
 5152TIP3    H236948   6.186   3.276   4.402 -0.9525 -0.1581 -0.0914
 5153TIP3   OH236949   2.150   0.058   2.870  0.1311 -0.2013  0.0111
 5153TIP3    H136950   2.089   0.037   2.799  0.6242 -1.0756 -0.1632
 5153TIP3    H236951   2.113   0.017   2.948  0.3891 -0.5585 -0.0534
 5154TIP3   OH236952   3.726   3.156   6.022  0.1647  0.3987  0.1674
 5154TIP3    H136953   3.735   3.247   5.993  0.6163  0.0011 -1.0135
 5154TIP3    H236954   3.634   3.136   6.008  0.3979  0.1703 -1.2321
 5155TIP3   OH236955   5.194   4.139   2.582 -0.0891  0.0322 -0.2280
 5155TIP3    H136956   5.236   4.136   2.496  0.2627  1.1079 -0.1104
 5155TIP3    H236957   5.122   4.077   2.576 -0.6747  0.8137 -1.6261
 5156TIP3   OH236958   5.039   1.487   3.384 -0.9202 -0.4224  0.0661
 5156TIP3    H136959   4.949   1.460   3.405 -0.8473 -1.4905 -0.8753
 5156TIP3    H236960   5.036   1.510   3.291 -0.3252  0.0261  0.1507
 5157TIP3   OH236961   6.545   1.640   0.529  0.4941 -0.1926  0.0521
 5157TIP3    H136962   6.458   1.630   0.491  0.2163 -0.4502  0.7326
 5157TIP3    H236963   6.578   1.723   0.494  0.0459 -0.1841 -0.3446
 5158TIP3   OH236964   3.237   5.297  16.544  0.1224 -0.0199  0.1512
 5158TIP3    H136965   3.216   5.203  16.548 -0.2414  0.0059 -0.7477
 5158TIP3    H236966   3.173   5.338  16.602 -1.0669 -0.1457 -1.0122
 5159TIP3   OH236967   1.251   6.727   4.216  0.2764 -0.2948  0.1046
 5159TIP3    H136968   1.279   6.818   4.220  0.4772 -0.3989  2.1493
 5159TIP3    H236969   1.322   6.682   4.171  0.0868  0.5470 -1.1044
 5160TIP3   OH236970   3.047   4.331  14.872  0.2792 -0.6078 -0.1476
 5160TIP3    H136971   2.974   4.339  14.933  1.3997 -0.0099  1.1616
 5160TIP3    H236972   3.035   4.404  14.811 -0.4107 -0.7347 -0.1702
 5161TIP3   OH236973   4.700   2.495  13.016  0.1679  0.5350 -0.5748
 5161TIP3    H136974   4.652   2.565  13.061 -0.0007  0.0988 -0.0635
 5161TIP3    H236975   4.697   2.519  12.924  0.4761  1.4195 -0.3596
 5162TIP3   OH236976   3.601   1.490  12.473 -0.3808 -0.0635 -0.0231
 5162TIP3    H136977   3.620   1.467  12.564 -1.5269  1.8238  0.7522
 5162TIP3    H236978   3.685   1.520  12.438  0.0219 -0.5970  0.4648
 5163TIP3   OH236979   3.638   1.595   4.597  0.3464 -0.1044 -0.1202
 5163TIP3    H136980   3.719   1.548   4.576 -0.2818 -1.0910 -0.4082
 5163TIP3    H236981   3.571   1.527   4.600 -0.0380  0.2695  2.8602
 5164TIP3   OH236982   4.259   1.305   2.216 -0.5517  0.4321 -0.0405
 5164TIP3    H136983   4.222   1.245   2.280  0.8698 -1.7750 -1.1431
 5164TIP3    H236984   4.211   1.287   2.135 -1.2597  2.0476 -0.0216
 5165TIP3   OH236985   6.294   0.701   4.055 -0.0161  0.2011 -0.4227
 5165TIP3    H136986   6.351   0.769   4.020 -0.1202  0.0525 -0.8825
 5165TIP3    H236987   6.271   0.732   4.143  1.7756 -0.3370  0.2661
 5166TIP3   OH236988   4.348   2.016  10.851  0.1513 -0.7418  0.0480
 5166TIP3    H136989   4.422   2.057  10.898  0.6944  0.1727 -1.5294
 5166TIP3    H236990   4.293   2.090  10.825 -0.8465 -1.3502  0.3755
 5167TIP3   OH236991   6.330   0.948   0.988  0.0947 -0.4095 -0.1814
 5167TIP3    H136992   6.287   1.033   0.988  0.4109 -0.2290  1.1614
 5167TIP3    H236993   6.422   0.967   0.966  0.2615 -0.3378  0.5546
 5168TIP3   OH236994   3.165   0.789  15.089 -0.4752  0.3111 -0.2263
 5168TIP3    H136995   3.235   0.815  15.150 -0.4620 -0.7298  0.2346
 5168TIP3    H236996   3.209   0.737  15.022 -0.1492  3.1178 -2.3457
 5169TIP3   OH236997   0.947   0.754  14.028  0.4138  0.3281 -0.2803
 5169TIP3    H136998   0.859   0.752  13.989  0.6323  1.2771 -0.8807
 5169TIP3    H236999   0.936   0.714  14.114 -0.4734 -0.1600 -0.6043
 5170TIP3   OH237000   4.296   2.973   4.577 -0.0940  0.1393 -0.5698
 5170TIP3    H137001   4.271   3.048   4.522  1.1072  1.1633  0.2286
 5170TIP3    H237002   4.391   2.969   4.569  0.1264  0.3335  1.4203
 5171TIP3   OH237003   1.823   0.419   2.278 -0.2488  0.1104 -0.6065
 5171TIP3    H137004   1.819   0.334   2.235  0.9246 -0.5893  0.5697
 5171TIP3    H237005   1.736   0.456   2.268 -0.9646 -1.5154 -0.6271
 5172TIP3   OH237006   5.243   2.608   4.963  0.1445  0.4795 -0.2358
 5172TIP3    H137007   5.171   2.671   4.967 -0.2673 -0.0409  2.2208
 5172TIP3    H237008   5.315   2.651   5.008  0.1385 -0.4537  0.6907
 5173TIP3   OH237009   0.090   4.548   5.527 -0.0105 -0.5891 -0.3897
 5173TIP3    H137010   0.037   4.523   5.451 -0.8799 -0.3049  0.1132
 5173TIP3    H237011   0.142   4.622   5.496  0.0847 -0.8545 -0.8816
 5174TIP3   OH237012   4.122   6.454  13.251  0.3475 -0.0478  0.1711
 5174TIP3    H137013   4.207   6.411  13.242  0.9876  1.2307 -0.1289
 5174TIP3    H237014   4.106   6.493  13.166  0.1186  0.8865  0.6375
 5175TIP3   OH237015   5.419   1.623   2.721  0.0188  0.0733  0.5580
 5175TIP3    H137016   5.439   1.627   2.627  1.2940 -3.0961  0.5725
 5175TIP3    H237017   5.369   1.543   2.731 -0.8059  0.7849  2.5304
 5176TIP3   OH237018   2.916   3.703   4.575  0.1250 -0.5896  0.8582
 5176TIP3    H137019   2.991   3.657   4.538  2.2674  2.4225  1.1337
 5176TIP3    H237020   2.924   3.689   4.670  1.9189  1.7649  1.1222
 5177TIP3   OH237021   5.045   4.998   2.873 -0.7131 -0.1762 -0.2045
 5177TIP3    H137022   5.069   4.906   2.860  1.0617  0.4880 -2.1070
 5177TIP3    H237023   4.983   4.996   2.946 -0.9629 -2.9023 -0.3811
 5178TIP3   OH237024   4.216   5.379  11.881  0.4058  0.2489 -0.5807
 5178TIP3    H137025   4.309   5.371  11.859  0.1049 -1.7736 -1.3727
 5178TIP3    H237026   4.187   5.459  11.838  1.5295  0.2716 -1.3342
 5179TIP3   OH237027   2.384   0.675  14.033  0.4553 -0.3805  0.3257
 5179TIP3    H137028   2.415   0.621  13.960 -0.5816  1.4044 -1.5535
 5179TIP3    H237029   2.297   0.704  14.005 -0.1400  0.0633  2.4802
 5180TIP3   OH237030   1.674   2.659   3.889 -0.0474 -0.2689  0.0875
 5180TIP3    H137031   1.605   2.594   3.875 -0.4916 -0.3581  2.2931
 5180TIP3    H237032   1.652   2.730   3.829 -1.6363 -0.6334  0.1846
 5181TIP3   OH237033   2.335   6.696  17.394 -0.3081 -0.3231  0.6991
 5181TIP3    H137034   2.333   6.734  17.306  0.9096 -0.0501  0.7759
 5181TIP3    H237035   2.327   6.602  17.379  0.1982 -0.3027  0.2591
 5182TIP3   OH237036   4.027   3.509  17.454  0.3498 -0.5781 -0.2627
 5182TIP3    H137037   4.042   3.484  17.545  0.7197 -1.8705 -0.6517
 5182TIP3    H237038   4.090   3.456  17.404 -0.2748 -0.3575 -1.3137
 5183TIP3   OH237039   0.656   5.570  14.362  0.6714 -0.1931 -0.5254
 5183TIP3    H137040   0.591   5.620  14.410  0.7769  0.2174 -0.8113
 5183TIP3    H237041   0.707   5.635  14.314  1.6467 -0.4508  0.1140
 5184TIP3   OH237042   6.296   5.841  12.212  0.2194  0.3330 -0.1230
 5184TIP3    H137043   6.320   5.765  12.264 -1.5611  1.1641  2.0711
 5184TIP3    H237044   6.379   5.884  12.193  1.0968 -1.1910  0.0934
 5185TIP3   OH237045   3.896   1.178  11.155 -0.3189 -0.9055 -0.2821
 5185TIP3    H137046   3.928   1.268  11.147 -0.4797 -0.6428  1.5628
 5185TIP3    H237047   3.808   1.180  11.118  1.0477 -1.2571 -3.8759
 5186TIP3   OH237048   6.591   1.363  15.436  0.2212  0.2113  0.1628
 5186TIP3    H137049   6.550   1.373  15.350 -2.1261 -1.8504  0.9174
 5186TIP3    H237050   6.557   1.436  15.487 -0.3187  0.0953 -0.0188
 5187TIP3   OH237051   1.150   4.662  15.751  0.1757  0.0253  0.0667
 5187TIP3    H137052   1.194   4.691  15.830  0.1180  1.4014 -0.3843
 5187TIP3    H237053   1.220   4.627  15.696 -0.0037 -2.7032  1.4104
 5188TIP3   OH237054   5.628   5.028  16.111 -0.0633 -0.1028  0.2410
 5188TIP3    H137055   5.576   5.086  16.055  0.9387 -0.7688 -1.4522
 5188TIP3    H237056   5.594   4.940  16.094  1.7326 -0.5869 -1.1289
 5189TIP3   OH237057   3.530   3.965  11.199  0.1873  0.0324  0.1031
 5189TIP3    H137058   3.442   3.997  11.178  0.3357  0.0375 -0.5402
 5189TIP3    H237059   3.560   4.023  11.269 -0.1154  0.3794 -0.0462
 5190TIP3   OH237060   5.493   2.341   4.592  0.7339 -0.6307 -0.0426
 5190TIP3    H137061   5.567   2.401   4.600  0.0489  0.1649  0.4072
 5190TIP3    H237062   5.417   2.397   4.577  0.4045 -1.5124 -1.9623
 5191TIP3   OH237063   4.254   1.601   2.706  0.0326 -0.0930  0.0416
 5191TIP3    H137064   4.206   1.683   2.699 -0.1838 -0.2849 -1.0290
 5191TIP3    H237065   4.333   1.615   2.653 -0.3706 -0.8078 -0.7790
 5192TIP3   OH237066   1.805   0.909  12.765  0.4461 -0.5278 -0.0153
 5192TIP3    H137067   1.755   0.873  12.838 -2.5510  0.7724 -1.2379
 5192TIP3    H237068   1.826   0.998  12.792 -0.3111 -0.1797 -0.5487
 5193TIP3   OH237069   2.649   2.248   1.160  0.0200 -0.0464 -0.2337
 5193TIP3    H137070   2.692   2.328   1.130 -0.4774  0.6987  0.9651
 5193TIP3    H237071   2.570   2.240   1.105 -0.3644  0.7548  0.1906
 5194TIP3   OH237072   4.341   2.344  15.348 -0.0062  0.4579  0.4263
 5194TIP3    H137073   4.246   2.345  15.363  0.2351  0.6371  2.2608
 5194TIP3    H237074   4.363   2.252  15.340 -0.4041  0.4427 -0.6387
 5195TIP3   OH237075   3.354   6.079  17.249  0.7985 -0.4023 -0.4097
 5195TIP3    H137076   3.367   6.124  17.166 -1.2644  1.7189  0.3187
 5195TIP3    H237077   3.439   6.085  17.293  1.6572 -0.7883 -1.9594
 5196TIP3   OH237078   5.907   3.439   2.841  0.6316 -0.3047  0.1571
 5196TIP3    H137079   5.906   3.370   2.775  2.2426 -1.3591  1.1529
 5196TIP3    H237080   5.825   3.428   2.889 -0.0167 -0.2610 -0.9314
 5197TIP3   OH237081   3.538   3.306   5.388  0.0724 -0.4459  0.5895
 5197TIP3    H137082   3.463   3.259   5.424  0.4093 -1.3452  0.1404
 5197TIP3    H237083   3.575   3.353   5.463  0.3244 -1.6983  1.2627
 5198TIP3   OH237084   5.080   5.317  16.246  0.0775 -0.1493  0.0904
 5198TIP3    H137085   5.091   5.302  16.152 -0.8849 -0.0219 -0.0438
 5198TIP3    H237086   5.152   5.268  16.286  0.3833 -0.3563 -0.7004
 5199TIP3   OH237087   2.417   4.818  13.894  0.3757 -0.7023 -0.2148
 5199TIP3    H137088   2.399   4.732  13.855  0.9579 -1.1238  0.4192
 5199TIP3    H237089   2.475   4.799  13.969  0.8198  0.2780 -0.2905
 5200TIP3   OH237090   1.765   1.338   3.121  0.6371  0.3694  0.9640
 5200TIP3    H137091   1.855   1.306   3.111  0.3767 -0.1394  0.1563
 5200TIP3    H237092   1.731   1.343   3.032 -0.6053 -0.8428  1.3400
 5201TIP3   OH237093   2.817   4.536   4.992  0.1016  0.1394 -0.2932
 5201TIP3    H137094   2.726   4.507   4.995  0.2920 -0.5261 -0.8530
 5201TIP3    H237095   2.854   4.494   4.914  0.9119  0.3437 -0.0322
 5202TIP3   OH237096   3.973   5.353  14.070  0.5890 -0.3447 -0.1844
 5202TIP3    H137097   3.967   5.267  14.111  0.1155  0.0263  0.5404
 5202TIP3    H237098   3.934   5.341  13.983 -0.1809 -0.6802  0.1986
 5203TIP3   OH237099   3.420   3.195   1.400 -0.1180  0.1692 -0.0822
 5203TIP3    H137100   3.437   3.106   1.433  1.6192  0.3139 -0.5120
 5203TIP3    H237101   3.325   3.202   1.399 -0.2833 -1.5652  0.2997
 5204TIP3   OH237102   6.445   3.082  16.281 -0.4193  0.0492  0.4345
 5204TIP3    H137103   6.485   3.082  16.194 -0.9512 -0.4088  0.1878
 5204TIP3    H237104   6.390   3.160  16.283 -1.1723 -0.4631 -0.0010
 5205TIP3   OH237105   1.177   5.076   3.726 -0.5583 -0.2731 -0.2472
 5205TIP3    H137106   1.157   5.057   3.818 -1.4062 -1.4332 -0.6426
 5205TIP3    H237107   1.205   5.167   3.726  0.7437 -0.6143  1.3522
 5206TIP3   OH237108   3.124   3.039   1.152  0.3656 -0.3975  0.5621
 5206TIP3    H137109   3.121   2.960   1.099 -0.2451 -0.1533  0.2285
 5206TIP3    H237110   3.156   3.010   1.237  0.0989 -1.0050  0.4549
 5207TIP3   OH237111   1.116   4.857  11.086  0.3196  0.1683 -0.0124
 5207TIP3    H137112   1.028   4.832  11.057 -0.2427  1.7962  0.2064
 5207TIP3    H237113   1.172   4.785  11.057 -0.5185  0.6780 -3.2934
 5208TIP3   OH237114   2.539   5.560  12.192  0.3633 -0.4901 -0.4053
 5208TIP3    H137115   2.470   5.537  12.129 -0.0531  0.1465 -0.1855
 5208TIP3    H237116   2.563   5.477  12.233  0.3248 -0.8449 -1.0878
 5209TIP3   OH237117   6.283   4.806  11.092 -0.2945 -0.7415 -0.0985
 5209TIP3    H137118   6.341   4.859  11.147  1.2265 -1.2525 -1.1429
 5209TIP3    H237119   6.195   4.821  11.128  0.1404  1.9281  0.0860
 5210TIP3   OH237120   2.180   3.028  13.404 -0.1931 -0.1902  0.0401
 5210TIP3    H137121   2.198   2.950  13.353 -1.9583 -0.2852 -0.4989
 5210TIP3    H237122   2.257   3.084  13.391  1.0338 -1.7358  0.3278
 5211TIP3   OH237123   2.438   0.592   0.020  0.0221 -0.1630  0.3322
 5211TIP3    H137124   2.399   0.527   0.079 -1.1436 -1.3736 -1.6567
 5211TIP3    H237125   2.526   0.557   0.001  0.6907  0.6088  1.8494
 5212TIP3   OH237126   2.163   0.630  13.494 -0.6461  0.7112  0.1674
 5212TIP3    H137127   2.208   0.555  13.534  0.1772  1.8576  1.4810
 5212TIP3    H237128   2.088   0.646  13.552  0.2567  2.0568  1.0152
 5213TIP3   OH237129   3.088   3.448  11.860  0.3828 -0.6023 -0.0469
 5213TIP3    H137130   3.183   3.452  11.844  0.8930  0.2554  2.6071
 5213TIP3    H237131   3.080   3.459  11.955 -2.3476 -1.7752 -0.0688
 5214TIP3   OH237132   1.074   5.691  11.490  0.7544  0.0734  0.3446
 5214TIP3    H137133   1.095   5.763  11.431  0.5241 -0.9335 -1.0295
 5214TIP3    H237134   1.134   5.702  11.564  2.0636  0.5715 -0.7494
 5215TIP3   OH237135   5.139   3.860   2.331  0.1598 -0.0219 -1.2904
 5215TIP3    H137136   5.100   3.875   2.416  1.2410 -2.4693 -0.2615
 5215TIP3    H237137   5.200   3.934   2.319  3.3099 -1.7498  2.2026
 5216TIP3   OH237138   1.026   0.516  13.879  0.4632 -0.5209  0.7095
 5216TIP3    H137139   1.093   0.542  13.816  2.2990 -0.7784  2.4754
 5216TIP3    H237140   1.021   0.589  13.941 -1.8484  0.0572 -0.0326
 5217TIP3   OH237141   0.702   0.296   0.599  0.0368 -0.8695 -0.0067
 5217TIP3    H137142   0.797   0.294   0.589  0.0946  0.5683  0.0219
 5217TIP3    H237143   0.685   0.372   0.655 -1.1438 -0.9318 -0.2498
 5218TIP3   OH237144   5.053   3.170   0.039  0.5355  0.7888 -0.6649
 5218TIP3    H137145   4.994   3.192   0.112  0.8422  0.6530 -0.3710
 5218TIP3    H237146   5.003   3.193  -0.040  0.9341  2.7821 -0.3789
 5219TIP3   OH237147   5.284   3.407  13.721  0.0984  0.1938  0.2660
 5219TIP3    H137148   5.230   3.459  13.662  1.5764  0.6069 -0.7986
 5219TIP3    H237149   5.228   3.389  13.797 -0.6766  2.7695  0.3845
 5220TIP3   OH237150   0.278   6.603   6.627 -0.5018  0.1955  0.2741
 5220TIP3    H137151   0.192   6.615   6.667 -0.5459  0.2396  0.1655
 5220TIP3    H237152   0.301   6.512   6.647 -0.1635  0.4488  1.1030
 5221TIP3   OH237153   5.865   3.456  16.912 -0.0341  0.2174 -0.0619
 5221TIP3    H137154   5.857   3.538  16.960 -2.7301 -2.0346  3.9698
 5221TIP3    H237155   5.923   3.402  16.966  1.9999 -0.5874 -2.7867
 5222TIP3   OH237156   5.258   3.625   3.400 -0.2995 -0.2725  0.2357
 5222TIP3    H137157   5.300   3.594   3.480 -1.0354 -1.0051  0.3623
 5222TIP3    H237158   5.233   3.544   3.354 -0.9634  0.1347 -0.1378
 5223TIP3   OH237159   5.914   0.397  16.351 -0.6136  0.0729  0.1726
 5223TIP3    H137160   5.922   0.378  16.257 -0.9430 -2.4658  0.5691
 5223TIP3    H237161   6.004   0.413  16.379 -0.2750 -0.9379 -0.2823
 5224TIP3   OH237162   6.376   6.718   1.804  0.0909 -1.0863  0.4686
 5224TIP3    H137163   6.391   6.754   1.891  1.7024 -2.0434  0.6260
 5224TIP3    H237164   6.463   6.694   1.773  0.1573  2.5219 -2.9398
 5225TIP3   OH237165   2.134   3.219  14.579  0.5083  0.1178  0.6920
 5225TIP3    H137166   2.169   3.301  14.614  0.2781  0.3558  0.3709
 5225TIP3    H237167   2.154   3.223  14.486 -1.4134  0.8186  0.2591
 5226TIP3   OH237168   5.863   2.030   2.769  0.4434  0.7213  0.3088
 5226TIP3    H137169   5.887   1.945   2.807 -2.0266 -0.8318 -1.3233
 5226TIP3    H237170   5.945   2.062   2.731  0.8457 -2.8138 -2.3614
 5227TIP3   OH237171   2.087   0.069  12.660  0.7706  0.1235  0.3795
 5227TIP3    H137172   2.004   0.021  12.665  0.2928  0.8942  0.0118
 5227TIP3    H237173   2.095   0.110  12.746 -0.2762  1.7058 -0.2209
 5228TIP3   OH237174   4.878   5.205   0.250  0.2308  0.5494 -0.1506
 5228TIP3    H137175   4.914   5.252   0.174  1.3457 -0.1923 -0.0998
 5228TIP3    H237176   4.954   5.189   0.306 -0.4449  0.3104  0.7118
 5229TIP3   OH237177   3.242   5.806   1.951 -0.1600  0.0573 -0.0671
 5229TIP3    H137178   3.179   5.778   2.017 -0.1807  0.5864  0.1386
 5229TIP3    H237179   3.299   5.868   1.996 -1.8191  2.5750 -1.1853
 5230TIP3   OH237180   1.247   0.282  12.489  0.2133  0.2213  0.0225
 5230TIP3    H137181   1.265   0.328  12.407 -0.1534  0.4448  0.0627
 5230TIP3    H237182   1.177   0.333  12.529  0.7499  0.4131  0.7277
 5231TIP3   OH237183   4.425   4.457   2.355 -0.5645 -0.7105 -0.0424
 5231TIP3    H137184   4.463   4.428   2.272 -1.1439 -1.7706  0.0423
 5231TIP3    H237185   4.481   4.529   2.383  0.5738 -1.3651 -0.5747
 5232TIP3   OH237186   5.358   5.726   4.705  0.2419  0.5757 -0.3319
 5232TIP3    H137187   5.429   5.718   4.768 -0.0314 -1.8212 -0.2338
 5232TIP3    H237188   5.401   5.717   4.619  0.1240 -0.8591 -0.2732
 5233TIP3   OH237189   0.554   2.398   6.292  0.0118  0.5355  0.0815
 5233TIP3    H137190   0.509   2.320   6.259 -3.8167  1.0004  3.3816
 5233TIP3    H237191   0.618   2.364   6.355 -0.0896  0.0078 -0.0973
 5234TIP3   OH237192   5.587   2.786  12.448  0.2345 -0.6264  0.3323
 5234TIP3    H137193   5.508   2.734  12.435 -0.2279  0.3506 -1.0304
 5234TIP3    H237194   5.558   2.877  12.436  1.3551 -0.1712  0.9055
 5235TIP3   OH237195   2.960   5.687   0.585  0.3039 -0.0861 -0.7800
 5235TIP3    H137196   2.900   5.753   0.619 -0.6088 -0.0633 -2.3520
 5235TIP3    H237197   2.940   5.608   0.635  0.6849  0.5323  0.3873
 5236TIP3   OH237198   2.827   1.176   4.618  0.3679 -0.0953 -0.3602
 5236TIP3    H137199   2.808   1.180   4.524 -1.2335  0.9915 -0.0262
 5236TIP3    H237200   2.855   1.086   4.633  0.7578 -0.2571 -1.8830
 5237TIP3   OH237201   5.010   6.660  12.169 -0.3784  0.1278 -0.4103
 5237TIP3    H137202   5.032   6.567  12.176 -1.6315 -0.2505 -1.1738
 5237TIP3    H237203   4.964   6.668  12.086 -0.2174  1.4559 -0.3925
 5238TIP3   OH237204   6.314   5.422   4.070 -0.0317 -0.7191  0.0667
 5238TIP3    H137205   6.256   5.467   4.009 -0.0412 -0.4283  0.2837
 5238TIP3    H237206   6.298   5.466   4.154  1.6557  0.4559 -0.1758
 5239TIP3   OH237207   3.032   2.826   4.887  0.0699  0.6638  0.3832
 5239TIP3    H137208   3.065   2.757   4.945  0.8144  0.7849  0.1168
 5239TIP3    H237209   2.963   2.784   4.837 -1.6512  0.9327  2.3744
 5240TIP3   OH237210   4.410   4.616  11.283  0.5429  0.3802  0.5861
 5240TIP3    H137211   4.506   4.621  11.285  0.5126  1.7602  0.2081
 5240TIP3    H237212   4.390   4.581  11.197  0.7124  2.2974 -0.3034
 5241TIP3   OH237213   2.707   6.395   0.206 -0.1750 -0.6236  0.2542
 5241TIP3    H137214   2.762   6.447   0.148 -0.2856 -1.4109 -0.5708
 5241TIP3    H237215   2.633   6.368   0.153 -0.6929 -0.6808  0.9876
 5242TIP3   OH237216   3.754   0.545  11.388 -0.2451  0.3942 -0.3426
 5242TIP3    H137217   3.798   0.508  11.312  1.0181  0.6241  0.2568
 5242TIP3    H237218   3.731   0.469  11.442 -1.7136  0.1840 -1.2320
 5243TIP3   OH237219   5.076   4.230  17.328 -0.0835  0.3199 -0.1242
 5243TIP3    H137220   5.153   4.271  17.289 -0.1013  0.4398 -0.0306
 5243TIP3    H237221   5.025   4.302  17.364 -1.3215  0.4814 -2.0554
 5244TIP3   OH237222   6.234   2.084   1.765  0.2427 -0.1901  0.5534
 5244TIP3    H137223   6.149   2.088   1.809  0.0038  1.9855 -0.0037
 5244TIP3    H237224   6.292   2.134   1.822  1.1172 -1.4533  0.8015
 5245TIP3   OH237225   4.894   6.195  15.391 -0.6176  0.0681  0.4241
 5245TIP3    H137226   4.855   6.135  15.327  0.4358 -2.5839  2.0930
 5245TIP3    H237227   4.904   6.142  15.470  1.3225  2.1930  1.7171
 5246TIP3   OH237228   3.764   5.771   3.275 -0.3693 -0.0957 -0.2745
 5246TIP3    H137229   3.789   5.857   3.308 -0.2185 -0.4193  0.4579
 5246TIP3    H237230   3.836   5.714   3.299 -0.2130 -0.3291 -1.2430
 5247TIP3   OH237231   5.200   4.705   0.666 -0.2812  0.0119 -0.9335
 5247TIP3    H137232   5.252   4.680   0.589  1.7867 -0.7755  0.6190
 5247TIP3    H237233   5.239   4.656   0.738 -1.2483  1.7394  0.8646
 5248TIP3   OH237234   0.590   3.611   5.798 -0.2912  0.0883 -0.0232
 5248TIP3    H137235   0.638   3.656   5.868  0.9438 -1.3148  0.0530
 5248TIP3    H237236   0.548   3.537   5.842 -0.6280 -0.0174 -0.5214
 5249TIP3   OH237237   4.157   2.770  16.156  0.4735  0.1043  0.0777
 5249TIP3    H137238   4.111   2.711  16.098 -0.4476  0.8630  0.0076
 5249TIP3    H237239   4.109   2.766  16.239  0.4838  0.6277  0.1181
 5250TIP3   OH237240   0.859   5.713  10.913 -0.3101  0.3504 -0.2989
 5250TIP3    H137241   0.943   5.759  10.914 -0.2588  0.2690  1.3223
 5250TIP3    H237242   0.832   5.716  10.822  0.9230  1.3484 -0.6649
 5251TIP3   OH237243   1.927   6.567  17.008  0.0830 -0.2844 -0.3200
 5251TIP3    H137244   1.847   6.515  17.018 -0.1269  0.0611 -0.1972
 5251TIP3    H237245   1.915   6.643  17.065  1.4620 -1.3535  1.5148
 5252TIP3   OH237246   4.396   4.030   0.725  0.5720  0.1271  0.7912
 5252TIP3    H137247   4.375   4.050   0.817  2.4392 -1.7579  1.7141
 5252TIP3    H237248   4.322   3.977   0.695 -1.0185  2.3570  0.4915
 5253TIP3   OH237249   5.749   4.898   1.913 -0.6294 -0.1196 -0.2445
 5253TIP3    H137250   5.832   4.923   1.871  0.2281  0.8965  1.9389
 5253TIP3    H237251   5.726   4.972   1.968 -0.9825 -1.8866  2.1213
 5254TIP3   OH237252   0.380   4.434  15.874  0.1628 -0.0175 -0.6170
 5254TIP3    H137253   0.474   4.447  15.877  0.1237  0.1989 -0.2679
 5254TIP3    H237254   0.367   4.364  15.810  0.2957  2.2577 -3.3082
 5255TIP3   OH237255   0.373   0.018   4.981  0.6826  0.4165 -0.1208
 5255TIP3    H137256   0.464   0.025   4.954  0.4360 -0.2842 -1.1789
 5255TIP3    H237257   0.322   0.051   4.907 -0.0275 -2.0739 -0.8479
 5256TIP3   OH237258   2.586   5.872  17.202  0.7314 -0.6662  0.6975
 5256TIP3    H137259   2.613   5.956  17.239  1.8409 -1.3352  1.4844
 5256TIP3    H237260   2.638   5.807  17.250  0.8388 -1.7187 -0.7676
 5257TIP3   OH237261   4.666   5.750  11.687 -0.2087  0.8256 -0.1526
 5257TIP3    H137262   4.639   5.710  11.604 -0.8923 -0.8008  0.7958
 5257TIP3    H237263   4.754   5.716  11.703 -0.7423 -0.2980  0.5919
 5258TIP3   OH237264   2.038   0.912   5.635 -0.7961 -0.1016  0.4096
 5258TIP3    H137265   2.002   0.839   5.685  1.9460 -0.8672  1.4725
 5258TIP3    H237266   2.126   0.883   5.610 -1.1894  1.1904 -2.9375
 5259TIP3   OH237267   6.171   1.000   2.394 -0.3155  0.2942  0.5658
 5259TIP3    H137268   6.119   1.069   2.352  0.6906  1.2098  0.8031
 5259TIP3    H237269   6.121   0.976   2.472 -0.1462  1.5268  1.0680
 5260TIP3   OH237270   0.458   5.279   1.921  0.3455 -0.0880 -0.3526
 5260TIP3    H137271   0.483   5.190   1.899  1.2883  0.0401  0.1546
 5260TIP3    H237272   0.411   5.271   2.004  2.4225  0.0954  0.9058
 5261TIP3   OH237273   3.375   4.728  11.401 -0.3048  0.1687 -0.4750
 5261TIP3    H137274   3.330   4.791  11.344  1.6088  2.1641  0.1186
 5261TIP3    H237275   3.338   4.744  11.488 -0.8918 -0.6378 -0.5575
 5262TIP3   OH237276   3.172   4.113  13.343 -0.0807  0.5144 -0.4637
 5262TIP3    H137277   3.218   4.124  13.427 -0.0271 -1.0834 -0.2363
 5262TIP3    H237278   3.089   4.160  13.354 -0.6267 -0.7007  0.9842
 5263TIP3   OH237279   1.763   5.555  12.730 -0.3400  0.2065  0.4731
 5263TIP3    H137280   1.685   5.602  12.759  0.0401  2.4139 -1.7484
 5263TIP3    H237281   1.756   5.552  12.635  0.8094 -2.3750  0.3678
 5264TIP3   OH237282   6.681   4.328   5.417  0.6825  0.0585  0.5862
 5264TIP3    H137283   6.627   4.402   5.389  1.8198  0.2981 -1.1371
 5264TIP3    H237284   6.648   4.306   5.504 -0.6847  1.6124  0.5175
 5265TIP3   OH237285   2.208   6.746   4.040  0.3669  0.1602 -0.3472
 5265TIP3    H137286   2.262   6.825   4.046 -0.3926  0.8745 -2.0127
 5265TIP3    H237287   2.119   6.779   4.028 -0.0347 -0.9525 -0.5586
 5266TIP3   OH237288   1.644   1.123   4.182 -0.1579  0.6093 -0.3941
 5266TIP3    H137289   1.598   1.057   4.232 -0.2401  0.7229 -0.3200
 5266TIP3    H237290   1.631   1.098   4.090 -0.7244  0.8762 -0.3920
 5267TIP3   OH237291   6.295   0.179  13.628  0.4757  0.1603 -0.2366
 5267TIP3    H137292   6.239   0.103  13.613 -1.2501  0.7301  2.6464
 5267TIP3    H237293   6.383   0.143  13.636 -0.3244 -1.6072  1.1829
 5268TIP3   OH237294   6.512   4.577   2.797  0.3325 -0.3605  0.3045
 5268TIP3    H137295   6.497   4.488   2.826 -1.2232  0.1829  1.2797
 5268TIP3    H237296   6.438   4.597   2.740  0.8821  0.1792 -0.2457
 5269TIP3   OH237297   4.388   5.763  17.273 -0.3252  0.2008 -0.1136
 5269TIP3    H137298   4.441   5.730  17.345  0.3002  3.1634  0.9216
 5269TIP3    H237299   4.297   5.755  17.303 -0.5292 -3.2696 -1.1957
 5270TIP3   OH237300   1.384   5.571  15.819 -0.1046  0.0747 -0.5275
 5270TIP3    H137301   1.429   5.553  15.736  2.0971 -1.5616  0.9168
 5270TIP3    H237302   1.389   5.666  15.829 -0.7190  0.3440 -2.3829
 5271TIP3   OH237303   2.350   2.307   0.311  0.2655 -0.1775 -0.0431
 5271TIP3    H137304   2.342   2.254   0.232 -2.2479  0.4624 -0.2838
 5271TIP3    H237305   2.378   2.393   0.280  1.5029 -0.5316  0.0422
 5272TIP3   OH237306   2.539   4.386   3.264  0.0048  0.3500  0.4167
 5272TIP3    H137307   2.538   4.337   3.347  0.4365 -1.0949 -0.3915
 5272TIP3    H237308   2.631   4.390   3.239  0.1113  2.5006  0.9321
 5273TIP3   OH237309   3.276   2.431  13.784  0.0236  0.0284  0.1545
 5273TIP3    H137310   3.275   2.398  13.695 -0.2704  0.2203  0.0839
 5273TIP3    H237311   3.222   2.370  13.834  1.8793 -1.2905  0.6563
 5274TIP3   OH237312   3.644   5.356  14.412  0.0224  0.6703 -0.1559
 5274TIP3    H137313   3.601   5.365  14.327 -0.6685  1.0010  0.2220
 5274TIP3    H237314   3.575   5.373  14.476  0.2160 -0.9036  0.5076
 5275TIP3   OH237315   5.912   5.918  16.806 -0.3837  0.1301 -0.2222
 5275TIP3    H137316   5.903   5.863  16.728  0.3583 -0.9074  0.4082
 5275TIP3    H237317   6.004   5.943  16.808 -1.0564  3.3875 -1.7630
 5276TIP3   OH237318   6.757   0.064   6.001  0.0914 -0.0254  0.6116
 5276TIP3    H137319   6.667   0.035   5.987 -0.1512  0.2248  1.5729
 5276TIP3    H237320   6.792   0.077   5.912 -0.3373 -1.5354  0.1890
 5277TIP3   OH237321   6.200   2.162   3.351 -0.0383 -0.2411  0.0604
 5277TIP3    H137322   6.179   2.254   3.370  0.2860 -0.3313  0.9264
 5277TIP3    H237323   6.210   2.159   3.256  1.3628  0.9508  0.1228
 5278TIP3   OH237324   0.392   1.808   3.115  0.2361 -0.1598 -0.8454
 5278TIP3    H137325   0.365   1.850   3.197  0.4846  0.0852 -0.8850
 5278TIP3    H237326   0.485   1.788   3.128  0.6606  1.1875 -1.5928
 5279TIP3   OH237327   1.336   4.342   6.221 -0.4942 -0.1799 -0.2936
 5279TIP3    H137328   1.291   4.413   6.267 -0.9610 -0.3081 -0.5362
 5279TIP3    H237329   1.389   4.385   6.154 -2.1275 -0.1152 -1.6136
 5280TIP3   OH237330   4.788   3.486   5.171 -0.2623  1.0045 -0.1670
 5280TIP3    H137331   4.876   3.494   5.134 -0.4757  0.2795 -0.8708
 5280TIP3    H237332   4.798   3.432   5.249 -0.2579 -0.2270 -0.9958
 5281TIP3   OH237333   2.531   4.990   3.244 -0.2041  0.2755  0.0620
 5281TIP3    H137334   2.601   4.956   3.188 -0.8854 -1.0222 -0.0295
 5281TIP3    H237335   2.553   5.082   3.256  1.5739 -0.1201  0.1129
 5282TIP3   OH237336   4.669   6.318  16.731 -0.6421 -0.4360  0.1225
 5282TIP3    H137337   4.619   6.298  16.652  0.3310  1.8778 -1.1853
 5282TIP3    H237338   4.619   6.388  16.774  1.3480  2.0205 -1.2851
 5283TIP3   OH237339   5.124   6.340  15.627 -0.2256  0.2295 -0.1194
 5283TIP3    H137340   5.109   6.306  15.715  0.4722  0.2820  0.0292
 5283TIP3    H237341   5.140   6.262  15.574 -0.3921  0.2145 -0.1479
 5284TIP3   OH237342   3.927   2.157   5.674  0.2158  0.5636 -0.0351
 5284TIP3    H137343   3.869   2.158   5.599 -1.7455 -0.7152  1.3707
 5284TIP3    H237344   4.014   2.142   5.637 -0.6512  0.2389 -2.0521
 5285TIP3   OH237345   4.884   1.234  15.353 -0.4471 -0.3936 -0.5073
 5285TIP3    H137346   4.892   1.139  15.347 -2.3892 -0.5692 -0.8541
 5285TIP3    H237347   4.926   1.257  15.435  0.4959 -1.4828 -0.6631
 5286TIP3   OH237348   0.958   2.234   2.203  0.0519 -0.7159 -0.1134
 5286TIP3    H137349   1.028   2.248   2.267  0.1901 -0.6097 -0.2849
 5286TIP3    H237350   0.894   2.302   2.222 -0.6766 -1.6758  0.9477
 5287TIP3   OH237351   1.455   0.005   3.778 -0.0452 -0.3208 -0.2689
 5287TIP3    H137352   1.424   0.033   3.864  1.1732 -0.6661  0.3093
 5287TIP3    H237353   1.441  -0.089   3.776 -1.1448 -0.1545 -0.9242
 5288TIP3   OH237354   6.476   4.045   5.617 -0.5281 -0.3845 -0.0197
 5288TIP3    H137355   6.416   4.108   5.578 -0.7399  0.4473  1.5576
 5288TIP3    H237356   6.542   4.098   5.662  0.4432 -1.2936 -0.3300
 5289TIP3   OH237357   1.142   3.547   1.187 -0.3556  0.1198 -0.1570
 5289TIP3    H137358   1.214   3.521   1.130  0.7654  1.4471  0.5900
 5289TIP3    H237359   1.184   3.575   1.268 -1.8878 -1.3057  1.1846
 5290TIP3   OH237360   3.281   3.755  16.180  0.3074 -0.0436  0.3852
 5290TIP3    H137361   3.332   3.775  16.102  0.0794 -1.7650 -0.2606
 5290TIP3    H237362   3.342   3.709  16.237 -0.2322 -1.2569  0.0148
 5291TIP3   OH237363   4.481   5.450  14.445  0.4324  0.0962  0.5149
 5291TIP3    H137364   4.414   5.383  14.434  0.2287  0.1052  1.6279
 5291TIP3    H237365   4.563   5.405  14.425  0.0685  0.3399 -1.8809
 5292TIP3   OH237366   3.543   1.170   3.194 -0.0165  0.0421 -0.1671
 5292TIP3    H137367   3.516   1.224   3.268  0.5712  0.6782 -0.4099
 5292TIP3    H237368   3.638   1.169   3.198  0.0541  0.6045 -1.2831
 5293TIP3   OH237369   4.330   3.246  10.536  0.1089 -0.6370 -0.1425
 5293TIP3    H137370   4.361   3.159  10.561  2.8305  0.2829  0.0183
 5293TIP3    H237371   4.259   3.264  10.597  0.9873 -1.8741  1.3304
 5294TIP3   OH237372   1.458   0.099   5.946 -0.1064  0.1837 -0.5650
 5294TIP3    H137373   1.449   0.143   5.862  1.1559  2.0266  0.2091
 5294TIP3    H237374   1.503   0.162   6.002 -0.0251 -1.3583  1.2152
 5295TIP3   OH237375   6.218   2.804   5.406  0.0403  0.3342 -0.9250
 5295TIP3    H137376   6.175   2.748   5.470  1.9420 -0.6028 -0.3740
 5295TIP3    H237377   6.219   2.891   5.446  0.6142 -0.1040  0.0380
 5296TIP3   OH237378   5.837   0.091   2.055  0.0341  0.1691  0.2961
 5296TIP3    H137379   5.812   0.018   1.998  1.7427 -0.4392  0.2888
 5296TIP3    H237380   5.832   0.055   2.144 -0.3593  0.4316  0.3839
 5297TIP3   OH237381   1.170   5.034   0.779  0.4418 -0.2208 -0.1106
 5297TIP3    H137382   1.227   4.993   0.845  0.1673 -0.7217 -0.1765
 5297TIP3    H237383   1.230   5.084   0.724  1.0958 -2.0502 -1.1732
 5298TIP3   OH237384   3.807   0.073  13.344 -0.0349  0.4019  0.4876
 5298TIP3    H137385   3.747   0.013  13.300 -0.1069  0.2173  0.8335
 5298TIP3    H237386   3.772   0.082  13.433  0.5625  0.1279  0.7571
 5299TIP3   OH237387   3.508   0.010  11.160 -0.2527 -0.1117 -0.6050
 5299TIP3    H137388   3.491   0.003  11.066  2.5493  1.4813 -1.3637
 5299TIP3    H237389   3.584  -0.046  11.175  0.4093  0.9844  0.3111
 5300TIP3   OH237390   0.254   4.514   0.637  0.2991  0.7427  0.4947
 5300TIP3    H137391   0.263   4.600   0.678 -0.9177  1.7336 -1.1719
 5300TIP3    H237392   0.169   4.518   0.592  0.0236 -1.4884  0.7013
 5301TIP3   OH237393   2.870   5.648   0.139 -0.1224  0.6859 -0.0257
 5301TIP3    H137394   2.957   5.631   0.173  0.0830  0.2065 -0.7696
 5301TIP3    H237395   2.884   5.713   0.070 -0.5771  1.9332  1.0082
 5302TIP3   OH237396   3.228   3.698   1.817 -0.4710 -0.2981  0.0750
 5302TIP3    H137397   3.135   3.719   1.807 -0.5870  0.8832  2.7761
 5302TIP3    H237398   3.273   3.758   1.758 -1.3543 -0.2080 -0.5328
 5303TIP3   OH237399   5.297   0.174   5.119 -0.1087 -0.0381  0.0589
 5303TIP3    H137400   5.324   0.262   5.144  0.3734  0.2791 -1.4561
 5303TIP3    H237401   5.379   0.123   5.119 -0.4766 -0.6887  1.5993
 5304TIP3   OH237402   3.937   0.698  14.420  0.2018 -0.4830  0.0228
 5304TIP3    H137403   3.957   0.619  14.471  1.4009 -0.6321 -0.6468
 5304TIP3    H237404   3.854   0.679  14.377 -0.9831 -0.2617  2.0737
 5305TIP3   OH237405   3.037   1.624  12.361  0.5994 -0.1993  0.0673
 5305TIP3    H137406   3.076   1.700  12.316 -0.2276 -0.0912 -0.4926
 5305TIP3    H237407   3.089   1.614  12.440  1.7614 -0.0534 -0.6436
 5306TIP3   OH237408   2.570   1.391  12.267  0.2289  0.4311  0.4954
 5306TIP3    H137409   2.659   1.376  12.233 -0.1718  0.4556 -0.6022
 5306TIP3    H237410   2.535   1.462  12.213 -0.6334  0.0873  0.5892
 5307TIP3   OH237411   6.231   5.545   1.403 -0.0043 -0.4530  0.6591
 5307TIP3    H137412   6.292   5.535   1.329 -0.1551 -1.9589  0.7037
 5307TIP3    H237413   6.172   5.470   1.395 -1.7651  0.8657  0.7308
 5308TIP3   OH237414   1.322   2.758  13.362 -0.2124 -0.7339 -0.1030
 5308TIP3    H137415   1.253   2.817  13.394 -1.6092 -2.2136 -0.2832
 5308TIP3    H237416   1.356   2.716  13.441 -0.4309 -0.9882 -0.1474
 5309TIP3   OH237417   0.608   6.551   5.982 -0.1311  0.0974  0.0192
 5309TIP3    H137418   0.549   6.513   5.917 -0.1947  1.2726 -0.6415
 5309TIP3    H237419   0.680   6.488   5.988  0.0246  0.0994 -1.4322
 5310TIP3   OH237420   4.112   4.749  14.132 -0.3337  0.0215 -0.5320
 5310TIP3    H137421   4.172   4.795  14.191 -0.5643  3.4645 -2.7199
 5310TIP3    H237422   4.025   4.765  14.169 -0.3307  0.2963 -0.6455
 5311TIP3   OH237423   5.932   0.568   2.385 -0.2499  0.2334  0.4076
 5311TIP3    H137424   6.006   0.623   2.362  2.3594 -0.8246  5.0252
 5311TIP3    H237425   5.934   0.497   2.321  2.8108  0.2816  0.3006
 5312TIP3   OH237426   1.788   1.489   0.588  0.0214  0.2632 -0.3702
 5312TIP3    H137427   1.776   1.567   0.534  0.0445 -0.2222 -1.0822
 5312TIP3    H237428   1.875   1.499   0.627 -0.6613  1.4419  0.9569
 5313TIP3   OH237429   2.630   1.697  17.264  0.0162  0.1976 -0.4165
 5313TIP3    H137430   2.696   1.734  17.322 -0.3821  0.1246  0.0869
 5313TIP3    H237431   2.664   1.611  17.241  0.1355  0.1907 -0.2186
 5314TIP3   OH237432   5.779   4.377  11.760  0.1165  0.4406  0.8307
 5314TIP3    H137433   5.730   4.298  11.781  0.8537  0.3241  2.2000
 5314TIP3    H237434   5.751   4.441  11.826  0.5797  0.8780  0.6133
 5315TIP3   OH237435   2.910   4.714   0.445  0.1914  0.0145  0.7931
 5315TIP3    H137436   2.977   4.677   0.387  0.7548 -1.3521  2.2593
 5315TIP3    H237437   2.840   4.741   0.385  1.7404  0.8862 -0.7211
 5316TIP3   OH237438   0.898   0.173  12.476 -0.8871  0.7622  0.3445
 5316TIP3    H137439   0.838   0.211  12.412 -0.3503  0.8775 -0.1021
 5316TIP3    H237440   0.976   0.150  12.425 -0.5581  0.6038  0.9092
 5317TIP3   OH237441   5.424   6.742   2.524 -0.2701  0.5732 -0.0772
 5317TIP3    H137442   5.501   6.774   2.571  0.4336 -0.9189 -0.1469
 5317TIP3    H237443   5.444   6.758   2.432 -0.4278  0.9810 -0.0405
 5318TIP3   OH237444   2.116   2.964   4.762 -0.3692  0.5130  0.7725
 5318TIP3    H137445   2.116   3.000   4.673 -0.2347  0.6860  0.8409
 5318TIP3    H237446   2.112   2.869   4.750  1.2312  0.4409  0.5352
 5319TIP3   OH237447   2.376   2.541   1.023 -0.2287 -0.5309  0.3847
 5319TIP3    H137448   2.367   2.503   0.936  0.7437  1.0816 -0.4693
 5319TIP3    H237449   2.289   2.533   1.062 -0.6701 -1.3057 -0.7066
 5320TIP3   OH237450   6.636   2.973  13.401  0.4671 -0.2691  0.3951
 5320TIP3    H137451   6.708   2.951  13.460 -0.0790 -2.5408  0.3013
 5320TIP3    H237452   6.671   2.956  13.314 -0.1110 -1.2063  0.3395
 5321TIP3   OH237453   2.531   2.276   3.257 -0.8089  0.1616 -0.1178
 5321TIP3    H137454   2.619   2.315   3.262 -0.6813 -0.2936  1.6215
 5321TIP3    H237455   2.500   2.274   3.347 -2.6430  0.3267 -0.7018
 5322TIP3   OH237456   0.098   3.246   5.898 -0.3474 -0.4536  0.0987
 5322TIP3    H137457   0.162   3.235   5.968  0.5682  0.5364 -0.5670
 5322TIP3    H237458   0.045   3.166   5.902  1.3674 -1.6302  0.1822
 5323TIP3   OH237459   4.590   1.844   1.727 -0.3347 -0.5433 -0.0887
 5323TIP3    H137460   4.614   1.934   1.752  2.0599 -1.8215  2.8603
 5323TIP3    H237461   4.592   1.844   1.632  0.1157  2.3757 -0.1680
 5324TIP3   OH237462   0.180   2.942  14.043  0.0423 -0.4977  0.1451
 5324TIP3    H137463   0.242   3.015  14.047  0.3908 -0.8293  0.9693
 5324TIP3    H237464   0.096   2.983  14.020  0.5524 -0.0505 -1.0115
 5325TIP3   OH237465   1.440   4.967   3.836 -0.1008 -0.2245  0.5838
 5325TIP3    H137466   1.510   4.923   3.788  0.1881  0.2703  0.5454
 5325TIP3    H237467   1.382   4.896   3.865 -0.4803 -0.5085 -0.8041
 5326TIP3   OH237468   1.347   0.794   2.244 -0.5634  0.3801 -0.1289
 5326TIP3    H137469   1.287   0.852   2.290  1.1598 -0.4535  3.5166
 5326TIP3    H237470   1.397   0.852   2.186 -1.6410  1.8364  0.3458
 5327TIP3   OH237471   5.655   4.542   0.510 -0.1539 -0.3549  0.4528
 5327TIP3    H137472   5.630   4.629   0.540  0.8406 -0.3541  1.3415
 5327TIP3    H237473   5.711   4.557   0.434 -3.3955 -0.3753 -2.2024
 5328TIP3   OH237474   2.095   4.070  12.332 -0.0105  0.1701  0.4147
 5328TIP3    H137475   2.017   4.108  12.372  0.1408 -1.2033  2.1650
 5328TIP3    H237476   2.071   3.979  12.313  0.8686 -0.0097  0.1013
 5329TIP3   OH237477   1.232   3.910  11.722 -0.5503  0.1714 -0.2772
 5329TIP3    H137478   1.280   3.855  11.659 -0.6049  0.8259 -0.9042
 5329TIP3    H237479   1.300   3.962  11.765 -0.5605  0.0829 -0.1554
 5330TIP3   OH237480   0.726   5.913   2.657 -0.1731 -0.1676 -0.2871
 5330TIP3    H137481   0.709   5.999   2.620  0.6569 -0.0974 -0.5051
 5330TIP3    H237482   0.773   5.865   2.589 -0.3389 -0.6852 -0.0459
 5331TIP3   OH237483   1.713   6.353   2.150 -0.4314  0.4348 -0.7584
 5331TIP3    H137484   1.735   6.349   2.244 -1.1320  0.1948 -0.5950
 5331TIP3    H237485   1.698   6.261   2.126 -0.0517  0.4770 -1.1570
 5332TIP3   OH237486   1.956   1.313  13.636 -0.1396  0.0368  1.2295
 5332TIP3    H137487   2.041   1.290  13.673 -0.7219 -0.3125  2.4035
 5332TIP3    H237488   1.907   1.352  13.709 -1.0203  0.1308  0.6093
 5333TIP3   OH237489   1.598   2.377   4.719 -0.4903  0.1368 -0.1636
 5333TIP3    H137490   1.572   2.470   4.717 -0.1814  0.2136 -0.8624
 5333TIP3    H237491   1.634   2.364   4.807 -1.1629  0.5062  0.1733
 5334TIP3   OH237492   2.883   0.113  11.869  0.2164  0.6670 -0.4246
 5334TIP3    H137493   2.957   0.081  11.921  1.2770 -0.6556 -2.5753
 5334TIP3    H237494   2.894   0.071  11.784 -2.3236  1.4591 -1.2405
 5335TIP3   OH237495   1.870   2.269  13.778 -0.2586  0.1704  0.7096
 5335TIP3    H137496   1.863   2.351  13.826  0.0082 -0.0249  1.0895
 5335TIP3    H237497   1.806   2.277  13.707  1.0215  1.4629 -0.3665
 5336TIP3   OH237498   6.349   6.368   4.978 -0.2644 -0.1617  0.4425
 5336TIP3    H137499   6.274   6.331   4.931 -0.1115 -2.0286  1.5709
 5336TIP3    H237500   6.421   6.363   4.915 -0.6848 -0.0582 -0.0496
 5337TIP3   OH237501   1.215   4.318  16.969 -0.0504 -0.0930 -0.1298
 5337TIP3    H137502   1.124   4.323  17.000 -0.1879 -0.8931 -0.3802
 5337TIP3    H237503   1.251   4.406  16.985 -0.2465 -0.3344  1.9026
 5338TIP3   OH237504   4.409   4.238   4.246 -0.3234  0.4417  0.4536
 5338TIP3    H137505   4.326   4.275   4.275 -1.5559 -1.5475 -0.3404
 5338TIP3    H237506   4.426   4.166   4.307  0.1853  0.0685 -0.1153
 5339TIP3   OH237507   2.055   4.419  12.441  0.2730 -0.6059 -0.4131
 5339TIP3    H137508   2.128   4.362  12.463  1.0056 -0.0928 -1.4494
 5339TIP3    H237509   1.987   4.397  12.505  0.3281 -2.9990 -1.0712
 5340TIP3   OH237510   0.907   4.020  14.144 -0.0254 -0.0932 -0.2975
 5340TIP3    H137511   0.930   3.931  14.118  0.6929 -0.4521  1.4120
 5340TIP3    H237512   0.918   4.021  14.239 -2.0375  1.2397 -0.0131
 5341TIP3   OH237513   0.016   4.470   2.556  0.1085 -0.1511 -0.3232
 5341TIP3    H137514   0.067   4.441   2.480 -0.5271  0.8376 -1.1524
 5341TIP3    H237515  -0.067   4.500   2.519 -0.6350 -0.6461  0.8894
 5342TIP3   OH237516   3.855   5.545  15.212 -0.2315 -0.1287 -0.5938
 5342TIP3    H137517   3.839   5.576  15.122  2.6980 -0.3245 -1.2743
 5342TIP3    H237518   3.901   5.462  15.201  1.3592  0.4711  1.0177
 5343TIP3   OH237519   4.221   1.843   3.166 -0.3573  0.2876 -0.5302
 5343TIP3    H137520   4.234   1.748   3.162 -0.1781  0.2504  0.4918
 5343TIP3    H237521   4.246   1.866   3.256  0.5532  1.4503 -1.0593
 5344TIP3   OH237522   1.147   5.617  13.646  0.9705  0.0688  0.1247
 5344TIP3    H137523   1.164   5.711  13.645 -1.9424  0.7140  0.2800
 5344TIP3    H237524   1.157   5.590  13.555  0.2734  0.9171 -0.2245
 5345TIP3   OH237525   2.513   5.567  11.266  0.2169  0.0068  0.2056
 5345TIP3    H137526   2.508   5.607  11.353  0.2167 -0.1850  0.2940
 5345TIP3    H237527   2.524   5.474  11.283  0.2437 -0.0276 -0.0007
 5346TIP3   OH237528   4.601   4.620  15.643 -0.0378 -0.2888  0.3236
 5346TIP3    H137529   4.641   4.536  15.619  1.0313  0.4167 -0.4213
 5346TIP3    H237530   4.585   4.664  15.560  1.0867  1.0013  0.7551
 5347TIP3   OH237531   2.718   1.605  12.481  0.3478  0.5126 -0.2743
 5347TIP3    H137532   2.660   1.537  12.515  2.2152 -0.9762  0.1096
 5347TIP3    H237533   2.771   1.560  12.414  0.2777  2.1096 -1.4764
 5348TIP3   OH237534   1.059   6.008   2.296 -0.3743 -0.1736  0.2486
 5348TIP3    H137535   1.019   6.074   2.239  1.4477  0.7850 -0.0244
 5348TIP3    H237536   1.047   5.926   2.249 -1.0009  0.2569 -0.3645
 5349TIP3   OH237537   0.470   0.109  12.736 -0.0769 -0.4185  0.0851
 5349TIP3    H137538   0.560   0.080  12.749 -0.5699 -2.7173 -1.0377
 5349TIP3    H237539   0.471   0.154  12.652  0.6767  3.1692  1.8033
 5350TIP3   OH237540   1.065   1.350   4.705 -0.3017 -0.0284 -0.3339
 5350TIP3    H137541   1.041   1.294   4.631 -0.0919 -0.1650 -0.2990
 5350TIP3    H237542   1.044   1.438   4.677  1.2458  0.1066 -1.1653
 5351TIP3   OH237543   1.533   2.106  12.716  0.3402  0.1276  0.2026
 5351TIP3    H137544   1.578   2.028  12.685 -0.5460  0.0492 -0.9538
 5351TIP3    H237545   1.589   2.179  12.689  1.7660 -0.0873  2.3000
 5352TIP3   OH237546   4.658   4.794  11.286 -0.2492 -0.4077 -0.4550
 5352TIP3    H137547   4.670   4.762  11.196 -0.6036  1.8976 -1.3909
 5352TIP3    H237548   4.747   4.810  11.317 -0.1590 -0.2770 -0.7732
 5353TIP3   OH237549   3.338   5.173   4.468  0.1279  0.3346 -0.4393
 5353TIP3    H137550   3.271   5.105   4.480 -0.7501  1.4272  1.2147
 5353TIP3    H237551   3.419   5.132   4.498 -0.1105 -0.4417 -0.8135
 5354TIP3   OH237552   0.964   2.925   1.595 -0.5429 -0.2687 -0.2494
 5354TIP3    H137553   0.932   2.986   1.528 -1.3341 -0.3954  0.0023
 5354TIP3    H237554   0.894   2.860   1.603  0.6404 -1.7281 -1.1422
 5355TIP3   OH237555   4.080   5.074  12.289 -0.3257 -1.0905 -0.6247
 5355TIP3    H137556   4.047   5.071  12.379  0.9931  0.4840 -0.0380
 5355TIP3    H237557   4.032   5.146  12.248 -0.0735 -1.0186 -0.7993
 5356TIP3   OH237558   0.320   5.661   3.165 -0.7605 -0.1576 -0.2193
 5356TIP3    H137559   0.240   5.624   3.128 -1.0953  0.9842 -0.6739
 5356TIP3    H237560   0.296   5.752   3.187 -0.6311 -0.7406  2.8750
 5357TIP3   OH237561   0.890   6.730  15.044  0.5078  0.1123 -0.2376
 5357TIP3    H137562   0.929   6.817  15.038 -1.0428  0.8191 -0.7521
 5357TIP3    H237563   0.847   6.729  15.130 -0.9158  0.5281 -0.9130
 5358TIP3   OH237564   6.380   1.868   3.121 -0.2597  0.1928 -0.1263
 5358TIP3    H137565   6.466   1.840   3.089 -0.3898  0.0614 -0.3674
 5358TIP3    H237566   6.398   1.910   3.205 -0.1992 -1.8108  0.9441
 5359TIP3   OH237567   5.642   1.823   0.170 -1.0737 -0.2808 -0.0080
 5359TIP3    H137568   5.677   1.863   0.250  0.6022 -0.2416 -0.7128
 5359TIP3    H237569   5.660   1.887   0.102  0.2745 -1.5408 -0.8982
 5360TIP3   OH237570   3.028   4.575   2.868 -0.4035 -0.2020 -0.2658
 5360TIP3    H137571   3.016   4.667   2.889  1.2114  0.2653 -1.1784
 5360TIP3    H237572   3.030   4.572   2.772 -0.6332 -1.2170 -0.2574
 5361TIP3   OH237573   6.578   5.851  13.145 -0.4047  0.0150 -1.0917
 5361TIP3    H137574   6.619   5.927  13.187  0.5100 -0.2973 -1.4031
 5361TIP3    H237575   6.651   5.796  13.117 -1.0462 -1.4650 -0.0066
 5362TIP3   OH237576   6.418   6.643   4.949  0.0554 -0.3237 -0.1853
 5362TIP3    H137577   6.378   6.556   4.947 -0.7546  0.0296 -2.1100
 5362TIP3    H237578   6.511   6.627   4.935 -0.1196 -0.8829 -0.7643
 5363TIP3   OH237579   4.555   1.003  11.793  0.0412  0.1947  0.6321
 5363TIP3    H137580   4.474   0.998  11.843 -0.4779  0.9877 -0.0907
 5363TIP3    H237581   4.589   1.090  11.812 -0.2042  0.5398 -0.4272
 5364TIP3   OH237582   3.355   0.478   1.084  0.2184 -0.0179 -0.0379
 5364TIP3    H137583   3.433   0.447   1.131 -1.0805  0.6498  2.7849
 5364TIP3    H237584   3.323   0.402   1.037  1.8272 -0.6243 -0.2359
 5365TIP3   OH237585   4.435   2.755   3.801  0.0638  0.0511  0.3664
 5365TIP3    H137586   4.459   2.775   3.710 -0.8712 -3.1621 -0.7064
 5365TIP3    H237587   4.340   2.742   3.799  0.4412 -3.8296  0.8582
 5366TIP3   OH237588   5.158   2.480  17.270  0.1181  0.4862  0.3123
 5366TIP3    H137589   5.137   2.548  17.334 -0.7611  1.3865 -0.8900
 5366TIP3    H237590   5.122   2.513  17.188 -0.8935 -1.7261 -0.1847
 5367TIP3   OH237591   0.739   1.824  15.065  0.6094 -0.6595 -0.4970
 5367TIP3    H137592   0.770   1.771  15.138  0.4317 -1.6893 -1.1540
 5367TIP3    H237593   0.724   1.910  15.104 -0.9333 -1.5556  1.0245
 5368TIP3   OH237594   4.134   2.532  15.456 -0.0913 -0.7113 -0.3363
 5368TIP3    H137595   4.049   2.551  15.496 -0.4509 -0.0283 -1.3831
 5368TIP3    H237596   4.116   2.463  15.392  0.0936 -0.4015 -0.7274
 5369TIP3   OH237597   4.312   3.222   4.417  0.1039  0.3416  0.1225
 5369TIP3    H137598   4.402   3.199   4.391 -0.6502 -0.9470 -1.5492
 5369TIP3    H237599   4.265   3.232   4.335 -1.9968 -2.0442  0.9114
 5370TIP3   OH237600   1.121   0.658  16.892 -0.0598 -0.5326 -0.6882
 5370TIP3    H137601   1.162   0.589  16.944  0.5197 -0.1169 -0.5864
 5370TIP3    H237602   1.048   0.614  16.848 -0.8906 -0.7933  0.8536
 5371TIP3   OH237603   6.743   0.391  15.067  0.4467 -0.2143  1.0793
 5371TIP3    H137604   6.695   0.460  15.022 -1.0189 -1.5776  0.4661
 5371TIP3    H237605   6.766   0.429  15.151 -1.9579  0.4601  1.5169
 5372TIP3   OH237606   2.051   3.557  11.912 -0.4369 -0.0621 -0.2145
 5372TIP3    H137607   2.050   3.492  11.842  1.7296 -1.0266  0.5437
 5372TIP3    H237608   2.109   3.626  11.879  0.6343 -0.5465  0.5935
 5373TIP3   OH237609   1.917   0.595  12.021 -0.3080 -0.0396 -0.0823
 5373TIP3    H137610   1.892   0.593  12.113  0.2676 -0.8815  0.0681
 5373TIP3    H237611   1.970   0.674  12.012  1.7198 -1.2141  0.8932
 5374TIP3   OH237612   1.128   4.728  16.240  0.6684  0.5540  0.1902
 5374TIP3    H137613   1.121   4.823  16.242  0.6348  0.6090 -1.4414
 5374TIP3    H237614   1.187   4.709  16.168 -2.3455 -0.7523 -2.1544
 5375TIP3   OH237615   1.290   6.314  11.694 -0.4123  0.1302 -0.0153
 5375TIP3    H137616   1.308   6.356  11.779 -0.0459 -1.3525  0.6691
 5375TIP3    H237617   1.195   6.319  11.685 -0.5213 -0.2463  0.7950
 5376TIP3   OH237618   5.625   3.032  10.965  0.2810 -0.0913  0.7510
 5376TIP3    H137619   5.711   2.992  10.954  0.2156  0.1192 -0.6263
 5376TIP3    H237620   5.563   2.964  10.939  0.1525  0.6743 -1.1077
 5377TIP3   OH237621   3.689   5.556   3.578 -0.3506  0.5600 -0.1196
 5377TIP3    H137622   3.623   5.559   3.509 -0.9661  0.1453  0.4340
 5377TIP3    H237623   3.665   5.627   3.637 -0.7874 -0.0877  0.4984
 5378TIP3   OH237624   0.136   1.473   7.160 -0.1115 -0.2200  0.2052
 5378TIP3    H137625   0.148   1.510   7.072 -1.6902  1.2073  0.5261
 5378TIP3    H237626   0.047   1.436   7.158  0.6483 -2.1956  0.5639
 5379TIP3   OH237627   0.559   0.135   1.056  0.0290 -1.2808  0.3228
 5379TIP3    H137628   0.610   0.147   0.976  0.9634 -0.0467  1.0713
 5379TIP3    H237629   0.506   0.214   1.062 -0.7657 -1.8100  0.4322
 5380TIP3   OH237630   1.761   4.624   3.195  0.2396 -0.2301 -0.4093
 5380TIP3    H137631   1.766   4.684   3.120 -0.5246 -1.5306 -1.5512
 5380TIP3    H237632   1.821   4.553   3.172 -1.6274 -1.7434 -0.8634
 5381TIP3   OH237633   4.720   4.424   1.498  0.3429  0.4593  0.7283
 5381TIP3    H137634   4.745   4.379   1.417  2.3736  1.7532  0.5617
 5381TIP3    H237635   4.725   4.357   1.565  1.9674  0.0785  0.2738
 5382TIP3   OH237636   4.977   6.031  13.972  0.0125 -0.0939  0.1745
 5382TIP3    H137637   5.013   6.120  13.970 -0.7341  0.2003 -0.7276
 5382TIP3    H237638   4.949   6.015  13.881  0.1402 -1.2472  0.3294
 5383TIP3   OH237639   2.781   0.768  16.600  0.1708 -0.2793 -0.0674
 5383TIP3    H137640   2.730   0.785  16.521  0.9311  1.7666 -0.2049
 5383TIP3    H237641   2.868   0.802  16.578  0.1717  1.1259  1.9091
 5384TIP3   OH237642   1.734   6.763  15.889 -0.3427 -0.0611 -0.4853
 5384TIP3    H137643   1.779   6.843  15.918 -1.3173 -0.0699  1.2121
 5384TIP3    H237644   1.687   6.789  15.810  0.7283  0.5667 -0.9348
 5385TIP3   OH237645   0.242   2.238  17.335 -0.3355 -0.1888  0.0182
 5385TIP3    H137646   0.246   2.145  17.358  2.3415 -0.0706  0.2785
 5385TIP3    H237647   0.234   2.284  17.418 -0.2778 -0.1219 -0.0129
 5386TIP3   OH237648   4.328   5.902  15.311 -0.3744  0.1248 -0.0388
 5386TIP3    H137649   4.390   5.954  15.260  0.7562  1.2433  2.2920
 5386TIP3    H237650   4.289   5.966  15.372 -1.5758 -1.1412  0.5702
 5387TIP3   OH237651   0.543   2.594   4.433 -0.4160  0.2666 -0.0218
 5387TIP3    H137652   0.550   2.669   4.492  1.7889  1.1741 -1.3107
 5387TIP3    H237653   0.491   2.625   4.360  1.1118  0.8376 -0.9044
 5388TIP3   OH237654   3.012   4.235   1.938  0.0189  0.1262 -0.6054
 5388TIP3    H137655   3.078   4.185   1.985 -0.3899 -0.2318 -0.4053
 5388TIP3    H237656   3.029   4.217   1.846 -0.6810 -1.1157 -0.5126
 5389TIP3   OH237657   6.612   6.191   2.689 -0.5268 -0.0593 -0.2532
 5389TIP3    H137658   6.622   6.213   2.781  0.6651 -1.4651 -0.0012
 5389TIP3    H237659   6.552   6.116   2.688 -1.1606  0.4400 -0.7064
 5390TIP3   OH237660   4.012   3.638  11.979  0.2712  0.0225  0.6559
 5390TIP3    H137661   4.089   3.675  11.935 -1.2468 -0.0313 -2.2513
 5390TIP3    H237662   4.016   3.674  12.067  3.2607  0.5237  0.4310
 5391TIP3   OH237663   5.764   6.270   3.923 -0.9550 -0.3521  0.1827
 5391TIP3    H137664   5.740   6.192   3.872  2.1161 -0.4594 -1.3160
 5391TIP3    H237665   5.756   6.343   3.860 -2.1603  0.3520  1.1002
 5392TIP3   OH237666   2.618   5.927  16.715 -0.4274 -0.1635  0.4565
 5392TIP3    H137667   2.648   5.839  16.689  0.5186  0.8458 -2.1493
 5392TIP3    H237668   2.617   5.977  16.634  1.7319  3.0385  2.1683
 5393TIP3   OH237669   0.634   4.496  15.930  0.1272  0.5935 -0.0958
 5393TIP3    H137670   0.618   4.582  15.969  1.2238  0.0936  1.5396
 5393TIP3    H237671   0.691   4.514  15.855 -1.1540  1.4556 -0.9170
 5394TIP3   OH237672   2.601   3.965  11.607  0.6623  0.3145  0.0595
 5394TIP3    H137673   2.649   3.885  11.586  0.4144  0.5619 -1.5922
 5394TIP3    H237674   2.630   3.987  11.696  1.3604 -1.1335  0.2325
 5395TIP3   OH237675   5.192   6.480   0.615 -0.0432 -0.2586  0.4411
 5395TIP3    H137676   5.197   6.388   0.641  0.4292  0.0024  1.3174
 5395TIP3    H237677   5.241   6.484   0.532 -0.5808 -0.8922  0.0762
 5396TIP3   OH237678   3.357   5.369   3.940 -0.3325 -0.4563 -0.5229
 5396TIP3    H137679   3.356   5.332   4.028 -0.3169 -2.5647 -1.3282
 5396TIP3    H237680   3.269   5.352   3.906  0.0300 -0.7993 -1.3204
 5397TIP3   OH237681   2.209   2.537   2.456 -0.7066  0.4451  0.4293
 5397TIP3    H137682   2.125   2.495   2.476 -0.3177 -0.2846  0.5666
 5397TIP3    H237683   2.274   2.482   2.501 -0.0498  0.3064 -0.6599
 5398TIP3   OH237684   4.210   3.573  14.743  0.4203  0.4711  0.0593
 5398TIP3    H137685   4.258   3.608  14.668  0.0168 -0.1966 -0.5197
 5398TIP3    H237686   4.211   3.644  14.807 -0.4184  1.5799 -1.1042
 5399TIP3   OH237687   6.329   6.397  16.867 -0.8097  0.9634  0.0259
 5399TIP3    H137688   6.286   6.327  16.818  0.0796  1.3299 -1.3488
 5399TIP3    H237689   6.418   6.401  16.830  0.0706  0.9575  2.0091
 5400TIP3   OH237690   6.151   3.105   2.456  0.0881  0.2023  0.4898
 5400TIP3    H137691   6.087   3.077   2.391 -0.0827  1.1342  0.2393
 5400TIP3    H237692   6.188   3.024   2.490 -0.2527 -0.3081 -0.3348
 5401TIP3   OH237693   4.492   1.475  12.525  0.1325  0.2215 -0.4450
 5401TIP3    H137694   4.467   1.455  12.434  1.5170  0.9816 -1.0303
 5401TIP3    H237695   4.409   1.490  12.570 -0.6462 -1.1133 -1.3382
 5402TIP3   OH237696   1.192   1.309  12.828 -0.7191 -0.1203 -0.2605
 5402TIP3    H137697   1.271   1.356  12.856 -1.5308  0.5787  0.9214
 5402TIP3    H237698   1.186   1.235  12.888  0.0229 -1.2342 -1.5127
 5403TIP3   OH237699   3.965   5.421  11.689  0.1221 -0.0853  0.1634
 5403TIP3    H137700   3.887   5.407  11.636  0.8130 -2.8997 -0.2858
 5403TIP3    H237701   3.936   5.478  11.760 -1.7942  0.6160 -1.0981
 5404TIP3   OH237702   0.001   4.732  11.833  0.2145  0.0066 -0.8828
 5404TIP3    H137703   0.087   4.714  11.871 -0.5077 -2.1332 -0.1163
 5404TIP3    H237704   0.016   4.807  11.775  2.5774 -0.2733 -0.7421
 5405TIP3   OH237705   4.619   0.542  17.254 -0.1497  0.3176 -0.1652
 5405TIP3    H137706   4.534   0.533  17.211 -0.1732 -2.6921  0.3132
 5405TIP3    H237707   4.599   0.540  17.347  0.4188 -0.2271 -0.0528
 5406TIP3   OH237708   3.356   3.071   0.151 -0.1764 -0.4877  0.3084
 5406TIP3    H137709   3.332   3.002   0.212  0.7329 -0.1174  1.1102
 5406TIP3    H237710   3.407   3.134   0.203  1.0320 -0.3965 -0.8963
 5407TIP3   OH237711   4.850   0.613  15.664 -0.2944 -0.1090 -0.3229
 5407TIP3    H137712   4.868   0.574  15.749 -2.6410 -0.2228  0.2036
 5407TIP3    H237713   4.810   0.542  15.613 -1.9815  0.7786 -0.3272
 5408TIP3   OH237714   6.453   4.675  14.017  0.0205  0.1203 -0.1122
 5408TIP3    H137715   6.473   4.750  14.073  1.3071 -0.6173  0.4568
 5408TIP3    H237716   6.364   4.650  14.041 -0.0427  0.8325  0.4295
 5409TIP3   OH237717   1.728   0.109   4.286 -0.1176  0.0670  0.3506
 5409TIP3    H137718   1.739   0.023   4.326 -1.4022 -1.2368 -1.8748
 5409TIP3    H237719   1.633   0.117   4.273  0.0614  1.4104 -0.3142
 5410TIP3   OH237720   1.736   3.858   1.755  0.3027 -0.3471 -0.1220
 5410TIP3    H137721   1.800   3.847   1.825  0.2791  0.4223  0.0323
 5410TIP3    H237722   1.770   3.805   1.683  1.4199  0.4833 -0.2407
 5411TIP3   OH237723   0.214   1.094   7.207  0.5269  0.7310  0.3826
 5411TIP3    H137724   0.232   1.166   7.268  0.3706 -0.0106  1.3216
 5411TIP3    H237725   0.149   1.129   7.147  2.2981  2.2311 -0.7658
 5412TIP3   OH237726   2.947   5.555   2.039  0.1018  0.4905  0.3442
 5412TIP3    H137727   2.900   5.530   2.118 -0.9449 -0.0572 -0.4355
 5412TIP3    H237728   3.039   5.541   2.061 -0.2398 -0.7021  1.1032
 5413TIP3   OH237729   6.743   3.723   0.101  0.1622 -0.1499  0.3651
 5413TIP3    H137730   6.756   3.746   0.193 -1.7316  1.1642  0.3521
 5413TIP3    H237731   6.818   3.762   0.056  0.1670  0.7301  1.1212
 5414TIP3   OH237732   2.073   3.608  13.747 -0.2149 -0.5343 -0.3375
 5414TIP3    H137733   2.140   3.620  13.814 -0.0154  0.6691 -0.7341
 5414TIP3    H237734   2.071   3.691  13.699 -1.9312 -0.5660 -0.3853
 5415TIP3   OH237735   5.862   5.731   1.735  0.3425 -0.5003 -0.2314
 5415TIP3    H137736   5.881   5.817   1.773 -1.5025 -1.1426  2.3993
 5415TIP3    H237737   5.812   5.750   1.656  1.5056  0.8552 -0.6844
 5416TIP3   OH237738   0.079   3.206   2.207 -0.0597 -0.0016  0.0173
 5416TIP3    H137739   0.086   3.273   2.140 -0.7367 -0.5281 -0.5998
 5416TIP3    H237740   0.169   3.190   2.234  0.0102  2.4525  1.5330
 5417TIP3   OH237741   2.523   2.946  11.829 -0.0316 -0.2391  0.2922
 5417TIP3    H137742   2.472   2.925  11.750 -0.5858  2.1686 -0.1024
 5417TIP3    H237743   2.609   2.906  11.814 -1.0409 -2.3948 -0.1013
 5418TIP3   OH237744   3.202   6.633   2.223 -0.2871  0.0361 -0.0642
 5418TIP3    H137745   3.277   6.608   2.169 -0.4392 -1.6443  0.4207
 5418TIP3    H237746   3.241   6.664   2.305 -0.1023  0.1990 -0.2129
 5419TIP3   OH237747   1.454   5.631   5.164 -0.1536 -0.4873  0.0867
 5419TIP3    H137748   1.491   5.552   5.202  0.8791  0.1763  0.5119
 5419TIP3    H237749   1.475   5.700   5.227  0.6006  0.4393 -1.1396
 5420TIP3   OH237750   0.737   5.213  15.609  0.3779 -0.2561  0.1995
 5420TIP3    H137751   0.811   5.169  15.568 -0.2619  0.7787 -2.2318
 5420TIP3    H237752   0.678   5.142  15.634  1.4636 -0.9962  0.6958
 5421TIP3   OH237753   2.892   1.987  12.272 -0.2689 -1.1469 -0.5211
 5421TIP3    H137754   2.828   1.924  12.238 -0.8042 -0.7902 -0.1766
 5421TIP3    H237755   2.977   1.952  12.244 -0.7177  0.7756 -5.1589
 5422TIP3   OH237756   1.559   3.652  13.226  0.4087 -0.0504 -0.3951
 5422TIP3    H137757   1.480   3.701  13.246 -0.7283 -2.2303  0.8331
 5422TIP3    H237758   1.625   3.719  13.209 -0.9787  1.8852  1.3232
 5423TIP3   OH237759   6.444   2.716  11.187  0.2832 -0.3382  0.4397
 5423TIP3    H137760   6.509   2.754  11.246 -0.2595  0.0809  0.7768
 5423TIP3    H237761   6.471   2.624  11.178  1.2008 -0.0581  0.1759
 5424TIP3   OH237762   4.292   0.766   4.063 -0.3506 -0.7779  0.2118
 5424TIP3    H137763   4.358   0.709   4.022  0.6120  0.2117  0.3357
 5424TIP3    H237764   4.337   0.850   4.074 -1.2517 -0.4386  1.4459
 5425TIP3   OH237765   2.775   0.254  16.497 -0.0782 -0.0781 -0.4406
 5425TIP3    H137766   2.681   0.260  16.513  0.1285  1.9847  0.3793
 5425TIP3    H237767   2.785   0.180  16.438 -2.0512 -1.2752  0.6187
 5426TIP3   OH237768   4.878   0.368  16.762  0.2507 -0.1251 -0.1153
 5426TIP3    H137769   4.933   0.377  16.840 -1.5612  1.0092  1.1249
 5426TIP3    H237770   4.938   0.381  16.689  1.8055  0.0146  1.1231
 5427TIP3   OH237771   6.335   1.892   4.004  0.0965 -0.2554  0.7165
 5427TIP3    H137772   6.348   1.881   3.910 -2.3472  1.3998  0.0929
 5427TIP3    H237773   6.371   1.979   4.022  0.5259 -0.5546  1.3455
 5428TIP3   OH237774   2.112   5.553  16.626  0.6547 -0.2013 -0.2072
 5428TIP3    H137775   2.196   5.533  16.668  1.8253  1.3233 -1.6785
 5428TIP3    H237776   2.135   5.586  16.539 -1.4667  0.4240 -0.6100
 5429TIP3   OH237777   4.988   4.479  11.015  0.2977 -0.0147 -0.1116
 5429TIP3    H137778   5.062   4.519  10.971 -0.2100 -0.0245 -1.0102
 5429TIP3    H237779   4.911   4.513  10.969 -0.2377 -0.3212  0.5284
 5430TIP3   OH237780   0.625   1.113  16.191 -0.2734  0.3782 -0.3583
 5430TIP3    H137781   0.577   1.071  16.262  0.2987  1.1007  0.4724
 5430TIP3    H237782   0.586   1.200  16.184 -0.7633  0.0947 -1.3833
 5431TIP3   OH237783   1.057   4.850  15.574  0.7679  0.3839  0.4389
 5431TIP3    H137784   1.151   4.864  15.562  0.6195  0.3729 -0.8142
 5431TIP3    H237785   1.052   4.775  15.634  1.5866 -0.7842 -0.8967
 5432TIP3   OH237786   0.069   5.732  16.213 -0.0426  0.5612 -0.2647
 5432TIP3    H137787   0.004   5.666  16.189  0.5862 -0.5418  0.9293
 5432TIP3    H237788   0.018   5.812  16.222 -1.1728 -0.1632  0.1419
 5433TIP3   OH237789   3.015   3.044   4.222 -0.3558  0.2983 -0.5331
 5433TIP3    H137790   3.003   3.048   4.317 -0.1403  0.3311 -0.5064
 5433TIP3    H237791   3.062   3.124   4.200 -0.0780  0.1170 -0.6162
 5434TIP3   OH237792   1.911   5.333   0.305  0.0185  0.4121 -0.0757
 5434TIP3    H137793   1.819   5.347   0.283 -0.0371  1.8386  0.9161
 5434TIP3    H237794   1.910   5.298   0.394  0.3834 -1.8405 -0.8861
 5435TIP3   OH237795   1.470   1.998   2.787 -0.0421  0.1626 -0.0835
 5435TIP3    H137796   1.400   1.987   2.850  0.1693  1.2979  0.3808
 5435TIP3    H237797   1.507   1.911   2.776  2.4731  0.3580  4.3677
 5436TIP3   OH237798   6.088   4.729  15.310 -0.0111 -0.4134 -0.1679
 5436TIP3    H137799   6.155   4.796  15.324  0.2192 -0.9131  1.2646
 5436TIP3    H237800   6.114   4.687  15.228 -0.0933  1.1381 -1.0416
 5437TIP3   OH237801   1.089   4.363   2.294 -0.1276  0.7039  0.1318
 5437TIP3    H137802   1.119   4.273   2.309 -1.5902 -0.1812 -1.7536
 5437TIP3    H237803   1.139   4.416   2.355 -0.8586 -1.6631  2.9834
 5438TIP3   OH237804   0.439   6.434  16.932 -0.2231  0.1797 -0.0758
 5438TIP3    H137805   0.357   6.480  16.913 -0.0122  1.0283  1.0212
 5438TIP3    H237806   0.494   6.452  16.856 -0.6465  0.5483 -0.3030
 5439TIP3   OH237807   2.143   2.082  15.125 -0.0953 -0.0114 -0.6343
 5439TIP3    H137808   2.219   2.077  15.183  0.0576  0.0752 -0.8253
 5439TIP3    H237809   2.098   1.998  15.136 -2.0579  1.2443  2.3082
 5440TIP3   OH237810   2.837   2.017   2.476  0.4699 -0.4469  0.3548
 5440TIP3    H137811   2.909   2.058   2.427  0.5541 -1.4909 -0.4311
 5440TIP3    H237812   2.842   1.924   2.453 -1.8002 -0.4041 -0.5740
 5441TIP3   OH237813   3.056   1.686  12.042 -0.3218  0.2625 -0.3587
 5441TIP3    H137814   3.048   1.590  12.041  1.2978  0.0617  0.7453
 5441TIP3    H237815   3.141   1.701  12.084  0.1858  2.1488 -1.9342
 5442TIP3   OH237816   1.159   1.548   2.418 -0.1475  0.4148  0.4514
 5442TIP3    H137817   1.069   1.515   2.413 -0.2325  0.6984 -0.0461
 5442TIP3    H237818   1.206   1.499   2.350 -0.5739  2.1802 -1.2174
 5443TIP3   OH237819   4.765   6.365   1.929  0.1889 -0.1346 -0.3138
 5443TIP3    H137820   4.767   6.270   1.928 -0.2984 -0.1428 -0.7102
 5443TIP3    H237821   4.856   6.392   1.921  0.1896 -0.5488 -1.8000
 5444TIP3   OH237822   1.390   6.411  16.889 -0.0243  0.2044 -0.2735
 5444TIP3    H137823   1.358   6.420  16.799  0.6961  1.0806 -0.4511
 5444TIP3    H237824   1.485   6.422  16.882  0.0526  0.1114  0.5721
 5445TIP3   OH237825   6.403   0.379  12.438  0.3784 -0.2997 -0.5371
 5445TIP3    H137826   6.479   0.408  12.386  0.1183 -0.4222 -0.9928
 5445TIP3    H237827   6.439   0.361  12.525  0.8079 -0.0127 -0.6524
 5446TIP3   OH237828   6.376   5.132   0.960 -0.0295 -0.2001 -0.5191
 5446TIP3    H137829   6.411   5.221   0.963 -1.4944  0.4515 -1.5374
 5446TIP3    H237830   6.282   5.144   0.949 -0.1634 -1.8745 -1.5092
 5447TIP3   OH237831   1.091   5.955   3.714 -0.5059 -0.1883 -0.1326
 5447TIP3    H137832   1.109   5.861   3.706  0.8117  0.2011 -3.2487
 5447TIP3    H237833   0.998   5.959   3.738 -0.1165 -2.2195  2.1725
 5448TIP3   OH237834   4.403   1.355  13.067 -0.1946  0.4324 -0.5442
 5448TIP3    H137835   4.449   1.281  13.027  0.1077  1.1856 -1.6266
 5448TIP3    H237836   4.313   1.324  13.079  0.1517 -0.4313 -0.0879
 5449TIP3   OH237837   4.401   4.533  12.258 -0.3165 -0.5282 -0.0063
 5449TIP3    H137838   4.341   4.467  12.294  0.9422 -2.0653 -0.6198
 5449TIP3    H237839   4.344   4.594  12.211 -1.4067 -2.3280 -1.1590
 5450TIP3   OH237840   2.231   1.163  16.106  0.9691  0.3814 -0.5142
 5450TIP3    H137841   2.252   1.243  16.154 -0.7525  0.3490  0.3832
 5450TIP3    H237842   2.190   1.193  16.025  0.3439  0.4134 -0.1876
 5451TIP3   OH237843   1.456   5.633   3.754  0.0155  0.0393 -0.1615
 5451TIP3    H137844   1.492   5.721   3.768  3.0588 -1.3263  1.5816
 5451TIP3    H237845   1.377   5.631   3.808  1.1927  1.0085  1.7177
 5452TIP3   OH237846   2.755   4.264  12.539 -0.1799 -0.7609 -0.3593
 5452TIP3    H137847   2.820   4.194  12.529  0.7874  0.3758 -2.8117
 5452TIP3    H237848   2.671   4.217  12.547  0.5909 -2.2155 -0.4179
 5453TIP3   OH237849   0.037   0.788  14.775 -0.7670  0.4617  0.0065
 5453TIP3    H137850   0.015   0.876  14.744 -0.6283  0.1431 -1.0244
 5453TIP3    H237851  -0.030   0.732  14.735  0.7741 -0.2697 -1.6743
 5454TIP3   OH237852   2.222   5.645  16.089 -0.1422 -0.0157 -0.3378
 5454TIP3    H137853   2.189   5.591  16.160  1.7567 -0.1386  0.4961
 5454TIP3    H237854   2.316   5.626  16.085 -0.2024 -0.0831 -2.9507
 5455TIP3   OH237855   4.996   5.224   1.371 -0.0299 -0.1554 -0.1285
 5455TIP3    H137856   4.997   5.150   1.432  0.2926  0.0315  0.0969
 5455TIP3    H237857   5.003   5.301   1.427  1.5347 -0.0228 -0.4520
 5456TIP3   OH237858   4.113   3.217  11.206  0.0908 -0.1596 -0.1820
 5456TIP3    H137859   4.101   3.272  11.129 -0.9855  0.9401  0.7282
 5456TIP3    H237860   4.197   3.246  11.243  1.2791 -1.5929 -1.5945
 5457TIP3   OH237861   0.640   3.582  11.830 -0.1861 -0.1558  0.4659
 5457TIP3    H137862   0.661   3.538  11.912  1.8706  0.4787  0.3533
 5457TIP3    H237863   0.655   3.675  11.847 -1.2515  0.1582 -0.2076
 5458TIP3   OH237864   4.308   6.044   6.506  0.3096 -0.7725 -0.0807
 5458TIP3    H137865   4.396   6.028   6.470 -0.0014 -2.0270 -0.3386
 5458TIP3    H237866   4.307   5.995   6.588  1.0664  2.1986  1.8625
 5459TIP3   OH237867   5.723   0.947  14.810 -0.1254 -0.0997  0.1575
 5459TIP3    H137868   5.718   0.910  14.898 -1.9934 -0.0842  0.1001
 5459TIP3    H237869   5.780   0.888  14.761 -0.8166 -1.3306  0.8069
 5460TIP3   OH237870   5.271   2.058  13.742 -0.4258 -0.2393 -0.9134
 5460TIP3    H137871   5.195   2.004  13.761 -0.2188 -1.3701 -2.9685
 5460TIP3    H237872   5.312   2.016  13.666  1.6526  0.9328 -0.5262
 5461TIP3   OH237873   6.650   1.235   2.929 -0.1254 -0.2004 -0.3013
 5461TIP3    H137874   6.716   1.294   2.892 -1.8951  0.6868 -2.2827
 5461TIP3    H237875   6.633   1.269   3.016  1.6111 -0.1385  0.0556
 5462TIP3   OH237876   1.110   2.529  13.334 -0.8967  0.2963 -0.5978
 5462TIP3    H137877   1.110   2.438  13.306 -3.6577  0.1307 -0.2784
 5462TIP3    H237878   1.133   2.578  13.255  1.3030 -0.6435 -0.6099
 5463TIP3   OH237879   3.016   5.797  16.061 -0.3774 -0.6077 -0.2214
 5463TIP3    H137880   2.939   5.811  16.006  0.2414  0.2938 -0.8907
 5463TIP3    H237881   3.012   5.866  16.128  1.1412  1.1115 -1.7795
 5464TIP3   OH237882   2.302   2.901  16.932 -0.0953 -0.0880  0.4285
 5464TIP3    H137883   2.267   2.894  16.843 -0.4327  0.0278  0.5508
 5464TIP3    H237884   2.225   2.910  16.987  0.1493  0.6421  0.6577
 5465TIP3   OH237885   5.029   4.146   3.773 -0.2669 -0.3124  0.2797
 5465TIP3    H137886   5.022   4.203   3.850 -1.1816 -1.3859  1.0244
 5465TIP3    H237887   5.099   4.185   3.721  0.0163  0.7413  1.3932
 5466TIP3   OH237888   3.387   2.998  10.829 -0.1805 -0.4926 -0.1635
 5466TIP3    H137889   3.329   2.923  10.844  1.4512 -1.6788  0.6071
 5466TIP3    H237890   3.472   2.969  10.862  1.7298 -0.0953 -4.1816
 5467TIP3   OH237891   0.417   1.089   2.913 -0.3296  0.4349 -0.0249
 5467TIP3    H137892   0.349   1.137   2.961 -0.1058 -0.3915  1.1597
 5467TIP3    H237893   0.372   1.010   2.881 -0.3673  0.7708 -0.8251
 5468TIP3   OH237894   6.505   5.345   2.569 -0.5347  0.0161 -0.0143
 5468TIP3    H137895   6.550   5.327   2.652  1.1603 -1.0107 -1.1048
 5468TIP3    H237896   6.412   5.334   2.590 -0.1690  0.0653  1.8073
 5469TIP3   OH237897   1.940   5.508  15.796 -0.5902  0.2695 -0.2517
 5469TIP3    H137898   1.854   5.549  15.804 -0.0400  2.6886 -4.1016
 5469TIP3    H237899   2.002   5.577  15.819  0.3772 -0.7932  0.4389
 5470TIP3   OH237900   2.416   3.015  13.598 -0.7690  0.7688  0.1103
 5470TIP3    H137901   2.475   2.948  13.635 -0.9367  0.2875 -0.4830
 5470TIP3    H237902   2.328   2.982  13.617 -0.8561  0.5044 -0.7412
 5471TIP3   OH237903   1.277   6.216  16.345 -0.2019  0.2280 -0.4009
 5471TIP3    H137904   1.245   6.134  16.306  2.1618  0.8082 -3.9833
 5471TIP3    H237905   1.358   6.235  16.298  2.8301  1.4534  4.5974
 5472TIP3   OH237906   6.371   2.417   3.392  0.5075 -0.0020 -0.0549
 5472TIP3    H137907   6.430   2.345   3.371  0.0013 -0.3913 -0.1745
 5472TIP3    H237908   6.314   2.424   3.315  0.4264  0.4014  0.0378
 5473TIP3   OH237909   2.185   4.703   2.353  0.3075  0.4678 -0.2072
 5473TIP3    H137910   2.252   4.662   2.299 -1.5268 -1.7195 -0.9488
 5473TIP3    H237911   2.234   4.740   2.427  2.5889  1.3703 -2.0515
 5474TIP3   OH237912   1.972   1.321   2.781 -0.1163  0.9540 -1.0105
 5474TIP3    H137913   2.050   1.369   2.754  0.7140  0.4259  0.4020
 5474TIP3    H237914   1.989   1.230   2.755  0.4920  0.5250  0.7804
 5475TIP3   OH237915   3.797   6.301   4.162  0.1750  0.0223  0.1694
 5475TIP3    H137916   3.829   6.265   4.245 -0.8361 -2.3177 -0.3892
 5475TIP3    H237917   3.877   6.321   4.113  0.7860 -0.3195  0.9941
 5476TIP3   OH237918   0.702   4.811  14.875 -0.1970  0.3325  0.1063
 5476TIP3    H137919   0.686   4.895  14.917 -0.4141  0.3509 -0.0140
 5476TIP3    H237920   0.615   4.773  14.863 -0.1150  0.1942 -0.0570
 5477TIP3   OH237921   1.444   4.368   5.013 -0.0633  0.1629 -0.1831
 5477TIP3    H137922   1.454   4.356   4.919 -0.5283 -1.7008 -0.0342
 5477TIP3    H237923   1.361   4.415   5.023 -0.2478 -0.0558 -0.6866
 5478TIP3   OH237924   2.643   2.628  15.788 -0.2376  0.0919 -0.1557
 5478TIP3    H137925   2.549   2.644  15.777  0.1065  1.4665 -1.2883
 5478TIP3    H237926   2.675   2.615  15.699  0.6759 -0.2869  0.2202
 5479TIP3   OH237927   4.057   6.028  11.895  0.0870 -0.6251 -0.1027
 5479TIP3    H137928   3.987   6.072  11.846  1.9341  0.1617 -2.2026
 5479TIP3    H237929   4.026   6.028  11.986 -2.6767 -0.4704 -0.9465
 5480TIP3   OH237930   3.163   5.635   0.160 -0.2199  0.4049 -0.4590
 5480TIP3    H137931   3.232   5.692   0.193 -0.0670  0.1038 -0.2570
 5480TIP3    H237932   3.197   5.600   0.078 -0.3293  0.6273 -0.6024
 5481TIP3   OH237933   2.245   3.867  13.664 -0.1312  0.1303  0.4685
 5481TIP3    H137934   2.339   3.885  13.667 -0.0276  0.0043 -1.0799
 5481TIP3    H237935   2.214   3.885  13.753  1.2722  0.6215  0.8852
 5482TIP3   OH237936   2.612   2.405   2.272 -0.4017 -0.5165  0.0999
 5482TIP3    H137937   2.590   2.459   2.196  1.9669  1.3068  0.5937
 5482TIP3    H237938   2.598   2.463   2.347  0.8911 -1.0160  0.7531
 5483TIP3   OH237939   3.275   4.253  11.830  0.1835  0.0918  0.1607
 5483TIP3    H137940   3.270   4.335  11.879  2.2373 -0.3326  1.1949
 5483TIP3    H237941   3.196   4.206  11.854  0.2621  0.6584  1.6738
 5484TIP3   OH237942   5.280   3.283   4.197  0.4352 -0.3873 -0.3128
 5484TIP3    H137943   5.298   3.258   4.106 -0.2150 -1.3295 -0.1898
 5484TIP3    H237944   5.332   3.222   4.249 -0.4244 -0.8848 -0.0257
 5485TIP3   OH237945   4.027   3.403   0.791 -0.4691 -0.0783 -0.3034
 5485TIP3    H137946   3.940   3.396   0.832 -0.7155  0.5056 -0.7101
 5485TIP3    H237947   4.041   3.318   0.749 -1.4862  0.3082 -1.4730
 5486TIP3   OH237948   0.107   6.257   1.176  0.0019  0.1301 -0.1298
 5486TIP3    H137949   0.168   6.185   1.163  1.1589  0.5599  2.4165
 5486TIP3    H237950   0.162   6.333   1.194 -1.1569  0.3673  3.0533
 5487TIP3   OH237951   4.384   2.423   4.710 -0.1013  0.1614  0.1586
 5487TIP3    H137952   4.434   2.492   4.755  0.2888 -0.1643  0.2284
 5487TIP3    H237953   4.451   2.367   4.671 -0.4317  0.5113 -0.9497
 5488TIP3   OH237954   6.025   2.639   5.017 -0.2053  0.2812  0.8776
 5488TIP3    H137955   6.041   2.553   4.978  1.6429  1.8727 -2.2658
 5488TIP3    H237956   6.090   2.645   5.087  0.9300 -0.2207 -0.0970
 5489TIP3   OH237957   3.355   1.434   0.665  0.5052 -0.9222 -0.2445
 5489TIP3    H137958   3.445   1.468   0.666  0.3269 -0.4312 -0.4600
 5489TIP3    H237959   3.365   1.341   0.685  0.7955 -0.3257  2.7569
 5490TIP3   OH237960   1.448   2.519  13.824  0.2138 -0.4838  0.2391
 5490TIP3    H137961   1.509   2.593  13.828  0.1547 -0.3754 -0.6649
 5490TIP3    H237962   1.441   2.489  13.915  0.2907  0.5792  0.6138
 5491TIP3   OH237963   0.462   2.067   2.468 -0.2937  0.2335 -0.1832
 5491TIP3    H137964   0.370   2.063   2.496 -0.6013  3.6273 -0.2046
 5491TIP3    H237965   0.460   2.120   2.388  1.7451  1.7633  0.6801
 5492TIP3   OH237966   2.805   6.636   5.056 -0.0664  0.5023  0.5710
 5492TIP3    H137967   2.829   6.700   5.122 -2.1547  0.8622  1.0557
 5492TIP3    H237968   2.853   6.557   5.080  0.9820  1.2910  1.1348
 5493TIP3   OH237969   0.974   4.049   1.455  0.9921 -0.4373 -0.3293
 5493TIP3    H137970   1.008   4.033   1.542  0.7173 -0.8085 -0.2844
 5493TIP3    H237971   1.028   3.995   1.397  1.3218 -0.0161 -0.4188
 5494TIP3   OH237972   6.309   2.905   2.533  0.2046  0.0656  1.0078
 5494TIP3    H137973   6.341   2.831   2.481 -0.3482 -0.2728  1.1443
 5494TIP3    H237974   6.381   2.969   2.530 -0.5085  0.8692 -1.7408
 5495TIP3   OH237975   0.410   6.156  12.724 -0.7024  0.2930  0.0963
 5495TIP3    H137976   0.490   6.186  12.769 -0.5864  0.6295 -0.3318
 5495TIP3    H237977   0.341   6.167  12.789 -0.2466 -1.0139  0.8514
 5496TIP3   OH237978   4.481   5.341  11.807  0.1680 -0.2455  0.1737
 5496TIP3    H137979   4.539   5.401  11.854  0.3139 -0.7995  0.6951
 5496TIP3    H237980   4.533   5.263  11.792  1.3602  1.0426 -3.9224
 5497TIP3   OH237981   4.904   5.408  16.422  0.6360  0.0035 -0.5198
 5497TIP3    H137982   4.957   5.428  16.345  1.4040 -1.0731 -0.2928
 5497TIP3    H237983   4.965   5.365  16.482 -0.1966 -0.0999  0.2725
 5498TIP3   OH237984   6.426   3.040   0.472 -0.4933  0.3783 -0.3057
 5498TIP3    H137985   6.487   3.113   0.463  1.6736 -1.2880  0.2207
 5498TIP3    H237986   6.439   3.009   0.561 -1.6978 -0.4299 -0.3827
 5499TIP3   OH237987   6.622   2.609  14.543  0.0564 -0.0345 -0.1098
 5499TIP3    H137988   6.562   2.676  14.576  1.4691  1.6565 -0.8184
 5499TIP3    H237989   6.635   2.632  14.451  2.6512  0.3741  0.2949
 5500TIP3   OH237990   3.269   1.997   1.602  0.1692 -0.2742 -0.2839
 5500TIP3    H137991   3.197   1.988   1.540 -1.3317 -0.8983  1.4284
 5500TIP3    H237992   3.333   1.932   1.574 -0.2703 -0.2436 -1.4093
 5501TIP3   OH237993   4.581   2.494  14.508  0.6065 -0.5797 -0.2765
 5501TIP3    H137994   4.586   2.446  14.425  0.0344 -0.2078 -0.5300
 5501TIP3    H237995   4.559   2.427  14.572  0.7295 -0.8135 -0.4736
 5502TIP3   OH237996   3.285   0.886  13.900 -0.3966  0.3974 -0.2040
 5502TIP3    H137997   3.336   0.819  13.947  1.4941  0.3596 -2.1454
 5502TIP3    H237998   3.197   0.850  13.896  0.1223 -1.0433  0.5596
 5503TIP3   OH237999   0.212   4.096   4.610  0.6140 -0.0461 -0.7588
 5503TIP3    H138000   0.297   4.139   4.622  1.4696 -2.0546  0.9654
 5503TIP3    H238001   0.148   4.161   4.640  1.7480  0.5237  0.5386
 5504TIP3   OH238002   2.444   5.011   2.815 -0.2524  0.3729  0.8197
 5504TIP3    H138003   2.496   4.932   2.826  0.3910  0.8690  1.4654
 5504TIP3    H238004   2.367   4.998   2.870  1.7290  1.7741  4.2222
 5505TIP3   OH238005   4.945   5.478   4.092  0.3627 -0.3368  0.5551
 5505TIP3    H138006   4.884   5.500   4.021  0.5904 -0.6776  0.2512
 5505TIP3    H238007   5.030   5.471   4.050  0.6919  0.5489  1.0500
 5506TIP3   OH238008   5.747   5.153   3.199 -0.5714  0.2807 -0.0888
 5506TIP3    H138009   5.741   5.094   3.274  0.2730 -0.6507 -0.7323
 5506TIP3    H238010   5.786   5.233   3.235 -1.9892  0.5885  0.8444
 5507TIP3   OH238011   3.914   1.313   1.625 -0.2790 -0.2214 -0.5366
 5507TIP3    H138012   3.989   1.302   1.566  1.1118 -0.4840  1.2111
 5507TIP3    H238013   3.937   1.389   1.678 -2.0135  0.6930 -1.0131
 5508TIP3   OH238014   3.018   5.256  16.883  0.2927  0.2361  0.3786
 5508TIP3    H138015   2.991   5.312  16.810 -0.4136 -1.1948 -0.5062
 5508TIP3    H238016   3.110   5.277  16.897  0.4186  0.5889 -0.8857
 5509TIP3   OH238017   6.180   4.512  17.106  0.1916 -0.5431 -0.2672
 5509TIP3    H138018   6.092   4.541  17.130 -0.1887 -0.3978 -1.7542
 5509TIP3    H238019   6.237   4.549  17.174 -0.9064 -0.8440  0.8561
 5510TIP3   OH238020   1.379   5.917  16.939  0.4503 -0.3723 -0.2928
 5510TIP3    H138021   1.362   5.929  16.846 -1.5642 -0.9661 -0.0527
 5510TIP3    H238022   1.383   5.822  16.951  0.7650 -0.3023  0.2111
 5511TIP3   OH238023   5.626   2.428  11.571 -0.5138  0.2132  0.4844
 5511TIP3    H138024   5.661   2.383  11.494  1.0744  2.7037 -0.3492
 5511TIP3    H238025   5.696   2.424  11.636 -1.4688 -0.9890  1.4887
 5512TIP3   OH238026   0.403   0.332  16.470  0.1089 -0.7271 -0.1645
 5512TIP3    H138027   0.327   0.382  16.501  0.1838 -1.3352  1.0979
 5512TIP3    H238028   0.431   0.282  16.547  2.1494 -0.0838 -0.4226
 5513TIP3   OH238029   4.409   1.674   4.548  0.0321 -0.2870 -0.4961
 5513TIP3    H138030   4.453   1.676   4.633  0.1777  0.6580 -0.5835
 5513TIP3    H238031   4.480   1.663   4.484 -0.0898 -1.1439 -0.4985
 5514TIP3   OH238032   3.626   0.663   0.472  0.2227 -0.5232  0.0691
 5514TIP3    H138033   3.531   0.667   0.466  0.1997  0.2150  0.6957
 5514TIP3    H238034   3.657   0.710   0.394  0.0574  0.1605  0.4097
 5515TIP3   OH238035   3.573   2.710   4.933 -0.8851 -0.1149 -0.1301
 5515TIP3    H138036   3.558   2.620   4.963  0.2842 -0.4771 -0.5975
 5515TIP3    H238037   3.586   2.702   4.839  1.6674  0.1899  0.1260
 5516TIP3   OH238038   3.642   4.559  13.205 -0.0003  0.2867  0.7381
 5516TIP3    H138039   3.633   4.496  13.276  0.5187  0.4525  0.9527
 5516TIP3    H238040   3.575   4.532  13.141 -0.7421  0.3852  1.4606
 5517TIP3   OH238041   5.173   2.977   1.099  0.4618 -0.0231  0.6011
 5517TIP3    H138042   5.266   2.967   1.082  0.1392 -2.2218 -0.1483
 5517TIP3    H238043   5.164   2.963   1.194  0.6704 -2.2250  0.3414
 5518TIP3   OH238044   1.968   3.927   4.954 -0.3022 -0.0574  0.2783
 5518TIP3    H138045   1.923   4.008   4.978 -1.4747 -0.2198 -1.2434
 5518TIP3    H238046   1.904   3.878   4.903  1.6057 -0.2567 -2.0935
 5519TIP3   OH238047   0.034   1.062   1.528 -0.3659  0.4300  0.2158
 5519TIP3    H138048  -0.054   1.100   1.520 -0.5318 -0.2966 -2.1455
 5519TIP3    H238049   0.025   0.973   1.492  1.1510  0.0174  0.7728
 5520TIP3   OH238050   6.253   5.998  11.890  0.1155 -0.4988  0.2467
 5520TIP3    H138051   6.247   6.077  11.836 -0.3444 -0.0265  0.9580
 5520TIP3    H238052   6.258   6.032  11.980 -0.9259 -1.3037  0.6210
 5521TIP3   OH238053   5.753   5.478   1.626 -0.0163  0.3482  0.1195
 5521TIP3    H138054   5.728   5.402   1.679 -0.9199  1.1971  0.9560
 5521TIP3    H238055   5.798   5.536   1.687 -1.9068  1.7658  0.2500
 5522TIP3   OH238056   2.335   5.054   4.412 -0.4576 -0.2466  0.3465
 5522TIP3    H138057   2.367   5.133   4.456 -0.3062  0.1441 -0.4404
 5522TIP3    H238058   2.239   5.061   4.418 -0.4357 -0.3504  0.8666
 5523TIP3   OH238059   2.593   1.934   4.002  0.3030 -0.3919  0.0229
 5523TIP3    H138060   2.533   2.008   3.991 -0.0458 -0.9366 -2.3127
 5523TIP3    H238061   2.540   1.857   3.981  1.6040 -0.9481 -1.3577
 5524TIP3   OH238062   6.279   5.387   0.934 -0.5787  0.0849 -0.2747
 5524TIP3    H138063   6.327   5.360   0.856  3.5309  2.1631  1.2134
 5524TIP3    H238064   6.265   5.481   0.922 -2.7028 -0.1179  0.2285
 5525TIP3   OH238065   0.106   5.232  14.468  0.1292  0.0053 -0.4429
 5525TIP3    H138066   0.143   5.145  14.452 -0.0581 -0.8412  2.9436
 5525TIP3    H238067   0.140   5.256  14.554 -0.7792  2.8014 -0.7801
 5526TIP3   OH238068   6.237   3.020  12.480 -0.1444  0.4623  0.7294
 5526TIP3    H138069   6.245   3.060  12.394 -1.0973 -1.2632 -0.2095
 5526TIP3    H238070   6.321   2.976  12.494 -0.3267 -0.0233  0.2814
 5527TIP3   OH238071   4.351   5.971   6.777 -0.3577  0.2302 -0.2921
 5527TIP3    H138072   4.284   5.933   6.833  1.6830 -0.6528  1.6999
 5527TIP3    H238073   4.416   6.008   6.837  0.5434  1.8869 -2.1238
 5528TIP3   OH238074   3.578   4.654   2.871 -0.1815  0.0661  0.3064
 5528TIP3    H138075   3.505   4.699   2.828 -1.3162 -1.3083  0.7342
 5528TIP3    H238076   3.544   4.630   2.957  0.2841 -1.8312  0.0015
 5529TIP3   OH238077   0.415   2.164   6.137  0.0517 -0.1526  0.0555
 5529TIP3    H138078   0.335   2.169   6.085 -1.3238 -0.5929  2.0410
 5529TIP3    H238079   0.428   2.070   6.152  1.2974 -0.1342 -0.6880
 5530TIP3   OH238080   2.041   1.753  14.835 -0.0307 -0.1260 -0.3434
 5530TIP3    H138081   2.012   1.785  14.750 -0.4498 -0.7438 -0.4380
 5530TIP3    H238082   2.010   1.663  14.839  0.5539 -0.3132  0.1917
 5531TIP3   OH238083   1.493   0.625   5.371 -0.3303  0.3690  0.3006
 5531TIP3    H138084   1.452   0.548   5.332  0.9142 -0.3122  0.2672
 5531TIP3    H238085   1.563   0.649   5.310  0.3805  0.4834  1.1299
 5532TIP3   OH238086   0.075   0.876   6.405 -0.7296  0.3407  0.6273
 5532TIP3    H138087   0.167   0.866   6.431 -0.9751 -0.9260  1.0890
 5532TIP3    H238088   0.033   0.917   6.480 -0.8217 -0.4532  1.0211
 5533TIP3   OH238089   4.047   4.767   5.225 -0.0084 -0.0784  0.0087
 5533TIP3    H138090   3.974   4.801   5.276  0.4734 -0.3684  0.9023
 5533TIP3    H238091   4.019   4.680   5.197 -0.9565  0.7025 -1.6880
 5534TIP3   OH238092   0.427   2.003  16.023  0.4605 -0.8032  0.5171
 5534TIP3    H138093   0.491   1.963  16.082  1.1414 -1.4678 -0.6343
 5534TIP3    H238094   0.343   1.962  16.048  0.7832 -1.2875  0.8271
 5535TIP3   OH238095   4.017   1.847   3.865  0.0824  0.5534 -0.0941
 5535TIP3    H138096   3.998   1.766   3.912 -1.0898  0.4763 -0.6688
 5535TIP3    H238097   3.972   1.915   3.915 -2.7046  0.2522 -1.9669
 5536TIP3   OH238098   3.355   1.295   5.226  0.0811  0.2293  0.0183
 5536TIP3    H138099   3.315   1.260   5.147  0.1072 -2.0561  0.9507
 5536TIP3    H238100   3.448   1.273   5.218 -0.0456 -0.7479  1.0204
 5537TIP3   OH238101   4.436   0.117   4.243  0.2747 -0.0519 -0.4137
 5537TIP3    H138102   4.490   0.111   4.164  0.3925 -2.5215 -0.2314
 5537TIP3    H238103   4.446   0.207   4.273  2.6705  0.1224 -1.5162
 5538TIP3   OH238104   4.378   1.295  14.953  0.1399 -0.6646 -0.4871
 5538TIP3    H138105   4.374   1.258  15.041  1.0746  0.2680 -0.0294
 5538TIP3    H238106   4.469   1.322  14.942  0.1535 -1.1954 -1.9386
 5539TIP3   OH238107   3.732   3.414  16.184  0.1694  0.2071  0.0780
 5539TIP3    H138108   3.773   3.381  16.104  1.2927  0.9112  0.3384
 5539TIP3    H238109   3.753   3.508  16.184 -0.6597  0.4021  0.7044
 5540TIP3   OH238110   0.526   6.108   2.369 -0.0558  0.0635  0.2337
 5540TIP3    H138111   0.538   6.150   2.454 -0.9437  1.3408 -0.2288
 5540TIP3    H238112   0.441   6.064   2.375 -0.2257  0.3441 -0.0473
 5541TIP3   OH238113   1.917   0.721  13.633 -0.2360  0.6282 -0.1099
 5541TIP3    H138114   1.894   0.809  13.601  2.8046  0.9783 -1.7535
 5541TIP3    H238115   1.941   0.734  13.724 -2.7640  0.8648  0.5829
 5542TIP3   OH238116   6.354   1.249  15.779 -0.3227  0.4031 -0.3631
 5542TIP3    H138117   6.406   1.310  15.832 -3.1338  2.4494  0.2984
 5542TIP3    H238118   6.296   1.306  15.727 -2.2063 -1.6858 -0.7123
 5543TIP3   OH238119   4.417   1.737  16.717 -0.4561 -0.1070  0.0605
 5543TIP3    H138120   4.488   1.701  16.771 -0.7902 -0.6830  0.1208
 5543TIP3    H238121   4.458   1.810  16.670  0.0578 -0.1395  0.4450
 5544TIP3   OH238122   2.840   5.491   5.933  0.7070  0.2753  0.1126
 5544TIP3    H138123   2.817   5.505   6.025 -0.2120  0.2979 -0.1026
 5544TIP3    H238124   2.853   5.396   5.925 -0.3850  0.1085  0.0408
 5545TIP3   OH238125   2.045   0.264   5.118  0.6551  0.0763  0.7533
 5545TIP3    H138126   1.973   0.219   5.163 -1.4569  0.7153 -1.7569
 5545TIP3    H238127   2.003   0.337   5.073  3.2643  1.7416  0.8593
 5546TIP3   OH238128   5.536   1.292   4.281  0.2555 -0.1995  0.1343
 5546TIP3    H138129   5.452   1.329   4.254 -0.2259 -1.3878 -0.0470
 5546TIP3    H238130   5.599   1.324   4.216 -0.1183  0.4017  0.0657
 5547TIP3   OH238131   4.062   1.628  17.069  0.8558 -0.4419 -0.4677
 5547TIP3    H138132   4.034   1.664  16.985  0.2674 -0.2150 -0.1797
 5547TIP3    H238133   3.984   1.633  17.125  1.1426 -0.9147 -0.0158
 5548TIP3   OH238134   3.290   3.011   1.878  0.0949  0.4873 -0.3525
 5548TIP3    H138135   3.230   2.975   1.943  1.2346 -0.2161  0.3337
 5548TIP3    H238136   3.311   3.098   1.911  0.6250  0.1534  0.2000
 5549TIP3   OH238137   4.939   4.784   0.718 -0.1581  0.3286  0.1644
 5549TIP3    H138138   5.022   4.745   0.690  0.6592  0.9233  1.6478
 5549TIP3    H238139   4.892   4.802   0.637  0.5607 -1.2923 -0.6571
 5550TIP3   OH238140   4.162   2.276   2.546  0.3745 -0.0267  0.3445
 5550TIP3    H138141   4.225   2.207   2.524  0.8483  0.9477 -1.6235
 5550TIP3    H238142   4.144   2.319   2.462 -3.0047 -0.3001  0.8118
 5551TIP3   OH238143   2.735   4.775  13.090 -0.3583 -0.2863 -0.2501
 5551TIP3    H138144   2.682   4.727  13.026  0.4643 -1.1110 -0.3403
 5551TIP3    H238145   2.719   4.867  13.071 -1.3117 -0.5234 -0.6370
 5552TIP3   OH238146   5.369   6.261  14.625  0.6544 -0.5756  0.0930
 5552TIP3    H138147   5.313   6.302  14.559 -0.5444 -1.0896  0.7765
 5552TIP3    H238148   5.428   6.332  14.653  0.0768  0.0836 -0.3279
 5553TIP3   OH238149   6.558   6.558  15.323  0.5534  0.3229 -0.2999
 5553TIP3    H138150   6.504   6.570  15.245 -0.8770 -2.0914  0.1938
 5553TIP3    H238151   6.632   6.505  15.293  0.1869 -0.3083 -0.1004
 5554TIP3   OH238152   2.853   3.508   3.470  0.2674 -0.9073 -0.6735
 5554TIP3    H138153   2.840   3.417   3.444  1.2580 -0.6984 -1.9864
 5554TIP3    H238154   2.891   3.503   3.558  2.4067 -1.8637 -1.6027
 5555TIP3   OH238155   5.478   5.783   1.893 -0.4261 -0.1607  0.4131
 5555TIP3    H138156   5.513   5.822   1.973 -2.9643  3.3086  0.0554
 5555TIP3    H238157   5.403   5.731   1.923  0.8803 -2.1193  0.5220
 5556TIP3   OH238158   3.546   0.926   0.173  0.2442 -0.5128 -0.1635
 5556TIP3    H138159   3.536   0.944   0.267  1.8982 -1.0854  0.1629
 5556TIP3    H238160   3.498   0.845   0.159  0.4421 -0.7191  0.3171
 5557TIP3   OH238161   6.131   5.967  15.642  0.0804 -0.0782  0.1978
 5557TIP3    H138162   6.078   6.030  15.691 -1.7693 -0.2822 -1.3886
 5557TIP3    H238163   6.133   6.003  15.553  1.5639 -0.7563 -0.0687
 5558TIP3   OH238164   4.370   2.276   5.247 -0.1639  0.2161  0.0214
 5558TIP3    H138165   4.426   2.337   5.296 -1.0717  0.9301  0.2252
 5558TIP3    H238166   4.327   2.331   5.181 -1.7497  0.0336  0.8377
 5559TIP3   OH238167   1.267   0.711  13.775  0.4960 -0.3131 -0.3005
 5559TIP3    H138168   1.296   0.767  13.846 -1.4536  1.0982 -0.5346
 5559TIP3    H238169   1.345   0.697  13.721  1.3420  1.0194  0.5416
 5560TIP3   OH238170   5.735   3.801  15.668  0.0786 -0.6635  0.2040
 5560TIP3    H138171   5.696   3.720  15.701  1.0555 -1.3801 -0.3493
 5560TIP3    H238172   5.690   3.818  15.585  1.0166 -1.5760 -0.5126
 5561TIP3   OH238173   6.196   4.406   4.852  0.0339  0.2891 -0.5631
 5561TIP3    H138174   6.139   4.483   4.850  0.8321  0.8977 -0.4017
 5561TIP3    H238175   6.194   4.372   4.763 -0.5352  0.3286 -0.5713
 5562TIP3   OH238176   3.984   1.464   1.958 -0.3335  0.1536  0.4872
 5562TIP3    H138177   3.918   1.474   2.027  0.1152  0.1492  0.9180
 5562TIP3    H238178   4.024   1.551   1.951 -0.5046  0.2043  0.0964
 5563TIP3   OH238179   4.942   0.655   0.563  0.2663  0.1689  0.4345
 5563TIP3    H138180   4.984   0.569   0.556  1.2632  0.7042 -0.2350
 5563TIP3    H238181   5.013   0.714   0.588  0.3643  1.4147 -2.4359
 5564TIP3   OH238182   5.499   4.199   5.025 -0.0437  0.5716  0.4195
 5564TIP3    H138183   5.473   4.263   4.959 -1.2085  1.6567  1.8753
 5564TIP3    H238184   5.503   4.116   4.977 -2.1867  1.0755 -0.7680
 5565TIP3   OH238185   6.258   3.299  16.342 -0.3002 -0.0726  0.2742
 5565TIP3    H138186   6.231   3.357  16.271  1.8292 -0.5195 -0.9952
 5565TIP3    H238187   6.199   3.321  16.414 -1.6962  1.3211 -1.1971
 5566TIP3   OH238188   0.669   5.282   0.273  0.5360 -0.0551 -0.3702
 5566TIP3    H138189   0.662   5.301   0.179  1.3033  1.2677 -0.1958
 5566TIP3    H238190   0.678   5.187   0.278  2.5566 -0.0184 -1.8246
 5567TIP3   OH238191   0.438   3.687  13.914 -0.1097 -0.6699 -0.2520
 5567TIP3    H138192   0.350   3.691  13.952 -0.7343 -1.4174 -1.5670
 5567TIP3    H238193   0.486   3.758  13.958 -1.5922  0.2667 -0.0860
 5568TIP3   OH238194   4.909   3.684   5.830  0.6882  0.3348 -0.0247
 5568TIP3    H138195   4.832   3.628   5.825 -0.2934  1.5190  0.9924
 5568TIP3    H238196   4.958   3.665   5.750  1.5024 -3.4131  1.1557
 5569TIP3   OH238197   4.270   0.590   1.464  0.3648  0.6513  0.1762
 5569TIP3    H138198   4.340   0.536   1.428  0.6045  0.9514  0.1859
 5569TIP3    H238199   4.236   0.638   1.389  0.1390  0.4738  0.1640
 5570TIP3   OH238200   6.517   4.900   5.821 -0.0406 -0.7069  0.2577
 5570TIP3    H138201   6.516   4.846   5.900 -0.4954  0.4842  1.1015
 5570TIP3    H238202   6.606   4.932   5.814  0.0678 -1.0339  0.1220
 5571TIP3   OH238203   5.237   5.493  13.293  0.4177 -0.3577 -0.0509
 5571TIP3    H138204   5.274   5.524  13.376 -0.3156 -0.5846  0.3758
 5571TIP3    H238205   5.308   5.501  13.230  0.8889  0.1387  0.5292
 5572TIP3   OH238206   4.292   2.103   3.025 -0.0802  1.0560  0.4286
 5572TIP3    H138207   4.314   2.162   3.097 -2.0032  1.0269  1.1021
 5572TIP3    H238208   4.307   2.015   3.060  4.8735  0.9293 -1.2481
 5573TIP3   OH238209   6.058   0.718   2.020  0.5496 -0.6141 -0.4607
 5573TIP3    H138210   6.068   0.793   1.961  0.1897  0.4081  0.7259
 5573TIP3    H238211   6.144   0.677   2.021  1.5976  1.4321  0.9613
 5574TIP3   OH238212   3.426   1.093   1.815  0.2213  0.0209  0.0040
 5574TIP3    H138213   3.488   1.021   1.823  0.9613  0.8597  3.1613
 5574TIP3    H238214   3.342   1.056   1.842 -0.1040 -0.3668 -1.4258
 5575TIP3   OH238215   5.890   2.481   5.201  0.1493 -0.5458 -0.7514
 5575TIP3    H138216   5.819   2.531   5.241  2.1071  0.5322  1.6302
 5575TIP3    H238217   5.932   2.543   5.141  0.5400 -0.3888 -0.3203
 5576TIP3   OH238218   3.870   5.592   5.988 -0.2584  0.6511 -0.4818
 5576TIP3    H138219   3.881   5.686   5.970  0.4767  0.8714  0.9918
 5576TIP3    H238220   3.776   5.578   5.983 -0.6182  1.9740  1.5217
 5577TIP3   OH238221   0.184   1.347  11.316 -0.0055  0.0946  0.4337
 5577TIP3    H138222   0.263   1.294  11.302 -0.6522 -1.0283  0.9687
 5577TIP3    H238223   0.153   1.322  11.403 -3.4476 -2.9096 -1.3941
 5578TIP3   OH238224   3.233   1.045  11.495 -0.0013  0.1300 -0.4909
 5578TIP3    H138225   3.154   0.992  11.499 -0.9545  1.5019 -0.6514
 5578TIP3    H238226   3.236   1.079  11.406  0.7546  0.1339 -0.4768
 5579TIP3   OH238227   3.874   0.741  12.033  0.1184 -0.2447 -0.1123
 5579TIP3    H138228   3.894   0.670  12.094 -1.0155  1.5989  2.5547
 5579TIP3    H238229   3.801   0.789  12.073 -0.2314  1.5233 -2.5841
 5580TIP3   OH238230   0.999   2.026   5.177  0.1415 -0.4082  0.2672
 5580TIP3    H138231   1.094   2.034   5.169  0.1554 -0.7438  0.1131
 5580TIP3    H238232   0.972   1.977   5.100 -0.2559  0.4241 -0.1439
 5581TIP3   OH238233   6.261   4.797  13.831 -0.1076  0.3452  0.4266
 5581TIP3    H138234   6.236   4.838  13.913 -2.1243 -1.8433  1.0482
 5581TIP3    H238235   6.326   4.731  13.855 -0.5049 -0.1205  0.2491
 5582TIP3   OH238236   1.998   3.252   2.224  0.2099  0.3119 -0.1645
 5582TIP3    H138237   1.965   3.327   2.173 -4.1645 -0.3261  1.2638
 5582TIP3    H238238   2.003   3.181   2.160 -0.0068  0.7809 -0.7169
 5583TIP3   OH238239   1.169   5.155   1.864 -0.3965  0.3145  0.3988
 5583TIP3    H138240   1.092   5.137   1.918 -0.0458 -1.3050  0.4066
 5583TIP3    H238241   1.191   5.071   1.825  0.1648  1.1697 -1.2269
 5584TIP3   OH238242   1.843   4.499  13.475  0.4165  0.1627  0.4368
 5584TIP3    H138243   1.878   4.447  13.403  1.1778 -0.2457  1.0857
 5584TIP3    H238244   1.784   4.561  13.433 -2.0737 -2.4339 -0.2319
 5585TIP3   OH238245   3.837   1.360  11.591 -0.2664  0.6563  0.1458
 5585TIP3    H138246   3.831   1.310  11.672  0.3194 -1.1931 -0.8849
 5585TIP3    H238247   3.923   1.338  11.556 -1.0413  0.2729 -1.6402
 5586TIP3   OH238248   2.647   1.380   2.980  0.0049  0.6736 -0.1848
 5586TIP3    H138249   2.559   1.385   3.017  1.4252  0.6563  3.6387
 5586TIP3    H238250   2.661   1.286   2.964 -1.0103  0.7821 -2.0607
 5587TIP3   OH238251   6.486   2.928   3.938  0.7263  0.1968 -0.2495
 5587TIP3    H138252   6.456   2.972   4.018  0.0204 -1.3185  0.3459
 5587TIP3    H238253   6.581   2.942   3.937  0.5091  1.9287 -0.2220
 5588TIP3   OH238254   2.957   1.164   5.318  0.2708  0.1528  0.2660
 5588TIP3    H138255   2.873   1.121   5.303  0.5143  0.6165 -3.3989
 5588TIP3    H238256   2.934   1.244   5.366 -0.9138 -1.1031  1.9402
 5589TIP3   OH238257   4.571   3.199   4.266 -0.9620  0.1734 -0.4234
 5589TIP3    H138258   4.583   3.170   4.175 -1.8265 -1.0834 -0.1601
 5589TIP3    H238259   4.660   3.221   4.295 -0.7708  1.3906 -1.8104
 5590TIP3   OH238260   0.479   1.703  12.832  0.0899  0.0027 -0.1338
 5590TIP3    H138261   0.532   1.675  12.907  0.6770 -0.9288 -0.8727
 5590TIP3    H238262   0.392   1.667  12.848  0.1934 -0.1260  0.1364
 5591TIP3   OH238263   0.038   4.424  11.210 -0.4913  0.4420  0.1303
 5591TIP3    H138264   0.104   4.388  11.269 -1.5189  1.3443  1.8975
 5591TIP3    H238265   0.001   4.348  11.166  1.8739 -0.0659 -1.1241
 5592TIP3   OH238266   3.391   5.958  14.561  0.3429 -0.0140  0.2613
 5592TIP3    H138267   3.385   6.052  14.546  1.0023  0.0094  0.1128
 5592TIP3    H238268   3.376   5.947  14.655  1.9530  0.4181  0.5956
 5593TIP3   OH238269   2.819   3.596  10.265 -0.0281 -0.2434 -0.2036
 5593TIP3    H138270   2.864   3.526  10.219 -0.6633 -0.2884 -0.7877
 5593TIP3    H238271   2.858   3.598  10.352 -1.9591 -3.3195  0.8980
 5594TIP3   OH238272   2.241   3.367  13.534 -0.4597 -0.3497  0.4289
 5594TIP3    H138273   2.235   3.357  13.439 -2.8813  0.5189  0.4173
 5594TIP3    H238274   2.282   3.452  13.547  0.0424 -0.5498  0.1725
 5595TIP3   OH238275   6.691   6.685   4.232  0.8393 -0.1736 -0.1991
 5595TIP3    H138276   6.701   6.661   4.324 -0.3546 -0.5008 -0.1411
 5595TIP3    H238277   6.618   6.747   4.231  0.7270 -0.3066 -0.9437
 5596TIP3   OH238278   1.530   1.885  12.358 -0.8318  0.2590 -0.7478
 5596TIP3    H138279   1.440   1.852  12.368 -0.3467 -0.5822  1.1205
 5596TIP3    H238280   1.583   1.826  12.411  0.7524  1.1448 -1.3045
 5597TIP3   OH238281   6.155   5.957  16.116 -0.1773 -0.1875 -0.0257
 5597TIP3    H138282   6.128   5.876  16.072 -0.1267 -0.2367  0.0343
 5597TIP3    H238283   6.200   6.007  16.048 -0.5934 -0.0203 -0.1781
 5598TIP3   OH238284   3.272   1.894   5.624 -0.0451 -0.7410  0.0554
 5598TIP3    H138285   3.275   1.988   5.605  0.6956 -1.3126 -3.0760
 5598TIP3    H238286   3.343   1.881   5.688 -0.4727  0.8567  0.9170
 5599TIP3   OH238287   5.285   6.500   4.343  0.1046  0.2296 -0.3902
 5599TIP3    H138288   5.198   6.463   4.328  0.3655 -1.6762  2.0469
 5599TIP3    H238289   5.340   6.462   4.275 -0.4246 -0.9658 -0.1831
 5600TIP3   OH238290   5.160   1.859   1.590  0.3047 -0.4478 -0.4636
 5600TIP3    H138291   5.127   1.911   1.517 -1.8793  0.0710  0.7982
 5600TIP3    H238292   5.206   1.922   1.645 -0.0265 -0.3746 -0.2676
 5601TIP3   OH238293   3.056   6.707  17.026  0.3933 -0.0163 -0.4546
 5601TIP3    H138294   3.071   6.660  17.108 -1.6540 -0.7545 -0.4542
 5601TIP3    H238295   2.990   6.772  17.047  0.9478  0.8093 -1.1890
 5602TIP3   OH238296   2.365   3.243   4.710  0.2110  0.4895 -0.2670
 5602TIP3    H138297   2.281   3.229   4.665 -0.8615  0.2789  1.6826
 5602TIP3    H238298   2.413   3.303   4.653 -0.6583 -0.5378 -2.1474
 5603TIP3   OH238299   2.375   6.374  14.301 -0.0457  0.0966  0.6090
 5603TIP3    H138300   2.389   6.345  14.391 -2.1459  0.4803  1.1247
 5603TIP3    H238301   2.290   6.337  14.278 -0.8018  2.2430 -0.2370
 5604TIP3   OH238302   6.736   0.714  13.710 -0.0606  0.4997  0.5367
 5604TIP3    H138303   6.705   0.623  13.708  2.1602 -0.2959 -0.5951
 5604TIP3    H238304   6.664   0.765  13.673  0.3873 -1.4260 -3.4001
 5605TIP3   OH238305   5.674   0.131  11.174 -0.1640  0.8010 -0.3482
 5605TIP3    H138306   5.652   0.205  11.230 -1.4596  1.5666 -1.7827
 5605TIP3    H238307   5.750   0.160  11.123  0.9109  0.1655  0.8406
 5606TIP3   OH238308   0.482   3.918  13.678  0.4900 -0.2234  0.1948
 5606TIP3    H138309   0.402   3.940  13.726 -0.1536 -0.4651 -0.7553
 5606TIP3    H238310   0.453   3.901  13.589  1.6885  0.2824 -0.3055
 5607TIP3   OH238311   0.243   2.997   0.787 -0.2847 -0.1231  0.1346
 5607TIP3    H138312   0.225   2.905   0.806 -0.6788 -0.4282 -1.5655
 5607TIP3    H238313   0.293   3.028   0.862  0.8212 -2.0184  0.2253
 5608TIP3   OH238314   3.943   6.577  16.601 -0.3944 -0.4724 -0.2224
 5608TIP3    H138315   3.879   6.509  16.583 -1.2373  0.4702 -0.9245
 5608TIP3    H238316   3.894   6.647  16.643  0.8317 -1.0331  2.3395
 5609TIP3   OH238317   6.757   4.679   2.837 -0.9028 -0.1264 -0.8810
 5609TIP3    H138318   6.664   4.662   2.822 -0.7337 -2.4206  0.1527
 5609TIP3    H238319   6.787   4.604   2.889  1.4958  0.6263 -1.0351
 5610TIP3   OH238320   6.010   6.276  13.728 -0.4309 -0.5798  0.1853
 5610TIP3    H138321   6.045   6.364  13.745 -1.9424  0.0262  0.4281
 5610TIP3    H238322   6.062   6.218  13.783  1.1418  0.0334 -0.5937
 5611TIP3   OH238323   0.084   2.526   3.199 -0.4942 -1.3175  0.3339
 5611TIP3    H138324   0.171   2.544   3.164 -0.7346 -1.5844 -0.4178
 5611TIP3    H238325   0.072   2.590   3.268 -0.5837  0.1740 -1.0165
 5612TIP3   OH238326   3.309   6.102  16.682 -0.3986 -0.5346 -0.2394
 5612TIP3    H138327   3.394   6.146  16.679 -1.1717  1.0286 -0.3241
 5612TIP3    H238328   3.248   6.165  16.643 -1.5620 -1.7277 -0.4239
 5613TIP3   OH238329   2.445   5.470  13.244  0.2258  0.1124 -0.2941
 5613TIP3    H138330   2.441   5.483  13.150  0.2318 -1.4902 -0.5503
 5613TIP3    H238331   2.521   5.415  13.258 -0.6475 -0.9613  0.4554
 5614TIP3   OH238332   4.286   5.434  16.543  0.2220  0.3858  0.3262
 5614TIP3    H138333   4.353   5.469  16.601  0.8097  0.7517 -0.5474
 5614TIP3    H238334   4.214   5.410  16.601  0.2961  1.8744  1.1010
 5615TIP3   OH238335   3.429   4.468  12.976 -0.2716  0.2675 -0.1970
 5615TIP3    H138336   3.517   4.448  12.946 -0.0488  1.2827 -0.2399
 5615TIP3    H238337   3.372   4.437  12.905  0.0848  0.1199 -0.4217
 5616TIP3   OH238338   5.826   4.011  11.660  0.0451  0.6436  0.1630
 5616TIP3    H138339   5.754   3.977  11.608 -1.1360  0.8331  1.6057
 5616TIP3    H238340   5.818   3.966  11.745 -0.1458  2.7285  1.3220
 5617TIP3   OH238341   3.135   2.437   1.914 -0.1547  0.0493 -0.0936
 5617TIP3    H138342   3.122   2.374   1.843  1.1704 -0.2946 -0.0636
 5617TIP3    H238343   3.230   2.446   1.920 -0.2854  0.8518  0.9660
 5618TIP3   OH238344   6.048   0.614   4.198 -0.1135  0.6015  0.1736
 5618TIP3    H138345   5.991   0.594   4.273 -0.6869  0.3833 -0.3138
 5618TIP3    H238346   5.995   0.673   4.144 -0.8248 -1.4254 -1.4613
 5619TIP3   OH238347   1.626   6.765  13.078  0.1334 -0.2815  0.1656
 5619TIP3    H138348   1.675   6.822  13.019  0.0207 -0.5236 -0.1657
 5619TIP3    H238349   1.638   6.804  13.164  0.6750 -0.1787  0.0493
 5620TIP3   OH238350   3.543   1.311  15.543 -1.3480  0.3558 -0.4573
 5620TIP3    H138351   3.514   1.352  15.624 -1.3681  2.5081 -1.4883
 5620TIP3    H238352   3.602   1.241  15.572 -2.9952 -0.3593  1.4511
 5621TIP3   OH238353   1.264   1.158   5.129  0.1305 -0.2568  0.1119
 5621TIP3    H138354   1.172   1.163   5.104 -0.5085 -0.3764  2.2902
 5621TIP3    H238355   1.269   1.082   5.187  1.6448 -0.3380 -0.0923
 5622TIP3   OH238356   5.569   5.162  15.879  0.2395  0.2393  0.4407
 5622TIP3    H138357   5.628   5.151  15.804 -0.3824  1.1964 -0.2100
 5622TIP3    H238358   5.508   5.088  15.873  0.7734 -0.2158  0.5622
 5623TIP3   OH238359   6.042   1.658   5.164 -0.1531 -0.2631 -0.2596
 5623TIP3    H138360   6.129   1.651   5.204 -1.4429 -2.2679  2.5086
 5623TIP3    H238361   6.002   1.733   5.207 -0.5159 -0.6552  0.1013
 5624TIP3   OH238362   0.481   6.701   1.979  0.1332  0.1632  0.0460
 5624TIP3    H138363   0.476   6.784   1.932 -1.0388 -0.3488 -0.7854
 5624TIP3    H238364   0.542   6.717   2.051 -1.0742  2.1430  0.7025
 5625TIP3   OH238365   1.555   5.307  16.326 -0.0076 -0.1357 -0.4877
 5625TIP3    H138366   1.632   5.273  16.371  0.2368 -3.5807 -3.1041
 5625TIP3    H238367   1.481   5.267  16.372 -0.1621  0.9601  0.2809
 5626TIP3   OH238368   2.238   0.245  12.538  0.9166  0.2910  0.3467
 5626TIP3    H138369   2.212   0.265  12.448  0.5131  0.5703  0.5252
 5626TIP3    H238370   2.176   0.178  12.567 -0.1162  1.5106  1.0373
 5627TIP3   OH238371   4.334   3.695   5.143  0.2647  0.5285  0.2746
 5627TIP3    H138372   4.277   3.688   5.220  0.0739  0.0018  0.0881
 5627TIP3    H238373   4.386   3.615   5.145  0.9900  0.9956  0.4305
 5628TIP3   OH238374   3.613   1.112   6.063 -0.1157 -0.4787  0.1705
 5628TIP3    H138375   3.581   1.139   5.977  2.3400  2.5066  0.0116
 5628TIP3    H238376   3.542   1.134   6.123 -1.0380 -0.6180 -0.8419
 5629TIP3   OH238377   4.859   6.257  13.628  0.5944  0.2155  0.4430
 5629TIP3    H138378   4.919   6.324  13.593 -0.4459  0.7235 -0.4416
 5629TIP3    H238379   4.889   6.242  13.717  1.5525  1.0411  0.2779
 5630TIP3   OH238380   2.031   0.910   4.827 -0.2575 -0.3535 -0.4614
 5630TIP3    H138381   1.970   0.962   4.773 -1.3741 -2.2588 -1.1565
 5630TIP3    H238382   2.116   0.924   4.787 -0.4917  1.0934 -0.4940
 5631TIP3   OH238383   5.686   2.178  16.337 -0.3377 -0.3274  0.1529
 5631TIP3    H138384   5.755   2.206  16.397 -1.3037  0.7273  0.8335
 5631TIP3    H238385   5.644   2.104  16.381  0.1539 -0.7731 -0.1188
 5632TIP3   OH238386   4.260   4.210  14.703  0.0477 -0.0542  0.5068
 5632TIP3    H138387   4.177   4.179  14.667  0.3101  0.9042 -1.0257
 5632TIP3    H238388   4.235   4.266  14.776 -0.6003 -0.7204  0.8032
 5633TIP3   OH238389   0.825   4.263  15.824 -0.3107  0.1972  0.1469
 5633TIP3    H138390   0.816   4.216  15.741  0.0617 -0.4908  0.4897
 5633TIP3    H238391   0.746   4.239  15.873  0.4917 -1.1119  0.8276
 5634TIP3   OH238392   6.335   4.332  12.388  0.2307  0.5522 -0.2334
 5634TIP3    H138393   6.353   4.422  12.361  2.2843  0.4765  0.6977
 5634TIP3    H238394   6.400   4.279  12.342  0.0977 -0.2437  0.4654
 5635TIP3   OH238395   2.504   4.974   0.726  0.3989  0.4115  0.0767
 5635TIP3    H138396   2.453   4.940   0.800 -0.3590 -1.6591 -1.3059
 5635TIP3    H238397   2.490   5.068   0.728  0.2062  0.3842  2.4093
 5636TIP3   OH238398   4.347   1.905   1.923 -0.8053 -0.2087  0.7266
 5636TIP3    H138399   4.343   1.984   1.869 -0.0499 -0.3071  0.5047
 5636TIP3    H238400   4.337   1.936   2.013 -0.0859  0.1956  0.6750
 5637TIP3   OH238401   5.816   0.827  16.874  0.2137 -0.5507 -0.5834
 5637TIP3    H138402   5.767   0.745  16.863 -0.7831  0.1713 -1.6878
 5637TIP3    H238403   5.902   0.808  16.838 -0.2061 -0.9323 -1.4082
 5638TIP3   OH238404   0.580   3.577   2.504 -0.2305 -0.1437  0.4422
 5638TIP3    H138405   0.563   3.627   2.584  0.7522 -0.2760  0.7429
 5638TIP3    H238406   0.508   3.601   2.445 -0.2233  1.0014  0.8743
 5639TIP3   OH238407   3.338   2.579   2.588  0.4430  0.2792 -0.3812
 5639TIP3    H138408   3.418   2.556   2.542  0.5239 -1.0106  0.3548
 5639TIP3    H238409   3.268   2.565   2.524  0.7528  0.8938 -0.8602
 5640TIP3   OH238410   0.877   4.756   4.616 -0.2538  0.2439  0.2993
 5640TIP3    H138411   0.952   4.719   4.571 -0.1460  1.6735 -0.7588
 5640TIP3    H238412   0.897   4.746   4.709  0.8125 -0.2196  0.0314
 5641TIP3   OH238413   4.533   0.332  14.020  0.1383  0.2872 -0.0872
 5641TIP3    H138414   4.464   0.293  13.967  0.1906 -1.9168  1.3301
 5641TIP3    H238415   4.609   0.335  13.961 -0.9671  2.3796 -1.5348
 5642TIP3   OH238416   0.061   4.709  15.188  0.3872 -0.2471 -0.0230
 5642TIP3    H138417   0.077   4.620  15.221 -0.6480  0.2307  1.9224
 5642TIP3    H238418  -0.034   4.713  15.175  0.4300  0.5547 -0.1342
 5643TIP3   OH238419   2.218   6.121  12.849  0.4035 -0.3850  0.1304
 5643TIP3    H138420   2.269   6.180  12.794 -0.8916  1.5041  0.8516
 5643TIP3    H238421   2.257   6.130  12.937 -1.8625  2.1870  1.0162
 5644TIP3   OH238422   5.629   6.416   5.596 -0.1877 -0.1079 -0.5560
 5644TIP3    H138423   5.651   6.325   5.617 -3.1246 -1.0603 -1.2300
 5644TIP3    H238424   5.636   6.462   5.680 -2.9931 -1.9699  0.8567
 5645TIP3   OH238425   0.237   5.246   0.157 -0.6624  0.1577 -0.4260
 5645TIP3    H138426   0.223   5.225   0.249  4.3659  0.3668  0.6758
 5645TIP3    H238427   0.312   5.192   0.132 -2.2577 -0.4676 -4.7676
 5646TIP3   OH238428   2.134   4.223   1.512 -0.2198  0.1550 -0.2447
 5646TIP3    H138429   2.184   4.299   1.542  0.5372 -0.1070 -0.7975
 5646TIP3    H238430   2.073   4.258   1.448  0.0107  0.3226 -0.3734
 5647TIP3   OH238431   6.104   4.432  12.015 -0.8656  0.0951  0.1954
 5647TIP3    H138432   6.147   4.348  12.032  0.2335  0.9290  1.7373
 5647TIP3    H238433   6.011   4.414  12.029 -0.6759 -0.9342  0.2002
 5648TIP3   OH238434   2.588   3.253   3.644  0.4079 -0.2640  0.2457
 5648TIP3    H138435   2.625   3.172   3.679  0.6393  0.0725  0.7796
 5648TIP3    H238436   2.613   3.252   3.551  1.1662 -0.3805  0.4446
 5649TIP3   OH238437   2.391   6.312   0.440 -0.4182  0.1410 -0.7764
 5649TIP3    H138438   2.375   6.388   0.384  0.6700 -0.1194 -1.4719
 5649TIP3    H238439   2.308   6.297   0.484 -0.3029  2.5531  0.4190
 5650TIP3   OH238440   1.640   5.720   4.413  0.3089  0.6218 -0.2839
 5650TIP3    H138441   1.611   5.749   4.327 -2.2712 -0.8174 -0.0051
 5650TIP3    H238442   1.590   5.774   4.475  1.9709  1.4889  0.3811
 5651TIP3   OH238443   2.797   4.427   5.897  1.1682 -0.3357 -1.2995
 5651TIP3    H138444   2.737   4.353   5.909  0.7204  0.2226  0.1596
 5651TIP3    H238445   2.860   4.397   5.831  1.6328 -2.4423 -0.0040
 5652TIP3   OH238446   6.509   1.100   1.897  0.1094  0.0118 -0.2688
 5652TIP3    H138447   6.430   1.132   1.854 -0.0262 -0.7981 -0.6436
 5652TIP3    H238448   6.553   1.179   1.929 -1.2413  0.4309  0.6605
 5653TIP3   OH238449   6.167   4.498  11.292  0.6528  0.3438  0.3543
 5653TIP3    H138450   6.162   4.403  11.307  0.5921 -0.0588 -1.8626
 5653TIP3    H238451   6.094   4.534  11.342 -1.7145 -1.2516 -1.7075
 5654TIP3   OH238452   2.811   1.858  13.199 -0.6899 -0.2019  0.3657
 5654TIP3    H138453   2.717   1.838  13.198 -0.8653  0.4263  2.0995
 5654TIP3    H238454   2.819   1.937  13.146 -0.8082 -1.3738 -1.5131
 5655TIP3   OH238455   1.119   5.333   4.748 -0.2256  0.3510  0.3276
 5655TIP3    H138456   1.123   5.427   4.735 -2.9899  0.6485  0.9406
 5655TIP3    H238457   1.039   5.306   4.702 -0.2814 -1.4490  1.3851
 5656TIP3   OH238458   6.483   5.722  11.631 -0.0312  0.1309  0.1916
 5656TIP3    H138459   6.461   5.629  11.624  0.2863 -0.1861  2.5023
 5656TIP3    H238460   6.563   5.732  11.579  1.0050 -1.3560  1.3845
 5657TIP3   OH238461   5.036   6.433   4.259  0.3046 -0.1593  0.2815
 5657TIP3    H138462   5.073   6.369   4.198  0.3602 -0.5456  0.7108
 5657TIP3    H238463   4.961   6.470   4.213  0.1998 -0.6237  0.0736
 5658TIP3   OH238464   6.488   0.696  15.666  0.5944  0.4428  0.3621
 5658TIP3    H138465   6.557   0.715  15.729 -0.4962  1.4909  1.3146
 5658TIP3    H238466   6.529   0.639  15.601  1.9470 -0.1343  1.6563
 5659TIP3   OH238467   1.151   1.948  11.332  0.0187  0.0256  0.2987
 5659TIP3    H138468   1.130   1.924  11.242 -0.6128  0.2809  0.3766
 5659TIP3    H238469   1.089   1.900  11.386  1.1217 -1.0210  0.6858
 5660TIP3   OH238470   5.452   6.329  15.080 -0.6657 -0.2108 -0.0182
 5660TIP3    H138471   5.387   6.292  15.019 -0.2300 -0.6572 -0.2199
 5660TIP3    H238472   5.473   6.415  15.043 -1.3905  0.0810  0.2322
 5661TIP3   OH238473   6.360   5.343   2.271 -0.2240  0.5236 -0.0166
 5661TIP3    H138474   6.403   5.428   2.286 -0.0890  0.6782 -1.2332
 5661TIP3    H238475   6.278   5.365   2.228 -0.7489  0.1015  0.7458
 5662TIP3   OH238476   4.324   4.409  17.178  0.4725 -0.0778  0.6969
 5662TIP3    H138477   4.278   4.481  17.221 -0.7058  0.1960 -0.9292
 5662TIP3    H238478   4.333   4.437  17.087  0.6165 -1.6881  0.1793
 5663TIP3   OH238479   1.544   3.253   1.596  0.8437  0.0883 -0.0822
 5663TIP3    H138480   1.493   3.332   1.612 -1.4820 -1.6382  1.6515
 5663TIP3    H238481   1.508   3.217   1.515 -2.0912 -1.9585  1.9289
 5664TIP3   OH238482   3.126   4.263  11.554  0.6492  0.6504 -0.1055
 5664TIP3    H138483   3.032   4.265  11.574  0.9201 -0.6971  1.6191
 5664TIP3    H238484   3.161   4.343  11.594  0.4902  0.2045  0.9720
 5665TIP3   OH238485   4.834   3.500   1.814 -0.4723 -0.9202 -0.0813
 5665TIP3    H138486   4.817   3.577   1.759  0.1595  1.6180  2.9963
 5665TIP3    H238487   4.757   3.493   1.871  0.4674 -1.0959  1.2186
 5666TIP3   OH238488   4.442   4.653   5.134 -0.0651  0.2557 -0.1409
 5666TIP3    H138489   4.381   4.709   5.182 -0.3863 -1.3240  1.3522
 5666TIP3    H238490   4.471   4.708   5.061 -2.5305  1.3792 -0.3780
 5667TIP3   OH238491   6.632   2.010   3.266  0.2234  0.7698 -0.1790
 5667TIP3    H138492   6.646   1.917   3.286  2.7655  0.8288 -1.3082
 5667TIP3    H238493   6.658   2.056   3.346 -0.6649  0.5454  0.2487
 5668TIP3   OH238494   3.290   1.856  15.581 -0.4367 -1.0433  0.1038
 5668TIP3    H138495   3.356   1.808  15.632 -1.3489 -1.6381  0.7739
 5668TIP3    H238496   3.258   1.792  15.518 -1.6015 -1.3224  0.9447
 5669TIP3   OH238497   0.427   2.995   1.518  0.3803  0.4363  0.2603
 5669TIP3    H138498   0.408   2.988   1.424  1.7873 -0.4055  0.0001
 5669TIP3    H238499   0.414   2.906   1.552  0.1706  0.6716  0.8072
 5670TIP3   OH238500   3.396   1.291  12.506 -0.2929 -0.1926 -0.1309
 5670TIP3    H138501   3.337   1.317  12.576  0.6297 -0.3141  0.7193
 5670TIP3    H238502   3.451   1.368  12.491  1.0832 -0.9255  0.9577
 5671TIP3   OH238503   3.727   5.540   4.333 -0.2621 -0.4363  0.1679
 5671TIP3    H138504   3.635   5.565   4.344 -0.4384 -1.1306  0.2989
 5671TIP3    H238505   3.747   5.561   4.242 -0.8265 -1.1526 -0.1308
 5672TIP3   OH238506   5.480   2.639   1.041 -0.0281 -0.4430 -0.3835
 5672TIP3    H138507   5.393   2.601   1.031 -0.4272  0.6966 -1.4612
 5672TIP3    H238508   5.470   2.729   1.010  1.0512  0.3327  1.3983
 5673TIP3   OH238509   3.318   2.488   6.015 -0.2507  0.0599  0.1317
 5673TIP3    H138510   3.284   2.539   6.088  1.2769  0.1488  0.8289
 5673TIP3    H238511   3.413   2.499   6.020 -0.0976  0.1777 -1.9711
 5674TIP3   OH238512   5.946   2.291  14.351  0.0883  0.3488  0.1716
 5674TIP3    H138513   5.897   2.288  14.269 -0.4572  0.8205  0.4742
 5674TIP3    H238514   5.888   2.251  14.416  1.1758 -1.5633  0.0213
 5675TIP3   OH238515   6.003   3.043   4.209 -0.6001 -0.3807  0.0773
 5675TIP3    H138516   6.057   2.965   4.201 -0.6684 -0.4248  0.0467
 5675TIP3    H238517   6.011   3.068   4.301 -0.1791 -0.1341 -0.0264
 5676TIP3   OH238518   1.597   1.985  13.478 -0.1521  0.2636 -0.8035
 5676TIP3    H138519   1.561   1.926  13.411  0.0078 -1.0075  0.2110
 5676TIP3    H238520   1.666   1.935  13.520 -0.8776  0.6649  0.9663
 5677TIP3   OH238521   3.433   6.499   2.474 -0.1315  0.1609 -0.5517
 5677TIP3    H138522   3.526   6.514   2.489  0.0684 -1.1615 -0.3573
 5677TIP3    H238523   3.410   6.429   2.536 -1.2767  0.5380 -0.5335
 5678TIP3   OH238524   2.596   5.100  13.018 -0.0788  0.3860  0.2165
 5678TIP3    H138525   2.586   5.051  13.100  1.4380 -0.1028  0.1288
 5678TIP3    H238526   2.506   5.117  12.990 -0.6768 -1.8169  0.5780
 5679TIP3   OH238527   0.355   5.549  12.033 -0.4868 -0.0429 -0.2271
 5679TIP3    H138528   0.403   5.470  12.006  1.0958  0.7171  0.2069
 5679TIP3    H238529   0.397   5.620  11.984 -2.0314  0.5286 -0.7711
 5680TIP3   OH238530   3.238   4.398  16.445  0.3850 -0.3108  0.1314
 5680TIP3    H138531   3.208   4.309  16.464 -3.1154  0.4717 -1.1228
 5680TIP3    H238532   3.163   4.454  16.464  2.0794  2.2686 -0.3049
 5681TIP3   OH238533   5.843   0.852  12.758 -0.3560 -0.2482 -0.9026
 5681TIP3    H138534   5.819   0.874  12.848 -1.2412 -0.8762 -0.9687
 5681TIP3    H238535   5.920   0.905  12.740 -1.2632  1.2945 -0.4016
 5682TIP3   OH238536   4.995   0.096  14.599  0.1498 -0.0436  0.5500
 5682TIP3    H138537   5.068   0.157  14.601  0.2086 -0.0733 -0.4857
 5682TIP3    H238538   5.035   0.011  14.582 -0.1900  0.0814 -1.0108
 5683TIP3   OH238539   5.677   2.462   0.602  0.3207 -0.3202  0.1344
 5683TIP3    H138540   5.640   2.525   0.664  0.6021 -1.0147  1.0322
 5683TIP3    H238541   5.601   2.423   0.558 -0.0735 -1.5952  1.8264
 5684TIP3   OH238542   5.608   2.106   2.675  0.1330 -0.4763  0.1543
 5684TIP3    H138543   5.699   2.080   2.685 -0.2494 -1.5387  1.2216
 5684TIP3    H238544   5.610   2.180   2.614  1.8089  0.2838  1.0657
 5685TIP3   OH238545   6.627   3.062   6.456 -0.0659 -0.1718 -0.4559
 5685TIP3    H138546   6.533   3.057   6.476 -0.2663  0.3758 -1.1838
 5685TIP3    H238547   6.661   3.124   6.520 -0.0608 -0.8999  0.2564
 5686TIP3   OH238548   3.243   0.517   0.571  0.2381 -0.7602  0.3494
 5686TIP3    H138549   3.308   0.451   0.594  0.4897 -0.0280  1.8399
 5686TIP3    H238550   3.275   0.555   0.489  1.1178 -1.1397  0.5131
 5687TIP3   OH238551   5.721   1.044  16.158  0.3530  0.0648 -0.1273
 5687TIP3    H138552   5.801   0.996  16.138  0.6017  0.4771 -0.1361
 5687TIP3    H238553   5.661   1.024  16.086 -0.0490 -1.3468  0.5637
 5688TIP3   OH238554   6.333   6.378  14.801  0.0641  0.3773 -0.2604
 5688TIP3    H138555   6.352   6.302  14.855 -1.3817  0.8663  1.0055
 5688TIP3    H238556   6.243   6.365  14.771  0.4366  0.6968 -1.5819
 5689TIP3   OH238557   1.861   4.535  13.758  0.1212 -0.0515  0.0782
 5689TIP3    H138558   1.944   4.548  13.803  0.0897 -0.0010  0.1218
 5689TIP3    H238559   1.883   4.534  13.665  0.0151  1.2253  0.0143
 5690TIP3   OH238560   5.836   3.924   1.835  0.9957  0.5582 -0.2817
 5690TIP3    H138561   5.746   3.958   1.832  0.8726  0.4213  1.1922
 5690TIP3    H238562   5.829   3.842   1.883  1.7233 -0.1677 -1.3843
 5691TIP3   OH238563   5.551   2.122   5.842 -0.3507 -0.2015  0.0040
 5691TIP3    H138564   5.626   2.072   5.873  1.6405  1.0070 -2.4523
 5691TIP3    H238565   5.578   2.213   5.851 -1.9851  0.3033  0.0366
 5692TIP3   OH238566   4.870   0.078  12.317 -0.0446 -0.1361  0.2662
 5692TIP3    H138567   4.898   0.003  12.264  0.5280  0.7033 -0.6563
 5692TIP3    H238568   4.876   0.153  12.257  0.7059  0.8619  1.5574
 5693TIP3   OH238569   6.481   0.032   5.967 -0.6092 -0.4690 -0.2448
 5693TIP3    H138570   6.459   0.115   5.925 -1.4825  0.3742  1.7454
 5693TIP3    H238571   6.396  -0.003   5.997  0.0709  0.1633  2.8132
 5694TIP3   OH238572   2.211   5.664  16.395 -0.1549  0.0024 -0.5772
 5694TIP3    H138573   2.295   5.709  16.395 -0.5072  0.6891  0.3624
 5694TIP3    H238574   2.149   5.731  16.364 -0.5807 -0.0185  0.2038
 5695TIP3   OH238575   5.511   1.324  15.491 -0.2977  0.7753  0.5648
 5695TIP3    H138576   5.503   1.382  15.415 -0.3464  0.1525  0.0861
 5695TIP3    H238577   5.593   1.276  15.476 -0.5637  0.2901  0.6533
 5696TIP3   OH238578   6.228   4.244   5.084  0.0655  0.2942  0.1782
 5696TIP3    H138579   6.143   4.221   5.119  0.6686 -3.5461 -0.4679
 5696TIP3    H238580   6.209   4.285   4.999 -1.1528 -1.0704 -0.2335
 5697TIP3   OH238581   0.401   6.649   2.607  0.5323  0.0973 -0.3595
 5697TIP3    H138582   0.408   6.690   2.693  0.4489  1.5173 -0.9949
 5697TIP3    H238583   0.307   6.631   2.596  0.5546 -0.1673 -0.1249
 5698TIP3   OH238584   6.240   4.932  14.392  0.1020 -0.1741 -0.1608
 5698TIP3    H138585   6.323   4.892  14.367  1.3095  2.2825 -0.3896
 5698TIP3    H238586   6.259   4.979  14.474 -1.2029  0.0125  0.0682
 5699TIP3   OH238587   2.874   2.231   1.623  0.0616  0.0991 -0.0247
 5699TIP3    H138588   2.817   2.186   1.686 -0.9536 -0.4174 -1.2551
 5699TIP3    H238589   2.824   2.309   1.598 -0.1768 -0.4075 -1.1856
 5700TIP3   OH238590   3.887   1.499   6.413 -0.0143 -0.3332  0.9385
 5700TIP3    H138591   3.873   1.591   6.433  1.2979 -0.7246  4.1235
 5700TIP3    H238592   3.968   1.476   6.457 -0.7908 -3.2464  1.0732
 5701TIP3   OH238593   2.320   0.977   4.639  0.5201  0.2027  0.1610
 5701TIP3    H138594   2.413   0.956   4.633  0.2913 -0.6316 -0.7007
 5701TIP3    H238595   2.313   1.065   4.601  0.9794  0.3458  0.4049
 5702TIP3   OH238596   4.428   3.370   4.892 -0.6661  0.5856 -0.1591
 5702TIP3    H138597   4.469   3.421   4.962  1.2721 -0.8538 -0.1424
 5702TIP3    H238598   4.436   3.424   4.814  0.9582  0.5448 -0.0575
 5703TIP3   OH238599   4.784   3.914   5.942  0.2752 -0.3748  0.3186
 5703TIP3    H138600   4.808   3.945   5.855  1.0659  2.7306  1.5154
 5703TIP3    H238601   4.810   3.822   5.943  1.4300 -0.1570 -2.2740
 5704TIP3   OH238602   4.688   5.824  13.915  0.1641 -0.6738 -0.4202
 5704TIP3    H138603   4.598   5.796  13.932  0.5436 -1.2515  0.7727
 5704TIP3    H238604   4.693   5.912  13.953  0.7564 -1.6122  1.8708
 5705TIP3   OH238605   1.699   2.876  12.394 -0.5056  0.0912  0.1657
 5705TIP3    H138606   1.685   2.938  12.466 -2.1529  0.7997 -0.7021
 5705TIP3    H238607   1.703   2.931  12.316  0.6045 -0.7150 -0.3594
 5706TIP3   OH238608   1.931   2.863  14.748 -0.4495  0.1015 -0.0733
 5706TIP3    H138609   1.993   2.859  14.675 -0.1793 -0.0454  0.1604
 5706TIP3    H238610   1.870   2.791  14.731  0.7712 -1.2176  0.8640
 5707TIP3   OH238611   1.274   2.000   5.161  0.0224 -0.5282  0.3387
 5707TIP3    H138612   1.277   2.028   5.253 -0.6646 -0.6954  0.4137
 5707TIP3    H238613   1.357   1.954   5.148  0.7472  0.6893  0.4766
 5708TIP3   OH238614   6.627   0.089   3.558  0.3325 -0.5933  1.0711
 5708TIP3    H138615   6.689   0.089   3.485 -1.0072  1.2286 -0.1489
 5708TIP3    H238616   6.607  -0.003   3.572  2.2552 -1.1213  0.5925
 5709TIP3   OH238617   2.223   5.272   1.221 -0.0447 -0.4622  0.1122
 5709TIP3    H138618   2.265   5.229   1.295  1.1054  2.1049  1.0614
 5709TIP3    H238619   2.156   5.210   1.192 -0.3609 -1.6858  3.0983
 5710TIP3   OH238620   2.689   4.543  12.446  0.7717  0.0947  0.3189
 5710TIP3    H138621   2.721   4.459  12.480  0.1361 -0.1693  0.2733
 5710TIP3    H238622   2.600   4.525  12.417  0.9208  0.5939 -0.4622
 5711TIP3   OH238623   3.628   5.456   4.648  0.1636 -0.0681  0.2296
 5711TIP3    H138624   3.720   5.433   4.662 -0.2244 -0.2837  2.9735
 5711TIP3    H238625   3.627   5.552   4.647  0.4540 -0.0647 -0.3389
 5712TIP3   OH238626   1.470   0.095   4.349  0.7782  0.6585 -0.1927
 5712TIP3    H138627   1.457   0.183   4.384 -0.5105  0.1980  0.5189
 5712TIP3    H238628   1.490   0.042   4.425  0.3898  0.1075 -0.4702
 5713TIP3   OH238629   4.148   2.599   2.070  0.2545 -0.2764 -0.0013
 5713TIP3    H138630   4.125   2.660   2.000 -0.2821 -0.8476 -0.3351
 5713TIP3    H238631   4.225   2.638   2.111 -0.2292  0.7603 -0.0287
 5714TIP3   OH238632   0.066   1.502  15.053  0.1719  0.0250 -0.1030
 5714TIP3    H138633   0.115   1.465  15.127 -1.1420  1.9420  1.8475
 5714TIP3    H238634  -0.025   1.477  15.070 -0.0616 -0.1823 -1.5534
 5715TIP3   OH238635   2.178   3.740  11.528 -0.0333 -0.2078  0.0378
 5715TIP3    H138636   2.249   3.699  11.478  0.5466 -0.3813  0.9639
 5715TIP3    H238637   2.218   3.758  11.614 -0.4830  1.6317 -0.1072
 5716TIP3   OH238638   6.415   2.692  17.077 -0.1589  0.6079  0.2396
 5716TIP3    H138639   6.429   2.603  17.110  1.1466  0.4925 -0.5658
 5716TIP3    H238640   6.354   2.681  17.004  0.4356  0.2952 -0.2135
 5717TIP3   OH238641   1.750   5.278   2.035 -0.2444  0.2688  0.1283
 5717TIP3    H138642   1.722   5.191   2.062 -0.2726  0.7739  1.8452
 5717TIP3    H238643   1.771   5.269   1.942  0.6891 -1.7881  0.4830
 5718TIP3   OH238644   0.180   2.091  13.184 -0.0602  0.0958 -0.0101
 5718TIP3    H138645   0.143   2.154  13.122 -1.0015 -0.1951  0.2402
 5718TIP3    H238646   0.124   2.014  13.175 -0.3194  0.1144  1.3254
 5719TIP3   OH238647   5.504   6.572   1.771  0.2696 -0.3317  0.0613
 5719TIP3    H138648   5.548   6.656   1.781 -0.4286 -0.0893  1.2898
 5719TIP3    H238649   5.530   6.541   1.684 -1.3235  2.2427 -1.4419
 5720TIP3   OH238650   1.056   3.264   3.163  0.0265  0.4501  0.0446
 5720TIP3    H138651   1.060   3.319   3.242  1.0196 -0.2425  0.4916
 5720TIP3    H238652   0.965   3.235   3.159  0.2017 -0.4344  1.5971
 5721TIP3   OH238653   2.254   1.937   0.183  0.2906 -0.1659 -0.0864
 5721TIP3    H138654   2.263   2.032   0.179 -1.6841  0.1535  1.3993
 5721TIP3    H238655   2.334   1.907   0.225 -0.1090  1.1356  1.7356
 5722TIP3   OH238656   0.806   5.817  13.244 -0.3703  0.2348 -0.5213
 5722TIP3    H138657   0.889   5.865  13.233 -0.6758  0.6833 -0.8790
 5722TIP3    H238658   0.787   5.826  13.338  0.8314 -1.2980 -0.0707
 5723TIP3   OH238659   2.877   0.158  17.058 -0.3126 -0.3482  0.4932
 5723TIP3    H138660   2.879   0.248  17.090 -1.2667  0.3536 -1.3198
 5723TIP3    H238661   2.815   0.159  16.986  2.7630 -1.4387 -2.4511
 5724TIP3   OH238662   2.913   3.229   3.672 -0.2946  0.5432 -0.7713
 5724TIP3    H138663   2.954   3.250   3.588  2.9872  1.4339  0.8818
 5724TIP3    H238664   2.947   3.295   3.732 -2.6754  0.0500  1.2784
 5725TIP3   OH238665   1.279   5.486   4.995 -0.1489 -0.0723  0.2028
 5725TIP3    H138666   1.353   5.529   5.038 -0.1219  1.2382 -1.0996
 5725TIP3    H238667   1.202   5.516   5.044  0.0737 -0.6625  0.9418
 5726TIP3   OH238668   0.839   0.621  12.497  0.3372 -0.4302  0.2900
 5726TIP3    H138669   0.837   0.681  12.572  0.3754 -1.5146  1.1941
 5726TIP3    H238670   0.772   0.655  12.438  1.3912  1.3697  0.0529
 5727TIP3   OH238671   1.343   6.256  14.041  0.3343 -0.5614  0.0807
 5727TIP3    H138672   1.405   6.325  14.018  0.5150 -0.0842  1.8529
 5727TIP3    H238673   1.398   6.182  14.067  0.1402 -1.0399 -0.8332
 5728TIP3   OH238674   2.031   0.852   0.343 -0.8022  0.0280 -0.7229
 5728TIP3    H138675   1.940   0.882   0.346 -0.2369  1.8737 -1.1526
 5728TIP3    H238676   2.079   0.924   0.303  1.0150 -0.5638  0.2928
 5729TIP3   OH238677   6.695   1.320   1.875  0.2478 -0.1481 -0.3601
 5729TIP3    H138678   6.719   1.288   1.962 -1.1392 -0.3821 -0.0392
 5729TIP3    H238679   6.779   1.334   1.831  1.0888  2.0462  1.7060
 5730TIP3   OH238680   4.741   3.127  13.849 -0.0296  0.3552 -0.2335
 5730TIP3    H138681   4.716   3.187  13.919 -1.4053  0.5744 -0.8706
 5730TIP3    H238682   4.836   3.127  13.850 -0.0131  0.2773  1.6849
 5731TIP3   OH238683   4.489   2.568   2.650  0.6705  0.0406  0.5896
 5731TIP3    H138684   4.527   2.547   2.565  0.8018  1.3202  0.3035
 5731TIP3    H238685   4.456   2.485   2.683 -0.7724 -0.2626 -1.4038
 5732TIP3   OH238686   2.648   1.341  10.905 -0.9875 -0.0498  0.4088
 5732TIP3    H138687   2.697   1.404  10.852 -0.8644 -0.2313  0.3047
 5732TIP3    H238688   2.716   1.285  10.943 -1.1643 -1.2761 -0.9611
 5733TIP3   OH238689   3.549   5.457  17.186 -0.2241 -0.1885 -0.2456
 5733TIP3    H138690   3.455   5.448  17.175 -0.9296  2.3556  2.4575
 5733TIP3    H238691   3.573   5.527  17.124 -0.2466 -0.2787 -0.3574
 5734TIP3   OH238692   1.320   0.242   4.532  0.1208 -0.7144 -0.7919
 5734TIP3    H138693   1.272   0.309   4.483  2.9756  1.0975 -1.3440
 5734TIP3    H238694   1.270   0.231   4.613 -2.0574 -0.1827 -1.9881
 5735TIP3   OH238695   5.309   1.162   0.737  0.2414 -0.0223 -0.2127
 5735TIP3    H138696   5.306   1.129   0.647  0.6211 -1.4871  0.2819
 5735TIP3    H238697   5.231   1.216   0.745  0.7241  0.9686 -1.7195
 5736TIP3   OH238698   6.219   4.196   3.119  0.0633 -0.1344  0.2985
 5736TIP3    H138699   6.222   4.241   3.203 -1.1641  1.0491 -0.2435
 5736TIP3    H238700   6.309   4.203   3.085  0.0369  1.5204  0.4678
 5737TIP3   OH238701   6.523   0.334  13.817 -0.3024  0.2733  0.3537
 5737TIP3    H138702   6.618   0.343  13.816 -0.2938  0.7281 -2.5109
 5737TIP3    H238703   6.492   0.402  13.757 -2.3746 -0.3824  0.6152
 5738TIP3   OH238704   3.101   3.503  12.167  0.2680  0.2289  0.1240
 5738TIP3    H138705   3.130   3.588  12.198  0.5332  0.4348 -0.6676
 5738TIP3    H238706   3.136   3.440  12.230  2.3668  0.4755 -0.7215
 5739TIP3   OH238707   3.033   5.712  16.528  0.0817 -0.7435 -0.2326
 5739TIP3    H138708   3.121   5.741  16.501  0.0709 -0.2957  0.2010
 5739TIP3    H238709   2.988   5.793  16.550 -0.9773 -0.7957 -1.9963
 5740TIP3   OH238710   2.303   5.207   5.018 -0.1176  0.4687  0.3692
 5740TIP3    H138711   2.288   5.146   5.091 -2.2206  1.2215  0.6186
 5740TIP3    H238712   2.216   5.236   4.992  0.7185  1.8409 -1.0830
 5741TIP3   OH238713   3.756   1.186  13.953  0.5644 -0.5663 -0.0772
 5741TIP3    H138714   3.833   1.166  13.900  0.6874 -1.5910  0.4748
 5741TIP3    H238715   3.723   1.101  13.982 -1.3919 -0.2311 -1.1306
 5742TIP3   OH238716   2.959   3.810   2.381  0.0733  0.6057  0.5629
 5742TIP3    H138717   2.874   3.768   2.394  0.8094 -0.9575  0.4255
 5742TIP3    H238718   3.022   3.739   2.381  1.2894  1.6370 -0.4082
 5743TIP3   OH238719   2.500   1.726   2.666 -0.2709  0.0749 -0.5576
 5743TIP3    H138720   2.419   1.679   2.687  0.2151 -1.1330 -1.3244
 5743TIP3    H238721   2.509   1.718   2.571  0.6081  0.4536 -0.5187
 5744TIP3   OH238722   3.147   1.927  12.208 -0.2608 -0.0571 -0.8494
 5744TIP3    H138723   3.196   1.916  12.127 -0.7034  0.1690 -1.1541
 5744TIP3    H238724   3.179   2.010  12.244 -1.4416  0.8402 -1.7932
 5745TIP3   OH238725   5.106   3.721   2.083  0.9837  0.4403  0.0193
 5745TIP3    H138726   5.112   3.762   2.169 -0.2943  0.2264  0.2302
 5745TIP3    H238727   5.087   3.794   2.023 -0.6246  0.2752  0.2981
 5746TIP3   OH238728   0.871   6.200  15.900 -0.0962 -0.4060  0.4711
 5746TIP3    H138729   0.847   6.209  15.993  1.2564 -1.9901  1.0261
 5746TIP3    H238730   0.819   6.125  15.870  0.6877 -0.9305  0.4140
 5747TIP3   OH238731   1.338   2.844  16.540 -0.3289  0.0062 -0.1274
 5747TIP3    H138732   1.406   2.778  16.552 -0.6563 -0.5604 -1.2284
 5747TIP3    H238733   1.320   2.843  16.446 -1.3724  0.6376  0.0465
 5748TIP3   OH238734   3.619   6.037  12.424 -0.0960  0.3121  0.1491
 5748TIP3    H138735   3.609   5.991  12.341 -2.3751 -0.7072  0.9225
 5748TIP3    H238736   3.595   6.128  12.405  0.1700  0.2553 -0.4594
 5749TIP3   OH238737   1.488   2.748  10.154  0.2345  0.4045  0.6065
 5749TIP3    H138738   1.526   2.823  10.200 -1.0853  0.9101  0.9220
 5749TIP3    H238739   1.415   2.785  10.105  0.6324 -0.4053 -0.6362
 5750TIP3   OH238740   4.712   0.415   5.577 -0.5764 -0.1346  0.2992
 5750TIP3    H138741   4.619   0.422   5.600 -0.4018 -3.3433  2.5942
 5750TIP3    H238742   4.759   0.433   5.658  0.7859  0.2302 -0.5299
 5751TIP3   OH238743   0.821   0.244   3.873 -0.6997 -0.5941 -0.4340
 5751TIP3    H138744   0.821   0.237   3.968  0.8853 -2.2068 -0.5142
 5751TIP3    H238745   0.892   0.306   3.854 -1.3618  0.1437 -0.5785
 5752TIP3   OH238746   4.591   4.000  12.033  0.2944  1.2170  0.1889
 5752TIP3    H138747   4.604   4.059  11.960 -1.3355  2.2678  0.6981
 5752TIP3    H238748   4.575   4.057  12.108  1.5919  0.1674  1.3309
 5753TIP3   OH238749   3.552   3.756   0.322  0.4202 -0.0849 -0.4098
 5753TIP3    H138750   3.552   3.840   0.276  0.1398 -0.7415 -1.6513
 5753TIP3    H238751   3.644   3.738   0.339  0.5745 -0.0369 -1.1415
 5754TIP3   OH238752   3.269   6.345  11.847 -0.2780  0.2117 -0.1478
 5754TIP3    H138753   3.296   6.419  11.792 -0.9429  0.3133 -0.3444
 5754TIP3    H238754   3.345   6.329  11.903  0.5063 -0.0586 -1.2589
 5755TIP3   OH238755   4.961   3.522  15.072 -0.0534  0.1158 -0.2088
 5755TIP3    H138756   4.877   3.568  15.084 -0.1772 -0.2318  0.2656
 5755TIP3    H238757   4.938   3.443  15.024 -0.0058 -0.0174 -0.0104
 5756TIP3   OH238758   0.481   0.541  16.903  0.2452 -0.6657 -0.1241
 5756TIP3    H138759   0.419   0.612  16.889  0.0690 -0.9537 -0.8534
 5756TIP3    H238760   0.554   0.560  16.844  1.0693 -0.0946  1.0420
 5757TIP3   OH238761   3.957   3.083   0.918 -0.2412 -0.4116 -0.4310
 5757TIP3    H138762   3.982   3.032   0.841  2.1017 -0.3613  0.2421
 5757TIP3    H238763   3.887   3.031   0.959 -0.9750 -0.8270 -2.1117
 5758TIP3   OH238764   5.243   3.594  16.395 -0.2500  0.4603  0.3029
 5758TIP3    H138765   5.313   3.602  16.460  0.5205  0.4714 -0.4962
 5758TIP3    H238766   5.230   3.500  16.385 -2.2062  0.4435  2.3348
 5759TIP3   OH238767   5.760   3.467  13.813  0.3952  0.1571 -0.8172
 5759TIP3    H138768   5.676   3.441  13.775  0.3764  0.2542 -0.8399
 5759TIP3    H238769   5.800   3.384  13.840  0.3858  0.0935 -1.0003
 5760TIP3   OH238770   6.530   3.564   3.178 -0.0084 -0.7583 -0.0463
 5760TIP3    H138771   6.441   3.597   3.173  0.1372 -0.0494  1.3640
 5760TIP3    H238772   6.582   3.629   3.131 -0.1188 -0.6357 -0.0001
 5761TIP3   OH238773   0.949   6.626  16.612 -0.9096 -0.2063  0.2311
 5761TIP3    H138774   1.008   6.608  16.539 -1.9468 -1.0104 -0.4505
 5761TIP3    H238775   0.968   6.558  16.676  0.3588  0.8043  0.9651
 5762TIP3   OH238776   1.495   3.668  14.504 -0.0014  0.9167 -0.2781
 5762TIP3    H138777   1.463   3.603  14.566 -0.5672  2.8231  1.5194
 5762TIP3    H238778   1.433   3.665  14.431 -1.0063  0.6332  0.5760
 5763TIP3   OH238779   3.065   1.664   3.093  0.0568 -0.1743  0.0743
 5763TIP3    H138780   3.118   1.608   3.037 -0.4826 -0.2729 -0.3424
 5763TIP3    H238781   3.011   1.603   3.144 -1.3883 -0.0308 -1.2196
 5764TIP3   OH238782   1.972   3.024   2.707 -0.3420 -0.1810  0.3010
 5764TIP3    H138783   2.031   3.032   2.782 -1.0268  1.3422  0.7304
 5764TIP3    H238784   1.884   3.031   2.745 -0.7016  0.4337 -0.6043
 5765TIP3   OH238785   2.893   1.724   2.387 -0.0089  0.1361 -0.3240
 5765TIP3    H138786   2.826   1.725   2.319 -1.2282 -1.4464  0.7927
 5765TIP3    H238787   2.961   1.666   2.352  1.0387  2.0019 -1.6011
 5766TIP3   OH238788   4.607   3.644   3.675  0.1611 -0.0992  0.7919
 5766TIP3    H138789   4.653   3.618   3.595 -0.3712 -0.5198  0.6228
 5766TIP3    H238790   4.657   3.720   3.707  0.1163  0.3503 -0.1737
 5767TIP3   OH238791   0.770   1.094  12.163  0.0201  0.0711 -0.1290
 5767TIP3    H138792   0.688   1.128  12.126  0.1188  0.1939 -0.2343
 5767TIP3    H238793   0.812   1.048  12.090 -0.0011 -0.0768 -0.0487
 5768TIP3   OH238794   2.350   6.248   1.075  0.9179  0.5374 -0.0412
 5768TIP3    H138795   2.366   6.342   1.075  1.7362  0.4584 -2.3074
 5768TIP3    H238796   2.368   6.220   0.985 -3.9274 -1.0237 -0.8535
 5769TIP3   OH238797   5.468   1.670   6.662  1.2669  0.3198 -0.5731
 5769TIP3    H138798   5.495   1.752   6.705 -0.4831  0.7660 -0.2535
 5769TIP3    H238799   5.502   1.601   6.719 -0.2280  0.8936  1.0991
 5770TIP3   OH238800   6.107   4.052  15.091  0.3082  0.5744 -0.3543
 5770TIP3    H138801   6.115   4.115  15.020 -0.4251  1.6726  0.5068
 5770TIP3    H238802   6.176   4.078  15.153 -0.6085  1.1507  0.4443
 5771TIP3   OH238803   4.701   2.743   3.674  0.7400 -0.1696  0.7948
 5771TIP3    H138804   4.740   2.734   3.761  0.6507  0.1257  0.8660
 5771TIP3    H238805   4.734   2.826   3.641  0.0381  0.1692  0.9239
 5772TIP3   OH238806   5.216   5.403  15.708  0.3021  0.0485  0.1452
 5772TIP3    H138807   5.269   5.480  15.730  1.1062 -0.9401  1.9119
 5772TIP3    H238808   5.270   5.353  15.647  0.3615  0.2162  0.0598
 5773TIP3   OH238809   3.968   6.406  16.852 -0.2144  0.1236 -0.2786
 5773TIP3    H138810   4.050   6.357  16.857 -1.3866 -1.8102  2.0622
 5773TIP3    H238811   3.900   6.342  16.872 -2.4445  1.5037 -2.6825
 5774TIP3   OH238812   0.621   1.770  14.679  0.2174  0.0394  0.1519
 5774TIP3    H138813   0.535   1.740  14.648  1.6271 -4.0230 -0.4452
 5774TIP3    H238814   0.673   1.780  14.599  0.5796  1.6374  0.5574
 5775TIP3   OH238815   5.961   1.297  15.733  0.5141 -0.5100  0.3435
 5775TIP3    H138816   5.907   1.299  15.653  0.9857  1.3628  0.0424
 5775TIP3    H238817   5.898   1.290  15.804 -0.0437  0.0066 -0.0876
 5776TIP3   OH238818   4.008   3.606  13.558 -0.4627 -0.3136 -0.2515
 5776TIP3    H138819   4.043   3.517  13.559  0.7440  0.1150 -1.2319
 5776TIP3    H238820   3.945   3.606  13.486 -0.2116 -0.2988 -0.4745
 5777TIP3   OH238821   3.766   4.258   0.542  0.1057 -0.4312  0.5498
 5777TIP3    H138822   3.786   4.334   0.488 -1.7371  0.3802  0.9373
 5777TIP3    H238823   3.726   4.294   0.621 -0.6960 -1.8008  0.8016
 5778TIP3   OH238824   0.048   3.999   2.379  0.3064  0.3386 -0.2363
 5778TIP3    H138825  -0.046   3.997   2.359  0.2457 -2.1550 -0.0619
 5778TIP3    H238826   0.053   3.993   2.474  0.6241  0.4890 -0.2426
 5779TIP3   OH238827   3.970   4.717  12.330 -0.2174  0.4024 -0.1254
 5779TIP3    H138828   3.936   4.647  12.385  1.2502 -0.7404 -0.6113
 5779TIP3    H238829   3.967   4.682  12.241  0.4586  0.9822 -0.3866
 5780TIP3   OH238830   4.898   1.158   5.184  0.2342  0.1850 -0.3018
 5780TIP3    H138831   4.829   1.095   5.206 -0.8784  1.5236  0.1673
 5780TIP3    H238832   4.944   1.117   5.111 -1.5766 -0.4171 -1.1830
 5781TIP3   OH238833   3.598   5.035   4.448 -0.0411  0.3557 -0.4413
 5781TIP3    H138834   3.623   5.022   4.539 -0.6933  0.6621 -0.2119
 5781TIP3    H238835   3.658   5.103   4.416  0.1095  0.3300 -0.2111
 5782TIP3   OH238836   2.564   6.486  16.206  0.1930 -0.1932  0.4952
 5782TIP3    H138837   2.488   6.543  16.197 -0.7675 -1.3345  1.0999
 5782TIP3    H238838   2.542   6.408  16.155  1.2159 -0.3013  0.1914
 5783TIP3   OH238839   2.948   3.385  16.532 -0.8762  0.0541 -0.2531
 5783TIP3    H138840   2.992   3.340  16.460 -0.0988  1.2755 -0.5622
 5783TIP3    H238841   3.015   3.397  16.599 -0.8622  1.4315 -0.4953
 5784TIP3   OH238842   4.573   5.131  14.528 -0.5784  0.5811 -0.1841
 5784TIP3    H138843   4.565   5.169  14.616 -1.0423 -0.3248  0.1863
 5784TIP3    H238844   4.501   5.171  14.479 -1.0464  0.2147  0.1920
 5785TIP3   OH238845   5.580   3.361   6.052  0.0145 -0.0149 -0.9637
 5785TIP3    H138846   5.623   3.380   6.136 -0.8212 -0.3015 -0.4598
 5785TIP3    H238847   5.555   3.447   6.018 -1.6975  0.0048  0.2061
 5786TIP3   OH238848   3.161   6.742  17.342  0.4043 -0.0660  0.1556
 5786TIP3    H138849   3.159   6.648  17.326  0.2296 -0.1511  0.6663
 5786TIP3    H238850   3.207   6.752  17.425 -0.5399  0.2109  0.6628
 5787TIP3   OH238851   6.672   2.563   1.763  0.1101 -0.8509  0.4304
 5787TIP3    H138852   6.660   2.540   1.671  0.8391 -0.0569  0.1250
 5787TIP3    H238853   6.591   2.609   1.787  1.5320  2.8591 -1.0947
 5788TIP3   OH238854   6.608   4.180  11.359 -0.3525  0.6084  0.0884
 5788TIP3    H138855   6.653   4.135  11.288 -0.1703 -0.6974  0.9888
 5788TIP3    H238856   6.677   4.200  11.423 -0.8437 -0.5245  1.0271
 5789TIP3   OH238857   2.816   3.158   5.540 -0.3678 -0.2333  0.0812
 5789TIP3    H138858   2.800   3.070   5.506 -0.3704 -0.3089  0.2758
 5789TIP3    H238859   2.740   3.209   5.511  1.1634  0.5605 -2.9012
 5790TIP3   OH238860   5.155   4.537   1.792  0.5454  0.1215 -0.0453
 5790TIP3    H138861   5.218   4.551   1.863  2.1989 -0.4833 -1.3343
 5790TIP3    H238862   5.205   4.495   1.723 -1.1260  0.2691 -1.4199
 5791TIP3   OH238863   5.336   1.871   2.376 -0.0848  0.2843  0.0441
 5791TIP3    H138864   5.413   1.817   2.393 -0.6199 -0.5867 -0.2298
 5791TIP3    H238865   5.269   1.809   2.346 -0.7878  1.0691 -0.0536
 5792TIP3   OH238866   2.473   5.580   1.389  0.4820  0.4098 -0.2982
 5792TIP3    H138867   2.381   5.579   1.363  0.2869  0.2491  0.3585
 5792TIP3    H238868   2.473   5.621   1.476  1.0741  0.7449 -0.4498
 5793TIP3   OH238869   4.413   4.529   4.293 -0.9873  0.2532 -0.0981
 5793TIP3    H138870   4.447   4.440   4.298 -1.2364  0.1794  0.3243
 5793TIP3    H238871   4.403   4.556   4.384 -1.5079  0.4864 -0.2242
 5794TIP3   OH238872   3.054   0.046   3.120 -0.1476  0.3558  0.0570
 5794TIP3    H138873   3.093   0.098   3.190 -0.2247  1.6973 -0.8602
 5794TIP3    H238874   3.077  -0.045   3.142  1.4530  0.9054  0.8071
 5795TIP3   OH238875   0.336   1.714  17.294  0.1292 -0.0655  0.2199
 5795TIP3    H138876   0.388   1.719  17.214 -1.4449  0.2859 -0.8216
 5795TIP3    H238877   0.394   1.748  17.362  2.6157 -3.1533 -0.1131
 5796TIP3   OH238878   0.448   1.620  16.597  0.0185  0.1998 -0.0717
 5796TIP3    H138879   0.395   1.540  16.609 -2.1818  1.7671  1.5988
 5796TIP3    H238880   0.537   1.593  16.617 -0.6659 -1.8558  0.4852
 5797TIP3   OH238881   4.375   0.583  15.128  0.0810 -0.1495 -0.2623
 5797TIP3    H138882   4.443   0.561  15.065  1.2618 -0.0727  0.9304
 5797TIP3    H238883   4.360   0.677  15.115 -1.6584 -0.6166 -2.2233
 5798TIP3   OH238884   4.462   3.341   3.388 -0.4179 -0.0609 -0.5383
 5798TIP3    H138885   4.370   3.324   3.407 -0.6494  0.5435 -1.0814
 5798TIP3    H238886   4.477   3.302   3.302  0.4979 -2.3580  0.5655
 5799TIP3   OH238887   4.237   3.723  11.805  0.5090 -0.3116  0.6159
 5799TIP3    H138888   4.281   3.803  11.833  1.4260 -0.5033 -0.2041
 5799TIP3    H238889   4.184   3.750  11.730  0.5248 -0.3842  0.5778
 5800TIP3   OH238890   5.060   4.299  12.845 -0.2320 -0.3234  0.6739
 5800TIP3    H138891   5.121   4.271  12.776 -0.4767  0.6262  0.0531
 5800TIP3    H238892   5.071   4.234  12.914  1.2334 -0.3823  0.4254
 5801TIP3   OH238893   0.190   3.602  12.789 -0.4642 -0.4783  0.3576
 5801TIP3    H138894   0.180   3.646  12.704  0.1423  0.8572  0.9570
 5801TIP3    H238895   0.101   3.600  12.825 -0.8228 -1.5610 -0.5254
 5802TIP3   OH238896   2.387   6.540  12.210  0.2362  0.2010  0.2933
 5802TIP3    H138897   2.402   6.514  12.119 -3.8701 -1.5295 -0.1348
 5802TIP3    H238898   2.378   6.457  12.257 -2.0696  0.9514  1.3074
 5803TIP3   OH238899   5.994   3.108   0.762  0.5805 -0.3149  0.1044
 5803TIP3    H138900   6.022   3.025   0.723  0.1056 -0.2366 -0.4235
 5803TIP3    H238901   5.905   3.122   0.728  1.1677  1.1114 -0.9796
 5804TIP3   OH238902   2.177   6.090   0.786 -0.5734  0.1495 -0.4827
 5804TIP3    H138903   2.226   6.008   0.780  3.6522  2.3243  0.4085
 5804TIP3    H238904   2.158   6.099   0.880  0.3027  0.7758 -0.3455
 5805TIP3   OH238905   2.312   5.142  15.840 -0.4287 -0.1242 -0.1725
 5805TIP3    H138906   2.277   5.149  15.929 -0.9382 -0.3394 -0.3482
 5805TIP3    H238907   2.266   5.210  15.791 -0.9924 -0.7453 -0.5249
 5806TIP3   OH238908   4.009   1.141   5.216 -0.5036 -0.4067  0.1293
 5806TIP3    H138909   4.033   1.095   5.296  1.3677 -0.1865 -0.2623
 5806TIP3    H238910   3.927   1.185   5.238  0.5697  0.6528  2.3435
 5807TIP3   OH238911   3.434   1.642  14.840  0.0917  0.1966 -0.2151
 5807TIP3    H138912   3.472   1.663  14.925 -0.0299 -1.0019  0.1504
 5807TIP3    H238913   3.501   1.669  14.776  0.7976 -0.2315  0.3290
 5808TIP3   OH238914   2.869   2.984  15.341 -0.2892 -0.2021 -0.1642
 5808TIP3    H138915   2.833   2.912  15.393 -1.4378  1.0241  0.7909
 5808TIP3    H238916   2.793   3.020  15.294  0.0599  1.0819  0.2263
 5809TIP3   OH238917   1.942   5.485   1.730 -0.1121 -0.0578 -0.4207
 5809TIP3    H138918   2.013   5.455   1.674  0.4378  0.1275  0.1710
 5809TIP3    H238919   1.891   5.406   1.749  0.2860 -0.2994 -0.3526
 5810TIP3   OH238920   0.235   2.516   5.037 -0.1263  0.4353  0.3747
 5810TIP3    H138921   0.281   2.466   4.970  1.0114  0.1612  1.3102
 5810TIP3    H238922   0.284   2.598   5.044  0.9909 -0.3315  2.1921
 5811TIP3   OH238923   0.142   2.156  15.645  0.1522  0.1863 -0.3053
 5811TIP3    H138924   0.076   2.115  15.590  1.2636  0.9942 -2.3185
 5811TIP3    H238925   0.223   2.152  15.594  1.9101 -1.4293  2.3610
 5812TIP3   OH238926   4.050   4.932   5.680 -0.1278 -0.6065  0.5058
 5812TIP3    H138927   3.972   4.877   5.685 -0.5442  0.0117  1.0166
 5812TIP3    H238928   4.043   4.976   5.595 -0.0023 -1.0226  0.2758
 5813TIP3   OH238929   3.500   1.632   5.458 -0.4719  0.0829  0.5122
 5813TIP3    H138930   3.583   1.626   5.411 -0.6297  1.6832 -0.0191
 5813TIP3    H238931   3.510   1.571   5.531  1.5392  0.9366  1.0093
 5814TIP3   OH238932   5.508   2.436   6.594 -0.1407 -0.6896 -0.2796
 5814TIP3    H138933   5.437   2.380   6.563 -0.5555  0.6650 -1.9611
 5814TIP3    H238934   5.487   2.523   6.559  2.1920 -0.1724 -0.5563
 5815TIP3   OH238935   4.992   5.212   1.705 -0.4131 -0.0956  0.0234
 5815TIP3    H138936   5.048   5.281   1.740 -3.0674  1.6722  1.1300
 5815TIP3    H238937   4.997   5.142   1.770  1.8054 -0.7882 -0.7933
 5816TIP3   OH238938   2.922   1.349   2.726 -0.1078 -0.0691 -0.3683
 5816TIP3    H138939   2.940   1.315   2.639 -2.3188 -0.4608 -0.7496
 5816TIP3    H238940   2.860   1.421   2.712 -0.4757 -0.1139  0.8557
 5817TIP3   OH238941   6.712   1.805  16.769 -0.0614  0.0336 -0.0431
 5817TIP3    H138942   6.671   1.849  16.694  0.8141 -0.1900 -0.6832
 5817TIP3    H238943   6.640   1.778  16.825 -0.6732  1.4130 -0.1290
 5818TIP3   OH238944   6.259   5.276   4.926 -0.0862  0.3439  0.8606
 5818TIP3    H138945   6.176   5.294   4.883 -0.0422  0.3889  0.7939
 5818TIP3    H238946   6.243   5.195   4.975  0.2836 -0.5526 -0.4322
 5819TIP3   OH238947   0.350   2.931  12.705  0.0215 -0.2079 -0.1019
 5819TIP3    H138948   0.406   2.952  12.631  1.2051  0.2388  0.8892
 5819TIP3    H238949   0.268   2.978  12.688  1.5008  2.7827  0.5242
 5820TIP3   OH238950   3.829   4.770   1.783 -0.0199 -0.1154 -0.1599
 5820TIP3    H138951   3.821   4.677   1.762 -1.3588 -0.6386  2.2538
 5820TIP3    H238952   3.771   4.814   1.721  0.6683 -0.8541 -1.3630
 5821TIP3   OH238953   1.782   2.587  12.359 -0.0230 -0.7632 -0.1315
 5821TIP3    H138954   1.710   2.650  12.366  0.2580 -0.4980  0.4790
 5821TIP3    H238955   1.861   2.641  12.357  0.2497 -1.1096  0.8831
 5822TIP3   OH238956   0.031   6.277   2.936 -0.5464 -0.3406  0.4905
 5822TIP3    H138957   0.110   6.225   2.919 -0.7141 -0.7299  0.8888
 5822TIP3    H238958   0.053   6.364   2.904 -0.5486 -0.8347 -0.9268
 5823TIP3   OH238959   6.576   5.252   3.993  1.0069 -0.6115 -0.8163
 5823TIP3    H138960   6.517   5.324   4.017 -0.7998 -2.0847 -0.5195
 5823TIP3    H238961   6.621   5.230   4.075 -1.0653 -2.0405  0.0362
 5824TIP3   OH238962   2.582   6.245   5.434  0.2829  0.1722  0.7729
 5824TIP3    H138963   2.666   6.210   5.465  0.2655 -0.0224  0.6062
 5824TIP3    H238964   2.602   6.277   5.345  0.1034 -0.1745  0.6082
 5825TIP3   OH238965   0.214   0.999  16.889  0.7003  0.1641  0.0181
 5825TIP3    H138966   0.178   0.928  16.942 -0.3067  0.4631 -0.2401
 5825TIP3    H238967   0.221   1.073  16.948 -0.1820  0.4249 -0.1956
 5826TIP3   OH238968   2.005   0.449  11.030 -0.6174  0.3158  0.0053
 5826TIP3    H138969   1.948   0.451  10.954 -0.7919  1.5770  0.1493
 5826TIP3    H238970   2.059   0.371  11.018  1.3067  1.9294 -2.8555
 5827TIP3   OH238971   2.722   4.294   4.342  0.2673  0.1569 -0.8752
 5827TIP3    H138972   2.664   4.227   4.306  1.0868 -1.0764  0.0545
 5827TIP3    H238973   2.687   4.313   4.428  0.9837 -0.2941 -0.4739
 5828TIP3   OH238974   4.012   2.017   6.307  0.1897  1.1152  0.1220
 5828TIP3    H138975   4.016   1.941   6.249 -1.1051  2.6281 -2.0623
 5828TIP3    H238976   4.089   2.008   6.363  0.7631 -1.1130 -0.9053
 5829TIP3   OH238977   0.405   1.991  13.299 -0.3674  0.3967 -0.1763
 5829TIP3    H138978   0.334   2.034  13.251  0.2970  0.1996 -1.3754
 5829TIP3    H238979   0.449   1.936  13.234 -1.2543 -2.2642  1.3275
 5830TIP3   OH238980   0.290   5.427   2.213  0.2708  0.0557 -0.0575
 5830TIP3    H138981   0.250   5.512   2.194 -1.2888 -0.6370 -0.0429
 5830TIP3    H238982   0.229   5.385   2.275  0.2308 -1.6394 -1.1601
 5831TIP3   OH238983   1.939   2.627  17.465 -0.2067 -0.4695 -0.4075
 5831TIP3    H138984   1.913   2.555  17.523 -0.9741 -0.4673 -0.7294
 5831TIP3    H238985   1.980   2.691  17.523 -0.9494 -0.4736  0.1385
 5832TIP3   OH238986   2.882   0.039   5.248  0.6277 -0.0123  0.2414
 5832TIP3    H138987   2.970   0.075   5.238  0.6657 -0.3030 -0.5688
 5832TIP3    H238988   2.825   0.116   5.247  0.7885  0.1095 -0.4644
 5833TIP3   OH238989   5.112   6.048  14.423 -0.4013  0.1600  0.5068
 5833TIP3    H138990   5.040   6.047  14.361  0.7226  0.3065 -0.8575
 5833TIP3    H238991   5.145   5.958  14.424  0.6568  0.5148 -0.4499
 5834TIP3   OH238992   2.293   1.211  11.442 -0.0952 -0.5960  0.0826
 5834TIP3    H138993   2.205   1.235  11.472 -0.6028 -0.3041 -1.5014
 5834TIP3    H238994   2.292   1.231  11.348  1.7042 -0.5021  0.0493
 5835TIP3   OH238995   4.294   4.311  12.383  0.0994 -0.2488 -0.2813
 5835TIP3    H138996   4.244   4.238  12.344  0.8860 -0.6120 -0.6253
 5835TIP3    H238997   4.243   4.335  12.461 -0.2922 -1.0223 -0.2838
 5836TIP3   OH238998   5.003   4.027  13.938  0.6671  0.0085  0.3558
 5836TIP3    H138999   4.957   4.111  13.947  1.4996  0.6966 -1.4644
 5836TIP3    H239000   4.933   3.963  13.920  0.3219  1.1298 -2.9829
 5837TIP3   OH239001   2.615   3.305  13.306  0.7140 -0.1992  0.2586
 5837TIP3    H139002   2.675   3.347  13.368 -1.2183  1.3508  1.1551
 5837TIP3    H239003   2.616   3.362  13.229 -2.0092  1.7273  1.5251
 5838TIP3   OH239004   3.666   3.058  13.606  0.0646  0.2398  0.4889
 5838TIP3    H139005   3.592   3.116  13.622 -0.7908 -0.9538  1.0237
 5838TIP3    H239006   3.634   2.994  13.543  0.8634  0.0978  0.2094
 5839TIP3   OH239007   3.466   0.319  12.095 -0.4014 -0.0307  0.1519
 5839TIP3    H139008   3.451   0.306  12.188  2.4139  0.3788  0.7496
 5839TIP3    H239009   3.511   0.403  12.089  1.4910 -1.0701 -1.2776
 5840TIP3   OH239010   1.815   4.972   5.437 -0.1042 -0.1972  0.3754
 5840TIP3    H139011   1.726   5.007   5.434  0.9773  2.8069 -1.3241
 5840TIP3    H239012   1.867   5.041   5.476  2.0896 -0.0486 -2.4653
 5841TIP3   OH239013   4.443   3.121  16.796  0.1368 -0.3512 -0.2854
 5841TIP3    H139014   4.410   3.204  16.762  1.1923 -0.1709 -0.9464
 5841TIP3    H239015   4.367   3.078  16.835 -0.2928  1.2089  0.6628
 5842TIP3   OH239016   1.533   2.286   2.773  0.0243 -0.6025  0.0307
 5842TIP3    H139017   1.440   2.308   2.761 -0.1646 -0.4111  1.5519
 5842TIP3    H239018   1.534   2.190   2.772 -0.1577 -0.6039 -0.2111
 5843TIP3   OH239019   2.249   5.131   1.930 -0.7339  0.8043  0.0347
 5843TIP3    H139020   2.162   5.092   1.924 -0.6734  0.8285 -1.4189
 5843TIP3    H239021   2.288   5.115   1.844  0.4513  1.3678  0.4501
 5844TIP3   OH239022   3.425   0.739  16.472 -0.1937  0.0510  0.1793
 5844TIP3    H139023   3.454   0.647  16.472 -0.8305 -0.1590  0.1106
 5844TIP3    H239024   3.500   0.788  16.439  0.7131 -0.2565  1.6541
 5845TIP3   OH239025   4.809   0.589  14.046 -0.7533  0.2341 -0.3813
 5845TIP3    H139026   4.832   0.678  14.073  0.1469 -0.2742  0.5867
 5845TIP3    H239027   4.887   0.556  14.002 -1.2129  0.0387 -1.0723
 5846TIP3   OH239028   6.333   2.165   5.381 -0.1009 -0.3374 -0.2615
 5846TIP3    H139029   6.360   2.122   5.300  2.9704  0.2681  0.3173
 5846TIP3    H239030   6.362   2.256   5.371 -0.6109  0.0033  1.1119
 5847TIP3   OH239031   4.136   2.607  17.357 -0.3413  0.0301 -0.1756
 5847TIP3    H139032   4.171   2.519  17.341 -0.1759  0.0570  0.0362
 5847TIP3    H239033   4.069   2.595  17.424  1.2106  0.3543  1.5357
 5848TIP3   OH239034   5.635   2.165   0.759  0.1252  0.0916  0.1935
 5848TIP3    H139035   5.571   2.216   0.808 -0.5023 -0.9999  0.5557
 5848TIP3    H239036   5.623   2.193   0.668  2.1797  3.0670  0.7060
 5849TIP3   OH239037   4.982   4.521  11.561  0.0685 -0.3377  0.5506
 5849TIP3    H139038   5.045   4.457  11.593 -1.9738 -1.6929  2.1103
 5849TIP3    H239039   4.967   4.497  11.469  1.8280  0.0819  0.1227
 5850TIP3   OH239040   0.231   0.457  10.809 -0.1565  0.6897  0.1009
 5850TIP3    H139041   0.167   0.485  10.744 -0.2992 -1.2033 -0.6041
 5850TIP3    H239042   0.316   0.466  10.765 -0.1657  0.3916  0.0269
 5851TIP3   OH239043   3.938   6.633   5.630 -0.3107 -0.4185  0.5264
 5851TIP3    H139044   3.862   6.663   5.580 -0.1213  2.6458  1.8504
 5851TIP3    H239045   4.013   6.658   5.576 -0.1451  1.8296  1.7020
 5852TIP3   OH239046   4.304   0.654   6.263 -0.1702 -0.0604  0.6946
 5852TIP3    H139047   4.261   0.740   6.269 -0.3023  0.1336 -1.8114
 5852TIP3    H239048   4.397   0.673   6.270 -0.1626  0.3973 -0.4785
 5853TIP3   OH239049   1.456   1.553  12.605  0.2882 -0.3150  0.0002
 5853TIP3    H139050   1.384   1.581  12.549 -0.6708 -0.4786  1.1214
 5853TIP3    H239051   1.533   1.555  12.548 -0.2840  1.5410 -0.7893
 5854TIP3   OH239052   6.432   6.014  17.451 -0.5845 -0.4325 -0.2325
 5854TIP3    H139053   6.346   5.992  17.487  0.5043 -2.7498  1.1658
 5854TIP3    H239054   6.441   6.108  17.466 -2.3338 -0.3849  0.7803
 5855TIP3   OH239055   5.305   2.856   3.823  0.0476 -0.3165 -0.0224
 5855TIP3    H139056   5.364   2.891   3.889 -0.8418 -1.5441  1.5034
 5855TIP3    H239057   5.296   2.926   3.758  0.5778  1.1337  1.4118
 5856TIP3   OH239058   0.196   3.133   3.877 -0.1329  0.2219  0.1852
 5856TIP3    H139059   0.230   3.081   3.804  1.3774  0.8908  0.3659
 5856TIP3    H239060   0.274   3.172   3.916 -1.0713  1.1734  1.1600
 5857TIP3   OH239061   4.527   5.438   0.549 -0.2014  0.1430  0.1716
 5857TIP3    H139062   4.457   5.432   0.614  0.7177 -2.0396  1.0333
 5857TIP3    H239063   4.490   5.397   0.470 -0.1895 -0.2110  0.3510
 5858TIP3   OH239064   3.819   4.911  12.047 -0.4037 -0.1788  0.6580
 5858TIP3    H139065   3.844   4.823  12.076 -0.3887  0.0435  1.3368
 5858TIP3    H239066   3.728   4.921  12.075 -0.2364  0.2252  1.0615
 5859TIP3   OH239067   1.979   1.492  12.006  0.0305  0.3346  0.3606
 5859TIP3    H139068   2.068   1.517  12.030 -0.0032 -1.1956  2.2499
 5859TIP3    H239069   1.983   1.398  11.989 -0.6918  0.7186 -2.4179
 5860TIP3   OH239070   0.656   6.739  17.420  0.0604  0.0861  0.2056
 5860TIP3    H139071   0.673   6.693  17.338  0.9999  1.1068 -0.2123
 5860TIP3    H239072   0.717   6.700  17.482  2.0075  1.7157 -0.5389
 5861TIP3   OH239073   0.280   6.281   4.475  0.2590  0.1574 -0.4111
 5861TIP3    H139074   0.288   6.238   4.390  1.9214 -0.4712  0.0228
 5861TIP3    H239075   0.330   6.362   4.465  1.2737 -0.3712  0.2308
 5862TIP3   OH239076   4.384   3.763  15.425 -0.1743 -0.2597  0.0786
 5862TIP3    H139077   4.413   3.802  15.508  0.4034 -0.8934  0.1873
 5862TIP3    H239078   4.444   3.799  15.359 -1.4373  1.2480 -0.2889
 5863TIP3   OH239079   2.896   6.699  14.592  0.1614  0.4559  0.0269
 5863TIP3    H139080   2.939   6.693  14.506  1.6188 -0.7540  0.7931
 5863TIP3    H239081   2.963   6.737  14.649 -1.1501  2.2785  0.4495
 5864TIP3   OH239082   6.167   2.818  13.841 -0.0381 -0.4500 -0.5825
 5864TIP3    H139083   6.084   2.790  13.803 -0.8359  0.1319  0.6606
 5864TIP3    H239084   6.164   2.913  13.839 -0.2097 -0.3992  1.1057
 5865TIP3   OH239085   2.558   6.383   4.098 -0.5970 -0.0804 -0.5217
 5865TIP3    H139086   2.593   6.436   4.027  0.0372  0.4640  0.1779
 5865TIP3    H239087   2.527   6.447   4.163 -3.7200 -0.4864 -1.4273
 5866TIP3   OH239088   2.965   0.159   3.418 -0.3489 -0.1663  0.5537
 5866TIP3    H139089   2.869   0.160   3.416 -0.3838 -0.9078  1.0912
 5866TIP3    H239090   2.987   0.067   3.432  0.4391  0.0217  0.6030
 5867TIP3   OH239091   2.952   1.518   6.370  0.0371  0.5395  0.2637
 5867TIP3    H139092   2.979   1.610   6.379 -0.3242  0.5212  1.8030
 5867TIP3    H239093   3.033   1.468   6.379  0.1715  0.6880 -0.1193
 5868TIP3   OH239094   5.720   3.009   1.411 -0.0774 -0.0911  0.0030
 5868TIP3    H139095   5.684   3.097   1.402  1.4734  0.5528 -0.2036
 5868TIP3    H239096   5.746   3.003   1.502 -0.5520 -0.4934  0.1141
 5869TIP3   OH239097   1.071   4.755   2.527 -0.4131  0.5850 -0.2992
 5869TIP3    H139098   1.113   4.839   2.544  0.6587  0.1140 -0.5077
 5869TIP3    H239099   1.047   4.758   2.434 -1.5612  1.1489 -0.0016
 5870TIP3   OH239100   4.598   0.698   2.913  0.0112  0.2293  0.2729
 5870TIP3    H139101   4.602   0.725   3.005  1.0994 -0.7651  0.5431
 5870TIP3    H239102   4.599   0.781   2.864  2.6053  0.7705  1.0961
 5871TIP3   OH239103   5.105   6.257   3.121  0.1287 -0.4146  0.1627
 5871TIP3    H139104   5.027   6.279   3.171  1.8152  1.3694  2.1680
 5871TIP3    H239105   5.143   6.181   3.167 -0.2126 -1.0816 -0.6228
 5872TIP3   OH239106   1.806   5.314   0.852 -0.3844 -0.1616  0.0427
 5872TIP3    H139107   1.728   5.278   0.810  0.7740 -1.7913 -0.8242
 5872TIP3    H239108   1.803   5.279   0.941 -0.4511 -0.5506 -0.1080
 5873TIP3   OH239109   1.935   1.106  16.036  0.3580 -0.7080 -0.1493
 5873TIP3    H139110   1.933   1.198  16.010  0.1508 -0.1532  1.7047
 5873TIP3    H239111   2.026   1.080  16.029  1.2354  0.9048  3.2485
 5874TIP3   OH239112   1.688   4.592   2.889  0.5859 -0.5526  0.1367
 5874TIP3    H139113   1.744   4.646   2.833 -1.2234  0.3399 -0.9212
 5874TIP3    H239114   1.748   4.530   2.930  2.1787 -0.4538 -1.8474
 5875TIP3   OH239115   0.281   4.784   3.943  0.2039  0.2124 -0.5011
 5875TIP3    H139116   0.204   4.789   4.000 -0.0261  0.9642 -0.8646
 5875TIP3    H239117   0.246   4.790   3.855  0.7281  1.2470 -0.6491
 5876TIP3   OH239118   0.514   1.847  12.264  0.0217 -0.4646 -0.3567
 5876TIP3    H139119   0.458   1.916  12.226  0.2610 -1.0661 -1.8746
 5876TIP3    H239120   0.513   1.865  12.358 -0.2932  1.3421 -0.6610
 5877TIP3   OH239121   3.090   1.256  17.207 -0.1983  0.1943 -0.0811
 5877TIP3    H139122   3.023   1.281  17.270 -2.1304 -0.0376 -1.9455
 5877TIP3    H239123   3.160   1.321  17.219 -1.3383  1.2694  0.9988
 5878TIP3   OH239124   3.797   2.928   3.251  0.6681  0.2392  0.6460
 5878TIP3    H139125   3.874   2.882   3.217 -1.5971 -1.1488 -3.2855
 5878TIP3    H239126   3.815   3.020   3.234  2.2102  0.1666  1.6655
 5879TIP3   OH239127   1.403   4.174   0.098  0.5779  0.3045  0.0159
 5879TIP3    H139128   1.345   4.242   0.062  0.6382  0.1806 -0.3180
 5879TIP3    H239129   1.460   4.151   0.025  0.9391  0.3082  0.2995
 5880TIP3   OH239130   6.501   2.244   3.206 -0.1227  0.3465 -0.5172
 5880TIP3    H139131   6.540   2.160   3.181  2.0269  0.0361  3.1351
 5880TIP3    H239132   6.555   2.309   3.162  0.9246 -0.1739 -0.0441
 5881TIP3   OH239133   4.265   1.501   1.252  0.6943 -0.0359 -1.1453
 5881TIP3    H139134   4.249   1.595   1.249  2.4549  0.4658  1.5407
 5881TIP3    H239135   4.356   1.491   1.226  0.9231 -0.8042 -0.1224
 5882TIP3   OH239136   6.020   2.831   2.938 -0.2357 -0.4207  0.4380
 5882TIP3    H139137   5.996   2.821   3.030 -2.0604  1.6452  0.2580
 5882TIP3    H239138   5.983   2.915   2.913  0.0662 -1.0198 -2.2639
 5883TIP3   OH239139   2.136   2.458  12.761 -0.4360  0.1032  0.3188
 5883TIP3    H139140   2.100   2.491  12.843  0.6821 -1.0632  1.3117
 5883TIP3    H239141   2.080   2.384  12.738 -0.5985  0.2800  0.1268
 5884TIP3   OH239142   5.516   5.570  11.293  0.1386  0.1183  0.6363
 5884TIP3    H139143   5.525   5.567  11.197 -2.0980 -0.9126  0.3957
 5884TIP3    H239144   5.505   5.663  11.313 -0.8722  0.2187 -0.2997
 5885TIP3   OH239145   6.244   6.133   2.463  0.5934  0.6017 -0.7935
 5885TIP3    H139146   6.157   6.133   2.503  1.7074 -2.7885  2.0123
 5885TIP3    H239147   6.274   6.224   2.472 -1.7764  1.3788  0.0938
 5886TIP3   OH239148   0.554   6.754  16.484  0.0304 -0.2439  0.1903
 5886TIP3    H139149   0.533   6.760  16.391 -0.2850  0.8974  0.3159
 5886TIP3    H239150   0.583   6.664  16.497 -1.7471 -0.9851 -0.6484
 5887TIP3   OH239151   6.444   0.025   2.068 -0.0711 -0.3670  0.6510
 5887TIP3    H139152   6.374   0.060   2.123  0.2194  1.2427  0.0573
 5887TIP3    H239153   6.523   0.035   2.120  0.1220  0.6023  0.1741
 5888TIP3   OH239154   3.943   4.572   2.979 -0.0507  0.1412 -0.2478
 5888TIP3    H139155   3.916   4.600   2.892  0.1500 -2.8541 -1.3944
 5888TIP3    H239156   3.884   4.500   3.001  2.1617 -1.5715  0.4562
 5889TIP3   OH239157   4.666   4.083  13.044  0.3025 -0.6501  0.4414
 5889TIP3    H139158   4.761   4.068  13.047  0.3575 -0.5823 -0.7722
 5889TIP3    H239159   4.635   4.028  12.973 -0.6242 -0.8727  0.9959
 5890TIP3   OH239160   3.610   0.059  16.213  0.4145 -0.2472 -0.2164
 5890TIP3    H139161   3.561  -0.005  16.160  0.6710 -0.4905 -0.1635
 5890TIP3    H239162   3.690   0.074  16.164  0.4927 -0.2017 -0.0749
 5891TIP3   OH239163   1.819   5.148   4.764  0.3584 -0.1403  0.1081
 5891TIP3    H139164   1.724   5.150   4.753  0.3114  1.2978  0.5352
 5891TIP3    H239165   1.837   5.061   4.800 -0.9106 -0.0943  0.9230
 5892TIP3   OH239166   1.098   2.632   6.394  0.5705  0.1101 -0.1668
 5892TIP3    H139167   1.061   2.584   6.469  0.7876  1.6813  0.9861
 5892TIP3    H239168   1.099   2.567   6.324 -5.1612  0.0140 -0.6692
 5893TIP3   OH239169   0.309   1.263   4.664 -0.5665 -0.4423 -0.7576
 5893TIP3    H139170   0.284   1.337   4.720 -0.4695 -0.1262 -1.1332
 5893TIP3    H239171   0.230   1.243   4.613 -0.8880 -1.2079  0.0057
 5894TIP3   OH239172   5.848   5.694   6.234 -0.0718  0.0071  0.5610
 5894TIP3    H139173   5.927   5.685   6.287 -0.4485 -2.5885  0.7977
 5894TIP3    H239174   5.777   5.661   6.290 -1.2421  1.5507  0.0728
 5895TIP3   OH239175   1.838   3.593  15.971  0.2601 -0.2737 -0.0384
 5895TIP3    H139176   1.871   3.582  16.061 -1.3322 -0.9517  0.4922
 5895TIP3    H239177   1.787   3.514  15.954 -1.4630  0.8974 -0.6132
 5896TIP3   OH239178   6.104   5.784  11.423  0.2918 -0.2570 -0.3945
 5896TIP3    H139179   6.159   5.781  11.345  0.7602  0.9191 -0.1317
 5896TIP3    H239180   6.091   5.692  11.447  0.3971 -0.6189 -1.6686
 5897TIP3   OH239181   1.290   4.807  17.012 -0.3433  0.2097 -0.2035
 5897TIP3    H139182   1.201   4.799  17.045 -0.7747  0.3520 -1.3003
 5897TIP3    H239183   1.280   4.821  16.918  0.8405  0.0477 -0.3718
 5898TIP3   OH239184   4.645   4.509  16.656 -0.4373  0.4602 -0.2029
 5898TIP3    H139185   4.660   4.571  16.728  0.4624  1.0762 -0.8869
 5898TIP3    H239186   4.655   4.562  16.577 -0.5608 -0.3817 -0.7926
 5899TIP3   OH239187   3.643   1.063  15.266  0.0594 -0.4842  0.2673
 5899TIP3    H139188   3.701   1.076  15.191  0.4258 -1.8610  0.2720
 5899TIP3    H239189   3.594   1.144  15.273  1.5272  0.4899 -0.1458
 5900TIP3   OH239190   5.543   0.160  12.456  1.1430 -0.5725 -0.0256
 5900TIP3    H139191   5.620   0.132  12.406  1.2915  0.2111 -0.2479
 5900TIP3    H239192   5.569   0.152  12.548  0.6382 -2.6879 -0.0158
 5901TIP3   OH239193   0.108   1.639   2.729 -0.0728  0.1301 -0.3151
 5901TIP3    H139194   0.123   1.717   2.784  2.2662 -1.9437  2.3290
 5901TIP3    H239195   0.190   1.628   2.682 -0.0012 -1.2378  0.0990
 5902TIP3   OH239196   6.752   5.751   1.929  0.1765  0.0072  0.3693
 5902TIP3    H139197   6.719   5.818   1.989  0.7002  0.0926  0.5676
 5902TIP3    H239198   6.798   5.801   1.861  0.4784 -0.1367  0.4620
 5903TIP3   OH239199   0.781   6.667  13.757  0.3101 -0.1984  0.4618
 5903TIP3    H139200   0.687   6.684  13.749  0.6016  0.7777 -2.0141
 5903TIP3    H239201   0.790   6.573  13.740 -0.3293 -0.6692  2.5178
 5904TIP3   OH239202   5.592   6.713   0.261 -0.1009  0.2462 -0.4741
 5904TIP3    H139203   5.536   6.740   0.188 -0.2481  3.1102  0.5618
 5904TIP3    H239204   5.555   6.757   0.337  2.3274  0.5708  0.6170
 5905TIP3   OH239205   0.402   6.013   4.925 -0.0311 -0.1009 -0.5793
 5905TIP3    H139206   0.438   5.926   4.944 -1.0329 -0.8832 -2.0507
 5905TIP3    H239207   0.307   5.999   4.921 -0.3626  1.4589  0.9967
 5906TIP3   OH239208   0.435   2.172  15.076 -0.2442  0.2006 -0.0103
 5906TIP3    H139209   0.344   2.188  15.103 -1.0160  0.1594 -2.3599
 5906TIP3    H239210   0.477   2.258  15.082  0.3478 -0.1727  3.4078
 5907TIP3   OH239211   1.465   4.642  17.408  0.1780  0.4522  0.3545
 5907TIP3    H139212   1.543   4.604  17.449  0.1222  0.7616  0.7530
 5907TIP3    H239213   1.419   4.567  17.371  2.0589  0.5052 -2.3719
 5908TIP3   OH239214   4.692   1.834  13.497 -0.3433 -0.7537  0.3717
 5908TIP3    H139215   4.730   1.891  13.564  1.9860 -1.8875  0.1193
 5908TIP3    H239216   4.598   1.831  13.518  0.1205 -0.1650  2.8625
 5909TIP3   OH239217   5.758   0.448   5.907 -0.2071 -0.2223 -0.5076
 5909TIP3    H139218   5.704   0.527   5.902 -0.2627 -0.2024  0.3430
 5909TIP3    H239219   5.773   0.424   5.815 -0.3848  0.6352 -0.7699
 5910TIP3   OH239220   1.215   2.175  14.516 -0.4674 -0.0046 -0.2025
 5910TIP3    H139221   1.243   2.185  14.607 -0.5759 -0.5697 -0.1051
 5910TIP3    H239222   1.268   2.103  14.482 -0.1181  0.4741 -0.7219
 5911TIP3   OH239223   5.542   2.820  15.294  0.4558 -0.2292  0.3871
 5911TIP3    H139224   5.626   2.864  15.307 -0.0051  0.1899  2.3362
 5911TIP3    H239225   5.477   2.882  15.329 -0.8812  0.1399 -2.4807
 5912TIP3   OH239226   4.635   0.874  15.134 -0.1009 -0.1277  0.2575
 5912TIP3    H139227   4.725   0.861  15.105 -0.4257  0.1403 -0.8911
 5912TIP3    H239228   4.637   0.957  15.182  0.4293 -0.5707  1.0354
 5913TIP3   OH239229   5.493   1.494   2.193 -0.0730 -0.7531 -0.6492
 5913TIP3    H139230   5.459   1.404   2.191  2.2242 -1.7095  0.1372
 5913TIP3    H239231   5.585   1.485   2.170  0.1079  1.4959 -0.9906
 5914TIP3   OH239232   0.354   4.017   1.532 -0.0885 -0.2785 -0.3502
 5914TIP3    H139233   0.381   4.107   1.518  2.7161 -0.8933  0.5648
 5914TIP3    H239234   0.304   3.994   1.453 -1.3505  2.1751 -0.3515
 5915TIP3   OH239235   2.874   4.055   5.246  0.2303  0.4959 -0.5393
 5915TIP3    H139236   2.913   3.982   5.199 -1.0541  0.5251 -1.7322
 5915TIP3    H239237   2.942   4.122   5.248  1.3340 -0.6074  0.3459
 5916TIP3   OH239238   3.853   4.037  13.628  0.3097  0.0097  0.5379
 5916TIP3    H139239   3.918   3.971  13.604  0.9859  0.9388 -0.2480
 5916TIP3    H239240   3.769   4.000  13.601  0.5178 -1.1027  1.3513
 5917TIP3   OH239241   6.352   4.263  16.000  0.2160  0.2698  0.6018
 5917TIP3    H139242   6.386   4.346  15.967  0.8017 -0.5766 -1.0276
 5917TIP3    H239243   6.428   4.220  16.040 -0.0388  0.4171  1.2548
 5918TIP3   OH239244   2.298   6.164  16.677 -0.4335  0.2263 -0.5584
 5918TIP3    H139245   2.270   6.142  16.766  0.3438 -0.2397 -0.4256
 5918TIP3    H239246   2.217   6.161  16.626 -0.6188 -1.2941 -0.2138
 5919TIP3   OH239247   6.641   5.483  16.911 -0.3121 -0.0100  0.2723
 5919TIP3    H139248   6.627   5.389  16.920 -1.0276 -0.1185 -1.5933
 5919TIP3    H239249   6.566   5.514  16.861  0.4717  1.3754 -0.0966
 5920TIP3   OH239250   5.692   1.233   2.142 -0.0656 -0.1566  0.0439
 5920TIP3    H139251   5.643   1.162   2.184 -0.8052 -0.3878 -1.1551
 5920TIP3    H239252   5.739   1.275   2.214 -2.6118  0.5837  1.3913
 5921TIP3   OH239253   5.966   1.022  11.278  0.8259  0.0788 -0.0282
 5921TIP3    H139254   6.045   1.067  11.308  2.0190 -1.4364 -0.7421
 5921TIP3    H239255   5.979   1.013  11.183 -1.2596  1.7591 -0.5323
 5922TIP3   OH239256   2.025   6.065  17.510 -0.7135 -0.6100  0.4151
 5922TIP3    H139257   2.071   6.018  17.579 -0.8248 -0.7413  0.3990
 5922TIP3    H239258   1.968   6.000  17.470  0.2334 -0.8570 -0.6082
 5923TIP3   OH239259   5.887   5.326  11.703 -0.0421 -0.0783  0.0371
 5923TIP3    H139260   5.859   5.417  11.695  0.8715  0.0872 -1.9048
 5923TIP3    H239261   5.817   5.284  11.754 -1.2651  1.3612 -0.3635
 5924TIP3   OH239262   1.057   0.988  15.232  0.1632 -0.0702  0.0839
 5924TIP3    H139263   1.035   1.007  15.141 -0.5569 -2.4199 -0.2959
 5924TIP3    H239264   1.134   0.931  15.226  0.8323  0.7068  1.0255
 5925TIP3   OH239265   3.853   0.043  16.766 -0.0874  0.3176 -0.2241
 5925TIP3    H139266   3.819   0.018  16.852  0.6065 -0.9017 -0.2743
 5925TIP3    H239267   3.799   0.117  16.739  0.7817  1.8870  2.0124
 5926TIP3   OH239268   5.810   2.365  13.921  0.2225 -0.8027 -0.4858
 5926TIP3    H139269   5.851   2.399  13.842 -0.5939  0.3440 -0.4345
 5926TIP3    H239270   5.737   2.312  13.891 -0.7747  0.5399 -0.5052
 5927TIP3   OH239271   5.409   0.214   1.657 -0.3253 -0.2033  0.0296
 5927TIP3    H139272   5.368   0.129   1.671  2.3578 -1.3044  2.2606
 5927TIP3    H239273   5.445   0.238   1.743  0.6109  2.2996 -0.9465
 5928TIP3   OH239274   6.382   3.180   3.659  0.6811 -0.0140  0.0286
 5928TIP3    H139275   6.296   3.155   3.693  0.2233 -0.5986 -1.4822
 5928TIP3    H239276   6.432   3.205   3.737 -0.2990 -1.3101  1.1237
 5929TIP3   OH239277   2.207   3.147  11.713  0.1282  0.5142  0.0409
 5929TIP3    H139278   2.208   3.083  11.643 -1.0848  0.8478 -0.3098
 5929TIP3    H239279   2.254   3.222  11.679  1.0758  0.0268  0.2518
 5930TIP3   OH239280   2.795   4.445  15.528 -0.2599 -0.2373 -0.0145
 5930TIP3    H139281   2.794   4.487  15.614  1.4188  1.1668 -0.6314
 5930TIP3    H239282   2.772   4.354  15.546  1.7785 -0.4078  2.1922
 5931TIP3   OH239283   0.872   4.661   3.192 -0.0013 -0.1072 -0.2779
 5931TIP3    H139284   0.811   4.587   3.184 -1.3349  1.0954 -1.8279
 5931TIP3    H239285   0.958   4.622   3.174 -0.5141 -1.4863  0.0804
 5932TIP3   OH239286   5.076   4.803  15.607 -0.2496 -0.0032  0.0271
 5932TIP3    H139287   4.987   4.815  15.574 -0.0976 -0.8898 -0.7358
 5932TIP3    H239288   5.113   4.892  15.607 -0.5616  0.1623 -1.3517
 5933TIP3   OH239289   6.041   3.989   4.416 -0.8221  0.1428 -0.1275
 5933TIP3    H139290   6.085   3.948   4.491 -0.9977  0.3247  0.0804
 5933TIP3    H239291   6.074   4.079   4.415 -0.8438  0.1490 -0.2479
 5934TIP3   OH239292   5.946   0.927  11.972 -0.0291 -0.3064  0.2915
 5934TIP3    H139293   5.942   1.010  11.924  1.5922 -0.6235 -0.4646
 5934TIP3    H239294   5.977   0.951  12.059  0.5972 -0.1228  0.0240
 5935TIP3   OH239295   1.593   3.923   2.686  0.3842  0.0248  0.1889
 5935TIP3    H139296   1.619   3.831   2.678 -1.3454 -0.5202  0.4703
 5935TIP3    H239297   1.594   3.941   2.780  1.2726  0.4801  0.1014
 5936TIP3   OH239298   3.783   2.788   1.633 -0.0306 -0.4721  0.1486
 5936TIP3    H139299   3.812   2.728   1.564  0.9521 -2.5834  2.2410
 5936TIP3    H239300   3.703   2.748   1.668 -1.4160  1.4086 -0.7253
 5937TIP3   OH239301   4.141   5.761   4.490  0.0558 -0.1381 -0.2550
 5937TIP3    H139302   4.048   5.769   4.466  0.3660 -0.5102 -1.6754
 5937TIP3    H239303   4.158   5.839   4.542 -1.0724 -0.0898  0.0792
 5938TIP3   OH239304   2.124   4.357   3.407  0.6679 -0.6367  0.2449
 5938TIP3    H139305   2.168   4.384   3.326  0.4988 -0.6656  0.1420
 5938TIP3    H239306   2.194   4.352   3.472  0.3559  3.1756  1.0922
 5939TIP3   OH239307   2.280   0.769   5.195 -0.1476 -0.2777 -0.1600
 5939TIP3    H139308   2.316   0.840   5.248  0.0678 -0.5651  0.0834
 5939TIP3    H239309   2.275   0.694   5.255 -0.2246 -0.5102 -0.4521
 5940TIP3   OH239310   3.353   6.613   4.561  0.2273  0.3361 -0.0410
 5940TIP3    H139311   3.343   6.607   4.466  2.3608 -1.5066 -0.2244
 5940TIP3    H239312   3.285   6.556   4.595  0.0442  0.2807 -0.4864
 5941TIP3   OH239313   2.428   4.796  15.865  0.5700 -0.0460  0.0466
 5941TIP3    H139314   2.516   4.762  15.849  0.3915 -0.8018  0.6501
 5941TIP3    H239315   2.369   4.724  15.845  0.0535  0.5537 -0.6627
 5942TIP3   OH239316   6.210   0.138  14.223  0.4031  0.1488  0.2917
 5942TIP3    H139317   6.265   0.138  14.145  0.2661 -0.1670  0.1891
 5942TIP3    H239318   6.196   0.045  14.242  1.7802  0.1934  1.6595
 5943TIP3   OH239319   4.110   6.421   2.364  0.1454  0.2194 -0.1982
 5943TIP3    H139320   4.039   6.481   2.342 -0.0572  0.3590  0.8046
 5943TIP3    H239321   4.085   6.338   2.324  0.0975  0.6108 -1.0097
 5944TIP3   OH239322   6.228   6.256  17.103  0.2775  0.3171  0.4447
 5944TIP3    H139323   6.151   6.304  17.135 -1.7148 -1.6379 -1.0881
 5944TIP3    H239324   6.268   6.315  17.039 -1.7737  0.2409 -0.9884
 5945TIP3   OH239325   2.084   2.216  13.529 -0.2563  0.5111 -0.6697
 5945TIP3    H139326   2.010   2.159  13.547  0.5030 -0.2826  0.0504
 5945TIP3    H239327   2.156   2.156  13.511  0.7751  1.2077  0.9115
 5946TIP3   OH239328   0.563   4.682  15.313 -0.3584  0.3486  0.0065
 5946TIP3    H139329   0.503   4.745  15.353 -0.4832  0.2319  0.0045
 5946TIP3    H239330   0.570   4.612  15.378 -2.1650 -0.8347 -0.9998
 5947TIP3   OH239331   0.697   1.383   2.538 -0.2747 -0.6501  0.5091
 5947TIP3    H139332   0.784   1.344   2.532  1.0079  2.1576 -0.5210
 5947TIP3    H239333   0.692   1.415   2.628  1.0397  1.7783 -0.2067
 5948TIP3   OH239334   6.520   5.813  13.888  0.0150 -0.2613 -0.1549
 5948TIP3    H139335   6.517   5.738  13.828  2.0351 -0.5337  0.0165
 5948TIP3    H239336   6.555   5.885  13.835  0.4163 -0.1113  0.3049
 5949TIP3   OH239337   2.274   4.131  17.316 -0.0188  0.1315 -0.1478
 5949TIP3    H139338   2.362   4.151  17.283 -0.1975  0.4231 -0.4434
 5949TIP3    H239339   2.237   4.070  17.252 -0.1890  0.3300 -0.2359
 5950TIP3   OH239340   5.427   6.739  13.448 -0.1237 -0.3311 -0.0527
 5950TIP3    H139341   5.496   6.741  13.514 -0.6060 -0.5520  0.4644
 5950TIP3    H239342   5.462   6.792  13.376  1.1812 -1.5849 -0.4031
 5951TIP3   OH239343   2.281   6.090   5.308  0.7399 -0.7159 -0.4962
 5951TIP3    H139344   2.198   6.137   5.318  1.0957 -0.3557  1.0581
 5951TIP3    H239345   2.325   6.133   5.236 -0.1390 -0.4847 -0.9074
 5952TIP3   OH239346   4.683   4.905  10.949 -0.7969 -0.0386  0.2773
 5952TIP3    H139347   4.766   4.950  10.961  0.3249 -2.1889  1.1819
 5952TIP3    H239348   4.623   4.972  10.916  1.4650  1.4053 -1.1389
 5953TIP3   OH239349   1.427   5.050  14.157  0.4886 -0.3340  0.1673
 5953TIP3    H139350   1.479   4.978  14.120  0.9170  0.0629 -0.0088
 5953TIP3    H239351   1.392   5.096  14.081  0.1864 -0.3748  0.2818
 5954TIP3   OH239352   1.657   2.956  14.813  0.0778 -0.4735 -0.5570
 5954TIP3    H139353   1.593   2.962  14.884 -1.0131 -1.7081 -1.3688
 5954TIP3    H239354   1.613   2.994  14.737  0.6755 -0.4500 -0.8988
 5955TIP3   OH239355   4.602   1.481   5.162 -0.9490  0.0515  0.0432
 5955TIP3    H139356   4.529   1.454   5.107  0.6649 -1.3390 -1.5149
 5955TIP3    H239357   4.600   1.420   5.236 -1.5460  0.2391  0.1885
 5956TIP3   OH239358   5.838   5.463  14.351 -0.0284  0.2374  0.0193
 5956TIP3    H139359   5.877   5.407  14.283  1.2179 -0.9067  1.5951
 5956TIP3    H239360   5.817   5.545  14.306  2.7138  0.3116 -1.3465
 5957TIP3   OH239361   2.339   6.449  16.650 -1.1927 -0.2567 -0.1759
 5957TIP3    H139362   2.343   6.354  16.643 -2.7039 -0.3377 -0.2603
 5957TIP3    H239363   2.399   6.471  16.721 -0.4181 -1.2171 -0.5131
 5958TIP3   OH239364   0.048   3.330   0.203 -0.5645  0.0759  0.7546
 5958TIP3    H139365  -0.003   3.355   0.281 -2.3937 -1.9945  0.3273
 5958TIP3    H239366   0.067   3.237   0.217 -2.2816 -0.7854 -1.8913
 5959TIP3   OH239367   4.765   2.452   2.464 -0.3657 -0.8033 -0.1431
 5959TIP3    H139368   4.791   2.406   2.384  1.0744 -1.1764  0.5050
 5959TIP3    H239369   4.773   2.387   2.533 -3.6517 -1.1214  0.1192
 5960TIP3   OH239370   6.040   2.239  16.079  0.4094  0.1039 -0.4647
 5960TIP3    H139371   5.984   2.255  16.004 -1.5577 -0.1030  0.8915
 5960TIP3    H239372   6.024   2.312  16.139 -1.5005 -1.8757  1.6489
 5961TIP3   OH239373   5.591   4.458  14.449  0.0993  0.5762 -0.1984
 5961TIP3    H139374   5.671   4.405  14.443 -0.4534 -0.1620 -1.2149
 5961TIP3    H239375   5.559   4.442  14.538 -1.1349 -2.4261 -1.0874
 5962TIP3   OH239376   6.372   6.733   3.414 -0.4769 -0.3613 -0.3125
 5962TIP3    H139377   6.432   6.716   3.486 -0.0526 -0.2960 -0.6473
 5962TIP3    H239378   6.285   6.713   3.450 -0.1532 -1.6551 -0.1806
 5963TIP3   OH239379   0.418   0.414  15.857 -0.3502 -0.0607 -0.2541
 5963TIP3    H139380   0.457   0.492  15.896 -0.5978 -0.5470  1.0160
 5963TIP3    H239381   0.433   0.345  15.922  0.9530 -1.3776 -1.8682
 5964TIP3   OH239382   0.942   3.078  15.011 -0.0426  0.3650  0.0672
 5964TIP3    H139383   0.953   3.008  14.947 -0.6685  0.1604  0.1730
 5964TIP3    H239384   1.026   3.124  15.011  0.5158 -0.6169  0.2766
 5965TIP3   OH239385   5.198   2.470  11.428 -1.1963 -0.0756  0.2153
 5965TIP3    H139386   5.228   2.379  11.425 -0.8938  0.0510 -0.7397
 5965TIP3    H239387   5.269   2.520  11.388 -1.0741  0.6670  1.3210
 5966TIP3   OH239388   6.006   3.164  14.089 -0.0013 -0.0568  0.9886
 5966TIP3    H139389   6.029   3.242  14.038 -0.5496 -0.3337  0.2965
 5966TIP3    H239390   5.969   3.198  14.170  1.3391  0.3969  1.4411
 5967TIP3   OH239391   4.802   1.019  16.615  0.2382  0.3031 -0.0223
 5967TIP3    H139392   4.880   1.073  16.605 -1.0786  2.6502  1.4357
 5967TIP3    H239393   4.794   1.006  16.710  0.0161 -1.8238 -0.2710
 5968TIP3   OH239394   6.647   5.732   3.682 -0.9054 -0.1374  1.0239
 5968TIP3    H139395   6.647   5.654   3.737 -2.1864  0.5726  2.1069
 5968TIP3    H239396   6.558   5.735   3.646 -0.1210 -0.5637 -1.1198
 5969TIP3   OH239397   5.518   2.918  13.090  0.6811  0.1874 -0.3277
 5969TIP3    H139398   5.480   2.938  13.176  2.4344  0.3050  0.4557
 5969TIP3    H239399   5.497   2.994  13.036  0.7752  0.7524  0.4149
 5970TIP3   OH239400   3.535   1.398   0.017 -0.4409 -0.4085  0.1475
 5970TIP3    H139401   3.572   1.361   0.097  1.9028 -1.3103 -1.2378
 5970TIP3    H239402   3.515   1.489   0.039  0.1913 -0.6228  1.7194
 5971TIP3   OH239403   5.062   0.453  13.972 -0.3076  0.5401  0.0395
 5971TIP3    H139404   5.144   0.502  13.962  0.1438 -0.4975 -1.7815
 5971TIP3    H239405   5.053   0.441  14.066  1.1778  1.4365  0.3395
 5972TIP3   OH239406   4.797   2.696  11.629 -0.0003 -0.0060  0.6267
 5972TIP3    H139407   4.864   2.763  11.614 -0.3795  0.2730  0.1221
 5972TIP3    H239408   4.828   2.621  11.579  0.0585  0.0442  0.5866
 5973TIP3   OH239409   2.214   5.805  14.061  0.1645  0.6513  0.3492
 5973TIP3    H139410   2.190   5.892  14.094  3.2639  1.2018  1.5493
 5973TIP3    H239411   2.161   5.744  14.112  1.0228  1.7220  2.6604
 5974TIP3   OH239412   1.548   5.142   4.769  0.3315  0.0415 -0.2584
 5974TIP3    H139413   1.496   5.128   4.848  2.2545  1.5009  1.3763
 5974TIP3    H239414   1.499   5.209   4.720 -1.9347 -2.2951 -1.4721
 5975TIP3   OH239415   2.239   5.182   5.834  0.2036  0.3345 -0.2081
 5975TIP3    H139416   2.259   5.091   5.854  0.0533  0.7358  2.0514
 5975TIP3    H239417   2.280   5.197   5.749  1.6087 -1.4002  0.0892
 5976TIP3   OH239418   3.334   1.183  11.723 -0.5818  0.3042 -0.1749
 5976TIP3    H139419   3.285   1.102  11.708 -0.5388  0.2375  0.0460
 5976TIP3    H239420   3.418   1.154  11.759  0.4338  0.2776 -2.4203
 5977TIP3   OH239421   3.898   3.556  13.113  0.6799 -0.0711 -0.2705
 5977TIP3    H139422   3.923   3.514  13.030  0.6409  0.6363 -0.6544
 5977TIP3    H239423   3.946   3.639  13.112  0.3125  0.1486  0.1991
 5978TIP3   OH239424   4.252   2.117  13.099 -0.5668 -0.4451 -0.4813
 5978TIP3    H139425   4.234   2.142  13.189  0.0580 -0.4584 -0.3483
 5978TIP3    H239426   4.236   2.197  13.049 -2.0134 -0.7312 -0.5168
 5979TIP3   OH239427   4.562   4.137  15.120  0.2340  0.2059  0.3049
 5979TIP3    H139428   4.534   4.126  15.029  0.2649  1.4047  0.1374
 5979TIP3    H239429   4.652   4.169  15.114  0.2717  0.1965  0.7648
 5980TIP3   OH239430   0.608   3.152  13.642 -0.6559 -0.0277  0.0335
 5980TIP3    H139431   0.536   3.096  13.670 -0.9507 -0.5430 -1.6456
 5980TIP3    H239432   0.683   3.092  13.636 -0.6558  0.0210 -0.4866
 5981TIP3   OH239433   1.002   5.435   3.872  0.1298 -0.0946  0.3084
 5981TIP3    H139434   0.916   5.469   3.847  0.7222  1.2223 -0.0166
 5981TIP3    H239435   0.995   5.420   3.966 -1.2706 -2.5477 -0.0874
 5982TIP3   OH239436   3.670   2.601  17.344  0.0553  0.4334  0.1223
 5982TIP3    H139437   3.698   2.687  17.313  1.8195  0.5857  1.9664
 5982TIP3    H239438   3.750   2.548  17.342 -0.8395 -0.9617 -0.2230
 5983TIP3   OH239439   4.455   4.057   1.215  0.2369  0.1628 -0.1364
 5983TIP3    H139440   4.548   4.045   1.195 -0.0573  0.4875 -1.8453
 5983TIP3    H239441   4.454   4.084   1.307  1.7371 -0.9070  0.2386
 5984TIP3   OH239442   2.511   0.817   2.182 -0.9983 -0.1605 -0.3740
 5984TIP3    H139443   2.508   0.800   2.277 -1.4456 -0.6672 -0.4752
 5984TIP3    H239444   2.424   0.849   2.160 -0.9917 -0.3384 -0.6663
 5985TIP3   OH239445   0.028   3.329  15.046  0.0721 -0.2316  0.6250
 5985TIP3    H139446   0.101   3.338  14.985 -0.2568 -0.4831  0.1848
 5985TIP3    H239447   0.052   3.382  15.122 -0.7951  2.5125 -0.8813
 5986TIP3   OH239448   4.464   5.477   5.205  0.8480  0.3594  0.0135
 5986TIP3    H139449   4.454   5.525   5.123  2.4692  0.7341  0.0018
 5986TIP3    H239450   4.530   5.526   5.253  0.0427  0.0451  1.4952
 5987TIP3   OH239451   1.260   1.039   3.327 -0.4556  0.2053  0.0294
 5987TIP3    H139452   1.286   1.100   3.396  2.2718 -0.7539 -0.0649
 5987TIP3    H239453   1.342   1.003   3.294 -1.8210 -1.1295 -2.1295
 5988TIP3   OH239454   2.410   5.880   6.012 -0.2723 -0.5167 -0.0834
 5988TIP3    H139455   2.394   5.852   6.102  0.7544 -2.8733 -0.5486
 5988TIP3    H239456   2.466   5.812   5.976  0.4120  1.0392 -2.1424
 5989TIP3   OH239457   4.030   2.725   1.048  0.3534  0.0565  0.0002
 5989TIP3    H139458   3.968   2.798   1.047  1.2331  0.8143 -1.2064
 5989TIP3    H239459   4.116   2.766   1.046  0.9045 -1.0030  0.6239
 5990TIP3   OH239460   4.514   5.501  16.708  0.6540 -0.2615 -0.4877
 5990TIP3    H139461   4.512   5.596  16.719  0.0577 -0.3169 -0.0813
 5990TIP3    H239462   4.552   5.489  16.621 -0.4688  0.4132 -1.1160
 5991TIP3   OH239463   2.078   6.091   5.589 -0.1533  0.1989  0.3404
 5991TIP3    H139464   2.025   6.117   5.514  0.0633  1.0047  0.4595
 5991TIP3    H239465   2.073   5.995   5.590  0.1299  0.1488 -0.9164
 5992TIP3   OH239466   2.572   2.778   4.276 -0.6373  0.0679  0.8728
 5992TIP3    H139467   2.665   2.759   4.293 -0.7429 -0.0432  1.3339
 5992TIP3    H239468   2.540   2.701   4.229 -0.1957  0.6338 -0.4271
 5993TIP3   OH239469   6.370   3.920  13.418  0.6847 -0.0851 -1.1091
 5993TIP3    H139470   6.346   3.851  13.479  0.7071 -0.6508 -1.7241
 5993TIP3    H239471   6.465   3.912  13.408  0.9616  1.1976  0.1866
 5994TIP3   OH239472   5.335   3.901  12.351  0.2017 -0.2328 -0.4903
 5994TIP3    H139473   5.321   3.899  12.256 -1.9268 -0.6070 -0.2231
 5994TIP3    H239474   5.259   3.949  12.385  1.0690  0.1104  1.0116
 5995TIP3   OH239475   3.367   4.931   5.675 -0.5076 -0.0208  0.2936
 5995TIP3    H139476   3.302   4.971   5.732 -0.4603 -2.2074  2.0397
 5995TIP3    H239477   3.435   4.900   5.734  1.2324  0.5358 -1.3137
 5996TIP3   OH239478   3.891   0.282   3.360 -0.2876 -0.0369 -0.3326
 5996TIP3    H139479   3.816   0.221   3.355 -0.6817  0.4485 -0.4017
 5996TIP3    H239480   3.945   0.259   3.285  0.0201 -0.8902  0.1283
 5997TIP3   OH239481   5.592   3.948  13.997 -0.2847  0.1771 -0.2527
 5997TIP3    H139482   5.646   3.879  13.958  0.9676  0.8911  0.1815
 5997TIP3    H239483   5.583   3.922  14.089 -1.9027 -0.6704 -0.6108
 5998TIP3   OH239484   5.438   1.993   3.881 -0.7505  0.1744  0.5359
 5998TIP3    H139485   5.424   1.910   3.837 -0.8234  0.2372  0.4416
 5998TIP3    H239486   5.431   2.059   3.812 -1.4825  0.3207  0.7463
 5999TIP3   OH239487   0.088   5.073   4.217 -0.0093  0.3104  0.4942
 5999TIP3    H139488   0.056   4.984   4.202  1.4689 -0.2731  0.5990
 5999TIP3    H239489   0.094   5.112   4.130  0.1013  0.0330  0.3779
 6000TIP3   OH239490   3.268   0.177  13.915 -0.5836  0.0124  0.1413
 6000TIP3    H139491   3.201   0.219  13.861 -0.4277  0.2925  0.1620
 6000TIP3    H239492   3.219   0.132  13.984 -0.8217 -0.9610 -0.6481
 6001TIP3   OH239493   6.322   5.441   5.205  0.5226  0.0994 -0.0495
 6001TIP3    H139494   6.310   5.508   5.138  0.0604  2.0530  1.8581
 6001TIP3    H239495   6.299   5.359   5.162  0.3506  1.2442 -2.2733
 6002TIP3   OH239496   4.679   4.071  15.624 -0.0762  0.5223 -0.2753
 6002TIP3    H139497   4.596   4.072  15.576  1.3099  0.9489 -2.8839
 6002TIP3    H239498   4.656   4.040  15.711 -2.6598 -1.4620 -1.5058
 6003TIP3   OH239499   3.458   1.913   2.559  0.3579  0.7037  0.2612
 6003TIP3    H139500   3.431   1.848   2.494 -0.4989  0.4386  0.8774
 6003TIP3    H239501   3.551   1.927   2.541  0.2227  0.3657 -0.7852
 6004TIP3   OH239502   6.168   0.084   6.805 -0.3112 -0.1839  0.0248
 6004TIP3    H139503   6.221   0.144   6.858 -0.1198  0.1609 -0.5555
 6004TIP3    H239504   6.082   0.085   6.847  0.0773 -0.6057  0.8645
 6005TIP3   OH239505   1.915   5.005   2.147 -0.2423 -0.2319 -0.8195
 6005TIP3    H139506   1.829   5.014   2.187  0.4202 -0.6270  0.7757
 6005TIP3    H239507   1.959   5.088   2.165  0.6587 -1.0315  0.8258
 6006TIP3   OH239508   3.626   3.484   0.813 -0.2930  0.2820  0.3422
 6006TIP3    H139509   3.662   3.433   0.886 -1.1269  0.1923  0.7065
 6006TIP3    H239510   3.696   3.545   0.790 -0.5658  1.4286  2.3239
 6007TIP3   OH239511   4.610   5.922   2.996  0.5543 -0.1010  0.6089
 6007TIP3    H139512   4.627   6.016   2.993  3.2341 -0.3846  3.0465
 6007TIP3    H239513   4.535   5.912   3.054 -0.8886  0.5509 -1.0581
 6008TIP3   OH239514   6.000   3.463   6.531 -0.0545  0.3173 -0.5876
 6008TIP3    H139515   6.008   3.557   6.548 -0.4855  0.2604 -0.0363
 6008TIP3    H239516   6.084   3.427   6.559 -0.9179  0.1520  2.1057
 6009TIP3   OH239517   0.452   6.729   1.555  0.8645  0.3120 -0.1399
 6009TIP3    H139518   0.525   6.739   1.493  0.9883  0.1980 -0.0137
 6009TIP3    H239519   0.374   6.726   1.499  1.2059 -3.5408 -0.6857
 6010TIP3   OH239520   4.988   4.902   4.658  0.5317 -0.3044 -0.2039
 6010TIP3    H139521   4.985   4.814   4.693 -0.7441  0.8790  3.0612
 6010TIP3    H239522   5.080   4.928   4.663  0.8580 -1.2831 -0.8874
 6011TIP3   OH239523   4.256   5.424  14.046 -0.2187  0.1659 -0.3273
 6011TIP3    H139524   4.241   5.455  13.957  0.1534 -0.1994 -0.5180
 6011TIP3    H239525   4.196   5.350  14.056  0.1441 -0.1525 -0.4723
 6012TIP3   OH239526   5.153   1.801  15.737  0.0418 -0.2196  0.1482
 6012TIP3    H139527   5.235   1.834  15.775  0.7304 -0.0936 -1.3524
 6012TIP3    H239528   5.163   1.706  15.738  0.5982 -0.1882 -0.7820
 6013TIP3   OH239529   2.201   1.001   5.997 -0.0108 -0.1329 -0.2763
 6013TIP3    H139530   2.239   0.972   6.080  2.8399 -3.9634 -2.5973
 6013TIP3    H239531   2.123   0.946   5.986 -1.4923  1.6812  0.5492
 6014TIP3   OH239532   3.242   6.515   5.337 -0.1166  0.0084  0.2913
 6014TIP3    H139533   3.210   6.459   5.408  2.3284  2.1628  3.3978
 6014TIP3    H239534   3.283   6.455   5.275 -0.2572 -1.8424  1.8996
 6015TIP3   OH239535   5.294   4.403  14.393 -0.0810  0.4925 -0.3577
 6015TIP3    H139536   5.313   4.495  14.412 -0.6842  0.3345  1.0821
 6015TIP3    H239537   5.378   4.367  14.365  0.5886  1.0397  0.8881
 6016TIP3   OH239538   0.854   4.742  15.102  0.3949  0.8351  0.3289
 6016TIP3    H139539   0.761   4.742  15.122  0.4793  0.8168  0.7342
 6016TIP3    H239540   0.887   4.823  15.142  0.3079  1.5322 -0.9775
 6017TIP3   OH239541   0.544   4.796  15.691  0.0669  0.0947 -0.0578
 6017TIP3    H139542   0.536   4.715  15.641 -2.1426 -0.3346  0.8631
 6017TIP3    H239543   0.598   4.771  15.767 -0.2189 -0.3980 -0.0114
 6018TIP3   OH239544   3.609   1.542   1.924 -0.1362 -0.0013 -0.2707
 6018TIP3    H139545   3.566   1.476   1.869  1.7642 -1.2950 -0.3145
 6018TIP3    H239546   3.581   1.626   1.887 -2.5277 -0.7314 -0.2900
 6019TIP3   OH239547   6.555   4.503   2.013  0.2331  0.1945  0.1428
 6019TIP3    H139548   6.589   4.584   1.975  0.5331 -0.4199 -0.9547
 6019TIP3    H239549   6.633   4.455   2.041  0.0628  0.2477  0.7045
 6020TIP3   OH239550   4.634   5.661  13.073 -0.5797  0.2429 -0.0991
 6020TIP3    H139551   4.725   5.690  13.077 -0.7695  1.2479 -2.0397
 6020TIP3    H239552   4.633   5.579  13.123  1.7050 -0.5805 -1.2556
 6021TIP3   OH239553   6.499   4.566   5.403 -0.2917 -0.4261 -0.0730
 6021TIP3    H139554   6.438   4.535   5.336  0.1558  1.3189 -1.3611
 6021TIP3    H239555   6.569   4.608   5.354 -0.1732  1.3398  1.4893
 6022TIP3   OH239556   0.325   4.041  14.723 -0.1058 -0.2634  0.0877
 6022TIP3    H139557   0.316   4.078  14.635 -1.7031 -0.4064  0.1530
 6022TIP3    H239558   0.402   4.084  14.760  0.5644 -0.1624 -1.3457
 6023TIP3   OH239559   2.060   3.801  14.636 -0.6255 -0.5802 -0.2005
 6023TIP3    H139560   2.058   3.852  14.717 -0.4830 -0.9157  0.0155
 6023TIP3    H239561   2.133   3.838  14.586 -0.8866 -0.1904 -0.2977
 6024TIP3   OH239562   6.454   1.798  13.439  0.1881 -0.7974  0.2311
 6024TIP3    H139563   6.471   1.763  13.527 -1.5921 -0.4758  0.7456
 6024TIP3    H239564   6.535   1.782  13.391  0.9319 -1.6929  1.6983
 6025TIP3   OH239565   0.283   6.239  11.337 -0.4839  0.2579 -0.1289
 6025TIP3    H139566   0.316   6.184  11.266  0.2373 -0.5019  0.7675
 6025TIP3    H239567   0.216   6.185  11.380  0.1038  0.1357  0.6500
 6026TIP3   OH239568   4.145   6.101   2.471 -0.3774 -0.4333  0.0060
 6026TIP3    H139569   4.204   6.038   2.430  0.4656  0.2891  0.0927
 6026TIP3    H239570   4.182   6.115   2.558 -0.3270  0.4835 -0.1555
 6027TIP3   OH239571   0.947   2.455   5.046  0.4479  0.1359  0.0341
 6027TIP3    H139572   0.970   2.422   4.959 -1.0287 -0.9079 -0.0040
 6027TIP3    H239573   0.963   2.381   5.105 -0.9249  0.0000  0.2636
 6028TIP3   OH239574   2.932   5.321   4.085 -0.3126 -0.2691  0.6138
 6028TIP3    H139575   2.930   5.340   4.178 -1.8173 -0.9775  0.7489
 6028TIP3    H239576   2.981   5.239   4.078  0.9292  0.4394  0.6194
 6029TIP3   OH239577   5.834   5.182   3.467  0.0444 -0.1549  0.9115
 6029TIP3    H139578   5.919   5.225   3.469  0.0467  0.0885 -1.3280
 6029TIP3    H239579   5.820   5.151   3.556  1.6856  1.3031  1.7368
 6030TIP3   OH239580   0.032   6.345   0.751 -0.1384  0.5803  0.3767
 6030TIP3    H139581   0.123   6.333   0.723 -0.5960 -0.3855 -0.7839
 6030TIP3    H239582   0.020   6.281   0.822 -0.1251  0.1793  0.0194
 6031TIP3   OH239583   0.476   5.275   1.030 -0.1369  0.2356 -0.1120
 6031TIP3    H139584   0.563   5.239   1.049 -0.3833  0.0044  0.6236
 6031TIP3    H239585   0.450   5.232   0.949  0.1245 -0.2599  0.0593
 6032TIP3   OH239586   3.157   2.736  12.574  0.5299 -0.4967  0.1102
 6032TIP3    H139587   3.187   2.647  12.554 -0.2513 -0.9512  0.8552
 6032TIP3    H239588   3.236   2.782  12.603  0.7670 -1.2786  0.7775
 6033TIP3   OH239589   4.675   4.347  10.951 -0.2728 -0.5322  0.2495
 6033TIP3    H139590   4.580   4.353  10.949 -0.2645 -0.4370  0.1286
 6033TIP3    H239591   4.694   4.255  10.967 -0.3611 -1.0145 -2.1031
 6034TIP3   OH239592   6.706   1.233   3.607 -0.3214 -0.1186  0.4002
 6034TIP3    H139593   6.625   1.191   3.638 -0.3015 -0.7054 -0.3384
 6034TIP3    H239594   6.759   1.243   3.686 -0.9848 -0.0042  0.8453
 6035TIP3   OH239595   3.343   5.139  12.898  0.2283 -0.0410 -0.1382
 6035TIP3    H139596   3.385   5.053  12.894  2.5029  1.0021 -0.2919
 6035TIP3    H239597   3.323   5.151  12.991 -0.6770 -0.9670 -0.1963
 6036TIP3   OH239598   6.717   3.782  12.358  0.6683  0.4879 -0.4343
 6036TIP3    H139599   6.754   3.809  12.273 -0.0037 -1.7100 -1.5085
 6036TIP3    H239600   6.625   3.765  12.339 -0.5274  3.7072  1.6987
 6037TIP3   OH239601   6.452   0.894  12.080  0.1883 -0.6612 -0.1416
 6037TIP3    H139602   6.402   0.956  12.133 -0.9905 -1.1165 -0.6843
 6037TIP3    H239603   6.392   0.869  12.010  1.1898 -1.2380 -0.8155
 6038TIP3   OH239604   0.975   4.470  15.969 -0.2853 -0.0215 -0.9701
 6038TIP3    H139605   0.920   4.412  15.916  0.1426 -0.8194 -0.5574
 6038TIP3    H239606   1.060   4.471  15.923 -0.1441 -0.1060 -0.7134
 6039TIP3   OH239607   1.506   4.306  16.499  0.1527  0.2199 -0.3752
 6039TIP3    H139608   1.481   4.342  16.583  0.6213 -0.5644  0.1151
 6039TIP3    H239609   1.591   4.263  16.515  0.6081  0.6911 -1.4127
 6040TIP3   OH239610   6.314   4.620   0.394 -0.2288 -0.1513 -0.1876
 6040TIP3    H139611   6.245   4.559   0.422 -1.5545  0.5707 -1.6647
 6040TIP3    H239612   6.393   4.566   0.387 -1.3972 -1.8162 -1.6798
 6041TIP3   OH239613   3.545   6.053   0.309 -0.2409  0.4053  0.8391
 6041TIP3    H139614   3.466   6.020   0.352 -0.5791  1.6408  1.1771
 6041TIP3    H239615   3.597   6.093   0.378 -0.3976  1.6569  0.2550
 6042TIP3   OH239616   1.919   3.085   0.140  0.3957  0.3515 -0.3866
 6042TIP3    H139617   1.849   3.021   0.156 -0.4031  1.8384  3.0216
 6042TIP3    H239618   1.897   3.123   0.055 -0.7821 -1.7730 -1.1318
 6043TIP3   OH239619   5.291   5.135  16.248 -0.3777 -0.1002  0.2342
 6043TIP3    H139620   5.373   5.166  16.285 -0.6252 -0.8131  1.4444
 6043TIP3    H239621   5.298   5.152  16.154  0.8530  0.4906  0.4241
 6044TIP3   OH239622   2.630   6.342  11.684  0.2261  0.3828 -0.3290
 6044TIP3    H139623   2.576   6.421  11.678 -0.0986  0.1552 -0.4210
 6044TIP3    H239624   2.570   6.270  11.665  0.7275  0.1830 -1.2551
 6045TIP3   OH239625   1.931   3.369  17.051 -0.3250  0.4046 -0.4593
 6045TIP3    H139626   1.937   3.280  17.085 -0.1407  1.0962  1.4408
 6045TIP3    H239627   1.948   3.425  17.127 -0.6319  2.0695 -1.5622
 6046TIP3   OH239628   0.951   6.201  12.659 -0.5029 -0.0187 -0.1988
 6046TIP3    H139629   0.904   6.157  12.730 -0.2573  0.2138  0.1104
 6046TIP3    H239630   0.888   6.266  12.626 -0.5090  0.0816  0.0087
 6047TIP3   OH239631   6.242   2.562  16.825  0.4259  0.1971 -0.4222
 6047TIP3    H139632   6.325   2.542  16.782  0.8082 -0.7490  0.6713
 6047TIP3    H239633   6.201   2.629  16.771  0.1766 -1.9277 -3.1081
 6048TIP3   OH239634   4.072   0.021   4.914 -0.2261  0.0112 -0.2816
 6048TIP3    H139635   3.996   0.037   4.970 -1.1900 -1.1806 -1.1721
 6048TIP3    H239636   4.100   0.108   4.886 -1.2289  0.4873  0.1290
 6049TIP3   OH239637   6.271   3.369  17.172  0.2037 -0.1547 -0.0198
 6049TIP3    H139638   6.284   3.315  17.250 -2.4188 -0.5946  0.2045
 6049TIP3    H239639   6.352   3.360  17.123  1.1349 -1.5555  1.6473
 6050TIP3   OH239640   3.603   2.598   1.434  0.4643  1.0565  0.7044
 6050TIP3    H139641   3.625   2.507   1.413 -0.0971  1.1461 -0.2989
 6050TIP3    H239642   3.596   2.599   1.530  1.5795  0.3034  0.8115
 6051TIP3   OH239643   5.570   0.057   4.790  0.3055  0.7790 -0.2603
 6051TIP3    H139644   5.658   0.025   4.769 -0.6928 -1.9299 -0.7308
 6051TIP3    H239645   5.511  -0.008   4.752 -1.9643  2.8586 -0.5659
 6052TIP3   OH239646   3.168   0.238  13.075  0.4978 -0.5227  0.3493
 6052TIP3    H139647   3.080   0.276  13.075  0.2897 -0.9870  1.3406
 6052TIP3    H239648   3.203   0.259  13.162  2.3405  1.8612 -0.8470
 6053TIP3   OH239649   2.767   1.432   5.053  0.4136  0.0573  0.3636
 6053TIP3    H139650   2.760   1.523   5.081  0.8450 -0.0719  0.9035
 6053TIP3    H239651   2.721   1.382   5.121 -0.7749 -0.0483 -0.4803
 6054TIP3   OH239652   2.811   1.132   2.939 -0.0465  0.0803 -0.4041
 6054TIP3    H139653   2.896   1.089   2.930  0.6268  0.7141  2.2435
 6054TIP3    H239654   2.819   1.211   2.885  0.4404 -0.6435 -1.4339
 6055TIP3   OH239655   6.338   6.436  11.898  0.1710  0.1046 -0.5874
 6055TIP3    H139656   6.250   6.400  11.910  0.2960 -0.4612 -1.3250
 6055TIP3    H239657   6.391   6.392  11.964 -0.0925  0.4612 -0.1266
 6056TIP3   OH239658   1.418   0.538   1.061  0.1829 -0.2787  0.1569
 6056TIP3    H139659   1.447   0.621   1.023  1.4984 -2.0174 -2.9574
 6056TIP3    H239660   1.323   0.548   1.069  0.2028  1.2231 -0.9513
 6057TIP3   OH239661   0.451   0.347   0.858  0.2949  0.3749 -0.3960
 6057TIP3    H139662   0.428   0.283   0.790  0.7894  0.2497 -0.4454
 6057TIP3    H239663   0.420   0.308   0.939  1.0452 -0.1630 -0.3592
 6058TIP3   OH239664   4.943   4.765   5.107  0.6531 -0.0648 -0.2773
 6058TIP3    H139665   4.959   4.859   5.111  0.7088 -0.0767 -0.2415
 6058TIP3    H239666   5.029   4.726   5.098  0.7454 -0.1961  0.9972
 6059TIP3   OH239667   0.880   6.496  14.007 -0.0380 -0.0594  0.0894
 6059TIP3    H139668   0.824   6.573  14.013  1.0500  0.7468  0.3238
 6059TIP3    H239669   0.969   6.531  14.015  0.4713 -1.3591  0.3471
 6060TIP3   OH239670   2.190   5.627  13.059  0.0725 -0.5959  0.0377
 6060TIP3    H139671   2.160   5.677  12.983  1.4623  1.2573  0.6068
 6060TIP3    H239672   2.245   5.558  13.022 -1.2233 -1.2272 -0.7413
 6061TIP3   OH239673   5.064   5.282  13.124 -0.3290 -0.4453  0.4026
 6061TIP3    H139674   5.113   5.279  13.042  0.4360 -0.5296  0.8465
 6061TIP3    H239675   5.114   5.343  13.179 -2.4368  1.9929 -0.1847
 6062TIP3   OH239676   1.072   5.661  17.175 -0.2083  0.0012 -0.3443
 6062TIP3    H139677   0.984   5.675  17.140 -1.2313 -0.4744  1.8321
 6062TIP3    H239678   1.131   5.698  17.109 -2.1007  1.6920 -1.1857
 6063TIP3   OH239679   5.580   0.654   3.354 -0.7144 -0.1003  0.1523
 6063TIP3    H139680   5.485   0.660   3.362 -0.5013  1.3032  2.3732
 6063TIP3    H239681   5.613   0.729   3.403  1.5447  0.2303 -1.7138
 6064TIP3   OH239682   6.505   6.490  13.418  0.1070  0.7663  0.0359
 6064TIP3    H139683   6.555   6.570  13.428  0.3547  0.5218  0.8692
 6064TIP3    H239684   6.437   6.496  13.485 -1.0692  1.1489 -1.1553
 6065TIP3   OH239685   2.103   0.441  16.914  0.0389  0.0478 -0.3780
 6065TIP3    H139686   2.077   0.459  16.823 -2.2565 -1.3158 -0.0698
 6065TIP3    H239687   2.033   0.478  16.967  1.1597  0.4895  0.8453
 6066TIP3   OH239688   3.676   2.400   6.722  0.0427 -0.2139 -0.0476
 6066TIP3    H139689   3.692   2.493   6.741 -0.3059 -0.2806  0.5775
 6066TIP3    H239690   3.763   2.365   6.700  0.3720 -0.0058  0.8835
 6067TIP3   OH239691   3.120   4.806   2.973 -0.0938  0.1997 -0.0063
 6067TIP3    H139692   3.090   4.834   3.059 -1.4079 -1.2417  0.0529
 6067TIP3    H239693   3.117   4.885   2.919  0.8386  1.1305  1.2723
 6068TIP3   OH239694   3.029   5.219   6.255  0.0389 -0.3183 -0.6476
 6068TIP3    H139695   3.001   5.216   6.347 -1.7154 -2.3963 -1.1858
 6068TIP3    H239696   3.115   5.263   6.259  0.9211 -1.9783  2.2353
 6069TIP3   OH239697   0.968   5.138  15.461  0.0592  0.1793 -0.0806
 6069TIP3    H139698   1.064   5.144  15.468 -0.0154  1.1074  0.1816
 6069TIP3    H239699   0.950   5.045  15.475  0.8734  0.0908  0.4845
 6070TIP3   OH239700   4.235   4.892   4.168  0.0943  0.1510  0.0704
 6070TIP3    H139701   4.148   4.918   4.137 -0.9523 -1.3856  1.5537
 6070TIP3    H239702   4.225   4.801   4.196  2.6532 -0.6864 -1.4032
 6071TIP3   OH239703   0.318   2.324   0.852  0.0274 -0.3982  0.2039
 6071TIP3    H139704   0.351   2.235   0.846 -0.2284 -0.6339  1.8243
 6071TIP3    H239705   0.294   2.347   0.762 -0.3938 -2.1506 -0.1692
 6072TIP3   OH239706   6.606   2.485   4.488  0.3533 -0.5966 -0.5207
 6072TIP3    H139707   6.629   2.566   4.532  0.9750 -1.0992  0.1106
 6072TIP3    H239708   6.534   2.508   4.429  0.2543  0.3130 -0.0468
 6073TIP3   OH239709   5.978   3.654  11.825  0.4638  0.1046  0.0983
 6073TIP3    H139710   5.908   3.599  11.791 -0.2618  0.2937  1.2124
 6073TIP3    H239711   6.022   3.689  11.747 -0.5403 -0.1942 -0.6192
 6074TIP3   OH239712   0.030   0.070   3.356  0.2451 -0.2822 -0.4324
 6074TIP3    H139713  -0.015   0.129   3.295  1.1626  0.4817 -0.3964
 6074TIP3    H239714   0.076   0.008   3.300 -0.2159 -0.5901 -0.4789
 6075TIP3   OH239715   2.608   1.420   2.171  0.2969 -0.3416  0.5140
 6075TIP3    H139716   2.685   1.405   2.226  1.1286 -0.3923 -0.6222
 6075TIP3    H239717   2.644   1.453   2.089 -1.0314  1.3406  0.5714
 6076TIP3   OH239718   5.727   5.084   2.094 -0.0760  0.4183  0.3553
 6076TIP3    H139719   5.671   5.127   2.158  0.1499  0.1836  0.7164
 6076TIP3    H239720   5.814   5.121   2.110  0.4940 -1.4023  1.8663
 6077TIP3   OH239721   2.303   4.375  11.090  0.1776 -0.0271  0.4970
 6077TIP3    H139722   2.334   4.285  11.090  0.3170  0.0209  0.5179
 6077TIP3    H239723   2.220   4.372  11.138 -0.9138 -0.5178 -1.3036
 6078TIP3   OH239724   6.109   3.207   3.758 -0.2111  0.4799 -0.5764
 6078TIP3    H139725   6.084   3.189   3.849 -1.0951  1.3820 -0.6225
 6078TIP3    H239726   6.040   3.266   3.726  1.0111  1.5731 -1.2894
 6079TIP3   OH239727   3.941   6.140  12.989 -0.3319  0.2738 -0.0915
 6079TIP3    H139728   3.896   6.075  12.936  0.8854  1.3139 -2.5935
 6079TIP3    H239729   3.892   6.221  12.975 -1.5312  0.1093  2.5779
 6080TIP3   OH239730   4.625   3.948  13.733 -1.0069  0.5959  0.0625
 6080TIP3    H139731   4.583   3.954  13.819 -1.7728  0.3103 -0.2764
 6080TIP3    H239732   4.557   3.976  13.671 -0.0907  1.9353 -0.3645
 6081TIP3   OH239733   3.084   4.642  16.076  0.2990  0.6752 -0.0768
 6081TIP3    H139734   3.161   4.663  16.023  0.3241 -0.8179 -0.6845
 6081TIP3    H239735   3.021   4.711  16.055  0.2967  0.1343 -2.0998
 6082TIP3   OH239736   1.944   1.090   0.008 -0.2331 -0.1118  0.4885
 6082TIP3    H139737   1.879   1.082   0.077 -0.0488 -1.8412  0.4916
 6082TIP3    H239738   2.027   1.066   0.050  0.0046 -0.4085 -0.1401
 6083TIP3   OH239739   3.240   3.425   5.381 -0.3609  0.3612 -0.4138
 6083TIP3    H139740   3.279   3.347   5.421 -2.4519  0.5353  2.2323
 6083TIP3    H239741   3.263   3.497   5.441 -1.9214  0.9976 -0.5209
 6084TIP3   OH239742   5.340   5.769   1.160  0.4015 -0.5592 -0.2578
 6084TIP3    H139743   5.423   5.747   1.118  1.2860 -0.5592  1.3979
 6084TIP3    H239744   5.355   5.752   1.253 -1.3064 -0.0885  0.1415
 6085TIP3   OH239745   0.991   1.384  14.005  0.4729 -0.4591  0.1230
 6085TIP3    H139746   0.988   1.329  14.084  0.6904  0.5862  0.8765
 6085TIP3    H239747   1.029   1.327  13.938  0.8836 -1.1666  0.9336
 6086TIP3   OH239748   1.733   5.922   0.516 -0.4893  0.0803 -0.6053
 6086TIP3    H139749   1.699   5.872   0.590  0.7540  1.0642  0.6936
 6086TIP3    H239750   1.656   5.954   0.470 -1.2876 -0.8414  0.0746
 6087TIP3   OH239751   6.220   6.704   5.670  0.0470  0.2022 -0.4698
 6087TIP3    H139752   6.217   6.633   5.606 -0.4697  0.2595 -0.5107
 6087TIP3    H239753   6.131   6.711   5.703  0.4485 -0.3106  0.7938
 6088TIP3   OH239754   3.094   1.360  16.115 -0.0390 -0.3430  0.4351
 6088TIP3    H139755   3.136   1.360  16.029  0.8061 -1.1169  0.8226
 6088TIP3    H239756   3.129   1.281  16.158  1.2428  1.1264  2.2687
 6089TIP3   OH239757   5.017   0.095   1.132 -0.0190 -0.3767 -0.2692
 6089TIP3    H139758   4.971   0.094   1.048 -0.3851  0.2312 -0.0807
 6089TIP3    H239759   4.976   0.025   1.182 -0.1691 -0.3871 -0.4049
 6090TIP3   OH239760   3.533   6.140  16.396 -0.5642  0.3403  0.4598
 6090TIP3    H139761   3.615   6.151  16.444 -0.9184  0.6298  1.0186
 6090TIP3    H239762   3.490   6.066  16.438 -0.5809  0.1758  0.1556
 6091TIP3   OH239763   5.071   5.147  10.883 -0.3034 -0.5343 -0.1349
 6091TIP3    H139764   5.118   5.226  10.858  1.1329 -0.5138  2.3413
 6091TIP3    H239765   5.113   5.077  10.832  1.7951 -0.3452  1.2058
 6092TIP3   OH239766   2.034   1.824  15.100 -0.0726 -0.5422  0.0045
 6092TIP3    H139767   2.043   1.795  15.009  0.0312 -2.1496  0.4883
 6092TIP3    H239768   2.057   1.747  15.152 -0.7039  0.1671  1.3961
 6093TIP3   OH239769   0.358   0.953   5.927  0.0705 -0.0959 -0.7996
 6093TIP3    H139770   0.445   0.913   5.922 -0.4937 -1.4196 -0.3878
 6093TIP3    H239771   0.369   1.028   5.985  0.2677 -2.2690  2.1997
 6094TIP3   OH239772   3.501   2.538  11.714  0.2619 -0.8125 -0.2275
 6094TIP3    H139773   3.545   2.594  11.650  0.7638 -0.7620  0.1542
 6094TIP3    H239774   3.559   2.463  11.723  0.7966 -0.2618  1.0587
 6095TIP3   OH239775   3.219   3.650  13.338  0.4253 -0.4956 -0.3746
 6095TIP3    H139776   3.175   3.565  13.333 -0.1994 -0.3043  1.2518
 6095TIP3    H239777   3.237   3.662  13.431  1.5059  0.6622 -0.7120
 6096TIP3   OH239778   3.147   0.980   1.867  0.8362  0.3182 -0.4433
 6096TIP3    H139779   3.202   0.902   1.857 -1.2281 -1.5104  1.3144
 6096TIP3    H239780   3.094   0.982   1.788  0.6826 -0.2662 -0.3608
 6097TIP3   OH239781   1.100   4.694   3.644  0.0611 -0.1042  0.1550
 6097TIP3    H139782   1.040   4.631   3.685 -0.5841  0.5722  0.2736
 6097TIP3    H239783   1.042   4.757   3.600  0.7123  0.0959 -0.4197
 6098TIP3   OH239784   0.416   2.980  14.731  0.1336 -0.0728  0.5600
 6098TIP3    H139785   0.396   2.960  14.639  1.9684 -0.4641  0.2181
 6098TIP3    H239786   0.373   2.910  14.780 -0.2318 -0.2874 -0.0482
 6099TIP3   OH239787   0.738   0.099   3.274 -0.0833  0.7086 -0.3809
 6099TIP3    H139788   0.644   0.117   3.282 -0.2393 -0.0530 -0.4999
 6099TIP3    H239789   0.743   0.009   3.245  0.6520  1.2861 -2.1418
 6100TIP3   OH239790   5.409   1.581   0.063  0.0630 -0.6661  0.0354
 6100TIP3    H139791   5.486   1.625   0.099  0.0529 -0.6985  0.0978
 6100TIP3    H239792   5.384   1.634  -0.012 -0.1987 -0.3240  0.3581
 6101TIP3   OH239793   2.713   2.779  17.266  0.2563  0.3670  0.2488
 6101TIP3    H139794   2.787   2.737  17.224  2.3981  0.8596  3.2235
 6101TIP3    H239795   2.691   2.853  17.209  1.8942  0.0860 -0.8093
 6102TIP3   OH239796   0.302   5.974   2.271  0.1971 -0.7270 -0.7624
 6102TIP3    H139797   0.318   5.893   2.223  1.5122 -0.5603 -0.6544
 6102TIP3    H239798   0.229   6.016   2.226 -0.7500 -2.1337 -0.5985
 6103TIP3   OH239799   6.067   1.276  14.251 -0.0628 -0.0719  0.0163
 6103TIP3    H139800   6.026   1.250  14.168  1.4382 -0.3418 -0.6749
 6103TIP3    H239801   6.154   1.308  14.226  0.5255 -0.4068  1.5181
 6104TIP3   OH239802   2.747   0.641   4.864 -0.9201  0.3532 -0.1456
 6104TIP3    H139803   2.818   0.668   4.807 -0.2234 -0.2605  0.4155
 6104TIP3    H239804   2.681   0.710   4.855  0.1001  1.3664 -0.0171
 6105TIP3   OH239805   0.205   5.123   3.409  0.3837 -0.0715 -0.2163
 6105TIP3    H139806   0.119   5.099   3.445  0.1538  0.0068 -0.6993
 6105TIP3    H239807   0.209   5.077   3.326  0.7684  0.0095 -0.2412
 6106TIP3   OH239808   2.878   3.668  13.576 -0.2791  0.2529  0.4124
 6106TIP3    H139809   2.936   3.688  13.649 -1.1436  0.7045  0.9914
 6106TIP3    H239810   2.830   3.750  13.560  0.6250  0.4925 -1.3567
 6107TIP3   OH239811   0.844   1.592   1.036 -0.3662 -0.0308 -0.0206
 6107TIP3    H139812   0.938   1.599   1.019 -0.1045 -1.6425  0.5434
 6107TIP3    H239813   0.824   1.500   1.015 -1.6779  0.1300  0.4842
 6108TIP3   OH239814   6.677   4.716   0.672 -0.3032  0.1607 -0.2898
 6108TIP3    H139815   6.616   4.786   0.694 -0.0237 -0.2708  2.0707
 6108TIP3    H239816   6.686   4.665   0.752  2.9431  0.0252 -0.6279
 6109TIP3   OH239817   4.717   4.117   1.261 -0.0186 -0.5114  0.4438
 6109TIP3    H139818   4.750   4.118   1.351  0.2787 -0.9702  0.3408
 6109TIP3    H239819   4.783   4.068   1.212  0.0922  0.1920 -0.1299
 6110TIP3   OH239820   5.990   4.831   2.227  0.2855  0.7524  0.1631
 6110TIP3    H139821   5.991   4.900   2.293 -0.5287  0.2733  0.6970
 6110TIP3    H239822   5.900   4.800   2.226  1.0557 -1.9195  1.6664
 6111TIP3   OH239823   0.235   0.659  13.061 -0.2230  0.5096 -0.1088
 6111TIP3    H139824   0.204   0.702  12.981 -0.3518 -0.4639 -0.5941
 6111TIP3    H239825   0.329   0.648  13.047 -0.3055  0.0240 -0.2736
 6112TIP3   OH239826   2.336   3.720   2.595  0.0818  0.6470  0.0150
 6112TIP3    H139827   2.365   3.789   2.535  1.0153 -0.3641 -0.7483
 6112TIP3    H239828   2.245   3.704   2.571  0.7880 -0.6521 -2.1220
 6113TIP3   OH239829   6.292   6.308   0.770 -0.4943  0.6130 -0.4522
 6113TIP3    H139830   6.218   6.300   0.831  0.7231 -0.9933  0.9173
 6113TIP3    H239831   6.280   6.237   0.708  0.9072 -1.0137  1.0199
 6114TIP3   OH239832   4.607   0.811  12.798  0.2420 -0.4410 -0.0241
 6114TIP3    H139833   4.698   0.796  12.826 -0.2213 -0.3782  1.6414
 6114TIP3    H239834   4.615   0.842  12.708  1.9762  0.6922  0.4570
 6115TIP3   OH239835   5.434   0.784   5.351  0.0540 -0.2750 -0.6098
 6115TIP3    H139836   5.412   0.700   5.392  2.2463 -0.3819  0.4850
 6115TIP3    H239837   5.512   0.765   5.299  0.6345  1.0995 -0.2796
 6116TIP3   OH239838   1.014   4.561  14.290  0.1688 -0.7036 -0.2682
 6116TIP3    H139839   1.065   4.524  14.363 -1.1565 -0.9891  0.5406
 6116TIP3    H239840   1.045   4.512  14.214  0.7856 -1.1884  0.2709
 6117TIP3   OH239841   5.425   2.247  16.289 -0.3236 -0.6098  0.0839
 6117TIP3    H139842   5.515   2.234  16.258  0.0986  0.1979  0.9226
 6117TIP3    H239843   5.423   2.203  16.375 -0.4761  0.1016  0.4514
 6118TIP3   OH239844   3.928   1.331  15.234 -0.0342  0.4968  0.0610
 6118TIP3    H139845   3.877   1.262  15.191 -0.8552  0.4065  1.1348
 6118TIP3    H239846   4.018   1.317  15.203 -0.1842 -1.0701  0.2461
 6119TIP3   OH239847   1.095   6.098   1.578 -0.0084  0.0812 -0.2710
 6119TIP3    H139848   1.001   6.113   1.584 -0.1966 -1.2941  0.5407
 6119TIP3    H239849   1.112   6.089   1.484 -0.7994 -0.2978 -0.3832
 6120TIP3   OH239850   1.427   0.357   4.843  0.0444  0.2239  0.5066
 6120TIP3    H139851   1.491   0.289   4.821 -0.1511  0.3560 -0.4808
 6120TIP3    H239852   1.463   0.437   4.805 -0.3626  0.4359  0.5651
 6121TIP3   OH239853   4.518   3.430  15.537 -0.3986 -0.3405  0.7302
 6121TIP3    H139854   4.540   3.523  15.543  0.1908 -0.4998  1.1809
 6121TIP3    H239855   4.601   3.388  15.515 -0.7926 -0.6937 -0.0929
 6122TIP3   OH239856   4.522   1.538  15.239  0.1457 -0.0545 -0.2662
 6122TIP3    H139857   4.540   1.595  15.164  2.4385 -0.2907  0.0564
 6122TIP3    H239858   4.602   1.539  15.290 -0.4371 -2.0391  0.7783
 6123TIP3   OH239859   0.963   6.756   4.382  0.0141  0.0785 -0.5044
 6123TIP3    H139860   0.931   6.845   4.371  1.9098  0.5808 -3.0003
 6123TIP3    H239861   1.058   6.764   4.380  0.2356 -2.0088 -1.2029
 6124TIP3   OH239862   1.324   3.629  14.297 -0.3540  0.1388  0.6678
 6124TIP3    H139863   1.240   3.673  14.280  1.0962  2.7842 -0.2266
 6124TIP3    H239864   1.388   3.679  14.246  1.6086 -2.6926  0.1110
 6125TIP3   OH239865   0.002   4.388   3.936  0.1578 -0.3716  0.8499
 6125TIP3    H139866  -0.080   4.370   3.891  0.2576 -0.2435  0.6137
 6125TIP3    H239867   0.067   4.398   3.866  0.3423 -0.3121  1.0258
 6126TIP3   OH239868   1.296   0.756   5.480  0.1039 -0.4272 -0.0008
 6126TIP3    H139869   1.357   0.724   5.413  0.4417 -0.0129  0.1034
 6126TIP3    H239870   1.333   0.725   5.563  0.4503  0.2480  0.1037
 6127TIP3   OH239871   0.125   2.369  13.890  0.5367  0.0748  1.0498
 6127TIP3    H139872   0.148   2.437  13.826 -2.8990 -0.9598 -1.6370
 6127TIP3    H239873   0.182   2.296  13.868  0.4181  0.2461  0.1030
 6128TIP3   OH239874   3.914   6.558   2.237  0.1055  0.2749 -0.1845
 6128TIP3    H139875   3.942   6.515   2.157  0.1928 -0.4671  0.2383
 6128TIP3    H239876   3.822   6.533   2.246 -0.1291  1.0059 -0.4662
 6129TIP3   OH239877   4.336   3.288  11.621 -0.2948 -0.0443  0.0533
 6129TIP3    H139878   4.247   3.304  11.591 -0.9048  2.0596  2.6327
 6129TIP3    H239879   4.374   3.375  11.632  1.1781 -0.8003  1.4437
 6130TIP3   OH239880   4.845   5.644   3.561 -0.0992  0.5278 -0.2168
 6130TIP3    H139881   4.832   5.569   3.503 -1.7798  1.4140 -1.0688
 6130TIP3    H239882   4.909   5.699   3.514  2.9337 -1.3108  1.4500
 6131TIP3   OH239883   4.592   3.778  14.039 -0.0050  0.7322 -0.3573
 6131TIP3    H139884   4.543   3.785  13.957 -0.2883  0.8490 -0.1807
 6131TIP3    H239885   4.530   3.807  14.106 -0.4790 -1.3139  0.1515
 6132TIP3   OH239886   0.827   1.396  17.083  0.4579  0.4536 -0.2380
 6132TIP3    H139887   0.908   1.346  17.074  0.0051 -0.5497  1.0361
 6132TIP3    H239888   0.758   1.330  17.090 -0.1315  1.2100  1.6762
 6133TIP3   OH239889   5.287   4.589   2.094  0.0561  0.0559 -0.1413
 6133TIP3    H139890   5.336   4.561   2.172  0.4547  1.9611  0.3413
 6133TIP3    H239891   5.336   4.664   2.060  0.7841 -1.6076 -3.1807
 6134TIP3   OH239892   4.555   5.186  13.338  0.1401  0.0840 -0.1376
 6134TIP3    H139893   4.586   5.115  13.282 -0.0546  2.1372 -3.0969
 6134TIP3    H239894   4.460   5.186  13.327  0.1038  0.5800  0.1394
 6135TIP3   OH239895   5.573   0.038  16.424 -0.4998 -0.4501 -0.4598
 6135TIP3    H139896   5.638   0.036  16.354 -1.0979  0.7463 -1.0826
 6135TIP3    H239897   5.532  -0.049  16.421 -1.6880  0.1131 -2.7620
 6136TIP3   OH239898   6.376   4.194  14.445 -0.1591  0.3736 -0.0089
 6136TIP3    H139899   6.334   4.266  14.491  0.3539  1.7089 -1.5389
 6136TIP3    H239900   6.416   4.234  14.368  1.5958 -1.2733 -0.0367
 6137TIP3   OH239901   1.452   1.954  15.359 -0.5908  0.1266  0.2916
 6137TIP3    H139902   1.542   1.959  15.393 -0.7828  0.8235  0.7302
 6137TIP3    H239903   1.455   1.885  15.293  1.1386  2.4992 -2.3384
 6138TIP3   OH239904   0.543   0.308   2.340  0.1648 -0.5068  0.0952
 6138TIP3    H139905   0.534   0.213   2.327  0.8640 -0.5514 -0.1114
 6138TIP3    H239906   0.625   0.318   2.387  1.0816  0.1129 -1.5670
 6139TIP3   OH239907   3.725   4.360   2.749 -0.0645  0.0739  0.1048
 6139TIP3    H139908   3.726   4.385   2.841 -1.6218 -1.5071  0.6026
 6139TIP3    H239909   3.776   4.280   2.745 -0.1674  0.0271 -0.3706
 6140TIP3   OH239910   5.229   2.767   0.509 -0.4628 -0.3934  0.1928
 6140TIP3    H139911   5.172   2.799   0.438  0.8596  0.4682 -0.5399
 6140TIP3    H239912   5.191   2.804   0.589 -0.7065  0.5136 -0.3231
 6141TIP3   OH239913   4.344   4.867  11.958 -0.2523  0.3643  0.5055
 6141TIP3    H139914   4.295   4.850  12.038  0.6027 -0.1901  0.9288
 6141TIP3    H239915   4.371   4.780  11.927 -1.4729  0.4816 -0.9801
 6142TIP3   OH239916   3.952   6.066  16.834 -0.3963 -0.6083  0.2520
 6142TIP3    H139917   3.905   6.082  16.915  0.9870  1.0327  0.7930
 6142TIP3    H239918   4.044   6.060  16.860  0.0969  0.1736 -1.2007
 6143TIP3   OH239919   0.346   3.308  16.447 -0.0634 -0.3534 -0.2714
 6143TIP3    H139920   0.398   3.249  16.392 -1.2732 -1.1030 -0.6418
 6143TIP3    H239921   0.346   3.267  16.533 -0.4788 -0.6443 -0.4050
 6144TIP3   OH239922   2.891   1.686   1.114 -0.5912 -0.3882 -0.5771
 6144TIP3    H139923   2.885   1.608   1.058 -0.9855 -0.5935 -0.2562
 6144TIP3    H239924   2.812   1.683   1.167 -0.2652 -0.1475 -0.0698
 6145TIP3   OH239925   3.927   2.781  15.816 -0.8408 -0.1779 -0.5937
 6145TIP3    H139926   3.988   2.841  15.773 -1.6526  0.0649 -1.4313
 6145TIP3    H239927   3.870   2.838  15.867 -1.0881 -0.2984 -0.7321
 6146TIP3   OH239928   3.630   2.487   4.585 -0.0468  0.4258 -0.3408
 6146TIP3    H139929   3.575   2.565   4.587 -0.6517 -0.0088  0.8593
 6146TIP3    H239930   3.683   2.493   4.665 -1.4393 -1.2982  0.7999
 6147TIP3   OH239931   2.590   1.099  17.383 -0.0972 -0.3745 -0.2006
 6147TIP3    H139932   2.620   1.162  17.448 -0.1470  0.3178 -0.8412
 6147TIP3    H239933   2.669   1.076  17.334 -0.6758  2.2478 -2.5866
 6148TIP3   OH239934   4.618   2.673   0.451 -0.0656  0.7715  0.2916
 6148TIP3    H139935   4.577   2.759   0.444 -0.2830  0.5777 -0.9770
 6148TIP3    H239936   4.610   2.635   0.364  0.4939 -0.3302  0.7006
 6149TIP3   OH239937   2.055   0.632   0.633  0.0567  0.0338 -0.0531
 6149TIP3    H139938   2.072   0.726   0.628  0.8219 -0.1075 -0.2834
 6149TIP3    H239939   2.133   0.591   0.595  1.3591 -0.7912  3.1940
 6150TIP3   OH239940   5.412   4.184  13.674 -0.1114  0.1063  0.0117
 6150TIP3    H139941   5.400   4.267  13.627  0.8410  1.1394  1.4920
 6150TIP3    H239942   5.466   4.207  13.750  1.3368 -2.1377 -0.2563
 6151TIP3   OH239943   0.401   4.289   2.285 -0.4037 -0.0005 -0.3255
 6151TIP3    H139944   0.465   4.324   2.348 -0.8210 -0.2912  0.2585
 6151TIP3    H239945   0.427   4.329   2.201  2.7004 -2.7007 -0.8739
 6152TIP3   OH239946   3.472   4.364   3.174  0.4440  0.3372  0.0241
 6152TIP3    H139947   3.418   4.291   3.144  0.5991 -0.1896  0.9561
 6152TIP3    H239948   3.430   4.394   3.254  1.6099 -0.2138  0.8803
 6153TIP3   OH239949   0.854   0.671   0.745 -0.5069  0.2099 -0.5331
 6153TIP3    H139950   0.786   0.611   0.712 -2.0432  2.9023 -2.6894
 6153TIP3    H239951   0.936   0.633   0.714 -1.4794 -0.4609 -2.4923
 6154TIP3   OH239952   2.436   0.265   3.069 -0.1277  0.2675 -0.2626
 6154TIP3    H139953   2.530   0.263   3.053 -0.3668  0.2387 -1.8402
 6154TIP3    H239954   2.421   0.198   3.135  1.0098  0.6321  0.3883
 6155TIP3   OH239955   1.013   3.101   4.843 -0.5422 -0.8790 -0.6041
 6155TIP3    H139956   0.918   3.103   4.854 -0.5589 -0.5821 -0.8086
 6155TIP3    H239957   1.026   3.085   4.749 -0.3928  1.6869 -1.0808
 6156TIP3   OH239958   2.827   3.025   2.630 -0.2534 -0.0461 -0.0792
 6156TIP3    H139959   2.741   2.987   2.612 -0.2509 -0.1454  0.1111
 6156TIP3    H239960   2.883   2.992   2.560 -0.0333 -1.1456  0.5993
 6157TIP3   OH239961   1.810   5.007   2.517  0.2287  0.1415 -0.8543
 6157TIP3    H139962   1.810   4.913   2.496  1.6967  0.3431 -1.9978
 6157TIP3    H239963   1.828   5.011   2.611  0.6121 -0.7237 -0.8814
 6158TIP3   OH239964   4.092   6.520   5.262  0.1939  0.0096  0.0144
 6158TIP3    H139965   4.169   6.463   5.273  1.3698  1.3401 -0.9582
 6158TIP3    H239966   4.089   6.572   5.342 -1.4743 -1.9895  1.3623
 6159TIP3   OH239967   5.318   0.739   3.353 -0.1609 -0.2519 -0.2047
 6159TIP3    H139968   5.234   0.733   3.398 -0.3590 -0.0854 -0.5463
 6159TIP3    H239969   5.303   0.801   3.282 -0.2249 -1.4555 -1.2887
 6160TIP3   OH239970   2.027   1.380   1.061 -0.3902  1.2231 -0.2665
 6160TIP3    H139971   2.062   1.297   1.093 -1.1730  1.2556  0.7209
 6160TIP3    H239972   1.943   1.390   1.106 -1.1766  1.6629 -1.7620
 6161TIP3   OH239973   3.481   0.403  11.524 -0.6419 -0.9005 -0.6538
 6161TIP3    H139974   3.444   0.418  11.611 -0.2410 -1.3464 -0.3979
 6161TIP3    H239975   3.474   0.308  11.511  1.9372 -1.2784  0.1342
 6162TIP3   OH239976   0.046   2.030  16.279  0.1132  0.4069  0.4845
 6162TIP3    H139977  -0.021   1.980  16.233  0.4415 -0.6536  1.1151
 6162TIP3    H239978   0.048   2.115  16.234  0.2758 -0.5007 -1.3100
 6163TIP3   OH239979   3.086   0.995   5.122 -0.0235 -0.0254  0.5551
 6163TIP3    H139980   3.052   1.042   5.198 -0.7634  0.5697 -0.1280
 6163TIP3    H239981   3.008   0.976   5.070  0.6454  0.9065 -0.8052
 6164TIP3   OH239982   0.618   1.460  12.348  0.1956  0.0904 -0.1426
 6164TIP3    H139983   0.710   1.456  12.325  0.3702  0.1429  0.5344
 6164TIP3    H239984   0.582   1.376  12.318  0.5970 -0.1964  0.1605
 6165TIP3   OH239985   1.438   1.337   0.026  0.4632  0.5782  0.9768
 6165TIP3    H139986   1.501   1.408   0.039  1.5229 -0.2374  0.4563
 6165TIP3    H239987   1.432   1.328  -0.069 -0.0749  0.3265  1.0328
 6166TIP3   OH239988   1.040   0.891  13.784  0.2312  0.4700  0.1362
 6166TIP3    H139989   1.014   0.857  13.870 -0.1453  0.0587 -0.1355
 6166TIP3    H239990   1.122   0.846  13.765 -2.3095 -3.7496 -2.1437
 6167TIP3   OH239991   2.025   4.080  16.843 -0.4334 -0.3380  0.0373
 6167TIP3    H139992   2.005   4.106  16.933  1.7071  0.8092  0.2435
 6167TIP3    H239993   2.015   3.985  16.843  1.3476 -0.6100  2.0521
 6168TIP3   OH239994   6.517   4.107   2.848 -0.4625  0.0334 -0.1883
 6168TIP3    H139995   6.472   4.022   2.847 -1.4493  0.5497 -1.7255
 6168TIP3    H239996   6.554   4.116   2.760  0.8015  0.6043  0.3801
 6169TIP3   OH239997   3.692   1.469  13.859 -0.6966 -0.2486 -0.2587
 6169TIP3    H139998   3.704   1.385  13.904 -0.1170  0.3859  0.7814
 6169TIP3    H239999   3.606   1.499  13.888 -0.1764  0.3268  0.7272
 6170TIP3   OH240000   4.131   3.856   3.179  0.5959  0.3211  0.2347
 6170TIP3    H140001   4.197   3.807   3.131 -0.0336  0.3012 -0.6401
 6170TIP3    H240002   4.074   3.789   3.217  0.5518  0.3438  0.2100
 6171TIP3   OH240003   1.940   0.149   0.341  0.3710 -0.4743  0.9248
 6171TIP3    H140004   1.949   0.110   0.254  2.8714 -1.9125  1.7217
 6171TIP3    H240005   1.852   0.187   0.341  0.0107 -1.0517 -1.9517
 6172TIP3   OH240006   1.923   2.031  12.689 -0.0551  0.6233  0.0536
 6172TIP3    H140007   1.975   1.978  12.750  1.2495  1.8555  0.0660
 6172TIP3    H240008   1.988   2.085  12.643 -1.1653  0.8783 -1.2871
 6173TIP3   OH240009   5.417   3.622   3.035  0.4477 -0.0875 -0.1920
 6173TIP3    H140010   5.439   3.643   3.125  1.1989  1.4995 -0.7141
 6173TIP3    H240011   5.490   3.567   3.004  0.4757 -0.1530 -0.0064
 6174TIP3   OH240012   1.771   0.060  10.812 -0.3019 -0.0042 -0.0493
 6174TIP3    H140013   1.728   0.141  10.785 -1.8052 -0.7123  0.0836
 6174TIP3    H240014   1.706  -0.008  10.794  1.5806 -1.4514 -1.9238
 6175TIP3   OH240015   1.487   4.843  17.222  0.0766 -0.2203 -0.2425
 6175TIP3    H140016   1.427   4.813  17.154 -1.0345  0.8454  0.2276
 6175TIP3    H240017   1.468   4.787  17.298 -0.0525 -0.1422 -0.2166
 6176TIP3   OH240018   4.983   5.646   5.387  0.1049 -0.1491  0.7287
 6176TIP3    H140019   5.066   5.693   5.379  0.4275 -0.8874 -0.8057
 6176TIP3    H240020   4.982   5.586   5.312 -0.3849 -2.4254  2.4198
 6177TIP3   OH240021   4.303   4.488  15.534 -0.0944 -0.2005  0.0391
 6177TIP3    H140022   4.341   4.430  15.468 -1.3047  1.9913 -2.7918
 6177TIP3    H240023   4.379   4.522  15.583  1.3680  1.1332 -2.9168
 6178TIP3   OH240024   2.140   1.753  16.489  0.0574  0.5189  0.3389
 6178TIP3    H140025   2.180   1.798  16.414 -1.1060  0.7261 -0.1811
 6178TIP3    H240026   2.046   1.761  16.474 -0.2524 -2.6860 -0.1672
 6179TIP3   OH240027   5.945   4.837   4.758 -0.3198 -0.3665  0.0256
 6179TIP3    H140028   5.967   4.879   4.841 -0.5055  0.2135 -0.2142
 6179TIP3    H240029   5.903   4.754   4.784  0.7746 -0.7892  0.4907
 6180TIP3   OH240030   2.768   2.896   5.756  0.0804 -0.4640  0.2177
 6180TIP3    H140031   2.840   2.839   5.785  0.8623  0.3919 -0.0114
 6180TIP3    H240032   2.796   2.927   5.670 -1.2035 -1.2016 -0.4872
 6181TIP3   OH240033   0.160   1.248   0.917 -0.0572 -0.7820  0.6033
 6181TIP3    H140034   0.082   1.255   0.972 -0.6606 -0.1221 -0.2947
 6181TIP3    H240035   0.233   1.265   0.976 -0.6758 -0.2320  1.2330
 6182TIP3   OH240036   1.603   1.763  14.268 -0.1659  0.1380 -0.0115
 6182TIP3    H140037   1.637   1.704  14.201 -0.0845  0.7688 -0.5353
 6182TIP3    H240038   1.675   1.775  14.330 -0.1179 -0.1496 -0.0123
 6183TIP3   OH240039   0.167   6.280   0.299  0.3298  0.3152 -0.0841
 6183TIP3    H140040   0.260   6.275   0.318  0.3387 -0.0281 -0.2236
 6183TIP3    H240041   0.124   6.239   0.374  0.3213 -0.1344 -0.3340
 6184TIP3   OH240042   3.485   4.234  12.813 -0.1157 -0.0034  0.2079
 6184TIP3    H140043   3.558   4.176  12.791  0.0109 -0.0638  0.7820
 6184TIP3    H240044   3.472   4.287  12.734  0.2823 -0.2703 -0.0397
 6185TIP3   OH240045   6.748   1.734  17.398  0.2340 -0.3839  0.1569
 6185TIP3    H140046   6.800   1.664  17.436 -1.1291 -1.8855 -0.6289
 6185TIP3    H240047   6.732   1.795  17.470  3.7154  0.6112  0.2504
 6186TIP3   OH240048   1.714   0.265   0.225 -0.7571  0.3979  0.3785
 6186TIP3    H140049   1.663   0.205   0.170  0.0189  1.3765 -1.4936
 6186TIP3    H240050   1.764   0.318   0.163  2.1188 -0.1145  2.0841
 6187TIP3   OH240051   4.463   3.780  12.106  0.5737 -0.2654  0.6822
 6187TIP3    H140052   4.527   3.848  12.086  1.4283 -1.4458 -0.8067
 6187TIP3    H240053   4.392   3.826  12.152  0.9924  1.6627 -0.4834
 6188TIP3   OH240054   6.401   5.392  15.984  0.0017 -0.0108 -0.3877
 6188TIP3    H140055   6.435   5.340  16.057  2.2114  0.9545 -0.6654
 6188TIP3    H240056   6.359   5.467  16.026  2.1077  1.0407 -0.0534
 6189TIP3   OH240057   1.775   1.112   0.535 -0.4023  0.6390 -0.2108
 6189TIP3    H140058   1.748   1.204   0.535  0.7550  1.0029 -1.3495
 6189TIP3    H240059   1.847   1.107   0.472  0.0783 -0.9050  0.3933
 6190TIP3   OH240060   5.882   4.599   3.479 -0.0107  0.2740  0.2203
 6190TIP3    H140061   5.931   4.593   3.561  0.4834 -0.3566 -0.1109
 6190TIP3    H240062   5.949   4.599   3.410 -0.4735 -2.1929 -0.3152
 6191TIP3   OH240063   0.628   4.976   6.052 -0.0317 -0.3232 -0.3861
 6191TIP3    H140064   0.677   4.928   5.985  0.5937 -1.8370  1.0800
 6191TIP3    H240065   0.540   4.938   6.049 -0.6242  1.0952 -1.7557
 6192TIP3   OH240066   0.246   1.681  15.837 -0.3408  0.6296  0.0665
 6192TIP3    H140067   0.235   1.776  15.835 -1.8515  0.4819 -1.9451
 6192TIP3    H240068   0.232   1.654  15.746  0.7875 -1.4628  0.4609
 6193TIP3   OH240069   0.010   4.715   1.154  0.3161  0.6829 -0.4910
 6193TIP3    H140070  -0.027   4.783   1.210 -0.1514 -0.0438  0.1155
 6193TIP3    H240071   0.030   4.643   1.214  2.0834  0.7815 -0.9052
 6194TIP3   OH240072   6.292   4.883   0.502  0.1916 -0.2655  0.5623
 6194TIP3    H140073   6.291   4.793   0.468  0.2371 -0.1118  0.1516
 6194TIP3    H240074   6.224   4.928   0.452  1.1368  0.2981 -0.2510
 6195TIP3   OH240075   3.549   4.167   1.440  0.1738  0.4007 -0.0226
 6195TIP3    H140076   3.561   4.201   1.351 -0.4780  0.8726  0.0630
 6195TIP3    H240077   3.524   4.244   1.492 -0.9787 -0.1416  0.2469
 6196TIP3   OH240078   5.587   6.156   4.177  0.7924 -0.1592 -0.6982
 6196TIP3    H140079   5.610   6.150   4.269  1.0380  0.8846 -0.6817
 6196TIP3    H240080   5.670   6.149   4.130  1.2938  3.5324 -0.6404
 6197TIP3   OH240081   1.760   5.549  16.614 -0.1799 -1.0052 -0.1784
 6197TIP3    H140082   1.747   5.643  16.599 -0.3504 -1.1855 -1.3008
 6197TIP3    H240083   1.745   5.536  16.707 -0.1689  0.0824 -0.0185
 6198TIP3   OH240084   5.042   2.332   1.552  0.3030 -0.1328 -0.1276
 6198TIP3    H140085   5.130   2.370   1.564 -0.3683  1.4243  0.1752
 6198TIP3    H240086   5.007   2.326   1.640 -0.9049  1.8963 -0.4062
 6199TIP3   OH240087   3.026   4.816  14.374  0.2778  0.0715 -0.3754
 6199TIP3    H140088   2.996   4.775  14.293  2.2366 -2.4457  0.0573
 6199TIP3    H240089   3.118   4.791  14.381  0.6062  1.6187  1.8296
 6200TIP3   OH240090   3.162   2.817  17.508 -0.4962  0.4068  0.0072
 6200TIP3    H140091   3.224   2.790  17.441  0.1902  1.0927  0.3571
 6200TIP3    H240092   3.122   2.735  17.538  1.1819 -0.2100  0.6890
 6201TIP3   OH240093   6.506   2.194  11.835 -0.2116 -0.1599 -0.2501
 6201TIP3    H140094   6.589   2.178  11.879 -1.2355 -4.9703  0.4884
 6201TIP3    H240095   6.526   2.192  11.742  0.4475 -3.0354 -0.1350
 6202TIP3   OH240096   2.937   6.030   0.756  1.0263 -0.6129 -1.0195
 6202TIP3    H140097   2.917   6.014   0.664  1.2416 -0.8570 -1.0255
 6202TIP3    H240098   2.924   6.124   0.767 -1.6998 -0.9463 -0.6281
 6203TIP3   OH240099   2.618   1.124   5.752  0.2963  0.2886  0.2580
 6203TIP3    H140100   2.611   1.215   5.779 -1.5210  0.4837 -0.7068
 6203TIP3    H240101   2.549   1.113   5.686  1.4122 -1.4024 -0.7038
 6204TIP3   OH240102   2.230   2.726  16.025  0.4256  0.0502 -0.1276
 6204TIP3    H140103   2.250   2.640  16.063 -1.3940 -0.1852  0.3793
 6204TIP3    H240104   2.290   2.733  15.951 -0.4631 -2.4293 -1.2185
 6205TIP3   OH240105   3.184   1.215   2.186 -0.8320  0.2477 -0.3849
 6205TIP3    H140106   3.241   1.260   2.247 -0.7248  0.7602 -0.8536
 6205TIP3    H240107   3.213   1.244   2.100 -0.5950 -0.9125 -0.7209
 6206TIP3   OH240108   5.240   0.979  12.769  0.3336  0.0553  0.1543
 6206TIP3    H140109   5.263   0.907  12.828  0.8225  0.0079 -0.0843
 6206TIP3    H240110   5.187   0.938  12.701 -0.0164  0.0624  0.4201
 6207TIP3   OH240111   2.577   0.386  12.788 -0.5674 -0.2788 -0.3553
 6207TIP3    H140112   2.637   0.332  12.840  0.4572 -0.6042 -1.8246
 6207TIP3    H240113   2.628   0.463  12.764 -1.4671  0.5274  0.2310
 6208TIP3   OH240114   0.469   5.831  11.154 -0.4357 -0.1200 -0.2216
 6208TIP3    H140115   0.480   5.882  11.234  0.5342 -0.1743 -0.3055
 6208TIP3    H240116   0.390   5.779  11.169 -0.7117  0.4613  0.3750
 6209TIP3   OH240117   6.399   0.416   3.998 -0.4674 -0.6117  0.7383
 6209TIP3    H140118   6.408   0.347   3.932 -1.3434 -0.3226  0.3085
 6209TIP3    H240119   6.475   0.472   3.985 -1.0274 -0.1173 -0.5591
 6210TIP3   OH240120   4.095   2.866  17.254 -0.0736 -0.4606  1.0216
 6210TIP3    H140121   4.118   2.778  17.283  2.0064 -0.9632 -1.7206
 6210TIP3    H240122   4.173   2.919  17.268 -0.7120  0.5234  1.0352
 6211TIP3   OH240123   3.469   6.364  17.473 -0.2715 -0.0946 -0.0763
 6211TIP3    H140124   3.541   6.368  17.411  0.8219  0.8999  1.2045
 6211TIP3    H240125   3.494   6.297  17.536  0.4580  1.4939  1.4104
 6212TIP3   OH240126   5.072   2.339   5.604  0.1101 -0.1286 -0.4427
 6212TIP3    H140127   5.070   2.388   5.521  0.2679  0.4868 -0.0931
 6212TIP3    H240128   4.998   2.373   5.654 -0.6602 -1.3026 -0.7648
 6213TIP3   OH240129   4.887   0.384  17.457  0.0160  0.5314  0.5227
 6213TIP3    H140130   4.839   0.307  17.489 -0.1499  0.9788  1.3703
 6213TIP3    H240131   4.831   0.419  17.388 -0.6465  0.7576  1.1629
 6214TIP3   OH240132   6.619   6.315   3.783 -0.3328 -0.2835  0.1541
 6214TIP3    H140133   6.561   6.239   3.776 -0.4455 -0.0414 -3.6492
 6214TIP3    H240134   6.706   6.281   3.762  0.0579  0.2695  0.8120
 6215TIP3   OH240135   5.568   1.023   4.738  0.5402 -0.0567  0.0343
 6215TIP3    H140136   5.619   1.093   4.778  0.6520  1.4606 -2.5627
 6215TIP3    H240137   5.478   1.054   4.741  0.2911 -0.7925  0.7293
 6216TIP3   OH240138   3.680   3.011  11.126 -0.4555 -0.3674 -0.2474
 6216TIP3    H140139   3.761   3.055  11.099 -1.1910  0.6487 -0.8135
 6216TIP3    H240140   3.642   3.069  11.192  0.4804 -2.0159  1.8659
 6217TIP3   OH240141   6.069   5.105   0.842 -0.7929 -0.0288 -0.1301
 6217TIP3    H140142   5.976   5.097   0.864 -1.1069  0.6203 -1.1253
 6217TIP3    H240143   6.099   5.015   0.831 -1.4745 -0.2274 -0.4453
 6218TIP3   OH240144   4.836   2.887  15.323  0.8109 -0.2398  0.2194
 6218TIP3    H140145   4.876   2.907  15.408 -0.4514  0.7045  0.6139
 6218TIP3    H240146   4.868   2.956  15.265  0.5402 -0.0639  0.2813
 6219TIP3   OH240147   0.214   5.119   6.930  0.1158 -0.1175 -0.6230
 6219TIP3    H140148   0.232   5.025   6.931 -0.5855 -0.2582 -0.6473
 6219TIP3    H240149   0.130   5.127   6.884  0.3534  0.5561 -0.9607
 6220TIP3   OH240150   6.590   1.764  12.238 -0.4055 -0.0072  0.0705
 6220TIP3    H140151   6.517   1.786  12.297 -0.8585 -0.6090 -0.2557
 6220TIP3    H240152   6.668   1.782  12.290 -0.7840  0.4572  0.4980
 6221TIP3   OH240153   6.210   1.251  11.246 -0.2162  0.3627  0.3455
 6221TIP3    H140154   6.288   1.244  11.300 -0.1242 -0.7490  0.1102
 6221TIP3    H240155   6.226   1.191  11.173 -1.8872 -1.1303  1.0955
 6222TIP3   OH240156   1.579   1.840   1.066  0.7277  0.1943 -0.1936
 6222TIP3    H140157   1.585   1.801   1.153  4.0752  0.0822 -0.3586
 6222TIP3    H240158   1.599   1.933   1.079 -0.4567  0.5453 -0.6829
 6223TIP3   OH240159   4.072   1.305  11.458  0.4851 -0.0193  0.5049
 6223TIP3    H140160   4.142   1.370  11.464  1.6995 -1.2469  0.1139
 6223TIP3    H240161   4.090   1.258  11.377 -1.5776  0.4852 -0.2997
 6224TIP3   OH240162   1.419   3.745   2.902 -0.3323 -0.0131 -0.3965
 6224TIP3    H140163   1.482   3.725   2.833  0.3466 -0.8858  0.4515
 6224TIP3    H240164   1.406   3.662   2.948 -0.7587  0.5458  0.5377
 6225TIP3   OH240165   1.530   3.304   0.449 -0.2290  0.3671 -0.0241
 6225TIP3    H140166   1.448   3.289   0.495  0.0019  0.5397  0.4444
 6225TIP3    H240167   1.598   3.294   0.516  0.0376  1.9050 -0.0261
 6226TIP3   OH240168   0.649   1.154  15.419  0.2581 -0.0212 -0.0434
 6226TIP3    H140169   0.686   1.073  15.454  0.8093  0.3693  0.2902
 6226TIP3    H240170   0.722   1.197  15.375 -0.5455 -0.8139 -2.3318
 6227TIP3   OH240171   4.009   6.189   2.246 -0.5839 -0.1432 -1.0585
 6227TIP3    H140172   4.071   6.152   2.184  0.0295  1.1130 -1.2359
 6227TIP3    H240173   4.034   6.153   2.331  1.7518  1.8613 -0.7804
 6228TIP3   OH240174   2.132   4.054   4.674  0.1961 -0.1090 -0.2968
 6228TIP3    H140175   2.182   3.981   4.710 -0.2573 -0.6121 -0.6688
 6228TIP3    H240176   2.130   4.119   4.744  2.2161  0.3471 -0.6205
 6229TIP3   OH240177   1.110   0.481  15.595 -0.5825 -0.6132  0.6148
 6229TIP3    H140178   1.082   0.524  15.676 -1.5070  0.4408 -0.2239
 6229TIP3    H240179   1.030   0.478  15.541  0.4580  0.6523 -1.0850
 6230TIP3   OH240180   4.992   0.733   4.421 -0.0985 -0.4655  0.2680
 6230TIP3    H140181   4.898   0.737   4.405 -0.1086  0.7166  0.5199
 6230TIP3    H240182   5.017   0.824   4.442  0.6986 -1.0928  2.3527
 6231TIP3   OH240183   6.323   3.439  11.279  0.0552 -0.2396 -0.3137
 6231TIP3    H140184   6.299   3.494  11.353  2.0591  0.2603  0.0375
 6231TIP3    H240185   6.305   3.493  11.202  0.0994  0.1157 -0.0749
 6232TIP3   OH240186   2.428   2.240   3.511 -0.7244  0.3643 -0.3117
 6232TIP3    H140187   2.373   2.209   3.583 -0.0974  0.8292  0.3899
 6232TIP3    H240188   2.416   2.335   3.511  0.0192  0.4678 -0.1840
 6233TIP3   OH240189   1.372   0.592  11.042  0.3579  0.6353 -0.1139
 6233TIP3    H140190   1.433   0.520  11.023  0.4303  0.3834  1.0273
 6233TIP3    H240191   1.285   0.553  11.031  0.3945  0.3229  0.6214
 6234TIP3   OH240192   6.052   5.718  16.007 -0.2245  0.2787 -0.2117
 6234TIP3    H140193   6.113   5.661  15.960 -0.9725 -0.3498 -0.4495
 6234TIP3    H240194   5.974   5.719  15.953 -0.5702  0.7579  0.2852
 6235TIP3   OH240195   5.514   4.078  17.364 -0.1826 -0.1213  0.0641
 6235TIP3    H140196   5.430   4.116  17.391 -2.0462 -2.2962 -2.1535
 6235TIP3    H240197   5.553   4.047  17.445 -2.0755 -0.0376  1.0804
 6236TIP3   OH240198   5.125   0.017   4.556 -0.1563  0.7678  0.3598
 6236TIP3    H140199   5.054  -0.044   4.578 -0.7202  1.5677  0.7867
 6236TIP3    H240200   5.132   0.074   4.632 -0.0633  1.6416 -0.2901
 6237TIP3   OH240201   0.833   0.812  15.208  0.1209  0.0890 -0.2723
 6237TIP3    H140202   0.846   0.747  15.278  2.8112  0.0521 -0.6899
 6237TIP3    H240203   0.878   0.891  15.240 -0.7577  0.8761 -0.9333
 6238TIP3   OH240204   4.834   6.372   0.046  0.1279 -0.2179  0.3709
 6238TIP3    H140205   4.867   6.368  -0.043 -0.0788  0.5145  0.2586
 6238TIP3    H240206   4.879   6.446   0.086  1.1427 -1.2884  1.2632
 6239TIP3   OH240207   5.908   3.186   0.351  0.5377 -0.2741  0.2655
 6239TIP3    H140208   5.899   3.097   0.316  2.9106  0.2233 -1.8911
 6239TIP3    H240209   5.995   3.188   0.391  0.9289  1.3030 -0.5825
 6240TIP3   OH240210   0.524   0.834   1.703 -0.8486 -0.8642  0.6804
 6240TIP3    H140211   0.595   0.844   1.766  2.4203  1.6792 -2.9314
 6240TIP3    H240212   0.467   0.910   1.718  0.0545 -0.1295  0.4700
 6241TIP3   OH240213   5.246   5.920   4.501  0.3735 -0.4702  0.4096
 6241TIP3    H140214   5.297   5.843   4.477  0.4622 -0.0048 -0.9721
 6241TIP3    H240215   5.156   5.888   4.509  0.5603 -0.8992  0.8311
 6242TIP3   OH240216   0.230   5.771  12.410 -0.3114  0.0556  0.3035
 6242TIP3    H140217   0.311   5.772  12.361 -0.6498  0.3196 -0.2580
 6242TIP3    H240218   0.164   5.804  12.349 -0.4938  1.7995  1.3688
 6243TIP3   OH240219   6.537   4.576   3.295  0.8318  0.1128  0.5070
 6243TIP3    H140220   6.497   4.558   3.210  0.6934  1.8351  0.1768
 6243TIP3    H240221   6.466   4.565   3.358  0.0307  2.0944  0.0317
 6244TIP3   OH240222   0.264   1.595  15.553  0.0261 -0.1397  0.2456
 6244TIP3    H140223   0.294   1.658  15.487 -0.3759 -0.4224 -0.2108
 6244TIP3    H240224   0.169   1.593  15.543  0.0270 -0.7350  0.3408
 6245TIP3   OH240225   3.982   1.792  16.415  0.7924  0.3058 -0.0331
 6245TIP3    H140226   3.888   1.809  16.407  0.4470 -0.8465  1.2314
 6245TIP3    H240227   4.021   1.841  16.342 -0.6190  1.9798  0.2627
 6246TIP3   OH240228   0.325   1.194   4.966  0.2406  0.4522 -0.0375
 6246TIP3    H140229   0.376   1.210   4.887  1.2389  2.5207  0.9481
 6246TIP3    H240230   0.333   1.100   4.982  0.4729  0.0934 -2.0500
 6247TIP3   OH240231   1.673   0.543   1.253 -0.0369  0.4565 -0.2374
 6247TIP3    H140232   1.651   0.634   1.275 -1.9671  0.0277 -0.1842
 6247TIP3    H240233   1.698   0.503   1.336 -0.8873  0.5058  0.0497
 6248TIP3   OH240234   5.987   2.082   0.677 -0.2435  0.2430  0.1839
 6248TIP3    H140235   5.914   2.038   0.721  0.0272  0.7084  1.1074
 6248TIP3    H240236   5.955   2.171   0.661 -0.7707 -0.2252 -1.6360
 6249TIP3   OH240237   1.470   0.399  11.377  0.5256 -0.2959  0.2241
 6249TIP3    H140238   1.471   0.494  11.378  1.0965 -0.2745 -0.8089
 6249TIP3    H240239   1.470   0.374  11.469  0.5540  0.6987  0.5051
 6250TIP3   OH240240   1.094   0.723  14.464  0.3189  0.2227  0.1815
 6250TIP3    H140241   1.173   0.752  14.509  0.5255 -0.6750  0.4144
 6250TIP3    H240242   1.030   0.709  14.533  0.4325 -0.5204  0.1440
 6251TIP3   OH240243   3.760   0.818  14.652  0.2168  0.2548  0.1929
 6251TIP3    H140244   3.855   0.820  14.661  0.1211  0.0651  1.2997
 6251TIP3    H240245   3.741   0.729  14.621  0.3264 -0.0578  0.9937
 6252TIP3   OH240246   1.426   3.060   2.829 -0.3847 -0.0387  0.0177
 6252TIP3    H140247   1.359   3.012   2.878 -1.3472  0.8204 -0.4228
 6252TIP3    H240248   1.446   3.136   2.884 -0.2332  0.0447 -0.1540
 6253TIP3   OH240249   5.173   1.725   5.452 -0.2896  0.3192  0.2056
 6253TIP3    H140250   5.090   1.734   5.405 -0.3873 -0.8420  0.1332
 6253TIP3    H240251   5.181   1.631   5.469  1.1030  0.3984  0.0495
 6254TIP3   OH240252   0.795   0.370  13.587  0.1011 -0.0894 -0.2395
 6254TIP3    H140253   0.763   0.411  13.667  0.6657  1.1149 -0.6084
 6254TIP3    H240254   0.834   0.288  13.615  0.9433  0.6567  0.8194
 6255TIP3   OH240255   2.358   2.707  13.029  0.3284 -0.3546 -0.3026
 6255TIP3    H140256   2.316   2.643  13.086  1.4203 -0.2225  0.6973
 6255TIP3    H240257   2.438   2.664  12.999  0.9602  0.4450  0.2045
 6256TIP3   OH240258   4.452   4.846   1.028  0.0475  0.4615  0.4689
 6256TIP3    H140259   4.403   4.765   1.046 -0.4688  0.5127 -0.6315
 6256TIP3    H240260   4.454   4.891   1.113 -0.6191 -0.1858  0.8462
 6257TIP3   OH240261   1.131   1.609   3.505  0.0537  0.1976  0.0164
 6257TIP3    H140262   1.080   1.615   3.586  0.3099  1.4709  0.0946
 6257TIP3    H240263   1.194   1.539   3.522 -3.2629 -3.3980 -1.0200
 6258TIP3   OH240264   2.393   3.372  14.380  0.0520  0.3579  0.2088
 6258TIP3    H140265   2.418   3.360  14.472  0.4196  1.2714  0.2389
 6258TIP3    H240266   2.451   3.442  14.348  0.5825 -0.5881 -0.9907
 6259TIP3   OH240267   5.399   2.977  13.621  0.1663  0.1951  0.5120
 6259TIP3    H140268   5.419   3.024  13.701  2.3987 -0.3486  0.3385
 6259TIP3    H240269   5.330   2.915  13.646  0.0037  0.8255  1.6916
 6260TIP3   OH240270   3.558   3.736   4.999  0.1132  0.0632  0.1577
 6260TIP3    H140271   3.646   3.708   4.975 -0.0468 -0.2425 -0.0773
 6260TIP3    H240272   3.506   3.655   5.000 -0.1985  0.2601  0.1351
 6261TIP3   OH240273   5.508   2.892  11.659 -0.0659  0.1759  0.2860
 6261TIP3    H140274   5.507   2.832  11.585  0.9392  0.5440 -0.0418
 6261TIP3    H240275   5.522   2.836  11.735 -0.8604 -0.1755  0.1833
 6262TIP3   OH240276   4.457   0.486  12.741  0.0590 -0.2943 -0.3327
 6262TIP3    H140277   4.485   0.538  12.817 -2.4822  0.4972  0.1522
 6262TIP3    H240278   4.465   0.395  12.770  1.2120 -0.0841  0.0653
 6263TIP3   OH240279   0.412   3.231  13.047  0.1245 -0.0337 -0.0597
 6263TIP3    H140280   0.479   3.263  12.986  0.0950  1.5759  0.6930
 6263TIP3    H240281   0.330   3.264  13.012 -0.4866 -2.8137 -1.5147
 6264TIP3   OH240282   4.797   0.993   5.425  0.0309  0.3239  0.0452
 6264TIP3    H140283   4.828   0.926   5.364  0.1927  0.3117  0.1409
 6264TIP3    H240284   4.876   1.024   5.468  0.0616  1.1665 -0.5897
 6265TIP3   OH240285   0.355   4.662   4.291 -0.0451  0.6088 -0.0401
 6265TIP3    H140286   0.300   4.727   4.336  0.5989  2.5066 -1.8092
 6265TIP3    H240287   0.292   4.600   4.254 -1.1168  2.5754 -1.7834
 6266TIP3   OH240288   1.065   5.451   1.394 -0.7464 -0.6384  0.6614
 6266TIP3    H140289   1.139   5.419   1.445  0.0722  0.2291  0.0512
 6266TIP3    H240290   1.064   5.545   1.409 -0.4934 -0.3600 -0.8999
 6267TIP3   OH240291   4.818   4.706   2.341  0.0683  0.4674 -0.1081
 6267TIP3    H140292   4.903   4.706   2.384  0.4438  0.6415 -0.8263
 6267TIP3    H240293   4.825   4.636   2.276 -0.3587  0.4446 -0.1312
 6268TIP3   OH240294   3.687   3.232  10.824 -0.4991  0.2004  0.1426
 6268TIP3    H140295   3.752   3.178  10.870 -2.0254 -2.2464 -0.4299
 6268TIP3    H240296   3.737   3.309  10.797  1.2289  0.2994  3.0642
 6269TIP3   OH240297   1.328   5.773   4.482 -0.0791  0.2588  0.3731
 6269TIP3    H140298   1.262   5.827   4.439 -0.0872  2.0782  2.5362
 6269TIP3    H240299   1.384   5.835   4.528  2.9480 -1.2527 -1.0140
 6270TIP3   OH240300   6.465   3.631  16.713  0.1408  0.1684 -0.3884
 6270TIP3    H140301   6.416   3.684  16.775  0.1276 -0.1489 -0.1215
 6270TIP3    H240302   6.435   3.660  16.627 -0.0090  0.4506 -0.2421
 6271TIP3   OH240303   6.175   0.337  14.684 -0.3548  0.3320  0.2435
 6271TIP3    H140304   6.242   0.319  14.618 -0.0692  0.0192  0.6191
 6271TIP3    H240305   6.092   0.314  14.640 -0.1093 -0.5601  0.2316
 6272TIP3   OH240306   5.050   4.028  14.271  0.0619 -0.4403  0.1554
 6272TIP3    H140307   5.113   4.086  14.315 -0.4887 -0.7846  1.4291
 6272TIP3    H240308   4.979   4.085  14.244 -0.7414 -0.5639  1.8996
 6273TIP3   OH240309   0.985   1.516  17.329 -0.2861  0.1594  0.2250
 6273TIP3    H140310   1.029   1.589  17.285 -1.2126  0.4187 -0.3098
 6273TIP3    H240311   0.931   1.476  17.261 -0.5181 -0.4349  0.7500
 6274TIP3   OH240312   6.458   4.340   5.223 -0.0676  0.2020  0.1259
 6274TIP3    H140313   6.490   4.276   5.287  0.1182 -0.8326 -0.9556
 6274TIP3    H240314   6.389   4.293   5.176  1.2570  0.1529 -1.8591
 6275TIP3   OH240315   3.121   1.878  17.155 -0.1219  0.3394 -0.0153
 6275TIP3    H140316   3.096   1.970  17.152 -0.8174  0.1419 -1.7594
 6275TIP3    H240317   3.041   1.831  17.132  0.2785 -0.6955  0.6420
 6276TIP3   OH240318   2.756   0.845  15.535  0.0289  0.2135 -0.1525
 6276TIP3    H140319   2.741   0.930  15.577  0.9961  0.4136 -0.1907
 6276TIP3    H240320   2.810   0.866  15.459  0.6749 -0.4968  0.1060
 6277TIP3   OH240321   2.932   2.408   2.449  0.7496 -0.1238  0.1257
 6277TIP3    H140322   2.934   2.393   2.355 -0.5692  0.0035  0.0546
 6277TIP3    H240323   3.006   2.358   2.484  1.4527  0.1106 -1.0076
 6278TIP3   OH240324   3.732   6.705  17.294  0.5704  0.4500  0.5218
 6278TIP3    H140325   3.800   6.681  17.357 -1.2074 -0.3903  2.2070
 6278TIP3    H240326   3.674   6.764  17.342  0.5671  1.8989 -1.1685
 6279TIP3   OH240327   3.399   1.053   5.437 -0.0448  0.0996  0.3573
 6279TIP3    H140328   3.432   0.973   5.395 -0.4417  0.4349 -0.6007
 6279TIP3    H240329   3.428   1.124   5.380 -1.7153  0.4667 -0.0699
 6280TIP3   OH240330   1.595   2.901  11.264 -0.3550  0.3365 -0.4454
 6280TIP3    H140331   1.520   2.938  11.311 -0.1100  1.9577 -1.2660
 6280TIP3    H240332   1.641   2.977  11.227 -0.9002 -0.7919 -3.8543
 6281TIP3   OH240333   1.328   2.491   1.119  0.5297 -0.1952 -0.0169
 6281TIP3    H140334   1.342   2.430   1.192 -0.9977  1.1924  1.5304
 6281TIP3    H240335   1.377   2.453   1.046  1.7730 -1.8847  1.5963
 6282TIP3   OH240336   3.401   2.836   0.945  0.0738  0.1210  0.0765
 6282TIP3    H140337   3.473   2.856   1.004  1.6603 -0.6354 -1.5227
 6282TIP3    H240338   3.378   2.920   0.906 -0.2552  0.4401  0.9285
 6283TIP3   OH240339   4.459   4.920  16.140  0.2268  0.1055  0.2611
 6283TIP3    H140340   4.451   4.957  16.228  0.5249  1.1851 -0.1535
 6283TIP3    H240341   4.546   4.945  16.111  0.2464 -0.5069 -0.2387
 6284TIP3   OH240342   6.338   2.267  15.950 -0.1038  0.0573  0.5304
 6284TIP3    H140343   6.377   2.337  16.002  2.1195 -1.3374  0.8887
 6284TIP3    H240344   6.254   2.250  15.992 -0.8713  2.6510  0.2365
 6285TIP3   OH240345   4.684   0.569  16.149  0.0309 -0.2379 -0.1576
 6285TIP3    H140346   4.684   0.664  16.156 -0.6050 -0.2227 -0.3619
 6285TIP3    H240347   4.731   0.539  16.228 -1.7280  0.1535  1.0938
 6286TIP3   OH240348   1.764   6.282   4.772 -0.0648 -0.3094  0.1505
 6286TIP3    H140349   1.845   6.262   4.725  0.2149 -0.0845  0.5264
 6286TIP3    H240350   1.793   6.314   4.858 -0.5139  0.6236 -0.0275
 6287TIP3   OH240351   5.758   6.446   6.252 -0.1555 -0.2809 -0.0634
 6287TIP3    H140352   5.788   6.374   6.198  1.3217  0.4348 -0.2551
 6287TIP3    H240353   5.731   6.405   6.334  3.0853 -0.8876  0.8236
 6288TIP3   OH240354   5.970   0.664   5.871 -0.1402 -0.7591  0.1558
 6288TIP3    H140355   5.942   0.750   5.903 -0.2551 -0.7742  0.0970
 6288TIP3    H240356   5.900   0.604   5.898 -0.7323 -0.6022 -1.0024
 6289TIP3   OH240357   0.011   0.383   5.197  0.1574 -0.5833 -0.1376
 6289TIP3    H140358   0.033   0.449   5.131  1.1173  0.3789  1.0993
 6289TIP3    H240359   0.093   0.368   5.244 -0.0986 -2.5365 -0.2570
 6290TIP3   OH240360   0.509   5.596  15.692 -0.2802  0.3843  0.0275
 6290TIP3    H140361   0.508   5.600  15.788  0.4446  1.1934  0.0072
 6290TIP3    H240362   0.601   5.581  15.670  0.1769  3.6046 -0.6414
 6291TIP3   OH240363   1.272   4.935   2.527  0.3576 -0.2539  0.6253
 6291TIP3    H140364   1.247   5.003   2.590  0.3644  0.5491 -0.2323
 6291TIP3    H240365   1.352   4.968   2.487  0.7358 -1.0869  0.6702
 6292TIP3   OH240366   5.933   0.445   4.403 -0.5870 -0.0689 -0.1267
 6292TIP3    H140367   5.898   0.411   4.320 -0.0406 -1.3017  0.1136
 6292TIP3    H240368   5.987   0.373   4.436  0.0359  0.8022  0.7930
 6293TIP3   OH240369   2.423   1.839  14.137 -0.2479 -0.1293  0.6598
 6293TIP3    H140370   2.351   1.860  14.078  1.0913 -1.7082 -1.7636
 6293TIP3    H240371   2.473   1.921  14.144 -0.9824  0.3479  0.3989
 6294TIP3   OH240372   2.910   5.771  15.384 -0.3722 -0.4986 -0.2090
 6294TIP3    H140373   2.944   5.727  15.305 -0.6133 -1.3947  0.1679
 6294TIP3    H240374   2.983   5.769  15.446 -1.5817 -4.3725  1.3903
 6295TIP3   OH240375   3.613   4.979  14.169 -0.0073 -0.4132 -0.0468
 6295TIP3    H140376   3.653   4.982  14.082  0.0049 -0.3481 -0.0387
 6295TIP3    H240377   3.656   4.905  14.213  0.5879  0.0655  0.1989
 6296TIP3   OH240378   5.942   1.483   0.958  0.3089 -0.1740 -0.4949
 6296TIP3    H140379   5.967   1.517   0.873 -0.3632  2.1527  0.1666
 6296TIP3    H240380   5.945   1.558   1.017 -2.5201 -0.9261  0.8307
 6297TIP3   OH240381   5.705   0.992   4.086  0.2398  0.6242  0.1442
 6297TIP3    H140382   5.735   0.925   4.148  0.3215  0.9847  0.4986
 6297TIP3    H240383   5.618   1.017   4.119 -0.5709 -0.5798 -1.0054
 6298TIP3   OH240384   5.854   0.473   0.393 -0.3541  0.0746 -0.0276
 6298TIP3    H140385   5.766   0.490   0.426 -0.4318 -0.2344 -0.0757
 6298TIP3    H240386   5.848   0.488   0.299 -0.4026 -0.1268 -0.0579
 6299TIP3   OH240387   2.084   4.527   3.754 -0.2231  0.4831 -0.3044
 6299TIP3    H140388   2.135   4.607   3.751 -1.3049  1.3105  1.5171
 6299TIP3    H240389   2.022   4.534   3.681  0.9491  0.3650 -1.3324
 6300TIP3   OH240390   5.733   3.465  11.396 -0.2535 -0.1151 -0.2079
 6300TIP3    H140391   5.824   3.476  11.425 -0.6589 -0.6693  1.3916
 6300TIP3    H240392   5.713   3.546  11.350  1.3159 -0.3459 -1.3912
 6301TIP3   OH240393   6.584   3.999  14.705 -0.1883  0.1284 -0.1083
 6301TIP3    H140394   6.528   3.952  14.643  1.5789  1.2747 -2.7751
 6301TIP3    H240395   6.524   4.051  14.758 -1.7512  2.5250 -3.8542
 6302TIP3   OH240396   0.754   5.855   6.682 -0.3937  0.5217 -0.0523
 6302TIP3    H140397   0.733   5.763   6.698 -1.7885 -0.1135 -4.1601
 6302TIP3    H240398   0.837   5.853   6.634  0.1032  1.5401  0.7234
 6303TIP3   OH240399   2.251   6.348  10.746 -0.0170 -0.2015  0.4202
 6303TIP3    H140400   2.254   6.439  10.776  1.9237  0.7529 -2.2912
 6303TIP3    H240401   2.179   6.346  10.683  2.2554  0.5849 -2.3910
 6304TIP3   OH240402   4.158   4.589  14.660 -0.1866 -0.2760  0.0996
 6304TIP3    H140403   4.074   4.601  14.616 -0.5033  1.5583  1.1205
 6304TIP3    H240404   4.138   4.601  14.753  1.2438  0.4417  0.3326
 6305TIP3   OH240405   3.642   3.548   3.714  0.2992  0.2332  0.5945
 6305TIP3    H140406   3.684   3.474   3.756 -0.2129 -1.0509 -1.0245
 6305TIP3    H240407   3.714   3.605   3.686  0.9142 -1.0566 -0.5760
 6306TIP3   OH240408   3.021   0.732  14.580  0.4990  0.4038 -0.0463
 6306TIP3    H140409   3.019   0.783  14.499 -0.2351 -0.9238 -0.9019
 6306TIP3    H240410   3.083   0.778  14.636  1.3109  1.1489 -1.5062
 6307TIP3   OH240411   0.676   5.201   2.485 -0.0740 -0.4286 -0.1441
 6307TIP3    H140412   0.680   5.119   2.534 -0.7474 -0.0677  0.5404
 6307TIP3    H240413   0.592   5.197   2.439 -0.4466  0.1888  0.4709
 6308TIP3   OH240414   3.758   3.497  11.565 -0.4089  0.0270 -0.0802
 6308TIP3    H140415   3.795   3.493  11.654 -1.0909  1.0516  0.2741
 6308TIP3    H240416   3.733   3.407  11.546  1.0757 -0.4698  0.1679
 6309TIP3   OH240417   5.634   2.769  11.427  0.4965  0.1441  0.0987
 6309TIP3    H140418   5.704   2.704  11.424  0.0681 -0.3991  1.3058
 6309TIP3    H240419   5.665   2.840  11.370  0.8280 -1.2263 -1.5049
 6310TIP3   OH240420   3.284   5.555  12.431  0.0786  0.4077 -0.4125
 6310TIP3    H140421   3.194   5.585  12.440  0.0458  0.1683  0.0719
 6310TIP3    H240422   3.279   5.484  12.368  0.3221  2.1360 -2.5069
 6311TIP3   OH240423   4.308   0.410   0.408 -0.6890 -0.2996 -0.0823
 6311TIP3    H140424   4.352   0.390   0.490 -0.5298  1.5120  0.3147
 6311TIP3    H240425   4.215   0.399   0.427 -0.7085  0.8266  0.5980
 6312TIP3   OH240426   2.511   1.774  11.330  0.3582 -0.3714 -0.0797
 6312TIP3    H140427   2.576   1.800  11.395 -0.4708  0.4126  0.4699
 6312TIP3    H240428   2.509   1.846  11.267  0.1696 -0.4858 -0.2080
 6313TIP3   OH240429   6.547   1.164  16.246  0.0331  0.2885  0.0706
 6313TIP3    H140430   6.605   1.193  16.316 -0.5295 -0.6275  0.9482
 6313TIP3    H240431   6.478   1.114  16.291 -0.4068 -0.2230 -1.1223
 6314TIP3   OH240432   3.466   1.778   2.050 -0.1745  0.1937  0.2209
 6314TIP3    H140433   3.482   1.770   1.956 -1.1767 -1.5198  0.1573
 6314TIP3    H240434   3.455   1.872   2.065 -1.3381  0.3863 -1.6231
 6315TIP3   OH240435   4.097   1.514   0.281  0.1074  0.2855 -0.1497
 6315TIP3    H140436   4.074   1.441   0.338  0.6505  0.2119 -0.0213
 6315TIP3    H240437   4.185   1.539   0.308 -0.0643  0.9791 -0.2003
 6316TIP3   OH240438   3.109   0.355   4.252  0.4851  0.4364  0.2620
 6316TIP3    H140439   3.015   0.372   4.246  0.3120 -0.4136  0.4434
 6316TIP3    H240440   3.149   0.419   4.193 -0.1867  0.9590  0.3622
 6317TIP3   OH240441   0.740   0.043   6.057  0.0660 -0.0193  0.0347
 6317TIP3    H140442   0.706  -0.034   6.012  2.3004 -0.5863 -0.7893
 6317TIP3    H240443   0.724   0.116   5.997  0.8977 -0.3869 -0.6421
 6318TIP3   OH240444   2.699   6.066  17.364 -0.1472 -1.0366 -0.1316
 6318TIP3    H140445   2.713   6.157  17.389 -1.7568 -0.9031  0.4210
 6318TIP3    H240446   2.695   6.018  17.446  1.2489 -1.7278 -0.4391
 6319TIP3   OH240447   1.848   2.607   6.144 -0.3207  0.2414 -0.3697
 6319TIP3    H140448   1.834   2.525   6.189 -1.0803  0.7186  0.2793
 6319TIP3    H240449   1.841   2.674   6.212 -1.5427  0.9728 -1.1826
 6320TIP3   OH240450   0.814   2.038  15.227 -0.4473  0.1845 -0.1455
 6320TIP3    H140451   0.900   2.054  15.189 -0.4873 -0.2968 -0.4450
 6320TIP3    H240452   0.833   1.990  15.308 -0.5430 -2.5559 -1.6417
 6321TIP3   OH240453   1.745   2.349   2.246 -0.4353  0.9008 -0.5048
 6321TIP3    H140454   1.707   2.302   2.171 -0.4322  0.6359 -0.3431
 6321TIP3    H240455   1.683   2.333   2.318  0.3593 -0.1749 -0.0390
 6322TIP3   OH240456   3.436   3.957  12.326 -0.0335 -0.2458  0.4063
 6322TIP3    H140457   3.461   3.983  12.237  1.0328 -2.2452  0.0526
 6322TIP3    H240458   3.512   3.980  12.380  0.9506 -2.4737  0.0782
 6323TIP3   OH240459   2.294   5.272  15.491 -0.1014 -0.1761  0.1906
 6323TIP3    H140460   2.343   5.195  15.520 -1.3162 -1.2223 -0.4122
 6323TIP3    H240461   2.269   5.316  15.572  2.1019  0.6190  0.5138
 6324TIP3   OH240462   1.198   0.782  14.787  0.1520  0.1806 -0.4444
 6324TIP3    H140463   1.280   0.821  14.755 -0.6256  1.5272 -0.8751
 6324TIP3    H240464   1.225   0.728  14.861  1.2473  2.1354  0.6646
 6325TIP3   OH240465   5.289   0.719   1.360  0.2626 -0.1526  0.1328
 6325TIP3    H140466   5.383   0.707   1.371  0.2843  0.2262  0.3691
 6325TIP3    H240467   5.280   0.805   1.319  0.0147 -0.1466  0.1964
 6326TIP3   OH240468   5.610   1.243   3.981 -0.2057 -0.7071  0.2923
 6326TIP3    H140469   5.525   1.198   3.988 -0.0095 -1.2185 -0.4741
 6326TIP3    H240470   5.673   1.173   3.967  0.5112 -0.4241  1.9487
 6327TIP3   OH240471   2.958   6.456   5.209 -0.2323  0.2489  0.2469
 6327TIP3    H140472   2.970   6.362   5.226 -1.2470  0.0480 -0.1131
 6327TIP3    H240473   3.029   6.498   5.258 -0.1214 -0.6647  0.9021
 6328TIP3   OH240474   2.152   1.126  11.688 -0.3072 -0.3366  0.0715
 6328TIP3    H140475   2.243   1.096  11.681  0.5319  2.1314 -0.6826
 6328TIP3    H240476   2.107   1.085  11.614  0.4236 -0.8898 -0.0737
 6329TIP3   OH240477   0.021   6.367  15.288  0.4017  0.1655 -0.0200
 6329TIP3    H140478   0.004   6.289  15.340 -2.4517 -0.3331 -1.5149
 6329TIP3    H240479   0.051   6.333  15.203 -1.2293  0.6259 -0.8115
 6330TIP3   OH240480   0.139   0.101   4.237  0.4913 -0.2744 -0.1655
 6330TIP3    H140481   0.058   0.052   4.254 -0.4782  2.2234  3.4926
 6330TIP3    H240482   0.199   0.073   4.306  1.3693  0.7645 -0.4896
 6331TIP3   OH240483   6.702   2.346  14.091 -0.2340 -0.0243 -0.1257
 6331TIP3    H140484   6.654   2.277  14.044 -0.9725  0.5666 -0.2488
 6331TIP3    H240485   6.774   2.369  14.031  0.6029 -1.3406  0.3244
 6332TIP3   OH240486   6.539   6.712  12.056  0.3043 -0.2802  0.5789
 6332TIP3    H140487   6.525   6.741  12.146 -2.2354 -0.3946  0.3036
 6332TIP3    H240488   6.452   6.687  12.025  1.1264 -0.4242 -1.8544
 6333TIP3   OH240489   1.682   4.437   3.385 -0.1302  0.1205 -0.1303
 6333TIP3    H140490   1.682   4.495   3.309  1.8791  0.7741  0.3023
 6333TIP3    H240491   1.655   4.492   3.458  1.3789  0.4433  0.2109
 6334TIP3   OH240492   0.847   3.830  17.279 -0.1641  0.6486 -0.2718
 6334TIP3    H140493   0.877   3.914  17.245  0.0704  0.6768 -0.0029
 6334TIP3    H240494   0.904   3.766  17.236  0.3995  0.7132  0.3494
 6335TIP3   OH240495   0.120   3.751  16.957 -0.0196  0.1462 -0.1024
 6335TIP3    H140496   0.136   3.841  16.987  0.4778 -0.4697  1.6087
 6335TIP3    H240497   0.092   3.705  17.036 -0.5302 -1.1507 -1.0155
 6336TIP3   OH240498   1.132   6.019  14.732  0.2435 -0.2848 -0.3279
 6336TIP3    H140499   1.037   6.027  14.724  0.4229  1.3393 -1.0658
 6336TIP3    H240500   1.164   6.015  14.642  0.9374 -0.1131 -0.0942
 6337TIP3   OH240501   1.647   1.930   4.137 -0.0616  0.4660  0.5910
 6337TIP3    H140502   1.675   1.848   4.179  0.0102  0.0517 -0.2400
 6337TIP3    H240503   1.597   1.975   4.204 -1.1031 -0.7909  0.7068
 6338TIP3   OH240504   5.420   3.815  12.587 -0.4968  0.0758 -0.1262
 6338TIP3    H140505   5.466   3.733  12.572  0.2699  0.0266  2.0660
 6338TIP3    H240506   5.375   3.833  12.505  1.8568 -0.8923 -1.7446
 6339TIP3   OH240507   5.477   5.578   2.827 -0.0794 -0.1152 -0.7186
 6339TIP3    H140508   5.499   5.595   2.919  1.6015 -0.9132 -0.9442
 6339TIP3    H240509   5.384   5.555   2.829 -0.1777  0.2978  0.7273
 6340TIP3   OH240510   4.808   3.846  13.893  0.3597  0.0847 -0.7272
 6340TIP3    H140511   4.760   3.878  13.816 -0.5511  0.0543 -0.1968
 6340TIP3    H240512   4.739   3.825  13.956  1.1167  1.6370  0.7040
 6341TIP3   OH240513   5.646   0.687   5.842 -0.0857 -0.0804  0.2597
 6341TIP3    H140514   5.719   0.735   5.804  0.4219 -0.0296  1.2776
 6341TIP3    H240515   5.628   0.731   5.925 -0.3244 -0.9595  0.6929
 6342TIP3   OH240516   6.494   2.795  12.247  0.3261 -0.0441 -0.3254
 6342TIP3    H140517   6.410   2.841  12.242 -0.5854 -1.1414  2.7261
 6342TIP3    H240518   6.539   2.836  12.321  1.2377 -1.3348 -0.1354
 6343TIP3   OH240519   0.588   5.959  17.370 -0.1264 -0.4121  0.0106
 6343TIP3    H140520   0.580   5.911  17.453  0.6802 -2.0092 -0.7722
 6343TIP3    H240521   0.604   5.890  17.305 -0.6916  0.8098 -1.4665
 6344TIP3   OH240522   3.631   2.034   1.171 -0.0457 -0.0306 -0.4129
 6344TIP3    H140523   3.634   2.121   1.132  2.6545  0.9955  1.7603
 6344TIP3    H240524   3.682   1.979   1.112  1.8471  0.9262  0.2298
 6345TIP3   OH240525   6.000   1.200  17.296 -0.1616 -0.5395 -0.1814
 6345TIP3    H140526   6.002   1.216  17.201 -0.4081  0.6841 -0.0023
 6345TIP3    H240527   6.075   1.144  17.312  0.0427 -0.5403 -1.0732
 6346TIP3   OH240528   1.389   5.950   6.418 -0.4783 -0.0050 -0.1480
 6346TIP3    H140529   1.480   5.976   6.409 -0.6077  0.8651  0.7947
 6346TIP3    H240530   1.353   5.953   6.329  0.3889 -0.3030 -0.5141
 6347TIP3   OH240531   0.875   5.972  14.055 -0.3676 -0.1985 -0.1012
 6347TIP3    H140532   0.819   5.966  13.977  0.8172 -1.2921 -0.9118
 6347TIP3    H240533   0.938   6.041  14.035 -0.1636 -0.3665 -0.0415
 6348TIP3   OH240534   6.398   1.589   1.817 -0.3681  0.1078  0.0685
 6348TIP3    H140535   6.343   1.667   1.814 -1.7651 -0.8276  0.5950
 6348TIP3    H240536   6.464   1.608   1.884  1.7083  2.2975 -2.3773
 6349TIP3   OH240537   4.353   2.147   4.118  0.7045  0.2174  0.4611
 6349TIP3    H140538   4.359   2.233   4.076 -0.3646 -0.0317 -0.2533
 6349TIP3    H240539   4.329   2.088   4.047  0.6859 -0.5409  1.0906
 6350TIP3   OH240540   4.237   2.845  12.987  0.2133  0.3355  0.4727
 6350TIP3    H140541   4.147   2.814  12.993 -0.9257  2.7824 -1.7614
 6350TIP3    H240542   4.275   2.796  12.914  0.3105  0.1031  0.6801
 6351TIP3   OH240543   2.950   2.973  16.241  0.2870  0.1457  0.1395
 6351TIP3    H140544   2.865   2.943  16.272  0.3749 -0.0083  0.2330
 6351TIP3    H240545   3.010   2.903  16.265  0.8504  1.2352  2.0978
 6352TIP3   OH240546   0.489   2.782   2.198 -0.1943 -0.2484 -0.4082
 6352TIP3    H140547   0.421   2.784   2.130 -0.4997  0.5935 -0.0935
 6352TIP3    H240548   0.544   2.858   2.179 -0.5715  0.2849  0.5640
 6353TIP3   OH240549   2.784   0.556   5.117  0.7903 -0.0591  0.2333
 6353TIP3    H140550   2.774   0.579   5.024  3.2504  0.2108 -0.0311
 6353TIP3    H240551   2.879   0.557   5.132  0.4679 -0.3120  2.7151
 6354TIP3   OH240552   0.420   5.615  13.127  0.3778  0.2770 -0.2192
 6354TIP3    H140553   0.467   5.673  13.187  0.4590 -0.6521  0.6472
 6354TIP3    H240554   0.399   5.538  13.180 -1.1724  0.2020 -0.8926
 6355TIP3   OH240555   4.475   5.715   4.988  0.2952  0.5832  0.0279
 6355TIP3    H140556   4.412   5.758   5.045  0.2880  0.4993  0.0839
 6355TIP3    H240557   4.556   5.765   4.999  0.4508  0.2319  0.5415
 6356TIP3   OH240558   1.289   2.992  12.188  0.3741 -0.3427 -0.2585
 6356TIP3    H140559   1.289   2.898  12.203 -1.4091 -0.5652 -1.3453
 6356TIP3    H240560   1.381   3.014  12.174  0.8023 -1.9354 -0.1545
 6357TIP3   OH240561   2.739   0.284  16.829 -0.0093 -0.0813  0.0744
 6357TIP3    H140562   2.705   0.360  16.876  0.3405 -1.2812  2.4689
 6357TIP3    H240563   2.710   0.296  16.739 -0.5705  2.4905  0.5146
 6358TIP3   OH240564   6.530   6.613   3.648  0.2055 -0.2509  0.4867
 6358TIP3    H140565   6.579   6.533   3.630 -1.6609 -0.9428 -2.1002
 6358TIP3    H240566   6.447   6.583   3.684  0.4185  0.7136  1.8543
 6359TIP3   OH240567   1.385   3.362  10.450  0.3189 -0.0803 -0.3387
 6359TIP3    H140568   1.318   3.368  10.518  1.8486  1.3563  1.1677
 6359TIP3    H240569   1.356   3.290  10.394 -0.6308 -1.9545  2.3088
 6360TIP3   OH240570   5.661   1.161   0.169  0.0906 -0.2670 -1.0508
 6360TIP3    H140571   5.576   1.177   0.127 -2.0974  0.6037  3.1389
 6360TIP3    H240572   5.651   1.076   0.212  0.0801  1.0207  1.7861
 6361TIP3   OH240573   6.641   1.404   0.681  0.6598 -0.0648 -0.6584
 6361TIP3    H140574   6.606   1.490   0.656 -1.7760 -0.4986  0.9458
 6361TIP3    H240575   6.597   1.342   0.622  0.6320 -0.4059 -0.2841
 6362TIP3   OH240576   1.019   3.618   1.468 -0.3797  0.2019  0.2801
 6362TIP3    H140577   1.042   3.659   1.384  0.4816 -0.0253  0.3912
 6362TIP3    H240578   0.981   3.534   1.443 -0.1100  0.1273  0.1087
 6363TIP3   OH240579   0.905   1.485   1.277 -0.1288 -0.1947  0.2984
 6363TIP3    H140580   0.831   1.440   1.319  0.4755 -0.7885  0.7640
 6363TIP3    H240581   0.867   1.533   1.204 -1.0317 -0.1520  0.7906
 6364TIP3   OH240582   0.965   5.319  17.351  0.2525  0.1742  0.0317
 6364TIP3    H140583   1.025   5.343  17.422  2.0280  0.0506 -1.3732
 6364TIP3    H240584   1.001   5.238  17.315 -0.9987 -0.1278 -0.6062
 6365TIP3   OH240585   6.609   0.706   4.108  0.4488  0.9310  0.0492
 6365TIP3    H140586   6.581   0.666   4.190  1.9148  0.4088  0.3242
 6365TIP3    H240587   6.615   0.633   4.046 -1.6318  1.4479 -0.8619
 6366TIP3   OH240588   5.435   3.891   0.666  0.7871  0.4528 -0.1968
 6366TIP3    H140589   5.357   3.837   0.660  0.3809  0.9474  0.5884
 6366TIP3    H240590   5.489   3.863   0.592  0.1936 -0.3964 -0.3159
 6367TIP3   OH240591   1.817   0.141   5.228  0.1013  0.1291 -0.1826
 6367TIP3    H140592   1.755   0.165   5.297 -0.6455 -0.8755 -0.4895
 6367TIP3    H240593   1.763   0.125   5.151  0.9672  1.7789 -1.1843
 6368TIP3   OH240594   3.441   5.814   1.522  0.3500  0.4422  0.1117
 6368TIP3    H140595   3.491   5.828   1.603 -0.3506 -1.0340  0.8372
 6368TIP3    H240596   3.484   5.738   1.481 -1.8209 -1.5362  1.2681
 6369TIP3   OH240597   1.294   2.817   0.809 -0.1410  0.0954  0.3560
 6369TIP3    H140598   1.337   2.903   0.804 -0.9370  0.5053  0.3871
 6369TIP3    H240599   1.356   2.762   0.857  0.5410  0.5506  0.0106
 6370TIP3   OH240600   2.550   0.130   2.051  0.7770 -0.0742  0.0800
 6370TIP3    H140601   2.606   0.055   2.033 -0.5372 -0.7864 -1.2078
 6370TIP3    H240602   2.467   0.092   2.079 -0.9217  0.6859 -3.4117
 6371TIP3   OH240603   0.020   6.433   4.694  0.2928 -0.1504  0.1950
 6371TIP3    H140604   0.014   6.339   4.712  0.7906 -0.6976 -2.1486
 6371TIP3    H240605   0.089   6.465   4.752 -0.2053 -1.1029  1.3632
 6372TIP3   OH240606   5.903   6.350  14.867  0.1787  0.0609  0.1689
 6372TIP3    H140607   5.881   6.319  14.954 -0.7699 -0.9228 -0.4002
 6372TIP3    H240608   5.858   6.434  14.859  2.4674  1.5433  1.5820
 6373TIP3   OH240609   0.612   1.026  14.542  0.0500 -0.1204 -0.1107
 6373TIP3    H140610   0.690   1.029  14.598 -0.8619  0.4353  1.1927
 6373TIP3    H240611   0.626   1.094  14.477  0.5007  0.2131  0.3301
 6374TIP3   OH240612   1.327   4.234   4.480 -0.0670 -0.0760  0.0384
 6374TIP3    H140613   1.413   4.222   4.522 -0.4617  1.7457  1.5060
 6374TIP3    H240614   1.348   4.266   4.392  0.7604 -0.6880 -0.0024
 6375TIP3   OH240615   2.282   0.066   1.464 -0.1911  0.5523  0.7853
 6375TIP3    H140616   2.349   0.004   1.493 -0.8356 -1.8523 -2.2563
 6375TIP3    H240617   2.310   0.093   1.376 -1.8496  1.6094  0.5286
 6376TIP3   OH240618   4.086   2.231  11.548 -0.6505  0.0735  0.0868
 6376TIP3    H140619   4.125   2.273  11.625 -0.7842  0.9293 -0.3045
 6376TIP3    H240620   4.152   2.239  11.480 -1.4533  1.5091 -0.5731
 6377TIP3   OH240621   3.037   3.762  14.810  0.5290  0.5184  0.2535
 6377TIP3    H140622   2.987   3.774  14.891  0.7964  1.1046  0.3431
 6377TIP3    H240623   3.084   3.845  14.800 -0.9729  1.2081 -1.5389
 6378TIP3   OH240624   3.759   2.269   3.134  0.5383  0.6962  0.4317
 6378TIP3    H140625   3.699   2.197   3.151  0.8168  0.3789  0.0933
 6378TIP3    H240626   3.702   2.344   3.116  0.2480  0.6972  1.3218
 6379TIP3   OH240627   5.707   3.206  17.101  0.2246 -0.1080 -0.1668
 6379TIP3    H140628   5.801   3.226  17.099  0.4926 -1.2661 -0.5455
 6379TIP3    H240629   5.670   3.271  17.159  1.2688  0.3793 -0.0116
 6380TIP3   OH240630   1.695   0.444  17.022 -0.3511 -0.2264  0.0512
 6380TIP3    H140631   1.655   0.490  16.948  1.0349  1.3547  0.2185
 6380TIP3    H240632   1.645   0.471  17.098  0.1637  0.6809  0.0825
 6381TIP3   OH240633   0.548   6.293   3.256 -0.0826  0.3268 -0.0375
 6381TIP3    H140634   0.624   6.251   3.218 -0.0111  0.2202  0.2215
 6381TIP3    H240635   0.522   6.359   3.191  0.0197  0.1303 -0.2807
 6382TIP3   OH240636   3.722   1.920   1.728  0.4523  0.4872  0.1625
 6382TIP3    H140637   3.789   1.905   1.662 -0.1241  0.3163 -0.3929
 6382TIP3    H240638   3.767   1.906   1.812  0.9648 -0.1866 -0.2165
 6383TIP3   OH240639   1.376   1.026  16.367  0.2586 -0.3037 -0.1721
 6383TIP3    H140640   1.358   1.094  16.303 -1.9952 -2.5939 -2.1750
 6383TIP3    H240641   1.449   1.061  16.419  0.0695  3.0113 -1.8769
 6384TIP3   OH240642   6.014   2.063   1.557 -0.4403  0.3586 -0.1638
 6384TIP3    H140643   6.007   2.091   1.648  0.8611  1.1840 -0.2884
 6384TIP3    H240644   6.087   2.114   1.522  1.1607 -2.1566 -0.8119
 6385TIP3   OH240645   2.647   3.975   3.385 -0.3727 -0.2512 -0.1963
 6385TIP3    H140646   2.608   3.919   3.451 -1.2646 -0.7753 -1.1473
 6385TIP3    H240647   2.731   3.933   3.364 -0.5528 -0.6384 -0.1385
 6386TIP3   OH240648   6.609   4.940  16.873 -0.1950 -0.1326  0.1172
 6386TIP3    H140649   6.689   4.888  16.864  1.0573  1.2029  2.3821
 6386TIP3    H240650   6.582   4.958  16.783  2.7326  0.3145 -0.7835
 6387TIP3   OH240651   3.312   4.711  14.409  0.2781 -0.3595  0.2900
 6387TIP3    H140652   3.379   4.642  14.405  0.1277 -0.4429 -2.1756
 6387TIP3    H240653   3.310   4.736  14.502 -0.1836 -4.1336  1.5026
 6388TIP3   OH240654   5.604   3.622  14.860 -0.4904  0.3554 -0.9002
 6388TIP3    H140655   5.677   3.560  14.858  0.3448  1.3182 -3.0321
 6388TIP3    H240656   5.527   3.569  14.842  0.0562 -0.2655 -1.4736
 6389TIP3   OH240657   4.926   4.598   4.401 -0.3583  0.0058  0.2719
 6389TIP3    H140658   4.863   4.667   4.420 -0.4776 -0.3252  1.1503
 6389TIP3    H240659   4.893   4.557   4.321 -0.4485  0.7651 -0.0894
 6390TIP3   OH240660   4.767   1.781  16.817 -0.4043 -0.1622 -0.0707
 6390TIP3    H140661   4.767   1.750  16.726  0.0060 -0.4430  0.0228
 6390TIP3    H240662   4.760   1.702  16.870  1.4585 -0.2011  0.1921
 6391TIP3   OH240663   4.237   3.972   2.758  0.1963  0.2831 -0.4747
 6391TIP3    H140664   4.155   3.979   2.807  0.1660 -0.6619 -0.3724
 6391TIP3    H240665   4.298   4.029   2.806 -0.5093  1.3553 -0.8196
 6392TIP3   OH240666   3.001   3.769  17.440 -0.1147 -0.6735 -0.1695
 6392TIP3    H140667   2.914   3.729  17.449  0.3331 -2.1307 -1.8185
 6392TIP3    H240668   3.052   3.733  17.513 -0.6281 -0.5141  0.2771
 6393TIP3   OH240669   1.994   0.358   6.073  0.0142  0.1701  0.4476
 6393TIP3    H140670   2.049   0.319   6.141  0.8274  1.3478  0.4892
 6393TIP3    H240671   1.904   0.344   6.105  0.1818 -2.5326 -0.0372
 6394TIP3   OH240672   3.909   2.592  16.552 -0.5140  0.0549  0.1475
 6394TIP3    H140673   3.949   2.512  16.587  0.8755  0.1120 -1.1978
 6394TIP3    H240674   3.816   2.569  16.541 -0.0937 -1.4992 -0.4968
 6395TIP3   OH240675   0.653   1.635   0.838  0.6672  0.2059  0.0486
 6395TIP3    H140676   0.716   1.620   0.909  1.3059  0.7487 -0.3921
 6395TIP3    H240677   0.707   1.644   0.760 -0.1293 -2.8099 -0.9805
 6396TIP3   OH240678   5.112   6.275  10.924 -0.1863 -0.1629 -0.0939
 6396TIP3    H140679   5.059   6.230  10.858  0.3444  1.0642 -1.3921
 6396TIP3    H240680   5.087   6.367  10.917 -0.6935 -0.0832  1.9866
 6397TIP3   OH240681   3.791   5.598   4.070 -0.0405 -0.2025  0.5792
 6397TIP3    H140682   3.828   5.686   4.070  1.0469 -0.6175 -0.2773
 6397TIP3    H240683   3.863   5.542   4.099 -0.6122 -0.8422  0.7951
 6398TIP3   OH240684   0.502   5.278  14.714  0.3018  0.3635 -0.6448
 6398TIP3    H140685   0.506   5.233  14.799 -0.0884  1.2099 -0.1631
 6398TIP3    H240686   0.592   5.306  14.697  0.7729 -1.5163 -1.4840
 6399TIP3   OH240687   6.686   0.462   3.976 -0.4693  0.4941 -0.5275
 6399TIP3    H140688   6.669   0.372   3.948 -0.1450  0.1002  0.4910
 6399TIP3    H240689   6.744   0.453   4.051  0.1683  1.5952 -0.8634
 6400TIP3   OH240690   3.175   0.358   0.883  0.3146  0.0434 -0.4414
 6400TIP3    H140691   3.198   0.344   0.791  0.5221 -0.6906 -0.2855
 6400TIP3    H240692   3.106   0.294   0.901  1.9844 -1.6152  0.5617
 6401TIP3   OH240693   4.154   0.570  12.318 -0.1450 -0.4914 -0.2399
 6401TIP3    H140694   4.202   0.564  12.235 -1.9877 -1.2478 -1.3166
 6401TIP3    H240695   4.137   0.664  12.329 -1.0126 -0.4721 -1.4505
 6402TIP3   OH240696   1.417   2.680   2.059 -0.4710 -0.5875 -0.2703
 6402TIP3    H140697   1.427   2.768   2.023 -1.6339 -0.9354 -1.5474
 6402TIP3    H240698   1.360   2.635   1.996 -1.2887 -1.7304  1.2200
 6403TIP3   OH240699   3.177   0.451  15.924  0.0204  0.3501  0.3541
 6403TIP3    H140700   3.194   0.372  15.976 -0.1147  0.0112 -0.1065
 6403TIP3    H240701   3.247   0.511  15.948  2.1132 -1.1000 -1.6910
 6404TIP3   OH240702   3.091   4.385  16.163 -0.7081 -0.4017  0.1297
 6404TIP3    H140703   3.089   4.474  16.127 -1.5603 -1.7756 -3.6941
 6404TIP3    H240704   2.999   4.363  16.176 -0.8619 -1.8871 -2.6290
 6405TIP3   OH240705   3.972   2.996   6.053 -0.1669  0.2903  0.3741
 6405TIP3    H140706   3.937   2.936   5.987 -0.5417  3.3202 -2.3990
 6405TIP3    H240707   3.897   3.051   6.077  0.6564  1.1184  1.1165
 6406TIP3   OH240708   0.686   0.631   3.580 -0.7083 -0.8617 -0.1631
 6406TIP3    H140709   0.681   0.714   3.628  1.1552 -0.6682 -0.2454
 6406TIP3    H240710   0.737   0.652   3.501 -1.3985 -1.7955 -0.8794
 6407TIP3   OH240711   1.934   3.798   4.010  0.0095  0.1919  0.1999
 6407TIP3    H140712   1.922   3.865   3.943  0.4916 -0.7852 -0.9164
 6407TIP3    H240713   1.945   3.716   3.960  1.5499 -0.3978  1.4084
 6408TIP3   OH240714   6.369   5.166  11.550 -0.2499 -0.0063  0.2988
 6408TIP3    H140715   6.353   5.259  11.534  1.8553  0.5048  0.8553
 6408TIP3    H240716   6.358   5.124  11.465  0.5174  1.0465 -0.3428
 6409TIP3   OH240717   2.533   2.450   1.596  0.1036 -0.2537  0.4983
 6409TIP3    H140718   2.595   2.522   1.586  1.4681 -1.5286 -0.7729
 6409TIP3    H240719   2.531   2.407   1.510 -1.3132 -1.2278  0.9719
 6410TIP3   OH240720   2.061   4.610  15.668  0.2389  0.3584  0.6825
 6410TIP3    H140721   2.121   4.663  15.721 -0.5921  0.4035  1.6165
 6410TIP3    H240722   2.022   4.671  15.607 -0.5410  0.8111  1.6015
 6411TIP3   OH240723   0.791   1.234   6.747 -0.3323 -0.5164 -0.6796
 6411TIP3    H140724   0.697   1.247   6.757 -0.1599 -0.1197  0.6086
 6411TIP3    H240725   0.821   1.204   6.833  0.9489  0.7739 -0.6333
 6412TIP3   OH240726   3.188   0.884  17.491 -0.4227  0.1232  0.1206
 6412TIP3    H140727   3.219   0.811  17.436 -0.5187 -1.1057  1.6348
 6412TIP3    H240728   3.250   0.955  17.474 -1.6456  0.5901 -3.1878
 6413TIP3   OH240729   3.307   0.546   5.037 -0.1214 -0.1819 -0.1071
 6413TIP3    H140730   3.309   0.588   5.123  3.1067 -1.2824  0.4934
 6413TIP3    H240731   3.380   0.586   4.989  0.8293 -2.5066 -0.7495
 6414TIP3   OH240732   3.330   0.282  12.849 -0.0805  0.1557  0.8001
 6414TIP3    H140733   3.318   0.187  12.839 -0.1405  0.1980  0.4325
 6414TIP3    H240734   3.337   0.296  12.943  1.8053 -0.4415  0.7751
 6415TIP3   OH240735   1.261   1.417   1.903  0.3501 -0.7020  0.7309
 6415TIP3    H140736   1.328   1.348   1.907  1.2480  0.1479  0.5514
 6415TIP3    H240737   1.305   1.491   1.861 -0.8326 -0.2730  0.2150
 6416TIP3   OH240738   5.136   0.237  17.033 -0.0192  0.0983 -0.0968
 6416TIP3    H140739   5.192   0.287  17.093 -1.8077  2.8954 -0.5399
 6416TIP3    H240740   5.052   0.284  17.034 -1.1447 -1.6446 -2.3375
 6417TIP3   OH240741   5.338   1.574  15.974 -0.2089  0.0589  0.6652
 6417TIP3    H140742   5.377   1.646  15.924  1.0492 -0.1530  1.3036
 6417TIP3    H240743   5.311   1.511  15.907  0.4379  0.2719  0.1841
 6418TIP3   OH240744   2.469   0.698   2.489 -0.1260  0.3952  0.0374
 6418TIP3    H140745   2.413   0.775   2.499  2.2895  2.2244  0.4680
 6418TIP3    H240746   2.484   0.667   2.578  1.9970  1.8879  0.2757
 6419TIP3   OH240747   5.231   5.486   4.259 -0.1868 -0.2039 -0.2515
 6419TIP3    H140748   5.280   5.435   4.195  0.8355  0.1183  0.2538
 6419TIP3    H240749   5.176   5.422   4.304  0.6419 -0.7739 -0.0314
 6420TIP3   OH240750   2.810   4.594   4.577 -0.7507 -0.2896 -0.3363
 6420TIP3    H140751   2.850   4.528   4.634 -0.3007  1.5992  1.6790
 6420TIP3    H240752   2.716   4.575   4.581 -0.6650 -0.5684  0.5293
 6421TIP3   OH240753   6.197   4.416  16.647 -0.0088 -0.8002 -0.1491
 6421TIP3    H140754   6.274   4.412  16.590 -0.5641 -1.9707 -0.8551
 6421TIP3    H240755   6.174   4.324  16.662 -1.4161 -0.4667 -0.1648
 6422TIP3   OH240756   1.017   5.609   0.331  0.6199  0.3690  0.4060
 6422TIP3    H140757   0.948   5.610   0.265  1.5419 -0.2036 -0.6088
 6422TIP3    H240758   1.009   5.693   0.376 -0.3174  0.5769 -0.1321
 6423TIP3   OH240759   5.997   0.558   1.654  0.1881 -0.3249 -0.0184
 6423TIP3    H140760   6.090   0.578   1.652 -0.2095  1.9856  1.1928
 6423TIP3    H240761   5.954   0.644   1.659 -1.9800 -1.3491  0.1540
 6424TIP3   OH240762   5.220   3.136  17.216 -0.3533  0.1044 -0.0318
 6424TIP3    H140763   5.244   3.199  17.149  0.5137 -0.7382 -0.5358
 6424TIP3    H240764   5.148   3.086  17.177 -0.2122 -0.0260 -0.1284
 6425TIP3   OH240765   2.509   3.767  17.112 -0.2008 -0.3607 -0.0191
 6425TIP3    H140766   2.428   3.762  17.062 -0.2551  0.2320 -0.0039
 6425TIP3    H240767   2.561   3.834  17.066  0.6359 -1.3308 -0.5376
 6426TIP3   OH240768   1.127   1.926  14.199  0.0553  0.0879  0.7688
 6426TIP3    H140769   1.044   1.883  14.219  0.7859 -0.7507  2.2237
 6426TIP3    H240770   1.106   2.019  14.192 -1.0801 -0.1789  0.5710
 6427TIP3   OH240771   4.289   0.238  12.667  0.2869  0.2976 -0.2830
 6427TIP3    H140772   4.293   0.143  12.651 -0.1002  0.1603  0.4117
 6427TIP3    H240773   4.341   0.276  12.596  2.0056 -0.5495  0.4602
 6428TIP3   OH240774   4.966   4.202  11.118 -0.0380  0.0305  0.1661
 6428TIP3    H140775   4.894   4.155  11.076  0.3137 -0.4563  0.1009
 6428TIP3    H240776   4.957   4.293  11.087 -0.3696 -0.1145 -0.1686
 6429TIP3   OH240777   0.241   3.309  14.365 -0.1670  0.4882 -0.1809
 6429TIP3    H140778   0.234   3.274  14.454  2.5846 -0.3782 -0.2200
 6429TIP3    H240779   0.154   3.295  14.327 -0.2689 -2.9633  1.0277
 6430TIP3   OH240780   3.226   1.561   2.644  0.6074 -0.1647 -0.0167
 6430TIP3    H140781   3.188   1.649   2.636 -0.7431 -0.7392 -0.2987
 6430TIP3    H240782   3.166   1.505   2.594  2.1589 -1.0637 -0.9254
 6431TIP3   OH240783   1.954   6.258  11.459 -0.4864  0.1572 -0.0308
 6431TIP3    H140784   1.889   6.204  11.504  3.5097 -2.2417  3.7559
 6431TIP3    H240785   1.989   6.201  11.391  0.3431 -0.2087  0.6764
 6432TIP3   OH240786   4.591   0.069  16.552  0.0554  0.0447  0.3108
 6432TIP3    H140787   4.602   0.136  16.619 -0.6931 -0.6001  1.0910
 6432TIP3    H240788   4.631  -0.009  16.589 -0.2091 -0.2706 -0.0659
 6433TIP3   OH240789   0.705   0.096   0.805 -0.7070  0.5858 -0.1836
 6433TIP3    H140790   0.773   0.049   0.757 -2.1771 -1.1998 -0.5978
 6433TIP3    H240791   0.690   0.176   0.754  0.0299  0.2864 -0.8800
 6434TIP3   OH240792   3.740   5.270   3.698  0.0892 -0.2982  0.1448
 6434TIP3    H140793   3.704   5.324   3.768 -0.1724 -0.0831 -0.1499
 6434TIP3    H240794   3.671   5.204   3.682  0.1067 -0.2864  0.0232
 6435TIP3   OH240795   0.657   3.828   3.595  0.5065  0.5129 -0.0994
 6435TIP3    H140796   0.612   3.891   3.652  0.6329  0.8347 -0.3518
 6435TIP3    H240797   0.586   3.783   3.549  0.3302 -0.7063  1.2918
 6436TIP3   OH240798   3.647   4.890   1.610  0.2770 -0.0497 -0.1341
 6436TIP3    H140799   3.705   4.870   1.536  0.5164  1.1001 -0.2714
 6436TIP3    H240800   3.593   4.963   1.579 -1.5095 -1.3192 -0.1425
 6437TIP3   OH240801   5.154   2.820   1.768  0.0396 -0.2567 -0.2555
 6437TIP3    H140802   5.129   2.912   1.760 -1.8573 -0.5646  1.2633
 6437TIP3    H240803   5.158   2.788   1.677 -2.7646  0.5068 -0.7381
 6438TIP3   OH240804   3.363   0.581  12.406  0.2022 -0.0851  0.9321
 6438TIP3    H140805   3.285   0.612  12.360  1.4378  1.5978 -0.1513
 6438TIP3    H240806   3.407   0.524  12.343  0.9289  0.6947  0.7218
 6439TIP3   OH240807   3.034   1.846   0.358  0.3218  0.2866 -0.0436
 6439TIP3    H140808   3.109   1.858   0.300 -0.4603 -0.4995 -1.2541
 6439TIP3    H240809   3.037   1.753   0.383 -0.9219 -0.0690 -1.1068
 6440TIP3   OH240810   2.309   1.927   2.587 -0.3422 -0.5170  0.0971
 6440TIP3    H140811   2.391   1.949   2.542  1.2423 -0.8939  2.6206
 6440TIP3    H240812   2.315   1.833   2.603 -1.5101 -0.6363 -0.0768
 6441TIP3   OH240813   2.708   2.001  11.941 -0.5663  0.2798  0.0751
 6441TIP3    H140814   2.718   1.955  11.857 -0.3945  0.8147 -0.2055
 6441TIP3    H240815   2.615   2.023  11.945 -0.9174 -1.2434  0.8357
 6442TIP3   OH240816   3.372   3.103  12.328  0.3194 -0.0959 -0.7378
 6442TIP3    H140817   3.466   3.085  12.322  0.1055 -0.7588 -3.1218
 6442TIP3    H240818   3.332   3.041  12.267 -1.9933 -1.7368  2.1948
 6443TIP3   OH240819   0.595   0.455  12.552 -0.3224 -0.6433  0.5948
 6443TIP3    H140820   0.629   0.533  12.595 -0.1440 -0.6753  0.5099
 6443TIP3    H240821   0.634   0.382  12.600 -0.0016 -0.6790  0.2826
 6444TIP3   OH240822   2.723   1.125   2.632  0.0137 -0.2783 -0.2176
 6444TIP3    H140823   2.731   1.037   2.596 -1.2489 -0.0723 -1.0748
 6444TIP3    H240824   2.757   1.117   2.721  1.2551 -1.2837 -0.7509
 6445TIP3   OH240825   5.501   3.246  12.178 -0.3545 -0.2300 -0.0338
 6445TIP3    H140826   5.594   3.238  12.156  0.2385  1.7288  1.4188
 6445TIP3    H240827   5.458   3.266  12.095  0.7589  0.2546 -0.5083
 6446TIP3   OH240828   1.809   3.020  13.073 -0.3823  0.1632  0.6319
 6446TIP3    H140829   1.789   3.098  13.021 -0.9963 -0.3844  0.0194
 6446TIP3    H240830   1.885   3.045  13.125  1.2061  0.2857 -1.6115
 6447TIP3   OH240831   5.504   4.692   4.655  0.1088 -0.2253 -0.1631
 6447TIP3    H140832   5.456   4.615   4.624 -1.1401  1.0042 -1.4914
 6447TIP3    H240833   5.436   4.758   4.668  1.2485  0.9958 -0.2002
 6448TIP3   OH240834   2.017   0.427  12.891 -0.2771 -0.3001 -0.3378
 6448TIP3    H140835   2.095   0.384  12.854 -0.5963 -1.1538 -0.0238
 6448TIP3    H240836   2.015   0.399  12.983 -0.8226 -0.0903 -0.2819
 6449TIP3   OH240837   6.748   0.241   2.429 -0.1801 -0.0565 -0.0637
 6449TIP3    H140838   6.767   0.184   2.503  0.4544  0.9459  0.5827
 6449TIP3    H240839   6.826   0.296   2.420  0.7979 -1.7334 -3.0425
 6450TIP3   OH240840   2.410   5.147   5.295 -0.0147 -0.0776 -0.3249
 6450TIP3    H140841   2.459   5.228   5.314  1.3823 -0.3453 -2.3393
 6450TIP3    H240842   2.368   5.124   5.377 -0.7535  2.8857  0.2494
 6451TIP3   OH240843   5.668   5.474  10.784  0.1641 -0.5201 -0.2610
 6451TIP3    H140844   5.678   5.381  10.801  1.5524 -0.1338  1.3299
 6451TIP3    H240845   5.578   5.494  10.812  0.6554 -0.9619  1.8590
 6452TIP3   OH240846   6.550   2.260  11.584 -0.9792 -0.2467  0.3321
 6452TIP3    H140847   6.559   2.253  11.489  1.1869  0.3681  0.4395
 6452TIP3    H240848   6.569   2.352  11.603  2.3955 -1.0660  1.6199
 6453TIP3   OH240849   6.718   4.060   3.775 -0.0638  0.8603  0.2179
 6453TIP3    H140850   6.804   4.097   3.756  0.1480 -0.1296 -0.8709
 6453TIP3    H240851   6.735   3.968   3.793 -1.0281  0.3200 -1.4482
 6454TIP3   OH240852   5.591   3.836   1.441 -0.6896  0.4833  0.3779
 6454TIP3    H140853   5.510   3.865   1.401  0.0164  1.3046 -0.5170
 6454TIP3    H240854   5.657   3.898   1.409  0.6011 -1.1941 -0.3387
 6455TIP3   OH240855   6.705   3.022   5.921  0.6011 -0.2050  0.1843
 6455TIP3    H140856   6.620   2.978   5.931  0.2046  0.5086  0.0053
 6455TIP3    H240857   6.756   2.963   5.865 -0.0054 -0.3234 -0.2495
 6456TIP3   OH240858   6.688   3.198  11.668  0.0324  0.1345  0.5870
 6456TIP3    H140859   6.652   3.228  11.585  1.6752 -2.1067 -1.0813
 6456TIP3    H240860   6.623   3.222  11.733 -1.1009  2.4340 -1.2533
 6457TIP3   OH240861   2.531   2.011   4.563 -0.0804 -0.0393 -0.0981
 6457TIP3    H140862   2.622   1.989   4.543  0.3509 -0.1094  1.7747
 6457TIP3    H240863   2.496   1.932   4.605 -0.9832  0.0316 -0.6961
 6458TIP3   OH240864   2.878   4.253   2.524 -0.0671  0.7823  0.1786
 6458TIP3    H140865   2.860   4.311   2.598 -0.2577 -0.2783  0.9884
 6458TIP3    H240866   2.913   4.174   2.564 -1.4987 -0.3652 -0.7310
 6459TIP3   OH240867   0.352   0.107  13.797 -0.1782  0.1937  0.1269
 6459TIP3    H140868   0.412   0.172  13.834  0.8216 -0.4394 -0.3387
 6459TIP3    H240869   0.294   0.157  13.739 -0.1376  0.8176  0.6139
 6460TIP3   OH240870   0.696   0.025  12.856  0.2019 -0.6019  0.2562
 6460TIP3    H140871   0.725   0.043  12.945 -0.3074  1.5752  0.0511
 6460TIP3    H240872   0.772   0.045  12.801 -0.4626  1.5062 -0.0002
 6461TIP3   OH240873   3.003   3.018  11.822 -0.4239 -0.2740  0.2790
 6461TIP3    H140874   2.930   2.956  11.816  0.5257 -1.4558  0.4179
 6461TIP3    H240875   3.066   2.974  11.879  2.2033 -1.2379 -3.0263
 6462TIP3   OH240876   6.339   4.388   1.271 -0.2488 -0.0416 -0.0255
 6462TIP3    H140877   6.284   4.445   1.324  0.0763 -0.2860  0.5824
 6462TIP3    H240878   6.353   4.311   1.325  0.2883 -0.1922 -0.3675
 6463TIP3   OH240879   0.016   0.971   1.033 -0.4436  0.4291  0.1017
 6463TIP3    H140880   0.100   0.938   1.001  1.0001  3.1963  0.7348
 6463TIP3    H240881   0.011   0.942   1.124 -0.5195 -0.3104 -0.1351
 6464TIP3   OH240882   3.464   2.630   0.592 -0.3194 -0.1473  0.0810
 6464TIP3    H140883   3.446   2.718   0.560  0.7226  1.0796  2.5894
 6464TIP3    H240884   3.437   2.632   0.684  1.1224 -1.9760  0.6009
 6465TIP3   OH240885   5.709   5.592   1.386  0.5775 -0.3283  0.9591
 6465TIP3    H140886   5.720   5.557   1.474  0.0031  1.6714  1.9074
 6465TIP3    H240887   5.756   5.676   1.388 -3.0722  1.9556  0.8981
 6466TIP3   OH240888   2.906   6.483   2.829 -0.6172  0.1415  1.1275
 6466TIP3    H140889   2.915   6.393   2.798  0.6011  0.3071  0.9474
 6466TIP3    H240890   2.821   6.512   2.795 -0.0631 -0.2297 -0.6743
 6467TIP3   OH240891   6.137   3.721  16.640 -0.8384 -0.4765  0.2087
 6467TIP3    H140892   6.159   3.695  16.729 -0.7266 -0.6662  0.1279
 6467TIP3    H240893   6.071   3.790  16.650 -0.6774 -0.3570  0.4395
 6468TIP3   OH240894   0.652   0.912  14.178  0.1215  0.1506 -0.7760
 6468TIP3    H140895   0.706   0.991  14.182 -0.2005  0.4531 -2.0574
 6468TIP3    H240896   0.668   0.876  14.091 -1.1216 -0.2121 -0.8734
 6469TIP3   OH240897   5.980   5.267   0.062 -0.5725 -0.3206  0.2439
 6469TIP3    H140898   5.947   5.198   0.120  0.6677 -0.9305  0.2794
 6469TIP3    H240899   6.072   5.244   0.049 -0.9697 -0.6272 -2.5702
 6470TIP3   OH240900   3.909   5.974   5.719  0.3167  0.7892  0.1454
 6470TIP3    H140901   3.955   6.021   5.650  0.7597 -0.4967 -0.4620
 6470TIP3    H240902   3.818   5.971   5.690 -0.0739  2.6660  0.9844
 6471TIP3   OH240903   3.430   2.319   0.581  0.2174  0.0951 -0.2373
 6471TIP3    H140904   3.378   2.320   0.661 -3.1479 -0.6353 -2.2180
 6471TIP3    H240905   3.444   2.411   0.560 -1.5619  0.3828 -0.3324
 6472TIP3   OH240906   6.483   6.452   6.743 -0.1640  0.3163 -0.2101
 6472TIP3    H140907   6.441   6.417   6.664  0.8057 -0.0029 -0.5897
 6472TIP3    H240908   6.569   6.411   6.746 -0.0752  0.5359  0.8713
 6473TIP3   OH240909   4.066   6.675  16.859 -0.0194 -0.0157  0.4901
 6473TIP3    H140910   4.029   6.587  16.852  1.8204 -0.7023 -2.6451
 6473TIP3    H240911   4.001   6.732  16.819  0.2434 -0.5042 -0.6623
 6474TIP3   OH240912   3.855   2.250   0.360  0.1900 -0.2824 -0.3533
 6474TIP3    H140913   3.807   2.270   0.280 -0.1807 -1.2573 -0.3892
 6474TIP3    H240914   3.802   2.184   0.405  0.0503  0.7238  1.0442
 6475TIP3   OH240915   5.096   4.187   1.558 -0.0273  0.2355  0.1626
 6475TIP3    H140916   5.089   4.160   1.467  1.8966  1.5012 -0.4289
 6475TIP3    H240917   5.116   4.107   1.606  1.9745 -0.0296 -0.9979
 6476TIP3   OH240918   0.455   3.021  16.435 -0.7881 -0.3149 -0.2111
 6476TIP3    H140919   0.439   3.000  16.343 -0.7411 -0.2067 -0.2448
 6476TIP3    H240920   0.422   2.945  16.484  0.1455 -0.8504 -0.3797
 6477TIP3   OH240921   2.937   4.820  16.508 -0.1206 -0.2254  0.2461
 6477TIP3    H140922   2.898   4.807  16.594 -0.3129  0.6690  0.3011
 6477TIP3    H240923   2.863   4.818  16.447 -0.3401  1.8341  0.3844
 6478TIP3   OH240924   1.341   4.658  13.354 -0.2573  0.0254 -0.4876
 6478TIP3    H140925   1.374   4.578  13.313 -2.2875 -0.8312 -0.5540
 6478TIP3    H240926   1.360   4.646  13.447 -2.4250 -1.6261 -0.1568
 6479TIP3   OH240927   2.919   0.014  13.274 -0.2271  0.1432  0.0010
 6479TIP3    H140928   2.937   0.108  13.283  1.6777  0.0379 -1.8076
 6479TIP3    H240929   2.844   0.010  13.215  0.5951  0.5749 -1.1190
 6480TIP3   OH240930   1.579   2.540  14.077 -0.0913  0.0935 -0.4487
 6480TIP3    H140931   1.672   2.559  14.081  0.0020 -0.4976  0.2906
 6480TIP3    H240932   1.536   2.622  14.100  0.2606  0.1645 -0.0355
 6481TIP3   OH240933   3.728   6.462   5.600 -0.4316  0.2346  1.3022
 6481TIP3    H140934   3.797   6.508   5.648 -0.1660  2.2507 -0.8066
 6481TIP3    H240935   3.704   6.522   5.529 -0.9583 -2.4158 -0.9402
 6482TIP3   OH240936   6.322   2.545  10.880  0.3408 -0.0678  0.0344
 6482TIP3    H140937   6.349   2.477  10.819  0.3160  0.0487 -0.1066
 6482TIP3    H240938   6.377   2.532  10.957 -0.2122 -0.7510  0.3222
 6483TIP3   OH240939   0.870   5.870   0.153  0.4513  0.5075 -0.0114
 6483TIP3    H140940   0.849   5.850   0.061  0.5081 -0.5715  0.1972
 6483TIP3    H240941   0.845   5.961   0.164 -1.8844 -0.0237 -0.4374
 6484TIP3   OH240942   3.288   4.608   5.188 -0.4046  0.2182 -0.3364
 6484TIP3    H140943   3.345   4.634   5.260  0.7061 -0.7910 -0.8118
 6484TIP3    H240944   3.314   4.663   5.115  0.7769 -0.9766 -0.8648
 6485TIP3   OH240945   5.885   3.938  14.422  0.2617  0.8746  0.2399
 6485TIP3    H140946   5.865   4.017  14.372  0.1797  1.6789  1.4989
 6485TIP3    H240947   5.803   3.917  14.468  0.9556  1.5266  1.8508
 6486TIP3   OH240948   5.545   5.687   4.916  0.6502 -0.6280 -0.6697
 6486TIP3    H140949   5.596   5.747   4.970  2.0278 -1.8511 -0.5333
 6486TIP3    H240950   5.575   5.600   4.943  0.3480 -1.3149 -2.4203
 6487TIP3   OH240951   5.692   5.919   5.423  0.0475  0.3062  0.4404
 6487TIP3    H140952   5.608   5.943   5.383 -0.7126  0.7876  2.1992
 6487TIP3    H240953   5.668   5.893   5.512  1.6402 -0.7973  0.5651
 6488TIP3   OH240954   4.792   2.199   2.990 -0.1202 -0.0215 -0.4385
 6488TIP3    H140955   4.831   2.279   3.025 -1.3773  0.0701  0.8776
 6488TIP3    H240956   4.743   2.227   2.913  0.3165  0.2749 -0.6135
 6489TIP3   OH240957   4.939   1.482   1.855 -0.4376  0.5179  0.8615
 6489TIP3    H140958   4.937   1.395   1.897 -0.8881 -0.0665 -0.3174
 6489TIP3    H240959   5.025   1.487   1.814 -0.9528 -0.0161 -0.3306
 6490TIP3   OH240960   2.207   3.035   2.880 -0.2192 -0.7358  0.8135
 6490TIP3    H140961   2.250   2.963   2.833 -1.3343 -0.6724 -0.3417
 6490TIP3    H240962   2.264   3.050   2.956  0.2875 -2.5140  0.8421
 6491TIP3   OH240963   0.122   4.154   0.730 -0.3121  0.2354 -0.2005
 6491TIP3    H140964   0.161   4.140   0.644 -1.8972  0.9423 -1.0767
 6491TIP3    H240965   0.054   4.087   0.738  1.6778 -1.7079  1.7825
 6492TIP3   OH240966   0.412   0.293  15.288  0.2376  0.0985 -0.9359
 6492TIP3    H140967   0.350   0.359  15.256 -0.7078 -0.0159  0.5492
 6492TIP3    H240968   0.443   0.328  15.372  1.1390 -0.5087 -0.9952
 6493TIP3   OH240969   5.450   3.562   6.337 -0.0639  0.1644  0.1075
 6493TIP3    H140970   5.392   3.635   6.318 -0.9883 -0.8697 -1.1741
 6493TIP3    H240971   5.415   3.524   6.418  0.2920  0.9903  0.6577
 6494TIP3   OH240972   4.108   3.364   1.415  0.7382 -0.1093 -0.7191
 6494TIP3    H140973   4.042   3.422   1.455  0.6652 -0.1317 -0.8063
 6494TIP3    H240974   4.124   3.297   1.481  0.1017 -0.5438 -0.9977
 6495TIP3   OH240975   6.445   1.463  16.210 -0.4706  0.3132  0.3629
 6495TIP3    H140976   6.382   1.390  16.211 -1.1789  0.9183  1.1689
 6495TIP3    H240977   6.465   1.479  16.302 -0.3416  1.1619  0.1948
 6496TIP3   OH240978   0.589   2.528  16.911  0.1952  0.3176  0.3283
 6496TIP3    H140979   0.501   2.566  16.906 -1.0282 -1.9056  2.5109
 6496TIP3    H240980   0.587   2.456  16.847  0.7319  0.7417 -0.1765
 6497TIP3   OH240981   6.021   2.435  13.326 -0.1280 -0.0158  0.6163
 6497TIP3    H140982   6.056   2.523  13.340  1.0594 -0.5910  1.4169
 6497TIP3    H240983   6.058   2.383  13.397  0.4044 -1.5040 -0.6886
 6498TIP3   OH240984   4.682   1.826   6.343  0.0973 -0.1735  0.8606
 6498TIP3    H140985   4.623   1.799   6.413  0.2954 -1.2596  0.6269
 6498TIP3    H240986   4.759   1.859   6.389  0.2548 -0.9477  1.1733
 6499TIP3   OH240987   4.923   6.071  14.240 -0.1263 -0.3546 -0.7812
 6499TIP3    H140988   4.908   6.162  14.216 -1.4911 -0.7198 -1.3963
 6499TIP3    H240989   4.888   6.020  14.166  1.1336 -1.3730 -0.7215
 6500TIP3   OH240990   1.086   5.975  15.005 -0.0720  0.2294 -0.6802
 6500TIP3    H140991   1.089   5.981  14.910  0.8141 -0.9675 -0.7513
 6500TIP3    H240992   1.177   5.986  15.033  0.0375 -1.6939 -0.1513
 6501TIP3   OH240993   4.239   0.961  13.797 -0.3197  0.8780  0.7216
 6501TIP3    H140994   4.316   0.920  13.758  0.0161  0.5780  1.6458
 6501TIP3    H240995   4.247   0.941  13.891 -1.8342  0.3055  0.7598
 6502TIP3   OH240996   4.604   3.491   1.972 -0.0001 -0.5268  0.3043
 6502TIP3    H140997   4.567   3.514   2.056 -0.4826  0.6034 -0.2051
 6502TIP3    H240998   4.618   3.396   1.977  2.0234 -0.2014  2.4360
 6503TIP3   OH240999   2.073   6.030   1.544  0.3333  0.5408  0.1067
 6503TIP3    H141000   2.014   5.978   1.598 -0.3357  0.3666 -0.7588
 6503TIP3    H241001   2.116   5.966   1.488  0.3230  0.8009 -0.2036
 6504TIP3   OH241002   4.876   0.020   1.469  0.0977  0.4372 -0.3951
 6504TIP3    H141003   4.798  -0.035   1.475  0.2874  0.3233  1.9301
 6504TIP3    H241004   4.843   0.105   1.438 -0.6733 -0.0860 -1.0486
 6505TIP3   OH241005   1.495   0.086  11.515  0.2600 -0.9560  0.4329
 6505TIP3    H141006   1.480   0.168  11.562 -0.5173  0.0045 -1.3917
 6505TIP3    H241007   1.448   0.020  11.566 -0.4029  0.0049  1.1050
 6506TIP3   OH241008   0.682   0.355   3.642 -0.0814  0.5820 -0.3433
 6506TIP3    H141009   0.649   0.441   3.618  0.4111  0.2893 -2.2378
 6506TIP3    H241010   0.733   0.326   3.566 -0.8786 -1.7112 -0.0946
 6507TIP3   OH241011   5.542   0.645  13.613  0.4209  1.2359 -0.0954
 6507TIP3    H141012   5.469   0.589  13.641  1.8248 -0.4476  0.3699
 6507TIP3    H241013   5.525   0.729  13.656  0.1579  0.0617  2.2820
 6508TIP3   OH241014   0.513   0.891  15.709  0.2552 -0.6346  0.1025
 6508TIP3    H141015   0.528   0.849  15.794 -1.7850 -3.0192 -0.5701
 6508TIP3    H241016   0.493   0.818  15.650  0.1160  1.0710 -2.0947
 6509TIP3   OH241017   3.778   4.701  13.887 -0.1058 -0.7920 -0.3024
 6509TIP3    H141018   3.748   4.663  13.805 -0.6019 -2.3667  0.5689
 6509TIP3    H241019   3.871   4.719  13.872 -0.4091 -0.1590 -1.5110
 6510TIP3   OH241020   5.612   5.223  14.479  0.2853  0.1237 -0.2951
 6510TIP3    H141021   5.576   5.148  14.525  0.7065  0.4887  0.6603
 6510TIP3    H241022   5.557   5.297  14.506  1.2573  0.5573  0.6143
 6511TIP3   OH241023   4.866   5.467  14.623 -0.1186  0.6794 -0.3892
 6511TIP3    H141024   4.871   5.373  14.638 -0.7283  0.7898  0.5704
 6511TIP3    H241025   4.894   5.506  14.705  3.3231  1.4143 -1.7292
 6512TIP3   OH241026   0.794   4.443  16.178 -0.3889 -0.5110  0.0126
 6512TIP3    H141027   0.722   4.448  16.115  0.4162  0.9310 -0.8427
 6512TIP3    H241028   0.873   4.436  16.123  0.2792  0.1459  0.8641
 6513TIP3   OH241029   3.894   0.482  12.142  0.0948  0.7346  0.1644
 6513TIP3    H141030   3.942   0.417  12.091 -0.0694  0.6475  0.1186
 6513TIP3    H241031   3.934   0.478  12.229 -1.7160 -1.4857  1.0199
 6514TIP3   OH241032   4.638   3.171   4.899  0.0357  0.0849  0.2020
 6514TIP3    H141033   4.650   3.176   4.993  1.0953  0.5084  0.0587
 6514TIP3    H241034   4.551   3.209   4.884 -0.4855 -0.7353  1.0640
 6515TIP3   OH241035   6.033   4.180  11.669 -0.0113 -0.1605  0.2679
 6515TIP3    H141036   5.955   4.125  11.679  0.7571 -1.5464 -1.0385
 6515TIP3    H241037   6.106   4.119  11.667  0.9674  0.9805 -0.3680
 6516TIP3   OH241038   1.884   0.717  15.354  0.2536 -0.1057 -0.6780
 6516TIP3    H141039   1.823   0.649  15.323  1.1553 -1.3302  0.1019
 6516TIP3    H241040   1.937   0.672  15.420  3.4115  0.2732 -2.7399
 6517TIP3   OH241041   3.310   0.482   3.388  0.4088 -0.2255  0.0855
 6517TIP3    H141042   3.301   0.429   3.468  0.6910  0.7088  0.7593
 6517TIP3    H241043   3.292   0.572   3.417  3.3822  0.5938 -0.2351
 6518TIP3   OH241044   1.316   5.319  13.123 -0.2074  0.3405 -0.0838
 6518TIP3    H141045   1.322   5.414  13.135 -1.5717  0.2401  1.8132
 6518TIP3    H241046   1.294   5.285  13.210  1.0486 -1.8128 -0.5512
 6519TIP3   OH241047   1.654   5.758  14.575 -0.0558 -0.0105  0.3220
 6519TIP3    H141048   1.712   5.734  14.503 -3.2034 -0.2978 -2.3804
 6519TIP3    H241049   1.586   5.690  14.575 -2.2889  2.0703  0.9199
 6520TIP3   OH241050   4.916   2.700   1.360  0.4786 -0.1154  0.2534
 6520TIP3    H141051   4.989   2.657   1.317  0.2024 -0.9820  0.6341
 6520TIP3    H241052   4.838   2.654   1.327  0.2521 -0.6627  1.5121
 6521TIP3   OH241053   4.160   5.843   5.429 -0.4804 -0.2056  0.3175
 6521TIP3    H141054   4.149   5.923   5.480  0.0118  0.0565  0.0250
 6521TIP3    H241055   4.234   5.798   5.470 -0.9202 -0.6451  0.6427
 6522TIP3   OH241056   2.238   1.127   1.183  0.0517  0.0987 -0.0159
 6522TIP3    H141057   2.235   1.059   1.251  1.3348 -0.7036 -0.7329
 6522TIP3    H241058   2.285   1.086   1.111  1.1879  1.8860 -0.3256
 6523TIP3   OH241059   2.840   5.166   5.631 -0.0497 -0.1896 -0.3458
 6523TIP3    H141060   2.907   5.212   5.579 -0.3049  0.1738 -0.3585
 6523TIP3    H241061   2.799   5.106   5.569 -0.0587 -0.0689 -0.4575
 6524TIP3   OH241062   4.093   0.885  12.347 -0.2951  0.3409  0.0925
 6524TIP3    H141063   4.014   0.851  12.391  0.3785 -0.5146  0.6848
 6524TIP3    H241064   4.108   0.971  12.386  0.6546 -0.6641  2.0654
 6525TIP3   OH241065   3.980   4.853   3.150  0.7075 -0.1960 -0.1181
 6525TIP3    H141066   3.968   4.879   3.058  0.8037 -1.0342 -0.3760
 6525TIP3    H241067   3.951   4.930   3.200 -1.7978 -0.6093 -0.7905
 6526TIP3   OH241068   4.546   6.600  13.797 -0.6647 -0.0425  0.2368
 6526TIP3    H141069   4.507   6.615  13.883 -1.4454 -0.7388  0.0170
 6526TIP3    H241070   4.472   6.582  13.740 -0.1658  0.5578 -0.6191
 6527TIP3   OH241071   5.838   4.208   4.027 -0.2611  0.5155 -0.2333
 6527TIP3    H141072   5.787   4.174   3.954 -0.9425  0.2673  0.3427
 6527TIP3    H241073   5.863   4.130   4.077 -0.6858  0.7445  0.3572
 6528TIP3   OH241074   4.551   4.202  12.220 -0.2351  0.2352  0.0751
 6528TIP3    H141075   4.499   4.232  12.294  0.7524  0.2214  0.7942
 6528TIP3    H241076   4.629   4.259  12.221 -1.3068  1.9284 -2.4427
 6529TIP3   OH241077   0.145   5.055   2.785  0.3648 -0.1044 -0.4216
 6529TIP3    H141078   0.053   5.076   2.804  0.1351 -1.4630  0.0356
 6529TIP3    H241079   0.172   4.997   2.855  2.8406  3.2675  1.7520
 6530TIP3   OH241080   0.041   5.400   0.847  0.1085  0.0947 -0.7060
 6530TIP3    H141081   0.120   5.413   0.795 -0.1398 -0.9850 -1.3699
 6530TIP3    H241082   0.070   5.417   0.937  0.8711  0.6141 -1.0339
 6531TIP3   OH241083   6.390   3.844   2.800  0.3070 -0.3754  0.4648
 6531TIP3    H141084   6.419   3.773   2.742 -2.0780  0.3621 -1.8650
 6531TIP3    H241085   6.298   3.824   2.817  0.1784  1.0484  1.5840
 6532TIP3   OH241086   5.801   2.141  15.251 -0.0137 -0.2757  0.3953
 6532TIP3    H141087   5.805   2.045  15.246 -1.9629 -0.3998  0.6064
 6532TIP3    H241088   5.837   2.162  15.338  1.3051 -0.7110 -0.0149
 6533TIP3   OH241089   5.853   5.911  13.069  0.2698 -0.2939 -0.0743
 6533TIP3    H141090   5.949   5.907  13.068  0.2641 -0.7975  0.9094
 6533TIP3    H241091   5.833   6.003  13.053  0.8985 -0.2597 -0.7305
 6534TIP3   OH241092   3.838   6.574   5.097  0.4430  0.1044  0.0926
 6534TIP3    H141093   3.778   6.501   5.113 -1.7571  1.9153  0.7731
 6534TIP3    H241094   3.920   6.548   5.138 -1.0343 -1.0036  2.6176
 6535TIP3   OH241095   5.539   0.468   4.143  0.3089 -0.8184 -0.3387
 6535TIP3    H141096   5.464   0.469   4.202  0.5821  1.4100  0.0394
 6535TIP3    H241097   5.508   0.514   4.065  0.5325 -2.1165 -1.2258
 6536TIP3   OH241098   1.382   3.413  15.887  0.3614  0.3439  0.8894
 6536TIP3    H141099   1.347   3.502  15.876 -2.5978 -0.6974  1.0680
 6536TIP3    H241100   1.306   3.360  15.908  2.2162 -2.0839  1.9470
 6537TIP3   OH241101   2.168   5.921   5.858 -0.3122  0.8470  0.0811
 6537TIP3    H141102   2.168   6.015   5.877  0.7267  1.0279 -0.7195
 6537TIP3    H241103   2.241   5.886   5.909  1.0746  0.9730 -1.6788
 6538TIP3   OH241104   6.324   5.120  12.657  0.3672 -0.1346 -0.1353
 6538TIP3    H141105   6.310   5.203  12.610 -2.2271 -0.2216  0.3113
 6538TIP3    H241106   6.293   5.138  12.746  0.2466 -1.4267  0.0989
 6539TIP3   OH241107   1.439   1.081   1.289 -0.3921 -0.1121 -0.0542
 6539TIP3    H141108   1.516   1.053   1.240  0.2097  0.4905  0.5273
 6539TIP3    H241109   1.390   1.000   1.304  0.3444 -0.5679 -0.0539
 6540TIP3   OH241110   0.472   4.981  11.627 -0.6507 -0.0845 -0.9810
 6540TIP3    H141111   0.385   5.021  11.628 -0.8327 -0.4772 -0.8531
 6540TIP3    H241112   0.475   4.929  11.547 -0.5926 -0.1967 -0.9076
 6541TIP3   OH241113   2.715   6.197  11.910  0.0091  0.3286 -0.6278
 6541TIP3    H141114   2.769   6.134  11.862  2.0256  1.0071  0.6112
 6541TIP3    H241115   2.723   6.279  11.860 -1.1266  0.0812 -1.2457
 6542TIP3   OH241116   1.767   2.471  11.563  0.1829  0.0176  0.2480
 6542TIP3    H141117   1.694   2.488  11.623  0.9953 -1.3982  1.7056
 6542TIP3    H241118   1.750   2.530  11.489 -1.7297  0.6608  1.1083
 6543TIP3   OH241119   3.268   3.721  12.374 -0.1176 -0.8559 -0.2098
 6543TIP3    H141120   3.276   3.680  12.460  0.4422 -0.4645 -0.0729
 6543TIP3    H241121   3.241   3.811  12.391 -0.5007 -0.9170 -0.4714
 6544TIP3   OH241122   4.742   6.444  13.944 -0.7782 -0.1043  0.3190
 6544TIP3    H141123   4.750   6.503  14.019  2.2786  2.5517 -1.7883
 6544TIP3    H241124   4.706   6.498  13.875  1.0303 -0.9415 -1.3857
 6545TIP3   OH241125   2.250   1.147  16.414  0.3723 -0.0956 -0.0269
 6545TIP3    H141126   2.285   1.062  16.440  0.1541  0.2484  1.4991
 6545TIP3    H241127   2.307   1.210  16.458 -1.4020  0.4854  1.5770
 6546TIP3   OH241128   5.120   3.978  11.085 -0.2382 -0.6527 -0.4467
 6546TIP3    H141129   5.064   4.055  11.087 -0.0218 -0.4953 -0.3174
 6546TIP3    H241130   5.199   4.005  11.132  1.0663  0.0177 -2.8715
 6547TIP3   OH241131   5.413   4.833   5.890  0.3590  0.5315  0.3461
 6547TIP3    H141132   5.428   4.917   5.847  2.0315  0.6483  1.0768
 6547TIP3    H241133   5.463   4.839   5.972  0.6122 -1.2091  0.3566
 6548TIP3   OH241134   5.924   2.244  16.434  0.6729  0.5506  0.4414
 6548TIP3    H141135   5.951   2.158  16.401 -1.7797  0.1885 -0.8656
 6548TIP3    H241136   5.974   2.307  16.383 -0.1656 -0.0832 -1.2344
 6549TIP3   OH241137   5.208   2.340   1.269 -0.4923 -0.0950  0.6197
 6549TIP3    H141138   5.263   2.413   1.298 -0.4654 -0.3951  1.3574
 6549TIP3    H241139   5.248   2.263   1.310  0.9750 -0.9156 -2.0895
 6550TIP3   OH241140   5.252   3.243  10.876 -0.8778  0.3559  0.0446
 6550TIP3    H141141   5.342   3.229  10.847 -0.8699  0.1878  0.1522
 6550TIP3    H241142   5.198   3.212  10.802 -0.8383  2.4176 -0.9342
 6551TIP3   OH241143   3.999   1.832   4.965 -0.1261  0.2481 -0.3247
 6551TIP3    H141144   3.979   1.925   4.960 -0.8516  0.1635  0.8024
 6551TIP3    H241145   4.000   1.803   4.874  0.7108  1.4666 -0.7279
 6552TIP3   OH241146   0.048   2.022   3.944 -0.0621  0.2380  0.2702
 6552TIP3    H141147   0.075   1.931   3.939  2.0636  0.6295  2.5216
 6552TIP3    H241148  -0.023   2.022   4.009  0.0038  0.2104  0.3415
 6553TIP3   OH241149   0.209   4.076   3.662  0.1123  0.0260 -0.2369
 6553TIP3    H141150   0.290   4.047   3.702 -0.5290  0.2246  1.2822
 6553TIP3    H241151   0.233   4.100   3.572  1.5944 -0.4800  0.0066
 6554TIP3   OH241152   0.764   3.572   1.286 -0.0711  0.0449 -0.1310
 6554TIP3    H141153   0.726   3.544   1.203 -1.0180  0.0653  0.2853
 6554TIP3    H241154   0.760   3.494   1.342  0.5903  0.0217 -0.1108
 6555TIP3   OH241155   1.721   5.428   0.496  0.1956  0.2353  0.4010
 6555TIP3    H141156   1.770   5.494   0.544 -0.0149  0.7716 -0.1099
 6555TIP3    H241157   1.651   5.477   0.452  0.3033 -0.2617 -0.3426
 6556TIP3   OH241158   1.260   4.631   2.995  0.2103 -0.0344  0.2012
 6556TIP3    H141159   1.196   4.570   2.958  1.1773 -0.4304 -0.9302
 6556TIP3    H241160   1.336   4.623   2.936  0.7022  1.5860  0.5741
 6557TIP3   OH241161   2.216   6.105  16.946  0.2615 -0.0288  0.2353
 6557TIP3    H141162   2.245   6.032  17.002 -3.4435 -0.3193  2.0767
 6557TIP3    H241163   2.247   6.183  16.991  1.4739 -0.3710  0.0178
 6558TIP3   OH241164   4.384   5.198  15.404 -0.1117 -0.0497 -0.4848
 6558TIP3    H141165   4.439   5.191  15.483 -0.6701  1.4563  0.0724
 6558TIP3    H241166   4.296   5.174  15.434 -0.2597  0.1897 -0.7226
 6559TIP3   OH241167   0.044   5.775   3.285  0.6971 -0.2029 -0.1678
 6559TIP3    H141168  -0.045   5.741   3.282  0.7685 -0.4404  0.2913
 6559TIP3    H241169   0.092   5.711   3.337  0.4986  1.2821  1.9984
 6560TIP3   OH241170   0.599   5.998  13.032  0.5788 -0.1407 -0.3093
 6560TIP3    H141171   0.594   6.055  13.109  2.0835 -0.3217 -0.0446
 6560TIP3    H241172   0.508   5.988  13.004 -0.0328 -0.1781  1.5237
 6561TIP3   OH241173   2.546   1.357   1.448  0.2273 -0.2979  0.0033
 6561TIP3    H141174   2.503   1.376   1.365 -0.7407  1.3025  0.8039
 6561TIP3    H241175   2.490   1.291   1.489  0.1308 -0.3326 -0.1826
 6562TIP3   OH241176   1.640   3.534  10.930 -0.2902 -0.9684  0.1878
 6562TIP3    H141177   1.736   3.535  10.925 -0.2982  1.1021 -0.3414
 6562TIP3    H241178   1.611   3.535  10.838 -0.7398  1.6590  0.2827
 6563TIP3   OH241179   1.455   0.104  15.291 -0.7201  0.1086  0.1133
 6563TIP3    H141180   1.426   0.062  15.372  0.0480  0.4374  0.5637
 6563TIP3    H241181   1.530   0.052  15.262 -0.0843  0.8590  0.3966
 6564TIP3   OH241182   2.834   2.653  15.298  0.1812 -0.8154  0.3949
 6564TIP3    H141183   2.762   2.606  15.254 -1.0607  1.2072  0.1307
 6564TIP3    H241184   2.908   2.646  15.238 -1.2465  1.1892 -1.7663
 6565TIP3   OH241185   0.909   4.685  15.418  0.0833  0.2965 -0.5164
 6565TIP3    H141186   0.955   4.748  15.474 -0.1830 -0.9434  1.1729
 6565TIP3    H241187   0.979   4.643  15.367  0.5242  0.3993 -0.0057
 6566TIP3   OH241188   1.899   0.282   3.033 -0.6387 -0.3601  0.3744
 6566TIP3    H141189   1.963   0.339   2.991 -0.7175 -0.8574 -0.4282
 6566TIP3    H241190   1.865   0.227   2.963 -1.8399 -0.2094  0.8107
 6567TIP3   OH241191   5.112   0.328  13.702  0.0841 -0.2369 -0.0848
 6567TIP3    H141192   5.089   0.245  13.661  0.6419 -0.0268 -0.8613
 6567TIP3    H241193   5.074   0.324  13.789 -0.0467 -1.2307 -0.1813
 6568TIP3   OH241194   1.210   0.802   6.555  0.4247  0.1286 -0.1387
 6568TIP3    H141195   1.255   0.719   6.564 -1.0611 -0.7287 -0.2079
 6568TIP3    H241196   1.141   0.799   6.622 -0.5413  0.6667 -1.0703
 6569TIP3   OH241197   1.671   3.974   5.202  0.4726  0.1139  0.1914
 6569TIP3    H141198   1.583   3.968   5.164 -0.1413  1.0900  1.4013
 6569TIP3    H241199   1.656   3.984   5.296  1.9284 -1.0832  0.5887
 6570TIP3   OH241200   4.775   5.975  12.073 -0.4286  0.5672 -0.2091
 6570TIP3    H141201   4.861   5.957  12.036 -0.6932  0.1697 -0.6381
 6570TIP3    H241202   4.717   5.981  11.997 -1.1029 -0.9029  0.1629
 6571TIP3   OH241203   1.621   0.122  11.117 -0.4493  0.5807  0.5658
 6571TIP3    H141204   1.554   0.165  11.063 -0.5178  0.1174  0.2721
 6571TIP3    H241205   1.698   0.178  11.109 -0.7943  1.1038  0.8833
 6572TIP3   OH241206   6.286   1.640   3.692  0.1027 -0.4669  0.4026
 6572TIP3    H141207   6.370   1.620   3.733  1.2167  2.3511 -0.2807
 6572TIP3    H241208   6.283   1.736   3.687 -1.5435 -0.5233 -2.8026
 6573TIP3   OH241209   3.116   3.645   5.033 -0.0870  0.2070 -0.1088
 6573TIP3    H141210   3.077   3.559   5.017  0.4638  0.3832 -2.8627
 6573TIP3    H241211   3.202   3.641   4.991  0.6432  1.6055  1.1348
 6574TIP3   OH241212   1.036   4.249   1.700  0.6513  0.0264  0.4352
 6574TIP3    H141213   1.009   4.172   1.751 -3.0616  1.6842  1.3007
 6574TIP3    H241214   1.044   4.319   1.765  0.2390  1.2030 -0.7531
 6575TIP3   OH241215   0.667   1.385  16.798 -0.4950 -0.1260 -0.2961
 6575TIP3    H141216   0.595   1.324  16.811 -1.1336  0.7678  0.4825
 6575TIP3    H241217   0.744   1.337  16.829 -1.0337 -0.4402  0.5954
 6576TIP3   OH241218   6.059   5.325   2.810 -0.4812 -0.1284 -0.4047
 6576TIP3    H141219   6.006   5.254   2.774 -2.1842  0.9879 -0.2245
 6576TIP3    H241220   5.995   5.386   2.848  1.0107  0.7243  0.8802
 6577TIP3   OH241221   2.201   1.630   3.050  0.8354  0.1300  0.0820
 6577TIP3    H141222   2.210   1.725   3.064  2.0217  0.2430 -1.2182
 6577TIP3    H241223   2.145   1.623   2.973  0.1005 -0.2573  0.6486
 6578TIP3   OH241224   5.726   5.627   3.292 -0.1899  0.9042 -0.3456
 6578TIP3    H141225   5.712   5.562   3.224 -1.0769  1.0517 -0.3275
 6578TIP3    H241226   5.694   5.585   3.372 -0.4476  1.2310 -0.2725
 6579TIP3   OH241227   4.540   6.699  14.543 -0.5644 -0.2597  0.3790
 6579TIP3    H141228   4.612   6.641  14.521 -0.8696 -0.3377 -0.4193
 6579TIP3    H241229   4.579   6.763  14.603  0.4898  0.4505 -1.0045
 6580TIP3   OH241230   2.226   4.216   4.188  0.1007 -0.2798 -0.3882
 6580TIP3    H141231   2.185   4.139   4.150 -1.5735  0.2339  0.2708
 6580TIP3    H241232   2.210   4.209   4.282 -2.3090  2.0120 -0.5049
 6581TIP3   OH241233   2.542   1.023   4.946 -0.1564 -0.6367 -0.2778
 6581TIP3    H141234   2.447   1.032   4.954 -0.2319 -1.4875 -0.1926
 6581TIP3    H241235   2.572   1.112   4.928 -0.8283 -0.0930  1.0775
 6582TIP3   OH241236   5.260   3.826   5.010  0.1166  0.1380  0.0789
 6582TIP3    H141237   5.337   3.840   4.955  0.3692 -2.1909 -0.2337
 6582TIP3    H241238   5.289   3.765   5.078 -1.3040 -0.3813  0.2585
 6583TIP3   OH241239   5.374   3.197   1.331 -0.1454 -0.0907  0.0580
 6583TIP3    H141240   5.322   3.276   1.344  0.5297  0.3716  0.0354
 6583TIP3    H241241   5.460   3.230   1.303  0.0756 -0.8409 -0.1656
 6584TIP3   OH241242   5.821   5.991   2.916 -0.2594 -0.0732  0.3583
 6584TIP3    H141243   5.881   6.059   2.947 -0.1681 -0.2667  0.6070
 6584TIP3    H241244   5.742   6.039   2.890 -0.2264  0.1194  0.6092
 6585TIP3   OH241245   1.597   0.629   0.539 -0.3526  0.4290  0.7236
 6585TIP3    H141246   1.620   0.591   0.453 -3.9432 -2.9909  0.9953
 6585TIP3    H241247   1.678   0.623   0.590  0.7799 -1.6214 -1.1361
 6586TIP3   OH241248   1.162   6.273  13.344 -0.6029 -0.1851  0.6339
 6586TIP3    H141249   1.223   6.203  13.320 -1.6336 -1.1125  0.6359
 6586TIP3    H241250   1.185   6.346  13.286 -0.2764 -0.9388 -0.2162
 6587TIP3   OH241251   5.641   2.867  14.913  0.6721  0.4983 -0.0379
 6587TIP3    H141252   5.603   2.867  14.825  1.1003  0.2626 -0.2252
 6587TIP3    H241253   5.715   2.927  14.907  0.8440  0.2998  0.1041
 6588TIP3   OH241254   2.627   6.146   1.856  0.0402 -0.1394 -0.3696
 6588TIP3    H141255   2.538   6.111   1.855 -0.1563  0.3394 -0.1317
 6588TIP3    H241256   2.653   6.147   1.764  0.4620 -1.8963 -0.3032
 6589TIP3   OH241257   5.636   6.448   0.430  0.5652  0.0594 -0.0890
 6589TIP3    H141258   5.659   6.356   0.443  0.5611 -0.0161 -0.5995
 6589TIP3    H241259   5.645   6.462   0.336  3.0020  1.2155  0.2319
 6590TIP3   OH241260   1.834   0.053  15.578 -0.8264 -0.0361  0.1005
 6590TIP3    H141261   1.745   0.087  15.587 -0.8850 -0.2345  0.2817
 6590TIP3    H241262   1.870   0.058  15.666  0.1717  2.2828 -0.3832
 6591TIP3   OH241263   0.782   0.622  11.934 -0.4012  0.0914  0.0326
 6591TIP3    H141264   0.825   0.580  11.860 -0.2050  0.0101  0.1899
 6591TIP3    H241265   0.703   0.570  11.948  0.1579 -0.6201  0.6219
 6592TIP3   OH241266   5.360   3.954   1.304  0.1866  0.5556  0.0623
 6592TIP3    H141267   5.416   4.030   1.316  1.2148 -0.2338  0.3652
 6592TIP3    H241268   5.325   3.963   1.215  1.5138  0.6076 -0.4753
 6593TIP3   OH241269   0.900   3.535  15.949 -0.2535  0.4145  0.9314
 6593TIP3    H141270   0.969   3.504  15.890  0.8338  1.3387  1.6908
 6593TIP3    H241271   0.818   3.506  15.907  0.5333  0.2199 -0.5233
 6594TIP3   OH241272   6.422   1.770  14.817 -0.1667  0.2042  0.5114
 6594TIP3    H141273   6.346   1.735  14.865 -1.0416 -0.8359 -1.4763
 6594TIP3    H241274   6.483   1.696  14.814 -0.1378  0.2482  0.0165
 6595TIP3   OH241275   3.971   5.918  16.601 -0.3116  0.0428 -0.5335
 6595TIP3    H141276   3.966   5.962  16.687 -2.4368  1.5944 -1.3656
 6595TIP3    H241277   4.060   5.885  16.597 -0.4018 -0.9905  2.6925
 6596TIP3   OH241278   0.246   0.604   3.113  0.7747 -0.4000 -0.4124
 6596TIP3    H141279   0.321   0.608   3.172 -0.2782 -0.1287  0.9699
 6596TIP3    H241280   0.183   0.549   3.160  0.3914 -1.2603 -1.8886
 6597TIP3   OH241281   2.694   4.319  16.698  0.5630  0.0677 -0.3100
 6597TIP3    H141282   2.703   4.411  16.674  2.7105 -0.0207  0.0175
 6597TIP3    H241283   2.765   4.274  16.652  1.5005 -0.9221  1.9386
 6598TIP3   OH241284   2.965   6.000  17.095 -0.3428  0.1440 -0.0691
 6598TIP3    H141285   2.891   5.975  17.040 -0.2843 -1.1025  0.3964
 6598TIP3    H241286   3.013   5.919  17.109  2.4815  1.2684 -2.3200
 6599TIP3   OH241287   2.024   4.570   4.737 -0.2120  0.0185 -0.6144
 6599TIP3    H141288   2.106   4.596   4.777 -0.4776  1.2543 -0.8471
 6599TIP3    H241289   1.966   4.645   4.749 -1.8422 -1.3817  0.9439
 6600TIP3   OH241290   3.652   4.618  14.116  0.0796  0.5507 -0.5178
 6600TIP3    H141291   3.694   4.645  14.034  1.6072  1.3554  0.4953
 6600TIP3    H241292   3.713   4.644  14.184 -1.1036 -0.2327  0.8933
 6601TIP3   OH241293   3.310   3.699  14.219  0.1985 -0.2052 -0.2656
 6601TIP3    H141294   3.369   3.771  14.197 -0.6097  1.0244  1.3898
 6601TIP3    H241295   3.225   3.726  14.184 -0.1833 -0.1653  0.6679
 6602TIP3   OH241296   6.166   2.122   0.262 -0.3399 -0.5515 -0.0856
 6602TIP3    H141297   6.141   2.073   0.184 -0.8518 -0.0508 -0.2398
 6602TIP3    H241298   6.144   2.064   0.335 -0.1464 -0.8958 -0.3003
 6603TIP3   OH241299   3.260   1.536   2.957 -0.7828  0.4250  0.0929
 6603TIP3    H141300   3.247   1.547   2.863  0.3482 -2.9311 -0.5764
 6603TIP3    H241301   3.330   1.598   2.978 -0.4429  0.6079 -1.4617
 6604TIP3   OH241302   0.570   2.633  13.372  0.2458 -0.4294 -0.5043
 6604TIP3    H141303   0.649   2.638  13.318  0.0454 -0.5475 -0.8144
 6604TIP3    H241304   0.532   2.548  13.350  0.8560 -1.0659  0.8165
 6605TIP3   OH241305   3.281   3.686  10.481 -0.6461  0.0353 -0.0305
 6605TIP3    H141306   3.273   3.737  10.561  0.5119 -0.8072  0.6600
 6605TIP3    H241307   3.354   3.727  10.434 -1.3680  0.5711 -0.7038
 6606TIP3   OH241308   1.119   1.630   0.914  0.1321  0.2388 -0.1152
 6606TIP3    H141309   1.121   1.646   0.820 -1.6844 -0.5638 -0.3216
 6606TIP3    H241310   1.176   1.697   0.951  0.3731  0.9579 -1.7208
 6607TIP3   OH241311   1.864   3.242  14.291  0.2984  0.2707 -0.1457
 6607TIP3    H141312   1.891   3.174  14.353  1.2360  1.3301  0.6411
 6607TIP3    H241313   1.945   3.273  14.252 -0.0246  1.5058  0.1189
 6608TIP3   OH241314   5.750   4.231   2.450 -0.3327 -0.2537  0.0826
 6608TIP3    H141315   5.776   4.150   2.494  0.2630 -0.1700 -0.1050
 6608TIP3    H241316   5.756   4.210   2.356 -3.5357 -1.0792 -0.0650
 6609TIP3   OH241317   5.980   1.518  14.107 -0.0127 -0.1796  0.5395
 6609TIP3    H141318   5.908   1.580  14.094 -0.4895 -0.8993 -0.3784
 6609TIP3    H241319   5.938   1.432  14.112  0.7383 -0.5588  0.5561
 6610TIP3   OH241320   3.339   1.178   6.461 -0.3632  0.4217  0.1149
 6610TIP3    H141321   3.340   1.082   6.461 -0.4509  0.3950  1.7447
 6610TIP3    H241322   3.374   1.202   6.375 -0.3885 -1.0623 -0.3420
 6611TIP3   OH241323   0.596   2.640   0.190 -0.1985 -0.4711 -0.3479
 6611TIP3    H141324   0.651   2.587   0.248  2.5452  2.2153 -0.2088
 6611TIP3    H241325   0.649   2.651   0.111 -0.3586  2.3965 -0.1527
 6612TIP3   OH241326   0.428   4.865  11.374  0.4011  0.5419  0.0819
 6612TIP3    H141327   0.506   4.840  11.324  0.5935 -0.0621  0.6651
 6612TIP3    H241328   0.399   4.947  11.335 -0.6259 -0.8691 -2.3335
 6613TIP3   OH241329   1.226   1.173   3.842  0.2652  0.2059 -0.0432
 6613TIP3    H141330   1.165   1.100   3.829  2.4922 -1.6331 -0.9522
 6613TIP3    H241331   1.192   1.219   3.919 -1.1311 -1.9367  0.7307
 6614TIP3   OH241332   4.744   6.206   1.494  0.0592 -0.2016 -0.1446
 6614TIP3    H141333   4.806   6.259   1.443 -0.0424 -0.3626 -0.4365
 6614TIP3    H241334   4.793   6.127   1.516 -0.0408 -0.3298 -0.3773
 6615TIP3   OH241335   0.836   2.189  12.990 -0.4367  0.2634 -0.3472
 6615TIP3    H141336   0.791   2.262  13.034 -0.2130  1.2070 -1.6119
 6615TIP3    H241337   0.799   2.110  13.030  0.2376  1.0428  1.9802
 6616TIP3   OH241338   3.876   0.251   6.700  0.8449 -0.0082  0.8410
 6616TIP3    H141339   3.791   0.229   6.739  0.1702  0.8804 -0.0899
 6616TIP3    H241340   3.857   0.324   6.641  1.5551 -2.0048 -2.0709
 6617TIP3   OH241341   1.252   1.573  11.228  0.3139 -0.3703  0.2735
 6617TIP3    H141342   1.282   1.642  11.170 -1.3171 -0.0109 -0.1990
 6617TIP3    H241343   1.284   1.492  11.188  0.2791 -0.0391 -0.4454
 6618TIP3   OH241344   1.089   3.503  13.692 -0.4120 -0.4359  0.0309
 6618TIP3    H141345   1.168   3.451  13.700 -0.3697 -0.3928 -0.0929
 6618TIP3    H241346   1.034   3.477  13.766 -1.2452 -2.1301 -1.1222
 6619TIP3   OH241347   6.226   3.636   3.091 -0.1414  0.3179 -0.1059
 6619TIP3    H141348   6.224   3.558   3.035 -0.0210 -0.2217  0.6273
 6619TIP3    H241349   6.136   3.669   3.088 -0.5302 -0.6307  0.6479
 6620TIP3   OH241350   0.631   0.207  16.173 -0.0931 -0.4227  0.1492
 6620TIP3    H141351   0.583   0.190  16.254 -1.4972 -0.9029 -0.7545
 6620TIP3    H241352   0.655   0.300  16.178 -1.1398 -0.1668  0.6271
 6621TIP3   OH241353   2.026   0.739   5.075 -0.1274 -0.2129  0.5636
 6621TIP3    H141354   2.038   0.817   5.020 -0.2212  0.5140  1.5327
 6621TIP3    H241355   2.112   0.723   5.112 -0.3057 -0.0030  1.0800
 6622TIP3   OH241356   2.192   3.474   1.878 -0.6883 -0.1188 -0.0176
 6622TIP3    H141357   2.215   3.384   1.903 -1.4203 -0.5396 -0.8132
 6622TIP3    H241358   2.125   3.464   1.811 -0.5582  1.0272 -0.3395
 6623TIP3   OH241359   2.220   1.858   4.283  0.7148 -0.0131 -0.1575
 6623TIP3    H141360   2.124   1.861   4.273  0.7818 -1.0351 -1.2563
 6623TIP3    H241361   2.240   1.934   4.338 -0.8002 -0.1917  0.7115
 6624TIP3   OH241362   5.759   1.752  16.167 -0.0278 -0.0073  0.4018
 6624TIP3    H141363   5.679   1.764  16.219 -1.9452 -0.2842 -2.3283
 6624TIP3    H241364   5.756   1.661  16.139  0.8398  0.2025 -0.3927
 6625TIP3   OH241365   0.206   2.033  11.286 -0.7622  0.3741 -0.4693
 6625TIP3    H141366   0.121   2.008  11.321 -1.2158  0.6143 -1.3703
 6625TIP3    H241367   0.196   2.026  11.191  0.0977  0.8124 -0.6060
 6626TIP3   OH241368   4.430   1.680  17.455  0.2449  0.4352 -0.2223
 6626TIP3    H141369   4.399   1.673  17.365 -0.4499 -3.8922  0.1112
 6626TIP3    H241370   4.350   1.681  17.508  0.6525  0.7005  0.3916
 6627TIP3   OH241371   5.586   4.426   1.657 -0.1477 -0.3597  0.4589
 6627TIP3    H141372   5.608   4.422   1.750 -0.4333  0.2383  0.5549
 6627TIP3    H241373   5.664   4.463   1.616 -0.5555  0.7645  0.6615
 6628TIP3   OH241374   3.803   3.325  15.921 -0.2244  0.0933  0.3348
 6628TIP3    H141375   3.722   3.362  15.887  0.7749  1.5841 -0.4985
 6628TIP3    H241376   3.836   3.270  15.850 -0.0744  0.1470  0.3641
 6629TIP3   OH241377   6.444   6.499   6.124  0.0386 -0.3463 -0.1085
 6629TIP3    H141378   6.438   6.536   6.036  0.5068 -1.4733 -0.6351
 6629TIP3    H241379   6.372   6.539   6.172 -0.0587  0.4938 -0.9190
 6630TIP3   OH241380   3.097   2.187   5.334  0.0266  0.0094 -0.3274
 6630TIP3    H141381   3.101   2.281   5.354 -0.8785  0.3371 -1.5815
 6630TIP3    H241382   3.010   2.160   5.363  0.3990 -0.5391  0.3274
 6631TIP3   OH241383   0.709   6.206  11.304  0.6950  0.5366  0.3627
 6631TIP3    H141384   0.730   6.263  11.378  1.7412  0.6149  0.0238
 6631TIP3    H241385   0.779   6.142  11.303  0.3238  0.1355 -0.1670
 6632TIP3   OH241386   6.388   6.101  12.976  0.9488  0.2289 -0.3879
 6632TIP3    H141387   6.367   6.128  13.066  0.4009 -2.3394  0.3566
 6632TIP3    H241388   6.472   6.141  12.957  1.1312  0.7305  1.3412
 6633TIP3   OH241389   4.651   4.588   2.027  0.3763 -0.4414  0.2311
 6633TIP3    H141390   4.738   4.558   2.001  1.8544  1.9003  2.1417
 6633TIP3    H241391   4.619   4.637   1.951  1.8058  0.7048  0.3223
 6634TIP3   OH241392   6.535   3.951   2.219 -0.1515 -0.0199 -0.3725
 6634TIP3    H141393   6.463   3.991   2.170  0.7898  0.6797 -1.2416
 6634TIP3    H241394   6.595   3.919   2.151  0.1423 -1.0015  0.3336
 6635TIP3   OH241395   2.699   5.672  14.861  0.1037 -0.2371  0.4409
 6635TIP3    H141396   2.640   5.743  14.835 -1.6031 -0.4393  3.3039
 6635TIP3    H241397   2.719   5.626  14.779 -0.7146  2.0563 -1.1371
 6636TIP3   OH241398   2.833   5.207   3.144  0.4167 -0.5705  0.2469
 6636TIP3    H141399   2.809   5.251   3.225 -2.3316 -0.1389 -0.6827
 6636TIP3    H241400   2.877   5.274   3.092 -0.0779 -0.1039  0.4208
 6637TIP3   OH241401   2.080   5.354   0.825  0.2899 -0.3150  0.1738
 6637TIP3    H141402   2.079   5.394   0.738  0.2849  0.4510  0.5131
 6637TIP3    H241403   1.988   5.355   0.853  0.4580  0.7867  0.7649
 6638TIP3   OH241404   4.437   1.534  16.954 -0.2130 -0.1470  0.3655
 6638TIP3    H141405   4.352   1.506  16.988  0.3558  0.5246  2.4940
 6638TIP3    H241406   4.441   1.498  16.865 -1.8281 -1.9770  0.9779
 6639TIP3   OH241407   4.417   3.640   0.586  0.1909 -0.1745 -0.3456
 6639TIP3    H141408   4.451   3.563   0.631  1.3483  1.0613  1.0061
 6639TIP3    H241409   4.323   3.639   0.604  0.5242 -0.0714  1.6224
 6640TIP3   OH241410   2.238   1.902   3.016  0.4553  0.9738 -0.0968
 6640TIP3    H141411   2.313   1.879   2.962  1.3094 -1.6755  2.0029
 6640TIP3    H241412   2.256   1.992   3.045  0.8037  1.8185 -2.6871
 6641TIP3   OH241413   4.606   0.559   0.879  0.1786 -0.3295 -0.5773
 6641TIP3    H141414   4.686   0.613   0.877  0.1089 -0.0530  1.5148
 6641TIP3    H241415   4.638   0.469   0.882  0.6199 -0.1935  2.7384
 6642TIP3   OH241416   2.029   6.460   2.882  0.8160 -0.2629 -0.0774
 6642TIP3    H141417   2.079   6.380   2.902  0.0289 -0.7117  0.1608
 6642TIP3    H241418   2.007   6.451   2.789  0.7037 -0.3478 -0.0441
 6643TIP3   OH241419   4.816   2.593  15.342 -0.0672 -0.2358 -0.1160
 6643TIP3    H141420   4.833   2.687  15.334  1.3909 -0.5244 -0.7096
 6643TIP3    H241421   4.744   2.587  15.405 -1.2070  1.3409 -1.1701
 6644TIP3   OH241422   6.118   5.534  12.014  0.5267 -0.4949  0.9121
 6644TIP3    H141423   6.077   5.602  12.068 -0.3883  0.1864 -0.5728
 6644TIP3    H241424   6.192   5.503  12.067  1.6211  2.3568  1.2345
 6645TIP3   OH241425   6.270   2.082  10.976  0.3269  0.0363  0.5533
 6645TIP3    H141426   6.258   1.993  11.009 -1.4245  0.2771  0.6715
 6645TIP3    H241427   6.328   2.124  11.039  1.4949 -1.1159  0.2856
 6646TIP3   OH241428   2.936   6.068   5.779  0.7285 -0.3738 -0.4765
 6646TIP3    H141429   2.961   5.986   5.735  0.4761 -0.1771 -0.9951
 6646TIP3    H241430   2.895   6.040   5.860  0.0049 -0.7912 -0.9745
 6647TIP3   OH241431   5.865   5.033  14.033  0.3645 -0.3020 -0.2051
 6647TIP3    H141432   5.820   5.051  14.116  0.5057 -0.3588 -0.1156
 6647TIP3    H241433   5.953   5.007  14.059 -0.1006 -2.0978 -0.2570
 6648TIP3   OH241434   4.556   0.638   4.974 -0.2530 -0.2184  0.2806
 6648TIP3    H141435   4.464   0.611   4.979  0.1202 -1.2871  2.2344
 6648TIP3    H241436   4.605   0.565   5.011  1.3330  0.6798  0.0534
 6649TIP3   OH241437   0.400   3.112  14.126  0.5445  0.1291  0.4192
 6649TIP3    H141438   0.441   3.111  14.213  0.5507  1.1540  0.4331
 6649TIP3    H241439   0.467   3.148  14.068  0.7687 -1.1404 -0.1434
 6650TIP3   OH241440   1.409   5.231  15.562 -0.9069  0.1897 -1.0720
 6650TIP3    H141441   1.454   5.313  15.541 -3.1686  2.0234  0.7121
 6650TIP3    H241442   1.470   5.186  15.621 -0.7073  1.8780  0.0815
 6651TIP3   OH241443   5.778   0.104   1.196 -0.6155  0.1717  0.3609
 6651TIP3    H141444   5.731   0.060   1.125 -1.2499 -0.9983  1.4694
 6651TIP3    H241445   5.870   0.078   1.184 -0.9622 -1.4538  0.9422
 6652TIP3   OH241446   2.037   4.221   0.988 -0.2150 -0.1487 -0.0618
 6652TIP3    H141447   2.006   4.147   0.938 -1.5353  0.9395 -0.9163
 6652TIP3    H241448   1.981   4.294   0.962  0.2891  0.9007  1.5928
 6653TIP3   OH241449   5.792   5.094   0.836 -0.1365 -0.1161  0.4721
 6653TIP3    H141450   5.715   5.058   0.881 -0.6494  1.9715  1.4009
 6653TIP3    H241451   5.757   5.163   0.780  0.9541  0.1947  0.1550
 6654TIP3   OH241452   1.713   4.310  14.395  0.1753  0.2659  0.1848
 6654TIP3    H141453   1.678   4.398  14.381  1.9210  1.1663  1.1924
 6654TIP3    H241454   1.755   4.314  14.481  1.2140 -1.2588 -0.2128
 6655TIP3   OH241455   2.220   5.017   2.955  0.2516 -0.4109 -0.1156
 6655TIP3    H141456   2.207   4.938   3.007  2.2514 -1.3390 -0.8890
 6655TIP3    H241457   2.212   5.089   3.018  2.2697 -1.4643  1.4716
 6656TIP3   OH241458   6.676   4.980   0.164  0.0560  0.2797  0.2407
 6656TIP3    H141459   6.665   5.017   0.251 -0.1809 -0.0696  0.3667
 6656TIP3    H241460   6.595   4.930   0.149  0.6544 -0.7681  0.3751
 6657TIP3   OH241461   0.879   6.106  17.338 -0.3844  0.2013 -0.3651
 6657TIP3    H141462   0.847   6.132  17.252 -1.7456  1.0673  0.3729
 6657TIP3    H241463   0.876   6.010  17.337 -0.5547  0.2090 -1.2055
 6658TIP3   OH241464   0.068   5.360   4.512 -0.1226 -0.2856 -0.1234
 6658TIP3    H141465  -0.024   5.373   4.532  0.0011 -1.2806  1.3023
 6658TIP3    H241466   0.075   5.375   4.418 -1.5119  0.9183 -0.0645
 6659TIP3   OH241467   6.644   4.090   4.219 -0.0118  0.5695 -0.5135
 6659TIP3    H141468   6.587   4.117   4.147  0.6153  2.3620 -0.4031
 6659TIP3    H241469   6.724   4.059   4.176  0.8181  2.7186 -0.6443
 6660TIP3   OH241470   1.379   2.464  13.505  0.2713 -0.1025 -0.2534
 6660TIP3    H141471   1.384   2.528  13.576  1.0530  1.3385 -1.5417
 6660TIP3    H241472   1.408   2.382  13.544  0.1409  0.5299  1.2245
 6661TIP3   OH241473   5.049   4.057  11.355  0.0238 -0.3548  0.6778
 6661TIP3    H141474   4.996   4.029  11.430  0.6920  1.9016  2.0929
 6661TIP3    H241475   4.995   4.121  11.309  0.4427 -0.1188  0.5083
 6662TIP3   OH241476   0.165   0.694  17.246  1.0178  0.6873 -0.0333
 6662TIP3    H141477   0.135   0.746  17.320  0.2801 -0.1603  0.2738
 6662TIP3    H241478   0.253   0.665  17.271 -0.4728 -2.5276  2.1627
 6663TIP3   OH241479   4.406   2.822  17.419 -0.3004  0.4027 -0.2048
 6663TIP3    H141480   4.430   2.864  17.502  2.0518  0.7567 -1.0005
 6663TIP3    H241481   4.366   2.893  17.368  0.1979  0.7306 -0.1492
 6664TIP3   OH241482   0.355   3.413   2.558 -0.7990 -0.2597  0.5512
 6664TIP3    H141483   0.425   3.474   2.579 -2.0820  1.2718  0.5096
 6664TIP3    H241484   0.311   3.397   2.641  0.0293 -1.8487  0.7331
 6665TIP3   OH241485   4.356   2.935  12.383  0.2211  0.2246  0.0708
 6665TIP3    H141486   4.375   3.021  12.346  0.9185  0.8521  1.7863
 6665TIP3    H241487   4.306   2.953  12.463 -0.0301 -0.9889  0.2119
 6666TIP3   OH241488   5.671   0.521   5.278 -0.0267  0.4693  0.3521
 6666TIP3    H141489   5.745   0.570   5.312 -1.1764  1.9725  0.8112
 6666TIP3    H241490   5.698   0.493   5.191  1.3888  0.2091  0.8468
 6667TIP3   OH241491   2.193   2.735   4.607  0.0090  0.1480 -0.0607
 6667TIP3    H141492   2.258   2.674   4.644 -0.5044 -0.9826 -0.9361
 6667TIP3    H241493   2.114   2.682   4.598 -0.9712  1.4231  0.6958
 6668TIP3   OH241494   4.970   1.556   0.363 -0.2287 -0.0883 -0.1115
 6668TIP3    H141495   4.990   1.481   0.307  0.4298  0.4564 -0.6151
 6668TIP3    H241496   4.972   1.631   0.304  2.4637  0.7719  0.9431
 6669TIP3   OH241497   2.639   3.045  15.151 -0.0926 -0.2993  0.3461
 6669TIP3    H141498   2.614   3.123  15.102  1.7545 -0.2781 -0.6658
 6669TIP3    H241499   2.612   3.063  15.241  0.9355  1.8564  0.2933
 6670TIP3   OH241500   2.258   0.945   2.140 -0.6312 -0.2568 -0.9022
 6670TIP3    H141501   2.278   1.030   2.180  1.2630 -1.0123 -0.1658
 6670TIP3    H241502   2.257   0.963   2.046 -2.1621  0.9380 -0.7049
 6671TIP3   OH241503   6.025   1.020  16.684 -0.2501 -0.2174  0.3567
 6671TIP3    H141504   5.988   0.998  16.598 -0.8778 -0.8431  0.7737
 6671TIP3    H241505   6.112   0.978  16.683 -1.0323 -1.9455  0.7506
 6672TIP3   OH241506   5.699   5.477  14.590 -0.2115  0.3906  0.1668
 6672TIP3    H141507   5.624   5.526  14.557  0.3889  2.2829  1.4220
 6672TIP3    H241508   5.752   5.458  14.513 -0.9882  0.8064 -0.4782
 6673TIP3   OH241509   2.653   2.559   0.912 -0.4484 -0.0394 -0.5851
 6673TIP3    H141510   2.674   2.509   0.991 -0.9021  2.1074  0.9596
 6673TIP3    H241511   2.571   2.520   0.881 -0.3556 -0.8013  0.0817
 6674TIP3   OH241512   0.459   0.471  13.821  0.2620 -0.5798 -0.4613
 6674TIP3    H141513   0.464   0.567  13.816 -1.2263 -0.3524  1.5724
 6674TIP3    H241514   0.480   0.442  13.732 -0.5217  1.6921 -1.4592
 6675TIP3   OH241515   1.900   3.794  16.680 -0.1750  0.2531 -0.2732
 6675TIP3    H141516   1.939   3.730  16.739  0.4804  1.7778  0.9973
 6675TIP3    H241517   1.818   3.753  16.651  0.1856 -1.1088  0.5498
 6676TIP3   OH241518   4.144   2.228   4.867  0.0803 -0.3142  0.1944
 6676TIP3    H141519   4.233   2.195   4.883  0.2966 -1.2284 -2.4267
 6676TIP3    H241520   4.157   2.317   4.836  0.0237 -0.2069  0.4774
 6677TIP3   OH241521   5.974   4.546  16.523  0.3497 -0.1877  0.2154
 6677TIP3    H141522   5.898   4.568  16.577 -0.1482 -0.6453 -0.2894
 6677TIP3    H241523   6.034   4.503  16.583  1.1920  2.1075  1.1526
 6678TIP3   OH241524   4.263   5.817   5.145 -0.4503  0.0856 -0.1225
 6678TIP3    H141525   4.270   5.864   5.227  1.0181  1.5312 -1.0281
 6678TIP3    H241526   4.176   5.840   5.111 -1.1259 -0.6384  1.0428
 6679TIP3   OH241527   5.981   4.840   1.546  0.0903 -0.3792 -0.2067
 6679TIP3    H141528   5.936   4.755   1.551  0.8615 -0.7251  1.5376
 6679TIP3    H241529   6.072   4.820   1.567  0.4944  0.7605 -0.7936
 6680TIP3   OH241530   0.585   3.910  17.363  0.3748 -0.1287 -0.3148
 6680TIP3    H141531   0.663   3.869  17.325  0.8298 -1.3800  1.8023
 6680TIP3    H241532   0.617   3.957  17.440 -1.1195 -2.2936  1.7600
 6681TIP3   OH241533   1.923   5.935  11.659  0.0893  0.3779  0.2242
 6681TIP3    H141534   1.829   5.952  11.654 -0.2716 -1.6302 -1.3292
 6681TIP3    H241535   1.932   5.865  11.724  0.4066  0.0185 -0.1983
 6682TIP3   OH241536   0.443   3.013   0.988  0.1503  0.4913 -0.0830
 6682TIP3    H141537   0.465   2.921   0.975 -0.2504  0.4495 -0.5154
 6682TIP3    H241538   0.457   3.029   1.081  0.2188 -0.0090 -0.0089
 6683TIP3   OH241539   0.817   5.204  15.908  0.2035  0.1000  0.2632
 6683TIP3    H141540   0.736   5.153  15.912 -0.7657  1.6285  2.4581
 6683TIP3    H241541   0.800   5.272  15.842 -1.0660  1.4743  1.9133
 6684TIP3   OH241542   0.091   5.547  17.393  0.2070 -0.1688 -0.6622
 6684TIP3    H141543   0.071   5.520  17.303  0.0042  0.0887 -0.6934
 6684TIP3    H241544   0.161   5.487  17.421  1.9713  1.2517 -1.8271
 6685TIP3   OH241545   5.936   3.488  14.352 -0.2008  0.0060 -0.0430
 6685TIP3    H141546   5.855   3.538  14.344  0.0197  0.2781 -0.6261
 6685TIP3    H241547   5.914   3.400  14.320 -0.3311  0.0039  0.0526
 6686TIP3   OH241548   6.727   1.344  13.265  0.0098  0.3735 -0.0439
 6686TIP3    H141549   6.662   1.377  13.204 -0.6666 -0.6978  0.0661
 6686TIP3    H241550   6.811   1.363  13.224 -0.3260  2.1782  0.0199
 6687TIP3   OH241551   1.092   5.683   3.657  0.4137 -0.1900 -0.0755
 6687TIP3    H141552   1.144   5.650   3.731  1.1341  3.3384  1.1556
 6687TIP3    H241553   1.147   5.666   3.580  0.8092 -1.5658  0.4665
 6688TIP3   OH241554   2.773   1.633   3.459  0.1429 -0.1649  0.7339
 6688TIP3    H141555   2.679   1.629   3.439  0.8134 -1.2104 -2.7374
 6688TIP3    H241556   2.793   1.726   3.464 -0.5909  0.1713 -1.5558
 6689TIP3   OH241557   4.586   1.472   0.348  0.0873 -0.8192 -0.1526
 6689TIP3    H141558   4.631   1.469   0.264  0.4541  0.3848 -0.0200
 6689TIP3    H241559   4.652   1.447   0.413  1.1114  2.3282  0.2061
 6690TIP3   OH241560   3.917   1.894   2.407 -0.2698 -0.6586  0.0607
 6690TIP3    H141561   4.007   1.881   2.378  0.7662  1.4540  1.9729
 6690TIP3    H241562   3.884   1.964   2.350 -0.1833 -0.4158  0.3068
 6691TIP3   OH241563   5.378   1.202  16.588 -0.9663 -0.9016  0.6142
 6691TIP3    H141564   5.415   1.271  16.643  0.1330  1.0909 -2.3333
 6691TIP3    H241565   5.433   1.126  16.603  2.3550  0.9730 -1.0227
 6692TIP3   OH241566   1.362   1.892  13.612 -0.5238 -0.3130  0.9593
 6692TIP3    H141567   1.300   1.940  13.666  0.6606  1.7657  0.5575
 6692TIP3    H241568   1.403   1.958  13.557  0.2759 -1.9770 -0.5650
 6693TIP3   OH241569   1.979   2.079   1.846 -0.1182 -0.2438 -0.2634
 6693TIP3    H141570   2.022   2.156   1.882 -1.2394  0.4531 -0.3771
 6693TIP3    H241571   2.049   2.030   1.802  0.1789  2.0945 -2.6137
 6694TIP3   OH241572   2.355   0.339  16.845  0.8654  0.7674 -0.5292
 6694TIP3    H141573   2.266   0.360  16.873  0.0707 -0.9088 -1.6111
 6694TIP3    H241574   2.411   0.384  16.907 -0.7591  0.6320  1.1287
 6695TIP3   OH241575   3.186   0.342  11.008  0.3209 -0.8363 -0.4112
 6695TIP3    H141576   3.216   0.251  11.003 -1.6186 -1.5257 -0.3355
 6695TIP3    H241577   3.265   0.394  10.993  1.8454 -2.4830  1.3223
 6696TIP3   OH241578   3.220   5.187  13.166  0.2829 -0.4068 -0.3478
 6696TIP3    H141579   3.243   5.254  13.231  0.1964 -0.2635 -0.4623
 6696TIP3    H241580   3.129   5.208  13.142 -0.2343 -1.4227  0.6680
 6697TIP3   OH241581   5.435   1.774  15.824  0.1657  0.1183 -0.4278
 6697TIP3    H141582   5.502   1.741  15.764  0.4298  0.5252 -0.3644
 6697TIP3    H241583   5.480   1.844  15.873 -0.1143 -0.0534  0.0778
 6698TIP3   OH241584   3.031   5.339   2.975 -0.2397  0.3823 -0.0853
 6698TIP3    H141585   2.982   5.342   2.893 -0.4762 -0.0800  0.0428
 6698TIP3    H241586   3.067   5.428   2.984  1.8559 -0.1853 -1.9481
 6699TIP3   OH241587   5.746   5.652  13.073  0.4649 -0.3695 -0.5614
 6699TIP3    H141588   5.708   5.628  12.989  1.1465  1.2310 -1.3882
 6699TIP3    H241589   5.783   5.740  13.058  2.0127 -0.7012  0.9461
 6700TIP3   OH241590   5.151   3.808  16.710 -0.2124  0.6742 -0.7307
 6700TIP3    H141591   5.151   3.860  16.790  1.9554  0.3280 -0.4372
 6700TIP3    H241592   5.238   3.768  16.707 -1.8208 -3.3411 -0.6882
 6701TIP3   OH241593   4.495   1.246  12.063 -0.3590 -0.2523  0.6495
 6701TIP3    H141594   4.416   1.192  12.063 -0.0741 -0.6775  0.3157
 6701TIP3    H241595   4.505   1.275  11.973 -1.2320  1.4660  1.0562
 6702TIP3   OH241596   2.448   6.333  15.424 -0.4084  0.7121  0.5722
 6702TIP3    H141597   2.532   6.331  15.379 -0.3413  0.3130  0.7198
 6702TIP3    H241598   2.439   6.424  15.453 -0.2294  0.8590  0.1810
 6703TIP3   OH241599   6.341   0.671  12.380 -0.1661  0.1720 -0.1707
 6703TIP3    H141600   6.317   0.646  12.291  0.1180 -0.4016 -0.0842
 6703TIP3    H241601   6.311   0.599  12.435 -1.1968  0.9359  0.3233
 6704TIP3   OH241602   3.092   1.421  12.030  0.3109  0.1709 -0.1579
 6704TIP3    H141603   3.060   1.344  11.983  1.2136 -0.7431  0.6823
 6704TIP3    H241604   3.187   1.416  12.023  0.4078  0.7976  0.5436
 6705TIP3   OH241605   0.058   1.277  12.891 -0.5304  0.0756  0.3117
 6705TIP3    H141606   0.063   1.264  12.796 -0.8482 -2.2215  0.5388
 6705TIP3    H241607   0.148   1.295  12.918 -0.2673 -0.2674 -0.3142
 6706TIP3   OH241608   4.405   2.256   3.221  0.1329 -0.4100 -0.0034
 6706TIP3    H141609   4.476   2.302   3.177 -0.3646  1.0586  0.6869
 6706TIP3    H241610   4.439   2.236   3.308 -0.6797  1.4208  0.7835
 6707TIP3   OH241611   4.376   3.639   1.546  0.0470 -0.0396 -0.3937
 6707TIP3    H141612   4.301   3.655   1.603  0.5470  1.7421 -0.1920
 6707TIP3    H241613   4.337   3.622   1.460 -0.6167  1.1302 -0.3510
 6708TIP3   OH241614   4.601   0.336   1.567  0.7149 -0.3904  0.0310
 6708TIP3    H141615   4.621   0.354   1.659  2.9268  0.4255 -0.5496
 6708TIP3    H241616   4.671   0.278   1.538 -0.6267 -1.6288 -0.8670
 6709TIP3   OH241617   1.408   0.344   2.247  0.2868 -0.5389  0.1546
 6709TIP3    H141618   1.485   0.400   2.240  0.0286 -0.2048 -0.0253
 6709TIP3    H241619   1.439   0.256   2.226  0.6405 -0.4235  0.1992
 6710TIP3   OH241620   0.169   0.871   0.275 -0.7596  0.3083 -0.1872
 6710TIP3    H141621   0.213   0.857   0.359 -0.0836  0.7321 -0.4697
 6710TIP3    H241622   0.105   0.940   0.293 -0.1479  0.8802 -0.1801
 6711TIP3   OH241623   4.519   1.753   6.566  0.4445 -0.6769  0.1345
 6711TIP3    H141624   4.540   1.830   6.620  1.4233  0.4056 -1.6806
 6711TIP3    H241625   4.517   1.680   6.628 -1.2840  0.8790  2.0570
 6712TIP3   OH241626   5.349   4.355  15.127  0.1274 -0.0393  0.2720
 6712TIP3    H141627   5.350   4.350  15.223  0.4426  1.0790  0.3377
 6712TIP3    H241628   5.314   4.442  15.108 -2.3039 -1.1142 -0.6826
 6713TIP3   OH241629   0.164   5.206   0.402 -0.6070  0.0428  0.2195
 6713TIP3    H141630   0.162   5.120   0.444 -0.9925  0.4774  1.1365
 6713TIP3    H241631   0.072   5.232   0.397 -0.5204  0.2467 -0.4015
 6714TIP3   OH241632   3.830   4.802   3.711 -0.3121 -0.0992 -0.2223
 6714TIP3    H141633   3.814   4.814   3.617  1.0030  1.3352 -0.3010
 6714TIP3    H241634   3.876   4.882   3.738 -1.9398  0.1968  1.9630
 6715TIP3   OH241635   5.556   3.421  15.210  0.4357 -0.3206  0.2356
 6715TIP3    H141636   5.473   3.457  15.180  0.7122  0.3962  0.3231
 6715TIP3    H241637   5.590   3.486  15.271  1.3154 -0.3718 -0.1944
 6716TIP3   OH241638   1.562   1.054  16.016  0.0131  0.6576  0.0802
 6716TIP3    H141639   1.623   1.083  15.948  1.6376 -0.1207  1.1404
 6716TIP3    H241640   1.517   1.134  16.044 -0.9798  0.9414 -2.1190
 6717TIP3   OH241641   5.616   2.534  14.217 -0.5749 -0.2484 -0.2540
 6717TIP3    H141642   5.692   2.540  14.159 -0.5852  3.9434 -0.0962
 6717TIP3    H241643   5.543   2.563  14.164 -0.9463  1.6176  1.1670
 6718TIP3   OH241644   0.082   6.621   1.835 -0.1439  1.0154 -0.1799
 6718TIP3    H141645   0.169   6.599   1.802  0.0012 -0.7006  1.2144
 6718TIP3    H241646   0.098   6.684   1.906  0.2467 -0.9822  1.6171
 6719TIP3   OH241647   6.219   0.263   4.872  0.2158 -0.8350  0.2847
 6719TIP3    H141648   6.188   0.353   4.860 -0.1838 -1.2908 -3.0719
 6719TIP3    H241649   6.300   0.273   4.923 -0.0700  1.3599  0.4403
 6720TIP3   OH241650   5.700   6.543   3.200 -0.3958  0.3900  0.6829
 6720TIP3    H141651   5.711   6.454   3.233 -2.4182 -0.1171  0.1562
 6720TIP3    H241652   5.606   6.560   3.209 -0.4998  1.4641 -1.6510
 6721TIP3   OH241653   1.413   0.056  13.471  0.0932  0.0640  0.3095
 6721TIP3    H141654   1.330   0.013  13.455 -0.9400  1.3672  1.8651
 6721TIP3    H241655   1.465   0.037  13.393 -1.0153 -2.1934  0.0338
 6722TIP3   OH241656   0.839   4.274   1.299 -0.3234 -0.1258  0.3753
 6722TIP3    H141657   0.787   4.195   1.285 -0.1123 -0.0295 -1.1645
 6722TIP3    H241658   0.912   4.246   1.354 -0.2831 -0.9996 -0.0999
 6723TIP3   OH241659   4.448   3.754   1.890  0.2854 -0.1214  0.3180
 6723TIP3    H141660   4.363   3.712   1.883 -0.7635  1.6582  1.5792
 6723TIP3    H241661   4.504   3.706   1.828 -1.3052 -2.0423  0.2724
 6724TIP3   OH241662   5.893   5.394  15.675  0.0980  0.2332 -0.3547
 6724TIP3    H141663   5.914   5.454  15.747  2.0147  0.3145 -0.9076
 6724TIP3    H241664   5.917   5.442  15.596 -3.5195  0.7977 -1.2792
 6725TIP3   OH241665   2.045   5.905   5.022 -0.3377  0.3101 -0.3972
 6725TIP3    H141666   1.952   5.928   5.019 -0.0113  1.6835 -1.0564
 6725TIP3    H241667   2.046   5.815   5.053 -1.9170  0.0891 -0.8566
 6726TIP3   OH241668   5.408   3.024  16.132  0.6936 -0.1609  0.2754
 6726TIP3    H141669   5.433   3.104  16.085  0.8520 -0.9173 -0.9775
 6726TIP3    H241670   5.437   2.953  16.075 -0.9237 -1.1128  0.5699
 6727TIP3   OH241671   4.866   1.820  11.996  0.0651  0.7064 -0.5366
 6727TIP3    H141672   4.884   1.768  12.074  0.2512  0.9400 -0.4183
 6727TIP3    H241673   4.941   1.805  11.939 -0.6694 -0.4605 -1.2207
 6728TIP3   OH241674   5.754   6.381   4.427  0.0363 -0.3138 -0.0135
 6728TIP3    H141675   5.748   6.410   4.336 -2.0659 -1.3683 -0.2813
 6728TIP3    H241676   5.836   6.331   4.431  0.6649  0.5788 -1.0427
 6729TIP3   OH241677   2.331   2.284  13.062  0.0514 -0.2913  0.9654
 6729TIP3    H141678   2.277   2.321  12.993 -0.0052 -1.9176  0.1035
 6729TIP3    H241679   2.335   2.353  13.128 -2.5199  0.1325  0.7869
 6730TIP3   OH241680   2.610   2.215   5.902  0.2764  0.5506  0.3553
 6730TIP3    H141681   2.660   2.287   5.940  1.0791  0.5051 -0.5671
 6730TIP3    H241682   2.676   2.156   5.866 -0.4332  0.4885 -0.8957
 6731TIP3   OH241683   4.763   1.652   2.591  0.1673  0.3401  0.2116
 6731TIP3    H141684   4.811   1.640   2.509  0.6223  0.3331  0.4747
 6731TIP3    H241685   4.703   1.725   2.574 -1.4486 -1.1518 -0.8898
 6732TIP3   OH241686   6.566   1.071   1.265  0.3879 -0.0341 -0.0076
 6732TIP3    H141687   6.523   1.019   1.333 -1.6668  1.0461 -0.4166
 6732TIP3    H241688   6.636   1.014   1.233 -2.0158 -2.8173 -0.7397
 6733TIP3   OH241689   1.535   5.931   4.567  0.3361 -0.4017  0.2627
 6733TIP3    H141690   1.531   5.900   4.657  0.5223 -1.3479 -0.0478
 6733TIP3    H241691   1.524   6.026   4.574 -0.0428 -0.5062  1.2434
 6734TIP3   OH241692   1.426   3.915   5.697  0.0828  0.1588 -0.0094
 6734TIP3    H141693   1.352   3.950   5.646  1.0450  2.1424 -0.1340
 6734TIP3    H241694   1.427   3.967   5.777  0.1070 -1.2835  0.9766
 6735TIP3   OH241695   6.109   1.621   5.503 -0.1804 -0.3729 -0.1413
 6735TIP3    H141696   6.045   1.568   5.550 -0.1833 -2.8516 -2.6672
 6735TIP3    H241697   6.193   1.598   5.542 -0.2620 -1.7684 -0.7340
 6736TIP3   OH241698   6.701   4.285   6.170 -0.0345 -0.3923 -0.2733
 6736TIP3    H141699   6.660   4.317   6.251  0.2663 -0.9143  0.0985
 6736TIP3    H241700   6.732   4.197   6.193  1.1644 -0.0653 -0.5806
 6737TIP3   OH241701   5.014   2.860   4.001 -0.2426 -0.0422  0.3241
 6737TIP3    H141702   5.022   2.894   3.911  0.4875  1.4419  0.9066
 6737TIP3    H241703   5.099   2.819   4.018 -0.7690 -1.3223 -0.0220
 6738TIP3   OH241704   3.244   6.637   3.460 -0.5002 -0.7272 -0.2784
 6738TIP3    H141705   3.155   6.625   3.428 -1.7711  1.0665  2.2280
 6738TIP3    H241706   3.286   6.693   3.394 -2.1070  0.5740 -0.2813
 6739TIP3   OH241707   0.724   0.727  13.021  0.1783  0.2898  0.1791
 6739TIP3    H141708   0.678   0.648  13.049 -0.0412  0.5553  0.5830
 6739TIP3    H241709   0.706   0.790  13.090  0.8570  0.5080  0.1641
 6740TIP3   OH241710   0.122   3.980   4.082  0.7295 -0.6494  0.1829
 6740TIP3    H141711   0.192   3.978   4.016  1.7681  0.8901  1.1674
 6740TIP3    H241712   0.150   3.918   4.149 -0.0004 -1.7238 -0.4855
 6741TIP3   OH241713   5.729   5.850   5.961  0.6952 -0.1382 -0.0124
 6741TIP3    H141714   5.772   5.765   5.971 -2.2521 -1.5902  1.9707
 6741TIP3    H241715   5.729   5.888   6.049  0.0538  0.8688 -0.4267
 6742TIP3   OH241716   0.779   2.987  11.304  0.4784  0.4672  0.0723
 6742TIP3    H141717   0.741   2.903  11.279  0.8730  0.7393 -1.4936
 6742TIP3    H241718   0.850   3.002  11.242  0.9700  1.5748  0.8556
 6743TIP3   OH241719   2.036   1.717  13.519 -0.0191  0.8062 -0.3036
 6743TIP3    H141720   1.941   1.726  13.520 -0.4866 -2.5895  0.5347
 6743TIP3    H241721   2.060   1.731  13.428 -1.6321 -0.1686 -0.9280
 6744TIP3   OH241722   1.599   5.690  12.919  0.2378  0.3685 -0.4380
 6744TIP3    H141723   1.549   5.771  12.917 -1.0901 -0.4052  0.3023
 6744TIP3    H241724   1.649   5.695  13.001 -2.5390 -1.0418  1.5047
 6745TIP3   OH241725   0.471   5.324  12.314  0.0985  0.5186  0.4813
 6745TIP3    H141726   0.554   5.353  12.353  0.7133  0.9391 -1.0569
 6745TIP3    H241727   0.491   5.312  12.221 -1.1228 -1.1967  0.3962
 6746TIP3   OH241728   5.286   5.204  14.396  0.6697  0.0725  0.0833
 6746TIP3    H141729   5.208   5.251  14.366  0.7300 -0.0615 -0.2871
 6746TIP3    H241730   5.265   5.178  14.486  0.5715  0.6610  0.2342
 6747TIP3   OH241731   3.174   2.128  17.276  0.3518  0.3009 -0.2174
 6747TIP3    H141732   3.252   2.111  17.329 -0.5822  1.2171  1.5690
 6747TIP3    H241733   3.141   2.212  17.309 -0.0598  1.1428 -2.6033
 6748TIP3   OH241734   2.578   0.836  12.693 -0.8690 -0.1719 -0.2770
 6748TIP3    H141735   2.504   0.850  12.752 -0.5949 -0.3342  0.1102
 6748TIP3    H241736   2.591   0.920  12.650 -0.8606  0.0511  0.1479
 6749TIP3   OH241737   5.575   3.011  12.719  0.0022  0.5566 -0.0949
 6749TIP3    H141738   5.533   3.079  12.666 -0.3590 -0.1519 -0.7428
 6749TIP3    H241739   5.504   2.951  12.740  0.4417  0.0429 -0.0783
 6750TIP3   OH241740   1.495   4.841  12.777  0.6145  0.5736  0.0407
 6750TIP3    H141741   1.497   4.807  12.867 -0.5290 -0.1954 -0.2006
 6750TIP3    H241742   1.584   4.827  12.744  0.7498 -0.1773  0.6837
 6751TIP3   OH241743   1.584   4.415   6.009 -0.5578  0.3035  0.1953
 6751TIP3    H141744   1.678   4.421   5.997  0.2659 -5.8960  0.6163
 6751TIP3    H241745   1.548   4.422   5.921  0.5924 -0.1778 -0.3285
 6752TIP3   OH241746   2.857   1.998   0.152 -0.0188 -0.6544 -0.4870
 6752TIP3    H141747   2.934   1.958   0.192 -0.0441  1.3046  1.7507
 6752TIP3    H241748   2.883   2.088   0.134 -2.3371  0.8594  2.6551
 6753TIP3   OH241749   3.969   4.033   3.564  0.1058 -0.3171  0.0009
 6753TIP3    H141750   4.048   3.988   3.595  1.0362  0.8341 -0.6044
 6753TIP3    H241751   3.918   4.051   3.643  0.4821 -1.0057  0.4078
 6754TIP3   OH241752   2.589   4.018  10.621 -0.0231  0.1693  0.4742
 6754TIP3    H141753   2.628   4.098  10.586 -1.7854  1.9234  2.1712
 6754TIP3    H241754   2.504   4.012  10.577  0.3906 -1.2406 -0.1794
 6755TIP3   OH241755   6.703   5.376  14.768  0.7945  0.4646 -0.3522
 6755TIP3    H141756   6.770   5.434  14.804  2.3680 -1.6953  0.4194
 6755TIP3    H241757   6.750   5.321  14.705 -0.3620 -0.7315 -0.2056
 6756TIP3   OH241758   1.365   1.221  16.181 -0.2331 -0.3472 -0.2900
 6756TIP3    H141759   1.388   1.309  16.152 -0.3359 -0.1763  0.1368
 6756TIP3    H241760   1.270   1.216  16.171 -0.1736 -0.5750 -0.7600
 6757TIP3   OH241761   1.180   5.961  16.300 -0.2757 -0.0919 -0.2408
 6757TIP3    H141762   1.235   5.916  16.236 -0.2892  0.7319 -0.8568
 6757TIP3    H241763   1.170   5.899  16.372  0.7868 -0.5589 -0.4827
 6758TIP3   OH241764   2.068   6.040  15.587  0.4069 -0.1744  0.8136
 6758TIP3    H141765   2.151   6.078  15.616  0.6733 -0.9160  1.0529
 6758TIP3    H241766   2.092   5.959  15.543 -0.0481  0.6135 -0.9608
 6759TIP3   OH241767   3.390   2.402   1.814 -0.5766  0.2852 -0.2117
 6759TIP3    H141768   3.431   2.352   1.884 -2.5672 -0.6690  0.3483
 6759TIP3    H241769   3.411   2.354   1.734 -0.5345 -0.1348  0.0503
 6760TIP3   OH241770   3.381   2.098   3.976 -0.2995  0.2364 -0.3245
 6760TIP3    H141771   3.388   2.004   3.992 -2.1184  0.0648 -0.3484
 6760TIP3    H241772   3.427   2.139   4.049  0.8872 -0.6486 -0.5468
 6761TIP3   OH241773   3.392   6.401   3.945  0.0877 -0.2420  0.4989
 6761TIP3    H141774   3.329   6.472   3.939  0.0787 -0.3240 -0.5074
 6761TIP3    H241775   3.472   6.436   3.904 -0.3812 -1.2961 -1.4286
 6762TIP3   OH241776   2.357   3.495   1.345  0.4873  0.0714  0.2250
 6762TIP3    H141777   2.337   3.402   1.355  0.8957  0.0588  0.9848
 6762TIP3    H241778   2.272   3.538   1.355  0.2383 -0.2336 -0.4926
 6763TIP3   OH241779   5.721   4.164   0.512 -0.1440  0.4154  0.3485
 6763TIP3    H141780   5.641   4.209   0.484  0.5432  1.0733 -0.6095
 6763TIP3    H241781   5.791   4.225   0.492  0.8130 -1.0035 -0.8937
 6764TIP3   OH241782   4.546   0.312   4.001  0.3886  0.2769 -0.2958
 6764TIP3    H141783   4.457   0.294   3.971  0.2817  2.4187 -1.4550
 6764TIP3    H241784   4.534   0.359   4.084  0.5025 -0.5678  0.2091
 6765TIP3   OH241785   6.768   0.206  10.942  0.4465  0.0567 -0.6170
 6765TIP3    H141786   6.747   0.298  10.928  1.7950  0.2601 -1.5148
 6765TIP3    H241787   6.746   0.189  11.034 -1.5265  0.7655 -0.9345
 6766TIP3   OH241788   3.564   6.397   5.023  0.2202  0.2858 -0.4454
 6766TIP3    H141789   3.548   6.304   5.042  1.6358  0.3993  1.6361
 6766TIP3    H241790   3.528   6.410   4.935 -1.5083 -1.8124 -0.1283
 6767TIP3   OH241791   0.449   5.929   0.159 -0.2953 -0.1668  0.0645
 6767TIP3    H141792   0.494   5.853   0.124 -1.9925 -1.1155 -0.1675
 6767TIP3    H241793   0.405   5.897   0.238  1.1043  1.2316  1.4751
 6768TIP3   OH241794   3.554   5.161  13.625 -0.0657 -0.1072 -0.3727
 6768TIP3    H141795   3.628   5.219  13.604  1.1871 -1.6499 -0.3662
 6768TIP3    H241796   3.519   5.134  13.540  0.4371 -0.6803 -0.4001
 6769TIP3   OH241797   0.943   1.819  16.882 -0.0554  0.5549 -0.2663
 6769TIP3    H141798   0.938   1.755  16.811  0.1012  0.9805 -0.6711
 6769TIP3    H241799   0.900   1.777  16.956 -0.7275  0.3196 -0.7807
 6770TIP3   OH241800   3.709   5.247  17.152  0.1196  0.1628 -0.5392
 6770TIP3    H141801   3.661   5.323  17.185  0.4192  0.3030 -0.4197
 6770TIP3    H241802   3.795   5.254  17.193  0.8756  0.9506 -2.1573
 6771TIP3   OH241803   2.620   3.705  15.081 -0.0478  0.4007 -0.3569
 6771TIP3    H141804   2.668   3.789  15.079 -2.9547  2.1838 -0.4484
 6771TIP3    H241805   2.585   3.696  14.992  0.8549 -1.3647 -0.5679
 6772TIP3   OH241806   4.323   2.404   5.988  0.2648  0.2401  0.2149
 6772TIP3    H141807   4.246   2.359   6.022  1.1311  0.0694  2.0678
 6772TIP3    H241808   4.304   2.497   6.003  0.6128  0.1702  1.1854
 6773TIP3   OH241809   3.533   0.738   5.850 -0.3502  0.2348  0.3028
 6773TIP3    H141810   3.501   0.825   5.827 -0.4194 -0.0553 -0.7377
 6773TIP3    H241811   3.482   0.714   5.928 -0.2219  1.1798  0.6910
 6774TIP3   OH241812   0.745   3.786  13.778 -0.1638 -0.0368  0.0887
 6774TIP3    H141813   0.765   3.737  13.698  0.2329 -1.8192  1.2109
 6774TIP3    H241814   0.706   3.868  13.747 -0.9167 -1.0692 -1.9006
 6775TIP3   OH241815   4.039   1.351   6.132  0.4728  0.1756  0.3659
 6775TIP3    H141816   3.993   1.424   6.173  0.4354  0.8191 -0.7772
 6775TIP3    H241817   3.986   1.274   6.153 -0.4040  0.7147  0.1698
 6776TIP3   OH241818   5.684   0.631  12.650  0.3924  0.2445  0.3595
 6776TIP3    H141819   5.708   0.724  12.640 -1.5102  0.8114  0.7660
 6776TIP3    H241820   5.599   0.633  12.693  0.9412 -1.7548  1.6257
 6777TIP3   OH241821   3.557   5.646   2.901 -0.7229 -0.1994  0.7195
 6777TIP3    H141822   3.551   5.568   2.846 -3.3630  0.5371 -0.1857
 6777TIP3    H241823   3.651   5.665   2.906 -0.2425 -1.6428 -1.6060
 6778TIP3   OH241824   4.777   4.378  15.644 -0.2483 -0.0496 -0.1077
 6778TIP3    H141825   4.785   4.425  15.726  0.8348 -0.0676 -0.1875
 6778TIP3    H241826   4.768   4.286  15.670 -1.5245  0.0901  0.0195
 6779TIP3   OH241827   1.715   1.838   5.301 -0.3606  0.1712  0.0169
 6779TIP3    H141828   1.632   1.812   5.342  0.6979 -1.8355  1.0318
 6779TIP3    H241829   1.743   1.915   5.351 -1.9409  1.3520 -0.8360
 6780TIP3   OH241830   4.725   4.943  16.051  0.0374  0.3155 -0.2013
 6780TIP3    H141831   4.713   4.882  15.978  1.1472  0.0733 -0.2092
 6780TIP3    H241832   4.812   4.981  16.036  0.2315  0.3482  0.9154
 6781TIP3   OH241833   0.858   3.130   6.525  0.5566  0.2963 -0.4116
 6781TIP3    H141834   0.932   3.093   6.574  0.8688  0.4742 -0.7434
 6781TIP3    H241835   0.821   3.055   6.478 -0.2526 -0.0413  0.7102
 6782TIP3   OH241836   1.738   6.181  14.048 -0.0246  0.2819 -0.1036
 6782TIP3    H141837   1.692   6.216  13.971 -0.8714  0.2767  0.3957
 6782TIP3    H241838   1.684   6.206  14.122 -0.0664 -1.1257  0.3620
 6783TIP3   OH241839   0.951   1.669   3.743 -0.1855 -0.5755  0.1545
 6783TIP3    H141840   0.958   1.723   3.822 -1.0001 -0.7880  0.3733
 6783TIP3    H241841   0.978   1.581   3.771  0.3028 -0.4812 -0.0007
 6784TIP3   OH241842   4.109   6.737   3.579  0.7976 -0.4033  0.0151
 6784TIP3    H141843   4.066   6.822   3.579 -0.3217 -0.9057  2.2000
 6784TIP3    H241844   4.037   6.674   3.574  1.5995 -1.2711 -1.3903
 6785TIP3   OH241845   5.138   5.009  14.813 -0.1795 -0.3508  0.4583
 6785TIP3    H141846   5.162   4.927  14.856 -2.1480 -0.6933  1.0353
 6785TIP3    H241847   5.103   5.064  14.884 -1.5395 -0.1277 -0.3443
 6786TIP3   OH241848   1.188   2.469   6.154 -0.5450  0.4768  0.3630
 6786TIP3    H141849   1.168   2.395   6.210  0.0524  0.3655  0.4354
 6786TIP3    H241850   1.145   2.448   6.071  1.4114 -1.0129 -0.3405
 6787TIP3   OH241851   2.002   2.724  11.677 -0.2930  0.0579 -0.1046
 6787TIP3    H141852   2.035   2.759  11.759  1.5641  0.4533 -0.9584
 6787TIP3    H241853   1.920   2.680  11.700 -0.2681  0.9246  1.7741
 6788TIP3   OH241854   0.136   0.383  16.802  0.7984  0.5804 -0.1350
 6788TIP3    H141855   0.190   0.425  16.735 -0.0359 -0.7544 -1.7180
 6788TIP3    H241856   0.048   0.380  16.764  0.3639 -0.4804  0.8925
 6789TIP3   OH241857   6.276   0.956   2.771  0.0507 -0.2074  0.4878
 6789TIP3    H141858   6.233   1.041   2.767 -0.2086 -0.3711 -0.4235
 6789TIP3    H241859   6.368   0.976   2.751 -0.3655 -0.3680 -1.9630
 6790TIP3   OH241860   4.794   3.804  11.978 -0.6639 -0.9380 -0.9129
 6790TIP3    H141861   4.786   3.820  11.884 -0.3773  0.6130 -0.6874
 6790TIP3    H241862   4.726   3.857  12.018 -0.7068 -1.4976 -0.2256
 6791TIP3   OH241863   0.972   2.572  17.159  0.2813 -0.0274  0.1768
 6791TIP3    H141864   0.954   2.611  17.073 -0.8173 -4.0543 -1.6728
 6791TIP3    H241865   0.886   2.564  17.200  0.9290  3.2253  2.5181
 6792TIP3   OH241866   4.633   1.611  14.948  0.3388  0.2494  0.0513
 6792TIP3    H141867   4.727   1.629  14.952  0.6337 -1.4174  1.5525
 6792TIP3    H241868   4.593   1.690  14.985  1.1810  0.5849  0.2833
 6793TIP3   OH241869   5.019   0.324   5.204  0.2386  0.3190  0.1998
 6793TIP3    H141870   5.091   0.376   5.238 -0.3416  0.4196  1.3195
 6793TIP3    H241871   5.006   0.255   5.268 -0.1206 -0.2013 -0.4130
 6794TIP3   OH241872   0.621   5.371   1.648  0.3131  0.0931  0.4923
 6794TIP3    H141873   0.696   5.400   1.596  2.3581 -1.5394  2.4079
 6794TIP3    H241874   0.656   5.354   1.735 -2.4096 -0.2100  1.6354
 6795TIP3   OH241875   5.563   4.783   3.609  0.0103  0.2916 -0.0725
 6795TIP3    H141876   5.593   4.703   3.652  0.8296  0.2082 -0.7762
 6795TIP3    H241877   5.477   4.761   3.574  1.3335 -1.2378 -2.7037
 6796TIP3   OH241878   1.052   3.338  12.277 -0.4532 -0.1506  0.1744
 6796TIP3    H141879   1.045   3.295  12.192 -4.2948 -2.1043  1.2582
 6796TIP3    H241880   1.011   3.423  12.265  1.4696  0.7285 -0.4834
 6797TIP3   OH241881   0.070   3.453   2.851  0.3393 -0.0415 -0.1430
 6797TIP3    H141882   0.155   3.425   2.887  0.1240 -2.6185 -1.4096
 6797TIP3    H241883   0.008   3.389   2.884 -0.9342  1.1275 -0.1992
 6798TIP3   OH241884   0.016   5.537   4.839  0.5197 -0.0389 -0.2675
 6798TIP3    H141885   0.025   5.449   4.876  1.4881  0.3897  0.5782
 6798TIP3    H241886  -0.044   5.582   4.897 -0.5671 -0.3418 -1.1211
 6799TIP3   OH241887   2.851   2.228  14.060  0.3056  0.3364  0.1849
 6799TIP3    H141888   2.775   2.275  14.025 -1.4707 -1.1187  1.9045
 6799TIP3    H241889   2.892   2.290  14.121 -0.0825  0.7622  0.0189
 6800TIP3   OH241890   0.312   4.177  11.065 -0.4822  0.1516  0.1002
 6800TIP3    H141891   0.274   4.264  11.074 -0.1786  0.2611  0.3479
 6800TIP3    H241892   0.239   4.117  11.080 -0.5642  0.3603  0.5605
 6801TIP3   OH241893   2.337   6.246  11.755  0.2571 -0.0470  0.1504
 6801TIP3    H141894   2.305   6.282  11.673  0.8402  1.0987  0.4095
 6801TIP3    H241895   2.263   6.198  11.791 -0.1180 -0.2358 -0.8536
 6802TIP3   OH241896   6.643   5.655   0.824 -0.0585  0.1088 -0.3783
 6802TIP3    H141897   6.656   5.596   0.899  0.4956  0.6123 -0.0728
 6802TIP3    H241898   6.576   5.611   0.771  1.5963 -1.6948 -1.0910
 6803TIP3   OH241899   4.191   0.837   0.700 -0.1658 -0.0016  0.1487
 6803TIP3    H141900   4.253   0.768   0.726 -0.9532 -0.9955 -0.5551
 6803TIP3    H241901   4.113   0.819   0.752 -0.2786  0.5539  0.1769
 6804TIP3   OH241902   4.578   2.379  10.592  0.1225  0.3753 -0.0454
 6804TIP3    H141903   4.612   2.467  10.607  1.3039  0.0847 -0.8358
 6804TIP3    H241904   4.648   2.321  10.621 -0.9668 -0.3602  1.2551
 6805TIP3   OH241905   1.757   3.898   1.330  0.3961 -0.1039  0.0930
 6805TIP3    H141906   1.762   3.812   1.370  1.4158  0.0564  0.3241
 6805TIP3    H241907   1.846   3.932   1.334 -0.1477  1.3178  0.7828
 6806TIP3   OH241908   4.348   0.294   2.532  0.5345 -0.4325  0.4573
 6806TIP3    H141909   4.332   0.206   2.500 -1.2489  0.0599 -0.0933
 6806TIP3    H241910   4.290   0.304   2.607 -1.2350  1.0798 -1.0011
 6807TIP3   OH241911   6.732   5.352   0.149  0.0603  0.3270  0.2241
 6807TIP3    H141912   6.714   5.381   0.060  1.8672 -0.8320 -0.5759
 6807TIP3    H241913   6.824   5.324   0.147 -0.1073 -0.5276  2.2332
 6808TIP3   OH241914   1.105   5.764  12.006  0.5280 -0.1125 -0.3552
 6808TIP3    H141915   1.065   5.840  11.964  1.0168 -0.1660 -0.9166
 6808TIP3    H241916   1.169   5.801  12.066  0.2407 -0.0586 -0.0774
 6809TIP3   OH241917   3.183   2.919  12.998 -0.6804  0.5918  0.4475
 6809TIP3    H141918   3.198   2.935  13.091 -1.6280  0.7958  0.5785
 6809TIP3    H241919   3.246   2.975  12.953  2.1848 -1.9680  0.9260
 6810TIP3   OH241920   0.089   0.194  17.421 -0.4811 -0.0275  0.0958
 6810TIP3    H141921   0.110   0.270  17.366  2.3923 -0.7455  0.0342
 6810TIP3    H241922   0.148   0.203  17.496  0.3140 -2.4298 -0.1722
 6811TIP3   OH241923   3.441   5.637  15.409  0.3181 -0.0155 -0.4504
 6811TIP3    H141924   3.535   5.645  15.395  0.0895  0.5183 -1.7935
 6811TIP3    H241925   3.421   5.545  15.391  0.8074 -0.5321  1.4341
 6812TIP3   OH241926   1.675   2.080  11.541  0.2950 -0.1478  0.2876
 6812TIP3    H141927   1.626   2.147  11.587  1.8855  1.3689 -0.1026
 6812TIP3    H241928   1.623   2.000  11.550 -1.6298  1.1177  0.8110
 6813TIP3   OH241929   5.476   0.036  11.796 -0.4630  0.2363  0.3098
 6813TIP3    H141930   5.386   0.069  11.801 -0.3486  0.6863 -0.6023
 6813TIP3    H241931   5.481  -0.007  11.711  0.1737  0.1563  0.3870
 6814TIP3   OH241932   5.868   2.554  14.110  0.4873 -1.0617  0.4074
 6814TIP3    H141933   5.848   2.512  14.026  0.3040  0.3422 -0.2832
 6814TIP3    H241934   5.958   2.586  14.099 -0.7139  2.3752 -0.7338
 6815TIP3   OH241935   0.458   4.246  17.296 -0.3970 -0.0239 -0.3197
 6815TIP3    H141936   0.479   4.302  17.371  1.1217 -0.3531 -0.4651
 6815TIP3    H241937   0.543   4.225  17.257 -1.0146 -1.5139 -0.9427
 6816TIP3   OH241938   4.394   5.378  13.562  0.2377 -0.7614  0.0732
 6816TIP3    H141939   4.414   5.303  13.618 -1.3263 -0.7215  0.7434
 6816TIP3    H241940   4.423   5.454  13.613 -2.0652 -0.6481  1.3875
 6817TIP3   OH241941   0.925   1.058   2.710 -0.5034  0.0087  0.3204
 6817TIP3    H141942   0.852   1.005   2.743 -0.3223 -0.2502  0.3059
 6817TIP3    H241943   0.996   0.995   2.696  0.0544  0.3950  1.2920
 6818TIP3   OH241944   3.295   0.201  16.035  0.2528 -0.3382 -0.2077
 6818TIP3    H141945   3.291   0.205  16.130  0.7304 -0.7733 -0.1640
 6818TIP3    H241946   3.386   0.222  16.014  0.4837 -1.5697 -0.4864
 6819TIP3   OH241947   3.701   6.344  15.170  0.1920  0.3557  0.4214
 6819TIP3    H141948   3.665   6.371  15.086 -0.4946 -0.3230  0.4794
 6819TIP3    H241949   3.759   6.270  15.149  3.0560  2.5352  0.1053
 6820TIP3   OH241950   6.360   1.283  14.584  0.6682  0.7509  0.6929
 6820TIP3    H141951   6.382   1.339  14.509 -1.1919 -0.4155 -0.8424
 6820TIP3    H241952   6.386   1.333  14.660 -0.3517  3.4587 -0.6277
 6821TIP3   OH241953   0.496   1.310   4.098 -0.6054 -0.0626 -0.2845
 6821TIP3    H141954   0.573   1.273   4.140 -1.9882 -0.3913  2.1635
 6821TIP3    H241955   0.530   1.378   4.040  1.4592  0.9902  1.9833
 6822TIP3   OH241956   3.033   5.644  12.556 -0.5152  0.0617 -0.2383
 6822TIP3    H141957   2.960   5.649  12.494 -0.2436 -2.4887 -0.8505
 6822TIP3    H241958   2.992   5.645  12.642 -1.0937  0.7427 -0.5083
 6823TIP3   OH241959   4.337   4.814  16.801 -0.1246  0.1054  0.0902
 6823TIP3    H141960   4.301   4.903  16.792  0.3495  0.3535  0.6122
 6823TIP3    H241961   4.390   4.817  16.880 -1.8987 -1.2653  1.3981
 6824TIP3   OH241962   6.457   5.964   2.648 -0.1379 -0.4264  0.0637
 6824TIP3    H141963   6.407   6.006   2.578 -0.8503 -0.2159  0.6949
 6824TIP3    H241964   6.392   5.915   2.698  0.1781  0.4020  1.3086
 6825TIP3   OH241965   1.141   5.615   2.348  0.0645  0.0676  0.0695
 6825TIP3    H141966   1.051   5.633   2.320  0.6255  2.1698 -0.4995
 6825TIP3    H241967   1.160   5.529   2.312 -1.2858  0.1255 -0.8644
 6826TIP3   OH241968   6.035   5.363   0.534 -0.3289  0.5823  0.2561
 6826TIP3    H141969   5.957   5.317   0.501  0.0776 -0.6623  0.9413
 6826TIP3    H241970   6.076   5.401   0.456 -1.6253  1.2834 -0.1077
 6827TIP3   OH241971   5.662   6.316  15.949  0.2027  0.0226  0.2811
 6827TIP3    H141972   5.640   6.408  15.933  0.3567  0.3644  1.8594
 6827TIP3    H241973   5.758   6.314  15.946  0.1742 -0.5154 -1.7547
 6828TIP3   OH241974   5.139   3.869  15.077 -0.1729  0.6174  0.1658
 6828TIP3    H141975   5.151   3.820  15.158 -2.5765  1.4321  1.1082
 6828TIP3    H241976   5.185   3.952  15.092  1.6243 -0.2229 -0.3973
 6829TIP3   OH241977   4.711   0.279   5.287 -0.0620  0.7661  0.1684
 6829TIP3    H141978   4.634   0.336   5.283 -1.9963 -1.4438  2.4423
 6829TIP3    H241979   4.750   0.295   5.373  0.8478  0.4464 -0.1662
 6830TIP3   OH241980   0.723   1.696  13.556  0.3952 -0.1169 -0.1170
 6830TIP3    H141981   0.721   1.738  13.642 -0.5954  0.7063 -0.5276
 6830TIP3    H241982   0.784   1.750  13.506 -1.6528  1.5436 -0.9603
 6831TIP3   OH241983   4.037   5.388   6.320 -0.4244 -0.5447 -0.2976
 6831TIP3    H141984   4.110   5.369   6.379 -0.8926 -2.6941 -0.3393
 6831TIP3    H241985   3.986   5.455   6.367  1.4757  0.9680 -0.2464
 6832TIP3   OH241986   5.368   5.291   3.996 -0.5831  1.1477 -0.1437
 6832TIP3    H141987   5.417   5.251   3.924  1.2446  1.1128  1.0534
 6832TIP3    H241988   5.317   5.219   4.033  2.3808 -0.1741  1.7469
 6833TIP3   OH241989   2.753   5.403   4.823  0.4791  0.2923  0.3408
 6833TIP3    H141990   2.737   5.397   4.917 -0.2985  2.0522  0.3491
 6833TIP3    H241991   2.727   5.318   4.788 -1.6607  0.4552  1.4034
 6834TIP3   OH241992   3.684   4.368   0.830  0.0693 -0.2810  0.3178
 6834TIP3    H141993   3.629   4.446   0.827  1.8380  1.0040 -0.2066
 6834TIP3    H241994   3.763   4.396   0.876  0.5859 -1.8800  0.4630
 6835TIP3   OH241995   6.752   3.226  10.531  0.3575  0.3958  0.0749
 6835TIP3    H141996   6.764   3.196  10.621 -0.2309  0.2223  0.1009
 6835TIP3    H241997   6.660   3.208  10.512  0.2666  1.1816 -0.2844
 6836TIP3   OH241998   5.946   4.575   2.505  0.0490 -0.6700 -0.3567
 6836TIP3    H141999   5.985   4.539   2.425  0.9021 -0.1010 -0.2092
 6836TIP3    H242000   6.019   4.579   2.567  0.1777  1.8790 -0.5483
 6837TIP3   OH242001   0.168   2.432   1.670 -0.1823 -0.2758 -0.1175
 6837TIP3    H142002   0.121   2.511   1.697 -0.3153 -0.4178  0.0683
 6837TIP3    H242003   0.261   2.458   1.673 -0.2749  0.1828 -1.0725
 6838TIP3   OH242004   2.485   5.724   4.395  0.6607  0.1086  0.2226
 6838TIP3    H142005   2.565   5.694   4.436  1.1942 -0.8576 -1.4364
 6838TIP3    H242006   2.491   5.694   4.304 -1.3005  0.5300 -0.1044
 6839TIP3   OH242007   0.408   1.174   5.650  0.0014  0.3387  0.2626
 6839TIP3    H142008   0.461   1.116   5.596  0.6872 -0.3025  1.5547
 6839TIP3    H242009   0.457   1.257   5.651  0.5604  0.0129  0.7563
 6840TIP3   OH242010   1.805   4.298  16.080 -0.2342  0.2290  0.6365
 6840TIP3    H142011   1.786   4.207  16.103  2.2351 -0.5804 -0.1901
 6840TIP3    H242012   1.811   4.343  16.164 -1.5965 -0.3043  1.0574
 6841TIP3   OH242013   2.263   2.867  12.108 -0.1899 -0.0157  0.1544
 6841TIP3    H142014   2.341   2.918  12.085  1.2198 -2.1152  0.0801
 6841TIP3    H242015   2.197   2.896  12.044  0.3756  1.9977  0.3939
 6842TIP3   OH242016   5.436   4.984  12.994 -0.1700  1.2728  0.3961
 6842TIP3    H142017   5.464   4.898  12.961  1.2807  1.7403  0.3449
 6842TIP3    H242018   5.435   4.974  13.089  1.2784  1.5303  0.4679
 6843TIP3   OH242019   5.812   6.100  14.256 -0.4680  0.0033 -0.1222
 6843TIP3    H142020   5.821   6.111  14.161 -0.2227  0.2318 -0.0724
 6843TIP3    H242021   5.901   6.097  14.289 -0.5477 -0.6555  0.0412
 6844TIP3   OH242022   1.727   6.086   3.619 -0.3252 -0.3687 -0.0965
 6844TIP3    H142023   1.650   6.045   3.580 -0.5751 -0.5209  0.5406
 6844TIP3    H242024   1.800   6.058   3.564 -0.2719 -2.8490  1.1077
 6845TIP3   OH242025   4.163   3.635   0.704  0.4200 -1.0085 -0.1761
 6845TIP3    H142026   4.127   3.547   0.716  0.9797 -1.4866 -1.7711
 6845TIP3    H242027   4.086   3.693   0.709  0.1598 -1.4467  1.8458
 6846TIP3   OH242028   5.446   0.384   5.222 -0.1499  0.7773 -0.4340
 6846TIP3    H142029   5.489   0.302   5.246 -0.7358  1.1290  2.0652
 6846TIP3    H242030   5.516   0.449   5.223 -0.2763  0.9441  1.4112
 6847TIP3   OH242031   4.047   0.525  13.008 -0.1120 -0.0754  0.0064
 6847TIP3    H142032   3.957   0.495  12.995 -0.4462  1.3707 -1.4336
 6847TIP3    H242033   4.056   0.537  13.102 -1.5402  0.0750  0.1400
 6848TIP3   OH242034   1.277   5.627   0.243  0.3232  0.3325  0.1920
 6848TIP3    H142035   1.263   5.720   0.223  1.3324  0.6968  1.0927
 6848TIP3    H242036   1.191   5.596   0.272 -0.1326  0.8588 -0.5359
 6849TIP3   OH242037   0.530   5.476  15.085 -0.6772  0.3457 -0.2307
 6849TIP3    H142038   0.590   5.479  15.160  0.6099  0.6278 -1.2350
 6849TIP3    H242039   0.527   5.383  15.061 -0.9958  0.2718  0.0844
 6850TIP3   OH242040   1.011   6.123   2.604  0.3935  0.7938  0.0950
 6850TIP3    H142041   1.008   6.033   2.571  1.9816  1.3188 -1.6588
 6850TIP3    H242042   0.982   6.177   2.531 -0.5998  1.7399  1.1485
 6851TIP3   OH242043   5.320   6.708   0.087 -0.3028  0.0981  0.3961
 6851TIP3    H142044   5.237   6.664   0.070 -0.6402  0.1094  1.8736
 6851TIP3    H242045   5.300   6.801   0.078 -0.3860  0.0908  0.5050
 6852TIP3   OH242046   1.227   3.205   0.948  0.1620  0.5196 -0.5828
 6852TIP3    H142047   1.283   3.278   0.974  0.5887  0.7904 -2.1215
 6852TIP3    H242048   1.281   3.127   0.959  0.1998  0.5885 -0.2921
 6853TIP3   OH242049   0.153   1.714  11.073 -0.0075  0.1189  0.1123
 6853TIP3    H142050   0.236   1.732  11.118 -1.4015 -0.2792  3.1247
 6853TIP3    H242051   0.173   1.641  11.015  1.8553  0.3072  0.4533
 6854TIP3   OH242052   2.966   2.390  14.275  0.0580 -0.0299  0.3076
 6854TIP3    H142053   3.056   2.375  14.248  0.5553 -0.1847  1.9690
 6854TIP3    H242054   2.972   2.454  14.346 -1.2852  1.2105 -0.6190
 6855TIP3   OH242055   4.375   2.332  12.829 -0.0591  0.5353 -0.1294
 6855TIP3    H142056   4.311   2.403  12.826  0.6529  1.1660 -0.7090
 6855TIP3    H242057   4.363   2.285  12.747  0.5759  0.9859 -0.4905
 6856TIP3   OH242058   2.079   0.122  13.662  0.5903 -0.0860  0.4100
 6856TIP3    H142059   2.080   0.047  13.602  0.3269  0.9896 -1.0034
 6856TIP3    H242060   2.084   0.083  13.749  2.5484 -1.6553 -0.3353
 6857TIP3   OH242061   6.762   5.180  15.498 -0.1795 -0.5729 -0.5462
 6857TIP3    H142062   6.758   5.264  15.544 -0.4529 -0.7464 -0.2424
 6857TIP3    H242063   6.848   5.144  15.520 -0.0534 -0.3619 -0.6956
 6858TIP3   OH242064   3.565   0.223   3.547 -0.0835 -0.5808  0.2924
 6858TIP3    H142065   3.620   0.264   3.614  0.6152 -1.4381  0.2598
 6858TIP3    H242066   3.578   0.129   3.559 -1.2694 -0.7948  0.0412
 6859TIP3   OH242067   3.944   2.606   3.412 -0.4662  0.6301 -0.1662
 6859TIP3    H142068   3.929   2.620   3.505  1.9761 -0.7874  0.5472
 6859TIP3    H242069   3.935   2.511   3.400  1.6146  0.4566 -0.7957
 6860TIP3   OH242070   3.951   0.787  11.159 -0.5738 -0.4189 -0.2504
 6860TIP3    H142071   3.881   0.821  11.104 -0.5847  0.1645  0.1216
 6860TIP3    H242072   4.004   0.733  11.100 -0.2030  0.7245 -0.9898
 6861TIP3   OH242073   1.150   3.098  12.762 -0.1202 -0.4877 -1.3101
 6861TIP3    H142074   1.168   3.070  12.673  0.8122 -0.5586 -1.1081
 6861TIP3    H242075   1.235   3.125  12.797 -0.3257 -1.2474 -0.1680
 6862TIP3   OH242076   5.084   4.652   3.791  0.2633  0.6673 -0.1644
 6862TIP3    H142077   5.157   4.714   3.783  0.0474  0.9407 -0.0013
 6862TIP3    H242078   5.032   4.667   3.712  0.1551  0.7624 -0.0739
 6863TIP3   OH242079   1.373   3.793   3.344 -0.0061 -0.5197  0.1417
 6863TIP3    H142080   1.324   3.825   3.420  0.3807 -0.6629  0.4540
 6863TIP3    H242081   1.323   3.825   3.269 -1.7818 -2.4149  0.4167
 6864TIP3   OH242082   4.513   3.778   2.157  0.0224  0.1310 -0.0279
 6864TIP3    H142083   4.457   3.842   2.201 -0.1012  0.6549 -0.9157
 6864TIP3    H242084   4.514   3.807   2.065  0.6212 -0.6780 -0.2833
 6865TIP3   OH242085   1.719   5.514  13.233 -0.0978 -0.4011 -0.2143
 6865TIP3    H142086   1.675   5.455  13.294  1.2358 -0.4676  0.7375
 6865TIP3    H242087   1.771   5.457  13.177 -0.4964 -0.2654 -0.7315
 6866TIP3   OH242088   0.508   4.212  15.411  0.5300 -0.1737 -0.4562
 6866TIP3    H142089   0.595   4.247  15.391  0.6323  0.8136  1.4331
 6866TIP3    H242090   0.447   4.266  15.360  0.8320  1.4863  0.8638
 6867TIP3   OH242091   0.901   0.759  14.662  0.3903  0.1891  0.1776
 6867TIP3    H142092   0.972   0.781  14.722  1.7502  1.3701 -1.7661
 6867TIP3    H242093   0.873   0.843  14.626 -0.8544 -0.4262 -0.3259
 6868TIP3   OH242094   0.696   2.284  15.195 -0.3571  0.4126  0.1588
 6868TIP3    H142095   0.627   2.246  15.250 -1.1603  0.8942 -0.4832
 6868TIP3    H242096   0.773   2.230  15.211 -1.4078 -1.3871 -0.5824
 6869TIP3   OH242097   6.437   1.788  17.502  0.6652 -0.2695 -0.1870
 6869TIP3    H142098   6.417   1.732  17.577  1.6234 -0.9302 -0.3994
 6869TIP3    H242099   6.525   1.822  17.521 -0.3305  2.1363  0.5061
 6870TIP3   OH242100   2.772   4.651  11.911 -0.1786 -0.6893 -0.2601
 6870TIP3    H142101   2.785   4.556  11.911  0.8380 -0.5572 -0.5330
 6870TIP3    H242102   2.698   4.665  11.970  3.3131 -1.1802  4.9827
 6871TIP3   OH242103   6.391   4.842  15.347  0.3410  0.5455 -0.3414
 6871TIP3    H142104   6.472   4.889  15.365  1.7366 -0.7743 -2.6940
 6871TIP3    H242105   6.352   4.828  15.433  1.5719  2.9138  0.7062
 6872TIP3   OH242106   0.487   0.530  10.718 -0.2346  0.0870  0.1581
 6872TIP3    H142107   0.568   0.533  10.770  1.2570 -1.5593 -1.8822
 6872TIP3    H242108   0.508   0.581  10.639 -0.8465 -1.1086 -0.8043
 6873TIP3   OH242109   4.190   4.482  12.573 -0.4118  0.2072  0.3638
 6873TIP3    H142110   4.144   4.554  12.615  0.4960  0.3071  1.2177
 6873TIP3    H242111   4.282   4.508  12.574 -0.1850 -0.5046 -0.2614
 6874TIP3   OH242112   0.953   2.042   3.780  0.0795  0.4309 -0.6813
 6874TIP3    H142113   0.984   2.009   3.696 -1.2391  2.4479 -2.0486
 6874TIP3    H242114   1.011   2.117   3.798  0.2347  0.1219  0.1254
 6875TIP3   OH242115   5.335   2.226   4.005  0.0334 -0.1445  0.5486
 6875TIP3    H142116   5.395   2.167   3.961  0.7492  0.8024  0.2319
 6875TIP3    H242117   5.248   2.199   3.975  0.2658 -1.5846  1.0849
 6876TIP3   OH242118   0.698   6.330  13.857 -0.1062 -0.2438  0.2234
 6876TIP3    H142119   0.744   6.391  13.915  0.0170 -0.6039  0.5076
 6876TIP3    H242120   0.618   6.377  13.832  0.3215  0.3042 -0.1197
 6877TIP3   OH242121   3.853   3.504   3.114  0.0063 -0.1578  0.9031
 6877TIP3    H142122   3.764   3.536   3.105  0.3902  0.6544 -0.1070
 6877TIP3    H242123   3.893   3.561   3.180 -0.1722 -0.4390  1.2590
 6878TIP3   OH242124   5.165   2.295   1.963 -0.2155 -0.8617 -0.5450
 6878TIP3    H142125   5.203   2.280   2.050  0.7472  0.7099 -0.6605
 6878TIP3    H242126   5.233   2.267   1.902  0.9091  2.0132 -0.7524
 6879TIP3   OH242127   1.228   3.284  10.692  0.1236 -0.1021  0.3831
 6879TIP3    H142128   1.257   3.194  10.706  1.9102  0.2749 -0.4933
 6879TIP3    H242129   1.215   3.319  10.780  0.5720 -0.8818  0.7718
 6880TIP3   OH242130   3.480   5.913   5.392  0.2416 -0.3793  0.4980
 6880TIP3    H142131   3.503   5.874   5.477  1.7462 -0.3807  0.1158
 6880TIP3    H242132   3.429   5.991   5.415  0.3076 -0.5799  1.3823
 6881TIP3   OH242133   4.480   2.883  14.719  0.6723  0.0042  0.3466
 6881TIP3    H142134   4.553   2.828  14.692  0.4290 -0.2302  0.1681
 6881TIP3    H242135   4.473   2.949  14.650  1.4205  0.6969  0.9142
 6882TIP3   OH242136   2.539   1.559  12.047 -0.9938  0.2797  0.3967
 6882TIP3    H142137   2.488   1.499  11.992 -1.3295  0.3107  0.6661
 6882TIP3    H242138   2.618   1.577  11.997 -0.1391 -1.6146  0.9442
 6883TIP3   OH242139   6.308   2.228  14.970  0.2297 -0.0275  0.4975
 6883TIP3    H142140   6.216   2.224  14.998  0.7822 -1.2807  2.2594
 6883TIP3    H242141   6.305   2.210  14.876 -1.1811 -1.8217  0.8390
 6884TIP3   OH242142   3.199   1.203   2.683 -0.3115  1.0182  0.1149
 6884TIP3    H142143   3.108   1.234   2.687 -0.3642  0.7355  1.6544
 6884TIP3    H242144   3.193   1.108   2.690  0.0895  0.9829  0.0010
 6885TIP3   OH242145   4.690   2.965  12.418  0.7092 -0.0430  0.0794
 6885TIP3    H142146   4.690   2.967  12.322  0.3413  1.5221  0.0785
 6885TIP3    H242147   4.624   3.029  12.443  1.5385  0.3458  1.3828
 6886TIP3   OH242148   5.935   6.117  13.505  0.4071  0.3915 -0.4206
 6886TIP3    H142149   5.968   6.163  13.582  0.1881 -0.0762 -0.0397
 6886TIP3    H242150   5.979   6.033  13.506 -0.7059 -0.2092  0.0495
 6887TIP3   OH242151   2.389   1.314  10.838 -0.6384 -0.2947  0.5321
 6887TIP3    H142152   2.386   1.219  10.822 -0.3190 -0.1307 -0.6481
 6887TIP3    H242153   2.483   1.333  10.848 -0.6593 -0.0444  0.2842
 6888TIP3   OH242154   0.212   1.968  16.622  0.6589 -0.1571 -0.2775
 6888TIP3    H142155   0.212   1.890  16.677 -0.1648  0.1900  0.2240
 6888TIP3    H242156   0.280   1.951  16.556  2.2963 -0.2179  1.3498
 6889TIP3   OH242157   1.808   2.267  14.068  0.2881 -0.2280 -0.6520
 6889TIP3    H142158   1.781   2.205  14.001 -0.5428  0.7435 -1.2486
 6889TIP3    H242159   1.886   2.310  14.032 -1.0034  1.3513 -1.7198
 6890TIP3   OH242160   4.772   5.875  15.909 -0.4953  0.1985  0.0510
 6890TIP3    H142161   4.814   5.804  15.860  1.9434  2.6150 -1.6240
 6890TIP3    H242162   4.680   5.873  15.881 -0.0585 -1.0896 -1.4076
 6891TIP3   OH242163   3.596   5.668  12.372 -0.0276 -0.9002 -0.4148
 6891TIP3    H142164   3.691   5.659  12.362  0.0815  0.1214 -0.4457
 6891TIP3    H242165   3.580   5.654  12.466  0.5866  1.9016  0.2187
 6892TIP3   OH242166   3.623   0.555  14.211 -0.6478 -0.0579  0.2917
 6892TIP3    H142167   3.600   0.646  14.232 -0.4009  0.4925 -1.6330
 6892TIP3    H242168   3.710   0.543  14.249 -0.7270  0.4870  0.6566
 6893TIP3   OH242169   2.350   5.250   0.103 -0.0333  0.1491 -0.3078
 6893TIP3    H142170   2.305   5.253   0.019 -0.0922 -0.7129 -0.3213
 6893TIP3    H242171   2.291   5.201   0.160 -0.4101  1.5236  0.5080
 6894TIP3   OH242172   2.937   1.631  13.830 -0.0143 -0.1217 -0.3841
 6894TIP3    H142173   2.990   1.699  13.789  0.7476  0.0727  0.8576
 6894TIP3    H242174   2.913   1.572  13.758  0.1372  0.9149 -1.3098
 6895TIP3   OH242175   0.681   5.034  12.990  0.3299 -0.2241  0.3994
 6895TIP3    H142176   0.621   4.987  12.932 -0.7407 -2.0242  2.8379
 6895TIP3    H242177   0.766   4.993  12.974  0.2092 -0.1776 -0.4108
 6896TIP3   OH242178   2.613   0.478  12.285  0.1983 -0.0498  0.2402
 6896TIP3    H142179   2.640   0.387  12.272  0.5691  0.2118 -0.9022
 6896TIP3    H242180   2.695   0.527  12.291  0.0179  0.4351 -0.9491
 6897TIP3   OH242181   2.869   3.481   2.090 -0.0353  0.4185  0.6612
 6897TIP3    H142182   2.813   3.543   2.135  0.6301  0.0031  2.1152
 6897TIP3    H242183   2.926   3.535   2.035  0.6311  1.1330  2.0190
 6898TIP3   OH242184   5.855   3.436  16.133  0.0999  0.0789 -0.1786
 6898TIP3    H142185   5.814   3.453  16.218 -1.3266 -1.6349 -0.4503
 6898TIP3    H242186   5.945   3.466  16.143 -0.2009  0.4756  1.7400
 6899TIP3   OH242187   5.303   5.307   5.977 -0.5135  0.4973 -0.2624
 6899TIP3    H142188   5.339   5.227   5.938 -1.0029  0.3097 -0.3387
 6899TIP3    H242189   5.373   5.371   5.970  0.6284 -0.4546  1.5684
 6900TIP3   OH242190   6.723   0.838   0.682 -0.0573 -0.1986 -0.3411
 6900TIP3    H142191   6.653   0.811   0.623 -1.2804  0.9519  0.5270
 6900TIP3    H242192   6.698   0.803   0.767 -0.4555  1.5490  0.3064
 6901TIP3   OH242193   5.944   2.176   4.253 -0.6269 -0.2414 -0.3239
 6901TIP3    H142194   5.946   2.098   4.307 -0.1891  0.7223  1.1265
 6901TIP3    H242195   5.874   2.230   4.290 -0.6865  0.2001 -1.0630
 6902TIP3   OH242196   6.526   4.609  11.210  0.0425 -0.1281  0.1903
 6902TIP3    H142197   6.565   4.598  11.296 -1.6870 -0.6787  0.9473
 6902TIP3    H242198   6.480   4.527  11.193  1.0535 -0.3695 -1.6582
 6903TIP3   OH242199   6.252   4.770   6.319  0.5381 -0.3554  0.2048
 6903TIP3    H142200   6.180   4.827   6.291  1.3264 -0.2591 -1.8234
 6903TIP3    H242201   6.272   4.718   6.241  1.3665 -1.7951  1.3288
 6904TIP3   OH242202   5.555   6.510  13.666 -0.2696 -0.4454 -0.2547
 6904TIP3    H142203   5.639   6.466  13.675 -1.0404 -2.0711 -0.6605
 6904TIP3    H242204   5.577   6.603  13.659  1.3150 -0.5094  2.4627
 6905TIP3   OH242205   1.673   2.466   6.001  0.6605  0.0964 -0.2488
 6905TIP3    H142206   1.718   2.384   6.022 -0.6293 -0.4767  0.3563
 6905TIP3    H242207   1.731   2.534   6.036  0.9540 -0.6329  0.7453
 6906TIP3   OH242208   5.530   6.085   0.911 -0.5240 -0.4272 -0.1453
 6906TIP3    H142209   5.567   6.132   0.987  2.6901  0.7851 -2.2594
 6906TIP3    H242210   5.524   6.152   0.843 -1.9152 -1.7981 -1.4161
 6907TIP3   OH242211   2.221   5.617  11.307 -0.1055 -0.2921  0.2517
 6907TIP3    H142212   2.312   5.606  11.334  0.1177  0.8451  0.0211
 6907TIP3    H242213   2.212   5.564  11.228  0.7492  0.6628 -0.5104
 6908TIP3   OH242214   5.993   1.007  16.399 -0.3457  0.3188  0.1390
 6908TIP3    H142215   5.997   1.078  16.335 -2.7875 -1.3173 -2.0178
 6908TIP3    H242216   6.058   0.943  16.369 -1.1487 -0.2296 -0.4709
 6909TIP3   OH242217   0.123   3.591   0.464 -0.1858  0.3749  0.0055
 6909TIP3    H142218   0.216   3.572   0.456 -0.5682 -0.8199 -2.9688
 6909TIP3    H242219   0.110   3.671   0.414 -0.6429  1.1106  1.2604
 6910TIP3   OH242220   4.726   1.392   5.826 -0.2256  0.1708 -0.3786
 6910TIP3    H142221   4.721   1.327   5.897  3.3017 -1.0710 -1.0800
 6910TIP3    H242222   4.718   1.476   5.871  0.0298 -0.6324  1.2685
 6911TIP3   OH242223   1.923   3.187  17.390 -0.1229  0.5523 -0.2919
 6911TIP3    H142224   2.007   3.233  17.391  0.5473 -0.6187  0.9446
 6911TIP3    H242225   1.946   3.097  17.368 -0.7501 -0.2729  2.1471
 6912TIP3   OH242226   4.261   3.134  13.029 -0.2723  0.0432 -0.1360
 6912TIP3    H142227   4.220   3.055  12.994  0.6019 -0.6053  0.2689
 6912TIP3    H242228   4.214   3.150  13.111 -1.3183  0.7057 -0.8468
 6913TIP3   OH242229   2.727   0.083  15.486 -0.2838  0.0206  0.0196
 6913TIP3    H142230   2.685   0.108  15.569 -0.5091 -1.6829  0.4515
 6913TIP3    H242231   2.676   0.129  15.419 -1.2647 -0.0226  0.7074
 6914TIP3   OH242232   0.811   5.637  11.640  0.4375  0.5358  0.7992
 6914TIP3    H142233   0.839   5.700  11.574 -0.4376 -0.3789 -0.5110
 6914TIP3    H242234   0.719   5.659  11.656  0.1812 -0.2579  0.4746
 6915TIP3   OH242235   2.790   3.184   5.010  0.2500  0.2904 -0.2476
 6915TIP3    H142236   2.820   3.254   5.067  1.8345 -1.1513  0.7722
 6915TIP3    H242237   2.779   3.108   5.068  0.9722 -0.9675 -1.6873
 6916TIP3   OH242238   2.662   6.558  14.422  0.1856  0.1882 -0.0970
 6916TIP3    H142239   2.696   6.553  14.511  1.1997 -0.9843 -0.5279
 6916TIP3    H242240   2.640   6.468  14.399  0.3793  0.4089 -1.2038
 6917TIP3   OH242241   3.609   2.153  14.622  0.3138 -0.3865 -0.6287
 6917TIP3    H142242   3.607   2.095  14.698  1.0960 -1.0184 -1.0802
 6917TIP3    H242243   3.692   2.134  14.579  1.6018  2.5256  0.3160
 6918TIP3   OH242244   0.019   5.328   3.120 -0.1300 -0.1536  0.2623
 6918TIP3    H142245   0.112   5.337   3.138 -0.0890  0.9732 -0.4415
 6918TIP3    H242246   0.014   5.314   3.026 -0.6355 -0.9541  0.3986
 6919TIP3   OH242247   0.622   4.091   2.596  0.1748 -0.1856 -0.1054
 6919TIP3    H142248   0.641   4.115   2.505  0.8928  0.3951  0.1858
 6919TIP3    H242249   0.529   4.071   2.597  0.2733 -0.7360 -1.0855
 6920TIP3   OH242250   6.170   2.341  11.983  0.3122 -0.1971 -0.0068
 6920TIP3    H142251   6.147   2.424  12.025 -0.3949 -0.8178  0.8542
 6920TIP3    H242252   6.167   2.276  12.053 -0.0017 -1.1067 -0.8414
 6921TIP3   OH242253   4.862   4.978   3.334 -0.0042 -0.0065  0.1020
 6921TIP3    H142254   4.806   4.900   3.334  0.4416 -0.3345 -0.3476
 6921TIP3    H242255   4.951   4.944   3.334  0.2058  0.5204  1.2812
 6922TIP3   OH242256   5.234   2.590   3.794 -0.0977  0.5586  0.3857
 6922TIP3    H142257   5.267   2.680   3.792 -1.1777  1.0476  2.5618
 6922TIP3    H242258   5.261   2.555   3.879 -1.2117 -0.5684  0.3165
 6923TIP3   OH242259   3.925   1.076   2.508  0.5315  0.0312  0.1617
 6923TIP3    H142260   3.859   1.077   2.577  0.0868  0.0354 -0.2566
 6923TIP3    H242261   3.928   0.985   2.478 -0.2712  0.2876 -0.7440
 6924TIP3   OH242262   6.612   1.017  14.646 -0.0456 -0.0549 -0.5044
 6924TIP3    H142263   6.541   0.956  14.667 -1.2191  1.1140 -0.9330
 6924TIP3    H242264   6.570   1.103  14.644  1.9366  1.1249  2.2399
 6925TIP3   OH242265   3.917   3.145  15.238  0.3526  1.0361  0.1827
 6925TIP3    H142266   3.864   3.127  15.160  2.1076 -1.7139 -0.5403
 6925TIP3    H242267   3.926   3.240  15.240 -0.7429  1.2626 -2.3129
 6926TIP3   OH242268   3.946   2.327  15.706 -0.4952  0.7235 -0.1240
 6926TIP3    H142269   4.042   2.323  15.706 -0.4188  2.0213 -1.0170
 6926TIP3    H242270   3.925   2.390  15.638 -2.0405 -0.4747 -0.8065
 6927TIP3   OH242271   5.322   1.209   1.839  0.4133 -0.0921 -0.0911
 6927TIP3    H142272   5.387   1.209   1.769 -0.6390  0.6859 -1.1084
 6927TIP3    H242273   5.256   1.146   1.810  0.1805 -0.0767  0.4038
 6928TIP3   OH242274   5.332   6.478   0.352  1.0184 -0.3449 -0.3150
 6928TIP3    H142275   5.392   6.548   0.328  0.5021 -0.3800 -1.8047
 6928TIP3    H242276   5.357   6.404   0.297 -1.1999  0.0621 -2.0344
 6929TIP3   OH242277   3.097   6.360  13.190 -0.0799  0.0757 -0.4833
 6929TIP3    H142278   3.015   6.320  13.218  1.0016  0.3630  3.7152
 6929TIP3    H242279   3.071   6.445  13.153 -1.7184 -0.1878 -0.0161
 6930TIP3   OH242280   3.081   2.013   3.439  0.1897 -0.2101  0.2661
 6930TIP3    H142281   3.012   1.961   3.482  0.5640 -1.4707 -0.6000
 6930TIP3    H242282   3.040   2.046   3.360  0.7401 -1.5512 -0.6161
 6931TIP3   OH242283   1.450   3.429   3.642  0.4719  0.2723  0.5732
 6931TIP3    H142284   1.461   3.487   3.717  0.0042 -1.2961  1.9033
 6931TIP3    H242285   1.385   3.365   3.670  2.6547 -2.3627  0.0962
 6932TIP3   OH242286   2.598   3.856   3.819  0.3367 -0.0034  0.3314
 6932TIP3    H142287   2.602   3.849   3.724 -0.3208 -0.0695  0.3074
 6932TIP3    H242288   2.542   3.931   3.835  0.7340  0.2222  0.6647
 6933TIP3   OH242289   1.586   1.165  12.538  0.5084 -0.4411  0.1417
 6933TIP3    H142290   1.681   1.163  12.540  0.4832 -1.0679  1.3313
 6933TIP3    H242291   1.561   1.225  12.608  0.0405  0.6956 -0.9718
 6934TIP3   OH242292   1.906   4.741   2.722 -0.2250  0.1206  0.5908
 6934TIP3    H142293   1.886   4.717   2.632 -1.1803  0.9903  0.5551
 6934TIP3    H242294   1.955   4.823   2.714  1.9947 -1.1064  0.7657
 6935TIP3   OH242295   2.234   4.596   0.306  0.7765 -0.1112 -0.4883
 6935TIP3    H142296   2.267   4.671   0.257  1.0682 -1.1583 -1.9591
 6935TIP3    H242297   2.283   4.598   0.388  1.1077  1.0397 -0.6925
 6936TIP3   OH242298   5.842   1.687  16.729  0.1949 -0.5222  0.7977
 6936TIP3    H142299   5.921   1.667  16.680  1.5507 -0.8668  2.9948
 6936TIP3    H242300   5.873   1.707  16.817 -1.9493  1.8242  1.1307
 6937TIP3   OH242301   0.555   5.382   2.217  0.2120  0.1780 -0.1432
 6937TIP3    H142302   0.468   5.419   2.199 -0.8024 -2.5408 -1.4665
 6937TIP3    H242303   0.541   5.326   2.294  0.9800  0.2642  0.0631
 6938TIP3   OH242304   1.183   0.875   0.867  0.0462  0.2110  0.1249
 6938TIP3    H142305   1.258   0.924   0.902  1.6876 -3.3552  2.2167
 6938TIP3    H242306   1.136   0.845   0.944 -0.7874 -1.5317 -0.9978
 6939TIP3   OH242307   5.515   3.596   1.195 -0.1029 -0.1704 -0.1454
 6939TIP3    H142308   5.422   3.574   1.187  0.1957 -0.7291 -2.8825
 6939TIP3    H242309   5.544   3.612   1.106  2.3192  0.6021  0.7063
 6940TIP3   OH242310   6.743   6.511  16.280  0.1999  0.2057  0.0860
 6940TIP3    H142311   6.765   6.582  16.219  0.7101  0.2677  0.3315
 6940TIP3    H242312   6.733   6.434  16.225 -1.0322  0.5915 -0.2616
 6941TIP3   OH242313   5.516   0.522   5.674  0.6275  0.3132 -0.0447
 6941TIP3    H142314   5.560   0.584   5.733 -0.0718  0.7390  0.0312
 6941TIP3    H242315   5.587   0.464   5.644  1.2518  1.0320  0.0204
 6942TIP3   OH242316   2.624   2.601   2.754 -0.2384 -0.4123 -0.8019
 6942TIP3    H142317   2.707   2.595   2.800  0.4196  1.5763 -1.6330
 6942TIP3    H242318   2.626   2.526   2.693  0.7733 -0.6187 -0.5422
 6943TIP3   OH242319   2.826   5.360   3.823  0.3043 -0.0478 -0.0626
 6943TIP3    H142320   2.753   5.300   3.808 -0.0210  0.2244  0.4189
 6943TIP3    H242321   2.844   5.354   3.917  0.0985  0.8044  0.0372
 6944TIP3   OH242322   1.118   5.588  15.475 -0.2149 -0.4971  0.0862
 6944TIP3    H142323   1.164   5.547  15.402  1.7388 -1.0065  1.5082
 6944TIP3    H242324   1.170   5.665  15.497 -2.1109  1.0547 -0.5321
 6945TIP3   OH242325   0.764   1.243  14.895  0.3012  0.1764 -0.2431
 6945TIP3    H142326   0.720   1.294  14.827  0.1714 -0.2006 -0.4480
 6945TIP3    H242327   0.855   1.269  14.890  0.0779  1.0924  0.2972
 6946TIP3   OH242328   3.042   3.149   5.709  0.0515  0.5340  0.2128
 6946TIP3    H142329   3.071   3.240   5.699  1.4111  0.0818 -0.1978
 6946TIP3    H242330   2.957   3.146   5.664  0.2718  1.4539 -0.2937
 6947TIP3   OH242331   0.941   4.591  12.853  0.4522 -0.8097 -0.1727
 6947TIP3    H142332   0.882   4.529  12.896 -0.3592 -0.2168 -0.3996
 6947TIP3    H242333   0.893   4.674  12.853  1.6676 -0.0787  0.4512
 6948TIP3   OH242334   2.545   5.131  12.528 -0.2773  0.4888  0.0734
 6948TIP3    H142335   2.551   5.096  12.617 -2.8538  2.0543  0.9639
 6948TIP3    H242336   2.497   5.063  12.479 -0.7659  0.5477  0.4627
 6949TIP3   OH242337   4.784   6.187  13.266  0.0729 -0.1769 -0.4436
 6949TIP3    H142338   4.867   6.141  13.281 -0.1764 -1.0052 -1.5067
 6949TIP3    H242339   4.718   6.118  13.261 -0.5227  0.3966 -0.6810
 6950TIP3   OH242340   0.268   4.049  16.692  0.0165 -0.4875 -0.3623
 6950TIP3    H142341   0.321   4.118  16.733 -0.5919  0.2618 -0.8096
 6950TIP3    H242342   0.332   3.986  16.658  0.5690 -0.3524  0.4020
 6951TIP3   OH242343   1.283   5.911  16.653  0.2802 -0.4568  0.3694
 6951TIP3    H142344   1.272   5.836  16.594 -1.5569  0.9927 -1.2445
 6951TIP3    H242345   1.348   5.966  16.609  2.0399 -1.2710  1.8215
 6952TIP3   OH242346   5.423   3.207   2.449  0.4330 -0.1387  0.0808
 6952TIP3    H142347   5.503   3.167   2.416 -0.7271 -2.2035 -0.3985
 6952TIP3    H242348   5.432   3.300   2.427  2.6350 -0.3179 -0.0125
 6953TIP3   OH242349   1.353   6.436   1.406 -0.4420  0.1986 -0.3614
 6953TIP3    H142350   1.280   6.450   1.345 -0.4860  2.0967  0.0663
 6953TIP3    H242351   1.397   6.521   1.411  0.0611 -0.1288  1.6032
 6954TIP3   OH242352   4.743   0.972   4.996 -0.1834 -0.0063  0.1412
 6954TIP3    H142353   4.815   0.914   5.019  0.4602 -0.3239 -2.3169
 6954TIP3    H242354   4.664   0.924   5.023  0.3984 -1.4531 -0.5827
 6955TIP3   OH242355   5.918   2.689  17.511  0.4275 -0.2436  0.0306
 6955TIP3    H142356   5.831   2.704  17.475  1.2293  0.6635 -1.6021
 6955TIP3    H242357   5.902   2.639  17.592 -1.6282  0.5133  0.1372
 6956TIP3   OH242358   5.497   1.483  16.185 -0.4188  0.0636 -0.1964
 6956TIP3    H142359   5.464   1.408  16.234  0.6832 -2.0054 -2.3748
 6956TIP3    H242360   5.430   1.500  16.119 -0.9506  1.4541  0.6794
 6957TIP3   OH242361   6.485   6.386   4.747 -0.1298 -0.3872 -0.4340
 6957TIP3    H142362   6.456   6.452   4.685 -0.5543 -1.1697 -1.0894
 6957TIP3    H242363   6.476   6.303   4.700  0.8114 -0.8777  0.2155
 6958TIP3   OH242364   0.794   4.407  13.707  0.5938 -0.9190  0.6600
 6958TIP3    H142365   0.791   4.365  13.621  1.5806 -1.2816  0.7884
 6958TIP3    H242366   0.709   4.389  13.746 -0.7197  1.0604 -1.0601
 6959TIP3   OH242367   4.693   0.868   1.611 -0.5746 -0.1353 -0.9892
 6959TIP3    H142368   4.692   0.834   1.521 -1.7655 -0.0850 -1.0151
 6959TIP3    H242369   4.707   0.962   1.601  1.8939 -0.4405 -0.9621
 6960TIP3   OH242370   0.680   1.175  13.340 -0.3666 -0.3516  0.2472
 6960TIP3    H142371   0.747   1.235  13.306 -1.3754  0.2211 -0.7838
 6960TIP3    H242372   0.608   1.232  13.367 -0.2319 -0.9204  1.9142
 6961TIP3   OH242373   6.412   2.138   4.849  0.0291  0.1058  0.3458
 6961TIP3    H142374   6.334   2.091   4.879  1.0102 -1.7461  0.1522
 6961TIP3    H242375   6.418   2.116   4.756  1.4283 -0.8060  0.6189
 6962TIP3   OH242376   0.211   1.325  16.213 -0.1354 -0.7525 -0.4864
 6962TIP3    H142377   0.288   1.368  16.248 -0.5978  0.7746 -1.2697
 6962TIP3    H242378   0.241   1.288  16.129 -0.2045 -0.3292 -0.6988
 6963TIP3   OH242379   0.258   0.688  11.680  0.7179 -0.4435  0.2043
 6963TIP3    H142380   0.301   0.748  11.620  0.7350  0.2500  0.8991
 6963TIP3    H242381   0.166   0.715  11.680  1.0667  0.9473  2.0631
 6964TIP3   OH242382   6.152   0.003   3.761 -0.0502  0.7412  0.0760
 6964TIP3    H142383   6.136   0.009   3.855 -2.2393  1.1133 -0.2647
 6964TIP3    H242384   6.129   0.089   3.726  2.2469  1.1244 -0.6626
 6965TIP3   OH242385   4.762   0.422   1.178 -0.1691 -0.0485  0.0064
 6965TIP3    H142386   4.843   0.453   1.138 -1.2255  1.8134 -0.8134
 6965TIP3    H242387   4.707   0.399   1.103 -0.4378 -1.2787  0.5570
 6966TIP3   OH242388   0.235   3.608   4.730 -0.0977  0.9513 -0.0716
 6966TIP3    H142389   0.199   3.630   4.816  1.4496 -2.0962  1.5341
 6966TIP3    H242390   0.319   3.652   4.727  0.5455 -0.1556  0.7361
 6967TIP3   OH242391   3.150   6.284  16.531  0.2496  0.8458 -0.3992
 6967TIP3    H142392   3.097   6.358  16.560 -0.3741  0.6845 -1.0790
 6967TIP3    H242393   3.146   6.289  16.435 -0.6417 -0.6425 -0.4673
 6968TIP3   OH242394   1.335   0.020  12.795 -0.0041  0.3110 -0.4535
 6968TIP3    H142395   1.407  -0.043  12.795  0.8933  1.3075 -1.2144
 6968TIP3    H242396   1.280  -0.007  12.722 -0.0320 -0.0345 -0.3065
 6969TIP3   OH242397   1.741   3.388  11.287  0.1382  0.1788 -0.7776
 6969TIP3    H142398   1.786   3.456  11.336  0.5802  0.1557 -1.1470
 6969TIP3    H242399   1.717   3.322  11.353  0.8128  0.1003 -0.6042
 6970TIP3   OH242400   2.885   4.827   5.600  0.0042 -0.2792 -0.3661
 6970TIP3    H142401   2.802   4.780   5.608 -0.2444  0.2447  0.2738
 6970TIP3    H242402   2.938   4.774   5.541 -0.3849 -1.1828  0.0860
 6971TIP3   OH242403   1.629   2.591  11.337  0.2795 -0.1284  0.9370
 6971TIP3    H142404   1.594   2.503  11.343 -0.7251  0.1904 -0.0449
 6971TIP3    H242405   1.561   2.647  11.374  0.1170  0.4085 -0.1502
 6972TIP3   OH242406   4.584   1.278   4.803 -0.1161 -0.1558 -0.1131
 6972TIP3    H142407   4.551   1.218   4.736  0.6990  0.1435 -0.7903
 6972TIP3    H242408   4.654   1.327   4.760 -0.5579  1.0744  0.5156
 6973TIP3   OH242409   3.251   1.685  13.342  0.7071 -0.0216  0.6834
 6973TIP3    H142410   3.252   1.752  13.410 -0.2636 -0.3618  1.0534
 6973TIP3    H242411   3.158   1.664  13.330  1.0235 -1.8965  1.1953
 6974TIP3   OH242412   0.006   1.103   0.286 -0.3001 -0.3152 -0.1485
 6974TIP3    H142413  -0.083   1.072   0.304 -0.6507  1.3428  1.2522
 6974TIP3    H242414  -0.006   1.193   0.256  0.8837 -0.1429 -0.1437
 6975TIP3   OH242415   0.215   3.883   0.005 -0.2817 -0.1733 -0.6971
 6975TIP3    H142416   0.256   3.941  -0.059  0.3536  1.0490  0.7551
 6975TIP3    H242417   0.286   3.826   0.036 -0.3456 -0.0472 -0.3172
 6976TIP3   OH242418   3.632   6.317  12.247 -0.1522 -0.7370 -0.1936
 6976TIP3    H142419   3.550   6.331  12.295  0.6543 -3.5154  2.3371
 6976TIP3    H242420   3.700   6.355  12.304  0.7278 -3.1208  0.4769
 6977TIP3   OH242421   6.486   3.508  12.024 -0.1202  0.7134 -0.0590
 6977TIP3    H142422   6.393   3.522  12.006  0.0808  1.3897 -0.6083
 6977TIP3    H242423   6.524   3.489  11.938  0.4658  1.7415 -0.0496
 6978TIP3   OH242424   1.371   4.579  15.190 -0.5581 -0.5908  0.3474
 6978TIP3    H142425   1.322   4.571  15.272 -2.1529  2.0272 -0.2499
 6978TIP3    H242426   1.431   4.653  15.205 -0.7349 -0.2005 -0.7588
 6979TIP3   OH242427   2.906   3.750  13.284  0.0070 -0.2729 -0.1095
 6979TIP3    H142428   2.857   3.742  13.366 -0.7162  1.7830 -0.2768
 6979TIP3    H242429   2.995   3.723  13.306 -0.2615 -0.1011  1.2651
 6980TIP3   OH242430   4.769   6.192   2.721 -0.3572  0.1475  0.4141
 6980TIP3    H142431   4.798   6.137   2.793  0.1857  0.1237  0.1812
 6980TIP3    H242432   4.762   6.279   2.759  1.8574  0.5456  0.0666
 6981TIP3   OH242433   2.916   4.334   1.527 -0.2915  0.0219 -0.3559
 6981TIP3    H142434   2.859   4.311   1.454  0.7540 -0.6896 -0.9829
 6981TIP3    H242435   2.939   4.426   1.511 -1.5462  0.4227  0.1114
 6982TIP3   OH242436   0.176   4.614  15.721 -0.3379 -0.4920 -0.2876
 6982TIP3    H142437   0.120   4.539  15.741 -0.4673 -1.2802 -3.0942
 6982TIP3    H242438   0.263   4.576  15.705  0.3168  0.3557  1.0175
 6983TIP3   OH242439   5.092   3.010   2.753 -0.0656 -0.2558 -0.2226
 6983TIP3    H142440   5.015   3.021   2.809 -0.1923 -3.1584  0.3337
 6983TIP3    H242441   5.141   3.091   2.762 -1.9443  0.7821  1.1761
 6984TIP3   OH242442   6.605   6.211  11.957  0.6706 -0.0747  0.1369
 6984TIP3    H142443   6.651   6.128  11.967 -2.2427 -1.6307  2.1740
 6984TIP3    H242444   6.578   6.234  12.046 -2.0467  0.9155 -0.8369
 6985TIP3   OH242445   3.021   4.040  12.166 -0.1877  0.1429  0.2199
 6985TIP3    H142446   2.974   3.957  12.155 -0.9078  0.3156  1.7815
 6985TIP3    H242447   3.109   4.022  12.132 -0.1669 -1.4406  1.0241
 6986TIP3   OH242448   4.149   2.389  14.088 -0.0079  0.0328 -0.5101
 6986TIP3    H142449   4.218   2.413  14.150  0.3427 -0.3201 -0.7519
 6986TIP3    H242450   4.074   2.442  14.114 -0.0855 -0.6090  0.6523
 6987TIP3   OH242451   1.415   2.946   1.528 -0.2716  0.1718  0.3423
 6987TIP3    H142452   1.459   2.947   1.443 -1.2937  2.2595 -0.2316
 6987TIP3    H242453   1.359   2.868   1.524  1.9585 -1.5642  0.4253
 6988TIP3   OH242454   0.586   0.950   3.487 -0.1081  0.0141  0.2442
 6988TIP3    H142455   0.598   0.932   3.393 -1.3967  1.1205 -0.1679
 6988TIP3    H242456   0.609   1.043   3.497 -1.4060  0.3051  0.7178
 6989TIP3   OH242457   6.749   2.705   2.134  0.2853 -0.7033  0.0756
 6989TIP3    H142458   6.801   2.785   2.130 -0.8746  0.0668 -0.1066
 6989TIP3    H242459   6.813   2.635   2.126  1.4707  0.1542  1.4280
 6990TIP3   OH242460   5.158   3.752  11.299  0.0974  0.4262 -0.0964
 6990TIP3    H142461   5.253   3.752  11.293 -0.0005  0.5939 -2.6018
 6990TIP3    H242462   5.135   3.839  11.332  0.7873  0.3368  0.6436
 6991TIP3   OH242463   4.219   3.013   5.807 -0.2105  0.0418 -0.0279
 6991TIP3    H142464   4.241   2.976   5.892  0.0449 -3.0539 -1.2851
 6991TIP3    H242465   4.264   3.097   5.804  0.3722 -0.1151  2.5826
 6992TIP3   OH242466   5.741   2.573   2.493 -0.4096  0.0966 -0.5760
 6992TIP3    H142467   5.808   2.555   2.559 -0.0413  0.5680 -0.8092
 6992TIP3    H242468   5.760   2.513   2.421  1.1907  1.7206 -1.6138
 6993TIP3   OH242469   4.115   4.234   3.025  0.4278 -0.2338  0.0399
 6993TIP3    H142470   4.086   4.202   3.110 -0.2325 -0.3268 -0.2144
 6993TIP3    H242471   4.200   4.191   3.011 -0.3682 -1.7946 -0.2220
 6994TIP3   OH242472   1.928   4.930  15.801  0.1247  0.6999  0.5916
 6994TIP3    H142473   2.006   4.875  15.798 -0.3886  0.0097 -0.4434
 6994TIP3    H242474   1.956   5.008  15.849  1.9221  1.1895 -1.1297
 6995TIP3   OH242475   3.711   4.294   4.216 -0.0443 -0.4188 -0.2620
 6995TIP3    H142476   3.628   4.258   4.184  0.4628 -0.3932 -1.6219
 6995TIP3    H242477   3.729   4.369   4.159  1.4768 -1.0895 -0.7038
 6996TIP3   OH242478   5.592   1.911   4.082  0.2146  0.6642  0.4679
 6996TIP3    H142479   5.549   1.826   4.077  0.1051  0.7741 -0.4824
 6996TIP3    H242480   5.532   1.971   4.038  0.3898  1.2034  0.9444
 6997TIP3   OH242481   3.116   4.702   4.227 -0.2971 -0.2236 -0.1050
 6997TIP3    H142482   3.029   4.666   4.210 -1.4068  1.6994  1.2034
 6997TIP3    H242483   3.114   4.729   4.319  1.0722  1.4657 -0.5213
 6998TIP3   OH242484   1.105   2.991   6.644 -0.7629 -0.2958  0.2453
 6998TIP3    H142485   1.169   2.942   6.593 -0.8692  0.5802 -0.7671
 6998TIP3    H242486   1.151   3.071   6.669 -1.2136 -0.0168  0.1882
 6999TIP3   OH242487   4.429   4.418   3.263  0.1849  0.6369  0.7215
 6999TIP3    H142488   4.457   4.334   3.227 -0.5557  1.1299 -1.0860
 6999TIP3    H242489   4.385   4.462   3.191  0.3341  2.4980  1.7044
 7000TIP3   OH242490   6.069   1.434  11.735 -0.2819  0.0671 -0.6159
 7000TIP3    H142491   6.095   1.521  11.764 -0.6737  0.1283 -0.4409
 7000TIP3    H242492   5.974   1.431  11.748 -0.3207 -0.2688 -0.9279
 7001TIP3   OH242493   6.133   5.688   4.585  0.2149 -0.2193 -0.0441
 7001TIP3    H142494   6.197   5.728   4.526 -0.0825 -0.0022 -0.2279
 7001TIP3    H242495   6.048   5.714   4.549  0.0252 -0.3780  0.2797
 7002TIP3   OH242496   1.267   3.573  12.569 -0.2477 -0.1849  0.4463
 7002TIP3    H142497   1.176   3.600  12.557 -0.7842 -1.4689  1.4684
 7002TIP3    H242498   1.268   3.481  12.543  0.3323 -0.7100  2.2117
 7003TIP3   OH242499   5.106   0.294  14.187 -0.5134  0.0809  0.0974
 7003TIP3    H142500   5.139   0.208  14.161  1.0949 -0.4302  3.4109
 7003TIP3    H242501   5.181   0.338  14.228 -1.8664  2.2519  0.4245
 7004TIP3   OH242502   1.215   4.151  16.060 -0.1319 -0.3246  0.0919
 7004TIP3    H142503   1.137   4.112  16.098  0.6731 -0.1548  2.0789
 7004TIP3    H242504   1.203   4.245  16.071 -0.2241 -0.2232 -0.8232
 7005TIP3   OH242505   6.713   2.083   4.390 -0.1070 -0.4118 -0.3617
 7005TIP3    H142506   6.771   2.014   4.421 -1.2382 -0.8382  0.9104
 7005TIP3    H242507   6.726   2.155   4.451  1.0088  0.5093 -1.6353
 7006TIP3   OH242508   0.108   5.003  16.313 -0.1627  0.2777 -0.3821
 7006TIP3    H142509   0.022   4.989  16.350 -0.3753 -2.0678 -1.6087
 7006TIP3    H242510   0.167   4.950  16.366 -0.2960 -2.1389 -2.4869
 7007TIP3   OH242511   3.019   0.860  16.499 -0.4956  0.4999 -0.3454
 7007TIP3    H142512   3.096   0.843  16.553 -0.6781  1.7855  0.3599
 7007TIP3    H242513   3.052   0.854  16.409  0.6892  1.9596 -0.0546
 7008TIP3   OH242514   1.565   3.532   3.077 -0.3692 -0.4499 -0.5054
 7008TIP3    H142515   1.533   3.493   3.158  0.0344  0.8967  0.3378
 7008TIP3    H242516   1.587   3.622   3.101 -0.3296  0.0065 -2.1404
 7009TIP3   OH242517   2.339   2.141   0.784  0.0729 -0.8224  0.4130
 7009TIP3    H142518   2.426   2.101   0.780  0.4056 -0.1657  0.9462
 7009TIP3    H242519   2.279   2.068   0.768  0.6671 -1.5450  1.3615
 7010TIP3   OH242520   3.737   0.754   4.290  0.7507  0.2763  0.4282
 7010TIP3    H142521   3.806   0.692   4.268 -1.2721 -1.6337 -0.9370
 7010TIP3    H242522   3.676   0.704   4.343 -1.5619  0.6270 -1.7093
 7011TIP3   OH242523   4.035   2.981   2.674  0.8397  0.9650 -0.1220
 7011TIP3    H142524   3.965   2.917   2.688 -0.2428  2.1777  0.2000
 7011TIP3    H242525   4.097   2.964   2.745 -0.0441  1.0529  0.6895
 7012TIP3   OH242526   3.911   0.995  12.684  0.0447 -0.0034 -0.3040
 7012TIP3    H142527   3.970   0.921  12.699 -0.5017 -0.7274 -1.5385
 7012TIP3    H242528   3.967   1.073  12.696  0.7394 -0.6109  0.5335
 7013TIP3   OH242529   0.881   1.207  15.263  0.0984  0.7167  0.0552
 7013TIP3    H142530   0.917   1.290  15.232  2.6885 -0.2706  0.2068
 7013TIP3    H242531   0.956   1.148  15.268 -1.5441 -1.4685  0.5967
 7014TIP3   OH242532   0.270   3.674  13.438  0.3977  0.1482  0.4698
 7014TIP3    H142533   0.323   3.713  13.368  1.6320 -2.1675  0.0178
 7014TIP3    H242534   0.331   3.662  13.511  0.0998 -1.0147  0.5447
 7015TIP3   OH242535   5.933   2.871   2.598  0.3306  0.1767 -0.0958
 7015TIP3    H142536   5.988   2.798   2.623 -1.1038 -0.6195  0.9160
 7015TIP3    H242537   5.875   2.836   2.530  0.2887  0.6532 -0.3130
 7016TIP3   OH242538   0.869   3.783   2.967 -0.1601  0.6387  0.5396
 7016TIP3    H142539   0.828   3.848   2.911 -0.0000  1.3939  1.2821
 7016TIP3    H242540   0.809   3.773   3.041 -2.6598 -3.5873 -1.6918
 7017TIP3   OH242541   3.408   3.123   0.521  0.0745 -0.0927 -0.5484
 7017TIP3    H142542   3.491   3.131   0.569 -0.9496 -1.7029  1.6459
 7017TIP3    H242543   3.374   3.212   0.517  1.6787  0.5404 -1.1396
 7018TIP3   OH242544   6.652   6.564   1.261 -0.0358  0.2490 -0.0129
 7018TIP3    H142545   6.688   6.524   1.340 -0.4668 -0.8816 -0.3566
 7018TIP3    H242546   6.669   6.657   1.270  0.2926  0.0808  1.2128
 7019TIP3   OH242547   1.267   4.729   3.884  0.8083 -0.1787  0.2997
 7019TIP3    H142548   1.209   4.759   3.955  1.6613  3.0130 -0.2264
 7019TIP3    H242549   1.208   4.713   3.811  0.1933 -1.0543  0.9589
 7020TIP3   OH242550   0.721   0.610   6.929  0.0479 -0.1685  0.0561
 7020TIP3    H142551   0.673   0.674   6.981 -0.2004 -1.0922  1.0019
 7020TIP3    H242552   0.812   0.638   6.932  0.0003 -0.0938  0.8224
 7021TIP3   OH242553   0.014   3.070  15.460 -0.1830 -0.3315 -0.1719
 7021TIP3    H142554   0.073   3.103  15.392 -1.1658  0.2684 -0.7600
 7021TIP3    H242555  -0.038   3.003  15.417  1.2165 -2.1078  0.8016
 7022TIP3   OH242556   3.907   5.474  15.748  0.1453  0.2258  0.2604
 7022TIP3    H142557   3.937   5.555  15.787 -1.8285  0.6312  1.0919
 7022TIP3    H242558   3.978   5.411  15.764  1.8474  1.8221 -0.7118
 7023TIP3   OH242559   4.014   2.420  14.446 -0.1115 -0.0504 -0.2537
 7023TIP3    H142560   3.939   2.407  14.505 -0.6807 -1.5676 -1.2482
 7023TIP3    H242561   4.088   2.383  14.493 -0.4963 -0.9095 -0.2860
 7024TIP3   OH242562   1.925   5.971   1.261  0.0237 -0.4869 -0.3890
 7024TIP3    H142563   1.874   5.984   1.341  0.1054  1.8771 -0.6522
 7024TIP3    H242564   1.900   5.883   1.231 -2.9745  0.0643  0.1544
 7025TIP3   OH242565   4.566   4.685   2.433  0.5948 -0.0458  0.5364
 7025TIP3    H142566   4.530   4.774   2.430  1.5014  0.3258  0.4150
 7025TIP3    H242567   4.657   4.695   2.403  1.2665 -0.7197  2.2289
 7026TIP3   OH242568   5.989   4.910   5.020  0.6182  0.0132  0.0931
 7026TIP3    H142569   5.956   4.875   5.102  1.6329 -2.6822 -0.5240
 7026TIP3    H242570   6.059   4.971   5.045 -2.0137  2.8087  1.2535
 7027TIP3   OH242571   4.486   6.150  14.573  0.1751 -0.0614  0.2890
 7027TIP3    H142572   4.513   6.117  14.659  1.0122  0.3274  0.1796
 7027TIP3    H242573   4.567   6.162  14.524 -0.2739 -0.0333 -0.4753
 7028TIP3   OH242574   5.601   3.318  14.535 -0.1859 -0.1827  0.4569
 7028TIP3    H142575   5.550   3.252  14.582 -0.2184  0.6487  1.6343
 7028TIP3    H242576   5.579   3.304  14.443 -0.6646 -1.4019  0.7410
 7029TIP3   OH242577   0.938   6.122  14.287  0.1095 -0.2459  0.7271
 7029TIP3    H142578   0.974   6.044  14.244 -1.5242  0.1517 -1.5298
 7029TIP3    H242579   0.847   6.098  14.306  0.7514 -0.4207  4.1920
 7030TIP3   OH242580   5.754   2.408  12.382 -0.2300  0.8447 -0.3374
 7030TIP3    H142581   5.669   2.371  12.405  0.4866 -0.1192  0.8791
 7030TIP3    H242582   5.761   2.488  12.434  0.7931 -0.5995  1.9034
 7031TIP3   OH242583   1.898   4.949  13.664  0.0125  0.0070 -0.1321
 7031TIP3    H142584   1.887   4.923  13.572  1.4381 -1.4021  0.0462
 7031TIP3    H242585   1.977   4.903  13.693 -0.3371  0.5032  1.7803
 7032TIP3   OH242586   2.045   4.178   5.540 -0.4596  0.1019 -0.0313
 7032TIP3    H142587   2.070   4.091   5.508 -1.4427 -0.1590 -0.1170
 7032TIP3    H242588   2.116   4.204   5.599  1.1866  0.3904 -2.0190
 7033TIP3   OH242589   3.761   3.349  14.400  0.1989  0.0377  0.3877
 7033TIP3    H142590   3.754   3.359  14.305 -0.2781  0.0752  0.4267
 7033TIP3    H242591   3.770   3.439  14.433 -2.4352  0.3030  0.6031
 7034TIP3   OH242592   6.637   2.373   1.283 -0.0149  0.1580  0.1915
 7034TIP3    H142593   6.728   2.376   1.310 -0.0623 -0.2021  0.4059
 7034TIP3    H242594   6.598   2.305   1.338 -0.4239  0.3465  0.1394
 7035TIP3   OH242595   6.376   6.607   0.509  0.4994  0.0554  0.0595
 7035TIP3    H142596   6.284   6.601   0.533  0.5304  1.6675  0.7055
 7035TIP3    H242597   6.422   6.558   0.577 -0.0222 -4.0748 -2.2387
 7036TIP3   OH242598   1.216   4.454  12.520 -0.3480  0.7154 -0.1625
 7036TIP3    H142599   1.142   4.487  12.469 -1.3800 -1.2317 -0.0144
 7036TIP3    H242600   1.293   4.483  12.472 -1.2616  0.3243 -1.9447
 7037TIP3   OH242601   5.334   3.324  11.520 -0.1599  0.2868  0.1193
 7037TIP3    H142602   5.402   3.390  11.535  1.0424 -1.2184  1.6903
 7037TIP3    H242603   5.287   3.317  11.603  0.0570 -1.1562  0.1508
 7038TIP3   OH242604   5.156   0.584   2.040 -0.2545  0.1185 -0.3402
 7038TIP3    H142605   5.069   0.546   2.052  0.2191 -0.2416  2.6926
 7038TIP3    H242606   5.217   0.512   2.056  0.5951  1.1856  1.5508
 7039TIP3   OH242607   4.394   6.410  15.440  0.1030  0.1765 -0.7746
 7039TIP3    H142608   4.429   6.321  15.439  1.8852  0.8267 -0.1725
 7039TIP3    H242609   4.301   6.399  15.460  0.5811 -1.4767  0.8635
 7040TIP3   OH242610   6.109   1.173  12.527  0.0063 -0.3752 -0.3054
 7040TIP3    H142611   6.178   1.237  12.511  0.5762 -0.2375  2.1994
 7040TIP3    H242612   6.155   1.089  12.535  0.2881 -0.0281  3.2148
 7041TIP3   OH242613   5.394   0.107  17.015  0.2391 -0.6477 -0.0011
 7041TIP3    H142614   5.301   0.087  17.013  0.0301  0.3365 -0.7721
 7041TIP3    H242615   5.399   0.193  17.058  0.7096 -0.3222 -0.6814
 7042TIP3   OH242616   3.917   0.797   0.014 -0.6226  0.1499 -0.3313
 7042TIP3    H142617   4.001   0.841   0.001  0.7594 -2.0674  0.4987
 7042TIP3    H242618   3.907   0.742  -0.064 -0.8781 -0.2124 -0.0449
 7043TIP3   OH242619   1.879   2.874  15.066  0.5675  0.1931  0.5161
 7043TIP3    H142620   1.813   2.821  15.110  0.2550  2.3689  2.9173
 7043TIP3    H242621   1.959   2.820  15.068 -0.7195 -1.9446 -1.2981
 7044TIP3   OH242622   6.294   1.724   0.367 -0.3639  0.2463 -0.6647
 7044TIP3    H142623   6.203   1.704   0.347 -1.3836  1.6738  1.9700
 7044TIP3    H242624   6.289   1.788   0.438  2.6665 -1.8352  1.7152
 7045TIP3   OH242625   0.609   0.924  13.226  0.1066 -0.1956 -0.5019
 7045TIP3    H142626   0.617   1.011  13.264 -0.0616 -0.9441  1.3719
 7045TIP3    H242627   0.529   0.928  13.174  1.0494  1.2392 -1.9182
 7046TIP3   OH242628   2.711   2.816   6.058  0.1957 -0.1697 -0.2833
 7046TIP3    H142629   2.675   2.796   6.144  1.2996 -0.1706  0.1888
 7046TIP3    H242630   2.642   2.789   5.997 -1.1313  1.0091  0.6303
 7047TIP3   OH242631   4.150   0.074   0.525  0.5587 -0.5269  0.0040
 7047TIP3    H142632   4.204   0.018   0.580  0.6018 -2.2723 -1.6955
 7047TIP3    H242633   4.129   0.149   0.580  2.1768 -1.2472  1.7119
 7048TIP3   OH242634   0.991   6.253   3.274 -0.3413  0.3176  0.8656
 7048TIP3    H142635   1.071   6.219   3.313  0.1267 -0.5456 -0.7738
 7048TIP3    H242636   0.921   6.210   3.322  0.2016 -0.2919  1.1269
 7049TIP3   OH242637   3.158   5.538  14.760 -0.1495  0.0030  0.2673
 7049TIP3    H142638   3.096   5.564  14.829 -0.3258 -0.4339  0.2788
 7049TIP3    H242639   3.236   5.510  14.808  0.6960  2.0791  0.2176
 7050TIP3   OH242640   1.851   0.396   0.580 -0.5581  1.0035 -0.1132
 7050TIP3    H142641   1.863   0.420   0.488  1.6790 -0.7609 -0.3863
 7050TIP3    H242642   1.940   0.385   0.614 -1.2004 -3.0568  0.8731
 7051TIP3   OH242643   6.266   5.010  11.288  0.0454 -0.1213  0.0616
 7051TIP3    H142644   6.171   5.009  11.282  0.0690  1.2464 -1.3159
 7051TIP3    H242645   6.290   5.101  11.268  1.6763 -0.6095 -0.3555
 7052TIP3   OH242646   6.266   1.619  15.422 -0.8326 -0.4651 -0.5325
 7052TIP3    H142647   6.230   1.587  15.339 -2.9000 -2.0736  0.8865
 7052TIP3    H242648   6.194   1.667  15.463  0.7047  1.8969 -0.3841
 7053TIP3   OH242649   4.604   6.370   1.707  0.2321 -0.0321 -0.2225
 7053TIP3    H142650   4.672   6.355   1.774  1.9580 -0.3535 -1.9548
 7053TIP3    H242651   4.639   6.327   1.629 -1.1291  1.4224 -1.6785
 7054TIP3   OH242652   2.051   4.785  12.616  0.0636  0.8753 -0.3725
 7054TIP3    H142653   1.991   4.787  12.541 -1.6599  0.2509  0.9507
 7054TIP3    H242654   2.053   4.876  12.647  1.7117  1.3951 -1.8177
 7055TIP3   OH242655   4.620   6.701   4.688 -0.3102 -0.6518 -0.2711
 7055TIP3    H142656   4.657   6.614   4.700  2.0882  0.2166 -0.8516
 7055TIP3    H242657   4.595   6.704   4.596 -0.2966 -0.7022 -0.2762
 7056TIP3   OH242658   4.574   0.380  11.579 -0.0420  0.1133  0.3296
 7056TIP3    H142659   4.564   0.438  11.654 -2.2561 -0.2817  0.4026
 7056TIP3    H242660   4.574   0.292  11.616  0.4743 -0.0457 -0.0245
 7057TIP3   OH242661   4.420   6.537  16.308  0.3745  0.1084  0.1214
 7057TIP3    H142662   4.335   6.496  16.324  0.9513 -1.7855 -1.3852
 7057TIP3    H242663   4.405   6.597  16.236  0.7979 -2.2620 -2.0631
 7058TIP3   OH242664   6.627   1.212  11.811  0.1359  0.2826  0.1086
 7058TIP3    H142665   6.608   1.121  11.831 -0.4157  0.2252 -0.6265
 7058TIP3    H242666   6.709   1.231  11.856 -0.4001 -0.2021  1.3291
 7059TIP3   OH242667   4.889   1.240   3.661 -0.1655 -0.5198  0.1719
 7059TIP3    H142668   4.859   1.160   3.704 -0.7442 -0.8052 -0.7403
 7059TIP3    H242669   4.913   1.212   3.573  2.4145 -0.2249  0.6953
 7060TIP3   OH242670   3.205   1.224  14.852 -0.0442  0.0079 -0.2977
 7060TIP3    H142671   3.240   1.311  14.831  0.7138 -0.3590 -0.5955
 7060TIP3    H242672   3.282   1.170  14.867 -0.4897 -0.7271 -0.5816
 7061TIP3   OH242673   4.580   6.534  12.387 -0.2247  0.2702 -0.2666
 7061TIP3    H142674   4.553   6.540  12.479  2.3660  0.7099  0.5326
 7061TIP3    H242675   4.556   6.619  12.350  0.6938  0.9417  0.6167
 7062TIP3   OH242676   2.756   1.142   2.189 -0.2848 -0.5219  0.0516
 7062TIP3    H142677   2.773   1.230   2.222 -3.2677  0.0357  0.3027
 7062TIP3    H242678   2.831   1.123   2.132 -1.0078  3.5057 -2.6165
 7063TIP3   OH242679   2.033   6.264   3.479  0.1737 -0.5626 -0.2310
 7063TIP3    H142680   1.996   6.202   3.542  2.3412 -4.0547 -2.0768
 7063TIP3    H242681   1.975   6.259   3.403  0.1004  0.0939 -0.2261
 7064TIP3   OH242682   4.886   1.426   5.223 -0.5027  0.0558 -0.3249
 7064TIP3    H142683   4.831   1.452   5.149  0.4232  0.8587 -0.7452
 7064TIP3    H242684   4.903   1.333   5.208  1.8140  0.7391 -2.6108
 7065TIP3   OH242685   6.245   1.355  11.541 -0.4216  0.0581  0.2403
 7065TIP3    H142686   6.230   1.261  11.549 -0.9473 -0.1850 -2.4152
 7065TIP3    H242687   6.178   1.395  11.597 -0.1149 -1.1274  1.4956
 7066TIP3   OH242688   0.713   6.737   3.714 -0.7816  0.2783  0.3590
 7066TIP3    H142689   0.709   6.686   3.795 -1.5172  0.9867  0.7797
 7066TIP3    H242690   0.807   6.748   3.697 -0.6149 -0.7075  0.5662
 7067TIP3   OH242691   6.655   5.079   0.414 -0.0031  0.1677 -0.0294
 7067TIP3    H142692   6.580   5.115   0.460 -0.4365 -0.7702  0.0374
 7067TIP3    H242693   6.712   5.044   0.483 -0.2931 -0.5680 -0.1528
 7068TIP3   OH242694   6.310   4.651  12.319 -0.5407  0.1831 -0.0013
 7068TIP3    H142695   6.396   4.689  12.338 -0.3197 -0.0574 -0.4922
 7068TIP3    H242696   6.250   4.726  12.319 -0.9835  0.0318  3.6678
 7069TIP3   OH242697   5.812   4.158  16.056 -0.2951  0.0700 -0.2806
 7069TIP3    H142698   5.795   4.213  15.980  0.4839  0.4625 -0.1836
 7069TIP3    H242699   5.904   4.174  16.077 -0.6064  0.2797  0.9896
 7070TIP3   OH242700   3.944   4.040  13.902  0.3977 -0.1760  0.2212
 7070TIP3    H142701   3.917   4.113  13.958  2.6851  0.8829  0.0512
 7070TIP3    H242702   3.881   4.042  13.830  0.7444  2.0603 -0.0973
 7071TIP3   OH242703   0.934   4.520  12.533 -0.1307  0.1543  0.2633
 7071TIP3    H142704   0.939   4.533  12.628  1.5815  1.7435  0.0082
 7071TIP3    H242705   0.903   4.603  12.499  1.1299  0.2668 -0.6880
 7072TIP3   OH242706   4.183   3.873  16.085  0.4216 -0.2917  0.8307
 7072TIP3    H142707   4.194   3.870  16.180 -2.5764  1.9344  1.3773
 7072TIP3    H242708   4.134   3.794  16.064 -0.1610 -0.0880  1.3875
 7073TIP3   OH242709   3.676   1.709  11.379 -0.1231  0.4949 -0.0287
 7073TIP3    H142710   3.731   1.756  11.441  0.0441 -1.0628  1.0642
 7073TIP3    H242711   3.718   1.624  11.369 -1.1853  0.0394 -0.8192
 7074TIP3   OH242712   0.137   1.437  14.671 -0.1867 -0.3763 -0.0442
 7074TIP3    H142713   0.140   1.485  14.754 -0.2779 -1.0607  0.3554
 7074TIP3    H242714   0.229   1.434  14.642 -0.3706  1.7435 -1.0758
 7075TIP3   OH242715   0.297   3.583   5.772  0.3574 -0.0686  0.7695
 7075TIP3    H142716   0.335   3.669   5.789 -0.2094  0.2032  0.6804
 7075TIP3    H242717   0.207   3.590   5.804  0.4640 -0.7929  1.2362
 7076TIP3   OH242718   6.042   6.264  16.775 -0.1800  0.7671  0.2254
 7076TIP3    H142719   6.016   6.356  16.768 -2.1102  0.1967 -1.0918
 7076TIP3    H242720   5.966   6.221  16.814  1.1423 -0.1254  1.9333
 7077TIP3   OH242721   4.558   5.569   3.534  0.3763  0.1114 -0.0676
 7077TIP3    H142722   4.629   5.526   3.584  0.8297  1.4266  0.4591
 7077TIP3    H242723   4.479   5.549   3.584  0.2567 -1.8179 -0.9433
 7078TIP3   OH242724   4.233   0.772   2.876  0.2984  0.3978 -0.4297
 7078TIP3    H142725   4.149   0.735   2.848 -0.1044  1.1848 -0.3101
 7078TIP3    H242726   4.258   0.831   2.804 -0.2039  1.6069  0.3416
 7079TIP3   OH242727   4.006   4.613   2.185 -0.2754  0.0321  0.1892
 7079TIP3    H142728   3.984   4.621   2.278 -0.0163 -1.2273  0.3721
 7079TIP3    H242729   3.994   4.702   2.151  0.6223  0.7533  1.6325
 7080TIP3   OH242730   0.331   3.219  12.512 -0.4399 -0.0795  0.1821
 7080TIP3    H142731   0.242   3.186  12.528 -0.1067 -0.5542  1.1123
 7080TIP3    H242732   0.330   3.308  12.546 -1.0318  0.5522 -1.3671
 7081TIP3   OH242733   0.026   0.466   6.484  0.0367 -0.0360  0.4810
 7081TIP3    H142734   0.001   0.509   6.402  1.0127  0.0587  0.2238
 7081TIP3    H242735   0.083   0.529   6.527  0.3244 -0.4974  0.7762
 7082TIP3   OH242736   2.790   2.033   5.854 -0.2970  0.2332 -0.0118
 7082TIP3    H142737   2.881   2.023   5.827  0.4193  1.9966  1.5180
 7082TIP3    H242738   2.775   1.963   5.917  0.1200  0.1494 -0.0041
 7083TIP3   OH242739   1.350   6.011   2.271 -0.5786  0.4611 -0.3551
 7083TIP3    H142740   1.389   5.972   2.349 -1.3392  0.3954  0.0053
 7083TIP3    H242741   1.255   6.008   2.287 -0.7479  0.5003 -1.2512
 7084TIP3   OH242742   1.498   6.651  17.407 -0.6937  0.2385 -0.2507
 7084TIP3    H142743   1.548   6.604  17.340 -0.1970  0.9104 -0.3606
 7084TIP3    H242744   1.417   6.601  17.416 -0.2304 -0.5658 -0.4560
 7085TIP3   OH242745   2.218   5.920   0.226 -0.1348 -0.1511 -0.2629
 7085TIP3    H142746   2.168   5.842   0.249  0.0446  0.0815  0.9995
 7085TIP3    H242747   2.185   5.988   0.286  1.0228  0.2432 -0.0429
 7086TIP3   OH242748   6.614   1.902  14.650 -0.9674 -0.0396 -0.0977
 7086TIP3    H142749   6.559   1.873  14.723 -2.6377  0.3480 -1.1408
 7086TIP3    H242750   6.577   1.857  14.574  0.7190 -0.4100 -0.7250
 7087TIP3   OH242751   1.779   4.246   3.584 -0.1914 -0.1893 -0.0171
 7087TIP3    H142752   1.737   4.298   3.653 -0.7027  1.0870 -1.2477
 7087TIP3    H242753   1.795   4.308   3.514  1.3752 -1.2278 -0.6231
 7088TIP3   OH242754   5.351   0.829   7.046  0.4339 -0.0716 -0.5495
 7088TIP3    H142755   5.353   0.847   6.952  1.9945 -0.3185 -0.5789
 7088TIP3    H242756   5.391   0.743   7.056  0.0182 -0.1821  0.3283
 7089TIP3   OH242757   0.997   6.037  12.143 -0.2877 -0.0814  0.1098
 7089TIP3    H142758   0.968   6.017  12.054 -0.7075 -2.3579  0.7158
 7089TIP3    H242759   0.919   6.070  12.187  0.1831  2.1927 -0.6187
 7090TIP3   OH242760   4.580   1.009   0.846  0.2705  0.0910  0.3985
 7090TIP3    H142761   4.642   0.967   0.786 -0.4322  0.1342 -0.3765
 7090TIP3    H242762   4.570   1.098   0.812 -0.4417 -0.0097  0.3345
 7091TIP3   OH242763   4.086   6.606  13.001 -0.9193 -0.0621 -0.0758
 7091TIP3    H142764   4.064   6.697  13.020  1.2136  0.4133  0.4014
 7091TIP3    H242765   4.179   6.607  12.982 -0.5642 -2.2974  1.1147
 7092TIP3   OH242766   0.155   2.770   0.325 -0.4162  0.6285  0.3014
 7092TIP3    H142767   0.147   2.839   0.391 -0.3584  1.3286 -0.4167
 7092TIP3    H242768   0.185   2.815   0.246 -1.1805 -0.0865 -0.4125
 7093TIP3   OH242769   5.544   3.843   0.418  0.1069 -0.5384  0.6527
 7093TIP3    H142770   5.639   3.859   0.412  0.0570 -0.4851 -0.0765
 7093TIP3    H242771   5.532   3.757   0.379 -0.1325 -0.6041  0.8698
 7094TIP3   OH242772   4.181   1.202  14.784  0.4120  0.3446 -0.1486
 7094TIP3    H142773   4.254   1.157  14.827  0.3699  0.0216 -0.4140
 7094TIP3    H242774   4.136   1.248  14.855  0.8324  0.4885  0.0247
 7095TIP3   OH242775   0.946   5.605   4.619 -0.4856 -0.2927  0.2740
 7095TIP3    H142776   0.915   5.515   4.609 -0.1995 -0.2852 -0.7647
 7095TIP3    H242777   0.929   5.626   4.711 -1.9507 -0.8823  0.1651
 7096TIP3   OH242778   3.525   5.354  16.700  0.1274  0.5816  0.1167
 7096TIP3    H142779   3.498   5.397  16.619 -1.0648  1.5430  0.9760
 7096TIP3    H242780   3.444   5.317  16.735  0.4349  0.9732  1.3067
 7097TIP3   OH242781   3.422   3.948   1.071 -0.3298  0.1691 -0.4983
 7097TIP3    H142782   3.460   4.019   1.021 -0.6365  1.0516  0.4930
 7097TIP3    H242783   3.465   3.869   1.038  1.9146  1.0468  0.1686
 7098TIP3   OH242784   3.716   4.529  12.267  0.1812  0.0425  0.1717
 7098TIP3    H142785   3.730   4.580  12.346 -2.4061 -0.2111  0.8931
 7098TIP3    H242786   3.740   4.440  12.291  0.6853  0.1894  0.2262
 7099TIP3   OH242787   4.607   4.724  14.600 -0.7114  0.6681  0.2275
 7099TIP3    H142788   4.579   4.635  14.620 -0.2628  0.6112  0.6320
 7099TIP3    H242789   4.653   4.717  14.517 -2.0057  0.7893 -0.5248
 7100TIP3   OH242790   3.986   6.718   1.946 -0.4369  0.1813  0.1043
 7100TIP3    H142791   4.079   6.715   1.924 -0.7171  2.5918 -1.8416
 7100TIP3    H242792   3.963   6.627   1.965  2.0761 -0.6180 -0.3126
 7101TIP3   OH242793   6.003   2.350   0.361  0.0257 -0.0932  0.1775
 7101TIP3    H142794   6.071   2.283   0.362 -0.6473 -0.8514 -1.3554
 7101TIP3    H242795   5.995   2.374   0.269 -1.1670  0.6134  0.4453
 7102TIP3   OH242796   0.051   1.102   0.634  0.1217  0.3419  0.0898
 7102TIP3    H142797   0.027   1.011   0.613 -0.0640  0.4274 -0.0807
 7102TIP3    H242798   0.017   1.153   0.559 -1.2539  0.7505  0.9512
 7103TIP3   OH242799   2.666   2.439  15.227 -0.3417 -0.1970  0.4439
 7103TIP3    H142800   2.679   2.377  15.156  0.8114  1.0471 -0.4647
 7103TIP3    H242801   2.592   2.494  15.199 -1.3129 -1.0674  1.2134
 7104TIP3   OH242802   2.244   3.826   2.806 -0.2346 -0.1949 -0.5066
 7104TIP3    H142803   2.308   3.796   2.741 -1.2282 -0.1470 -1.5285
 7104TIP3    H242804   2.289   3.899   2.850  0.2575  0.1374 -1.5149
 7105TIP3   OH242805   6.449   2.113  14.718  0.0073 -0.1911 -0.0304
 7105TIP3    H142806   6.493   2.122  14.803  0.5377  0.2940 -0.3552
 7105TIP3    H242807   6.510   2.063  14.664 -0.0007  0.1510 -0.3607
 7106TIP3   OH242808   2.972   2.427  12.414  0.5944 -0.3604 -0.1260
 7106TIP3    H142809   2.908   2.384  12.471  0.8263  0.2683  0.6172
 7106TIP3    H242810   2.971   2.375  12.333 -3.0632  1.2786 -1.3544
 7107TIP3   OH242811   3.677   2.706  12.876 -0.3542 -0.5016  0.0434
 7107TIP3    H142812   3.621   2.757  12.934 -0.6897 -0.4793 -0.2940
 7107TIP3    H242813   3.729   2.772  12.829 -1.7282 -0.3492 -1.3666
 7108TIP3   OH242814   5.781   2.044  11.229  0.9907  0.0163  0.4042
 7108TIP3    H142815   5.726   2.080  11.161  0.2749 -0.8399  0.5105
 7108TIP3    H242816   5.795   1.953  11.203  1.4170 -0.0878  0.9653
 7109TIP3   OH242817   4.729   0.607  16.749  0.0551  0.0198 -0.1280
 7109TIP3    H142818   4.785   0.669  16.795 -0.3916  1.2759 -1.2147
 7109TIP3    H242819   4.772   0.522  16.761  1.3332  0.7190  0.3849
 7110TIP3   OH242820   4.554   6.398   3.751  0.0903  0.0801  0.2782
 7110TIP3    H142821   4.493   6.387   3.678 -4.4842  0.3603  3.6524
 7110TIP3    H242822   4.569   6.492   3.755  0.8151  0.0182 -0.5073
 7111TIP3   OH242823   6.031   4.314  13.284  0.1473 -0.1040  0.0164
 7111TIP3    H142824   6.056   4.222  13.289  2.2200  0.4580  0.9822
 7111TIP3    H242825   5.967   4.325  13.354  0.2908 -0.6853  0.2482
 7112TIP3   OH242826   0.639   2.329  17.482  0.0770  0.1447 -0.1126
 7112TIP3    H142827   0.652   2.342  17.576  0.6279 -0.2474 -0.1251
 7112TIP3    H242828   0.621   2.236  17.473  0.8467  0.0234 -0.4709
 7113TIP3   OH242829   5.335   3.898   3.666  0.5104  0.5893  0.1084
 7113TIP3    H142830   5.327   3.986   3.628  1.8218 -0.2320 -2.3265
 7113TIP3    H242831   5.426   3.873   3.647  0.0722 -1.4073  0.4791
 7114TIP3   OH242832   5.814   2.854  12.616 -0.4680 -0.0285 -0.1092
 7114TIP3    H142833   5.756   2.889  12.685  0.7990 -0.4488  1.2108
 7114TIP3    H242834   5.754   2.822  12.549 -1.7760 -0.0505  1.0159
 7115TIP3   OH242835   3.782   3.359   4.658 -0.1875 -0.0184  0.0085
 7115TIP3    H142836   3.831   3.441   4.662 -0.6523  0.3660 -1.4486
 7115TIP3    H242837   3.778   3.329   4.749  1.9890  0.3518  0.2755
 7116TIP3   OH242838   3.885   0.727   1.070  0.1107  0.1670 -0.2298
 7116TIP3    H142839   3.888   0.743   0.975 -0.2804  0.4789 -0.1928
 7116TIP3    H242840   3.832   0.799   1.104  0.6744  0.3388  0.2924
 7117TIP3   OH242841   2.554   1.300   4.070 -0.1779  0.1428  0.2851
 7117TIP3    H142842   2.501   1.294   3.991 -1.8012  1.2758  1.2321
 7117TIP3    H242843   2.500   1.349   4.132  1.1521 -0.4614  2.0126
 7118TIP3   OH242844   0.691   2.842   0.984 -0.0951 -0.7701 -0.1684
 7118TIP3    H142845   0.666   2.907   0.918 -3.0243  0.6332  2.0604
 7118TIP3    H242846   0.668   2.758   0.945  1.5448 -0.3454 -2.2087
 7119TIP3   OH242847   6.178   3.660  14.803 -0.1391  0.0125  0.4107
 7119TIP3    H142848   6.133   3.609  14.736 -0.3266  1.4524 -0.6119
 7119TIP3    H242849   6.121   3.735  14.819  1.1570  1.0683  0.2163
 7120TIP3   OH242850   3.353   0.409  16.330  0.1388 -0.1080 -0.3902
 7120TIP3    H142851   3.428   0.451  16.371  0.7786 -0.8385 -0.7744
 7120TIP3    H242852   3.385   0.322  16.305 -0.6046 -0.1508 -1.2693
 7121TIP3   OH242853   6.047   2.233  15.099 -0.3988 -0.7934 -0.8258
 7121TIP3    H142854   5.978   2.239  15.165  1.0885  0.3996  0.7010
 7121TIP3    H242855   6.062   2.139  15.089 -1.0982 -1.0212  0.0698
 7122TIP3   OH242856   0.051   0.492  13.201  0.2991 -0.1947  0.2399
 7122TIP3    H142857   0.053   0.582  13.166  0.1027 -0.4478 -0.4381
 7122TIP3    H242858   0.098   0.440  13.136 -1.3290 -0.9276 -0.4045
 7123TIP3   OH242859   2.987   0.903  12.408  0.6771  0.0829  0.0872
 7123TIP3    H142860   3.022   0.992  12.402  0.5232  0.1672  0.4097
 7123TIP3    H242861   2.893   0.915  12.423  0.4666 -0.1381 -0.9378
 7124TIP3   OH242862   1.487   2.528   0.074  0.1747 -0.1897  0.8849
 7124TIP3    H142863   1.564   2.554   0.024  0.0402 -0.0535  0.7435
 7124TIP3    H242864   1.521   2.492   0.156  0.3857 -0.1522  0.8117
 7125TIP3   OH242865   0.652   2.560  15.219  0.6765 -0.2688  0.3424
 7125TIP3    H142866   0.720   2.623  15.244 -0.2039  1.7117 -1.8378
 7125TIP3    H242867   0.696   2.475  15.222  2.1891  0.5162  2.4769
 7126TIP3   OH242868   4.621   1.124  15.268  0.2265  0.0929  0.1106
 7126TIP3    H142869   4.695   1.186  15.271  0.5223 -0.1905 -1.0360
 7126TIP3    H242870   4.576   1.139  15.351  0.9133  1.0855  0.3401
 7127TIP3   OH242871   3.189   5.870  16.773 -0.4955 -0.4265  0.3047
 7127TIP3    H142872   3.097   5.896  16.770 -0.3203  0.1634 -0.1444
 7127TIP3    H242873   3.236   5.944  16.736  0.0820 -1.1055 -0.3706
 7128TIP3   OH242874   0.557   4.507  14.136  0.2563 -0.6750  0.0941
 7128TIP3    H142875   0.652   4.515  14.137  0.2540 -0.6706  0.9490
 7128TIP3    H242876   0.540   4.420  14.102  0.5103 -0.1086 -1.5921
 7129TIP3   OH242877   1.632   4.013   5.934  0.4855  0.0771  0.3040
 7129TIP3    H142878   1.722   4.015   5.901  0.5533 -0.4892  0.4616
 7129TIP3    H242879   1.640   4.033   6.027  0.4468 -0.0054  0.3243
 7130TIP3   OH242880   3.997   2.408   5.462  0.1610 -0.0402 -0.5754
 7130TIP3    H142881   3.975   2.442   5.376  0.2811 -0.4117 -0.7544
 7130TIP3    H242882   3.958   2.471   5.523  1.1367  0.9099 -0.8949
 7131TIP3   OH242883   1.115   6.624  13.775  0.4218  0.4938 -0.6345
 7131TIP3    H142884   1.120   6.565  13.850  1.1273 -0.2247 -1.2318
 7131TIP3    H242885   1.021   6.632  13.758  0.0396  2.6711  1.8338
 7132TIP3   OH242886   0.239   3.670  10.843 -0.3106 -0.9159  0.2049
 7132TIP3    H142887   0.296   3.735  10.884 -1.6155  1.6306 -1.7510
 7132TIP3    H242888   0.270   3.586  10.878  0.5820  0.7479  3.9383
 7133TIP3   OH242889   0.504   4.120   0.604  0.8447 -0.0339  0.8343
 7133TIP3    H142890   0.501   4.213   0.626 -0.1968  0.0356  0.4722
 7133TIP3    H242891   0.412   4.095   0.591  1.1015 -1.1286  0.9873
 7134TIP3   OH242892   1.165   1.970  16.448 -0.1381 -0.1926 -0.6638
 7134TIP3    H142893   1.254   1.987  16.478  0.0633 -0.6434 -0.9924
 7134TIP3    H242894   1.124   2.057  16.444  0.3599  0.0430 -0.7462
 7135TIP3   OH242895   1.032   3.322  12.894  0.0316 -0.3664  0.1929
 7135TIP3    H142896   0.954   3.347  12.844  0.7974 -0.4828 -1.1039
 7135TIP3    H242897   1.072   3.252  12.844  0.5374 -0.8820  1.2811
 7136TIP3   OH242898   0.108   2.544  15.445 -0.4747 -0.1811  0.4394
 7136TIP3    H142899   0.059   2.591  15.378 -0.4542  0.1041  0.6236
 7136TIP3    H242900   0.040   2.510  15.504 -0.4331  0.4507  0.8480
 7137TIP3   OH242901   5.969   5.297   2.496  0.0166  0.8229  0.5851
 7137TIP3    H142902   5.877   5.271   2.504  0.6762 -2.4660 -0.7690
 7137TIP3    H242903   5.975   5.338   2.410 -0.2691  1.6028  0.9311
 7138TIP3   OH242904   1.920   3.776  12.270 -0.5461 -0.7306  0.0662
 7138TIP3    H142905   1.884   3.749  12.185 -2.7279  0.6612  0.4681
 7138TIP3    H242906   1.877   3.859  12.289  0.3566 -0.7043  2.2751
 7139TIP3   OH242907   2.418   6.657  12.770  0.0383 -0.3032 -0.0254
 7139TIP3    H142908   2.344   6.636  12.714 -0.2631 -1.5110  0.7906
 7139TIP3    H242909   2.464   6.727  12.723 -1.4828  0.3328 -0.6419
 7140TIP3   OH242910   3.699   0.060   1.303  0.5677  0.1076 -0.6718
 7140TIP3    H142911   3.725  -0.008   1.366  0.3851 -0.2967 -1.0277
 7140TIP3    H242912   3.701   0.141   1.354 -0.9199 -0.3839  0.2439
 7141TIP3   OH242913   6.645   2.631   4.830  0.2709  0.0856  0.1053
 7141TIP3    H142914   6.613   2.681   4.755  0.0434  1.5772  1.1451
 7141TIP3    H242915   6.606   2.674   4.906  0.3633 -1.4823  1.0910
 7142TIP3   OH242916   5.150   2.189  17.046  0.3462  0.7198  0.2567
 7142TIP3    H142917   5.226   2.197  16.988  0.4091 -1.1476  0.0236
 7142TIP3    H242918   5.081   2.241  17.003  0.9612  0.9511 -0.4682
 7143TIP3   OH242919   5.766   4.380   6.510 -0.1610  0.0856  0.3034
 7143TIP3    H142920   5.695   4.321   6.488 -0.5132  1.5735 -3.1669
 7143TIP3    H242921   5.724   4.466   6.522  0.6998  0.3350  1.9639
 7144TIP3   OH242922   0.366   3.476   3.177 -0.3137 -0.2919  0.6053
 7144TIP3    H142923   0.398   3.550   3.126  1.2112 -1.2668  0.0795
 7144TIP3    H242924   0.283   3.452   3.136  0.7638 -0.9122 -1.3374
 7145TIP3   OH242925   1.676   1.812  11.841  0.0895 -0.0437 -0.2334
 7145TIP3    H142926   1.722   1.765  11.911 -0.7442  0.1476  0.4536
 7145TIP3    H242927   1.651   1.896  11.880 -3.0894 -1.1003  0.3196
 7146TIP3   OH242928   5.659   3.492  13.046 -0.1604  0.5181 -0.0897
 7146TIP3    H142929   5.577   3.539  13.030  0.2815  1.2196 -0.3481
 7146TIP3    H242930   5.652   3.461  13.136 -0.2750  1.4773  0.2466
 7147TIP3   OH242931   4.051   0.687   4.170  0.5186 -0.1478  0.0828
 7147TIP3    H142932   4.049   0.720   4.260  0.2500 -1.1130  0.4449
 7147TIP3    H242933   4.142   0.697   4.143  1.3897 -2.8312  1.6373
 7148TIP3   OH242934   6.072   1.699  15.603  0.5507 -0.2989 -0.5626
 7148TIP3    H142935   6.098   1.789  15.622 -0.6880  0.1434 -0.8449
 7148TIP3    H242936   5.995   1.684  15.658 -0.6906 -0.3488 -2.2142
 7149TIP3   OH242937   3.037   6.199   1.984  0.2465  0.1820 -0.2159
 7149TIP3    H142938   2.999   6.151   1.911 -2.0684  3.1289 -1.1629
 7149TIP3    H242939   2.963   6.215   2.044  1.6611 -0.3837  1.7898
 7150TIP3   OH242940   6.370   6.582   3.155  0.0223  0.7623 -0.7866
 7150TIP3    H142941   6.355   6.494   3.191 -0.8968  0.9761 -0.6279
 7150TIP3    H242942   6.417   6.628   3.224 -0.0381  0.5834 -0.6234
 7151TIP3   OH242943   3.852   0.892  14.099 -0.0471 -0.7875 -0.3980
 7151TIP3    H142944   3.848   0.845  14.016 -1.3772 -2.5003  0.5720
 7151TIP3    H242945   3.919   0.847  14.150  0.2885 -0.1640 -0.2704
 7152TIP3   OH242946   2.947   0.002  16.410 -0.3502  0.2515  0.0604
 7152TIP3    H142947   2.988   0.082  16.376  0.1441  0.0713  0.2200
 7152TIP3    H242948   2.938   0.019  16.504  1.7608 -0.6989  0.5020
 7153TIP3   OH242949   1.686   0.106   2.375  0.5534 -0.9286  0.8668
 7153TIP3    H142950   1.668   0.012   2.378 -0.1737 -0.9524 -1.9485
 7153TIP3    H242951   1.665   0.132   2.286  1.1062  1.8673  1.4584
 7154TIP3   OH242952   4.583   4.722   1.791  0.0808  0.1754  0.5327
 7154TIP3    H142953   4.539   4.807   1.778 -1.7462 -1.0667 -2.5040
 7154TIP3    H242954   4.600   4.691   1.702  0.4878 -2.7562  1.5547
 7155TIP3   OH242955   2.531   3.138   4.106 -0.0438  0.2597 -0.4815
 7155TIP3    H142956   2.605   3.194   4.126  0.7069 -0.6931 -0.5201
 7155TIP3    H242957   2.510   3.157   4.014 -0.3382  1.0721 -0.2505
 7156TIP3   OH242958   0.727   3.886  12.400  0.2721  0.4086 -0.2038
 7156TIP3    H142959   0.734   3.840  12.316 -0.1758 -0.0042 -0.0170
 7156TIP3    H242960   0.720   3.816  12.465 -1.0027  0.7326  0.0330
 7157TIP3   OH242961   2.408   1.989   1.495 -0.8378  0.3571  0.1384
 7157TIP3    H142962   2.348   1.992   1.570 -1.4873 -0.7329 -0.3240
 7157TIP3    H242963   2.387   1.908   1.450 -0.0573  0.7178 -0.9176
 7158TIP3   OH242964   2.726   5.896  15.206 -0.4080  0.3326 -0.6750
 7158TIP3    H142965   2.783   5.858  15.272 -1.9484 -1.3691 -0.2535
 7158TIP3    H242966   2.786   5.933  15.141  1.1464 -0.8407  0.0262
 7159TIP3   OH242967   5.073   0.527  17.245  0.0503  0.4371  0.1390
 7159TIP3    H142968   5.156   0.528  17.292 -0.8563  0.0610  1.8366
 7159TIP3    H242969   5.007   0.507  17.312 -1.2467 -0.9010 -1.4182
 7160TIP3   OH242970   1.445   6.338  15.285 -0.2170 -0.3246  0.1835
 7160TIP3    H142971   1.492   6.366  15.364 -2.0102  1.0646  0.8279
 7160TIP3    H242972   1.514   6.303  15.228  1.3723  0.1912  1.6788
 7161TIP3   OH242973   3.277   3.955   0.463  0.4714  0.1100 -0.2927
 7161TIP3    H142974   3.357   4.002   0.485 -0.4848  1.1805  1.0997
 7161TIP3    H242975   3.307   3.871   0.428  2.1961  0.1303  1.0053
 7162TIP3   OH242976   0.314   0.213   0.048  0.5167  0.5740  0.6431
 7162TIP3    H142977   0.320   0.126   0.087  1.0625  0.5964  0.6057
 7162TIP3    H242978   0.351   0.272   0.114 -1.1625  0.9685  1.2855
 7163TIP3   OH242979   4.159   0.647  10.760 -0.3033 -0.9051 -0.1293
 7163TIP3    H142980   4.209   0.578  10.716 -1.3379 -0.9139 -1.3766
 7163TIP3    H242981   4.118   0.696  10.688 -0.3861  0.3962  0.7693
 7164TIP3   OH242982   3.020   4.720  13.699 -0.1234 -0.2338  0.1542
 7164TIP3    H142983   3.072   4.722  13.619  1.4603 -2.4339  1.0373
 7164TIP3    H242984   3.079   4.755  13.767  0.0251 -2.0824  1.0368
 7165TIP3   OH242985   3.917   1.550   5.657 -0.5161 -0.5755  0.1382
 7165TIP3    H142986   3.827   1.518   5.647 -0.4727 -0.6006 -0.1796
 7165TIP3    H242987   3.908   1.645   5.655 -0.6558 -0.5575  1.1776
 7166TIP3   OH242988   0.410   0.260   6.045 -0.1727 -0.3639 -0.1492
 7166TIP3    H142989   0.434   0.313   5.969 -1.8893  1.3897  0.4691
 7166TIP3    H242990   0.437   0.171   6.022  1.2529  0.4709 -1.9164
 7167TIP3   OH242991   3.415   2.382   5.212 -0.0842  0.4107 -1.0771
 7167TIP3    H142992   3.388   2.350   5.125 -0.7719  1.1333 -1.1407
 7167TIP3    H242993   3.360   2.459   5.227  0.5217  0.7013 -0.2956
 7168TIP3   OH242994   1.091   5.022   0.079  0.1817  0.1830 -0.3243
 7168TIP3    H142995   1.134   4.946   0.119 -1.6516 -1.2905 -1.0314
 7168TIP3    H242996   1.161   5.087   0.071  2.4475 -2.2387 -1.8913
 7169TIP3   OH242997   1.930   5.441  17.305  0.0301  0.3952 -1.0068
 7169TIP3    H142998   1.979   5.420  17.384 -0.0116 -0.0238 -1.0920
 7169TIP3    H242999   1.980   5.400  17.234 -0.6386 -0.3516 -1.0562
 7170TIP3   OH243000   0.007   1.698  14.378 -0.2558 -0.4783 -0.3642
 7170TIP3    H143001  -0.076   1.742  14.396  0.5800  0.8049  0.5288
 7170TIP3    H243002   0.033   1.661  14.462  0.3202 -0.4321 -0.5214
 7171TIP3   OH243003   5.619   5.967   4.858  0.5748  0.5173 -0.6362
 7171TIP3    H143004   5.535   5.985   4.814 -0.0159 -1.0278 -0.1792
 7171TIP3    H243005   5.632   5.873   4.848  1.6813  0.5496  0.3187
 7172TIP3   OH243006   2.330   3.118  11.974 -0.3516  0.1829  0.0369
 7172TIP3    H143007   2.298   3.167  11.898 -0.3180  0.5834  0.2797
 7172TIP3    H243008   2.420   3.094  11.950  0.2527  1.7648  0.6226
 7173TIP3   OH243009   5.971   5.042   1.791  0.0191 -0.5454 -0.1419
 7173TIP3    H143010   5.931   5.107   1.734 -0.7260 -1.2016 -0.3842
 7173TIP3    H243011   6.008   4.977   1.732 -0.8910 -1.3106  0.0933
 7174TIP3   OH243012   0.379   1.123  12.279 -0.0508 -0.6484 -0.0152
 7174TIP3    H143013   0.301   1.177  12.285 -0.5462 -1.4528  1.2147
 7174TIP3    H243014   0.434   1.167  12.215 -0.3359  1.4387  1.0867
 7175TIP3   OH243015   2.899   3.261  11.819 -0.4431 -0.3786  0.0562
 7175TIP3    H143016   2.953   3.182  11.828  1.8496  1.2665  2.0510
 7175TIP3    H243017   2.962   3.332  11.808 -2.3519  1.4169  0.1622
 7176TIP3   OH243018   1.843   2.874   2.287  0.2580  0.5022 -0.0863
 7176TIP3    H143019   1.812   2.902   2.201  0.5413  0.9196 -0.0603
 7176TIP3    H243020   1.889   2.792   2.271 -1.1782 -0.3283 -0.0656
 7177TIP3   OH243021   4.048   0.017   2.734 -0.1212 -0.2852  0.0656
 7177TIP3    H143022   4.115   0.081   2.758 -0.0429 -0.6140  0.7550
 7177TIP3    H243023   3.966   0.055   2.768  0.1384 -1.2720  1.9464
 7178TIP3   OH243024   1.415   3.578  11.321 -0.2919 -0.7974  0.2102
 7178TIP3    H143025   1.460   3.521  11.259  0.0143  0.6628 -0.9625
 7178TIP3    H243026   1.484   3.614  11.376 -0.1617  0.2659 -0.6104
 7179TIP3   OH243027   1.260   2.608  16.729 -0.3600 -0.4836  0.1246
 7179TIP3    H143028   1.331   2.651  16.682 -1.6216  1.5409 -0.0570
 7179TIP3    H243029   1.183   2.623  16.673 -1.1234 -1.7335  0.8022
 7180TIP3   OH243030   1.465   0.301  13.084 -0.0674  0.0395  0.8939
 7180TIP3    H143031   1.429   0.353  13.013 -1.4076 -0.2131  1.3644
 7180TIP3    H243032   1.394   0.243  13.111  0.9459 -1.0545  1.3229
 7181TIP3   OH243033   2.105   1.956  11.734  0.0413 -0.1055 -0.0162
 7181TIP3    H143034   2.054   1.996  11.663  1.3915  0.5071 -0.6778
 7181TIP3    H243035   2.184   1.924  11.691  1.8890  2.1246  1.4778
 7182TIP3   OH243036   3.522   5.417  17.465  0.1539 -0.2853 -0.4151
 7182TIP3    H143037   3.515   5.408  17.370  0.3057 -0.7082 -0.3871
 7182TIP3    H243038   3.546   5.330  17.496  1.6524  0.2026 -0.1263
 7183TIP3   OH243039   5.035   0.495  11.551  0.0605 -0.4738 -0.1105
 7183TIP3    H143040   4.958   0.486  11.607 -1.0143 -0.8424 -1.6191
 7183TIP3    H243041   5.002   0.531  11.469  1.7217  0.7994 -0.2802
 7184TIP3   OH243042   0.314   6.372   1.420  0.0362 -0.2384  0.2623
 7184TIP3    H143043   0.317   6.438   1.351 -0.6399  1.2407  1.5847
 7184TIP3    H243044   0.331   6.289   1.375  0.0260  0.7197 -1.5937
 7185TIP3   OH243045   3.797   6.609  15.233 -0.0146  0.3001  0.3440
 7185TIP3    H143046   3.754   6.525  15.246  1.2449 -0.2533  1.0730
 7185TIP3    H243047   3.747   6.651  15.163  0.6941 -2.0069 -1.6768
 7186TIP3   OH243048   5.234   0.535   5.088 -0.2607 -0.8915 -0.5088
 7186TIP3    H143049   5.199   0.598   5.151  1.8834  3.2895 -2.9971
 7186TIP3    H243050   5.303   0.489   5.135  1.7822  2.6094  0.2383
 7187TIP3   OH243051   1.419   6.202  16.122  0.2456  0.0183  0.8169
 7187TIP3    H143052   1.495   6.155  16.156  1.2618  1.5015  0.6406
 7187TIP3    H243053   1.430   6.201  16.027 -1.7174 -2.6281  0.4970
 7188TIP3   OH243054   4.237   1.198  12.640  0.1573  0.0841  0.0359
 7188TIP3    H143055   4.240   1.292  12.659  0.6196 -0.2385  1.7303
 7188TIP3    H243056   4.328   1.170  12.644  0.0665 -0.3753 -0.9175
 7189TIP3   OH243057   2.386   5.147   3.635 -0.0063 -0.3786 -0.6070
 7189TIP3    H143058   2.352   5.106   3.715 -0.5869 -1.2490 -1.2752
 7189TIP3    H243059   2.325   5.219   3.617 -1.9070 -2.2087 -2.0502
 7190TIP3   OH243060   6.611   2.316   1.872 -0.2829  0.4347 -0.4870
 7190TIP3    H143061   6.685   2.262   1.844  0.5745  0.6819  1.1904
 7190TIP3    H243062   6.646   2.405   1.876 -0.7710  0.6144 -0.0397
 7191TIP3   OH243063   4.652   2.857  12.154 -0.1694 -0.3907 -0.2189
 7191TIP3    H143064   4.573   2.911  12.155  0.8754  1.1898  0.5822
 7191TIP3    H243065   4.659   2.827  12.063 -0.7667  0.8712 -0.7077
 7192TIP3   OH243066   4.840   3.762  13.252  0.1872 -0.4741  0.0358
 7192TIP3    H143067   4.795   3.788  13.333 -0.1086 -0.9115  0.0166
 7192TIP3    H243068   4.920   3.720  13.283  0.0328 -0.7201  0.1105
 7193TIP3   OH243069   2.127   4.405   5.190  0.4451 -0.5956  0.9978
 7193TIP3    H143070   2.212   4.369   5.214  0.8355 -1.1994 -1.0701
 7193TIP3    H243071   2.070   4.329   5.184 -0.1206 -0.2535  1.7966
 7194TIP3   OH243072   0.252   3.108  11.846  0.1085 -0.0234  0.2650
 7194TIP3    H143073   0.323   3.120  11.910 -0.9405 -0.3063  1.5202
 7194TIP3    H243074   0.226   3.196  11.822 -1.6938  0.2582  2.8025
 7195TIP3   OH243075   4.229   3.056  10.871 -0.1559  0.7336  0.0630
 7195TIP3    H143076   4.192   2.968  10.863  1.9865 -0.0085 -3.9581
 7195TIP3    H243077   4.174   3.111  10.815 -0.3148  1.5804  1.0178
 7196TIP3   OH243078   0.929   0.850  11.690  0.3548 -0.3933 -0.1479
 7196TIP3    H143079   1.016   0.812  11.701  2.3906  3.2333 -1.8412
 7196TIP3    H243080   0.888   0.796  11.623  1.8715 -1.3540 -0.3632
 7197TIP3   OH243081   3.421   2.207  15.822 -0.4852  0.3032 -0.0983
 7197TIP3    H143082   3.330   2.203  15.792 -0.1723  0.1484 -1.0516
 7197TIP3    H243083   3.470   2.240  15.747  0.4512 -0.9061 -0.0519
 7198TIP3   OH243084   4.607   0.274  16.723  0.1338 -0.0905  0.0386
 7198TIP3    H143085   4.696   0.307  16.719  0.0785 -0.0501 -1.9310
 7198TIP3    H243086   4.580   0.286  16.814  1.5736  1.3545  0.3047
 7199TIP3   OH243087   2.909   0.545   2.459  0.0539  0.3096  0.4771
 7199TIP3    H143088   2.820   0.545   2.423  0.1013 -1.1956  0.3076
 7199TIP3    H243089   2.897   0.537   2.553  0.0024  1.3418  0.5737
 7200TIP3   OH243090   1.654   4.830   2.033 -0.3064 -0.1959 -0.9503
 7200TIP3    H143091   1.720   4.793   2.091 -1.0905 -0.2590 -0.0682
 7200TIP3    H243092   1.584   4.764   2.033 -0.3214 -0.1912 -1.9690
 7201TIP3   OH243093   5.713   6.032  15.897 -0.0129  0.0765 -0.0178
 7201TIP3    H143094   5.676   6.121  15.898 -1.8968 -0.6657  0.1006
 7201TIP3    H243095   5.662   5.986  15.830  1.6309 -0.6588 -0.8126
 7202TIP3   OH243096   4.957   1.334   4.926 -0.5099  0.2195 -0.2932
 7202TIP3    H143097   5.038   1.308   4.970 -0.2567 -0.2065 -0.9936
 7202TIP3    H243098   4.930   1.256   4.878 -1.5092  0.2627  0.1831
 7203TIP3   OH243099   0.955   5.725   6.525 -0.5427  0.0187  0.3537
 7203TIP3    H143100   0.984   5.651   6.472 -0.5873 -0.1653  0.5852
 7203TIP3    H243101   1.035   5.773   6.546  0.1358 -2.2618  3.7347
 7204TIP3   OH243102   4.664   2.557  15.749 -0.5843 -0.4085 -0.0599
 7204TIP3    H143103   4.574   2.527  15.742 -1.7932  3.0032 -0.8447
 7204TIP3    H243104   4.673   2.588  15.839 -0.6752  0.5171 -0.3582
 7205TIP3   OH243105   0.570   1.847   3.563 -0.2258 -0.0545 -0.1764
 7205TIP3    H143106   0.628   1.921   3.548  0.0523  0.0510  1.2626
 7205TIP3    H243107   0.529   1.865   3.648 -1.5115 -0.6839 -0.6398
 7206TIP3   OH243108   3.509   4.439  14.921  0.3961  0.0840 -0.1197
 7206TIP3    H143109   3.568   4.425  14.847  1.0037 -2.3507  0.7047
 7206TIP3    H243110   3.422   4.422  14.886  0.5731  0.0043 -0.5281
 7207TIP3   OH243111   2.415   1.159  12.255  0.0288  0.4511 -0.8212
 7207TIP3    H143112   2.490   1.217  12.268  1.6886 -1.8855  0.9176
 7207TIP3    H243113   2.453   1.077  12.221 -1.8365 -0.5231 -0.7049
 7208TIP3   OH243114   6.501   2.227  15.724 -0.0308 -0.4525 -0.1387
 7208TIP3    H143115   6.497   2.131  15.729  0.2878 -0.4774 -0.3347
 7208TIP3    H243116   6.430   2.257  15.781 -0.8176 -0.8231 -0.8829
 7209TIP3   OH243117   4.756   3.494   6.330  0.0610  0.4673 -0.2832
 7209TIP3    H143118   4.768   3.512   6.423 -0.5190 -2.1153  0.3435
 7209TIP3    H243119   4.662   3.481   6.320  0.0099  1.5066 -1.4349
 7210TIP3   OH243120   0.509   3.373   5.958  0.4152 -0.7820  0.1078
 7210TIP3    H143121   0.593   3.330   5.944  0.4511 -0.6834  0.0155
 7210TIP3    H243122   0.468   3.324   6.029  0.0251 -1.5933 -0.6684
 7211TIP3   OH243123   6.216   3.715   5.059  0.0093  0.1924 -0.0131
 7211TIP3    H143124   6.139   3.741   5.009  0.2308  0.4446 -0.2297
 7211TIP3    H243125   6.254   3.798   5.090  0.4837  0.1099 -0.3522
 7212TIP3   OH243126   3.562   2.214   0.380  0.4429  0.0584  0.4837
 7212TIP3    H143127   3.516   2.234   0.462  1.5059  0.8079  0.9225
 7212TIP3    H243128   3.608   2.132   0.398  1.1744  0.5404  0.8713
 7213TIP3   OH243129   5.950   0.688  13.501  0.5711  0.4439 -0.3342
 7213TIP3    H143130   5.973   0.719  13.589 -0.2200 -0.8103  0.3402
 7213TIP3    H243131   5.943   0.593  13.510 -1.6216  0.4594 -1.2154
 7214TIP3   OH243132   1.736   3.202  14.998 -0.2007 -0.1089 -0.2167
 7214TIP3    H143133   1.692   3.194  15.083  0.4460 -1.1262  0.0364
 7214TIP3    H243134   1.747   3.296  14.986 -1.9553  0.1606 -0.0428
 7215TIP3   OH243135   6.628   6.053   1.974  0.5128 -0.0763 -0.1060
 7215TIP3    H143136   6.559   6.058   2.041 -0.1576  0.6496 -0.8238
 7215TIP3    H243137   6.695   6.114   2.004 -1.1600  2.6825 -1.5627
 7216TIP3   OH243138   1.587   0.814  16.611  0.2625  0.2889 -1.1156
 7216TIP3    H143139   1.644   0.859  16.674  0.5610 -1.1915 -0.2683
 7216TIP3    H243140   1.500   0.819  16.651  0.2063  0.5516 -1.2714
 7217TIP3   OH243141   0.064   3.807   5.196  0.3512  0.0730  0.2669
 7217TIP3    H143142   0.084   3.898   5.215  1.1117  0.1622 -0.8614
 7217TIP3    H243143   0.051   3.767   5.282  3.5972  0.4218  1.0675
 7218TIP3   OH243144   5.381   4.708   4.316 -0.6353  0.5698  0.4132
 7218TIP3    H143145   5.464   4.753   4.332  0.3131 -0.5630 -1.0094
 7218TIP3    H243146   5.372   4.646   4.388 -0.0803  0.5001  0.4255
 7219TIP3   OH243147   5.055   1.479  11.858  0.0143  0.4949  0.6198
 7219TIP3    H143148   5.112   1.515  11.790 -0.8421  0.8278  0.0661
 7219TIP3    H243149   5.042   1.387  11.833  0.1610  0.4636  0.6554
 7220TIP3   OH243150   3.747   2.275   0.095 -0.3395 -0.3755 -0.2066
 7220TIP3    H143151   3.742   2.252   0.003 -0.3526  0.9705 -0.5624
 7220TIP3    H243152   3.667   2.326   0.111 -1.1144 -1.8501  0.9488
 7221TIP3   OH243153   2.773   3.596   5.660 -0.2849  0.4171  0.4287
 7221TIP3    H143154   2.682   3.571   5.646  0.3389 -1.5442 -0.4594
 7221TIP3    H243155   2.803   3.543   5.734  1.0040 -1.4875 -1.3479
 7222TIP3   OH243156   6.410   1.991  12.619  0.1929  0.2355  0.4007
 7222TIP3    H143157   6.339   2.053  12.635 -1.0822 -1.5626  2.2209
 7222TIP3    H243158   6.423   1.947  12.703  0.7475 -2.2050 -0.8738
 7223TIP3   OH243159   3.556   6.337   4.430 -0.0577  0.2220  0.2010
 7223TIP3    H143160   3.632   6.286   4.457 -0.5377 -0.2830  0.6400
 7223TIP3    H243161   3.494   6.327   4.503  0.4342  2.7316  1.0410
 7224TIP3   OH243162   0.165   3.029  12.995  0.2203 -0.2431  0.1808
 7224TIP3    H143163   0.194   3.011  13.084 -0.5945 -0.3124  0.4375
 7224TIP3    H243164   0.168   3.124  12.987  2.3015 -0.3161 -0.4181
 7225TIP3   OH243165   3.006   4.896  15.934 -0.3434  0.0405  0.5776
 7225TIP3    H143166   3.003   4.971  15.875  2.4186  1.0203  1.5559
 7225TIP3    H243167   3.065   4.834  15.892  1.0495  0.4271  1.9062
 7226TIP3   OH243168   2.955   2.141  11.920  0.1515  0.2434 -0.2799
 7226TIP3    H143169   2.873   2.098  11.945  1.8838 -2.5134  1.1386
 7226TIP3    H243170   3.004   2.074  11.873  2.1730  1.3121  0.1848
 7227TIP3   OH243171   2.216   5.813  11.802  0.3363  0.1184  0.1098
 7227TIP3    H143172   2.128   5.777  11.809 -0.3249  1.4189 -1.0764
 7227TIP3    H243173   2.241   5.830  11.893 -0.8655  0.2739  0.4328
 7228TIP3   OH243174   2.781   4.810  13.746 -0.5202 -0.2177 -0.5758
 7228TIP3    H143175   2.864   4.764  13.732 -0.4604 -0.0455 -0.7920
 7228TIP3    H243176   2.720   4.767  13.686 -0.2480  0.5623 -1.4420
 7229TIP3   OH243177   3.998   2.353  12.100 -0.0265  0.1476 -0.2279
 7229TIP3    H143178   4.050   2.338  12.180 -0.0513 -1.6459 -0.5207
 7229TIP3    H243179   3.923   2.295  12.109  0.3771 -0.6795 -1.9102
 7230TIP3   OH243180   1.081   5.317  12.399  0.0348  0.0913  0.1368
 7230TIP3    H143181   1.159   5.292  12.449 -0.9102 -0.8732  1.1959
 7230TIP3    H243182   1.051   5.236  12.359 -0.1978  0.5302 -0.5921
 7231TIP3   OH243183   1.220   0.783  15.667  0.1312 -0.2538  0.2821
 7231TIP3    H143184   1.146   0.724  15.682 -0.7555  0.5709 -0.7049
 7231TIP3    H243185   1.181   0.871  15.666  1.0181  0.1568 -0.8500
 7232TIP3   OH243186   6.660   6.032  15.138 -0.1941  0.5951 -0.6226
 7232TIP3    H143187   6.693   6.000  15.054 -0.9928 -0.4701 -0.5626
 7232TIP3    H243188   6.732   6.082  15.175  0.5459  0.1792 -1.4622
 7233TIP3   OH243189   0.375   2.854   7.014  0.4029  0.0722  0.4589
 7233TIP3    H143190   0.322   2.829   6.939  0.8655  1.9382 -0.5462
 7233TIP3    H243191   0.347   2.943   7.036  2.7687  0.9730  0.1362
 7234TIP3   OH243192   1.563   5.819   0.268  0.3591 -0.5792 -0.3609
 7234TIP3    H143193   1.569   5.898   0.320  1.7321 -0.7608 -0.2177
 7234TIP3    H243194   1.579   5.848   0.178  2.8374 -0.9049 -0.1038
 7235TIP3   OH243195   5.958   2.432   5.467  0.2287  0.0120 -0.5683
 7235TIP3    H143196   6.002   2.354   5.499 -0.3523 -0.4905 -0.9837
 7235TIP3    H243197   5.957   2.423   5.371  0.3850  0.6448 -0.6359
 7236TIP3   OH243198   6.605   3.594  13.797 -0.2543  0.0270 -0.0539
 7236TIP3    H143199   6.587   3.558  13.883 -0.8435  1.5043  0.4707
 7236TIP3    H243200   6.643   3.521  13.748 -0.2565 -0.9372  1.3249
 7237TIP3   OH243201   5.016   2.251  16.628 -0.3746  0.3379  0.4517
 7237TIP3    H143202   4.941   2.254  16.569 -0.5519  0.5821  0.6843
 7237TIP3    H243203   5.064   2.172  16.603 -0.1071  0.7730 -0.4311
 7238TIP3   OH243204   1.018   3.358   0.833  0.3091 -0.6406 -0.0469
 7238TIP3    H143205   1.091   3.313   0.874 -0.3062 -1.2036  0.4598
 7238TIP3    H243206   0.977   3.292   0.777  0.5147 -0.1740 -0.7697
 7239TIP3   OH243207   4.137   1.508  17.328  0.2343  0.1300 -0.2926
 7239TIP3    H143208   4.114   1.545  17.243 -0.8314  0.6864  0.2155
 7239TIP3    H243209   4.125   1.580  17.390  2.2131  0.0856  0.1911
 7240TIP3   OH243210   4.867   4.685  15.080 -0.3410 -0.4384 -0.4890
 7240TIP3    H143211   4.914   4.761  15.114  1.7469 -1.3083 -1.2817
 7240TIP3    H243212   4.790   4.722  15.036  0.5474  1.2098 -0.7398
 7241TIP3   OH243213   5.714   4.074  16.973 -0.2338 -0.3877  0.4568
 7241TIP3    H143214   5.738   4.165  16.959  1.0667 -0.8581 -0.6102
 7241TIP3    H243215   5.626   4.067  16.937 -0.7986  0.6666  1.5480
 7242TIP3   OH243216   1.732   6.721   1.158  0.2786 -0.2898 -0.2361
 7242TIP3    H143217   1.753   6.750   1.069  0.0256 -0.5998 -0.4019
 7242TIP3    H243218   1.772   6.635   1.165 -0.3297 -0.5864 -0.3139
 7243TIP3   OH243219   3.308   0.404  13.675  0.8784 -0.6041 -0.3894
 7243TIP3    H143220   3.278   0.351  13.601  0.0003 -0.4740 -0.1418
 7243TIP3    H243221   3.248   0.382  13.746 -0.5474  1.8100 -0.7082
 7244TIP3   OH243222   0.647   6.047   5.957 -0.1273  0.5617  0.3359
 7244TIP3    H143223   0.700   6.117   5.918  1.0953 -0.7544 -0.4617
 7244TIP3    H243224   0.712   5.982   5.985 -1.3366 -1.5727 -1.5566
 7245TIP3   OH243225   3.885   0.553   3.053  0.1858 -0.1200 -0.1959
 7245TIP3    H143226   3.898   0.458   3.043 -0.0367 -0.2698  0.7912
 7245TIP3    H243227   3.800   0.570   3.013  0.1795 -0.3568 -0.2888
 7246TIP3   OH243228   0.397   4.843  14.851  0.4300 -0.7769  0.0994
 7246TIP3    H143229   0.389   4.829  14.945 -1.0035 -0.1351  0.1014
 7246TIP3    H243230   0.323   4.796  14.813 -0.7371  1.3242 -0.4147
 7247TIP3   OH243231   3.830   6.240   1.088  0.4251 -0.0865 -0.3366
 7247TIP3    H143232   3.917   6.203   1.104  0.0826 -0.5261  0.6061
 7247TIP3    H243233   3.823   6.313   1.149  0.9632  1.3548 -1.9504
 7248TIP3   OH243234   5.786   6.608   4.616  0.3834  0.5477  0.5665
 7248TIP3    H143235   5.761   6.692   4.578 -1.1282  0.5493  1.4736
 7248TIP3    H243236   5.743   6.543   4.561  1.9001  0.3181 -0.3914
 7249TIP3   OH243237   2.028   6.063  13.870  0.7096  0.0309 -0.3908
 7249TIP3    H143238   2.009   5.998  13.937 -1.3661  1.3960  0.4565
 7249TIP3    H243239   2.065   6.013  13.797  0.9860 -1.7873  0.9285
 7250TIP3   OH243240   3.180   5.585   6.406  0.2264 -0.1633  0.2256
 7250TIP3    H143241   3.174   5.504   6.355  0.5361 -0.8894  1.2989
 7250TIP3    H243242   3.157   5.559   6.495 -0.8481  1.1880  0.3804
 7251TIP3   OH243243   3.394   1.208   6.177  0.3393 -0.2697 -0.1438
 7251TIP3    H143244   3.299   1.197   6.170  0.2556  0.5518 -0.3610
 7251TIP3    H243245   3.408   1.303   6.174  1.0689 -0.3071  1.0976
 7252TIP3   OH243246   4.256   4.401   1.295  0.1097  0.2069 -0.0994
 7252TIP3    H143247   4.334   4.364   1.255  0.2916  1.5605 -1.0889
 7252TIP3    H243248   4.271   4.395   1.389 -0.0067 -2.4139 -0.1738
 7253TIP3   OH243249   0.888   5.416  14.784 -0.2629  0.1063 -0.0661
 7253TIP3    H143250   0.829   5.490  14.771  1.3302  1.3865 -0.2847
 7253TIP3    H243251   0.956   5.427  14.717  0.3371 -1.2153  0.2919
 7254TIP3   OH243252   4.020   4.940   4.628 -0.1509 -0.4215 -0.5783
 7254TIP3    H143253   4.092   4.948   4.691 -1.0597 -0.4377  0.4975
 7254TIP3    H243254   4.043   5.001   4.558 -0.0097  1.0139  0.6650
 7255TIP3   OH243255   4.087   0.823  14.225  0.3590 -0.7539 -0.0827
 7255TIP3    H143256   4.043   0.768  14.290 -2.5110  0.5139 -0.8449
 7255TIP3    H243257   4.067   0.913  14.251  2.3914 -0.0992 -0.6108
 7256TIP3   OH243258   5.690   6.228  16.365 -0.1182  0.2263 -0.1237
 7256TIP3    H143259   5.731   6.312  16.388 -0.6268  1.5256 -3.3674
 7256TIP3    H243260   5.626   6.212  16.434 -0.1388  2.6356  0.4905
 7257TIP3   OH243261   1.625   5.383  14.070 -0.3276  0.4179  0.7831
 7257TIP3    H143262   1.655   5.327  13.999  0.8209 -0.5695  1.9972
 7257TIP3    H243263   1.664   5.345  14.149 -1.7567  1.3304  1.9849
 7258TIP3   OH243264   1.485   4.869   0.721 -0.4542  0.0307 -0.3940
 7258TIP3    H143265   1.405   4.838   0.677  0.6054 -2.0203 -0.9849
 7258TIP3    H243266   1.476   4.838   0.811  0.8624 -2.7490 -1.1160
 7259TIP3   OH243267   2.708   2.800  12.676  0.0529 -0.6806 -0.2876
 7259TIP3    H143268   2.748   2.851  12.606  0.2533  0.5294  0.6771
 7259TIP3    H243269   2.629   2.849  12.700  1.4269  0.5387  2.2092
 7260TIP3   OH243270   0.134   4.283   0.162 -0.2526  0.1566 -0.1320
 7260TIP3    H143271   0.131   4.264   0.069  0.1471  1.0897 -0.3422
 7260TIP3    H243272   0.228   4.291   0.182 -0.3764  1.8048 -0.0580
 7261TIP3   OH243273   1.556   2.932  12.823 -0.1950 -0.7642 -0.3489
 7261TIP3    H143274   1.492   2.880  12.872  1.7831 -1.6254  1.5134
 7261TIP3    H243275   1.559   3.016  12.870  1.0514 -1.2663  0.5347
 7262TIP3   OH243276   0.600   3.496  15.207  0.8882 -0.4577  0.7908
 7262TIP3    H143277   0.613   3.536  15.121  1.6814  1.6100  1.7886
 7262TIP3    H243278   0.533   3.430  15.193  0.2231  0.5505 -1.1994
 7263TIP3   OH243279   3.093   3.677  15.714  0.2398  0.5046 -0.0682
 7263TIP3    H143280   3.153   3.737  15.669 -0.2423  0.6437 -0.5268
 7263TIP3    H243281   3.030   3.651  15.648  0.7595 -0.9741 -0.0258
 7264TIP3   OH243282   3.947   6.266   6.200  0.1739 -0.5768  0.0792
 7264TIP3    H143283   3.913   6.333   6.259  1.2618  1.3879 -1.4388
 7264TIP3    H243284   4.024   6.232   6.245  0.8074  0.6691 -0.0299
 7265TIP3   OH243285   3.076   1.568   5.454  0.0729  0.7533  0.1935
 7265TIP3    H143286   3.117   1.522   5.528 -1.0891 -2.4978 -1.0149
 7265TIP3    H243287   3.143   1.567   5.385 -1.0976 -2.8449 -1.1268
 7266TIP3   OH243288   5.415   2.842  12.206  0.5378  0.0089  0.4187
 7266TIP3    H143289   5.490   2.800  12.165  1.3154  2.4301 -0.8410
 7266TIP3    H243290   5.339   2.799  12.167  1.2799 -0.4949 -0.5169
 7267TIP3   OH243291   3.412   3.914   1.997  0.3364 -0.1361  0.0010
 7267TIP3    H143292   3.473   3.981   1.966  1.1752 -0.9967 -0.2233
 7267TIP3    H243293   3.426   3.839   1.939  0.1664 -0.8945  0.9178
 7268TIP3   OH243294   4.650   4.594  15.351  0.4896  0.0242  0.4536
 7268TIP3    H143295   4.721   4.639  15.305  0.6307 -0.2247  0.4258
 7268TIP3    H243296   4.692   4.518  15.391  0.9261  1.6241  3.2554
 7269TIP3   OH243297   3.476   5.802   0.086 -0.2242  0.3430  0.2988
 7269TIP3    H143298   3.419   5.812   0.162  0.4345 -2.0497  1.2349
 7269TIP3    H243299   3.426   5.747   0.025 -0.0083  0.6303 -0.1443
 7270TIP3   OH243300   5.389   2.871   4.812  0.2284 -0.0630 -0.2778
 7270TIP3    H143301   5.474   2.910   4.789 -0.1223  1.7856  1.2776
 7270TIP3    H243302   5.398   2.848   4.905  0.1458 -3.1376 -0.9377
 7271TIP3   OH243303   4.202   3.274  12.586 -0.3291  0.3246  0.2340
 7271TIP3    H143304   4.248   3.300  12.666 -0.8887 -1.8683  1.3504
 7271TIP3    H243305   4.214   3.179  12.582 -0.2358  0.3765 -2.3777
 7272TIP3   OH243306   4.902   2.885   1.114 -0.1903  0.4923  0.0633
 7272TIP3    H143307   4.988   2.922   1.133 -0.7559  1.8268  0.1474
 7272TIP3    H243308   4.854   2.893   1.196 -0.4499 -0.0661 -0.0345
 7273TIP3   OH243309   1.857   2.257  14.340 -0.0915 -0.0988  0.0343
 7273TIP3    H143310   1.857   2.269  14.245  1.8130  0.4449  0.0729
 7273TIP3    H243311   1.838   2.164  14.352  0.9200 -0.4468 -0.9464
 7274TIP3   OH243312   1.034   0.507  17.305 -0.2528 -0.7058 -0.0687
 7274TIP3    H143313   1.075   0.537  17.385  1.0813  0.3830 -1.1045
 7274TIP3    H243314   0.942   0.531  17.315 -0.0217 -0.1868  0.9400
 7275TIP3   OH243315   2.775   0.982  11.837  0.5319  0.6233  0.4196
 7275TIP3    H143316   2.695   0.948  11.797 -1.5140  1.0774  3.7888
 7275TIP3    H243317   2.794   1.062  11.789 -1.5094  0.9267  0.0374
 7276TIP3   OH243318   6.114   5.227   3.493  0.1310 -0.3710  0.5330
 7276TIP3    H143319   6.207   5.239   3.474  0.1254  0.9293  1.1997
 7276TIP3    H243320   6.071   5.304   3.456 -0.6367 -0.7830  0.5366
 7277TIP3   OH243321   2.798   2.445  14.530 -0.2253 -0.1300 -0.0836
 7277TIP3    H143322   2.737   2.497  14.582  0.1616  0.2802 -0.0319
 7277TIP3    H243323   2.768   2.457  14.440  0.9432  1.7136 -0.2855
 7278TIP3   OH243324   3.633   6.309   3.224  0.6466  0.4008 -0.3669
 7278TIP3    H143325   3.634   6.213   3.224 -1.3034  0.3450 -1.0772
 7278TIP3    H243326   3.719   6.333   3.189  1.0900 -1.0911 -0.3815
 7279TIP3   OH243327   0.757   6.426  11.824 -0.3142 -0.4905  0.4568
 7279TIP3    H143328   0.701   6.376  11.883 -0.2103  0.9736  1.8956
 7279TIP3    H243329   0.696   6.465  11.760 -0.8127  0.0940  1.2631
 7280TIP3   OH243330   5.184   1.451   5.540  0.3808 -0.3475  0.4248
 7280TIP3    H143331   5.096   1.438   5.576  0.4378 -0.6960  0.4432
 7280TIP3    H243332   5.218   1.362   5.528  1.4412 -0.2056  2.1483
 7281TIP3   OH243333   5.192   4.565  11.973 -0.4299  0.1523 -0.6921
 7281TIP3    H143334   5.244   4.623  11.918  1.3553  0.5347  1.2623
 7281TIP3    H243335   5.112   4.616  11.992 -0.4361  0.5593 -1.7578
 7282TIP3   OH243336   1.545   5.518   1.103 -0.7950  0.2347 -0.5241
 7282TIP3    H143337   1.490   5.585   1.063 -0.5660  1.2017  0.7066
 7282TIP3    H243338   1.630   5.528   1.060 -1.3429 -0.7528 -1.8838
 7283TIP3   OH243339   6.625   1.492  12.955 -0.0467  0.2377 -0.2680
 7283TIP3    H143340   6.613   1.497  12.860 -1.3758 -2.2420 -0.3115
 7283TIP3    H243341   6.718   1.476  12.967 -0.0001 -0.2661 -1.2313
 7284TIP3   OH243342   4.390   3.196   0.575  0.5069  0.4184  0.0923
 7284TIP3    H143343   4.409   3.278   0.621 -1.3830  2.1320 -1.9316
 7284TIP3    H243344   4.295   3.184   0.585  0.7451 -1.6051  0.3857
 7285TIP3   OH243345   1.680   2.880   0.993 -0.3029 -0.0264  0.0912
 7285TIP3    H143346   1.764   2.843   0.966 -0.0712  0.0587  0.6765
 7285TIP3    H243347   1.693   2.975   0.989 -0.8953  0.0222 -1.4049
 7286TIP3   OH243348   4.556   1.575  12.075 -0.2968  0.2832 -0.1063
 7286TIP3    H143349   4.583   1.536  11.992 -2.2266 -1.6780  0.0693
 7286TIP3    H243350   4.470   1.613  12.056  0.7111  2.9295  0.2245
 7287TIP3   OH243351   1.571   1.343   0.629 -0.4632 -0.8523  0.8080
 7287TIP3    H143352   1.497   1.390   0.591 -0.3999 -0.7546  0.8057
 7287TIP3    H243353   1.642   1.407   0.629 -0.7373 -0.5199  2.0374
 7288TIP3   OH243354   3.873   4.296  12.793 -0.4359  0.3979 -0.5716
 7288TIP3    H143355   3.839   4.383  12.815 -0.8259  0.5042 -1.5100
 7288TIP3    H243356   3.936   4.276  12.861 -0.3585  1.4140 -0.3337
 7289TIP3   OH243357   5.965   0.240  12.737  0.4129  0.9615  0.4064
 7289TIP3    H143358   5.898   0.268  12.800 -1.6004 -1.1874 -0.5915
 7289TIP3    H243359   5.931   0.269  12.652 -1.1603 -2.9417 -0.5318
 7290TIP3   OH243360   2.255   6.181  13.152 -0.1064 -0.5501  0.2421
 7290TIP3    H143361   2.256   6.186  13.247 -1.9821 -0.4011  0.2770
 7290TIP3    H243362   2.321   6.246  13.124  0.4523 -0.5959  1.4138
 7291TIP3   OH243363   0.380   2.198  16.944  0.5467 -0.3910  0.2046
 7291TIP3    H143364   0.373   2.203  16.848 -0.9813 -0.9478  0.2605
 7291TIP3    H243365   0.471   2.219  16.962  1.1578 -1.3947 -1.4576
 7292TIP3   OH243366   6.410   3.044  14.146 -0.8800 -0.4772 -0.5645
 7292TIP3    H143367   6.458   3.053  14.229 -1.3412  0.6935 -0.4040
 7292TIP3    H243368   6.343   2.978  14.164 -0.1278 -1.2350 -0.4285
 7293TIP3   OH243369   3.444   1.856   3.733  0.0978  0.4567  0.8375
 7293TIP3    H143370   3.440   1.816   3.646  1.1748  1.5270  0.2596
 7293TIP3    H243371   3.359   1.899   3.744  0.4606  1.5574 -0.3488
 7294TIP3   OH243372   5.136   2.978   5.386  0.1844  0.4761 -0.6323
 7294TIP3    H143373   5.216   2.958   5.434  0.2897  2.4099  0.0659
 7294TIP3    H243374   5.165   3.003   5.299  0.5517  2.6806  0.0558
 7295TIP3   OH243375   4.770   5.154  12.782 -0.4787  0.4170  0.0430
 7295TIP3    H143376   4.745   5.230  12.834  2.0957  0.4547  1.3721
 7295TIP3    H243377   4.709   5.085  12.810 -0.8356  1.1610  1.1592
 7296TIP3   OH243378   4.469   1.017   6.098  0.1801 -0.3384 -0.1061
 7296TIP3    H143379   4.472   1.033   6.193 -0.4245 -0.4667 -0.0670
 7296TIP3    H243380   4.380   1.040   6.072 -0.3281 -2.3270 -0.2811
 7297TIP3   OH243381   1.153   5.550   4.422 -0.4393  0.1475 -0.0336
 7297TIP3    H143382   1.084   5.577   4.483  0.3757  1.0824  0.4928
 7297TIP3    H243383   1.234   5.578   4.464  0.2167 -0.3611 -0.9514
 7298TIP3   OH243384   2.417   2.217   5.697 -0.1902 -0.0896  0.0243
 7298TIP3    H143385   2.483   2.217   5.766  0.1216 -0.0027 -0.2666
 7298TIP3    H243386   2.396   2.125   5.683  3.0460 -0.6157 -2.8247
 7299TIP3   OH243387   0.571   6.064  16.526  0.8572  0.1706 -0.2787
 7299TIP3    H143388   0.548   5.981  16.486  2.3542 -0.4957  0.1629
 7299TIP3    H243389   0.581   6.125  16.453 -1.9273  0.4743 -0.5148
 7300TIP3   OH243390   5.714   5.003  11.368  0.2814 -1.0858  0.4024
 7300TIP3    H143391   5.649   4.934  11.350  0.5328 -0.8717 -1.4708
 7300TIP3    H243392   5.789   4.980  11.314  0.3997  0.6276 -0.2173
 7301TIP3   OH243393   3.676   0.462   6.218  0.0792  0.3661 -0.4097
 7301TIP3    H143394   3.755   0.505   6.185  0.8174 -0.5495  0.0909
 7301TIP3    H243395   3.649   0.515   6.293 -0.7062  1.5709 -1.5174
 7302TIP3   OH243396   2.206   0.364  13.528  0.4715  0.1182 -0.1990
 7302TIP3    H143397   2.161   0.294  13.577 -0.0375  0.8511  0.4136
 7302TIP3    H243398   2.239   0.321  13.450  1.7769 -1.2307  1.0304
 7303TIP3   OH243399   5.511   2.708  13.507  0.1929  0.3698  0.3847
 7303TIP3    H143400   5.510   2.799  13.536 -1.3501  0.7431 -0.6936
 7303TIP3    H243401   5.588   2.670  13.549 -0.2086  1.6498  2.4276
 7304TIP3   OH243402   5.837   2.183   5.959  0.0792  0.5061  0.2539
 7304TIP3    H143403   5.763   2.127   5.985  0.1730 -0.2137 -0.9611
 7304TIP3    H243404   5.871   2.217   6.042 -1.1599  0.2750  0.8867
 7305TIP3   OH243405   4.280   5.276   2.411 -0.3939  0.2493  0.0124
 7305TIP3    H143406   4.294   5.280   2.317  1.7876  0.7443  0.2904
 7305TIP3    H243407   4.363   5.245   2.446 -0.4013  2.1363  1.9081
 7306TIP3   OH243408   1.204   3.883   0.849 -0.5877  0.3171 -0.1140
 7306TIP3    H143409   1.221   3.907   0.758  0.2159 -1.1257 -0.3638
 7306TIP3    H243410   1.203   3.787   0.849 -0.7926  0.3005  1.3589
 7307TIP3   OH243411   4.355   6.198   5.427 -0.0067  0.0313  0.5300
 7307TIP3    H143412   4.402   6.244   5.496  0.3006  1.2342 -0.4653
 7307TIP3    H243413   4.403   6.116   5.416  0.7353  0.4182  0.8201
 7308TIP3   OH243414   5.257   0.116  12.477 -0.1571  0.0201 -0.2049
 7308TIP3    H143415   5.352   0.125  12.464  0.0164 -0.8427  0.3744
 7308TIP3    H243416   5.245   0.025  12.506 -1.0256  0.4579  0.8868
 7309TIP3   OH243417   6.606   1.663   2.639  0.1536  0.1269 -0.0546
 7309TIP3    H143418   6.570   1.750   2.619  0.1364  0.2278  0.4113
 7309TIP3    H243419   6.699   1.678   2.652  0.8471 -0.4459 -3.3624
 7310TIP3   OH243420   0.491   5.959   1.955  0.2669  1.0966  0.0920
 7310TIP3    H143421   0.545   6.033   1.983  1.9007  0.0229 -0.0822
 7310TIP3    H243422   0.513   5.889   2.015  0.9382 -0.0973 -1.4822
 7311TIP3   OH243423   2.199   0.117   5.316  0.6741  0.2164 -0.1655
 7311TIP3    H143424   2.263   0.051   5.289  1.1501  0.3019  0.7097
 7311TIP3    H243425   2.180   0.166   5.236  0.8278 -0.5432 -0.6797
 7312TIP3   OH243426   2.899   5.792   0.889 -0.2424 -0.0401 -0.2746
 7312TIP3    H143427   2.961   5.839   0.834  0.1434 -0.3293 -0.0970
 7312TIP3    H243428   2.817   5.841   0.882  0.3244  1.0471  0.4460
 7313TIP3   OH243429   0.886   6.647   1.253 -0.4478  0.4652 -0.3151
 7313TIP3    H143430   0.847   6.684   1.332 -0.1021 -0.4804  0.3143
 7313TIP3    H243431   0.972   6.688   1.247 -0.1752 -0.0167  0.2266
 7314TIP3   OH243432   4.801   0.418   5.051 -0.2810 -0.9474 -0.3391
 7314TIP3    H143433   4.892   0.405   5.081 -0.4106  0.0530  0.5478
 7314TIP3    H243434   4.748   0.377   5.119 -0.5286 -0.3274 -0.1536
 7315TIP3   OH243435   3.527   2.124  14.197  0.1207 -0.3331 -0.5188
 7315TIP3    H143436   3.464   2.058  14.226  0.3670 -0.3395  0.0180
 7315TIP3    H243437   3.494   2.154  14.113 -1.0214  0.2286  0.1105
 7316TIP3   OH243438   2.225   3.830   5.057 -0.1254 -0.1026 -0.5280
 7316TIP3    H143439   2.255   3.833   4.966 -2.3911 -0.6877 -1.3661
 7316TIP3    H243440   2.143   3.879   5.057 -1.4771 -2.2014  0.6059
 7317TIP3   OH243441   5.881   2.445  11.690 -0.0313 -0.3595  0.2031
 7317TIP3    H143442   5.958   2.400  11.726  0.5873  0.7864  0.3552
 7317TIP3    H243443   5.845   2.493  11.765  0.9327  1.5848 -0.4934
 7318TIP3   OH243444   2.898   2.185   4.611 -0.2227  0.3626  0.5945
 7318TIP3    H143445   2.846   2.147   4.540  2.5399 -0.0286 -1.3637
 7318TIP3    H243446   2.902   2.115   4.677  0.7735 -0.9841 -0.8313
 7319TIP3   OH243447   0.156   4.975   0.535  0.0379  0.3697  0.1236
 7319TIP3    H143448   0.230   4.962   0.476  0.2548  0.2183  0.4234
 7319TIP3    H243449   0.197   4.989   0.621 -0.2104  2.2270 -0.0292
 7320TIP3   OH243450   3.416   4.048  16.589  0.0370 -0.1295  0.3691
 7320TIP3    H143451   3.496   4.003  16.562  0.8997  1.5522 -0.0214
 7320TIP3    H243452   3.438   4.141  16.586 -1.3331  0.3305  2.1605
 7321TIP3   OH243453   6.036   1.008  12.212  0.1727  0.0620  0.0155
 7321TIP3    H143454   6.096   0.971  12.277  0.4289  0.1595 -0.1685
 7321TIP3    H243455   6.077   1.090  12.185  0.0467  0.0384 -0.2456
 7322TIP3   OH243456   4.614   3.099   0.984 -0.1092 -0.2995 -0.0459
 7322TIP3    H143457   4.611   3.120   1.078  1.2541  1.2250 -0.2944
 7322TIP3    H243458   4.647   3.179   0.943 -0.1319 -1.1382 -1.7758
 7323TIP3   OH243459   2.293   0.041  16.721  0.0066 -0.2312  0.2088
 7323TIP3    H143460   2.266   0.128  16.752 -1.0606  0.1589 -1.6680
 7323TIP3    H243461   2.222   0.013  16.664  0.2284 -2.4844  0.9503
 7324TIP3   OH243462   6.025   6.037  11.281 -0.4660 -0.1122  0.7335
 7324TIP3    H143463   6.023   5.957  11.334 -1.0351  0.4588  1.5955
 7324TIP3    H243464   5.941   6.080  11.298 -1.2116 -0.4866 -1.5555
 7325TIP3   OH243465   3.326   4.673   2.298 -0.1427 -0.0391 -0.3352
 7325TIP3    H143466   3.231   4.686   2.301  0.0695  3.1043 -2.4237
 7325TIP3    H243467   3.342   4.633   2.213  0.4249 -0.9164  0.1674
 7326TIP3   OH243468   4.440   4.303  12.917  0.1771 -0.4385  0.1752
 7326TIP3    H143469   4.392   4.307  12.999  0.7563 -1.8169  0.6072
 7326TIP3    H243470   4.522   4.260  12.939  1.5930  1.7033 -0.5768
 7327TIP3   OH243471   0.210   2.120   0.609  0.4200 -0.6946 -0.0384
 7327TIP3    H143472   0.202   2.215   0.596 -0.3370 -0.9329 -1.5307
 7327TIP3    H243473   0.122   2.092   0.635  1.0628 -0.7702  2.2818
 7328TIP3   OH243474   6.170   5.947   4.926  0.0548 -0.4975  0.4972
 7328TIP3    H143475   6.152   5.870   4.979  1.4122 -0.8203  0.5353
 7328TIP3    H243476   6.250   5.924   4.878  1.6273  1.5879  1.9602
 7329TIP3   OH243477   1.260   0.943   5.295  0.5557  0.5119 -0.0085
 7329TIP3    H143478   1.353   0.927   5.277  0.4842 -0.0263  0.1066
 7329TIP3    H243479   1.243   0.898   5.377  0.1589  0.5116 -0.0893
 7330TIP3   OH243480   5.837   6.425   4.147  0.0740  0.1548  0.4214
 7330TIP3    H143481   5.925   6.396   4.171 -0.3552 -1.6849 -0.1521
 7330TIP3    H243482   5.805   6.360   4.085 -2.1068  0.2005  1.4047
 7331TIP3   OH243483   3.543   1.535  14.075  0.3797 -0.3604 -0.0373
 7331TIP3    H143484   3.502   1.453  14.050 -1.4170  0.3815  0.3179
 7331TIP3    H243485   3.545   1.533  14.170 -1.0557  0.5996  0.0453
 7332TIP3   OH243486   0.729   1.167   4.134  0.4454  0.5519 -0.2417
 7332TIP3    H143487   0.776   1.248   4.114 -0.3406  1.1658  0.3559
 7332TIP3    H243488   0.776   1.129   4.208  1.7831 -0.3945 -1.4998
 7333TIP3   OH243489   3.103   2.900  12.178 -0.0097  0.2866 -0.3418
 7333TIP3    H143490   3.076   2.818  12.220  2.2609  0.2422  1.2148
 7333TIP3    H243491   3.165   2.872  12.110  0.9691  0.6695  0.3635
 7334TIP3   OH243492   4.832   3.224   5.356 -0.1797 -0.0890  0.1135
 7334TIP3    H143493   4.805   3.158   5.420 -0.3838  0.7322  0.8975
 7334TIP3    H243494   4.924   3.241   5.377  0.3571 -1.2652 -1.1255
 7335TIP3   OH243495   1.770   4.507  12.782  0.3267  0.4057  0.2921
 7335TIP3    H143496   1.742   4.595  12.759  0.9644  0.5410  0.0006
 7335TIP3    H243497   1.863   4.516  12.802  0.2018 -0.0508  1.1109
 7336TIP3   OH243498   5.728   0.302  14.425 -0.0774 -0.3973  0.1937
 7336TIP3    H143499   5.676   0.363  14.372 -1.9781 -0.9296  1.3926
 7336TIP3    H243500   5.669   0.229  14.443  1.6816 -1.9086  0.0703
 7337TIP3   OH243501   1.959   4.213  13.214  0.1094 -0.1009  0.1062
 7337TIP3    H143502   1.868   4.237  13.194 -1.1874 -4.2792  0.0364
 7337TIP3    H243503   1.996   4.188  13.129  1.6637  2.1724  0.0308
 7338TIP3   OH243504   1.215   4.407   0.014  0.1731  0.0708  0.2535
 7338TIP3    H143505   1.129   4.380   0.044 -0.0212  1.0636  0.6135
 7338TIP3    H243506   1.264   4.427   0.094  1.0704 -1.3937  0.1137
 7339TIP3   OH243507   5.130   3.599   5.332  0.4924  0.1796 -0.5610
 7339TIP3    H143508   5.079   3.597   5.251 -2.0877  2.2384  0.8499
 7339TIP3    H243509   5.169   3.686   5.333  1.2183 -0.1430  0.0214
 7340TIP3   OH243510   6.230   2.643  16.144 -0.2192  0.4240  0.2225
 7340TIP3    H143511   6.301   2.610  16.199 -0.7129 -1.9208 -0.4255
 7340TIP3    H243512   6.273   2.671  16.063 -0.0024 -1.3186 -0.3112
 7341TIP3   OH243513   0.082   2.262  12.646 -0.2036 -0.1062 -0.9044
 7341TIP3    H143514   0.005   2.319  12.647 -0.0329  0.1150 -0.2760
 7341TIP3    H243515   0.148   2.310  12.696  0.5003 -0.0791 -1.8391
 7342TIP3   OH243516   0.755   0.454  16.164 -0.3814 -0.1842  0.0383
 7342TIP3    H143517   0.721   0.475  16.251  0.9679 -1.0698  0.8159
 7342TIP3    H243518   0.717   0.521  16.107  0.3045  1.7031  1.6646
 7343TIP3   OH243519   0.630   3.088  11.774 -0.3866  0.0920  0.0160
 7343TIP3    H143520   0.683   3.052  11.703 -2.5130 -0.9022 -1.1544
 7343TIP3    H243521   0.625   3.181  11.755 -1.4087 -0.2460 -1.5265
 7344TIP3   OH243522   1.776   0.508   0.332 -0.1168 -0.5425 -0.1793
 7344TIP3    H143523   1.832   0.542   0.262  0.6962 -0.6398  0.4100
 7344TIP3    H243524   1.762   0.416   0.310  1.2926 -0.9381  0.5001
 7345TIP3   OH243525   5.319   5.753   5.068  0.0948 -0.1157  0.1516
 7345TIP3    H143526   5.379   5.826   5.087 -1.4200  2.0801 -2.7313
 7345TIP3    H243527   5.337   5.731   4.976 -2.3849 -0.4459 -0.3105
 7346TIP3   OH243528   1.190   4.475   5.073  0.0236 -0.0718 -0.7488
 7346TIP3    H143529   1.183   4.570   5.084  0.8670 -0.1820  1.0333
 7346TIP3    H243530   1.172   4.439   5.160  1.3380 -1.4455 -0.9930
 7347TIP3   OH243531   5.801   3.035  13.821  0.2958 -0.8135  0.5264
 7347TIP3    H143532   5.822   3.121  13.784  1.1572 -1.6071 -0.9557
 7347TIP3    H243533   5.821   2.973  13.750  0.6072 -2.3190  1.8631
 7348TIP3   OH243534   3.295   0.743   2.171  0.1209 -0.5243  0.0488
 7348TIP3    H143535   3.199   0.746   2.173  0.0604 -0.1051 -1.7922
 7348TIP3    H243536   3.315   0.649   2.165 -0.2050 -0.5642 -0.4386
 7349TIP3   OH243537   0.601   3.474  13.833 -0.3312  0.4127  0.0122
 7349TIP3    H143538   0.513   3.510  13.819 -0.9395 -0.6100  1.0292
 7349TIP3    H243539   0.647   3.543  13.880  0.2065  1.9049 -2.5134
 7350TIP3   OH243540   2.631   3.146   4.786 -0.2103 -0.3341 -0.1267
 7350TIP3    H143541   2.540   3.175   4.784 -0.4365 -0.9497  0.5885
 7350TIP3    H243542   2.661   3.167   4.875  0.3715 -0.0708 -0.3776
 7351TIP3   OH243543   5.664   4.677   1.788 -0.0211 -0.3525  0.2995
 7351TIP3    H143544   5.693   4.758   1.830 -1.6006 -0.1766  1.1019
 7351TIP3    H243545   5.577   4.697   1.754  1.4230 -0.2348 -3.8453
 7352TIP3   OH243546   2.375   1.741  16.668  0.1591  0.1022 -0.8274
 7352TIP3    H143547   2.362   1.834  16.690  0.4778  0.0894 -0.5734
 7352TIP3    H243548   2.297   1.717  16.619  0.4559  0.7288 -1.6239
 7353TIP3   OH243549   3.134   3.202   4.505  0.3535 -0.1700  0.7434
 7353TIP3    H143550   3.180   3.156   4.574  1.8899 -0.2779 -0.3142
 7353TIP3    H243551   3.060   3.244   4.550  2.9077  2.2846  3.0888
 7354TIP3   OH243552   3.159   0.689   1.529 -0.3702  0.5186 -0.2260
 7354TIP3    H143553   3.176   0.618   1.591  0.5563  0.4409 -0.5442
 7354TIP3    H243554   3.235   0.747   1.538  0.8845 -0.5584 -2.7366
 7355TIP3   OH243555   0.362   3.241   5.750  0.0178  0.4346  0.3411
 7355TIP3    H143556   0.280   3.207   5.786  0.2840 -0.0473  0.5019
 7355TIP3    H243557   0.377   3.323   5.798  1.6687 -1.3828  3.2669
 7356TIP3   OH243558   4.203   2.607  14.557 -0.2166 -0.4340 -0.2627
 7356TIP3    H143559   4.114   2.576  14.540 -0.6272  0.8471 -0.6150
 7356TIP3    H243560   4.219   2.670  14.487  0.0450  1.1463  1.1584
 7357TIP3   OH243561   4.375   0.524   2.867 -0.1711 -0.2462 -0.3934
 7357TIP3    H143562   4.420   0.608   2.872  1.9338 -1.1339 -2.3582
 7357TIP3    H243563   4.308   0.536   2.800 -0.5516  0.1208  0.0480
 7358TIP3   OH243564   6.420   5.039   1.210 -0.1840 -0.1897 -0.0379
 7358TIP3    H143565   6.367   5.102   1.259 -1.6161 -0.0058 -1.7253
 7358TIP3    H243566   6.395   5.053   1.119 -0.8639 -3.4562 -0.4671
 7359TIP3   OH243567   4.668   1.927   6.941  0.1731 -0.5862  0.1162
 7359TIP3    H143568   4.664   1.929   6.845  1.0289 -0.5851  0.0693
 7359TIP3    H243569   4.762   1.929   6.960  0.0134  1.5299  1.0045
 7360TIP3   OH243570   4.324   1.049  11.905  0.3516  0.3826  0.1817
 7360TIP3    H143571   4.255   1.090  11.957 -0.1482 -0.5443  0.2697
 7360TIP3    H243572   4.293   1.054  11.815  0.8245  1.2162  0.0520
 7361TIP3   OH243573   5.525   5.985  14.956 -0.2280  0.1023  0.1782
 7361TIP3    H143574   5.597   6.035  14.916 -0.0016  0.3924  0.9359
 7361TIP3    H243575   5.476   5.951  14.881  0.6944 -0.0995 -0.3529
 7362TIP3   OH243576   6.128   3.387   1.668 -0.4169  0.5368  0.3268
 7362TIP3    H143577   6.058   3.333   1.630 -0.1227  1.6048 -1.9016
 7362TIP3    H243578   6.093   3.476   1.667  0.1531  0.7831  1.2894
 7363TIP3   OH243579   1.874   2.608   2.476 -0.3525  0.1187  0.4472
 7363TIP3    H143580   1.791   2.634   2.436  0.4492  1.4712 -0.4412
 7363TIP3    H243581   1.917   2.691   2.497  0.6247 -0.5610  1.2233
 7364TIP3   OH243582   4.895   0.291   3.374  0.3545 -0.0765  0.2635
 7364TIP3    H143583   4.814   0.246   3.400 -0.1932  0.2068 -0.8698
 7364TIP3    H243584   4.913   0.351   3.446  0.3459 -1.1370  1.1778
 7365TIP3   OH243585   1.871   5.429  14.574 -0.3676  0.0353 -0.0365
 7365TIP3    H143586   1.919   5.425  14.657  0.8526 -0.9407 -0.7454
 7365TIP3    H243587   1.837   5.518  14.570  1.4510  0.8077  0.4901
 7366TIP3   OH243588   1.270   6.279  14.820  0.4163  0.1856 -0.4228
 7366TIP3    H143589   1.216   6.200  14.821  1.6964 -0.7851 -1.9079
 7366TIP3    H243590   1.244   6.325  14.740 -1.0451  1.8672  0.9464
 7367TIP3   OH243591   0.713   0.042   1.781  0.1583 -0.4719 -0.6321
 7367TIP3    H143592   0.626   0.039   1.820  0.2119  0.4629 -0.4296
 7367TIP3    H243593   0.739   0.134   1.784  1.3756 -0.8018 -0.2170
 7368TIP3   OH243594   5.153   4.504  13.576 -0.3134  0.0025 -0.4071
 7368TIP3    H143595   5.211   4.500  13.501  1.8438  0.6710  1.1141
 7368TIP3    H243596   5.154   4.596  13.602 -1.3620 -0.1370  0.1999
 7369TIP3   OH243597   6.374   0.183  11.532 -0.0246 -0.2625 -0.1537
 7369TIP3    H143598   6.336   0.261  11.572  1.1679  0.0080  0.4807
 7369TIP3    H243599   6.369   0.200  11.438 -0.4995  0.2225 -0.0451
 7370TIP3   OH243600   5.920   4.359   0.468  0.0809 -0.2437 -0.2097
 7370TIP3    H143601   5.936   4.397   0.382  1.0266 -0.6152 -0.2188
 7370TIP3    H243602   5.991   4.394   0.523 -0.9225  0.5669  0.6153
 7371TIP3   OH243603   2.071   3.928   4.419  0.6681 -0.3811  0.2907
 7371TIP3    H143604   1.997   3.879   4.385  1.7882 -0.6689 -1.9102
 7371TIP3    H243605   2.068   3.913   4.514 -2.8331  0.7901  0.4841
 7372TIP3   OH243606   6.404   5.036  15.821  0.4138  0.4972  0.3893
 7372TIP3    H143607   6.419   5.117  15.771 -1.6791  1.6300  1.4729
 7372TIP3    H243608   6.347   5.062  15.893 -1.0716 -2.1125  0.2893
 7373TIP3   OH243609   4.829   3.016  16.441 -0.3511  0.2750  0.0137
 7373TIP3    H143610   4.808   2.932  16.482 -2.4271  1.0850  0.7358
 7373TIP3    H243611   4.769   3.078  16.481  0.0108  1.8165 -1.6938
 7374TIP3   OH243612   5.682   2.604  15.474  0.0553 -0.4999 -0.0161
 7374TIP3    H143613   5.652   2.530  15.420 -1.4411  0.1376 -0.0993
 7374TIP3    H243614   5.627   2.601  15.552  0.7912 -0.1550  0.5342
 7375TIP3   OH243615   1.565   5.781  13.852 -0.2437  0.1361 -0.5586
 7375TIP3    H143616   1.647   5.732  13.848 -1.0373 -1.3738  0.6323
 7375TIP3    H243617   1.519   5.756  13.772 -0.3858 -0.6239 -0.2516
 7376TIP3   OH243618   1.636   2.460   1.323  0.4761 -0.6758 -0.5197
 7376TIP3    H143619   1.561   2.436   1.378  0.5555  0.5927  0.1842
 7376TIP3    H243620   1.681   2.377   1.306 -0.4716 -1.3050 -0.0280
 7377TIP3   OH243621   0.485   2.970   5.235 -0.2621  0.0300  0.0515
 7377TIP3    H143622   0.422   2.937   5.300 -2.2963  0.2145 -1.7189
 7377TIP3    H243623   0.449   3.055   5.208  1.9252  1.1736  0.4937
 7378TIP3   OH243624   3.307   5.414  17.096 -0.7056 -0.1210 -0.1509
 7378TIP3    H143625   3.309   5.462  17.014 -0.8975 -0.0003 -0.0870
 7378TIP3    H243626   3.236   5.455  17.146  0.4647  0.9165  0.7529
 7379TIP3   OH243627   1.589   5.667  14.906 -0.6632 -0.1205  0.1466
 7379TIP3    H143628   1.630   5.729  14.846 -1.5423  1.2395  0.8991
 7379TIP3    H243629   1.652   5.595  14.912  0.1360  0.4205 -1.1882
 7380TIP3   OH243630   5.691   2.744   2.109  0.2564 -0.0543 -0.1544
 7380TIP3    H143631   5.719   2.782   2.026 -0.5438 -1.7621 -1.2814
 7380TIP3    H243632   5.768   2.750   2.166  0.4172  2.3157 -0.5457
 7381TIP3   OH243633   4.402   6.651  13.374  0.4635 -0.2244  0.6621
 7381TIP3    H143634   4.314   6.622  13.400 -0.2635  0.8533 -0.5314
 7381TIP3    H243635   4.450   6.569  13.360 -0.4509 -0.8310  0.9485
 7382TIP3   OH243636   2.549   2.800  13.719  0.3272  0.3124  0.1818
 7382TIP3    H143637   2.573   2.760  13.802 -0.1599 -1.0571 -0.3071
 7382TIP3    H243638   2.598   2.751  13.653 -1.9074 -1.0259 -0.6271
 7383TIP3   OH243639   1.230   6.710   5.095  0.4646 -0.4311 -0.1356
 7383TIP3    H143640   1.150   6.753   5.125 -0.0318 -2.2149  1.3505
 7383TIP3    H243641   1.244   6.640   5.159  3.1539 -0.2725 -0.4427
 7384TIP3   OH243642   1.882   4.812   0.290 -0.1748 -0.4341  0.0633
 7384TIP3    H143643   1.809   4.867   0.319 -0.2731  1.0641 -2.7325
 7384TIP3    H243644   1.961   4.860   0.319 -0.2708 -0.3345  0.1609
 7385TIP3   OH243645   3.486   1.279  13.987  0.2279 -0.1282  0.7285
 7385TIP3    H143646   3.564   1.224  13.985 -0.2592 -0.8070 -0.0030
 7385TIP3    H243647   3.429   1.244  13.919 -0.4797  0.7214  0.8534
 7386TIP3   OH243648   4.072   3.143   2.991  0.1788 -0.2756 -0.5592
 7386TIP3    H143649   4.133   3.098   2.933 -0.6323 -1.9947 -0.1352
 7386TIP3    H243650   3.986   3.119   2.958 -0.2796  0.4213  0.1108
 7387TIP3   OH243651   6.741   4.222   4.677 -0.2131  0.5835  0.2125
 7387TIP3    H143652   6.693   4.253   4.754 -1.7283 -0.1069 -0.4021
 7387TIP3    H243653   6.677   4.229   4.605  0.4978 -0.7136 -0.5810
 7388TIP3   OH243654   1.920   6.347  16.275 -0.5448  0.3555  0.0340
 7388TIP3    H143655   2.013   6.342  16.300 -0.1752  0.0305 -1.3157
 7388TIP3    H243656   1.906   6.270  16.220 -1.9090 -0.1784  1.0859
 7389TIP3   OH243657   1.609   5.167  17.520 -0.0151 -0.3017  0.0499
 7389TIP3    H143658   1.628   5.084  17.564  2.4928 -0.7454 -1.6634
 7389TIP3    H243659   1.616   5.232  17.590  0.2896 -1.3082  0.9919
 7390TIP3   OH243660   2.353   2.133   2.833  0.7352 -0.5833  0.3375
 7390TIP3    H143661   2.360   2.046   2.794 -2.0059 -0.7091 -0.0239
 7390TIP3    H243662   2.267   2.165   2.807  1.2805  1.8795  1.2447
 7391TIP3   OH243663   1.822   2.062  11.171 -0.3748 -0.0927 -0.0561
 7391TIP3    H143664   1.768   2.063  11.092  2.0134 -0.6576 -1.8105
 7391TIP3    H243665   1.909   2.034  11.140  0.8431  0.4082  2.6549
 7392TIP3   OH243666   0.424   6.624  12.652  0.4483  0.4050 -0.0905
 7392TIP3    H143667   0.448   6.708  12.690 -0.3313  0.1964  0.9142
 7392TIP3    H243668   0.401   6.569  12.727 -0.2817 -0.3021 -0.8022
 7393TIP3   OH243669   1.324   1.061   1.560  0.4129 -0.6279 -0.5343
 7393TIP3    H143670   1.354   1.116   1.488 -0.9470  2.5094  1.1090
 7393TIP3    H243671   1.228   1.063   1.554  0.2322  0.3889  1.7286
 7394TIP3   OH243672   3.067   3.686  14.043 -0.4166  0.0473  0.0730
 7394TIP3    H143673   3.037   3.603  14.004 -0.6214 -0.2040  0.7495
 7394TIP3    H243674   2.996   3.748  14.026 -0.6361 -0.1394  0.3019
 7395TIP3   OH243675   6.343   0.175  13.927 -0.0778 -0.2162 -0.5428
 7395TIP3    H143676   6.270   0.182  13.867 -1.5764 -0.9665  1.0865
 7395TIP3    H243677   6.406   0.240  13.897 -2.6918  2.6219 -0.2932
 7396TIP3   OH243678   3.793   1.898   4.687 -0.1232 -0.0453 -0.2152
 7396TIP3    H143679   3.870   1.841   4.691  1.0695  1.5114  0.5253
 7396TIP3    H243680   3.820   1.977   4.735 -2.8569 -0.1813  1.7924
 7397TIP3   OH243681   0.259   6.527  11.646 -0.2903 -0.4241  0.2067
 7397TIP3    H143682   0.210   6.497  11.570  0.1989  0.7449 -0.5881
 7397TIP3    H243683   0.241   6.460  11.713 -2.1729 -0.5406 -0.3397
 7398TIP3   OH243684   5.908   1.115  12.895  0.3613  0.2970 -0.7176
 7398TIP3    H143685   5.998   1.135  12.870  0.1554  0.3711 -1.4051
 7398TIP3    H243686   5.916   1.078  12.983  1.3575 -2.2494 -1.7795
 7399TIP3   OH243687   0.912   0.347  13.215 -0.0041  0.1123  0.3248
 7399TIP3    H143688   0.958   0.278  13.262  1.3137 -0.0641 -1.1167
 7399TIP3    H243689   0.926   0.426  13.268 -1.0889 -0.6051  1.7169
 7400TIP3   OH243690   1.167   5.151   1.399  0.0371  0.4608  0.2214
 7400TIP3    H143691   1.242   5.111   1.444 -1.0491 -0.1496  1.5922
 7400TIP3    H243692   1.118   5.076   1.365  0.9257  0.9224 -2.2392
 7401TIP3   OH243693   2.885   4.241   3.426  1.0129  0.3744 -0.4655
 7401TIP3    H143694   2.870   4.330   3.394  0.0978  0.1577 -0.6864
 7401TIP3    H243695   2.821   4.188   3.379 -0.0431 -0.0427  1.3348
 7402TIP3   OH243696   1.133   4.104   5.176 -0.5183  0.1873 -0.0868
 7402TIP3    H143697   1.122   4.173   5.110 -1.4981 -1.4723 -1.7840
 7402TIP3    H243698   1.087   4.136   5.253  1.0445  2.3908  0.0060
 7403TIP3   OH243699   4.162   3.030   0.420 -0.8908 -0.1404 -0.5580
 7403TIP3    H143700   4.140   2.941   0.391 -0.2322 -0.6150  0.3592
 7403TIP3    H243701   4.181   3.077   0.339  0.4311 -1.3116 -0.9766
 7404TIP3   OH243702   1.508   3.066  12.025  0.0615 -0.2214  0.0743
 7404TIP3    H143703   1.492   3.155  12.058 -1.4090 -1.5431  3.3517
 7404TIP3    H243704   1.603   3.057  12.027  0.1598  0.6398  1.7652
 7405TIP3   OH243705   3.428   5.386   3.672 -0.2523 -0.0247 -0.1249
 7405TIP3    H143706   3.473   5.399   3.756 -0.5268  2.6096 -0.2772
 7405TIP3    H243707   3.483   5.324   3.625  2.6182  2.0324  0.2152
 7406TIP3   OH243708   0.652   3.451   4.928  0.1298 -0.2423 -0.7538
 7406TIP3    H143709   0.684   3.539   4.909 -0.8863 -0.1706 -2.4072
 7406TIP3    H243710   0.586   3.435   4.860 -1.6861 -1.2254  1.1231
 7407TIP3   OH243711   1.892   2.679  13.234 -0.4029  0.2972  0.0345
 7407TIP3    H143712   1.828   2.698  13.166  0.8602  1.2663 -0.9103
 7407TIP3    H243713   1.934   2.598  13.205 -0.8373 -0.0743  0.4126
 7408TIP3   OH243714   0.581   1.393   0.195 -0.7304  0.0654 -0.2578
 7408TIP3    H143715   0.543   1.479   0.211  0.0430  0.3127  0.3184
 7408TIP3    H243716   0.580   1.350   0.280  1.5771  0.6386  0.1395
 7409TIP3   OH243717   0.904   1.699   1.662  0.1983  0.5534 -0.2113
 7409TIP3    H143718   0.834   1.700   1.597  1.1415 -0.3554 -1.2870
 7409TIP3    H243719   0.862   1.667   1.742 -0.3448 -1.4475 -1.2211
 7410TIP3   OH243720   2.755   5.572  14.609  0.1204  0.5948  0.0996
 7410TIP3    H143721   2.735   5.532  14.524 -1.3717  0.2299  0.5840
 7410TIP3    H243722   2.801   5.503  14.657 -2.4300 -0.6646  0.9257
 7411TIP3   OH243723   3.529   6.663   0.492 -0.0536  0.1869 -0.0834
 7411TIP3    H143724   3.438   6.652   0.519  0.1055  0.8275  0.7406
 7411TIP3    H243725   3.577   6.674   0.574  0.4185  2.4412 -0.6112
 7412TIP3   OH243726   0.601   2.357  13.090  0.4616  0.2787  0.0644
 7412TIP3    H143727   0.537   2.307  13.040  1.3159 -0.7141 -0.0651
 7412TIP3    H243728   0.565   2.359  13.179 -0.3598  0.8337 -0.2621
 7413TIP3   OH243729   5.071   4.920  10.549 -0.3205  0.4543 -0.7453
 7413TIP3    H143730   5.034   4.834  10.529 -0.5041  0.7667 -1.8072
 7413TIP3    H243731   5.103   4.912  10.639 -1.2175 -0.4154 -0.4846
 7414TIP3   OH243732   0.939   2.273   5.262  0.0691 -0.3187  0.6448
 7414TIP3    H143733   0.935   2.183   5.230  0.9693 -1.1962  2.7926
 7414TIP3    H243734   1.028   2.283   5.294  0.2489  1.6787 -0.3417
 7415TIP3   OH243735   5.777   2.818  13.216 -0.2396  0.5703  0.8257
 7415TIP3    H143736   5.792   2.889  13.278  0.9327  0.7842  0.3255
 7415TIP3    H243737   5.694   2.839  13.175  1.0487  2.8459 -0.8364
 7416TIP3   OH243738   3.562   3.715   4.650  0.3644 -0.0541  0.4862
 7416TIP3    H143739   3.615   3.725   4.729  2.4795 -0.6642 -0.7879
 7416TIP3    H243740   3.586   3.790   4.595 -2.0172  1.0819  0.8376
 7417TIP3   OH243741   1.931   4.879  14.558 -0.3712  0.5403  0.3184
 7417TIP3    H143742   1.849   4.865  14.606 -0.0452  0.3477  0.8178
 7417TIP3    H243743   1.936   4.805  14.497 -0.9823  0.9957 -0.3011
 7418TIP3   OH243744   5.853   0.644   4.588 -0.1897 -0.4262 -0.3664
 7418TIP3    H143745   5.938   0.669   4.625 -1.2549  1.1171  1.1883
 7418TIP3    H243746   5.868   0.638   4.494  1.2369  1.5963 -0.3115
 7419TIP3   OH243747   1.588   3.198   4.319 -0.0125  0.2838  0.0598
 7419TIP3    H143748   1.640   3.270   4.282 -1.1567  0.4902 -1.2646
 7419TIP3    H243749   1.538   3.239   4.389  2.1362 -0.0926  1.9123
 7420TIP3   OH243750   5.731   6.679   1.370  0.1784 -0.3130  0.4424
 7420TIP3    H143751   5.808   6.626   1.347 -0.5463 -1.1386 -0.1647
 7420TIP3    H243752   5.740   6.758   1.317 -0.3876 -1.2823 -1.1806
 7421TIP3   OH243753   0.981   0.537   5.588 -0.4073 -0.6823  0.0325
 7421TIP3    H143754   0.927   0.497   5.520 -0.8649  0.4041 -0.2556
 7421TIP3    H243755   1.071   0.511   5.564 -0.5411 -0.1965 -1.0842
 7422TIP3   OH243756   0.373   1.286   0.655 -0.5618  0.6747  0.3579
 7422TIP3    H143757   0.392   1.379   0.648 -1.0334  0.6987 -0.7552
 7422TIP3    H243758   0.443   1.251   0.710  1.6133  1.0966 -1.9886
 7423TIP3   OH243759   3.046   5.903  11.295 -0.3786 -0.0040 -0.3154
 7423TIP3    H143760   3.075   5.973  11.237 -0.0311 -1.4425 -1.9821
 7423TIP3    H243761   3.021   5.832  11.235  1.3297 -2.0865  1.2812
 7424TIP3   OH243762   4.004   5.318   3.644  0.1641  0.0431  0.3501
 7424TIP3    H143763   3.977   5.403   3.677  0.9921  0.5113 -0.1522
 7424TIP3    H243764   3.924   5.266   3.642 -0.5650  1.1655 -0.4322
 7425TIP3   OH243765   4.105   6.157   3.800 -0.1247 -0.5216  0.0242
 7425TIP3    H143766   4.197   6.130   3.804 -0.1335 -0.6862 -0.7799
 7425TIP3    H243767   4.087   6.168   3.707 -0.6949  0.3079  0.2184
 7426TIP3   OH243768   2.823   5.181  10.689 -0.1313  0.0959  0.2765
 7426TIP3    H143769   2.885   5.180  10.616  0.2222 -1.9885  0.5558
 7426TIP3    H243770   2.737   5.188  10.648  0.1052 -0.3817 -0.3040
 7427TIP3   OH243771   4.067   3.596  16.306 -0.2230  0.4640  0.2039
 7427TIP3    H143772   4.018   3.576  16.225 -0.1091 -1.2007  0.5018
 7427TIP3    H243773   4.151   3.628  16.275 -0.5242  0.7537 -0.3418
 7428TIP3   OH243774   0.140   4.580  16.432 -0.6355  0.3585 -0.7287
 7428TIP3    H143775   0.077   4.649  16.411  1.6827  2.8009 -0.2085
 7428TIP3    H243776   0.214   4.626  16.471  1.3697 -2.3804 -0.9996
 7429TIP3   OH243777   0.955   6.155   2.894 -1.0175  0.3484 -0.0440
 7429TIP3    H143778   0.944   6.130   2.802 -1.3992  0.6773 -0.0905
 7429TIP3    H243779   0.988   6.076   2.936  2.5045  1.0877 -1.0863
 7430TIP3   OH243780   5.882   0.686   5.409 -0.1604  0.4989  0.4717
 7430TIP3    H143781   5.963   0.694   5.360 -1.0410  1.8506 -0.8710
 7430TIP3    H243782   5.854   0.777   5.424 -2.5221  0.1224 -1.0551
 7431TIP3   OH243783   1.164   3.724  12.929  0.5683  0.6552 -0.0375
 7431TIP3    H143784   1.192   3.809  12.964  0.0558  0.2370  1.4578
 7431TIP3    H243785   1.070   3.735  12.913  0.0898 -0.1532  1.9346
 7432TIP3   OH243786   2.015   5.236   4.962  0.3015  0.2714  0.1758
 7432TIP3    H143787   1.932   5.225   4.915  0.6790 -1.2535 -0.1925
 7432TIP3    H243788   1.990   5.245   5.054 -0.2427 -1.7191  0.2691
 7433TIP3   OH243789   0.714   4.362   1.590 -0.2680 -0.1979 -0.5288
 7433TIP3    H143790   0.678   4.284   1.632 -1.1410 -0.9045 -2.4739
 7433TIP3    H243791   0.785   4.328   1.535  0.3510  0.6064 -0.2520
 7434TIP3   OH243792   1.110   4.362   1.447 -0.2849  0.0612  0.6480
 7434TIP3    H143793   1.075   4.343   1.534  0.2627  0.8998  1.0605
 7434TIP3    H243794   1.116   4.457   1.444  0.4826 -0.0021 -0.0002
 7435TIP3   OH243795   4.778   0.347   5.845 -0.0241  0.5792  0.2173
 7435TIP3    H143796   4.772   0.383   5.933 -0.3326 -1.5653  1.1355
 7435TIP3    H243797   4.851   0.285   5.849 -0.8785 -0.5365 -0.6323
 7436TIP3   OH243798   5.397   6.644  15.116  0.7078  0.2417  0.2143
 7436TIP3    H143799   5.427   6.657  15.207  0.6395 -0.1472  0.2963
 7436TIP3    H243800   5.311   6.603  15.125  1.4499 -1.4554 -0.0112
 7437TIP3   OH243801   3.748   0.264  12.437  0.0233 -0.2733  0.1887
 7437TIP3    H143802   3.815   0.331  12.422  0.2310 -0.6429 -0.6456
 7437TIP3    H243803   3.666   0.313  12.443 -0.1240 -0.0162 -2.4319
 7438TIP3   OH243804   3.366   5.819   4.188  0.3326 -0.0239  0.1878
 7438TIP3    H143805   3.353   5.726   4.209  0.5721 -0.3227 -0.9160
 7438TIP3    H243806   3.313   5.865   4.252  0.4462 -0.9106  0.9487
 7439TIP3   OH243807   4.018   4.405   5.169  0.3202 -0.1180  0.3214
 7439TIP3    H143808   4.103   4.389   5.128  0.1183 -0.2741 -0.0497
 7439TIP3    H243809   3.973   4.463   5.108 -0.2562 -0.9211 -0.0442
 7440TIP3   OH243810   0.427   5.006   0.421 -0.1852 -0.0415  0.5017
 7440TIP3    H143811   0.501   4.946   0.432 -0.1602 -0.2759 -0.7885
 7440TIP3    H243812   0.462   5.092   0.444  0.2224 -0.2854  0.7989
 7441TIP3   OH243813   0.450   1.306  16.062  0.3411  0.1180  0.0895
 7441TIP3    H143814   0.433   1.388  16.016  0.0957  1.0194  1.7136
 7441TIP3    H243815   0.476   1.245  15.993  0.0361  1.4104 -1.2227
 7442TIP3   OH243816   1.846   5.897  17.391 -0.4235 -0.8403 -0.0310
 7442TIP3    H143817   1.829   5.956  17.317 -0.4854 -0.3018  0.4070
 7442TIP3    H243818   1.812   5.812  17.362 -0.2844 -0.6814 -0.6916
 7443TIP3   OH243819   4.921   0.313   4.773 -0.2674 -0.1433  0.7630
 7443TIP3    H143820   4.977   0.269   4.837 -0.4092 -0.4696  0.6683
 7443TIP3    H243821   4.833   0.278   4.791  0.1881 -3.1037 -1.9544
 7444TIP3   OH243822   2.070   3.100  12.110  0.1541 -0.4327 -0.0233
 7444TIP3    H143823   2.082   3.056  12.194  0.1449  1.3493  0.9547
 7444TIP3    H243824   2.159   3.117  12.079  0.2454  1.9106  1.3160
 7445TIP3   OH243825   2.066   0.764  11.655  0.3795 -0.3607 -0.0880
 7445TIP3    H143826   2.081   0.704  11.582 -0.0342 -1.1526  0.4683
 7445TIP3    H243827   2.153   0.797  11.678  0.6643 -1.1157 -0.0811
 7446TIP3   OH243828   1.442   4.466  11.346 -0.5427  0.5048  0.3398
 7446TIP3    H143829   1.524   4.432  11.309 -0.9002  0.8910 -0.8638
 7446TIP3    H243830   1.454   4.458  11.440  0.3387 -0.7024  0.1578
 7447TIP3   OH243831   3.581   1.154   5.789 -0.4393 -0.1051 -0.4291
 7447TIP3    H143832   3.487   1.138   5.800 -0.2742 -1.6151 -0.9528
 7447TIP3    H243833   3.586   1.230   5.732 -1.3278  0.5704  0.3589
 7448TIP3   OH243834   0.824   0.494   1.440 -0.2629  0.1385 -0.3835
 7448TIP3    H143835   0.813   0.580   1.399 -1.7549 -0.1999 -0.7474
 7448TIP3    H243836   0.833   0.433   1.367  0.2370 -0.1008 -0.1305
 7449TIP3   OH243837   3.969   0.700   2.814  0.8237  0.2285  0.2928
 7449TIP3    H143838   3.909   0.774   2.817  1.4302  0.7120  1.9340
 7449TIP3    H243839   3.959   0.657   2.899 -0.0431 -2.0517 -0.8869
 7450TIP3   OH243840   0.029   3.237  14.046 -0.2175 -0.1372 -0.1367
 7450TIP3    H143841  -0.038   3.305  14.059 -2.0604 -1.7581 -0.6550
 7450TIP3    H243842   0.036   3.229  13.951 -0.4414 -1.0682 -0.0771
 7451TIP3   OH243843   5.288   6.447   5.575  0.8718 -0.1089  0.0183
 7451TIP3    H143844   5.291   6.374   5.513  0.3227 -0.8434  0.8216
 7451TIP3    H243845   5.349   6.422   5.644  2.1834  1.1284 -0.6420
 7452TIP3   OH243846   1.758   2.048  12.270  0.2463 -0.2567 -0.4562
 7452TIP3    H143847   1.733   2.135  12.302 -0.9652 -0.5016 -0.6996
 7452TIP3    H243848   1.708   1.988  12.325  1.5404 -0.8474  0.1250
 7453TIP3   OH243849   0.751   6.693   6.564 -0.3443  0.4582 -0.0343
 7453TIP3    H143850   0.815   6.703   6.635 -1.2079  0.0126  0.8389
 7453TIP3    H243851   0.745   6.780   6.525 -1.9893  1.5356  2.3568
 7454TIP3   OH243852   5.804   5.000   4.577 -0.3888 -0.3278 -0.4735
 7454TIP3    H143853   5.760   5.075   4.616  1.9715  1.4892 -1.0562
 7454TIP3    H243854   5.839   4.951   4.651 -2.3121 -1.1718 -0.0696
 7455TIP3   OH243855   5.016   6.395  16.103 -0.0258  0.2223 -0.0821
 7455TIP3    H143856   5.013   6.325  16.038 -2.3405 -0.2378  0.4105
 7455TIP3    H243857   5.034   6.349  16.186  0.2481  0.4498 -0.0159
 7456TIP3   OH243858   2.462   5.450   3.887 -0.1262  0.1844 -0.1199
 7456TIP3    H143859   2.441   5.500   3.807  0.1188 -0.6548 -0.7259
 7456TIP3    H243860   2.511   5.374   3.855  1.3184  0.6173  0.9813
 7457TIP3   OH243861   5.959   2.197   5.196 -0.1303  0.2958  0.6286
 7457TIP3    H143862   5.954   2.292   5.184  1.0468  0.0854 -2.0799
 7457TIP3    H243863   5.889   2.162   5.142 -0.4732 -0.4319  1.5139
 7458TIP3   OH243864   5.252   3.805   0.004  0.1990 -0.5481 -0.1008
 7458TIP3    H143865   5.282   3.794   0.094  1.9667 -2.5457 -0.8417
 7458TIP3    H243866   5.319   3.761  -0.049 -1.6438 -0.9420 -2.2515
 7459TIP3   OH243867   1.119   3.589  14.664 -0.3253 -0.6009  0.0022
 7459TIP3    H143868   1.114   3.545  14.579 -0.0376  2.4212 -1.7307
 7459TIP3    H243869   1.203   3.561  14.700  0.7565 -0.0829 -1.9228
 7460TIP3   OH243870   6.558   2.847   2.400 -0.3037 -0.1552  0.7252
 7460TIP3    H143871   6.625   2.793   2.442 -0.1875  0.5179  1.4230
 7460TIP3    H243872   6.600   2.932   2.389 -0.5715 -0.1256 -0.1407
 7461TIP3   OH243873   3.932   0.535   5.957 -0.4388 -0.2260 -0.1773
 7461TIP3    H143874   4.027   0.528   5.968 -0.5067 -1.2352 -0.1724
 7461TIP3    H243875   3.906   0.603   6.020  0.4234  0.9766 -1.0769
 7462TIP3   OH243876   0.508   2.219   4.284 -0.2050 -0.7122  0.2181
 7462TIP3    H143877   0.518   2.226   4.189 -0.0175  0.0414  0.2917
 7462TIP3    H243878   0.448   2.146   4.296  0.4963 -1.4244 -0.4465
 7463TIP3   OH243879   3.575   0.086   5.296  0.2706 -0.2796 -0.0406
 7463TIP3    H143880   3.557   0.114   5.207 -1.0323 -2.4855 -0.5543
 7463TIP3    H243881   3.577   0.167   5.348  2.9005  1.2489 -2.2852
 7464TIP3   OH243882   0.153   0.481   0.444 -0.2011  0.1729 -0.4920
 7464TIP3    H143883   0.109   0.469   0.359 -1.8455  0.5977  0.2600
 7464TIP3    H243884   0.220   0.547   0.426 -0.8549  0.6351 -1.3730
 7465TIP3   OH243885   0.999   1.802   5.953 -0.5774  0.3236  0.8757
 7465TIP3    H143886   0.959   1.830   5.871 -0.5652 -0.8997  0.4217
 7465TIP3    H243887   1.091   1.790   5.932 -0.9917 -2.5586  0.2889
 7466TIP3   OH243888   5.563   1.612  15.618 -0.1437  0.1558 -0.3056
 7466TIP3    H143889   5.599   1.608  15.530  1.4073 -0.4533  0.3228
 7466TIP3    H243890   5.597   1.534  15.662 -0.0367  0.9789  1.1461
 7467TIP3   OH243891   5.176   6.619   2.192 -0.1654 -0.6156 -0.0086
 7467TIP3    H143892   5.103   6.606   2.253 -0.6829 -1.9011 -0.8574
 7467TIP3    H243893   5.141   6.676   2.124  0.4389  0.8906  0.8834
 7468TIP3   OH243894   1.943   0.613   1.958 -0.2023  0.4885 -0.3047
 7468TIP3    H143895   1.864   0.572   1.923  0.3509 -1.4776  0.6229
 7468TIP3    H243896   1.982   0.547   2.015  1.5702  1.7860  0.0924
 7469TIP3   OH243897   0.903   2.238  17.022 -0.3547 -0.6862 -0.3215
 7469TIP3    H143898   0.962   2.178  16.975 -0.1739 -0.7063 -0.0682
 7469TIP3    H243899   0.955   2.271  17.095 -0.5584 -0.4646 -0.2757
 7470TIP3   OH243900   5.206   2.186  14.974 -0.0728  0.6278 -0.1266
 7470TIP3    H143901   5.301   2.178  14.987  0.0632  0.1581 -1.2679
 7470TIP3    H243902   5.197   2.221  14.886 -0.9691 -0.7114 -0.6020
 7471TIP3   OH243903   6.534   2.182   1.482  0.3038 -0.0366  0.5907
 7471TIP3    H143904   6.614   2.172   1.533 -0.7597  1.0347  2.6196
 7471TIP3    H243905   6.482   2.246   1.532 -1.6291 -0.3748 -0.8643
 7472TIP3   OH243906   5.010   6.515   4.726 -0.0601 -0.1237 -0.2789
 7472TIP3    H143907   5.054   6.549   4.804  0.2024 -0.9897 -0.0348
 7472TIP3    H243908   5.069   6.447   4.693 -0.3477 -0.0240 -1.0215
 7473TIP3   OH243909   2.205   1.835   3.756 -0.2496  0.0568 -0.3693
 7473TIP3    H143910   2.133   1.824   3.694  1.0890 -0.4550 -1.9027
 7473TIP3    H243911   2.278   1.785   3.718  0.3929 -1.0322  2.0671
 7474TIP3   OH243912   3.534   0.643   3.284 -0.1175 -0.1654 -0.1412
 7474TIP3    H143913   3.461   0.589   3.316 -0.7838 -0.2665 -1.7148
 7474TIP3    H243914   3.612   0.600   3.317 -0.7061 -1.0180  0.1850
 7475TIP3   OH243915   5.470   3.194  13.026  0.3760 -0.5339  0.0264
 7475TIP3    H143916   5.552   3.205  12.978  0.2042  0.5904 -0.0343
 7475TIP3    H243917   5.403   3.232  12.969  0.2743  1.5816  1.4183
 7476TIP3   OH243918   4.961   2.577  13.892 -0.4249 -0.4456 -0.3946
 7476TIP3    H143919   5.000   2.631  13.824  0.7977  0.2279  0.7977
 7476TIP3    H243920   4.939   2.495  13.847 -0.3800  0.2511 -1.7524
 7477TIP3   OH243921   1.677   3.298   2.756  0.1039  0.3530 -1.0671
 7477TIP3    H143922   1.612   3.307   2.826  2.7953 -2.2636  2.0757
 7477TIP3    H243923   1.728   3.379   2.760  0.6607 -0.0413  0.5834
 7478TIP3   OH243924   4.776   3.852  13.508  0.0825  0.3704 -0.1353
 7478TIP3    H143925   4.710   3.883  13.569 -0.0354  0.8977 -0.5279
 7478TIP3    H243926   4.852   3.908  13.523  0.4760 -0.2805  0.3687
 7479TIP3   OH243927   2.772   1.908  14.457 -0.6264 -0.2518 -0.3382
 7479TIP3    H143928   2.792   1.994  14.419 -3.4906  0.4035 -0.6357
 7479TIP3    H243929   2.817   1.845  14.401  0.7859  0.9899 -0.6665
 7480TIP3   OH243930   6.325   5.387  16.620  0.2291  0.2439  0.0150
 7480TIP3    H143931   6.334   5.440  16.699  1.7825 -0.1444  0.1426
 7480TIP3    H243932   6.255   5.325  16.640  0.4356  0.3133  0.9996
 7481TIP3   OH243933   5.921   5.266  13.429 -0.6672 -0.1237 -0.2505
 7481TIP3    H143934   5.867   5.292  13.504 -0.7928  0.6588 -0.6044
 7481TIP3    H243935   5.862   5.217  13.372 -0.5234 -0.8943  0.2423
 7482TIP3   OH243936   1.769   2.616  14.629  0.1317  0.5050  0.1747
 7482TIP3    H143937   1.857   2.584  14.648 -0.9817 -2.2780  1.1035
 7482TIP3    H243938   1.720   2.602  14.710 -1.8676 -0.7896 -1.1555
 7483TIP3   OH243939   0.044   3.349  10.930 -0.2241 -0.1098 -0.3170
 7483TIP3    H143940   0.114   3.363  10.994  0.9651  0.6756 -1.7279
 7483TIP3    H243941  -0.030   3.399  10.964  0.2637 -0.0082  0.6245
 7484TIP3   OH243942   0.101   6.275  15.042 -0.0434 -0.5663  0.0172
 7484TIP3    H143943   0.113   6.308  14.953 -0.1372 -0.4402  0.0512
 7484TIP3    H243944   0.134   6.185  15.038  0.9254 -0.2189  0.1192
 7485TIP3   OH243945   4.686   3.787  15.410 -0.3707 -0.1857 -0.0491
 7485TIP3    H143946   4.755   3.723  15.393  0.4862  0.5827  0.4415
 7485TIP3    H243947   4.669   3.780  15.504  0.4799  1.0266  0.2108
 7486TIP3   OH243948   6.532   0.864   3.806  0.1317 -0.1139 -0.1590
 7486TIP3    H143949   6.593   0.851   3.880 -0.3214  0.1393  0.2638
 7486TIP3    H243950   6.485   0.781   3.799 -1.3402  0.5631  1.2395
 7487TIP3   OH243951   2.776   0.265   4.386  0.2395 -0.4014 -0.4406
 7487TIP3    H143952   2.687   0.257   4.421  0.0015  2.1927 -0.2383
 7487TIP3    H243953   2.763   0.265   4.291  0.1899 -1.2507 -0.4437
 7488TIP3   OH243954   1.978   5.545  11.414 -0.6100 -0.1519  0.3592
 7488TIP3    H143955   2.054   5.598  11.393 -0.5889  0.5032  2.0138
 7488TIP3    H243956   1.939   5.524  11.328  1.3758 -0.4799 -0.5136
 7489TIP3   OH243957   0.822   0.060  12.216 -0.2279  0.5336 -0.2918
 7489TIP3    H143958   0.800   0.135  12.160  1.4222  0.3654 -1.2313
 7489TIP3    H243959   0.913   0.076  12.241 -0.0171 -0.9111 -0.0907
 7490TIP3   OH243960   1.975   2.227   3.008 -0.3752  0.1215 -0.1796
 7490TIP3    H143961   1.982   2.321   2.992  0.3914  0.2623  0.8876
 7490TIP3    H243962   2.023   2.186   2.936 -1.2100  0.5047 -0.9741
 7491TIP3   OH243963   1.245   0.089   6.611  0.5223 -0.3057 -0.0881
 7491TIP3    H143964   1.218   0.165   6.662  0.5666 -1.6407  2.0286
 7491TIP3    H243965   1.163   0.044   6.591  0.7029 -2.1739  2.8161
 7492TIP3   OH243966   5.870   3.751  12.159  0.3049  0.3725 -0.0010
 7492TIP3    H143967   5.789   3.755  12.109  0.1825 -2.2392 -0.1734
 7492TIP3    H243968   5.868   3.828  12.216 -1.1032  1.6378 -1.6878
 7493TIP3   OH243969   0.709   3.420   3.060  0.2989 -0.5061 -0.0955
 7493TIP3    H143970   0.701   3.486   3.129  0.5673 -2.2297  1.6941
 7493TIP3    H243971   0.803   3.407   3.051  0.2357 -0.9219 -0.1565
 7494TIP3   OH243972   6.762   1.099  15.150  0.0552  0.2875  0.0090
 7494TIP3    H143973   6.785   1.175  15.203  1.1071  0.7426 -1.0647
 7494TIP3    H243974   6.770   1.129  15.060  1.2809 -1.2999 -0.4491
 7495TIP3   OH243975   2.173   4.402   1.253 -0.0356 -0.4405  0.2303
 7495TIP3    H143976   2.102   4.402   1.317 -0.6371  0.8491 -0.4047
 7495TIP3    H243977   2.224   4.324   1.274 -1.1704 -0.9480  1.2114
 7496TIP3   OH243978   5.232   4.881   3.715  0.2199 -0.5697  0.2969
 7496TIP3    H143979   5.218   4.861   3.623  2.8918 -0.4827 -0.2060
 7496TIP3    H243980   5.236   4.977   3.719  2.5938 -0.5905 -0.0188
 7497TIP3   OH243981   4.897   5.700  12.997  0.1698 -0.6017  0.4164
 7497TIP3    H143982   4.969   5.723  13.057 -0.0711 -0.5816  0.7011
 7497TIP3    H243983   4.912   5.608  12.976  1.0437 -0.2526 -0.5893
 7498TIP3   OH243984   5.849   1.228   6.566 -0.0110  0.7473  0.2268
 7498TIP3    H143985   5.913   1.188   6.507  2.7831  0.5061  3.1487
 7498TIP3    H243986   5.786   1.158   6.583  1.9675 -0.8749  1.3084
 7499TIP3   OH243987   6.429   3.883   1.337 -0.4648 -0.1925 -0.0856
 7499TIP3    H143988   6.336   3.895   1.355 -0.4599 -1.2347  0.6923
 7499TIP3    H243989   6.432   3.841   1.251 -0.8391 -2.2539  0.8601
 7500TIP3   OH243990   5.305   4.440   3.246 -0.4557 -0.3396 -0.2118
 7500TIP3    H143991   5.318   4.346   3.260 -1.0263 -0.5628 -1.0984
 7500TIP3    H243992   5.356   4.460   3.168  1.0292  0.4545  0.9175
 7501TIP3   OH243993   4.964   5.028   5.193 -0.0011 -0.6577  0.2726
 7501TIP3    H143994   4.950   5.013   5.286 -0.0934  0.0755  0.3889
 7501TIP3    H243995   4.914   5.108   5.174  1.1610  0.0204 -0.0858
 7502TIP3   OH243996   1.493   1.870   0.806  0.2588  0.0576 -0.4642
 7502TIP3    H143997   1.424   1.805   0.804 -0.5192  0.8544 -0.1173
 7502TIP3    H243998   1.532   1.863   0.893  1.1706 -0.9349 -0.9285
 7503TIP3   OH243999   0.213   2.328  11.314  0.4949  0.2195  0.3647
 7503TIP3    H144000   0.215   2.237  11.283  0.7833 -0.4320  2.1792
 7503TIP3    H244001   0.300   2.342  11.352  0.1710  0.9746  0.8450
 7504TIP3   OH244002   5.142   4.117  12.655  0.2277 -0.2308 -0.1721
 7504TIP3    H144003   5.220   4.077  12.694  0.3169  0.5725  0.5180
 7504TIP3    H244004   5.112   4.054  12.590 -0.4350 -2.0576  1.7943
 7505TIP3   OH244005   2.118   4.456  13.243 -0.2655 -0.0604 -0.0726
 7505TIP3    H144006   2.087   4.367  13.227  2.2786 -0.9418 -0.4868
 7505TIP3    H244007   2.163   4.481  13.162 -0.0520  1.1902  0.4132
 7506TIP3   OH244008   3.023   5.521   1.491 -0.0884  0.0666 -0.5849
 7506TIP3    H144009   3.116   5.498   1.491 -0.2243 -0.6373  1.0203
 7506TIP3    H244010   3.022   5.617   1.494  0.5889  0.0805 -0.7276
 7507TIP3   OH244011   5.709   5.671  16.338 -0.1783  0.2632  0.1680
 7507TIP3    H144012   5.695   5.670  16.432  1.0468 -0.0808  0.3679
 7507TIP3    H244013   5.679   5.757  16.310  0.1392  0.6498  0.9910
 7508TIP3   OH244014   0.216   2.898  13.361  0.0917  0.0465  0.3985
 7508TIP3    H144015   0.213   2.985  13.322  3.0736  0.8620  1.7058
 7508TIP3    H244016   0.219   2.839  13.286 -2.5184  0.9089 -0.5212
 7509TIP3   OH244017   0.069   5.879  12.207 -0.2341 -0.2785 -0.5377
 7509TIP3    H144018   0.019   5.895  12.127  1.2477  0.3397 -1.3636
 7509TIP3    H244019   0.053   5.958  12.261 -3.2058 -1.7032  0.9320
 7510TIP3   OH244020   1.744   0.792   1.410 -0.2833 -0.3667 -0.1204
 7510TIP3    H144021   1.749   0.875   1.363 -0.0369 -0.6558 -0.6054
 7510TIP3    H244022   1.833   0.779   1.445 -0.2764 -0.5147 -0.1937
 7511TIP3   OH244023   5.445   3.580  16.563  0.0292  0.6996  0.1405
 7511TIP3    H144024   5.419   3.615  16.648 -1.3399 -1.0146  0.4612
 7511TIP3    H244025   5.533   3.546  16.577 -0.1449  0.5286  0.8505
 7512TIP3   OH244026   3.585   3.465  14.924 -0.2326 -1.0125  0.3698
 7512TIP3    H144027   3.649   3.503  14.863 -1.3405  0.1601 -0.0903
 7512TIP3    H244028   3.512   3.438  14.868 -0.9845 -0.5225  1.1064
 7513TIP3   OH244029   6.436   1.014  15.098 -0.8576  0.0823 -0.0231
 7513TIP3    H144030   6.481   0.930  15.085  0.5942  0.9073 -0.5133
 7513TIP3    H244031   6.386   1.002  15.179 -0.6854 -1.2534 -0.0935
 7514TIP3   OH244032   1.372   2.143  14.036  0.0427  0.2439  0.3032
 7514TIP3    H144033   1.345   2.224  14.079  0.3099  0.2630  0.4370
 7514TIP3    H244034   1.314   2.135  13.960 -1.8672 -0.8657  1.7930
 7515TIP3   OH244035   2.758   4.455   5.432  0.0683 -0.3604 -0.0780
 7515TIP3    H144036   2.838   4.505   5.420  1.1553 -2.3175 -1.4795
 7515TIP3    H244037   2.769   4.412   5.517  0.7872 -1.0750 -0.5242
 7516TIP3   OH244038   4.833   5.185  13.225 -0.4995  0.0790  0.2653
 7516TIP3    H144039   4.833   5.237  13.305 -0.4467  0.9250 -0.2743
 7516TIP3    H244040   4.921   5.197  13.188 -0.7602  0.3040 -0.3005
 7517TIP3   OH244041   1.590   0.370   4.345  0.4965  0.0202 -0.5288
 7517TIP3    H144042   1.587   0.395   4.253 -0.1303  0.5788 -0.3695
 7517TIP3    H244043   1.672   0.322   4.355 -0.6365 -2.4335 -1.9796
 7518TIP3   OH244044   2.492   6.664  15.477 -0.0293 -0.7979  0.3121
 7518TIP3    H144045   2.579   6.683  15.441  0.3991  0.3946  1.8500
 7518TIP3    H244046   2.437   6.647  15.401  1.8064 -2.7993 -0.6415
 7519TIP3   OH244047   5.264   4.940  17.360  0.2207  0.2687 -0.5881
 7519TIP3    H144048   5.302   4.869  17.308 -2.5573 -0.9956 -1.0386
 7519TIP3    H244049   5.170   4.931  17.349 -0.3254  2.5953  1.2955
 7520TIP3   OH244050   3.041   4.047   4.078  0.4799 -0.5673  0.2315
 7520TIP3    H144051   2.957   4.015   4.111  0.1608  0.8911  0.9501
 7520TIP3    H244052   3.097   4.050   4.156  1.0686 -1.1174 -0.1645
 7521TIP3   OH244053   4.206   1.703  13.304  0.1482  0.2942  0.2531
 7521TIP3    H144054   4.278   1.731  13.360 -0.3330  0.4929  0.7827
 7521TIP3    H244055   4.142   1.666  13.364 -0.3293  0.4180 -0.1774
 7522TIP3   OH244056   2.399   4.055   2.787 -0.5164 -0.5800 -0.1731
 7522TIP3    H144057   2.454   4.109   2.730  0.0288 -0.2343  0.6577
 7522TIP3    H244058   2.461   4.010   2.845 -0.9883 -1.8138 -0.5998
 7523TIP3   OH244059   6.131   4.707  12.021 -0.1245 -0.0638  0.4755
 7523TIP3    H144060   6.140   4.612  12.020 -0.3424 -0.0911 -0.3801
 7523TIP3    H244061   6.047   4.723  12.064 -0.3621 -0.2920  0.0991
 7524TIP3   OH244062   6.509   6.568  16.096  0.3335  0.1839 -0.4155
 7524TIP3    H144063   6.501   6.484  16.050 -0.9816  1.6392 -3.0712
 7524TIP3    H244064   6.529   6.544  16.187 -2.6589 -3.1107 -0.4185
 7525TIP3   OH244065   6.356   4.110  13.813  0.0522  0.0470 -0.4134
 7525TIP3    H144066   6.413   4.157  13.874 -1.6078  0.6590  0.7558
 7525TIP3    H244067   6.402   4.028  13.795  2.0919  1.2362 -0.9387
 7526TIP3   OH244068   0.113   5.072   4.520  0.0995 -0.1876  0.1509
 7526TIP3    H144069   0.104   5.156   4.565  2.0443  0.7728 -1.1297
 7526TIP3    H244070   0.110   5.095   4.427  3.5571 -1.0740 -0.2865
 7527TIP3   OH244071   6.435   2.715   6.302 -0.4594  0.0188  0.1057
 7527TIP3    H144072   6.495   2.708   6.377 -0.5850  0.7097  0.2770
 7527TIP3    H244073   6.358   2.665   6.329 -0.5270  0.3110  0.4654
 7528TIP3   OH244074   0.266   2.311  13.331 -0.1533  0.0174  0.2134
 7528TIP3    H144075   0.251   2.380  13.265 -0.3127 -1.4455 -1.3556
 7528TIP3    H244076   0.245   2.230  13.285  1.0884 -1.1817  1.6773
 7529TIP3   OH244077   5.189   3.751  11.583 -0.0490 -0.8778 -0.0811
 7529TIP3    H144078   5.216   3.721  11.670 -0.2850  1.2408  0.7725
 7529TIP3    H244079   5.255   3.714  11.523  1.4202 -0.5122  1.2637
 7530TIP3   OH244080   3.773   1.358  12.156 -0.2975  0.3540 -0.0097
 7530TIP3    H144081   3.724   1.393  12.081 -0.5005  0.4021  0.1440
 7530TIP3    H244082   3.827   1.289  12.119 -0.5093  0.2773 -0.1782
 7531TIP3   OH244083   0.711   3.731  14.285  0.4739  0.3073  0.0268
 7531TIP3    H144084   0.683   3.662  14.225 -0.6594  1.3725 -0.7299
 7531TIP3    H244085   0.787   3.771  14.241 -0.6947  1.4527 -1.0419
 7532TIP3   OH244086   0.056   0.498   5.536  0.0360  0.7340 -0.0796
 7532TIP3    H144087   0.106   0.557   5.592  2.1651 -0.7967 -0.2365
 7532TIP3    H244088   0.076   0.526   5.447 -1.7495  1.8925 -0.1802
 7533TIP3   OH244089   0.309   4.385   5.208  0.0501 -0.0358 -0.5063
 7533TIP3    H144090   0.340   4.461   5.256  1.4651 -0.4465 -0.7241
 7533TIP3    H244091   0.248   4.421   5.143 -1.3042  0.5984  1.0564
 7534TIP3   OH244092   2.994   5.317   3.362  0.3539  0.4607  0.1477
 7534TIP3    H144093   3.084   5.331   3.391 -0.0010  1.0538  0.9654
 7534TIP3    H244094   2.991   5.224   3.341  0.8784  0.2205  1.0873
 7535TIP3   OH244095   0.263   6.255   3.699  0.0328 -0.0156 -0.5295
 7535TIP3    H144096   0.312   6.221   3.624 -1.6985 -1.8146 -0.9561
 7535TIP3    H244097   0.298   6.342   3.714  2.0963 -0.5456 -1.8870
 7536TIP3   OH244098   0.248   5.975  11.579  0.5611  0.7486  0.1914
 7536TIP3    H144099   0.172   6.026  11.550 -0.2300 -0.7875 -0.5993
 7536TIP3    H244100   0.223   5.942  11.665 -0.4874 -1.2320 -0.8113
 7537TIP3   OH244101   4.737   0.223   1.356  0.8582 -0.2226  0.1168
 7537TIP3    H144102   4.664   0.168   1.328 -0.2135 -0.6001  3.2529
 7537TIP3    H244103   4.729   0.303   1.303 -1.6634 -0.3885  0.1371
 7538TIP3   OH244104   1.211   5.960   4.694 -0.2977 -0.0808 -0.5076
 7538TIP3    H144105   1.230   5.900   4.766 -0.2179  0.4311 -0.0859
 7538TIP3    H244106   1.115   5.968   4.694 -0.2335  1.9501  1.3179
 7539TIP3   OH244107   6.105   2.562   0.971  0.0025  0.0949  0.1628
 7539TIP3    H144108   6.053   2.607   1.038 -0.6506 -1.9701  1.1202
 7539TIP3    H244109   6.055   2.484   0.950  1.1872 -0.3211 -1.2769
 7540TIP3   OH244110   3.414   0.758   1.400 -0.1983 -0.5200  0.1170
 7540TIP3    H144111   3.484   0.761   1.334 -0.9100 -2.8460 -0.8470
 7540TIP3    H244112   3.333   0.759   1.349 -0.8455  0.0810  1.1158
 7541TIP3   OH244113   4.405   2.309  16.973  0.3797  0.1411 -0.1507
 7541TIP3    H144114   4.332   2.272  17.024  1.3871  0.7916  1.8525
 7541TIP3    H244115   4.419   2.245  16.903  1.0440 -2.5790  2.2758
 7542TIP3   OH244116   1.128   3.427  16.936 -0.4208 -0.1451 -0.4782
 7542TIP3    H144117   1.209   3.379  16.953 -0.5813 -0.6782 -1.1514
 7542TIP3    H244118   1.067   3.396  17.003  0.7121  2.3367  1.8503
 7543TIP3   OH244119   2.445   6.551  11.657 -0.5885 -0.3681  0.7225
 7543TIP3    H144120   2.351   6.539  11.672 -0.3679 -1.2051  1.5057
 7543TIP3    H244121   2.471   6.618  11.720 -0.8368  0.6195 -0.1903
 7544TIP3   OH244122   5.748   5.037  14.884 -0.4712  0.3246  0.0565
 7544TIP3    H144123   5.722   5.110  14.828 -0.7992 -1.0817 -1.7582
 7544TIP3    H244124   5.677   5.029  14.948 -0.8566  1.0516 -0.2657
 7545TIP3   OH244125   6.125   2.680   2.687  0.0036 -0.1564 -0.8475
 7545TIP3    H144126   6.207   2.729   2.693 -1.0705  1.5092  1.6767
 7545TIP3    H244127   6.153   2.589   2.678  2.2478  0.0765  2.2063
 7546TIP3   OH244128   1.361   5.782  15.516  0.0539  0.0271  0.4006
 7546TIP3    H144129   1.395   5.838  15.586  0.8438  1.1409 -0.8336
 7546TIP3    H244130   1.393   5.694  15.538 -1.3984 -0.0688  2.4912
 7547TIP3   OH244131   4.812   5.667  12.620  0.3785 -0.3328  0.7338
 7547TIP3    H144132   4.750   5.596  12.605  0.2641 -0.2480  0.8020
 7547TIP3    H244133   4.875   5.632  12.683 -0.2842 -0.0224  1.5819
 7548TIP3   OH244134   1.919   0.244  14.402  0.0229  0.4145 -0.3993
 7548TIP3    H144135   1.958   0.168  14.359  1.6438  0.6786  0.5349
 7548TIP3    H244136   1.829   0.217  14.419 -0.7270  0.2694 -3.8201
 7549TIP3   OH244137   0.637   0.929   2.172 -0.4074  0.3324 -0.5701
 7549TIP3    H144138   0.561   0.911   2.229 -0.8123  0.0207 -1.2018
 7549TIP3    H244139   0.711   0.935   2.233 -0.6394 -1.1756 -0.1091
 7550TIP3   OH244140   2.516   3.360   1.018 -0.1659 -0.2334 -0.4471
 7550TIP3    H144141   2.464   3.416   0.961 -0.1452  2.1161  1.6752
 7550TIP3    H244142   2.539   3.416   1.092  1.4968 -2.5412  0.9076
 7551TIP3   OH244143   6.582   2.573   3.260 -0.3737  0.2130 -0.1247
 7551TIP3    H144144   6.500   2.588   3.213 -1.0144 -2.3662 -0.0001
 7551TIP3    H244145   6.647   2.557   3.191 -0.6872 -0.7425 -0.2196
 7552TIP3   OH244146   4.605   4.197  14.321 -0.4358 -0.3278  0.5479
 7552TIP3    H144147   4.654   4.244  14.388 -0.3956  0.6318 -0.1170
 7552TIP3    H244148   4.516   4.233  14.327 -0.1291  0.7520 -0.7503
 7553TIP3   OH244149   3.247   0.638  14.306 -0.6377 -0.0740  0.3101
 7553TIP3    H144150   3.208   0.715  14.265 -1.8929 -1.4828 -1.3644
 7553TIP3    H244151   3.264   0.579  14.232 -1.2842 -2.0369  1.6397
 7554TIP3   OH244152   3.541   6.746  11.681  0.8396  0.1313  0.0331
 7554TIP3    H144153   3.590   6.689  11.741  0.3434 -0.7441 -0.3728
 7554TIP3    H244154   3.513   6.819  11.735  0.1728 -0.7767  0.9474
 7555TIP3   OH244155   0.729   3.459  17.391  0.0391  0.4130  0.8469
 7555TIP3    H144156   0.691   3.407  17.461  0.7349 -0.7426  0.4026
 7555TIP3    H244157   0.711   3.550  17.415 -1.5212 -0.0384  1.4643
 7556TIP3   OH244158   2.737   4.097  14.538  0.1813  0.2243  0.1142
 7556TIP3    H144159   2.747   4.056  14.624  0.2181  2.2449  1.1473
 7556TIP3    H244160   2.796   4.173  14.541 -2.9911  2.9447  0.0845
 7557TIP3   OH244161   1.693   0.216   1.214 -0.0170  0.1128 -0.5031
 7557TIP3    H144162   1.758   0.231   1.282 -1.7048  1.2074  0.9492
 7557TIP3    H244163   1.689   0.121   1.205 -1.0895 -0.1911  2.3547
 7558TIP3   OH244164   3.120   4.628  17.222  0.3955  0.0752 -0.3644
 7558TIP3    H144165   3.208   4.621  17.258  0.2889  1.2379  0.2044
 7558TIP3    H244166   3.076   4.547  17.248  1.1937 -0.3744 -0.3895
 7559TIP3   OH244167   3.512   0.474   5.739  1.1164 -0.2766  0.4504
 7559TIP3    H144168   3.521   0.554   5.791  0.2647  0.6566 -0.7669
 7559TIP3    H244169   3.548   0.497   5.653  0.2707 -0.9795 -0.1122
 7560TIP3   OH244170   5.194   3.910  16.957 -0.2014  0.4249  0.3246
 7560TIP3    H144171   5.259   3.840  16.948 -1.2567 -0.4273 -0.9648
 7560TIP3    H244172   5.241   3.979  17.004  1.4337 -0.4140  0.0206
 7561TIP3   OH244173   1.328   1.590  13.812 -0.4190  0.3450 -0.2254
 7561TIP3    H144174   1.281   1.546  13.741 -0.9749 -0.3544  0.5552
 7561TIP3    H244175   1.269   1.661  13.840 -1.5071 -1.0892  1.3640
 7562TIP3   OH244176   4.090   3.499   4.086  0.0156  0.5033  0.0519
 7562TIP3    H144177   4.137   3.416   4.092 -1.3885 -0.2666  0.9747
 7562TIP3    H244178   4.073   3.524   4.177 -2.4268  0.0826 -0.2337
 7563TIP3   OH244179   6.482   3.678  12.301 -0.8111  0.0055  0.4858
 7563TIP3    H144180   6.478   3.611  12.232 -1.0450  0.4827  0.0342
 7563TIP3    H244181   6.391   3.700  12.319 -0.7092  0.8612 -0.0151
 7564TIP3   OH244182   1.211   4.030   5.539  0.2500 -0.3864  0.1427
 7564TIP3    H144183   1.257   4.010   5.458  0.3949  3.0606 -0.7942
 7564TIP3    H244184   1.120   4.006   5.523  0.5507 -1.1222 -0.4673
 7565TIP3   OH244185   3.827   0.763   5.042  0.6002  0.0550  0.0620
 7565TIP3    H144186   3.771   0.837   5.069  1.9663  0.9223  0.6112
 7565TIP3    H244187   3.789   0.687   5.086 -0.0759  0.6461  0.5278
 7566TIP3   OH244188   2.944   2.618   1.861 -0.0953  0.4804  0.4901
 7566TIP3    H144189   3.030   2.579   1.870 -0.4159 -0.0327  1.4704
 7566TIP3    H244190   2.913   2.631   1.951 -1.0494  0.6277  0.1597
 7567TIP3   OH244191   3.363   5.792   4.897 -0.0913  0.1533 -0.4731
 7567TIP3    H144192   3.379   5.799   4.992 -0.7561 -0.8984 -0.2710
 7567TIP3    H244193   3.368   5.698   4.879 -3.8852 -0.1605 -0.7266
 7568TIP3   OH244194   0.309   5.891   5.595 -0.1507  0.3069 -0.2332
 7568TIP3    H144195   0.376   5.871   5.660 -1.3039 -1.1690  0.5661
 7568TIP3    H244196   0.245   5.820   5.603 -1.6118  1.4321 -1.2315
 7569TIP3   OH244197   6.426   2.072   6.297 -0.1586  0.1446  0.0963
 7569TIP3    H144198   6.452   2.157   6.333 -1.2980  0.2643  0.7043
 7569TIP3    H244199   6.359   2.041   6.357 -0.7731 -0.5269 -0.9074
 7570TIP3   OH244200   0.027   6.495  15.521 -0.0127 -0.5347  0.4728
 7570TIP3    H144201  -0.055   6.538  15.497  0.6132  0.3436 -0.1591
 7570TIP3    H244202   0.059   6.457  15.438  0.6388 -0.1322  0.5347
 7571TIP3   OH244203   6.295   4.824  14.870 -0.2210  0.2411 -0.3284
 7571TIP3    H144204   6.204   4.797  14.877  0.1586 -1.3531 -1.0356
 7571TIP3    H244205   6.305   4.893  14.935 -0.6913 -2.9449  3.4788
 7572TIP3   OH244206   6.561   0.402  14.626 -0.2110 -0.1626 -0.1800
 7572TIP3    H144207   6.521   0.451  14.555  0.7038  0.6843 -0.1328
 7572TIP3    H244208   6.653   0.393  14.601 -0.4743 -2.6029 -0.5919
 7573TIP3   OH244209   3.704   5.759  13.841 -0.4161 -0.0938  0.3301
 7573TIP3    H144210   3.799   5.757  13.852 -0.3812  0.8103  0.2898
 7573TIP3    H244211   3.688   5.706  13.763  0.2318  1.0951 -0.6657
 7574TIP3   OH244212   3.624   0.756   2.370 -0.3146 -0.0187 -0.1177
 7574TIP3    H144213   3.609   0.833   2.315  0.5548 -0.6743 -1.3300
 7574TIP3    H244214   3.545   0.703   2.360 -0.6551  0.4183  0.2229
 7575TIP3   OH244215   3.711   5.896   0.473 -0.3614 -0.3187 -0.0190
 7575TIP3    H144216   3.664   5.824   0.430 -0.2094 -0.3507 -0.1340
 7575TIP3    H244217   3.792   5.904   0.422 -1.3189  1.3611 -1.3960
 7576TIP3   OH244218   2.768   0.776   0.562  0.1712 -0.0167 -0.2848
 7576TIP3    H144219   2.739   0.771   0.471 -0.9349  1.8396 -0.0878
 7576TIP3    H244220   2.863   0.778   0.556  0.1947  4.2854 -1.8245
 7577TIP3   OH244221   3.160   6.763  15.752  0.1701  0.0288  0.1628
 7577TIP3    H144222   3.111   6.823  15.808  0.3592  0.0019  0.3597
 7577TIP3    H244223   3.094   6.719  15.699  0.2079  2.9821 -2.6014
 7578TIP3   OH244224   3.018   2.110  17.014  0.5337 -0.1918  0.3341
 7578TIP3    H144225   3.077   2.168  17.064  0.1106 -0.2781  0.9521
 7578TIP3    H244226   3.075   2.067  16.950  0.6507  1.9079 -1.0830
 7579TIP3   OH244227   2.532   1.461  14.380 -0.4801  0.0228 -0.4522
 7579TIP3    H144228   2.553   1.554  14.386  3.8112 -0.7445 -0.1692
 7579TIP3    H244229   2.608   1.422  14.336  0.6233 -4.0156  4.1428
 7580TIP3   OH244230   0.804   3.527  15.385  0.3771 -0.1895 -0.1184
 7580TIP3    H144231   0.738   3.510  15.318 -0.7102  0.7830  0.6669
 7580TIP3    H244232   0.830   3.440  15.416 -1.8414 -0.5912  0.7844
 7581TIP3   OH244233   2.048   0.381  14.168 -0.2761  0.3459  0.3654
 7581TIP3    H144234   2.069   0.388  14.074 -1.6952 -2.8092 -0.3095
 7581TIP3    H244235   2.123   0.335  14.206 -0.7349 -0.5177  0.2572
 7582TIP3   OH244236   1.583   6.152  13.489 -0.3918  0.0554 -0.1651
 7582TIP3    H144237   1.665   6.103  13.482 -0.6493 -0.6144  1.2591
 7582TIP3    H244238   1.595   6.227  13.430  1.4255  0.2170  0.3621
 7583TIP3   OH244239   6.065   2.795  16.988 -0.0484 -0.1487  0.3536
 7583TIP3    H144240   5.982   2.817  16.946  0.1149  0.0304  0.1246
 7583TIP3    H244241   6.047   2.713  17.034  0.5900 -2.0967 -2.5952
 7584TIP3   OH244242   2.627   1.841   1.714 -0.1271 -0.3888  0.1179
 7584TIP3    H144243   2.557   1.877   1.768  0.1322 -0.4610  0.5018
 7584TIP3    H244244   2.595   1.754   1.689 -0.1757 -0.4184  0.2843
 7585TIP3   OH244245   6.105   4.171   6.815 -0.1578  0.3293 -0.1087
 7585TIP3    H144246   6.080   4.221   6.737 -1.1399  0.1241  0.0625
 7585TIP3    H244247   6.032   4.110   6.829  0.4503 -0.2889  0.4159
 7586TIP3   OH244248   0.588   0.464   6.100 -0.0799 -0.1747 -0.2024
 7586TIP3    H144249   0.549   0.455   6.013 -0.5186  0.1114 -0.0382
 7586TIP3    H244250   0.516   0.445   6.160 -0.2580  1.3869  0.1159
 7587TIP3   OH244251   4.968   0.520   3.506  0.1544  0.4353  0.5075
 7587TIP3    H144252   4.912   0.573   3.449  0.5050 -0.0776 -0.3269
 7587TIP3    H244253   5.050   0.568   3.510  0.2394  0.3080  0.3107
 7588TIP3   OH244254   1.953   4.891   4.070  0.0828  0.4620 -0.4791
 7588TIP3    H144255   1.957   4.797   4.056 -2.2090 -0.3945  3.3470
 7588TIP3    H244256   1.882   4.921   4.013 -1.6668 -0.8515  0.9233
 7589TIP3   OH244257   3.066   6.014  11.647 -0.5708 -0.2151 -0.2444
 7589TIP3    H144258   3.054   5.922  11.667 -1.4379 -0.0015  0.3097
 7589TIP3    H244259   2.991   6.036  11.591 -1.0817  0.4273  0.6515
 7590TIP3   OH244260   3.434   0.322   0.653 -0.3067  0.0149  0.0896
 7590TIP3    H144261   3.471   0.273   0.727 -1.2010 -0.1121  0.4654
 7590TIP3    H244262   3.372   0.261   0.613 -0.4750  0.3943 -0.2312
 7591TIP3   OH244263   2.408   3.049  14.001 -0.3328 -0.2615  0.0319
 7591TIP3    H144264   2.397   3.002  13.918  1.8209  1.4222 -1.3179
 7591TIP3    H244265   2.499   3.032  14.026 -0.0789  1.5528  0.4961
 7592TIP3   OH244266   2.502   1.611  12.815  0.4969 -0.2416  0.6012
 7592TIP3    H144267   2.571   1.675  12.796 -0.6431  0.9137  0.2242
 7592TIP3    H244268   2.504   1.551  12.741  0.9357 -0.0868  0.4835
 7593TIP3   OH244269   3.392   5.489  14.900  0.2365  0.3346 -0.1561
 7593TIP3    H144270   3.441   5.417  14.860  2.3238  1.7194 -0.2044
 7593TIP3    H244271   3.420   5.490  14.991  0.0712  0.9788 -0.1093
 7594TIP3   OH244272   1.611   2.762  12.066 -0.5304 -0.1780 -0.1050
 7594TIP3    H144273   1.608   2.708  12.145 -1.4815  0.9309  0.6563
 7594TIP3    H244274   1.526   2.806  12.064  0.0122  0.8831 -0.9920
 7595TIP3   OH244275   2.358   6.709  13.687  1.0013  0.4418 -0.7839
 7595TIP3    H144276   2.433   6.653  13.708 -0.8794 -2.2675 -0.7985
 7595TIP3    H244277   2.345   6.760  13.767  2.6940  0.8377 -0.7076
 7596TIP3   OH244278   3.508   3.735  11.389 -0.6382 -0.5369  0.0374
 7596TIP3    H144279   3.415   3.716  11.402 -0.6213  0.2756  1.6438
 7596TIP3    H244280   3.511   3.783  11.306 -1.2863 -2.8387 -1.3916
 7597TIP3   OH244281   2.141   3.071  11.446 -0.5770  0.6982 -0.1683
 7597TIP3    H144282   2.054   3.111  11.440 -1.2761 -0.6358  0.6802
 7597TIP3    H244283   2.152   3.024  11.363 -2.3411 -2.2893  1.1272
 7598TIP3   OH244284   4.828   2.470  10.793 -0.3607 -0.1081  0.3933
 7598TIP3    H144285   4.822   2.501  10.702  0.4584  1.5710  0.8801
 7598TIP3    H244286   4.900   2.407  10.792 -0.3861 -0.1357 -0.1278
 7599TIP3   OH244287   5.769   4.021   4.417  0.1330 -0.3457  0.1930
 7599TIP3    H144288   5.687   4.018   4.367 -0.7227 -0.8521  1.5323
 7599TIP3    H244289   5.836   3.995   4.355 -0.7863 -0.3093 -0.8524
 7600TIP3   OH244290   4.093   3.984   2.275  0.0480 -0.7158 -0.0596
 7600TIP3    H144291   4.142   3.934   2.340 -0.8054 -0.5628  0.7156
 7600TIP3    H244292   4.081   4.070   2.315 -0.4127 -0.5907 -0.4578
 7601TIP3   OH244293   5.552   4.053   4.281 -0.1154 -0.1035  0.1336
 7601TIP3    H144294   5.513   4.027   4.198 -1.2733 -2.1051  1.2486
 7601TIP3    H244295   5.479   4.091   4.331  0.3525  0.1592  0.6287
 7602TIP3   OH244296   0.560   4.765   0.527 -0.3380 -0.1097 -0.1157
 7602TIP3    H144297   0.614   4.833   0.568 -0.9618  0.0794  0.4046
 7602TIP3    H244298   0.606   4.744   0.446 -0.0398  0.8130 -0.2028
 7603TIP3   OH244299   0.302   0.594  11.946  0.1977 -0.2433  0.2256
 7603TIP3    H144300   0.226   0.586  12.004  0.1884  0.3859  0.3096
 7603TIP3    H244301   0.267   0.633  11.866  0.8283  2.5932  1.2038
 7604TIP3   OH244302   4.868   4.253   5.894 -0.2708 -0.1287  0.3061
 7604TIP3    H144303   4.911   4.337   5.912 -0.3219 -0.2559  1.0690
 7604TIP3    H244304   4.878   4.204   5.976 -1.2319 -0.4351  0.2417
 7605TIP3   OH244305   3.038   4.016   5.661 -0.6021  0.1590  0.0783
 7605TIP3    H144306   2.966   3.969   5.702 -1.3578  1.4876  0.3588
 7605TIP3    H244307   3.037   4.103   5.702  1.7817 -0.0677  0.7858
 7606TIP3   OH244308   5.937   4.875  16.635  0.2875  0.9139 -0.2796
 7606TIP3    H144309   5.989   4.833  16.703 -0.3041  1.0997  0.2925
 7606TIP3    H244310   5.875   4.930  16.683 -0.5259  0.5934 -0.9519
 7607TIP3   OH244311   0.845   6.388   6.006  0.8465 -0.3315 -0.1314
 7607TIP3    H144312   0.906   6.449   6.048  0.0910  0.1997  0.2266
 7607TIP3    H244313   0.892   6.305   6.004  1.4230 -0.0348  0.5299
 7608TIP3   OH244314   1.841   2.942   2.017  0.5726  0.3302  0.3345
 7608TIP3    H144315   1.873   2.884   1.947  0.6821  0.1319  0.5479
 7608TIP3    H244316   1.916   2.998   2.037  0.3135  0.8764 -0.2129
 7609TIP3   OH244317   1.369   2.138   1.604 -0.4971 -0.1314  0.1773
 7609TIP3    H144318   1.337   2.222   1.635 -0.6781  0.5233 -1.6473
 7609TIP3    H244319   1.295   2.078   1.617 -0.7805  0.2634  0.3959
 7610TIP3   OH244320   4.911   3.040   5.958 -0.0885 -0.2872  0.6689
 7610TIP3    H144321   4.917   3.059   6.052 -1.0270  2.7923  0.2086
 7610TIP3    H244322   4.817   3.035   5.941  0.0706 -0.4977 -0.1642
 7611TIP3   OH244323   1.635   6.189  17.482  0.0617 -0.2978  0.0924
 7611TIP3    H144324   1.639   6.125  17.410  0.8567 -1.1448  0.8603
 7611TIP3    H244325   1.583   6.261  17.447  0.8529 -0.4607 -1.5194
 7612TIP3   OH244326   0.533   4.965   4.960  0.0389 -0.3391 -0.5269
 7612TIP3    H144327   0.542   4.883   4.911 -2.5232 -0.4238 -0.9923
 7612TIP3    H244328   0.588   5.027   4.912  2.8421 -1.9139  0.4072
 7613TIP3   OH244329   1.297   6.527  15.889  0.1415 -0.4360  0.1634
 7613TIP3    H144330   1.372   6.577  15.921  0.3527 -0.7902  0.2307
 7613TIP3    H244331   1.274   6.470  15.962  0.6605 -1.2881 -0.3264
 7614TIP3   OH244332   2.657   4.326  14.015  0.6003 -0.0395  0.6254
 7614TIP3    H144333   2.698   4.251  14.058 -0.1739  0.3897  2.2028
 7614TIP3    H244334   2.682   4.401  14.070  1.1460  0.8449 -0.7719
 7615TIP3   OH244335   3.861   3.403  15.212  0.1125  0.0408  0.2031
 7615TIP3    H144336   3.908   3.481  15.243 -1.8081  0.9024  1.1226
 7615TIP3    H244337   3.832   3.427  15.124  1.5502 -0.5991 -0.4794
 7616TIP3   OH244338   4.809   6.578   4.127  0.1019 -0.2242 -0.3627
 7616TIP3    H144339   4.754   6.657   4.135 -0.7765 -0.9844  2.1673
 7616TIP3    H244340   4.827   6.571   4.034 -1.6522  1.7361 -0.9400
 7617TIP3   OH244341   4.505   4.185   5.097 -0.0363  0.5726  0.1930
 7617TIP3    H144342   4.559   4.263   5.109 -0.2681  0.6622  0.6602
 7617TIP3    H244343   4.513   4.165   5.003  1.4374  0.1174  0.3852
 7618TIP3   OH244344   2.267   0.001  17.158  0.0610 -0.1238  0.4221
 7618TIP3    H144345   2.311  -0.033  17.080 -0.3928 -0.8733  0.4778
 7618TIP3    H244346   2.249   0.093  17.138  2.1261  0.3675  0.6188
 7619TIP3   OH244347   0.388   0.971  14.189  0.1381  0.4935  0.4514
 7619TIP3    H144348   0.482   0.980  14.203  0.1047  1.5643  0.0645
 7619TIP3    H244349   0.368   1.032  14.118 -0.8430  0.2580  0.5076
 7620TIP3   OH244350   3.428   4.480   3.503 -0.1181  0.3656 -0.1992
 7620TIP3    H144351   3.361   4.412   3.507 -1.7497  1.8810 -0.7634
 7620TIP3    H244352   3.397   4.549   3.561  1.5820  0.6361  0.4748
 7621TIP3   OH244353   4.475   0.638   5.902 -0.5077 -0.0020  0.0485
 7621TIP3    H144354   4.532   0.677   5.968 -1.7291  2.4280 -0.2160
 7621TIP3    H244355   4.415   0.709   5.878 -1.1834 -1.3099 -2.4256
 7622TIP3   OH244356   2.968   0.542  12.106  0.4324 -0.1899 -0.2517
 7622TIP3    H144357   2.894   0.602  12.091  0.6758  0.0475 -0.5263
 7622TIP3    H244358   3.003   0.526  12.019  0.3284 -0.7947 -0.1852
 7623TIP3   OH244359   4.942   1.040   6.263 -0.7807  0.1097 -0.4282
 7623TIP3    H144360   5.007   1.028   6.332  0.6998  1.8952 -1.4064
 7623TIP3    H244361   4.923   1.134   6.263 -2.3310 -0.1569 -1.1018
 7624TIP3   OH244362   6.595   4.868  11.465  0.0906 -0.1165  0.4978
 7624TIP3    H144363   6.604   4.777  11.437 -0.5451 -0.0612  0.1080
 7624TIP3    H244364   6.658   4.916  11.412 -2.6684  0.3552 -2.6377
 7625TIP3   OH244365   4.421   3.996   2.278 -0.7340 -0.0277 -0.0689
 7625TIP3    H144366   4.430   3.968   2.369  0.0260 -0.9141 -0.3967
 7625TIP3    H244367   4.381   4.083   2.283 -0.7586 -0.0911  1.1022
 7626TIP3   OH244368   6.080   2.518   4.109 -0.5230  0.0536  0.4195
 7626TIP3    H144369   6.145   2.447   4.114 -0.6188 -0.2125 -1.2505
 7626TIP3    H244370   6.128   2.596   4.136  1.1121  0.1835 -2.4348
 7627TIP3   OH244371   4.892   3.587  15.495  0.0900 -0.1780 -0.0964
 7627TIP3    H144372   4.929   3.569  15.409  0.1656  0.9109 -0.3057
 7627TIP3    H244373   4.938   3.526  15.554  0.1145 -0.8506 -0.7969
 7628TIP3   OH244374   4.829   0.637   0.184  0.3214 -0.2432 -0.1020
 7628TIP3    H144375   4.815   0.651   0.278  1.0254 -0.2865  0.0170
 7628TIP3    H244376   4.793   0.715   0.142  3.0406  1.4465  0.4549
 7629TIP3   OH244377   4.815   2.634   2.271  0.1847  0.4192  0.3897
 7629TIP3    H144378   4.774   2.578   2.336 -0.5648  0.3759 -0.1109
 7629TIP3    H244379   4.827   2.718   2.316 -1.9335  0.9491  0.1027
 7630TIP3   OH244380   4.867   1.646   6.038 -0.1829  0.5976 -0.2150
 7630TIP3    H144381   4.903   1.559   6.055  0.1097  0.7587  0.0017
 7630TIP3    H244382   4.776   1.630   6.012 -0.0892  0.2178 -0.3206
 7631TIP3   OH244383   2.368   3.046   0.212  0.6136 -0.1749 -0.0812
 7631TIP3    H144384   2.353   2.953   0.231  2.7164 -0.9497 -1.8624
 7631TIP3    H244385   2.305   3.067   0.143  0.5962 -0.4633 -0.1536
 7632TIP3   OH244386   3.477   3.377  16.633  0.3076 -0.0047  0.2685
 7632TIP3    H144387   3.533   3.325  16.690  1.8567  0.9378 -0.3211
 7632TIP3    H244388   3.531   3.395  16.556 -0.5141  1.6087  0.0138
 7633TIP3   OH244389   1.073   6.255  17.046 -0.3059  0.0171  0.3881
 7633TIP3    H144390   0.982   6.267  17.073 -0.4415 -1.2784  0.5437
 7633TIP3    H244391   1.117   6.334  17.077 -1.1270  0.0923  1.4178
 7634TIP3   OH244392   4.041   2.586   0.304  0.3983 -0.0799 -0.0930
 7634TIP3    H144393   3.972   2.550   0.361  2.1244 -0.3174  1.9659
 7634TIP3    H244394   4.106   2.516   0.298  1.5936  0.9838  0.0196
 7635TIP3   OH244395   3.662   6.517   3.857 -0.2520 -0.0798 -0.4808
 7635TIP3    H144396   3.714   6.438   3.870 -1.1048 -0.6087 -0.1944
 7635TIP3    H244397   3.675   6.568   3.937 -0.7569 -0.5535 -0.0934
 7636TIP3   OH244398   5.686   2.364  16.129  0.0092  0.1621 -0.1279
 7636TIP3    H144399   5.707   2.289  16.184 -1.6605 -0.0424  0.2782
 7636TIP3    H244400   5.699   2.333  16.040  0.3602 -0.2730  0.0765
 7637TIP3   OH244401   6.721   1.859   0.444  0.4447  0.0880  0.3741
 7637TIP3    H144402   6.767   1.907   0.375 -0.3877 -0.1409 -0.3526
 7637TIP3    H244403   6.691   1.926   0.504 -0.4157  0.4651 -0.4566
 7638TIP3   OH244404   0.143   4.317   2.860 -0.1799  0.4365 -0.2236
 7638TIP3    H144405   0.180   4.361   2.784  0.5061 -0.6123 -0.5085
 7638TIP3    H244406   0.195   4.238   2.871 -0.1154  0.6693  1.4842
 7639TIP3   OH244407   1.510   3.746   1.542  0.4116 -0.6447  0.1294
 7639TIP3    H144408   1.467   3.822   1.581  1.4952 -1.4274  3.1301
 7639TIP3    H244409   1.602   3.756   1.567  0.7688 -2.3957 -0.3843
 7640TIP3   OH244410   1.468   4.618  14.738 -0.5613  0.2170 -0.1032
 7640TIP3    H144411   1.514   4.577  14.811 -0.5083 -1.3517 -0.9608
 7640TIP3    H244412   1.471   4.552  14.668  0.7349  2.2156 -2.0602
 7641TIP3   OH244413   3.808   2.188  17.349  0.5750 -0.4660  0.0634
 7641TIP3    H144414   3.756   2.173  17.269  0.8389  0.1774 -0.2397
 7641TIP3    H244415   3.895   2.156  17.327  0.0546 -2.7478  1.0077
 7642TIP3   OH244416   4.184   3.412   4.618 -0.0705 -0.2507  0.1545
 7642TIP3    H144417   4.107   3.403   4.562  0.3791 -2.6109 -0.2030
 7642TIP3    H244418   4.157   3.472   4.688 -2.8013 -2.1329  0.8934
 7643TIP3   OH244419   6.105   6.448   4.864 -0.1541  0.1942  0.0785
 7643TIP3    H144420   6.108   6.542   4.846  0.0113  0.6274  2.1195
 7643TIP3    H244421   6.018   6.421   4.835 -1.1312  1.5045  1.6673
 7644TIP3   OH244422   6.693   6.202   1.678 -0.4077 -0.7714 -0.3338
 7644TIP3    H144423   6.774   6.156   1.699  0.1152  0.2303 -0.0683
 7644TIP3    H244424   6.625   6.136   1.687  0.5447 -2.1281 -2.3972
 7645TIP3   OH244425   5.377   0.540   5.451 -0.0281  0.2375  0.6633
 7645TIP3    H144426   5.433   0.551   5.529  0.6440  2.5834 -0.0720
 7645TIP3    H244427   5.406   0.457   5.413 -0.6917 -1.2451  3.0928
 7646TIP3   OH244428   2.228   0.896  16.178  0.0897  0.2358  0.6575
 7646TIP3    H144429   2.226   0.990  16.160 -1.0479  0.2420  0.7163
 7646TIP3    H244430   2.239   0.856  16.093 -1.5543  0.3802  0.3392
 7647TIP3   OH244431   4.985   0.313   5.597  0.3800  0.0810  0.0549
 7647TIP3    H144432   4.985   0.218   5.601 -0.1681  0.1096  1.2440
 7647TIP3    H244433   4.894   0.337   5.582  0.2641  0.4386  1.2204
 7648TIP3   OH244434   3.730   2.957  11.604  0.1613  0.7159  0.1630
 7648TIP3    H144435   3.772   2.981  11.521  1.6320  0.3593  0.7736
 7648TIP3    H244436   3.735   2.862  11.606 -0.6372  0.6685  0.2953
 7649TIP3   OH244437   4.609   6.249  12.369 -0.1612 -0.3437  0.6749
 7649TIP3    H144438   4.608   6.253  12.464  1.6028  0.6977  0.6995
 7649TIP3    H244439   4.610   6.341  12.342  0.7686 -0.6162 -0.2859
 7650TIP3   OH244440   6.371   3.200   3.387  1.0408 -0.2517 -0.1800
 7650TIP3    H144441   6.391   3.109   3.368 -0.8428 -0.9789  1.0559
 7650TIP3    H244442   6.391   3.211   3.480 -0.5059  0.0118  0.1583
 7651TIP3   OH244443   2.633   6.630  11.883  0.3839  0.2305  0.4229
 7651TIP3    H144444   2.717   6.591  11.858  0.2450 -0.1387  0.5314
 7651TIP3    H244445   2.656   6.717  11.915  0.6920  0.2552  0.1457
 7652TIP3   OH244446   5.937   5.688   4.015  0.3697  1.0359 -0.5799
 7652TIP3    H144447   5.864   5.745   3.989  0.4264  1.1291 -0.5342
 7652TIP3    H244448   5.921   5.607   3.967  0.3512  1.1296 -0.7340
 7653TIP3   OH244449   2.965   5.266   5.983 -0.1356  0.0181 -0.1852
 7653TIP3    H144450   3.000   5.260   6.072 -3.0478  2.0367  1.2312
 7653TIP3    H244451   3.036   5.306   5.933  0.8636  0.7430  1.6958
 7654TIP3   OH244452   5.811   2.819   1.879  0.3486 -0.1505 -0.2163
 7654TIP3    H144453   5.740   2.758   1.863  0.1877  0.2607 -1.1192
 7654TIP3    H244454   5.804   2.883   1.808  1.0728  0.3921  0.1919
 7655TIP3   OH244455   2.422   1.627  13.425 -0.2583 -0.8547  0.3767
 7655TIP3    H144456   2.514   1.599  13.417 -0.4167 -1.2889  0.0514
 7655TIP3    H244457   2.428   1.718  13.453  0.2970 -0.3980 -1.1352
 7656TIP3   OH244458   6.266   2.815  12.931 -0.3736  0.2287 -0.2675
 7656TIP3    H144459   6.187   2.820  12.877 -0.7641  0.3185  0.3050
 7656TIP3    H244460   6.316   2.743  12.893  0.5357  1.8466 -2.2980
 7657TIP3   OH244461   4.624   2.667   0.734 -0.1834  0.3368  0.0986
 7657TIP3    H144462   4.600   2.659   0.642 -1.4258  1.3649  0.3088
 7657TIP3    H244463   4.565   2.734   0.768 -0.0953 -0.4150  1.7808
 7658TIP3   OH244464   5.230   5.536   5.559 -0.4372 -0.5694 -0.3771
 7658TIP3    H144465   5.303   5.593   5.535  2.6924 -4.2278 -0.4075
 7658TIP3    H244466   5.181   5.524   5.478 -1.2671  1.9462 -0.3530
 7659TIP3   OH244467   5.030   6.496   0.871  0.2489 -0.5016  0.0956
 7659TIP3    H144468   4.968   6.513   0.801  1.1848  0.1919 -0.5723
 7659TIP3    H244469   5.106   6.458   0.828  1.6442  1.7538  0.4188
 7660TIP3   OH244470   0.582   3.339   3.678 -0.0004  0.4170 -0.3840
 7660TIP3    H144471   0.533   3.384   3.610  1.4079  2.1686 -0.2925
 7660TIP3    H244472   0.631   3.408   3.723  0.3332 -0.8936  1.3829
 7661TIP3   OH244473   4.457   3.692  15.067  0.0179  0.0508 -0.4471
 7661TIP3    H144474   4.389   3.737  15.017 -1.5254 -0.4070  1.1123
 7661TIP3    H244475   4.413   3.614  15.102  2.3079 -2.2379 -2.2554
 7662TIP3   OH244476   1.734   4.639   5.710 -0.0824 -0.4313 -0.1548
 7662TIP3    H144477   1.654   4.658   5.760  0.6614  1.5762  0.3895
 7662TIP3    H244478   1.703   4.621   5.622 -1.1874 -0.3490  0.1975
 7663TIP3   OH244479   2.563   0.850  11.181 -0.0910 -0.5280 -0.1449
 7663TIP3    H144480   2.485   0.846  11.126  0.4631  0.7073 -1.0911
 7663TIP3    H244481   2.591   0.759  11.191 -0.4219 -0.8127 -1.6246
 7664TIP3   OH244482   0.504   5.599   4.204 -0.4333  0.0642 -0.6327
 7664TIP3    H144483   0.534   5.631   4.289 -2.4667  1.4951 -0.3834
 7664TIP3    H244484   0.501   5.504   4.214  1.1783  0.0634  0.2135
 7665TIP3   OH244485   0.330   6.359  14.487  0.8340  0.4100 -0.2241
 7665TIP3    H144486   0.402   6.306  14.452  1.5155  1.0306  0.2032
 7665TIP3    H244487   0.367   6.399  14.566 -0.1229  0.4021  0.2334
 7666TIP3   OH244488   4.427   5.997   1.837  0.6571 -0.7538 -0.0389
 7666TIP3    H144489   4.469   5.914   1.817  1.4710 -0.0538 -1.4399
 7666TIP3    H244490   4.454   6.055   1.766  0.3883  0.8006  1.0638
 7667TIP3   OH244491   3.517   4.485  16.201  0.0438 -0.5531 -0.3854
 7667TIP3    H144492   3.595   4.439  16.172  0.1902 -0.2565 -0.4658
 7667TIP3    H244493   3.487   4.534  16.124  0.4129  0.2043 -0.0619
 7668TIP3   OH244494   1.686   1.850   3.857 -0.1186 -0.1825  0.3792
 7668TIP3    H144495   1.753   1.907   3.819  0.9102 -0.5736  1.5279
 7668TIP3    H244496   1.678   1.879   3.948 -1.2020 -0.4329  0.3737
 7669TIP3   OH244497   1.588   2.807   3.029 -0.4148  0.1003  0.3377
 7669TIP3    H144498   1.633   2.812   2.945  2.1647 -2.2127  1.4422
 7669TIP3    H244499   1.586   2.898   3.060  0.5097  0.7093 -1.2602
 7670TIP3   OH244500   4.684   1.451  14.228 -0.0848  0.1327  0.5912
 7670TIP3    H144501   4.660   1.393  14.300  1.0240 -2.2351 -0.8430
 7670TIP3    H244502   4.606   1.453  14.172 -0.3352  0.5720  0.9436
 7671TIP3   OH244503   6.737   2.992   3.935  0.5952 -0.1920  0.0987
 7671TIP3    H144504   6.753   2.974   4.028  0.5201 -1.3551 -0.0890
 7671TIP3    H244505   6.816   3.038   3.905  0.4011  0.6428  0.8432
 7672TIP3   OH244506   5.574   4.743  12.595  0.3294 -0.0361 -0.2126
 7672TIP3    H144507   5.483   4.720  12.615  0.2617  0.7446  0.4341
 7672TIP3    H244508   5.624   4.664  12.616 -0.2557 -0.6732 -1.1419
 7673TIP3   OH244509   3.632   5.266  13.082 -0.1315  0.2622 -0.5700
 7673TIP3    H144510   3.718   5.261  13.042  0.9698 -0.4175  1.7035
 7673TIP3    H244511   3.577   5.310  13.017  1.6191 -0.3080 -2.5352
 7674TIP3   OH244512   1.350   5.774   3.527  0.4549  0.8255 -0.1738
 7674TIP3    H144513   1.361   5.862   3.493  0.1910  0.8057 -0.3119
 7674TIP3    H244514   1.398   5.774   3.610 -0.0589  1.2793  0.1219
 7675TIP3   OH244515   4.818   2.581   6.704 -0.3336 -0.2958  0.5702
 7675TIP3    H144516   4.868   2.662   6.705  1.6732 -1.4517  1.7059
 7675TIP3    H244517   4.739   2.600   6.753  0.5167  0.7671  1.5723
 7676TIP3   OH244518   4.781   3.727   2.201  0.0350 -0.2756 -0.9869
 7676TIP3    H144519   4.686   3.736   2.191  0.0547  0.6172 -0.4644
 7676TIP3    H244520   4.797   3.632   2.196 -0.8798 -0.4341 -1.0394
 7677TIP3   OH244521   5.263   2.276  13.482 -0.1600 -0.1441  0.0557
 7677TIP3    H144522   5.307   2.331  13.417  0.7142 -0.0001  0.7516
 7677TIP3    H244523   5.294   2.309  13.567 -1.1936 -0.4003  0.5476
 7678TIP3   OH244524   2.837   1.986   1.771 -0.4520  0.1996 -0.2633
 7678TIP3    H144525   2.889   1.933   1.712 -0.1752 -0.2772  0.3954
 7678TIP3    H244526   2.748   1.953   1.761 -0.3483 -0.1138 -0.1598
 7679TIP3   OH244527   0.779   4.031   5.236  0.0260  0.1374 -0.7647
 7679TIP3    H144528   0.756   3.948   5.279 -0.2327  0.6794  0.1819
 7679TIP3    H244529   0.724   4.034   5.158  1.7812 -1.7208 -2.2039
 7680TIP3   OH244530   0.896   5.383   0.731 -0.3463  0.0739  0.6301
 7680TIP3    H144531   0.944   5.455   0.771 -1.0479  0.5830  0.5617
 7680TIP3    H244532   0.901   5.400   0.637  0.7935 -0.8010  0.5121
 7681TIP3   OH244533   3.938   2.879   0.756  0.1501 -0.0647  0.2684
 7681TIP3    H144534   3.872   2.842   0.698 -1.0267  1.3477  0.6462
 7681TIP3    H244535   3.922   2.838   0.841 -2.4806  2.5677  1.2165
 7682TIP3   OH244536   0.312   5.520   0.972  0.2222 -0.1942  0.1432
 7682TIP3    H144537   0.373   5.451   0.996 -1.3814 -1.2803  1.3092
 7682TIP3    H244538   0.256   5.531   1.049  0.0955  2.0603 -0.2034
 7683TIP3   OH244539   4.981   5.236  14.251 -0.0325  0.2185 -0.0459
 7683TIP3    H144540   4.927   5.224  14.172 -0.0168  1.0003 -0.1770
 7683TIP3    H244541   4.987   5.148  14.288 -2.2171  0.2610  0.5220
 7684TIP3   OH244542   6.723   3.148   1.062 -0.1926 -0.5738 -0.4063
 7684TIP3    H144543   6.649   3.205   1.040 -1.2542 -1.3338  0.9860
 7684TIP3    H244544   6.756   3.183   1.145  1.1450 -0.1479 -1.0956
 7685TIP3   OH244545   0.038   2.612   6.087  0.0932  0.6349  0.1498
 7685TIP3    H144546   0.092   2.572   6.019  0.2579  0.0045  0.6339
 7685TIP3    H244547  -0.028   2.545   6.107  0.0982  0.7797  0.6687
 7686TIP3   OH244548   1.032   6.000   4.022  0.2551 -0.1339 -0.0722
 7686TIP3    H144549   1.002   5.936   4.087  1.0537 -1.3971 -0.8992
 7686TIP3    H244550   0.963   6.001   3.956 -0.6188  1.2470  0.8045
 7687TIP3   OH244551   3.241   0.070  10.952 -0.3836 -0.3827 -0.1543
 7687TIP3    H144552   3.207  -0.007  10.997 -0.8278 -1.3608 -2.0731
 7687TIP3    H244553   3.330   0.046  10.927  1.3342  1.5296  3.3048
 7688TIP3   OH244554   0.653   1.085   1.083 -0.5967 -0.0521  0.3503
 7688TIP3    H144555   0.586   1.149   1.109  0.3493  1.4100 -0.6753
 7688TIP3    H244556   0.718   1.088   1.154 -0.3766  0.3962  0.1308
 7689TIP3   OH244557   1.123   1.791   1.798  0.1037 -0.1489  0.2860
 7689TIP3    H144558   1.038   1.772   1.758  0.9584 -2.1327 -0.7173
 7689TIP3    H244559   1.124   1.887   1.806 -1.1068  0.1768 -2.2486
 7690TIP3   OH244560   2.237   4.915   5.654  0.5290  0.0892  0.3705
 7690TIP3    H144561   2.180   4.838   5.655 -1.0372  1.1993 -0.2720
 7690TIP3    H244562   2.277   4.915   5.741  1.7773 -2.2828 -0.1162
 7691TIP3   OH244563   3.756   1.731  13.970 -0.0116 -0.5895 -0.0816
 7691TIP3    H144564   3.813   1.770  14.037  0.4002 -1.8256  0.3066
 7691TIP3    H244565   3.733   1.645  14.006  0.1335 -1.2270 -1.4793
 7692TIP3   OH244566   0.115   2.513   2.802  0.2298  0.2224  1.0914
 7692TIP3    H144567   0.145   2.579   2.740  1.2979 -0.9108  0.3607
 7692TIP3    H244568   0.019   2.521   2.799  0.1815 -0.3396 -1.3662
 7693TIP3   OH244569   0.620   6.537  11.629  0.2481 -0.1928  0.1774
 7693TIP3    H144570   0.624   6.632  11.639  1.4381 -0.2360  0.2506
 7693TIP3    H244571   0.592   6.523  11.538 -0.1116  0.2295  0.2253
 7694TIP3   OH244572   2.996   5.169  14.730 -0.1777  0.3784 -0.1898
 7694TIP3    H144573   3.032   5.145  14.815  1.0613  1.2498 -0.4400
 7694TIP3    H244574   2.908   5.202  14.749  0.1357  0.6975  0.7637
 7695TIP3   OH244575   5.600   6.261  14.336 -0.0139  0.1213 -0.0696
 7695TIP3    H144576   5.530   6.200  14.359  0.9353 -0.4575  1.4524
 7695TIP3    H244577   5.660   6.210  14.282 -0.1809  0.2794 -0.4063
 7696TIP3   OH244578   0.643   0.537  14.638  0.0506  0.1835 -0.0099
 7696TIP3    H144579   0.615   0.596  14.569 -1.0159  0.2803  0.4860
 7696TIP3    H244580   0.708   0.480  14.597  0.0945  0.8252 -0.8447
 7697TIP3   OH244581   4.181   6.421  11.392  0.3754  0.1568 -0.4221
 7697TIP3    H144582   4.126   6.496  11.416  0.8609  0.1971  0.6197
 7697TIP3    H244583   4.147   6.393  11.307 -0.3899  1.0040 -0.4165
 7698TIP3   OH244584   3.471   0.085  13.739 -0.5733 -0.2179 -0.2023
 7698TIP3    H144585   3.409   0.153  13.767  1.4221  2.0730 -0.9643
 7698TIP3    H244586   3.482   0.030  13.816 -2.8166 -0.1884  0.2222
 7699TIP3   OH244587   0.826   0.663  17.436 -0.2440 -0.3485 -0.0690
 7699TIP3    H144588   0.817   0.699  17.524 -3.1872 -1.4933  0.2093
 7699TIP3    H244589   0.854   0.738  17.382  0.0571  0.7499  1.5495
 7700TIP3   OH244590   1.722   1.386   3.831 -0.2734 -0.6685  0.2781
 7700TIP3    H144591   1.778   1.332   3.887 -0.1515 -0.3902  0.4269
 7700TIP3    H244592   1.698   1.460   3.886  2.3013  1.2041 -0.9294
 7701TIP3   OH244593   1.492   1.379   5.110 -0.3170 -0.1497 -0.2100
 7701TIP3    H144594   1.408   1.412   5.077  0.0956 -0.0615 -1.2258
 7701TIP3    H244595   1.554   1.398   5.039  0.0389 -2.6190 -0.6509
 7702TIP3   OH244596   2.538   2.028  17.385  0.4664 -0.0528  0.4006
 7702TIP3    H144597   2.560   1.939  17.413 -0.8707 -0.3739  0.5271
 7702TIP3    H244598   2.613   2.056  17.333  1.1101 -1.0853  0.7430
 7703TIP3   OH244599   2.325   2.412   4.451 -0.0488  0.1047  0.4607
 7703TIP3    H144600   2.335   2.430   4.545  1.8863  0.1239  0.2874
 7703TIP3    H244601   2.261   2.477   4.421 -1.1132 -0.2502  1.8425
 7704TIP3   OH244602   0.637   2.258   4.769  0.1126 -0.0595  0.8389
 7704TIP3    H144603   0.584   2.255   4.689 -0.2925 -1.3541  1.1236
 7704TIP3    H244604   0.724   2.228   4.742 -0.7958 -3.6315  1.3753
 7705TIP3   OH244605   3.207   1.677  15.128 -0.5630  0.6350 -0.3356
 7705TIP3    H144606   3.162   1.736  15.068  0.0628  0.5114 -0.9363
 7705TIP3    H244607   3.251   1.735  15.190  3.2528  1.0855 -3.1472
 7706TIP3   OH244608   4.076   4.177   0.835  0.1607  0.4083  1.0201
 7706TIP3    H144609   4.023   4.098   0.824 -1.5391  1.1665  2.9550
 7706TIP3    H244610   4.141   4.153   0.901  1.0777  0.0026 -0.0204
 7707TIP3   OH244611   4.190   2.794  14.994  0.4064 -0.2429 -0.0149
 7707TIP3    H144612   4.187   2.817  14.902  0.0186  1.1068  0.3137
 7707TIP3    H244613   4.277   2.757  15.008 -0.3482 -2.7746 -1.4123
 7708TIP3   OH244614   3.232   5.101   0.458 -0.3290  0.6168 -0.4136
 7708TIP3    H144615   3.185   5.135   0.534 -1.5807 -1.9083  0.0458
 7708TIP3    H244616   3.198   5.012   0.447  2.6038 -0.4584 -1.6046
 7709TIP3   OH244617   4.683   2.720  14.653  0.0351  0.7998 -0.2671
 7709TIP3    H144618   4.664   2.652  14.588  0.4041  0.6077 -0.1764
 7709TIP3    H244619   4.712   2.672  14.731  3.3176  1.0782 -1.1464
 7710TIP3   OH244620   3.942   1.317  17.309 -0.9224 -0.6917 -0.4476
 7710TIP3    H144621   3.869   1.356  17.261 -0.8492  0.7733  0.5598
 7710TIP3    H244622   4.006   1.389  17.318 -0.4980 -1.2089  0.9184
 7711TIP3   OH244623   5.891   4.396   5.913 -0.0834 -0.0814 -0.5987
 7711TIP3    H144624   5.903   4.302   5.925  2.8992  0.4334  2.0665
 7711TIP3    H244625   5.971   4.425   5.869 -0.0027  1.4137  0.4597
 7712TIP3   OH244626   3.421   0.052   1.062 -0.0843 -0.5078  0.3053
 7712TIP3    H144627   3.403  -0.033   1.023  2.1051 -0.6640 -0.5048
 7712TIP3    H244628   3.419   0.113   0.988 -1.6143  0.1816  0.8724
 7713TIP3   OH244629   1.447   6.531   2.771 -0.0680 -0.1056 -0.5971
 7713TIP3    H144630   1.401   6.531   2.686 -0.0223  0.7924 -0.6297
 7713TIP3    H244631   1.376   6.533   2.836 -0.1145 -1.2423 -0.5906
 7714TIP3   OH244632   2.563   4.263   3.509 -0.5006  0.4873 -0.1106
 7714TIP3    H144633   2.587   4.189   3.565 -1.2778 -0.4390 -0.9482
 7714TIP3    H244634   2.476   4.290   3.541 -1.4599 -0.7681 -1.5030
 7715TIP3   OH244635   4.121   0.822   4.396 -0.0685 -0.9462 -0.1150
 7715TIP3    H144636   4.149   0.882   4.466  1.3631  0.9759 -2.2160
 7715TIP3    H244637   4.197   0.765   4.383 -0.2821 -1.2124 -0.1909
 7716TIP3   OH244638   4.220   4.818  11.322  0.6945 -0.0896 -0.2408
 7716TIP3    H144639   4.186   4.823  11.233  0.2053 -1.5644 -0.1618
 7716TIP3    H244640   4.289   4.752  11.317  1.5124  0.7125  0.2297
 7717TIP3   OH244641   0.949   2.754  15.905  0.2829 -0.0676  0.1035
 7717TIP3    H144642   0.894   2.676  15.912  1.7330 -1.4277 -2.4339
 7717TIP3    H244643   0.919   2.798  15.825 -0.1292  1.7641  1.1870
 7718TIP3   OH244644   4.900   1.544  14.083 -0.2468  0.2395 -0.5872
 7718TIP3    H144645   4.967   1.479  14.062 -0.2591  0.4708 -1.3817
 7718TIP3    H244646   4.832   1.494  14.128  0.3567 -0.0374  0.0368
 7719TIP3   OH244647   4.315   4.434   0.562  1.1433  0.4137  0.3684
 7719TIP3    H144648   4.299   4.525   0.586  0.5229  0.4519 -0.1640
 7719TIP3    H244649   4.380   4.404   0.625  0.9299  1.0537  0.9072
 7720TIP3   OH244650   6.594   0.581  12.367  0.6267 -0.4849 -0.2565
 7720TIP3    H144651   6.642   0.662  12.352  0.0953  0.3487  2.1270
 7720TIP3    H244652   6.501   0.607  12.364  0.3634 -1.4747 -1.7132
 7721TIP3   OH244653   4.372   2.211   4.381 -0.2030  0.0283  0.0584
 7721TIP3    H144654   4.336   2.193   4.294 -0.4647 -4.2652  0.8136
 7721TIP3    H244655   4.467   2.202   4.369 -0.0845  1.2361 -0.0486
 7722TIP3   OH244656   3.136   2.507   6.368 -0.1491  0.4187 -0.5197
 7722TIP3    H144657   3.110   2.415   6.363 -2.6728  1.0469 -0.4825
 7722TIP3    H244658   3.161   2.520   6.460  1.7073 -0.5318 -0.8496
 7723TIP3   OH244659   5.763   0.341   6.532 -0.1956  0.1607 -0.1879
 7723TIP3    H144660   5.847   0.378   6.561 -0.1470 -0.4311  0.4578
 7723TIP3    H244661   5.780   0.309   6.444  0.4838 -0.6320  0.2158
 7724TIP3   OH244662   2.480   6.708  13.032  0.2120  1.2793 -0.0557
 7724TIP3    H144663   2.457   6.677  12.945  1.2431  0.9607 -0.2284
 7724TIP3    H244664   2.451   6.800  13.033 -0.9956  0.9237 -0.2559
 7725TIP3   OH244665   1.659   6.353   0.348  0.0465  0.2773  0.0549
 7725TIP3    H144666   1.698   6.437   0.325 -0.7484  0.5330 -0.3891
 7725TIP3    H244667   1.702   6.290   0.289  1.1077  0.2576  0.8287
 7726TIP3   OH244668   0.156   4.146  15.618 -0.6868 -0.1077  0.1632
 7726TIP3    H144669   0.112   4.204  15.556 -0.0565 -0.2729 -0.4396
 7726TIP3    H244670   0.243   4.184  15.630 -0.6939 -0.2508  0.7090
 7727TIP3   OH244671   4.547   5.136  10.881  0.0146 -0.2467 -0.4696
 7727TIP3    H144672   4.603   5.214  10.882  1.4621 -1.2509  0.1943
 7727TIP3    H244673   4.497   5.144  10.800 -0.9308  2.0638  0.2545
 7728TIP3   OH244674   4.813   0.857   6.490  0.1528 -0.7698  0.2013
 7728TIP3    H144675   4.736   0.847   6.546 -0.7876 -0.1624 -0.9359
 7728TIP3    H244676   4.813   0.950   6.466  1.6101 -0.6282  0.6832
 7729TIP3   OH244677   2.380   4.084   2.205 -0.1003  0.1842 -0.0200
 7729TIP3    H144678   2.468   4.100   2.170 -0.0961 -2.6092 -1.5491
 7729TIP3    H244679   2.323   4.084   2.129 -0.9453 -0.9192  0.5892
 7730TIP3   OH244680   4.554   2.865  13.609  0.6472 -0.1576  0.4115
 7730TIP3    H144681   4.473   2.866  13.558  1.7379 -2.1322 -1.5648
 7730TIP3    H244682   4.605   2.939  13.575 -0.0745  0.7718  1.2953
 7731TIP3   OH244683   5.215   1.969   2.122  0.2505  0.1528 -0.0667
 7731TIP3    H144684   5.215   1.886   2.170  1.5702  0.2673  0.1581
 7731TIP3    H244685   5.181   1.946   2.035 -0.4445 -0.3961  0.3321
 7732TIP3   OH244686   2.025   0.658  12.265  0.2877  0.1584 -0.5497
 7732TIP3    H144687   2.015   0.613  12.349  0.0834 -0.8679 -1.1079
 7732TIP3    H244688   2.030   0.751  12.288  0.1808 -0.1022  0.5893
 7733TIP3   OH244689   2.733   3.878   1.491  0.2623  0.2514  1.1618
 7733TIP3    H144690   2.691   3.792   1.492 -1.8051  1.1386 -0.7533
 7733TIP3    H244691   2.797   3.872   1.420  1.0664 -0.0632  1.8900
 7734TIP3   OH244692   5.741   3.300  15.001  0.3797 -0.5387  0.0569
 7734TIP3    H144693   5.646   3.286  15.009  0.4178 -0.6846  0.2745
 7734TIP3    H244694   5.751   3.351  14.921  0.2597 -2.1956 -1.0725
 7735TIP3   OH244695   2.396   6.001   4.515  0.4807  0.0780 -0.5555
 7735TIP3    H144696   2.383   5.912   4.482  0.2370  0.1023 -0.5275
 7735TIP3    H244697   2.491   6.010   4.524  0.5209 -0.0915 -0.7987
 7736TIP3   OH244698   6.230   3.227  12.678 -0.0120  0.2207  0.5016
 7736TIP3    H144699   6.318   3.193  12.693 -0.1238 -0.1015  0.4221
 7736TIP3    H244700   6.202   3.187  12.596  0.6684  2.1252 -0.7291
 7737TIP3   OH244701   0.780   3.188   2.330 -0.6081  0.4814  0.2532
 7737TIP3    H144702   0.818   3.106   2.296 -1.4241  0.3820 -0.4722
 7737TIP3    H244703   0.828   3.205   2.411  1.2840  0.6008 -0.8198
 7738TIP3   OH244704   3.775   5.744  17.392 -0.0437 -0.3124 -0.2304
 7738TIP3    H144705   3.796   5.836  17.409 -0.6802 -0.4394  1.3696
 7738TIP3    H244706   3.692   5.747  17.345  0.3672 -0.0576 -0.9656
 7739TIP3   OH244707   6.146   5.186  17.217  0.2453  0.1875 -0.1334
 7739TIP3    H144708   6.075   5.242  17.250  0.7842  0.2080  1.0320
 7739TIP3    H244709   6.195   5.161  17.295  2.1471  1.0265 -1.0088
 7740TIP3   OH244710   1.322   6.213   5.591 -0.2174  0.9393 -0.3264
 7740TIP3    H144711   1.356   6.302   5.581  1.7716  0.2418 -0.2300
 7740TIP3    H244712   1.344   6.170   5.508  0.1945  0.1432  0.1815
 7741TIP3   OH244713   1.091   2.357   1.437  0.2156  0.0760 -0.0422
 7741TIP3    H144714   1.071   2.443   1.472  0.5062 -1.1860  3.7183
 7741TIP3    H244715   1.023   2.300   1.473  0.0609 -1.3521 -2.3563
 7742TIP3   OH244716   0.106   0.351  12.709  0.2630  0.2996  0.3266
 7742TIP3    H144717   0.134   0.260  12.704  0.5575  0.3824  0.4571
 7742TIP3    H244718   0.183   0.398  12.740  0.5463  0.8141 -1.1187
 7743TIP3   OH244719   2.693   0.286   4.965 -0.0595 -0.0039  0.3973
 7743TIP3    H144720   2.636   0.346   5.014 -1.5508 -0.5194 -0.6544
 7743TIP3    H244721   2.657   0.199   4.983  0.2856 -0.3200 -0.4257
 7744TIP3   OH244722   4.526   5.661   0.334 -0.0790 -0.4466  0.2327
 7744TIP3    H144723   4.463   5.589   0.345  0.1237 -0.7908 -0.8061
 7744TIP3    H244724   4.492   5.712   0.260  2.3030 -2.2634 -2.3296
 7745TIP3   OH244725   1.077   0.046  11.673  0.0963 -0.5601  0.0706
 7745TIP3    H144726   1.054   0.055  11.766 -0.7768  0.4452 -0.2319
 7745TIP3    H244727   1.114   0.131  11.649 -0.5890 -0.4838 -0.7477
 7746TIP3   OH244728   3.511   3.762   2.531 -0.0758  0.2374 -0.0157
 7746TIP3    H144729   3.444   3.789   2.468 -0.8807  0.1275  0.7730
 7746TIP3    H244730   3.523   3.839   2.587  2.7086  1.3863 -1.9559
 7747TIP3   OH244731   6.002   2.496  16.146 -0.3273 -0.6917 -0.0374
 7747TIP3    H144732   5.933   2.558  16.123 -0.7437 -0.9370  0.5317
 7747TIP3    H244733   6.080   2.551  16.158 -0.0752 -0.5411 -1.9623
 7748TIP3   OH244734   2.391   2.532  16.299 -0.4370  0.3994 -0.2522
 7748TIP3    H144735   2.405   2.495  16.386 -3.3152 -0.3474  0.0016
 7748TIP3    H244736   2.427   2.621  16.304  1.2164 -0.3085  1.0318
 7749TIP3   OH244737   4.208   4.583  13.324  0.1509 -0.1399  0.0031
 7749TIP3    H144738   4.276   4.530  13.367  0.7043  1.0058  0.5752
 7749TIP3    H244739   4.127   4.559  13.369  0.6763  0.8401  1.5657
 7750TIP3   OH244740   3.603   2.414   4.892 -0.4121  0.2631 -0.0739
 7750TIP3    H144741   3.606   2.321   4.872 -1.5818 -0.2995  2.0109
 7750TIP3    H244742   3.688   2.448   4.864  1.0276 -1.9340  1.3401
 7751TIP3   OH244743   5.637   3.355   6.899  0.5630 -0.5688 -0.0699
 7751TIP3    H144744   5.707   3.402   6.943  0.0084 -0.0081  0.2174
 7751TIP3    H244745   5.666   3.347   6.808  0.8978 -0.1416  0.0007
 7752TIP3   OH244746   4.833   4.058  14.517 -0.4256  0.2814 -0.1772
 7752TIP3    H144747   4.883   4.000  14.574 -1.1921 -0.2073  0.0169
 7752TIP3    H244748   4.897   4.121  14.484  0.3250 -0.3799 -0.0041
 7753TIP3   OH244749   1.251   3.060  13.717  0.0059  0.3066  0.2468
 7753TIP3    H144750   1.314   3.054  13.788  0.4443 -0.0890 -0.1708
 7753TIP3    H244751   1.292   3.117  13.653 -0.4246  0.7324  0.3433
 7754TIP3   OH244752   4.887   6.365   0.515 -0.1526  0.0547 -0.2795
 7754TIP3    H144753   4.863   6.344   0.605 -2.7831  0.6113 -0.7625
 7754TIP3    H244754   4.886   6.461   0.512 -1.5611  0.0490 -1.1900
 7755TIP3   OH244755   1.283   4.899   5.892 -0.1399  0.1596  0.4721
 7755TIP3    H144756   1.239   4.979   5.919 -0.2711  0.7495 -1.3680
 7755TIP3    H244757   1.240   4.830   5.944 -0.1765  1.2098  1.9026
 7756TIP3   OH244758   5.631   4.990  13.887  0.2491  0.3341  0.5388
 7756TIP3    H144759   5.710   4.964  13.934  0.8027 -0.0844 -0.5778
 7756TIP3    H244760   5.600   4.908  13.847 -0.6860  0.5164  0.8713
 7757TIP3   OH244761   6.192   6.252   2.903  0.1894  0.0405  0.6094
 7757TIP3    H144762   6.108   6.232   2.943 -0.2156  0.3602 -0.0655
 7757TIP3    H244763   6.246   6.174   2.919 -0.2023 -0.1255  1.1191
 7758TIP3   OH244764   1.163   1.148  13.032  0.1377  0.2455 -0.1401
 7758TIP3    H144765   1.147   1.054  13.023 -1.3941  0.6698 -2.8161
 7758TIP3    H244766   1.094   1.178  13.092 -2.5735  0.3026 -3.0477
 7759TIP3   OH244767   4.117   5.924   0.044  1.0300 -0.4405  0.5465
 7759TIP3    H144768   4.160   5.966   0.118 -0.5321  0.9440  0.7191
 7759TIP3    H244769   4.102   5.996  -0.018 -1.2952 -0.7927  0.6483
 7760TIP3   OH244770   0.351   1.734  12.020  0.4125 -0.0211  0.3025
 7760TIP3    H144771   0.313   1.804  12.073 -0.8739  0.1907 -0.8469
 7760TIP3    H244772   0.427   1.775  11.978 -0.0912  0.5842 -0.0416
 7761TIP3   OH244773   0.230   0.480  15.158 -0.0374 -0.4123  0.2225
 7761TIP3    H144774   0.219   0.428  15.078 -2.3925 -1.2314  0.9968
 7761TIP3    H244775   0.263   0.564  15.128 -2.1886 -0.2115 -1.8045
 7762TIP3   OH244776   0.376   2.863  15.429  0.1639 -0.6032 -0.5440
 7762TIP3    H144777   0.345   2.835  15.343 -1.7986 -1.3757  0.3589
 7762TIP3    H244778   0.448   2.803  15.449  0.1488 -0.8902 -1.3321
 7763TIP3   OH244779   5.647   5.235  17.473  0.3434  0.0915 -0.0705
 7763TIP3    H144780   5.587   5.255  17.400 -0.0694  0.3235  0.3279
 7763TIP3    H244781   5.589   5.217  17.547  0.6954 -1.8755 -0.2026
 7764TIP3   OH244782   4.880   3.848  12.736  0.2740 -0.0609 -0.3634
 7764TIP3    H144783   4.963   3.822  12.776  1.4240 -0.0128 -2.5558
 7764TIP3    H244784   4.898   3.852  12.642 -1.9228  1.0607 -0.8279
 7765TIP3   OH244785   0.692   1.346  13.689 -0.4866 -0.0900  0.1643
 7765TIP3    H144786   0.673   1.334  13.782 -1.7530 -2.4542 -0.3151
 7765TIP3    H244787   0.785   1.326  13.680  0.5190  3.3993  1.3212
 7766TIP3   OH244788   0.291   4.792  15.463  0.0150 -0.1332  0.4687
 7766TIP3    H144789   0.204   4.780  15.425  0.0399  0.7335  0.1011
 7766TIP3    H244790   0.277   4.849  15.539  0.4835  1.8250 -0.8245
 7767TIP3   OH244791   1.892   5.535   2.564  0.2367  0.7297  0.1284
 7767TIP3    H144792   1.940   5.461   2.528  0.6466  0.5007  1.1172
 7767TIP3    H244793   1.912   5.608   2.504  2.5507  0.8589  0.9755
 7768TIP3   OH244794   1.965   0.213  11.340  0.2917  0.1841  0.0746
 7768TIP3    H144795   1.919   0.193  11.258  0.7652 -1.0262  0.0852
 7768TIP3    H244796   1.937   0.302  11.361  0.9686  0.9376 -1.9321
 7769TIP3   OH244797   4.669   2.395   0.721  0.5379 -0.0824  0.3992
 7769TIP3    H144798   4.615   2.358   0.791  1.3987 -0.6114  0.7985
 7769TIP3    H244799   4.625   2.477   0.697  0.3689  0.2309  1.7363
 7770TIP3   OH244800   2.904   2.036  13.604  0.6197  0.5489 -0.1214
 7770TIP3    H144801   2.966   2.109  13.607  1.7535 -0.3369 -0.6172
 7770TIP3    H244802   2.841   2.054  13.673  2.1568  0.8885  1.2488
 7771TIP3   OH244803   4.765   0.340  13.493 -0.4244 -0.3965  0.1123
 7771TIP3    H144804   4.733   0.428  13.513  0.3861  0.4717 -2.0712
 7771TIP3    H244805   4.700   0.304  13.433  1.2582  0.4343 -2.3810
 7772TIP3   OH244806   1.495   1.050  14.514  0.2687 -0.1522 -0.0292
 7772TIP3    H144807   1.471   1.016  14.428 -0.2717  0.7681 -0.2626
 7772TIP3    H244808   1.487   0.976  14.573 -1.4737 -0.2950 -0.4060
 7773TIP3   OH244809   0.874   2.440   3.194 -0.1098  0.3939  0.2075
 7773TIP3    H144810   0.894   2.386   3.118 -0.6574 -0.5937  0.7407
 7773TIP3    H244811   0.949   2.500   3.202  0.4408 -0.1919 -0.4815
 7774TIP3   OH244812   2.191   5.368   0.305  0.0749 -0.5291  0.1320
 7774TIP3    H144813   2.252   5.338   0.238 -0.1028 -1.0083  0.1832
 7774TIP3    H244814   2.104   5.350   0.268 -0.0321 -0.2237  0.2298
 7775TIP3   OH244815   3.943   0.469  14.165  0.3626 -0.3470 -0.5755
 7775TIP3    H144816   3.894   0.443  14.242  0.7373 -1.2304 -0.6121
 7775TIP3    H244817   4.020   0.411  14.165  1.2899  0.8324 -0.6387
 7776TIP3   OH244818   5.457   4.929   4.801  0.1291  0.6078 -0.1972
 7776TIP3    H144819   5.489   5.019   4.789  0.8628  0.5030  0.8202
 7776TIP3    H244820   5.536   4.876   4.805 -0.2185  0.1290  0.7511
 7777TIP3   OH244821   1.909   6.086   2.765 -0.2887 -0.5097  0.4341
 7777TIP3    H144822   1.916   6.096   2.860  1.0023 -0.6235  0.3748
 7777TIP3    H244823   1.916   6.176   2.731  1.7777 -0.6593  0.3522
 7778TIP3   OH244824   2.889   6.594   6.163  0.1942 -0.4362 -0.3849
 7778TIP3    H144825   2.908   6.616   6.254 -2.3076  0.8140 -0.0800
 7778TIP3    H244826   2.795   6.579   6.161  0.4083 -1.9915 -2.4956
 7779TIP3   OH244827   0.736   2.623   6.295 -0.1164  0.1999  0.0062
 7779TIP3    H144828   0.811   2.572   6.325 -0.3483 -1.9916 -2.7258
 7779TIP3    H244829   0.679   2.559   6.252 -2.1303  2.2647 -0.6326
 7780TIP3   OH244830   1.931   4.556   3.543 -0.2331 -0.2456 -0.1285
 7780TIP3    H144831   1.899   4.631   3.493 -0.6960 -0.2025  0.2262
 7780TIP3    H244832   1.980   4.504   3.479  1.2725  1.0392 -0.0785
 7781TIP3   OH244833   6.339   0.509   1.341  0.0373 -0.5947 -0.2823
 7781TIP3    H144834   6.344   0.584   1.282 -0.4504  1.4114  2.0526
 7781TIP3    H244835   6.430   0.485   1.356  0.2791  0.4183 -0.0428
 7782TIP3   OH244836   2.011   6.007   4.738  0.6531 -0.7825 -0.5178
 7782TIP3    H144837   1.993   5.993   4.831 -1.1483  0.5664 -0.6145
 7782TIP3    H244838   2.058   5.928   4.711  0.9372 -1.3527  1.4404
 7783TIP3   OH244839   0.423   1.492   2.890  0.0526  0.4445 -0.6137
 7783TIP3    H144840   0.415   1.588   2.896  0.4323  0.4334  0.0353
 7783TIP3    H244841   0.416   1.474   2.796 -0.0110  1.1096 -0.7416
 7784TIP3   OH244842   3.342   3.442  12.504  0.3383 -0.5053  0.2402
 7784TIP3    H144843   3.290   3.363  12.492  0.7625 -0.6485 -0.7096
 7784TIP3    H244844   3.368   3.468  12.415 -0.5643  1.2225  0.4239
 7785TIP3   OH244845   1.440   0.270   0.926 -0.4929 -0.3279 -0.3666
 7785TIP3    H144846   1.349   0.250   0.903 -0.8614  1.1725 -0.3350
 7785TIP3    H244847   1.480   0.298   0.843 -0.1732 -0.6149 -0.3079
 7786TIP3   OH244848   0.859   2.815  16.744  0.9325  0.2939  0.1680
 7786TIP3    H144849   0.931   2.791  16.686 -0.0631 -1.1946 -0.5294
 7786TIP3    H244850   0.781   2.812  16.688  0.2030  0.9292  1.1043
 7787TIP3   OH244851   0.924   5.735   4.862 -0.1607 -0.4806  0.2310
 7787TIP3    H144852   0.843   5.686   4.875  0.2169 -0.7531  1.7294
 7787TIP3    H244853   0.909   5.818   4.908  0.6626 -0.8352  1.1782
 7788TIP3   OH244854   5.391   6.632   4.717  0.4795  0.0766 -0.4302
 7788TIP3    H144855   5.323   6.658   4.654  1.6560  0.2735 -1.6699
 7788TIP3    H244856   5.456   6.585   4.664  1.4513  0.1417  0.6696
 7789TIP3   OH244857   5.512   6.559   3.717 -0.0094 -0.4448  0.1609
 7789TIP3    H144858   5.589   6.578   3.770 -0.0303 -0.7161  0.2883
 7789TIP3    H244859   5.471   6.645   3.704 -1.1598 -0.5764  2.3533
 7790TIP3   OH244860   3.487   2.553  16.737  0.1451  0.3659 -0.2030
 7790TIP3    H144861   3.419   2.551  16.805 -0.5688 -0.2490 -0.9124
 7790TIP3    H244862   3.462   2.626  16.680  0.4534  0.5603 -0.0878
 7791TIP3   OH244863   2.426   4.947   1.001  0.2556  0.4557  0.0908
 7791TIP3    H144864   2.394   4.860   1.025 -0.0855  0.4500 -0.3764
 7791TIP3    H244865   2.510   4.955   1.047  1.4790 -1.0793 -1.7062
 7792TIP3   OH244866   3.354   6.261  15.081 -0.2119  0.0622 -0.2961
 7792TIP3    H144867   3.414   6.196  15.116 -0.6071 -1.0360 -1.5460
 7792TIP3    H244868   3.327   6.313  15.156  1.7627  0.1574  0.3942
 7793TIP3   OH244869   4.911   5.549   1.072 -0.8686  0.1327  0.0776
 7793TIP3    H144870   4.930   5.628   1.021 -1.8622 -0.2552 -0.9234
 7793TIP3    H244871   4.997   5.508   1.084 -0.4963  0.7185 -0.4716
 7794TIP3   OH244872   5.847   1.822   4.026 -0.0278  0.4610 -0.1189
 7794TIP3    H144873   5.875   1.849   3.938  1.6187  3.2846  1.1370
 7794TIP3    H244874   5.765   1.868   4.040 -0.3363 -0.0607 -0.1993
 7795TIP3   OH244875   5.189   0.125  12.206  0.5466 -0.3070 -0.1278
 7795TIP3    H144876   5.236   0.100  12.286 -0.6775 -0.4324  0.5846
 7795TIP3    H244877   5.104   0.082  12.214 -1.3033  3.0776  0.6619
 7796TIP3   OH244878   0.672   2.598  14.969  0.2875  0.0185  0.4385
 7796TIP3    H144879   0.693   2.682  14.929  1.3163  0.0374  0.9779
 7796TIP3    H244880   0.641   2.620  15.057  1.2615 -0.1873  0.8471
 7797TIP3   OH244881   6.657   5.957   1.496  0.2191 -0.4936 -0.4582
 7797TIP3    H144882   6.615   5.977   1.580 -2.5595 -0.2660 -1.7697
 7797TIP3    H244883   6.666   6.042   1.453  0.7465 -0.7036 -0.7666
 7798TIP3   OH244884   4.027   2.877   3.532 -0.0359  0.3781  0.1803
 7798TIP3    H144885   3.972   2.802   3.552  1.2562 -0.6916 -0.1343
 7798TIP3    H244886   4.110   2.839   3.504 -0.1054  1.8726 -2.3025
 7799TIP3   OH244887   5.111   0.058   5.325  0.1229 -0.2585  0.0560
 7799TIP3    H144888   5.120  -0.037   5.322  0.9068 -0.1895 -0.2624
 7799TIP3    H244889   5.173   0.090   5.259  1.2389  0.5423  1.4202
 7800TIP3   OH244890   6.759   5.543   1.070  0.3289  0.3784 -0.3455
 7800TIP3    H144891   6.796   5.599   1.138  0.8628 -0.7594  0.3445
 7800TIP3    H244892   6.719   5.470   1.118  1.1240 -0.6901 -1.2458
 7801TIP3   OH244893   0.168   1.460   6.247  0.4995  0.2174 -0.7721
 7801TIP3    H144894   0.220   1.491   6.173 -0.1904 -2.7267 -2.6880
 7801TIP3    H244895   0.100   1.526   6.258  0.7059  0.8143 -2.7120
 7802TIP3   OH244896   3.823   3.143   4.113 -0.4214 -0.8068 -0.5845
 7802TIP3    H144897   3.763   3.097   4.054 -0.3636  0.4597 -1.6617
 7802TIP3    H244898   3.903   3.155   4.061 -0.4888  0.6307 -0.3767
 7803TIP3   OH244899   4.154   5.128   2.995 -0.2364 -0.5841 -0.6702
 7803TIP3    H144900   4.124   5.196   3.055  0.7650 -0.3021 -0.4683
 7803TIP3    H244901   4.074   5.084   2.966 -0.9178  0.8186 -0.9825
 7804TIP3   OH244902   6.255   2.136   3.088 -0.0655 -0.5219  0.7000
 7804TIP3    H144903   6.253   2.048   3.051  1.6941 -0.4371  0.3355
 7804TIP3    H244904   6.338   2.173   3.059  0.2418  0.4669  2.6791
 7805TIP3   OH244905   5.323   0.575   6.170  0.0348  0.0389  0.2170
 7805TIP3    H144906   5.268   0.541   6.099  0.1401  1.0248 -0.3568
 7805TIP3    H244907   5.367   0.497   6.205 -0.2178 -0.5046 -0.6294
 7806TIP3   OH244908   2.640   2.041   0.502 -0.2707  0.3785  0.4650
 7806TIP3    H144909   2.564   2.100   0.512 -0.4925  0.1776 -0.0313
 7806TIP3    H244910   2.711   2.086   0.548 -0.4876  0.9494  0.2488
 7807TIP3   OH244911   1.296   3.675   0.289 -0.5378  0.1519  0.1403
 7807TIP3    H144912   1.291   3.720   0.205  1.0753  2.0081  0.9501
 7807TIP3    H244913   1.375   3.710   0.330 -1.2607 -0.6988  2.4256
 7808TIP3   OH244914   6.192   4.272   2.349  0.3257  0.7679  0.6901
 7808TIP3    H144915   6.243   4.338   2.304 -1.3071  1.4856 -0.2119
 7808TIP3    H244916   6.248   4.242   2.421  2.1699  1.1218 -0.5350
 7809TIP3   OH244917   3.384   2.523   5.549 -0.5157  0.0593 -0.2198
 7809TIP3    H144918   3.479   2.512   5.544 -0.1662  0.2096  3.3967
 7809TIP3    H244919   3.363   2.584   5.478  2.2232  0.6566 -0.6315
 7810TIP3   OH244920   4.868   1.665  14.323  0.5554 -0.0717  0.1036
 7810TIP3    H144921   4.890   1.621  14.241 -0.3311 -1.5688  0.6262
 7810TIP3    H244922   4.779   1.698  14.308 -0.3018 -1.8348  0.9823
 7811TIP3   OH244923   1.063   2.731  16.573  0.2328  0.0466 -0.4574
 7811TIP3    H144924   0.996   2.722  16.506 -0.3283  0.3389  0.0472
 7811TIP3    H244925   1.121   2.800  16.540  1.0834 -1.1326 -1.5221
 7812TIP3   OH244926   3.645   2.755   6.159  0.7773  0.0798  0.1800
 7812TIP3    H144927   3.673   2.806   6.236  1.0903  0.5649 -0.2506
 7812TIP3    H244928   3.726   2.718   6.125  0.4207 -1.7709  1.2190
 7813TIP3   OH244929   0.583   3.073   5.720 -0.7096  0.5702 -0.3375
 7813TIP3    H144930   0.520   3.144   5.717 -0.1826  1.0938  0.6767
 7813TIP3    H244931   0.560   3.023   5.798  0.1623  0.8064  0.0811
 7814TIP3   OH244932   6.325   5.480   3.061 -0.6146  0.1811  0.2979
 7814TIP3    H144933   6.392   5.412   3.068  0.8881  1.5050 -0.2888
 7814TIP3    H244934   6.340   5.518   2.974 -1.5548  1.1001  0.5221
 7815TIP3   OH244935   4.885   3.776  16.520 -0.1334 -0.5234  0.2098
 7815TIP3    H144936   4.911   3.698  16.470 -0.4636 -1.8908  2.0852
 7815TIP3    H244937   4.805   3.749  16.565  0.0987  0.7063  1.3989
 7816TIP3   OH244938   0.210   0.141   1.701  0.0753  0.2247  0.0305
 7816TIP3    H144939   0.166   0.066   1.661  1.4823 -0.2697 -0.6722
 7816TIP3    H244940   0.141   0.189   1.746 -0.6642 -2.3458  1.8969
 7817TIP3   OH244941   0.017   3.915   5.746  0.3432 -0.4150  0.0402
 7817TIP3    H144942   0.073   3.959   5.810 -0.0831 -0.3374  0.3628
 7817TIP3    H244943   0.031   3.964   5.665  1.3817 -0.9151 -0.0953
 7818TIP3   OH244944   6.550   5.459   1.619 -0.4113 -0.1555 -0.8131
 7818TIP3    H144945   6.491   5.390   1.588  1.7100 -3.1085  1.1799
 7818TIP3    H244946   6.537   5.462   1.713 -1.1206  3.0291 -0.9012
 7819TIP3   OH244947   0.820   0.852   5.294 -0.5404 -0.2380  0.1006
 7819TIP3    H144948   0.891   0.882   5.238 -2.6935  2.1928 -1.5972
 7819TIP3    H244949   0.853   0.862   5.383  1.3869  0.2848 -0.6333
 7820TIP3   OH244950   3.653   3.876   0.638 -0.2505  0.1839 -0.1659
 7820TIP3    H144951   3.647   3.894   0.544  2.9994 -0.1130 -0.5528
 7820TIP3    H244952   3.646   3.781   0.644  2.2094 -0.1018 -0.5439
 7821TIP3   OH244953   6.507   3.456  11.683 -0.0294 -0.4206 -0.1065
 7821TIP3    H144954   6.555   3.538  11.669  1.2631 -1.2573 -0.8294
 7821TIP3    H244955   6.529   3.403  11.606 -1.5329 -1.1349 -0.0654
 7822TIP3   OH244956   5.457   0.837   0.303  0.8676  0.5971 -0.0678
 7822TIP3    H144957   5.551   0.849   0.317  1.1329 -0.1799 -1.0791
 7822TIP3    H244958   5.443   0.859   0.211  0.1309  0.2869 -0.0381
 7823TIP3   OH244959   4.670   6.556   0.415  0.4750  0.0682 -0.5397
 7823TIP3    H144960   4.618   6.616   0.361  1.6910  0.5768 -1.1805
 7823TIP3    H244961   4.617   6.477   0.420 -1.1406  1.1641  0.2837
 7824TIP3   OH244962   0.416   5.931   3.325  0.1425  0.3084  0.3426
 7824TIP3    H144963   0.493   5.892   3.282 -0.1134 -0.5986  0.6898
 7824TIP3    H244964   0.352   5.940   3.255 -0.1028 -0.7228  0.4183
 7825TIP3   OH244965   5.458   0.821   1.891  0.3522 -0.6468 -0.9447
 7825TIP3    H144966   5.422   0.851   1.975 -0.9872 -0.4684 -1.5645
 7825TIP3    H244967   5.382   0.790   1.842  0.7986  1.1436 -2.8910
 7826TIP3   OH244968   3.075   5.313  16.008 -0.1910  0.3181 -0.2081
 7826TIP3    H144969   3.114   5.391  16.049  2.0778 -0.4970 -0.6789
 7826TIP3    H244970   3.120   5.239  16.049 -0.8149 -0.6772 -1.2533
 7827TIP3   OH244971   4.450   1.965  11.868 -0.4280  0.0266  0.4686
 7827TIP3    H144972   4.542   1.982  11.889  0.0337  0.5761 -1.7012
 7827TIP3    H244973   4.404   2.045  11.895 -0.0694  0.2117  0.5336
 7828TIP3   OH244974   4.052   0.430   0.463 -0.1659  0.0663  0.3769
 7828TIP3    H144975   4.037   0.524   0.474  0.9528  0.6051 -1.9515
 7828TIP3    H244976   3.964   0.393   0.454 -0.5797  1.3124 -1.1788
 7829TIP3   OH244977   2.722   1.269  16.527 -0.3469  0.8004 -0.0662
 7829TIP3    H144978   2.779   1.195  16.547 -0.1094  1.2576  1.0078
 7829TIP3    H244979   2.634   1.232  16.526 -0.3843  0.7246  1.8989
 7830TIP3   OH244980   5.491   6.505  17.511  0.4323 -0.2932 -0.2719
 7830TIP3    H144981   5.451   6.554  17.583 -0.1027 -0.1552 -0.6586
 7830TIP3    H244982   5.472   6.556  17.433 -0.3417 -1.2230 -0.7169
 7831TIP3   OH244983   3.917   5.105   0.539 -0.3367  0.0939  0.5778
 7831TIP3    H144984   3.967   5.043   0.593 -0.6536 -1.4207 -0.7663
 7831TIP3    H244985   3.891   5.175   0.599  2.7875  0.6190  1.4911
 7832TIP3   OH244986   4.828   1.120   4.237 -0.1757  0.3899  0.4253
 7832TIP3    H144987   4.838   1.061   4.312  0.3681 -0.2737 -0.1478
 7832TIP3    H244988   4.918   1.134   4.206 -0.4591 -0.0289 -0.6141
 7833TIP3   OH244989   5.857   4.370  12.112  0.3073  0.0583  0.0732
 7833TIP3    H144990   5.835   4.305  12.179 -1.1144  0.8722  0.4536
 7833TIP3    H244991   5.777   4.379  12.060  0.3164  1.7744  0.2980
 7834TIP3   OH244992   0.263   4.522  11.760 -0.0845 -0.1563 -0.4273
 7834TIP3    H144993   0.316   4.524  11.840  0.6410 -0.4871 -0.8905
 7834TIP3    H244994   0.316   4.569  11.695  0.3138 -1.7335 -1.2899
 7835TIP3   OH244995   2.451   6.353  13.057  0.4975 -0.4434 -0.3279
 7835TIP3    H144996   2.487   6.347  12.969 -1.3201  0.6474 -1.1903
 7835TIP3    H244997   2.513   6.410  13.104  1.5354 -1.1244 -0.8191
 7836TIP3   OH244998   3.282   1.334   3.305 -0.0533  0.0978 -0.4649
 7836TIP3    H144999   3.187   1.320   3.298  0.0511 -2.0062  1.2627
 7836TIP3    H245000   3.305   1.298   3.390  2.5051 -0.5980 -1.3697
 7837TIP3   OH245001   1.895   2.762   5.565 -0.5181  0.0438  0.3658
 7837TIP3    H145002   1.917   2.851   5.591 -1.1207 -0.0891  1.3735
 7837TIP3    H245003   1.816   2.741   5.614 -1.8809 -0.1518 -1.7732
 7838TIP3   OH245004   4.335   6.429   4.237 -0.4967 -0.2177  0.0455
 7838TIP3    H145005   4.419   6.462   4.206 -1.7755  0.1278 -3.5618
 7838TIP3    H245006   4.347   6.334   4.244  0.5731 -0.0203  1.0916
 7839TIP3   OH245007   4.148   0.487  14.957  0.3501 -0.1147 -0.2360
 7839TIP3    H145008   4.108   0.428  15.020 -0.8364 -0.1983 -1.0376
 7839TIP3    H245009   4.231   0.513  14.997  0.9553 -2.3828  0.1035
 7840TIP3   OH245010   0.315   4.447  12.032  0.9906 -0.1255  0.3380
 7840TIP3    H145011   0.301   4.530  12.076 -0.3339 -0.0480 -0.2031
 7840TIP3    H245012   0.376   4.400  12.089 -0.1936  0.2060  1.9459
 7841TIP3   OH245013   4.143   0.380   5.117  0.1757 -0.2216 -0.4270
 7841TIP3    H145014   4.176   0.347   5.201  0.5994 -1.1446 -0.9485
 7841TIP3    H245015   4.081   0.313   5.088 -0.2379  0.2700 -0.6833
 7842TIP3   OH245016   6.642   3.711   4.077  0.0485 -0.2826  0.1459
 7842TIP3    H145017   6.660   3.739   4.167 -1.0492 -1.8054  0.8872
 7842TIP3    H245018   6.707   3.644   4.060 -0.4259 -0.7623  0.2114
 7843TIP3   OH245019   4.031   1.653  12.525 -0.0694 -0.2198 -0.5074
 7843TIP3    H145020   3.968   1.610  12.468 -0.5517 -1.6342  1.0339
 7843TIP3    H245021   3.980   1.720  12.571 -0.8883 -2.2320  1.7262
 7844TIP3   OH245022   1.806   1.192  16.554  0.7204  0.1531  0.1969
 7844TIP3    H145023   1.882   1.163  16.606  1.1047 -0.9621 -0.9311
 7844TIP3    H245024   1.818   1.150  16.469 -1.6743 -0.8825  0.2916
 7845TIP3   OH245025   5.309   5.845  11.035  0.0667  0.0311 -0.1792
 7845TIP3    H145026   5.255   5.771  11.061 -0.8205  0.7866  0.1807
 7845TIP3    H245027   5.398   5.810  11.032 -0.2014 -0.7916  0.9736
 7846TIP3   OH245028   0.942   6.493   4.793 -0.8337  0.2073 -1.0740
 7846TIP3    H145029   0.914   6.534   4.710 -2.6392  0.7760 -0.2456
 7846TIP3    H245030   0.860   6.473   4.838  0.1115 -0.3428  0.4758
 7847TIP3   OH245031   3.887   3.072  10.927 -0.0426  0.1847  0.0370
 7847TIP3    H145032   3.942   2.995  10.939  0.0061  0.2537  0.2671
 7847TIP3    H245033   3.949   3.146  10.931 -0.0263  0.2075 -0.6450
 7848TIP3   OH245034   0.519   5.917   1.362 -0.6185 -0.2222 -0.5003
 7848TIP3    H145035   0.464   5.995   1.356 -1.2679 -0.4461  1.5860
 7848TIP3    H245036   0.472   5.850   1.313 -1.6320 -0.0805  0.2368
 7849TIP3   OH245037   4.172   4.036   1.446  0.0659  0.0046  0.3185
 7849TIP3    H145038   4.163   3.987   1.365  0.4055  3.7235 -2.2383
 7849TIP3    H245039   4.266   4.049   1.456 -0.0071  0.0558  0.9935
 7850TIP3   OH245040   1.356   3.391  14.835 -0.5098  0.0030 -0.2347
 7850TIP3    H145041   1.452   3.392  14.837 -0.4801  0.2930  2.6755
 7850TIP3    H245042   1.330   3.481  14.856 -1.4210 -0.1312 -0.7445
 7851TIP3   OH245043   0.342   1.676  13.784 -0.0658 -0.3614  0.3492
 7851TIP3    H145044   0.422   1.730  13.788 -1.4548  1.8153  0.4139
 7851TIP3    H245045   0.373   1.586  13.795  2.4672  0.3214 -0.5313
 7852TIP3   OH245046   5.018   1.256  14.616 -0.3131  0.0973  0.7157
 7852TIP3    H145047   5.014   1.337  14.564  2.4235  0.2046  0.5355
 7852TIP3    H245048   5.022   1.285  14.707  0.0584  0.1484  0.6846
 7853TIP3   OH245049   0.130   3.390   5.413 -0.0429  0.2191  0.0874
 7853TIP3    H145050   0.111   3.373   5.506  1.4517 -1.4448  0.1357
 7853TIP3    H245051   0.046   3.419   5.377 -0.9937 -0.3708  1.6894
 7854TIP3   OH245052   0.088   2.959   2.082 -0.0765 -0.7789  0.1816
 7854TIP3    H145053   0.107   3.033   2.139  1.0217 -0.3975 -0.6422
 7854TIP3    H245054   0.173   2.933   2.046 -0.3688 -2.7101  0.7383
 7855TIP3   OH245055   3.908   2.518  17.497  0.0780 -0.1501 -0.0216
 7855TIP3    H145056   3.866   2.551  17.577 -0.6221 -0.1964 -0.3613
 7855TIP3    H245057   3.924   2.426  17.514 -0.6287 -0.2993 -0.1608
 7856TIP3   OH245058   0.019   4.730  12.198  0.1168  0.1546 -0.1559
 7856TIP3    H145059  -0.041   4.737  12.272 -0.8061 -0.5439 -0.8203
 7856TIP3    H245060   0.009   4.641  12.166  0.9587  0.2580 -0.7539
 7857TIP3   OH245061   3.946   3.197  15.732  0.2233  0.3287 -0.3495
 7857TIP3    H145062   4.003   3.166  15.802  1.8059  1.4304 -1.0749
 7857TIP3    H245063   3.966   3.140  15.658  0.0838  0.4688 -0.4955
 7858TIP3   OH245064   0.899   3.491   1.879 -0.1669 -0.0825  0.1642
 7858TIP3    H145065   0.963   3.560   1.861  1.4537 -1.9870 -1.8408
 7858TIP3    H245066   0.939   3.438   1.948 -1.3948  0.8762  1.6806
 7859TIP3   OH245067   1.372   5.476  11.880 -0.0615 -0.0839  0.4582
 7859TIP3    H145068   1.296   5.429  11.845 -0.1390  0.1552  0.3022
 7859TIP3    H245069   1.448   5.427  11.846 -0.0681  1.4920 -2.0486
 7860TIP3   OH245070   2.401   2.697  10.787  0.2761  0.0641 -0.5019
 7860TIP3    H145071   2.484   2.698  10.835 -0.8737  2.1497  1.6769
 7860TIP3    H245072   2.355   2.775  10.818 -3.1919 -1.8479 -0.3955
 7861TIP3   OH245073   0.056   5.439  15.912 -0.2629 -0.6338  0.1650
 7861TIP3    H145074   0.099   5.497  15.975  0.0827  1.0774 -1.5449
 7861TIP3    H245075   0.118   5.367  15.900  1.2828  0.7793 -0.7731
 7862TIP3   OH245076   2.972   4.461  13.137 -0.1228  0.0185 -0.3866
 7862TIP3    H145077   3.018   4.418  13.065  1.2218 -1.4196  1.2556
 7862TIP3    H245078   2.923   4.390  13.180 -1.1753  0.9081 -0.0560
 7863TIP3   OH245079   5.593   1.736   5.946 -0.1868 -0.1568  0.2553
 7863TIP3    H145080   5.656   1.667   5.926  0.3092  0.5385 -0.6864
 7863TIP3    H245081   5.515   1.690   5.976  0.2770 -1.1071  0.0285
 7864TIP3   OH245082   4.177   1.533   3.984 -0.0211  0.6038 -0.0047
 7864TIP3    H145083   4.086   1.563   3.983 -0.0993  0.3644 -0.1343
 7864TIP3    H245084   4.226   1.608   4.016  0.1317  1.7705 -2.7217
 7865TIP3   OH245085   4.678   2.517  17.109  0.5101  0.3006  0.5250
 7865TIP3    H145086   4.700   2.574  17.183 -0.7063  0.1598  1.0124
 7865TIP3    H245087   4.585   2.499  17.119  0.7624 -1.4084  0.1050
 7866TIP3   OH245088   1.890   5.527   2.222  0.4055 -0.2429  0.0716
 7866TIP3    H145089   1.832   5.547   2.149  0.3485 -0.5434  0.0358
 7866TIP3    H245090   1.897   5.610   2.270  0.7407  0.0492 -0.4796
 7867TIP3   OH245091   5.019   1.385   1.395 -0.3951  0.0640  0.2877
 7867TIP3    H145092   5.091   1.344   1.347 -1.2559 -0.0358 -0.9660
 7867TIP3    H245093   5.013   1.474   1.360 -0.9425  0.0377  0.2943
 7868TIP3   OH245094   1.996   0.093   1.531 -0.5663  0.2526  0.3961
 7868TIP3    H145095   2.091   0.093   1.525  0.0105 -0.8604  5.0868
 7868TIP3    H245096   1.974   0.006   1.566 -3.1705  0.9121  0.6463
 7869TIP3   OH245097   6.160   0.059  15.051 -0.9807  0.2765 -0.9318
 7869TIP3    H145098   6.175   0.034  15.143 -1.3252  1.9687 -0.3822
 7869TIP3    H245099   6.121  -0.019  15.012  2.6694 -1.9308 -0.7066
 7870TIP3   OH245100   4.977   5.436   6.771 -0.2524  0.6393 -0.2765
 7870TIP3    H145101   4.911   5.367   6.769  0.2786  0.1315 -0.5205
 7870TIP3    H245102   5.006   5.444   6.681 -0.6960  1.5699 -0.3452
 7871TIP3   OH245103   2.274   4.527   3.208  0.1674  0.4340 -0.6996
 7871TIP3    H145104   2.360   4.490   3.230  0.3505  1.9032  1.2894
 7871TIP3    H245105   2.286   4.622   3.213 -1.3497  0.6922 -1.3235
 7872TIP3   OH245106   2.032   6.752  10.796  0.7115 -0.5155  0.3231
 7872TIP3    H145107   1.938   6.772  10.796  0.3235 -1.7704  3.1667
 7872TIP3    H245108   2.066   6.800  10.872  2.0717 -1.3155  0.2491
 7873TIP3   OH245109   5.114   4.554   3.394 -0.0218 -0.3290 -0.1403
 7873TIP3    H145110   5.189   4.519   3.346  0.3249  0.3279 -0.0903
 7873TIP3    H245111   5.134   4.647   3.405 -1.4322  0.1313 -1.2352
 7874TIP3   OH245112   3.558   2.820   5.644 -0.2907 -0.3043  0.1073
 7874TIP3    H145113   3.551   2.897   5.700 -0.3541 -1.3495  1.6011
 7874TIP3    H245114   3.491   2.833   5.577 -1.2010  0.3477  1.0955
 7875TIP3   OH245115   3.287   1.040  15.315  0.0267  0.8662 -0.1668
 7875TIP3    H145116   3.312   1.122  15.357 -0.1125  0.9746 -0.2954
 7875TIP3    H245117   3.193   1.033  15.330 -0.0206  0.8945 -0.4428
 7876TIP3   OH245118   4.639   1.722  11.177 -0.1048  0.0947 -0.5565
 7876TIP3    H145119   4.699   1.776  11.229 -0.4310 -0.3986  0.3643
 7876TIP3    H245120   4.663   1.739  11.086 -0.4257  2.0572 -0.3102
 7877TIP3   OH245121   0.460   2.154   1.127  0.1221  0.1736 -0.0850
 7877TIP3    H145122   0.452   2.123   1.037  0.3154  0.7993 -0.3226
 7877TIP3    H245123   0.373   2.141   1.165  0.0049  0.0324 -0.3993
 7878TIP3   OH245124   4.691   2.222  16.790 -0.2209  0.4615  0.0579
 7878TIP3    H145125   4.659   2.166  16.718  0.8705 -0.7611  0.4765
 7878TIP3    H245126   4.675   2.170  16.869  0.2545  1.0217  0.5292
 7879TIP3   OH245127   0.054   3.719   4.561  0.6673  0.3989 -0.2017
 7879TIP3    H145128   0.120   3.666   4.606  1.3994  1.5197  0.1010
 7879TIP3    H245129   0.010   3.766   4.632 -1.2711 -1.1602 -0.2873
 7880TIP3   OH245130   6.342   4.241   5.470 -0.7478 -0.2987 -0.3022
 7880TIP3    H145131   6.326   4.333   5.491  0.6409  0.1312 -1.0220
 7880TIP3    H245132   6.276   4.219   5.404  0.4238  0.9310 -1.9606
 7881TIP3   OH245133   4.294   2.092  15.263  0.0089 -0.6486 -0.4740
 7881TIP3    H145134   4.292   2.006  15.304  0.3871  0.4495  1.9895
 7881TIP3    H245135   4.256   2.078  15.176 -2.8079 -2.7304  0.9411
 7882TIP3   OH245136   2.576   4.360  15.119  0.2808  0.5033  0.0423
 7882TIP3    H145137   2.556   4.439  15.170 -0.7124  1.3939 -1.6257
 7882TIP3    H245138   2.492   4.333  15.083  0.7848 -0.7306 -0.2616
 7883TIP3   OH245139   4.838   2.927   2.287  0.4036  0.1616  0.2299
 7883TIP3    H145140   4.815   2.943   2.379  0.4210 -0.6677  0.3842
 7883TIP3    H245141   4.766   2.966   2.238  1.7687  3.2487  0.4389
 7884TIP3   OH245142   2.366   4.688  11.120 -0.0790 -0.2728 -0.1100
 7884TIP3    H145143   2.439   4.677  11.059  1.1432 -1.8475  1.5332
 7884TIP3    H245144   2.288   4.682  11.066  0.9618 -1.6103 -1.5336
 7885TIP3   OH245145   6.198   0.424  12.042 -0.8592 -0.7433 -0.0600
 7885TIP3    H145146   6.236   0.406  11.956 -2.5281  0.5617 -1.1609
 7885TIP3    H245147   6.124   0.364  12.048 -1.5161  0.0317 -0.1429
 7886TIP3   OH245148   0.495   5.862  16.367 -0.0350 -0.6230 -0.1831
 7886TIP3    H145149   0.496   5.767  16.352 -0.6195 -0.6783  0.1138
 7886TIP3    H245150   0.488   5.899  16.279 -0.8824 -0.8840 -0.2288
 7887TIP3   OH245151   4.239   2.375   6.326  0.1373  0.1237  0.4088
 7887TIP3    H145152   4.262   2.324   6.403  0.6431 -1.3589 -0.6641
 7887TIP3    H245153   4.254   2.465   6.351  0.9971 -0.3811  1.8045
 7888TIP3   OH245154   0.350   0.356   3.486 -0.2862 -0.3161  0.4865
 7888TIP3    H145155   0.399   0.397   3.558  0.0838  1.5085 -0.7363
 7888TIP3    H245156   0.271   0.409   3.478 -0.5550 -0.8081 -0.1478
 7889TIP3   OH245157   2.635   4.146  11.389  0.2985  0.0901 -0.5273
 7889TIP3    H145158   2.609   4.088  11.461  1.4934  1.4207  1.0719
 7889TIP3    H245159   2.729   4.128  11.377  1.2404  2.8945  1.3764
 7890TIP3   OH245160   4.164   1.317   1.433 -0.4874  0.1899 -0.1292
 7890TIP3    H145161   4.163   1.399   1.384 -1.7986  0.5648  0.4730
 7890TIP3    H245162   4.225   1.332   1.505 -1.5855  1.0638  0.6442
 7891TIP3   OH245163   3.407   4.082  13.946  0.7018  0.3132  0.4945
 7891TIP3    H145164   3.473   4.150  13.930 -0.4644  1.5458  0.8436
 7891TIP3    H245165   3.341   4.096  13.878  1.4167 -1.7795 -0.7145
 7892TIP3   OH245166   6.530   5.127   6.110 -0.4192 -0.4232  0.0726
 7892TIP3    H145167   6.556   5.141   6.200 -0.7425  0.4126  0.0427
 7892TIP3    H245168   6.553   5.208   6.065 -2.2225  0.0346 -0.1303
 7893TIP3   OH245169   6.756   3.240   6.197  0.1619 -0.0458  0.3176
 7893TIP3    H145170   6.786   3.179   6.264  0.5851 -3.3983 -2.5832
 7893TIP3    H245171   6.661   3.226   6.192  0.0387  0.6486  0.6083
 7894TIP3   OH245172   5.367   5.575   0.268  0.3744 -0.2117  0.5163
 7894TIP3    H145173   5.361   5.609   0.179  1.0579 -1.6661 -0.1260
 7894TIP3    H245174   5.438   5.624   0.309  0.1940  0.3180  0.1969
 7895TIP3   OH245175   0.645   5.966   0.516  0.0193 -0.0226  0.8010
 7895TIP3    H145176   0.672   5.888   0.468 -2.1894  1.1530 -2.7170
 7895TIP3    H245177   0.575   5.935   0.574 -2.5588 -0.5079 -2.2888
 7896TIP3   OH245178   1.656   2.290  17.412 -0.5591 -0.0524  0.1113
 7896TIP3    H145179   1.650   2.375  17.458 -0.6798  0.3802 -0.6862
 7896TIP3    H245180   1.731   2.247  17.452 -1.4719 -0.2857  1.6888
 7897TIP3   OH245181   0.412   2.274   0.422 -0.0247 -0.5510 -0.2985
 7897TIP3    H145182   0.445   2.339   0.484  0.6982 -2.1601  1.0779
 7897TIP3    H245183   0.318   2.271   0.438  0.2281 -1.3688  1.1909
 7898TIP3   OH245184   1.078   1.436   0.649  0.3962 -0.2978  0.4629
 7898TIP3    H145185   0.985   1.446   0.669  0.6827 -0.3517  1.9218
 7898TIP3    H245186   1.118   1.407   0.731  1.4622 -1.8880 -0.5458
 7899TIP3   OH245187   0.489   2.020   0.454  0.5490 -0.1452 -0.2564
 7899TIP3    H145188   0.458   2.107   0.431  1.4494  0.5336  0.9943
 7899TIP3    H245189   0.410   1.970   0.473 -0.0273  0.1485 -1.7297
 7900TIP3   OH245190   4.077   5.858   1.523  0.1301  0.5873  0.5691
 7900TIP3    H145191   4.059   5.895   1.437  0.5578  0.3990  0.3980
 7900TIP3    H245192   4.023   5.779   1.528  1.2609 -0.2663 -0.1483
 7901TIP3   OH245193   3.797   4.067   1.459  0.0111  0.1939 -0.5321
 7901TIP3    H145194   3.857   4.138   1.438  0.7580  0.5747  2.3436
 7901TIP3    H245195   3.710   4.108   1.457  0.5131  1.6566  2.2251
 7902TIP3   OH245196   5.578   3.300   0.347 -0.3385  0.2589  0.0091
 7902TIP3    H145197   5.656   3.338   0.388 -0.4556 -0.1082  0.5951
 7902TIP3    H245198   5.611   3.246   0.276  0.0416 -0.7317  0.9029
 7903TIP3   OH245199   0.763   2.721   3.072  0.0480 -0.1286  0.2618
 7903TIP3    H145200   0.827   2.662   3.032 -0.1588 -2.7008  3.3269
 7903TIP3    H245201   0.804   2.808   3.065  2.3453 -1.1940 -0.7435
 7904TIP3   OH245202   3.053   3.911  13.586  0.2708 -0.2899 -0.3661
 7904TIP3    H145203   3.100   3.995  13.579 -0.2460  0.0621  0.3323
 7904TIP3    H245204   3.121   3.845  13.569  0.5049  0.2812 -1.8245
 7905TIP3   OH245205   2.574   5.744   0.582 -0.6088 -0.1393  0.1061
 7905TIP3    H145206   2.628   5.710   0.511 -0.1173  0.2968  0.2666
 7905TIP3    H245207   2.489   5.761   0.542  0.4983  2.9733 -1.1521
 7906TIP3   OH245208   3.132   2.038  16.097  0.5484 -0.2308  0.2252
 7906TIP3    H145209   3.216   2.085  16.096  0.7167 -0.5230  0.3738
 7906TIP3    H245210   3.139   1.975  16.026  0.0265  0.4672 -0.4625
 7907TIP3   OH245211   2.055   2.319   5.538  0.3315  0.4385 -0.8486
 7907TIP3    H145212   2.080   2.232   5.568 -0.5820  0.1096 -1.0117
 7907TIP3    H245213   1.976   2.341   5.589  2.4112  2.6321  1.7460
 7908TIP3   OH245214   4.383   5.071  11.101  0.2223  0.5848  0.3397
 7908TIP3    H145215   4.474   5.098  11.086  0.3987  0.2087  0.6959
 7908TIP3    H245216   4.371   4.997  11.042  0.3737  0.1922  0.7910
 7909TIP3   OH245217   6.532   3.832   3.858 -0.1725 -0.1241  0.2621
 7909TIP3    H145218   6.475   3.755   3.852 -0.8675  0.2407  1.6997
 7909TIP3    H245219   6.577   3.822   3.942  0.9092  0.2604 -0.2587
 7910TIP3   OH245220   3.278   1.462   0.284 -0.0877 -0.2956  0.0330
 7910TIP3    H145221   3.293   1.467   0.190 -1.7797  0.1110 -0.2406
 7910TIP3    H245222   3.328   1.536   0.320 -1.3360  1.0233 -0.8255
 7911TIP3   OH245223   3.300   0.981  10.973 -0.0162  0.2487 -0.3765
 7911TIP3    H145224   3.348   1.060  10.998  0.0588  0.0078  0.2724
 7911TIP3    H245225   3.208   1.005  10.984  0.0004  0.3167 -0.3850
 7912TIP3   OH245226   4.110   0.851   5.030  0.2622  0.2508  0.0541
 7912TIP3    H145227   4.043   0.801   5.076  0.9135 -2.1247 -1.4010
 7912TIP3    H245228   4.067   0.880   4.949  0.9842 -1.5740 -1.0470
 7913TIP3   OH245229   3.622   0.612   5.194  0.2877  0.2271  0.4833
 7913TIP3    H145230   3.583   0.643   5.112  0.0505 -1.4683 -0.0873
 7913TIP3    H245231   3.581   0.665   5.261  0.6456  1.8062 -0.5009
 7914TIP3   OH245232   0.344   3.206   5.219 -0.4618  0.4105 -0.6017
 7914TIP3    H145233   0.345   3.300   5.206 -0.6679  0.3681 -0.9357
 7914TIP3    H245234   0.322   3.194   5.312 -0.7099  0.6856 -0.6250
 7915TIP3   OH245235   2.903   5.066  16.363 -0.4450 -0.1777  0.6119
 7915TIP3    H145236   2.871   5.099  16.447 -0.8918  2.6023 -0.5548
 7915TIP3    H245237   2.986   5.111  16.350 -0.4139 -0.5315 -0.4861
 7916TIP3   OH245238   5.157   3.741  12.783  0.6174  0.5537 -0.3770
 7916TIP3    H145239   5.221   3.754  12.712  3.5482 -2.7307  1.3867
 7916TIP3    H245240   5.116   3.657  12.763 -2.3841  1.9668 -0.7207
 7917TIP3   OH245241   5.630   0.129   0.918 -0.3262  0.1963 -0.6118
 7917TIP3    H145242   5.586   0.208   0.949 -2.9285 -0.6676 -1.8171
 7917TIP3    H245243   5.712   0.161   0.881 -0.6857  2.1432  0.1274
 7918TIP3   OH245244   2.984   0.765   5.291 -0.2077 -0.3429 -0.2649
 7918TIP3    H145245   3.039   0.820   5.347 -0.1302  0.1452 -0.8047
 7918TIP3    H245246   2.995   0.802   5.203 -2.4345  0.6000 -0.2086
 7919TIP3   OH245247   0.947   5.257  16.843 -0.3262  0.2062 -0.4475
 7919TIP3    H145248   1.033   5.217  16.857 -1.1111 -1.0308  1.1329
 7919TIP3    H245249   0.926   5.236  16.752  0.3644 -0.8666 -0.3795
 7920TIP3   OH245250   0.619   5.331   3.673  0.2746 -0.7100  0.5444
 7920TIP3    H145251   0.592   5.289   3.592 -0.4896  1.9854 -0.7235
 7920TIP3    H245252   0.710   5.305   3.685 -0.5067 -3.8067  0.7331
 7921TIP3   OH245253   3.494   2.877   5.929 -0.1086 -0.3198  0.7171
 7921TIP3    H145254   3.552   2.833   5.991  0.9873  1.1878  0.8028
 7921TIP3    H245255   3.511   2.970   5.941 -2.0596  0.1394  0.2378
 7922TIP3   OH245256   6.246   5.706   2.526  0.0239  0.3009 -0.5006
 7922TIP3    H145257   6.218   5.796   2.539 -0.9128  0.0798 -0.9024
 7922TIP3    H245258   6.174   5.653   2.561  0.9637 -0.3018  0.5879
 7923TIP3   OH245259   5.696   0.070  14.790 -0.2578  0.3801 -0.4687
 7923TIP3    H145260   5.654   0.046  14.707  0.2466  0.4294 -0.7417
 7923TIP3    H245261   5.630   0.120  14.837 -0.9087 -0.5183 -0.4038
 7924TIP3   OH245262   2.303   4.355  16.155  0.0697 -0.2256  0.2034
 7924TIP3    H145263   2.234   4.297  16.124 -0.0814 -0.0253  0.1663
 7924TIP3    H245264   2.258   4.434  16.182  0.4398  0.5123 -1.2761
 7925TIP3   OH245265   5.491   5.178   1.278  0.3403  0.9783 -0.2918
 7925TIP3    H145266   5.568   5.121   1.273 -0.9846 -0.8920 -0.3080
 7925TIP3    H245267   5.521   5.261   1.241  2.9568  1.0649  1.6687
 7926TIP3   OH245268   2.079   2.076   5.640  0.0002 -0.3750  0.0821
 7926TIP3    H145269   2.015   2.022   5.686  0.7294 -0.3849  1.1285
 7926TIP3    H245270   2.163   2.033   5.658  0.9640  2.3711  3.0364
 7927TIP3   OH245271   0.224   5.426   0.618  0.3837  0.2125  0.4132
 7927TIP3    H145272   0.185   5.506   0.584 -1.8987 -0.5512  1.0894
 7927TIP3    H245273   0.237   5.371   0.540  2.1928  1.2697 -0.0835
 7928TIP3   OH245274   4.745   6.275  12.103  0.1398 -0.4089 -0.0692
 7928TIP3    H145275   4.783   6.226  12.031 -1.6742 -2.2193  0.0968
 7928TIP3    H245276   4.706   6.208  12.159  0.0826  1.0609  1.7434
 7929TIP3   OH245277   6.057   4.324   4.625  0.2025 -0.2385 -0.2561
 7929TIP3    H145278   6.013   4.247   4.660 -1.6230 -0.0279 -1.9653
 7929TIP3    H245279   6.077   4.302   4.534 -0.4536  1.3348 -0.8085
 7930TIP3   OH245280   2.442   5.829  16.422  0.0735  0.2442  0.0718
 7930TIP3    H145281   2.519   5.773  16.415  0.9957  1.6796 -4.3115
 7930TIP3    H245282   2.475   5.911  16.460  0.7985  0.8338 -1.7332
 7931TIP3   OH245283   4.155   4.171   4.057 -0.2181  0.5885  0.3692
 7931TIP3    H145284   4.149   4.232   3.983  0.1635  0.4007  0.1765
 7931TIP3    H245285   4.237   4.123   4.042 -1.2499 -1.0706 -0.3338
 7932TIP3   OH245286   2.739   5.317  13.091  0.2034 -0.4574 -0.0498
 7932TIP3    H145287   2.683   5.244  13.064  2.5554 -2.0402 -0.9837
 7932TIP3    H245288   2.718   5.330  13.184  0.3040 -2.9557  0.4011
 7933TIP3   OH245289   3.624   2.101   5.055  0.2231  0.4673  0.3630
 7933TIP3    H145290   3.599   2.131   4.968 -0.6287 -1.4251 -0.0958
 7933TIP3    H245291   3.555   2.133   5.112 -0.3559 -0.0644 -0.0229
 7934TIP3   OH245292   5.782   2.570  11.934  0.1057  0.1833 -0.0584
 7934TIP3    H145293   5.822   2.657  11.939  2.3843 -0.7144 -1.5062
 7934TIP3    H245294   5.819   2.523  12.008  0.4463 -0.1507 -0.4399
 7935TIP3   OH245295   2.380   3.336   0.116  0.0243  0.2753  0.1963
 7935TIP3    H145296   2.291   3.349   0.151  0.1728 -0.5141  0.8916
 7935TIP3    H245297   2.403   3.420   0.077 -1.2732  0.3161 -0.5538
 7936TIP3   OH245298   6.405   1.586  16.459  0.2575 -0.6422  0.2275
 7936TIP3    H145299   6.361   1.503  16.478 -0.5195  0.1492  2.0463
 7936TIP3    H245300   6.378   1.645  16.529 -0.0857  1.5122 -1.6164
 7937TIP3   OH245301   2.154   4.391   2.977 -0.8508 -0.1084 -0.0276
 7937TIP3    H145302   2.171   4.460   3.042 -0.1705 -1.2613  1.0592
 7937TIP3    H245303   2.227   4.331   2.986 -3.0148 -2.7674  1.4512
 7938TIP3   OH245304   0.959   2.424   2.919  0.1518 -0.0670  0.3216
 7938TIP3    H145305   0.864   2.417   2.910  0.2073 -1.1465  0.4388
 7938TIP3    H245306   0.994   2.411   2.831  0.1751  1.2078  0.1140
 7939TIP3   OH245307   2.558   5.426  11.578  0.2713  0.3969 -0.4748
 7939TIP3    H145308   2.479   5.403  11.626  0.3923  0.1787 -0.3808
 7939TIP3    H245309   2.568   5.357  11.512  1.8720 -1.1327  1.2388
 7940TIP3   OH245310   1.650   4.497   2.129 -0.1545 -0.2555 -0.7587
 7940TIP3    H145311   1.710   4.423   2.120 -1.8836 -1.7281 -0.8721
 7940TIP3    H245312   1.569   4.458   2.161 -0.8199  1.7708  0.2374
 7941TIP3   OH245313   5.975   4.387  15.066 -0.2799  0.5571  0.0942
 7941TIP3    H145314   5.982   4.483  15.064 -0.6105  0.6397 -3.8030
 7941TIP3    H245315   5.902   4.367  15.008 -1.4098 -2.0914  2.2187
 7942TIP3   OH245316   4.155   3.469  11.405  0.2363 -0.0735 -0.0332
 7942TIP3    H145317   4.203   3.549  11.427 -0.3226 -0.0690  1.2317
 7942TIP3    H245318   4.068   3.500  11.379 -1.0230 -0.3456  3.3702
 7943TIP3   OH245319   0.133   0.875  14.259 -0.4388 -0.5629 -0.2667
 7943TIP3    H145320   0.082   0.844  14.184 -0.5002 -0.8687 -0.1016
 7943TIP3    H245321   0.185   0.947  14.225 -0.2730 -0.8708 -0.6679
 7944TIP3   OH245322   2.020   0.092   3.166  0.4789  0.7936  0.3089
 7944TIP3    H145323   1.980   0.020   3.116 -0.1082  1.4170 -0.1378
 7944TIP3    H245324   1.959   0.165   3.154  0.3863  0.9954  1.8435
 7945TIP3   OH245325   1.055   5.297  12.070 -0.2508 -0.1705  0.2472
 7945TIP3    H145326   1.037   5.366  12.006 -0.4560  1.4997  2.0125
 7945TIP3    H245327   0.997   5.316  12.143  0.2920 -1.7489  1.1492
 7946TIP3   OH245328   6.042   1.274   0.109 -0.1281  0.3638 -0.6858
 7946TIP3    H145329   6.072   1.213   0.042  2.2206 -0.1542  0.7207
 7946TIP3    H245330   6.092   1.354   0.093 -0.0991  0.4852 -0.0364
 7947TIP3   OH245331   5.002   0.299   0.301  1.0169  0.3399  0.4052
 7947TIP3    H145332   5.027   0.349   0.224  0.6263  1.6839  1.1090
 7947TIP3    H245333   4.930   0.244   0.271  0.7403  0.9865 -0.1606
 7948TIP3   OH245334   0.334   2.609  16.869 -0.2592  0.6423  0.0960
 7948TIP3    H145335   0.251   2.562  16.873  0.9498 -1.7535 -0.9154
 7948TIP3    H245336   0.329   2.660  16.788 -0.0987 -0.9463 -0.9704
 7949TIP3   OH245337   4.454   4.831  13.285 -0.1275  0.0104  0.0716
 7949TIP3    H145338   4.453   4.751  13.231  1.5347  0.2965 -0.4346
 7949TIP3    H245339   4.547   4.853  13.294 -0.5129  1.4061  0.9454
 7950TIP3   OH245340   5.829   5.154   2.804 -0.4947  0.2682  0.3074
 7950TIP3    H145341   5.755   5.210   2.783 -0.6456 -0.0171  0.0659
 7950TIP3    H245342   5.790   5.068   2.820  0.0168 -0.6960 -2.9292
 7951TIP3   OH245343   2.487   2.325  11.903 -0.3103  0.1016  0.2055
 7951TIP3    H145344   2.405   2.278  11.921 -0.1287  0.0107  0.8257
 7951TIP3    H245345   2.538   2.314  11.983 -0.2277  1.2672  0.3278
 7952TIP3   OH245346   1.804   0.629   6.023  0.4200  0.1726 -0.5992
 7952TIP3    H145347   1.730   0.661   5.972 -0.7769 -2.6026 -0.8015
 7952TIP3    H245348   1.765   0.571   6.088  2.4166 -2.4435 -1.5398
 7953TIP3   OH245349   4.746   2.206   2.703 -0.2251 -0.0858  0.0982
 7953TIP3    H145350   4.767   2.170   2.617 -0.5876  1.3147 -0.6169
 7953TIP3    H245351   4.831   2.229   2.741  0.0966 -2.5375  1.0070
 7954TIP3   OH245352   5.584   1.876  17.301 -0.3322  0.5268  0.0545
 7954TIP3    H145353   5.558   1.834  17.219 -2.2377 -1.2734  1.4719
 7954TIP3    H245354   5.666   1.833  17.324 -1.7161 -1.8478  0.9410
 7955TIP3   OH245355   3.651   4.019  12.526 -0.0272  0.1731  0.4079
 7955TIP3    H145356   3.679   3.931  12.501 -2.8866 -1.1224  1.3849
 7955TIP3    H245357   3.666   4.022  12.621  1.6270  1.4497  0.1647
 7956TIP3   OH245358   5.423   2.901   5.329  0.2267 -0.2663 -0.2591
 7956TIP3    H145359   5.448   2.863   5.413 -0.7463  0.6826  0.4870
 7956TIP3    H245360   5.455   2.991   5.332  2.8610 -1.0108 -2.1664
 7957TIP3   OH245361   1.242   6.509   5.283 -0.2774  0.1036 -0.6479
 7957TIP3    H145362   1.206   6.422   5.298 -0.3689  0.4068  1.0770
 7957TIP3    H245363   1.266   6.541   5.370  0.7491  1.3816 -1.3574
 7958TIP3   OH245364   0.741   4.302  12.170 -0.5105  0.6041  0.1344
 7958TIP3    H145365   0.812   4.346  12.217 -0.0823  0.8618 -0.7369
 7958TIP3    H245366   0.681   4.273  12.239  0.1095  0.9601  0.8374
 7959TIP3   OH245367   3.048   5.089  14.988 -0.1732  0.8758  0.3217
 7959TIP3    H145368   2.974   5.131  15.032  0.2004  1.3089  0.5468
 7959TIP3    H245369   3.087   5.032  15.054 -0.1218  0.8840  0.2993
 7960TIP3   OH245370   3.168   3.156  10.840  0.2237  0.6249 -0.4548
 7960TIP3    H145371   3.076   3.129  10.844  0.3935 -0.0770 -1.1089
 7960TIP3    H245372   3.217   3.075  10.850  0.8780  1.2737  3.0057
 7961TIP3   OH245373   1.702   2.089   4.914 -0.1713  0.1805 -0.4091
 7961TIP3    H145374   1.696   2.062   5.005 -1.6838 -1.2424 -0.8843
 7961TIP3    H245375   1.714   2.184   4.917 -0.6746  0.2092  1.2495
 7962TIP3   OH245376   4.639   3.484  16.123 -0.1365 -0.3702  0.0624
 7962TIP3    H145377   4.692   3.441  16.189  1.3533 -2.7920 -2.5416
 7962TIP3    H245378   4.581   3.416  16.090  0.3426  0.2754 -2.2773
 7963TIP3   OH245379   4.573   2.421  17.483 -0.0383 -0.6015 -0.1808
 7963TIP3    H145380   4.541   2.434  17.393  1.2609 -0.4363 -0.6461
 7963TIP3    H245381   4.668   2.432  17.476 -0.1288  2.5181  1.7570
 7964TIP3   OH245382   0.820   4.828   1.737 -0.2292 -0.1456  0.1330
 7964TIP3    H145383   0.880   4.791   1.673 -0.0667  0.3682 -0.0154
 7964TIP3    H245384   0.816   4.921   1.715 -1.4012 -0.2456 -0.1166
 7965TIP3   OH245385   3.168   1.846  17.428  0.0603 -0.2540  0.1205
 7965TIP3    H145386   3.244   1.797  17.398  0.0307  0.3260 -0.9390
 7965TIP3    H245387   3.148   1.907  17.357 -0.5526  0.5653  0.9578
 7966TIP3   OH245388   5.363   6.037   4.749 -0.4041 -0.1316 -0.0951
 7966TIP3    H145389   5.348   5.997   4.663  1.1619  0.1371 -0.5111
 7966TIP3    H245390   5.278   6.030   4.793 -1.2842 -0.1315 -1.7072
 7967TIP3   OH245391   5.415   2.630   2.957  0.1535  0.5819 -0.1716
 7967TIP3    H145392   5.385   2.539   2.946 -2.4330  1.3060  0.1146
 7967TIP3    H245393   5.395   2.673   2.874  0.7671  1.0604 -0.0809
 7968TIP3   OH245394   1.256   1.084   0.028  0.0030  0.4978 -0.1119
 7968TIP3    H145395   1.276   1.149  -0.039  1.8590  0.2930  0.1939
 7968TIP3    H245396   1.298   1.004  -0.002 -0.5483 -0.0391  0.4992
 7969TIP3   OH245397   0.983   4.420  13.878  0.4281  0.2612 -0.8469
 7969TIP3    H145398   1.015   4.509  13.891 -1.7609  0.9952 -0.0216
 7969TIP3    H245399   0.919   4.427  13.807  0.3550 -0.6746 -0.8939
 7970TIP3   OH245400   0.299   1.597   1.308  0.1419  0.1660  0.1267
 7970TIP3    H145401   0.215   1.572   1.348 -0.5282  1.5291 -0.3703
 7970TIP3    H245402   0.275   1.635   1.223  1.2401  0.8690  0.1100
 7971TIP3   OH245403   4.164   6.705  17.151 -0.1283 -0.1527 -0.4453
 7971TIP3    H145404   4.102   6.728  17.082  0.5465 -0.3222 -1.1254
 7971TIP3    H245405   4.136   6.756  17.227 -1.9687 -1.3267 -0.2829
 7972TIP3   OH245406   3.665   2.477   5.272  0.4042  0.6540  0.1805
 7972TIP3    H145407   3.678   2.480   5.367  0.8853 -0.4597  0.1772
 7972TIP3    H245408   3.582   2.431   5.260 -0.0110  1.4167  0.0640
 7973TIP3   OH245409   3.587   0.292  14.168 -0.3696 -0.0346  0.2059
 7973TIP3    H145410   3.603   0.386  14.178 -0.3778 -0.1422  1.2793
 7973TIP3    H245411   3.636   0.268  14.089  1.1429  0.5129  0.9575
 7974TIP3   OH245412   5.770   4.006   5.776 -0.1407  0.1935 -0.0759
 7974TIP3    H145413   5.721   3.927   5.756  0.0721  0.3242 -1.1854
 7974TIP3    H245414   5.706   4.077   5.767  0.1581  0.3349 -1.2131
 7975TIP3   OH245415   0.739   3.782   3.202  0.5127  0.5717  0.6927
 7975TIP3    H145416   0.716   3.703   3.250  0.3036 -1.2537 -2.2055
 7975TIP3    H245417   0.835   3.783   3.202  0.5157  0.3265  0.7343
 7976TIP3   OH245418   4.057   3.274  15.000 -0.2054 -0.3903 -0.4984
 7976TIP3    H145419   4.012   3.193  15.022 -2.7728  1.0868  0.1268
 7976TIP3    H245420   3.993   3.323  14.948  1.4913  1.0100 -1.3650
 7977TIP3   OH245421   0.462   1.614   1.684  0.1324  0.4223 -0.4014
 7977TIP3    H145422   0.436   1.697   1.644 -1.5637 -0.1186 -0.4848
 7977TIP3    H245423   0.475   1.555   1.610 -1.7149 -0.2122 -0.2719
 7978TIP3   OH245424   5.779   6.152  16.854 -0.1059 -0.1754  0.1136
 7978TIP3    H145425   5.796   6.071  16.805  0.2074  0.0286 -0.1206
 7978TIP3    H245426   5.700   6.188  16.812  0.3820  0.1953 -0.5049
 7979TIP3   OH245427   6.267   4.601   1.416  0.6922 -0.3327 -0.6015
 7979TIP3    H145428   6.346   4.640   1.379 -0.3125  1.5631 -0.8503
 7979TIP3    H245429   6.276   4.615   1.510  0.3340  0.5698 -0.6891
 7980TIP3   OH245430   3.486   1.528   2.710  0.0957 -0.2938  0.4183
 7980TIP3    H145431   3.504   1.442   2.748  0.4914  0.6957  2.6140
 7980TIP3    H245432   3.395   1.522   2.679  0.7553 -2.0983 -1.3490
 7981TIP3   OH245433   5.355   4.172   3.573 -0.6826  0.4057  0.4132
 7981TIP3    H145434   5.311   4.251   3.602 -0.0487  0.5822  0.9300
 7981TIP3    H245435   5.439   4.202   3.538 -0.8032  0.0428 -0.2220
 7982TIP3   OH245436   6.727   6.330  16.949 -0.0666  0.2785 -0.8669
 7982TIP3    H145437   6.686   6.315  17.034 -1.9065  1.5790 -1.4612
 7982TIP3    H245438   6.772   6.247  16.929  1.0692  0.2021  1.6688
 7983TIP3   OH245439   5.447   6.516  16.214 -0.9536 -0.2844  0.0460
 7983TIP3    H145440   5.406   6.548  16.295 -1.8022 -0.3546 -0.3453
 7983TIP3    H245441   5.482   6.430  16.237 -2.3625 -0.8966  0.0123
 7984TIP3   OH245442   0.952   5.389   2.805 -0.4343 -0.1786  0.5762
 7984TIP3    H145443   0.939   5.316   2.865 -0.0976 -0.9912 -0.3343
 7984TIP3    H245444   0.955   5.466   2.862  0.5235 -0.9975  1.6659
 7985TIP3   OH245445   3.661   0.457   0.641  0.2641 -0.0193 -0.0957
 7985TIP3    H145446   3.589   0.394   0.638  0.1540  0.0972  0.0748
 7985TIP3    H245447   3.640   0.521   0.573  0.4198 -0.2127 -0.3274
 7986TIP3   OH245448   0.676   2.058   1.384  0.0919 -0.1026 -0.0583
 7986TIP3    H145449   0.618   2.125   1.348  2.2426  0.7734 -2.1713
 7986TIP3    H245450   0.678   1.990   1.317  0.6839 -0.6218  0.4802
 7987TIP3   OH245451   1.703   4.032   4.820  0.3135 -0.1536  0.4581
 7987TIP3    H145452   1.611   4.006   4.817  0.7890 -1.9956  0.8202
 7987TIP3    H245453   1.735   4.016   4.731 -0.3707  3.3648 -0.5763
 7988TIP3   OH245454   0.993   0.907   3.270 -0.7816 -0.0667  0.5165
 7988TIP3    H145455   0.990   0.888   3.176  1.3296 -0.8576  0.5469
 7988TIP3    H245456   1.081   0.940   3.285 -1.0648  0.0028  2.2336
 7989TIP3   OH245457   3.548   2.255  15.562 -0.2069  0.1999  0.4824
 7989TIP3    H145458   3.589   2.325  15.513  0.3065  0.3458  1.1050
 7989TIP3    H245459   3.619   2.193  15.581 -0.5548 -0.2434  0.3555
 7990TIP3   OH245460   2.397   6.705  16.943  0.1769  0.7613 -0.5964
 7990TIP3    H145461   2.357   6.750  16.869  1.2364  1.5178 -0.7387
 7990TIP3    H245462   2.490   6.702  16.921  0.3195 -0.2310  0.0835
 7991TIP3   OH245463   4.106   5.379  15.166  0.2146 -0.4119 -0.1858
 7991TIP3    H145464   4.128   5.439  15.238 -2.3588  1.6723 -0.9797
 7991TIP3    H245465   4.096   5.436  15.090 -1.2341 -2.0138 -1.2649
 7992TIP3   OH245466   6.636   3.543   2.202  0.0439 -0.4125 -0.1459
 7992TIP3    H145467   6.583   3.523   2.125 -0.1572 -0.3929 -0.0132
 7992TIP3    H245468   6.620   3.636   2.219  2.6799  0.5321 -2.1046
 7993TIP3   OH245469   2.749   4.722  14.712  0.1137  0.5269 -0.3816
 7993TIP3    H145470   2.824   4.701  14.767 -0.4566  0.1112  0.2641
 7993TIP3    H245471   2.767   4.810  14.679  0.3669  0.8957  0.6880
 7994TIP3   OH245472   3.631   2.804  14.174 -0.4569  0.0068  0.3501
 7994TIP3    H145473   3.714   2.851  14.172 -0.9085  0.7871 -1.5564
 7994TIP3    H245474   3.614   2.779  14.083 -1.6727 -1.3221  0.8822
 7995TIP3   OH245475   2.325   3.703   4.276 -0.5170  0.5006  1.0613
 7995TIP3    H145476   2.363   3.631   4.225 -0.0430  1.1584  0.4750
 7995TIP3    H245477   2.241   3.720   4.234 -0.0354  1.1802  0.3571
 7996TIP3   OH245478   3.334   4.596   1.530 -0.6937  0.0914 -0.0785
 7996TIP3    H145479   3.325   4.608   1.435  1.6448 -0.0404 -0.3758
 7996TIP3    H245480   3.420   4.556   1.541 -0.9463  0.0263  2.1181
 7997TIP3   OH245481   5.897   1.314   1.493 -0.0945 -0.1349  0.1623
 7997TIP3    H145482   5.962   1.288   1.558 -2.0304 -0.5846  2.0102
 7997TIP3    H245483   5.909   1.409   1.484 -0.0185 -0.0063  1.4506
 7998TIP3   OH245484   3.093   3.201  13.677  0.3920  0.0526  0.5892
 7998TIP3    H145485   3.189   3.196  13.674  0.3886  0.0897  0.4017
 7998TIP3    H245486   3.074   3.248  13.758  0.5631  0.8706  0.1662
 7999TIP3   OH245487   4.886   5.677  15.739 -0.3247  0.2709  0.1160
 7999TIP3    H145488   4.910   5.674  15.646 -0.6598  0.7102  0.0095
 7999TIP3    H245489   4.798   5.639  15.742  0.1336 -0.7931  0.4194
 8000TIP3   OH245490   0.170   5.544  15.329 -0.1766 -0.4996 -0.2220
 8000TIP3    H145491   0.123   5.627  15.320 -1.1974 -1.0936 -0.4678
 8000TIP3    H245492   0.110   5.487  15.377  1.0158 -0.7258  1.0771
 8001TIP3   OH245493   5.050   1.162  13.302  0.3085 -0.3787 -0.3168
 8001TIP3    H145494   4.962   1.178  13.269  0.1086  2.1647  1.1770
 8001TIP3    H245495   5.038   1.146  13.396  1.4529  0.7804  0.0669
 8002TIP3   OH245496   0.329   2.932  10.971  0.2995  0.2378  0.6160
 8002TIP3    H145497   0.338   2.847  11.016  0.5276  0.5757  1.2258
 8002TIP3    H245498   0.412   2.976  10.987  0.6239  0.1326 -0.6744
 8003TIP3   OH245499   4.420   1.246   2.538 -0.1651 -0.3145 -0.3151
 8003TIP3    H145500   4.388   1.195   2.613 -0.6665 -1.6450 -1.4005
 8003TIP3    H245501   4.351   1.238   2.472  0.8420 -0.2416 -1.3984
 8004TIP3   OH245502   0.131   2.324   2.363  0.0782 -0.0712  0.3188
 8004TIP3    H145503   0.150   2.297   2.453  1.1777  0.3341  0.2296
 8004TIP3    H245504   0.189   2.270   2.310 -0.6292 -0.3704 -0.1619
 8005TIP3   OH245505   4.123   1.756  13.051  0.1664 -0.4117 -0.1273
 8005TIP3    H145506   4.198   1.734  13.106 -0.1014  0.1900  0.4992
 8005TIP3    H245507   4.047   1.741  13.106 -0.2244 -1.5412 -0.9391
 8006TIP3   OH245508   0.682   1.376   2.816 -0.4332 -0.5850  0.3104
 8006TIP3    H145509   0.755   1.380   2.878  1.2987  3.0918 -1.6936
 8006TIP3    H245510   0.607   1.411   2.865 -0.1993 -1.6615  1.5022
 8007TIP3   OH245511   2.040   5.623  14.204 -0.2843  0.2671 -0.2667
 8007TIP3    H145512   2.052   5.567  14.280 -1.9613 -0.8922 -0.7938
 8007TIP3    H245513   1.950   5.656  14.212  0.1042  1.5301 -0.8539
 8008TIP3   OH245514   6.003   0.670   3.242  0.4627  0.1749 -0.6528
 8008TIP3    H145515   5.907   0.664   3.243  0.4921 -0.2054 -0.2177
 8008TIP3    H245516   6.027   0.641   3.154  0.2910 -1.4654 -0.1830
 8009TIP3   OH245517   5.410   4.968  11.710 -0.0649 -0.0090 -0.0986
 8009TIP3    H145518   5.409   4.927  11.624  0.7199 -2.3826  0.9470
 8009TIP3    H245519   5.482   5.031  11.707  1.9100 -2.1586 -0.3369
 8010TIP3   OH245520   2.299   5.947  14.994 -0.8200  0.5151 -0.1906
 8010TIP3    H145521   2.290   6.011  15.065 -2.4162 -0.2599  0.3719
 8010TIP3    H245522   2.209   5.930  14.967 -0.2263  1.5626 -3.1803
 8011TIP3   OH245523   5.205   6.600   3.941  0.0639 -0.0558  0.1366
 8011TIP3    H145524   5.192   6.624   4.032  4.0720 -3.1586  1.8832
 8011TIP3    H245525   5.284   6.648   3.915  0.0897 -0.6729 -0.9948
 8012TIP3   OH245526   4.557   3.347   2.658 -0.0722 -0.2069 -0.0524
 8012TIP3    H145527   4.614   3.395   2.598  0.4874 -0.3542  0.3496
 8012TIP3    H245528   4.477   3.400   2.663  0.1782  0.1993 -0.3344
 8013TIP3   OH245529   3.240   2.341  13.070  0.6355  0.1487  0.0493
 8013TIP3    H145530   3.290   2.285  13.130  0.7003  0.7580  0.5788
 8013TIP3    H245531   3.225   2.287  12.993  4.5997  0.7964 -1.3959
 8014TIP3   OH245532   2.504   0.293  14.135  0.0446  0.4062 -0.2769
 8014TIP3    H145533   2.561   0.290  14.057 -0.0480 -0.6038 -0.3163
 8014TIP3    H245534   2.510   0.384  14.165 -1.4083  1.3674 -2.5617
 8015TIP3   OH245535   2.577   5.905  14.581  0.0577  0.4957 -0.0098
 8015TIP3    H145536   2.660   5.940  14.548 -0.6152  0.6821 -1.6069
 8015TIP3    H245537   2.510   5.953  14.532 -0.9360 -2.7198 -2.1183
 8016TIP3   OH245538   3.827   4.024  15.340  0.2818 -0.4177 -0.3469
 8016TIP3    H145539   3.750   3.967  15.336  0.1060 -0.1904 -0.2221
 8016TIP3    H245540   3.901   3.964  15.339  0.2473 -0.6141 -3.6301
 8017TIP3   OH245541   3.745   0.823  15.089  0.3156  0.0574  0.2462
 8017TIP3    H145542   3.831   0.842  15.125 -0.3105  1.1391  1.2577
 8017TIP3    H245543   3.715   0.747  15.139  2.2381 -3.0471 -2.8368
 8018TIP3   OH245544   1.275   0.378   3.999  0.6527  0.4394 -0.1042
 8018TIP3    H145545   1.335   0.438   3.955  2.2339 -0.5335  0.6527
 8018TIP3    H245546   1.331   0.322   4.053 -1.1192  1.1465  2.6859
 8019TIP3   OH245547   2.687   4.509  14.226  0.0723 -0.3148 -0.0280
 8019TIP3    H145548   2.761   4.567  14.242  0.0527 -0.6624  1.5026
 8019TIP3    H245549   2.610   4.565  14.233  0.0944 -0.3560  0.5961
 8020TIP3   OH245550   4.348   1.419  13.364 -0.1167 -0.3168  0.1805
 8020TIP3    H145551   4.399   1.494  13.335  0.4363 -0.7017  0.1504
 8020TIP3    H245552   4.276   1.413  13.300 -0.1448  0.1662  0.1692
 8021TIP3   OH245553   2.452   3.648   5.820  0.0335  0.5644  0.4111
 8021TIP3    H145554   2.467   3.673   5.729 -0.5965  1.7500  0.6218
 8021TIP3    H245555   2.494   3.717   5.872 -2.0679  1.4844  1.0025
 8022TIP3   OH245556   0.667   2.474   1.886 -0.6180 -0.0817 -0.1725
 8022TIP3    H145557   0.695   2.466   1.977  0.9943 -2.3331 -0.7835
 8022TIP3    H245558   0.714   2.550   1.853 -0.0098 -0.1676  0.4785
 8023TIP3   OH245559   5.316   4.045  13.067  0.0180  0.2856 -0.4341
 8023TIP3    H145560   5.407   4.026  13.089 -0.8144  0.1348  3.6130
 8023TIP3    H245561   5.314   4.140  13.054  1.1305  0.0027 -3.4688
 8024TIP3   OH245562   3.910   3.591   1.750 -0.4932  0.7317  0.5238
 8024TIP3    H145563   3.852   3.516   1.753  1.5297 -0.9622 -0.3463
 8024TIP3    H245564   3.940   3.595   1.659  0.3780  1.8379  0.8358
 8025TIP3   OH245565   3.480   6.236  12.704  0.5450 -0.0670  0.2275
 8025TIP3    H145566   3.575   6.227  12.713  0.3112 -1.1498  2.0075
 8025TIP3    H245567   3.449   6.148  12.682 -0.0088  0.4070 -0.9768
 8026TIP3   OH245568   0.150   3.875  15.764  0.3269  0.6384 -0.8504
 8026TIP3    H145569   0.158   3.944  15.699  2.9305 -0.7722 -2.2164
 8026TIP3    H245570   0.136   3.795  15.713 -0.9957 -0.0819  0.5709
 8027TIP3   OH245571   6.337   1.853   1.885 -0.2507  0.0876 -0.5664
 8027TIP3    H145572   6.316   1.940   1.853 -0.9971  0.0519 -0.2132
 8027TIP3    H245573   6.280   1.841   1.962  0.8408 -0.1654  0.2308
 8028TIP3   OH245574   4.392   3.638   3.991  0.0550 -0.1519 -0.1146
 8028TIP3    H145575   4.401   3.577   4.064 -1.5692  0.4262  0.6252
 8028TIP3    H245576   4.462   3.702   4.004  0.5478 -0.7452  0.2183
 8029TIP3   OH245577   5.351   1.395  12.396  0.4375 -0.9272  0.1700
 8029TIP3    H145578   5.299   1.332  12.445  0.5548 -1.5798 -0.5235
 8029TIP3    H245579   5.434   1.400  12.444 -0.7796  1.4066  2.2819
 8030TIP3   OH245580   5.109   1.729   2.267  0.6710 -0.1596  0.1132
 8030TIP3    H145581   5.083   1.676   2.342 -1.6886  0.3326 -0.2865
 8030TIP3    H245582   5.118   1.667   2.195 -2.2347 -0.1187 -0.3926
 8031TIP3   OH245583   2.370   0.229  16.038 -0.8483 -0.3769 -0.3376
 8031TIP3    H145584   2.343   0.319  16.057 -2.1291 -0.4153 -1.8285
 8031TIP3    H245585   2.350   0.217  15.946  0.5822 -1.7766 -0.5094
 8032TIP3   OH245586   2.135   1.958   6.044 -0.1528 -0.1437  0.1235
 8032TIP3    H145587   2.083   2.027   6.086 -2.6260 -2.2153  0.7051
 8032TIP3    H245588   2.165   1.903   6.116  0.2364 -0.7001 -0.4589
 8033TIP3   OH245589   1.089   2.650   3.295  0.5969  0.1762 -0.2475
 8033TIP3    H145590   1.149   2.718   3.264 -0.3806  0.6590 -1.1376
 8033TIP3    H245591   1.029   2.696   3.354  1.2200 -0.3548  0.8494
 8034TIP3   OH245592   0.531   5.858  14.233 -0.2873  0.4239  0.4311
 8034TIP3    H145593   0.523   5.824  14.143 -1.8589  0.6253  0.4651
 8034TIP3    H245594   0.441   5.879  14.258 -0.4259 -2.7224  3.2753
 8035TIP3   OH245595   4.877   5.001  16.723 -0.0527 -0.4654 -0.2618
 8035TIP3    H145596   4.788   4.980  16.695 -0.4004 -0.3970  0.7544
 8035TIP3    H245597   4.873   5.094  16.748  0.8402  0.1586 -2.2569
 8036TIP3   OH245598   0.999   4.536   1.812 -0.6098 -0.2177  0.5738
 8036TIP3    H145599   0.921   4.562   1.762 -0.3144 -0.5696 -0.0776
 8036TIP3    H245600   0.963   4.485   1.886 -1.0769  0.6957  0.9935
 8037TIP3   OH245601   3.559   2.936   4.586 -0.3620  0.1618  0.5124
 8037TIP3    H145602   3.563   3.029   4.564 -1.5511  0.3241  0.8812
 8037TIP3    H245603   3.644   2.901   4.560  0.0205  1.3053  0.1643
 8038TIP3   OH245604   2.491   1.201  15.150 -0.6165 -0.0515 -0.3623
 8038TIP3    H145605   2.485   1.108  15.175 -0.3553  0.5634  2.3074
 8038TIP3    H245606   2.507   1.247  15.232  0.8640  2.2494 -1.8165
 8039TIP3   OH245607   2.929   3.742   0.977 -0.8046  0.2064 -0.7766
 8039TIP3    H145608   2.928   3.806   1.048 -1.7125  0.9464 -1.4336
 8039TIP3    H245609   2.954   3.660   1.019 -0.2913  0.8367  0.2043
 8040TIP3   OH245610   5.576   1.956   5.597  0.2130 -0.3032  0.3258
 8040TIP3    H145611   5.629   2.020   5.550  0.4614  0.0347  1.0485
 8040TIP3    H245612   5.566   1.993   5.685 -2.7212  0.5394 -0.2236
 8041TIP3   OH245613   6.427   0.040   4.256 -0.5051  0.2961 -0.0933
 8041TIP3    H145614   6.430   0.054   4.351  1.0732 -0.2943 -0.0354
 8041TIP3    H245615   6.378  -0.041   4.246  0.0189 -0.0699  0.2729
 8042TIP3   OH245616   3.796   5.978   2.520 -0.1052 -0.3638 -0.8685
 8042TIP3    H145617   3.866   5.969   2.585  0.3043  0.0133 -1.2559
 8042TIP3    H245618   3.825   5.924   2.446 -0.8387 -1.2567 -0.5304
 8043TIP3   OH245619   4.983   4.980  17.516  0.4524  0.2222  0.2168
 8043TIP3    H145620   5.051   4.991  17.583 -0.1115 -0.0075  0.8248
 8043TIP3    H245621   4.907   4.948  17.563  0.0793 -0.0413 -0.5540
 8044TIP3   OH245622   1.584   0.974  13.790 -0.9464  0.2015  0.1645
 8044TIP3    H145623   1.580   0.939  13.701  1.1872  0.5384 -0.1040
 8044TIP3    H245624   1.526   1.050  13.787  1.1940  1.9120 -1.8165
 8045TIP3   OH245625   0.035   0.932   3.645 -0.0127 -0.4390 -0.1165
 8045TIP3    H145626   0.063   1.019   3.617 -0.9590 -0.3120 -0.7203
 8045TIP3    H245627  -0.057   0.927   3.620 -0.0941 -1.4528  0.3149
 8046TIP3   OH245628   3.021   5.129  15.571  0.1723 -0.1041 -0.4627
 8046TIP3    H145629   2.973   5.156  15.649  0.6017 -1.0030  0.1297
 8046TIP3    H245630   3.109   5.163  15.584 -0.0380  0.7217 -1.1038
 8047TIP3   OH245631   0.559   6.393  14.648  0.5114 -0.6779  0.1302
 8047TIP3    H145632   0.512   6.455  14.704 -0.6129 -1.0782 -0.3442
 8047TIP3    H245633   0.595   6.328  14.709 -3.4788 -3.0219  0.3215
 8048TIP3   OH245634   5.796   1.403  14.390 -0.5536  0.5565 -0.0244
 8048TIP3    H145635   5.790   1.497  14.372  0.4900  0.7010  0.3253
 8048TIP3    H245636   5.708   1.379  14.419 -0.6233  1.6082  0.7265
 8049TIP3   OH245637   0.059   2.925  11.929  0.5564 -0.5826  0.0446
 8049TIP3    H145638   0.016   2.871  11.863  0.0815  0.9799 -1.0015
 8049TIP3    H245639   0.115   2.985  11.878  0.4467  0.4333  1.0707
 8050TIP3   OH245640   6.631   6.140   5.456  0.1098  0.3631 -0.0248
 8050TIP3    H145641   6.700   6.134   5.522  0.3523  2.1871 -0.0513
 8050TIP3    H245642   6.550   6.136   5.507  0.0399 -3.9817 -0.1679
 8051TIP3   OH245643   1.949   2.807   0.947 -0.6036  0.2273  0.4624
 8051TIP3    H145644   2.017   2.771   0.890 -1.4833 -0.0506 -0.4444
 8051TIP3    H245645   1.992   2.880   0.992 -0.3132  1.5789 -1.8176
 8052TIP3   OH245646   4.948   5.232   2.475  0.1031 -0.0238 -0.0983
 8052TIP3    H145647   4.873   5.238   2.534  0.3164  1.8252  0.0599
 8052TIP3    H245648   4.940   5.146   2.434 -2.0391  0.0704 -0.0049
 8053TIP3   OH245649   0.483   0.891  17.088 -0.0201 -0.3983 -0.1871
 8053TIP3    H145650   0.575   0.916  17.092  0.0541 -0.7614  0.5511
 8053TIP3    H245651   0.469   0.839  17.167 -0.2727 -2.3459 -1.4498
 8054TIP3   OH245652   0.199   0.840  13.683  0.2075 -0.4138 -0.1326
 8054TIP3    H145653   0.239   0.816  13.767  0.2310 -2.3284 -0.6283
 8054TIP3    H245654   0.126   0.778  13.674 -0.3868  0.4126 -1.0805
 8055TIP3   OH245655   6.073   3.371  13.934  0.1584 -0.3023  0.2904
 8055TIP3    H145656   6.157   3.328  13.945  0.4134  0.3684  1.0650
 8055TIP3    H245657   6.074   3.443  13.997 -0.9029 -0.1487  0.1573
 8056TIP3   OH245658   0.441   4.087   5.388 -0.3251  0.3438 -0.1075
 8056TIP3    H145659   0.394   4.059   5.309  1.7816 -0.5216 -1.1176
 8056TIP3    H245660   0.439   4.011   5.446  0.9073 -0.1477 -0.6899
 8057TIP3   OH245661   4.341   1.720  17.212 -0.2286  0.2558  0.3913
 8057TIP3    H145662   4.396   1.676  17.147 -1.5598  0.0828 -0.6594
 8057TIP3    H245663   4.253   1.715  17.176 -1.1060 -0.2948  2.4642
 8058TIP3   OH245664   3.499   3.110  15.965 -0.8442  0.5638  0.4854
 8058TIP3    H145665   3.514   3.197  16.004 -0.3732  0.3219  0.8464
 8058TIP3    H245666   3.414   3.119  15.922  0.6644  2.2682 -2.5005
 8059TIP3   OH245667   2.492   6.236   0.072 -0.2897 -0.1593  0.4820
 8059TIP3    H145668   2.446   6.172   0.018 -0.9245  1.7965 -1.4038
 8059TIP3    H245669   2.422   6.286   0.115  0.1636  0.2379  0.7740
 8060TIP3   OH245670   1.944   4.050   1.947 -0.4278 -0.0773 -0.3875
 8060TIP3    H145671   1.960   4.080   1.857 -2.1640  0.4081 -0.5751
 8060TIP3    H245672   1.938   3.955   1.939  0.2796 -0.1110 -0.6263
 8061TIP3   OH245673   3.785   6.538   2.909 -0.4334 -0.4920 -0.0349
 8061TIP3    H145674   3.784   6.443   2.921  1.3060 -0.3185  2.5345
 8061TIP3    H245675   3.721   6.570   2.973 -2.4520  0.0703 -2.2232
 8062TIP3   OH245676   6.083   6.028   6.291  0.4660 -0.4225  0.1290
 8062TIP3    H145677   6.159   6.082   6.315 -0.3269  0.3296  1.0487
 8062TIP3    H245678   6.082   5.959   6.357 -0.3475  0.2848  0.8809
 8063TIP3   OH245679   5.094   5.754  15.241 -0.1846 -0.0091  0.3806
 8063TIP3    H145680   5.160   5.823  15.231 -0.9923  0.8488  0.8136
 8063TIP3    H245681   5.011   5.801  15.252 -1.2251 -1.0822 -2.2180
 8064TIP3   OH245682   4.192   4.518  13.668  0.3202 -0.1738  0.1812
 8064TIP3    H145683   4.099   4.521  13.689  0.0068  3.9012 -0.9502
 8064TIP3    H245684   4.236   4.521  13.753 -0.6228  0.0443  0.6706
 8065TIP3   OH245685   4.781   3.034   1.703  0.1078  0.8140 -0.1016
 8065TIP3    H145686   4.864   3.071   1.731  0.5209  0.4546 -0.8258
 8065TIP3    H245687   4.800   2.942   1.683 -0.5439  0.6281  0.0789
 8066TIP3   OH245688   0.502   3.740   1.298 -0.0637 -0.2240  0.2624
 8066TIP3    H145689   0.501   3.687   1.378  1.5414 -0.0881  0.4111
 8066TIP3    H245690   0.572   3.701   1.245 -1.0359 -0.2566 -1.0556
 8067TIP3   OH245691   0.341   6.605   5.605  0.3268  0.2537 -0.0089
 8067TIP3    H145692   0.300   6.634   5.523 -0.0485  2.1133  0.8059
 8067TIP3    H245693   0.275   6.549   5.646  1.0567 -1.9127 -1.5888
 8068TIP3   OH245694   2.945   6.353   5.823  0.0570 -0.6030  0.5409
 8068TIP3    H145695   2.851   6.350   5.805  0.3961 -2.2588 -1.2573
 8068TIP3    H245696   2.969   6.262   5.842  1.2732 -0.1796  1.1274
 8069TIP3   OH245697   4.757   5.190   5.741  0.3598  0.1471  0.2860
 8069TIP3    H145698   4.844   5.168   5.707  0.1487 -0.2986  0.0271
 8069TIP3    H245699   4.699   5.177   5.666 -0.2763 -1.8456  1.0642
 8070TIP3   OH245700   2.700   3.660   2.200 -0.2440 -0.5120  0.5973
 8070TIP3    H145701   2.691   3.603   2.277 -3.6728 -0.7931  0.1655
 8070TIP3    H245702   2.683   3.748   2.234 -1.4223 -0.5977  0.2919
 8071TIP3   OH245703   0.868   5.785   3.530  0.0169 -0.6712 -0.2245
 8071TIP3    H145704   0.915   5.806   3.449  0.4964  1.7571  0.6043
 8071TIP3    H245705   0.938   5.769   3.594 -0.2492  0.9714  0.5281
 8072TIP3   OH245706   1.184   4.389  16.146 -0.0063  0.2554 -0.0841
 8072TIP3    H145707   1.114   4.437  16.102 -1.0373 -0.8590  0.2820
 8072TIP3    H245708   1.165   4.398  16.239  0.4646  0.1309  0.0291
 8073TIP3   OH245709   0.213   0.457   3.847 -0.2994 -0.3678  0.0571
 8073TIP3    H145710   0.152   0.528   3.826  0.5820  0.4914  0.3619
 8073TIP3    H245711   0.298   0.488   3.819  0.6873  0.1853  3.2976
 8074TIP3   OH245712   5.039   2.508  16.359  0.5110 -0.0022 -0.2093
 8074TIP3    H145713   5.033   2.413  16.370 -2.0045  0.1436  0.3489
 8074TIP3    H245714   5.027   2.543  16.448 -0.2047  0.8303 -0.6160
 8075TIP3   OH245715   6.744   3.972  16.790 -0.2709  0.1914 -0.4503
 8075TIP3    H145716   6.737   3.877  16.785  0.6891  0.0846  0.0243
 8075TIP3    H245717   6.837   3.991  16.777 -0.4321  1.0592 -0.4505
 8076TIP3   OH245718   3.716   6.046  14.949 -0.0210  0.3433 -0.0426
 8076TIP3    H145719   3.678   6.042  14.861  0.5111 -0.8738 -0.2315
 8076TIP3    H245720   3.739   5.956  14.970  0.4885  0.7131  1.0809
 8077TIP3   OH245721   3.513   5.946  15.783  0.2408  0.0146 -0.3040
 8077TIP3    H145722   3.602   5.922  15.756  0.2811 -3.0014  2.0134
 8077TIP3    H245723   3.461   5.868  15.764 -0.9676  0.1119  2.2775
 8078TIP3   OH245724   4.999   3.633  13.948  0.2188 -0.8817 -0.5916
 8078TIP3    H145725   4.972   3.573  13.879  0.4562  1.0601 -2.4898
 8078TIP3    H245726   4.937   3.706  13.943  3.0287  1.6370 -2.1700
 8079TIP3   OH245727   6.285   0.088  17.034  0.5228 -0.0638 -0.1884
 8079TIP3    H145728   6.274   0.174  16.993  1.1865  0.1459  0.0521
 8079TIP3    H245729   6.249   0.026  16.971 -1.6663  0.5157  0.3965
 8080TIP3   OH245730   3.508   2.483  13.365 -0.5003  0.0445  0.3723
 8080TIP3    H145731   3.566   2.552  13.398  2.1496 -1.8553 -0.0010
 8080TIP3    H245732   3.458   2.526  13.295  0.3815  1.7889  0.7407
 8081TIP3   OH245733   6.555   0.604   5.598 -0.0269 -0.0143  0.0961
 8081TIP3    H145734   6.633   0.558   5.567 -0.6551 -0.4948 -0.8129
 8081TIP3    H245735   6.537   0.564   5.683  0.6167 -0.0047  0.2487
 8082TIP3   OH245736   3.306   6.557  11.672 -0.0730 -0.1983  0.1093
 8082TIP3    H145737   3.390   6.599  11.691  0.4881 -1.1989 -0.0293
 8082TIP3    H245738   3.251   6.626  11.636  0.8013  0.4067 -0.0895
 8083TIP3   OH245739   6.509   4.808   2.134  0.6004 -0.3813 -0.4422
 8083TIP3    H145740   6.472   4.893   2.110  0.6696 -0.5346 -1.1130
 8083TIP3    H245741   6.452   4.777   2.205  1.0264  0.5493  0.3295
 8084TIP3   OH245742   5.610   6.542  12.382  0.4610  0.0720  0.0369
 8084TIP3    H145743   5.674   6.529  12.452 -1.2823  0.6689  1.8579
 8084TIP3    H245744   5.640   6.620  12.335  1.1999  0.1907  0.6931
 8085TIP3   OH245745   4.127   0.818  13.547  0.2803 -1.1122 -0.0276
 8085TIP3    H145746   4.142   0.832  13.641 -0.9155  0.3878 -0.0293
 8085TIP3    H245747   4.122   0.723  13.538  0.0416 -1.2708  1.4945
 8086TIP3   OH245748   2.725   3.928   6.138  0.6085 -0.1597 -0.6570
 8086TIP3    H145749   2.734   3.988   6.212  0.4736  0.7592 -1.3760
 8086TIP3    H245750   2.769   3.848   6.167 -0.4903 -0.2618  0.8951
 8087TIP3   OH245751   2.624   4.123   5.072  0.0848 -0.2046  0.6493
 8087TIP3    H145752   2.638   4.063   4.998  0.0904  1.9639 -1.1912
 8087TIP3    H245753   2.695   4.103   5.132  2.1117  0.1902 -1.4779
 8088TIP3   OH245754   4.877   0.989   6.007 -0.2821  0.5987 -1.2416
 8088TIP3    H145755   4.844   1.010   6.095  0.7442  0.0529 -0.7154
 8088TIP3    H245756   4.817   0.922   5.974 -0.2320  0.2601 -0.6540
 8089TIP3   OH245757   1.614   5.030   0.494  0.7032  0.3540  0.4766
 8089TIP3    H145758   1.627   4.987   0.579  2.2618 -0.5955 -0.1998
 8089TIP3    H245759   1.542   4.981   0.453  1.0687 -0.2793  0.5762
 8090TIP3   OH245760   5.020   5.970   4.808  0.0214 -0.1348  0.0634
 8090TIP3    H145761   5.008   6.033   4.737 -1.0533  0.9398  1.1463
 8090TIP3    H245762   4.973   5.892   4.779  2.6085 -1.0552 -1.9513
 8091TIP3   OH245763   5.216   0.216  16.379 -0.0108  0.0634 -0.2405
 8091TIP3    H145764   5.191   0.133  16.338  1.0669 -0.0524 -0.6899
 8091TIP3    H245765   5.310   0.208  16.394  0.3649  1.6637 -1.4462
 8092TIP3   OH245766   0.072   4.831  14.500 -0.1324  0.2395  0.2966
 8092TIP3    H145767   0.034   4.808  14.416 -0.0211  0.5780  0.1513
 8092TIP3    H245768   0.014   4.897  14.536 -0.1215  0.1732  0.4374
 8093TIP3   OH245769   3.825   0.481   1.333  0.2063  0.3319 -0.0614
 8093TIP3    H145770   3.826   0.430   1.414 -0.4634 -0.6107 -0.6324
 8093TIP3    H245771   3.801   0.569   1.361 -2.0197 -0.3974  0.5827
 8094TIP3   OH245772   6.442   5.491  11.815  0.0712  0.8307  0.2676
 8094TIP3    H145773   6.460   5.398  11.799 -0.9900  0.5787  0.4527
 8094TIP3    H245774   6.456   5.502  11.909  0.8730  1.0335  0.1367
 8095TIP3   OH245775   3.296   4.006  12.060 -0.0872  0.5922  0.4518
 8095TIP3    H145776   3.244   3.935  12.024  1.7364 -0.1770 -0.8105
 8095TIP3    H245777   3.305   4.069  11.988 -2.7328  2.8683  1.8951
 8096TIP3   OH245778   4.469   5.329   5.649  0.2714 -0.7155 -0.0816
 8096TIP3    H145779   4.427   5.247   5.621 -2.0159  0.7032 -1.1360
 8096TIP3    H245780   4.545   5.338   5.592 -1.8431 -0.0868 -3.0736
 8097TIP3   OH245781   1.104   6.138   0.514  0.7489  0.2951  0.0749
 8097TIP3    H145782   1.050   6.060   0.521 -1.9953  2.1017  0.5826
 8097TIP3    H245783   1.115   6.152   0.420  2.1095 -1.1836 -0.0179
 8098TIP3   OH245784   4.749   4.394  13.130 -0.0881  0.4551  0.6980
 8098TIP3    H145785   4.829   4.342  13.128 -0.6139 -0.3722  0.5484
 8098TIP3    H245786   4.775   4.477  13.170  0.9568  0.4036  0.1438
 8099TIP3   OH245787   3.096   4.434   6.785 -0.0364  0.0155 -0.3087
 8099TIP3    H145788   3.135   4.348   6.802  0.2749  0.6259  2.5226
 8099TIP3    H245789   3.163   4.497   6.813 -0.9783  1.1648 -0.5485
 8100TIP3   OH245790   1.398   3.643   1.274  0.5770  1.0501 -0.0281
 8100TIP3    H145791   1.413   3.656   1.367 -1.1888 -1.1170  0.6498
 8100TIP3    H245792   1.437   3.558   1.255 -0.8342  0.5346 -0.7694
 8101TIP3   OH245793   5.886   6.683   6.302 -0.0225  0.2017  0.0750
 8101TIP3    H145794   5.850   6.595   6.299  1.5313 -0.4280 -1.6482
 8101TIP3    H245795   5.924   6.690   6.390 -0.0651 -0.8747  0.1926
 8102TIP3   OH245796   0.070   0.488   2.171  0.0926 -0.2633  0.4588
 8102TIP3    H145797   0.124   0.431   2.226 -0.9991 -0.8272  0.9944
 8102TIP3    H245798   0.020   0.427   2.116 -0.8961  0.1743  0.8516
 8103TIP3   OH245799   4.667   6.166   4.691  0.0605  0.9709  0.1336
 8103TIP3    H145800   4.760   6.158   4.669  0.2902  0.9506  1.1004
 8103TIP3    H245801   4.628   6.086   4.654  0.6624  0.2952  0.9213
 8104TIP3   OH245802   3.294   0.048  16.957 -0.1732 -0.2805  0.5041
 8104TIP3    H145803   3.213  -0.000  16.974 -1.2404  2.1087  2.7710
 8104TIP3    H245804   3.265   0.135  16.930  1.7001 -0.1303 -1.2897
 8105TIP3   OH245805   2.198   5.093   5.479 -0.5647 -0.3512 -0.3089
 8105TIP3    H145806   2.133   5.157   5.508  0.5774  1.9521 -2.4576
 8105TIP3    H245807   2.208   5.034   5.553 -2.4024  1.3818  1.4509
 8106TIP3   OH245808   1.872   2.920  15.528 -0.0285 -0.0656 -0.5990
 8106TIP3    H145809   1.823   2.965  15.459 -0.0529  0.3945 -0.2822
 8106TIP3    H245810   1.924   2.989  15.570  0.9307 -0.5460 -0.9501
 8107TIP3   OH245811   0.605   3.935  14.072 -0.0537  0.3504  0.3811
 8107TIP3    H145812   0.681   3.993  14.064 -0.1322  0.2113 -1.6941
 8107TIP3    H245813   0.530   3.989  14.046 -0.1483 -0.5876 -1.4266
 8108TIP3   OH245814   5.799   3.130  14.627 -0.6706 -0.3196 -0.2199
 8108TIP3    H145815   5.755   3.185  14.561  1.3147 -1.4802 -2.6520
 8108TIP3    H245816   5.881   3.175  14.644  0.0411 -1.4221 -0.6528
 8109TIP3   OH245817   1.113   6.474   3.754 -1.2525 -0.1748  0.2370
 8109TIP3    H145818   1.205   6.446   3.752 -0.8014  0.7812  2.9301
 8109TIP3    H245819   1.070   6.422   3.686  1.3246 -0.3787 -1.3857
 8110TIP3   OH245820   6.596   3.158   5.091  0.3788 -0.2395 -0.4591
 8110TIP3    H145821   6.542   3.149   5.170 -0.0198 -1.7608 -0.8797
 8110TIP3    H245822   6.675   3.204   5.122  0.4245 -1.1852  0.9299
 8111TIP3   OH245823   2.772   4.388   3.690 -0.3257 -0.3467  0.1099
 8111TIP3    H145824   2.709   4.401   3.620 -0.4683  1.1244  0.4820
 8111TIP3    H245825   2.758   4.297   3.718 -2.7679  0.1085  0.6190
 8112TIP3   OH245826   5.683   1.068  17.298  0.4282  0.5367 -0.2918
 8112TIP3    H145827   5.617   1.137  17.294 -0.6306 -0.4944 -1.2934
 8112TIP3    H245828   5.766   1.115  17.289 -0.2205  1.7286 -0.3769
 8113TIP3   OH245829   2.669   0.693   1.506 -0.6116 -0.2966 -0.1738
 8113TIP3    H145830   2.750   0.739   1.529 -1.4853  0.3194  1.8764
 8113TIP3    H245831   2.686   0.602   1.532 -0.4134 -0.2681 -0.1976
 8114TIP3   OH245832   3.050   6.582   1.065 -0.2125  0.0828  0.1493
 8114TIP3    H145833   2.955   6.574   1.055  0.0973 -1.7491 -2.3097
 8114TIP3    H245834   3.077   6.496   1.097  0.4653  1.3362  3.2879
 8115TIP3   OH245835   0.536   0.958   3.219 -0.3152 -0.2770  0.5612
 8115TIP3    H145836   0.602   1.018   3.185 -1.3692  0.7963  0.3726
 8115TIP3    H245837   0.453   1.001   3.201 -1.0540 -1.3876  1.2328
 8116TIP3   OH245838   3.242   0.150  12.105 -0.1617  0.0564  0.0568
 8116TIP3    H145839   3.203   0.159  12.018 -0.3528  0.0078  0.1389
 8116TIP3    H245840   3.330   0.188  12.095 -0.6472  1.2573  0.1767
 8117TIP3   OH245841   1.299   0.759  12.404 -0.0535 -0.4831 -0.0565
 8117TIP3    H145842   1.329   0.850  12.397  0.6319 -0.7223 -0.2582
 8117TIP3    H245843   1.234   0.761  12.474  1.3510 -0.1866  1.2915
 8118TIP3   OH245844   4.812   1.621  12.217  0.3768 -0.1538  0.3738
 8118TIP3    H145845   4.776   1.653  12.300  1.4575 -2.7350  1.9654
 8118TIP3    H245846   4.742   1.569  12.178  0.1709  0.3209  0.1051
 8119TIP3   OH245847   0.405   5.739   1.128  0.8285  0.4417  0.2793
 8119TIP3    H145848   0.479   5.714   1.073 -0.0466 -0.8862 -0.3594
 8119TIP3    H245849   0.397   5.668   1.192  0.7709  1.1097  1.0213
 8120TIP3   OH245850   3.345   5.898  11.346  0.0669 -0.5161 -0.4737
 8120TIP3    H145851   3.362   5.940  11.262 -0.5063  3.6333  1.2064
 8120TIP3    H245852   3.251   5.882  11.346  0.1600 -1.1038 -0.8056
 8121TIP3   OH245853   1.362   0.222  14.902 -0.0184 -0.0052 -0.1481
 8121TIP3    H145854   1.297   0.163  14.865 -0.1582 -0.3670  0.6448
 8121TIP3    H245855   1.331   0.238  14.992  0.9971 -0.2264  0.2568
 8122TIP3   OH245856   2.286   0.168   1.749  0.1447  0.6308  0.2035
 8122TIP3    H145857   2.267   0.136   1.661 -2.3141 -0.2990  0.9520
 8122TIP3    H245858   2.323   0.092   1.794  0.8240  0.9249  0.1490
 8123TIP3   OH245859   2.835   4.918  11.970 -0.3545  0.5233 -0.2499
 8123TIP3    H145860   2.825   4.823  11.971  0.3351  0.3933 -1.8798
 8123TIP3    H245861   2.893   4.935  11.896 -0.4273  2.2205  0.0364
 8124TIP3   OH245862   4.985   0.921   0.341 -0.3142 -0.2246  0.0997
 8124TIP3    H145863   4.924   0.861   0.384 -1.9695  1.4391  0.2412
 8124TIP3    H245864   4.997   0.885   0.254  0.1441 -1.6852  0.7489
 8125TIP3   OH245865   1.920   1.169   0.794  0.2633 -0.3906 -0.3672
 8125TIP3    H145866   2.003   1.209   0.821  0.2230  0.0264 -0.8190
 8125TIP3    H245867   1.855   1.238   0.807  0.1312 -0.4219 -0.8144
 8126TIP3   OH245868   2.105   3.439  14.977  0.1755  0.1540 -0.3092
 8126TIP3    H145869   2.048   3.490  14.920  1.2937  1.7292 -0.0806
 8126TIP3    H245870   2.050   3.417  15.052 -0.9200 -0.7932 -1.3540
 8127TIP3   OH245871   1.054   5.434  14.568 -0.1742 -0.7584 -0.6100
 8127TIP3    H145872   1.103   5.511  14.538  0.7647 -1.3120 -0.5120
 8127TIP3    H245873   1.083   5.363  14.512  0.1568 -1.3830  0.3329
 8128TIP3   OH245874   4.505   1.023   6.371 -0.3709 -0.5287 -0.5052
 8128TIP3    H145875   4.468   0.999   6.457  0.9165 -0.7046  0.0207
 8128TIP3    H245876   4.581   1.077   6.392  0.0962 -0.7623 -1.5355
 8129TIP3   OH245877   4.778   6.720  14.416  0.2962 -0.3083  0.2965
 8129TIP3    H145878   4.775   6.815  14.427 -1.3071 -0.5273  2.4480
 8129TIP3    H245879   4.703   6.700  14.360 -1.3670 -0.4827  2.4360
 8130TIP3   OH245880   6.229   3.069  13.760  0.5087 -0.0002 -0.5363
 8130TIP3    H145881   6.274   3.136  13.811 -3.2284  2.5981 -0.2288
 8130TIP3    H245882   6.256   3.084  13.670 -0.2728  2.0806 -0.4813
 8131TIP3   OH245883   4.334   6.606   0.388 -0.8159 -0.0630 -0.0826
 8131TIP3    H145884   4.409   6.583   0.332 -1.4171 -0.2281 -0.8295
 8131TIP3    H245885   4.336   6.701   0.393  1.7297 -0.1124  3.0757
 8132TIP3   OH245886   0.541   5.517   3.095 -0.2920  0.7161  0.0433
 8132TIP3    H145887   0.455   5.560   3.102  0.0737  1.5745 -0.5763
 8132TIP3    H245888   0.600   5.586   3.065  0.5546  0.0487  0.1407
 8133TIP3   OH245889   1.954   6.580  12.755 -0.2917 -0.7340 -0.1388
 8133TIP3    H145890   1.900   6.545  12.826  0.3552 -0.0652  0.6998
 8133TIP3    H245891   2.043   6.556  12.778 -0.0898 -0.7109 -0.8547
 8134TIP3   OH245892   6.250   4.472  14.041 -0.8191 -1.2295 -0.2096
 8134TIP3    H145893   6.317   4.407  14.059  1.1883  0.5531 -0.7890
 8134TIP3    H245894   6.252   4.483  13.945 -0.1036  0.6079 -0.0377
 8135TIP3   OH245895   3.686   0.381   2.041 -0.5262 -0.1116 -0.7998
 8135TIP3    H145896   3.644   0.435   2.108 -2.8611  0.0541 -2.2932
 8135TIP3    H245897   3.734   0.315   2.090 -0.4376  1.2275  1.0390
 8136TIP3   OH245898   3.545   1.688   0.405  0.4572  0.2565  0.2746
 8136TIP3    H145899   3.574   1.640   0.483 -0.8343  0.8200  1.1389
 8136TIP3    H245900   3.617   1.677   0.342  1.3330 -0.5910  1.3720
 8137TIP3   OH245901   3.846   5.143  12.476  0.3688 -0.4268  1.2951
 8137TIP3    H145902   3.772   5.170  12.529 -0.1743  1.5556 -0.3531
 8137TIP3    H245903   3.914   5.119  12.539 -1.0096 -0.4430  2.8279
 8138TIP3   OH245904   6.553   4.130  16.889 -0.1941 -0.2093 -0.4650
 8138TIP3    H145905   6.494   4.124  16.813 -0.9588 -0.7113  0.1444
 8138TIP3    H245906   6.628   4.076  16.866 -0.0262  0.3225 -1.2012
 8139TIP3   OH245907   2.355   0.041   4.640 -0.5759  0.3884 -0.3971
 8139TIP3    H145908   2.335  -0.039   4.592 -2.5161  0.9562 -0.6442
 8139TIP3    H245909   2.421   0.014   4.704 -0.4544 -1.1727 -1.1200
 8140TIP3   OH245910   3.390   3.021   1.639  0.3651  0.3178 -0.1752
 8140TIP3    H145911   3.335   3.028   1.716  0.8016 -0.4280  0.2058
 8140TIP3    H245912   3.472   3.065   1.663  0.8979 -0.8456  0.1612
 8141TIP3   OH245913   0.583   2.365   0.896 -0.5008  0.0412  0.4243
 8141TIP3    H145914   0.491   2.366   0.868  0.1359 -0.6745 -1.8858
 8141TIP3    H245915   0.611   2.456   0.890 -1.4366  0.5646  2.7606
 8142TIP3   OH245916   3.839   2.551   4.816  0.4180  0.4950 -0.1298
 8142TIP3    H145917   3.911   2.521   4.761  1.7212  0.0168  1.7295
 8142TIP3    H245918   3.874   2.629   4.860  0.8411 -1.1089  2.6546
 8143TIP3   OH245919   5.159   2.042  15.916 -0.1114  0.2764  0.3675
 8143TIP3    H145920   5.086   2.083  15.962 -2.0966 -0.4032 -1.9594
 8143TIP3    H245921   5.119   1.970  15.867  1.9176  0.5283 -1.8359
 8144TIP3   OH245922   1.051   1.482  12.677 -0.5210  0.0752 -0.0376
 8144TIP3    H145923   0.969   1.454  12.718 -0.6070  1.1634  0.5784
 8144TIP3    H245924   1.119   1.439  12.729 -0.6755 -1.4522 -1.0200
 8145TIP3   OH245925   4.229   1.488  12.623  0.0123 -0.0951  0.0855
 8145TIP3    H145926   4.210   1.510  12.714 -0.2878 -1.2160  0.3097
 8145TIP3    H245927   4.153   1.521  12.574 -0.2859 -0.3527  0.3723
 8146TIP3   OH245928   1.508   6.482   3.768  0.8209 -0.6052 -0.3394
 8146TIP3    H145929   1.554   6.474   3.685 -1.6909 -0.3337 -1.8792
 8146TIP3    H245930   1.458   6.401   3.776  1.9300 -1.1604  1.5690
 8147TIP3   OH245931   0.025   2.981   6.727 -0.2164 -0.4428  0.2121
 8147TIP3    H145932   0.114   2.997   6.760  0.2232  0.8122 -1.3751
 8147TIP3    H245933  -0.015   3.068   6.725 -1.4685 -0.9848  0.8079
 8148TIP3   OH245934   5.866   4.555   5.365  0.5329  0.0511  0.2223
 8148TIP3    H145935   5.871   4.650   5.358  0.8099  0.0682  0.6599
 8148TIP3    H245936   5.801   4.530   5.299  0.3147  0.5602  0.2405
 8149TIP3   OH245937   5.179   6.196   2.849 -0.3084 -0.0378  0.1458
 8149TIP3    H145938   5.260   6.240   2.824  0.5675 -0.3742  2.1688
 8149TIP3    H245939   5.161   6.226   2.938 -2.9544  0.7230 -0.5456
 8150TIP3   OH245940   4.639   1.349  14.902 -0.2745  0.0072 -0.1109
 8150TIP3    H145941   4.729   1.320  14.918  0.3154  0.7411 -1.8119
 8150TIP3    H245942   4.640   1.442  14.923 -0.1984  0.3640 -1.5846
 8151TIP3   OH245943   1.663   4.998   6.218  1.0655 -0.0775  0.6104
 8151TIP3    H145944   1.616   4.915   6.228  0.5491 -0.5723 -3.8184
 8151TIP3    H245945   1.748   4.973   6.182  0.3237  1.1909 -2.3579
 8152TIP3   OH245946   1.019   6.555  14.837 -0.3535 -0.1220  0.0267
 8152TIP3    H145947   0.984   6.585  14.921  0.1688  0.3766  0.0768
 8152TIP3    H245948   0.942   6.537  14.784 -0.6949 -1.2291  0.8740
 8153TIP3   OH245949   2.981   1.493   1.637  0.4414 -0.5310  0.3917
 8153TIP3    H145950   3.027   1.575   1.660  0.6115 -1.1300  2.4359
 8153TIP3    H245951   2.988   1.440   1.716 -0.7625 -2.0452 -0.4777
 8154TIP3   OH245952   4.776   1.501  15.356 -0.3185 -0.3302  0.2846
 8154TIP3    H145953   4.796   1.408  15.342 -0.4531 -0.4478  0.8322
 8154TIP3    H245954   4.860   1.540  15.378 -0.0615 -0.0963 -1.0289
 8155TIP3   OH245955   2.611   0.036   5.541  0.5148 -0.3227 -0.6321
 8155TIP3    H145956   2.685  -0.017   5.569  0.6831 -0.3296 -1.0819
 8155TIP3    H245957   2.642   0.083   5.463  0.7858  1.4420  0.4852
 8156TIP3   OH245958   0.134   0.343   1.345 -1.0719  0.0488 -0.8486
 8156TIP3    H145959   0.193   0.393   1.402 -0.0802 -0.5194 -1.3371
 8156TIP3    H245960   0.065   0.311   1.402 -0.0061 -0.6568  0.0817
 8157TIP3   OH245961   3.452   2.051  12.335  0.8020  0.0733 -0.0073
 8157TIP3    H145962   3.529   2.101  12.363  0.3195  0.7839  0.0874
 8157TIP3    H245963   3.377   2.104  12.364  0.2686  0.4014 -1.8323
 8158TIP3   OH245964   1.580   3.993   5.459  0.6372 -0.4864 -0.0810
 8158TIP3    H145965   1.599   4.062   5.523  1.7153 -0.0305 -0.8683
 8158TIP3    H245966   1.586   3.912   5.510  2.4014 -0.1978  0.2456
 8159TIP3   OH245967   1.238   0.762  11.417 -0.0977 -0.2980 -0.5153
 8159TIP3    H145968   1.305   0.813  11.372 -0.1245  0.0856 -0.1191
 8159TIP3    H245969   1.157   0.812  11.404 -0.1711 -0.3751 -0.3509
 8160TIP3   OH245970   2.612   5.649  14.121 -0.1965 -0.5387  0.8664
 8160TIP3    H145971   2.530   5.681  14.083 -0.1528 -2.0659 -0.6162
 8160TIP3    H245972   2.651   5.726  14.162 -1.7307  0.5034  0.4582
 8161TIP3   OH245973   1.137   6.203   3.814 -0.1893 -0.3001  0.0288
 8161TIP3    H145974   1.114   6.112   3.800  0.2904 -0.2417 -1.3558
 8161TIP3    H245975   1.058   6.244   3.849 -0.7572 -1.0256 -0.3870
 8162TIP3   OH245976   5.791   3.983   2.173 -0.0471 -0.3587  0.3147
 8162TIP3    H145977   5.861   3.994   2.238  0.8099  0.0409 -0.6576
 8162TIP3    H245978   5.822   4.031   2.096 -1.7563  0.5068  0.1257
 8163TIP3   OH245979   1.866   6.288  13.004  0.5297 -0.8273  0.0330
 8163TIP3    H145980   1.863   6.193  12.999  0.8155 -0.7982 -0.7349
 8163TIP3    H245981   1.798   6.319  12.945  0.7696 -0.5485 -0.1039
 8164TIP3   OH245982   1.312   1.284   3.494  0.1205 -0.0751 -0.0108
 8164TIP3    H145983   1.291   1.345   3.564  2.0087 -0.7055  1.1804
 8164TIP3    H245984   1.339   1.340   3.421  0.5155  0.5554  0.6063
 8165TIP3   OH245985   3.437   6.225   3.485  0.1763  0.0743 -0.4774
 8165TIP3    H145986   3.511   6.164   3.479 -0.5640 -0.8471 -0.4137
 8165TIP3    H245987   3.408   6.219   3.576  0.8691  1.4720 -0.1422
 8166TIP3   OH245988   5.502   6.616  17.258 -0.0382 -0.0315  0.5037
 8166TIP3    H145989   5.563   6.673  17.211  0.1608  1.5084  2.5194
 8166TIP3    H245990   5.495   6.538  17.203  1.8819  0.7525 -0.9564
 8167TIP3   OH245991   2.411   5.995  14.350 -0.6017 -0.0718 -0.3068
 8167TIP3    H145992   2.333   5.943  14.329  0.4976 -1.3472 -1.3783
 8167TIP3    H245993   2.485   5.938  14.328  0.7022  2.4594 -3.1191
 8168TIP3   OH245994   2.093   3.058   2.041  0.1717 -0.8176  0.4351
 8168TIP3    H145995   2.174   3.110   2.047  1.1647 -2.0727 -1.0752
 8168TIP3    H245996   2.112   2.995   1.972 -2.8476  0.1622 -1.4661
 8169TIP3   OH245997   6.551   4.148  17.163 -0.1443 -0.2666 -0.0250
 8169TIP3    H145998   6.584   4.102  17.240 -0.4486 -2.2837 -1.0442
 8169TIP3    H245999   6.594   4.106  17.089  2.6035  3.6224 -0.9870
 8170TIP3   OH246000   1.346   0.826   1.295  0.4968 -0.2263 -0.4647
 8170TIP3    H146001   1.368   0.736   1.272 -0.0095 -0.3082 -0.6511
 8170TIP3    H246002   1.265   0.819   1.345  0.9343  0.0575  0.2910
 8171TIP3   OH246003   2.105   1.706  14.208  0.5865 -0.0385 -0.0943
 8171TIP3    H146004   2.045   1.632  14.209 -0.1099  0.5135  0.1746
 8171TIP3    H246005   2.073   1.763  14.139  0.4807  0.5133  0.4026
 8172TIP3   OH246006   4.016   0.552   3.812 -0.5302  0.2567  0.5850
 8172TIP3    H146007   4.009   0.484   3.745 -0.4689 -0.8495  1.6418
 8172TIP3    H246008   4.019   0.503   3.895  0.6116  1.4961  1.3236
 8173TIP3   OH246009   5.566   6.422  16.920 -0.2114 -0.5126 -0.1041
 8173TIP3    H146010   5.539   6.408  17.011 -0.5002  1.6946  0.2064
 8173TIP3    H246011   5.660   6.438  16.924 -0.4777  1.2296  0.0747
 8174TIP3   OH246012   0.533   4.029  15.778 -0.2912 -0.2325  0.0790
 8174TIP3    H146013   0.586   3.949  15.771  1.0028  0.6140 -0.0923
 8174TIP3    H246014   0.549   4.061  15.867 -1.7086 -0.7491  0.5457
 8175TIP3   OH246015   3.746   6.229   5.725 -0.3954 -0.0262  0.7119
 8175TIP3    H146016   3.744   6.292   5.653  1.1270 -2.4029 -1.5617
 8175TIP3    H246017   3.839   6.211   5.738 -0.8022 -1.9476  1.1364
 8176TIP3   OH246018   4.093   1.351   5.426 -0.4651 -0.2764  0.0272
 8176TIP3    H146019   4.134   1.319   5.506  2.0322  1.5746 -0.3776
 8176TIP3    H246020   4.134   1.300   5.356  1.7226  1.8659 -0.4159
 8177TIP3   OH246021   4.754   4.353  12.863 -0.0723 -0.7102 -0.5138
 8177TIP3    H146022   4.845   4.333  12.842  0.1308 -0.1097 -0.2381
 8177TIP3    H246023   4.751   4.350  12.959  0.2475  1.6248 -0.3754
 8178TIP3   OH246024   0.187   5.660  17.041  0.2079 -0.1943  0.2697
 8178TIP3    H146025   0.246   5.727  17.006 -0.0366 -0.5404 -0.8406
 8178TIP3    H246026   0.099   5.695  17.026  0.1031 -0.1153  1.0329
 8179TIP3   OH246027   3.288   2.192  14.576  0.3464 -0.0072 -1.2632
 8179TIP3    H146028   3.373   2.153  14.557  0.5202 -2.1438  2.9057
 8179TIP3    H246029   3.243   2.194  14.491  3.8065 -0.4577 -3.2980
 8180TIP3   OH246030   2.827   1.944  14.100  0.4200  0.2077  0.4615
 8180TIP3    H146031   2.774   2.023  14.091  1.3763  1.2341  2.9464
 8180TIP3    H246032   2.909   1.965  14.055  0.9142  0.9527  1.6397
 8181TIP3   OH246033   0.774   1.918  15.537 -0.4097  0.6038 -0.6023
 8181TIP3    H146034   0.693   1.950  15.498 -0.3500  0.2061 -1.0659
 8181TIP3    H246035   0.810   1.993  15.584 -2.8082 -0.0724  2.6514
 8182TIP3   OH246036   0.923   2.805   1.139  0.4436  0.4492 -0.5049
 8182TIP3    H146037   0.971   2.771   1.063 -1.1682 -1.8312 -0.6099
 8182TIP3    H246038   0.834   2.818   1.106  0.1747  1.3072  0.5345
 8183TIP3   OH246039   2.694   2.504  12.323  0.4465 -0.3625 -0.1829
 8183TIP3    H146040   2.700   2.586  12.273 -1.1120  1.0368  1.7367
 8183TIP3    H246041   2.637   2.526  12.397 -0.9902 -3.5372 -0.2096
 8184TIP3   OH246042   5.152   3.144   3.580  0.7150 -0.1222 -0.1141
 8184TIP3    H146043   5.236   3.157   3.625 -0.2037  1.7080  1.2267
 8184TIP3    H246044   5.106   3.228   3.591 -1.8236 -1.4672  0.3536
 8185TIP3   OH246045   6.098   1.130   5.533  0.3512 -0.2291  0.1649
 8185TIP3    H146046   6.033   1.175   5.480  1.8314  3.3291  1.0490
 8185TIP3    H246047   6.052   1.111   5.615  0.0173  1.2093  0.3567
 8186TIP3   OH246048   4.276   4.603   2.046  0.4727 -0.6857  0.0619
 8186TIP3    H146049   4.322   4.679   2.082  1.1572 -2.2176  2.7038
 8186TIP3    H246050   4.196   4.597   2.099  0.0527 -1.3457 -0.6349
 8187TIP3   OH246051   4.034   2.754  16.378 -0.0651 -0.0919 -0.2086
 8187TIP3    H146052   4.085   2.786  16.453  1.3974  1.0116 -1.5929
 8187TIP3    H246053   3.971   2.693  16.416  0.7421  0.2883  1.8848
 8188TIP3   OH246054   2.805   4.178   3.919 -0.0289 -0.5397 -0.5281
 8188TIP3    H146055   2.803   4.224   4.003 -0.4821 -6.0118  2.9488
 8188TIP3    H246056   2.898   4.179   3.894  0.0281  1.6863 -0.4114
 8189TIP3   OH246057   3.819   5.464   2.252  0.0842 -0.3023  0.3006
 8189TIP3    H146058   3.908   5.483   2.282  0.3533 -2.1446  0.8649
 8189TIP3    H246059   3.828   5.381   2.204 -1.0391  0.4747 -1.3036
 8190TIP3   OH246060   2.054   3.068  17.031  0.0966  0.3482 -0.3898
 8190TIP3    H146061   2.035   3.110  16.947 -0.9870  0.5846 -0.0398
 8190TIP3    H246062   1.969   3.039  17.064  0.1564  2.1017  1.5759
 8191TIP3   OH246063   3.652   0.523  12.235  0.5254  0.0625  0.4818
 8191TIP3    H146064   3.675   0.531  12.328 -0.0818 -2.0792  0.8576
 8191TIP3    H246065   3.729   0.482  12.195  0.0373 -0.8420  0.4432
 8192TIP3   OH246066   5.138   6.246   4.099  0.1492  0.1827  0.2890
 8192TIP3    H146067   5.080   6.170   4.100  0.0156  0.2942  0.9946
 8192TIP3    H246068   5.214   6.219   4.151  0.7711  0.0130 -0.6808
 8193TIP3   OH246069   2.309   4.578   2.092  0.6896 -0.2430  0.5415
 8193TIP3    H146070   2.258   4.520   2.036 -0.2134 -0.0365  1.1354
 8193TIP3    H246071   2.400   4.560   2.068  0.3377 -0.2519 -0.8988
 8194TIP3   OH246072   6.478   4.707   1.290 -0.2979  0.0048  0.5283
 8194TIP3    H146073   6.478   4.709   1.194 -1.0135 -0.6046  0.5007
 8194TIP3    H246074   6.547   4.645   1.313 -2.3725 -2.5722  0.2652
 8195TIP3   OH246075   5.789   2.330   3.297 -0.2701  0.1923  0.3901
 8195TIP3    H146076   5.768   2.422   3.280 -0.3265  0.0453 -0.3949
 8195TIP3    H246077   5.829   2.299   3.215 -0.6620 -0.5945  0.4864
 8196TIP3   OH246078   1.892   0.163  11.045  0.0563 -0.5371 -0.0592
 8196TIP3    H146079   1.984   0.143  11.059 -0.5672 -3.2461  0.7084
 8196TIP3    H246080   1.872   0.128  10.958 -0.7365 -2.0030  0.6902
 8197TIP3   OH246081   2.193   3.860  12.943 -0.0618  0.0711  0.3871
 8197TIP3    H146082   2.103   3.838  12.967  0.4467 -1.1490  1.2885
 8197TIP3    H246083   2.247   3.797  12.990  1.2798  0.7582 -0.1565
 8198TIP3   OH246084   6.721   0.194   3.895 -0.4141  0.3508  0.0081
 8198TIP3    H146085   6.793   0.155   3.945  0.0203  0.9216 -0.1571
 8198TIP3    H246086   6.642   0.154   3.931 -0.0170 -0.2635  0.2131
 8199TIP3   OH246087   5.845   0.866   6.020  0.2595  0.1221  0.0884
 8199TIP3    H146088   5.856   0.870   6.115 -0.8308 -1.2840  0.3107
 8199TIP3    H246089   5.762   0.912   6.004  0.0894 -0.2438 -0.0932
 8200TIP3   OH246090   0.271   5.635  12.886 -0.1834 -0.1918  0.5980
 8200TIP3    H146091   0.314   5.654  12.803  1.4154  1.3909  1.6992
 8200TIP3    H246092   0.329   5.573  12.930 -0.6459 -0.4698  0.8204
 8201TIP3   OH246093   3.609   4.662   3.675 -0.1709  0.4673 -0.2291
 8201TIP3    H146094   3.692   4.700   3.703 -0.1545 -1.0727  2.0299
 8201TIP3    H246095   3.631   4.573   3.648 -0.7959  0.7428 -1.7603
 8202TIP3   OH246096   1.563   5.349  11.742  0.2602  0.3546  0.1252
 8202TIP3    H146097   1.575   5.387  11.655  0.0382 -0.6086 -0.3331
 8202TIP3    H246098   1.520   5.265  11.726  0.3000  0.1299  1.1561
 8203TIP3   OH246099   4.695   2.613  14.934 -0.3724  0.0853  0.2634
 8203TIP3    H146100   4.724   2.569  15.014 -1.9430 -0.3337  0.6375
 8203TIP3    H246101   4.600   2.613  14.940 -0.5280  0.1198 -1.5731
 8204TIP3   OH246102   2.323   0.328  12.778 -0.2442  0.4502 -0.3176
 8204TIP3    H146103   2.414   0.352  12.792 -0.3969  0.2748  1.1055
 8204TIP3    H246104   2.316   0.314  12.683  1.1669  0.5745 -0.4597
 8205TIP3   OH246105   0.580   4.070   0.074  0.7412  0.2614 -0.0028
 8205TIP3    H146106   0.485   4.075   0.059  0.4557  0.1011  1.6070
 8205TIP3    H246107   0.603   4.154   0.112  1.1389  0.0730  0.1794
 8206TIP3   OH246108   1.966   3.702   5.881 -0.2452  0.1588 -0.3059
 8206TIP3    H146109   1.919   3.659   5.809 -1.1515  1.9871 -0.8498
 8206TIP3    H246110   1.985   3.790   5.849 -0.0955  0.8195  1.4672
 8207TIP3   OH246111   4.271   5.283  13.352 -0.3456  0.2512  0.5673
 8207TIP3    H146112   4.294   5.325  13.434 -0.1624 -0.3083  0.8076
 8207TIP3    H246113   4.233   5.353  13.299 -0.4129  0.6278  1.1042
 8208TIP3   OH246114   5.745   3.507  11.766  0.2624 -0.1270  0.0235
 8208TIP3    H146115   5.735   3.413  11.775 -0.2282 -0.2018 -1.1612
 8208TIP3    H246116   5.703   3.544  11.844  0.4144 -0.8708  0.4626
 8209TIP3   OH246117   0.539   5.609   5.459  0.1451  0.2381  0.2581
 8209TIP3    H146118   0.572   5.619   5.549  0.2528 -0.1773  0.2709
 8209TIP3    H246119   0.477   5.536   5.465 -3.1921  2.8698  0.8687
 8210TIP3   OH246120   1.823   0.500   6.608 -0.8709 -0.0127 -0.7974
 8210TIP3    H146121   1.841   0.421   6.558 -1.1754 -0.0979 -0.7728
 8210TIP3    H246122   1.738   0.485   6.648 -0.1067 -0.4674  0.7780
 8211TIP3   OH246123   4.191   0.559   3.090  0.0220 -0.3738 -0.4675
 8211TIP3    H146124   4.223   0.622   3.026 -2.1344 -1.2059 -2.5558
 8211TIP3    H246125   4.102   0.589   3.111 -0.8694 -2.3567 -1.1392
 8212TIP3   OH246126   0.721   3.493   4.372  0.3226  0.4622 -0.3885
 8212TIP3    H146127   0.646   3.552   4.377  0.4568  0.5809  0.2897
 8212TIP3    H246128   0.705   3.428   4.440  0.9698  0.6496 -0.0447
 8213TIP3   OH246129   2.094   4.680  10.983 -0.2297  0.2886 -0.8346
 8213TIP3    H146130   2.065   4.593  10.954 -1.9021  0.6972 -0.5294
 8213TIP3    H246131   2.053   4.690  11.069  3.0163 -0.1142  0.9114
 8214TIP3   OH246132   0.802   0.712  11.496  0.8863  0.0614  0.0415
 8214TIP3    H146133   0.815   0.659  11.417  1.2159  0.8580 -0.4567
 8214TIP3    H246134   0.720   0.680  11.534 -0.4368  1.0626 -1.7962
 8215TIP3   OH246135   0.940   4.790  13.322  0.5731 -0.6342  0.4916
 8215TIP3    H146136   0.991   4.715  13.290  2.7186  1.3863 -1.2218
 8215TIP3    H246137   1.000   4.864  13.313 -2.1832  1.6744 -0.0801
 8216TIP3   OH246138   3.754   0.346  15.223 -0.3044 -0.0038 -0.0598
 8216TIP3    H146139   3.719   0.290  15.292  0.7614  0.4033  0.8276
 8216TIP3    H246140   3.701   0.324  15.146 -1.0468 -0.9653  0.6982
 8217TIP3   OH246141   4.928   4.234   0.704 -0.1836 -0.0337  0.2227
 8217TIP3    H146142   5.003   4.294   0.705  0.8679 -1.1772 -2.3580
 8217TIP3    H246143   4.858   4.283   0.662  0.0211  0.0689  0.0018
 8218TIP3   OH246144   0.734   5.612   1.272  0.5260  0.3222 -0.0989
 8218TIP3    H146145   0.738   5.672   1.347  1.4143  0.4288 -0.2201
 8218TIP3    H246146   0.681   5.539   1.303  0.2616  0.7138  0.3887
 8219TIP3   OH246147   6.223   2.380   5.875  0.1693 -0.3768  0.4154
 8219TIP3    H146148   6.217   2.393   5.969 -0.1513  0.6854  0.2565
 8219TIP3    H246149   6.159   2.311   5.856 -0.6498  0.2654  0.8069
 8220TIP3   OH246150   6.069   1.172   2.640  0.1889  0.4847 -0.2256
 8220TIP3    H146151   6.011   1.248   2.654 -0.4838  0.0038 -0.3479
 8220TIP3    H246152   6.009   1.098   2.633  0.8756 -0.1355  0.3964
 8221TIP3   OH246153   5.216   3.337   0.335  0.7149 -0.5048  0.0002
 8221TIP3    H146154   5.302   3.327   0.295  0.3281 -0.6143 -0.8396
 8221TIP3    H246155   5.206   3.260   0.392  0.2775 -1.7115 -1.6278
 8222TIP3   OH246156   5.297   1.396   4.129  0.0990  0.2891 -0.4101
 8222TIP3    H146157   5.318   1.322   4.072  0.8669  1.0836 -1.1837
 8222TIP3    H246158   5.285   1.470   4.069  1.0974  1.1847  0.4602
 8223TIP3   OH246159   4.997   4.576  12.768 -0.4067  0.1601 -0.1979
 8223TIP3    H146160   4.907   4.608  12.777 -0.8866 -0.1748 -2.8543
 8223TIP3    H246161   4.992   4.483  12.792 -0.8886  0.0361 -0.7574
 8224TIP3   OH246162   5.550   5.011   4.131  0.7270 -0.3872  0.1858
 8224TIP3    H146163   5.496   4.985   4.056 -0.2287 -1.5357  1.2173
 8224TIP3    H246164   5.490   5.004   4.206  1.0840  2.6141  0.8677
 8225TIP3   OH246165   2.553   5.320   4.977 -0.0708  0.2226 -0.2635
 8225TIP3    H146166   2.463   5.290   4.989  0.2450 -0.6063  0.0893
 8225TIP3    H246167   2.557   5.404   5.023 -1.0935  1.0631 -1.6596
 8226TIP3   OH246168   1.395   6.442   5.893 -0.5356 -0.7550  0.0244
 8226TIP3    H146169   1.323   6.381   5.878 -2.0331  1.4141 -2.3927
 8226TIP3    H246170   1.450   6.434   5.815 -0.7427  0.8662 -0.3200
 8227TIP3   OH246171   2.340   3.449  15.506 -0.0078  0.1126 -0.6803
 8227TIP3    H146172   2.319   3.466  15.414 -2.3489  0.6141 -0.1105
 8227TIP3    H246173   2.353   3.536  15.543  0.7330 -0.0811 -0.4739
 8228TIP3   OH246174   0.403   2.335  15.353  0.2537 -0.2316 -0.5503
 8228TIP3    H146175   0.357   2.369  15.276 -2.0132 -0.3780  0.6489
 8228TIP3    H246176   0.395   2.405  15.418 -0.7870 -1.3389  0.5784
 8229TIP3   OH246177   0.513   0.224   2.686 -0.2550 -0.5738  0.1031
 8229TIP3    H146178   0.512   0.238   2.780 -1.8223  0.5161 -0.0515
 8229TIP3    H246179   0.603   0.196   2.667  0.8145  1.6443  1.5605
 8230TIP3   OH246180   5.493   2.146  15.151  0.6474  0.2155  0.9549
 8230TIP3    H146181   5.563   2.165  15.213  0.7299 -0.2123  0.9930
 8230TIP3    H246182   5.518   2.194  15.072  0.4546  0.8999  1.2986
 8231TIP3   OH246183   2.092   3.145  14.991 -0.0296 -0.1174 -0.2987
 8231TIP3    H146184   2.107   3.120  15.082 -1.8181  0.8228  0.2812
 8231TIP3    H246185   2.117   3.237  14.986 -1.5647  0.3075 -0.3286
 8232TIP3   OH246186   0.009   4.320  15.450  0.1762 -0.2265  0.0792
 8232TIP3    H146187  -0.079   4.299  15.482  0.0714  0.1496  0.0392
 8232TIP3    H246188   0.023   4.411  15.477  0.2247 -0.0216 -0.6339
 8233TIP3   OH246189   5.542   5.710  12.841  0.0883  0.8612  0.0620
 8233TIP3    H146190   5.573   5.762  12.767  1.1900  0.5546  0.2949
 8233TIP3    H246191   5.448   5.727  12.844 -0.2714 -0.2473 -2.3186
 8234TIP3   OH246192   2.923   0.294   4.804 -0.2945  0.1204  0.1443
 8234TIP3    H146193   2.858   0.262   4.867 -1.5473 -1.5822 -1.8655
 8234TIP3    H246194   2.958   0.373   4.844 -2.8207  0.5129  1.8474
 8235TIP3   OH246195   1.554   2.757  16.939  0.3958 -0.2591  0.0214
 8235TIP3    H146196   1.549   2.672  16.896  0.3245 -0.4520  0.4080
 8235TIP3    H246197   1.502   2.746  17.019 -1.8990  0.9099 -1.2037
 8236TIP3   OH246198   4.153   1.919   5.592 -0.1643  0.2924 -0.5755
 8236TIP3    H146199   4.113   1.839   5.559 -1.6115  0.2066  1.1909
 8236TIP3    H246200   4.178   1.968   5.513 -0.5966 -1.2196 -1.7007
 8237TIP3   OH246201   0.014   1.348  17.297 -0.0665 -0.0520 -0.6881
 8237TIP3    H146202   0.074   1.417  17.269  0.6307 -0.3752 -0.0332
 8237TIP3    H246203   0.025   1.345  17.392 -1.8454  0.5449 -0.4227
 8238TIP3   OH246204   2.517   0.914  14.177  0.5137 -0.4015 -0.7513
 8238TIP3    H146205   2.443   0.877  14.129  0.0850 -1.8501  0.9184
 8238TIP3    H246206   2.562   0.838  14.214  3.0088  0.4165 -1.8686
 8239TIP3   OH246207   0.617   3.988  14.503 -0.4516  0.0508  0.7691
 8239TIP3    H146208   0.551   3.938  14.456 -0.2411 -1.3225  1.8562
 8239TIP3    H246209   0.700   3.957  14.467 -0.2860 -1.0983  2.0791
 8240TIP3   OH246210   6.658   6.142  13.163 -0.0976  0.2104 -1.0561
 8240TIP3    H146211   6.596   6.214  13.166  2.4563  2.5626 -0.6272
 8240TIP3    H246212   6.730   6.169  13.220  1.9467 -1.7306 -2.5065
 8241TIP3   OH246213   6.392   4.033   4.410 -0.3418  0.6863  0.2696
 8241TIP3    H146214   6.349   4.103   4.362  2.1587  2.7515  0.8217
 8241TIP3    H246215   6.486   4.051   4.400  0.3503 -0.9145  2.8724
 8242TIP3   OH246216   4.775   3.586   3.455 -0.1009 -0.0734  0.0054
 8242TIP3    H146217   4.809   3.655   3.397 -0.2673  1.5201  1.7017
 8242TIP3    H246218   4.852   3.556   3.504  0.1487 -1.8286 -1.3713
 8243TIP3   OH246219   0.795   5.832   6.059  0.2805 -0.3562  0.1637
 8243TIP3    H146220   0.804   5.746   6.017 -0.2373 -0.3028 -0.0606
 8243TIP3    H246221   0.861   5.831   6.128 -0.6409 -1.5041  1.0862
 8244TIP3   OH246222   2.555   1.112  14.410 -0.8349 -0.2212  0.1051
 8244TIP3    H146223   2.512   1.193  14.385  0.1528 -0.1030 -1.3136
 8244TIP3    H246224   2.503   1.043  14.370 -0.9373 -0.2148  0.2261
 8245TIP3   OH246225   2.607   3.225   6.215 -0.4623  0.0904 -0.2240
 8245TIP3    H146226   2.576   3.293   6.156  0.7905  0.1302 -0.8780
 8245TIP3    H246227   2.664   3.170   6.161  0.9128  0.2580  0.9645
 8246TIP3   OH246228   5.861   2.694  16.367  0.1128  0.2672  0.1454
 8246TIP3    H146229   5.792   2.753  16.337 -0.0797  2.7273  4.5405
 8246TIP3    H246230   5.942   2.735  16.340 -0.0807  1.7700  1.6423
 8247TIP3   OH246231   0.782   1.992  13.907 -0.1355 -0.2209  0.8201
 8247TIP3    H146232   0.757   2.075  13.867 -0.8457 -0.7902  0.0568
 8247TIP3    H246233   0.872   1.976  13.877 -1.9051 -2.6536 -4.1449
 8248TIP3   OH246234   0.915   2.798   4.284  0.7463  0.9039 -0.8632
 8248TIP3    H146235   0.976   2.733   4.320  0.3973 -0.4563 -2.5920
 8248TIP3    H246236   0.885   2.760   4.201 -0.7525  2.5436 -1.1430
 8249TIP3   OH246237   3.139   5.123  17.242  0.6190 -0.6869  0.3533
 8249TIP3    H146238   3.184   5.058  17.298  0.0167 -0.0898  1.5736
 8249TIP3    H246239   3.052   5.132  17.281  0.5878  0.6321  0.0205
 8250TIP3   OH246240   2.347   2.465  11.120 -0.1359  0.0548 -0.0564
 8250TIP3    H146241   2.439   2.437  11.123  0.1200  0.8311 -0.2057
 8250TIP3    H246242   2.352   2.560  11.110 -0.9573  0.0316 -0.8147
 8251TIP3   OH246243   0.267   4.903   2.569  0.7375  0.1966  0.9301
 8251TIP3    H146244   0.260   4.809   2.585 -1.9638  0.0795 -0.5666
 8251TIP3    H246245   0.208   4.942   2.633 -2.1432  0.4194 -1.6662
 8252TIP3   OH246246   3.902   1.102  15.099  0.3977  0.0468 -0.3099
 8252TIP3    H146247   3.858   1.033  15.048  1.5763 -1.4115  0.5547
 8252TIP3    H246248   3.995   1.080  15.093  0.5908 -0.1178  2.3345
 8253TIP3   OH246249   5.607   4.794   4.439 -0.4257  0.0639 -0.3601
 8253TIP3    H146250   5.625   4.845   4.519 -1.3023  1.1593 -0.8288
 8253TIP3    H246251   5.576   4.710   4.472 -2.7548  1.1748  0.5565
 8254TIP3   OH246252   1.624   3.874  12.553 -0.1932 -0.3383  0.2289
 8254TIP3    H146253   1.685   3.808  12.586 -0.5510 -1.4077 -1.1755
 8254TIP3    H246254   1.627   3.944  12.619  2.2155 -0.5307  0.4235
 8255TIP3   OH246255   2.920   3.154   1.478  0.6018  0.3984 -0.3288
 8255TIP3    H146256   2.939   3.064   1.453 -3.3520 -0.2186 -1.8241
 8255TIP3    H246257   2.912   3.152   1.574  0.2730 -0.9198 -0.3759
 8256TIP3   OH246258   6.713   1.292  12.579  0.3269  0.3869 -0.2810
 8256TIP3    H146259   6.650   1.243  12.526  1.3339 -0.4670 -0.7128
 8256TIP3    H246260   6.666   1.372  12.603 -1.0984 -0.4286 -0.1845
 8257TIP3   OH246261   5.535   1.694  17.082 -0.2340 -0.4408 -0.3700
 8257TIP3    H146262   5.564   1.742  17.004 -0.8579  0.9257  0.2045
 8257TIP3    H246263   5.537   1.602  17.056 -1.5431  0.0566 -2.3894
 8258TIP3   OH246264   1.853   2.049   3.734 -0.2150 -0.0481  0.5284
 8258TIP3    H146265   1.906   2.018   3.661 -1.7232 -0.1210 -0.5769
 8258TIP3    H246266   1.907   2.033   3.811  0.7679 -1.4847 -0.4116
 8259TIP3   OH246267   5.292   4.821   4.973  0.2579 -0.3598  0.4380
 8259TIP3    H146268   5.302   4.882   5.047 -0.7296  0.0551  0.2493
 8259TIP3    H246269   5.338   4.864   4.900 -0.3023  0.0945  0.3470
 8260TIP3   OH246270   5.099   5.256   0.447  0.4663 -0.2803 -0.0249
 8260TIP3    H146271   5.154   5.178   0.455  1.0842 -0.0008 -1.3649
 8260TIP3    H246272   5.139   5.320   0.507  3.0528  0.6912 -2.5792
 8261TIP3   OH246273   1.722   2.693  15.191  0.3145 -0.0851  0.0079
 8261TIP3    H146274   1.643   2.700  15.138  0.6668  1.5813 -0.3652
 8261TIP3    H246275   1.691   2.685  15.281 -0.3892  3.2474  0.2040
 8262TIP3   OH246276   3.723   0.168   3.143  0.0625 -0.2595  0.3590
 8262TIP3    H146277   3.651   0.120   3.185 -0.4907  0.1181 -0.1469
 8262TIP3    H246278   3.800   0.115   3.162 -0.7089 -2.0810 -1.2994
 8263TIP3   OH246279   3.190   0.464   2.369  0.4133 -0.4641 -0.6260
 8263TIP3    H146280   3.167   0.376   2.339 -0.8815 -0.0455 -0.9349
 8263TIP3    H246281   3.108   0.512   2.366  1.2039  0.9149 -0.9989
 8264TIP3   OH246282   4.232   5.687  10.719 -0.2170  0.6120 -0.2627
 8264TIP3    H146283   4.147   5.666  10.679  0.6603  1.8466 -3.0159
 8264TIP3    H246284   4.213   5.761  10.777 -1.1028  0.5007 -0.3891
 8265TIP3   OH246285   0.597   2.668  12.853 -0.2947 -0.5283  0.5385
 8265TIP3    H146286   0.681   2.683  12.896 -0.9777  1.8641  1.2304
 8265TIP3    H246287   0.539   2.734  12.892 -2.1665 -1.2998 -0.8066
 8266TIP3   OH246288   6.164   2.102   6.415  0.2997  0.1111  0.5043
 8266TIP3    H146289   6.079   2.057   6.416 -0.0344  0.7361  0.4434
 8266TIP3    H246290   6.142   2.194   6.403  0.9311  0.4041  1.5227
 8267TIP3   OH246291   1.466   3.117   1.061  0.5858  0.0655  0.0629
 8267TIP3    H146292   1.542   3.071   1.097  0.7620 -0.9407 -1.5081
 8267TIP3    H246293   1.394   3.090   1.118  0.8660 -1.4259 -0.2303
 8268TIP3   OH246294   1.823   5.986  12.759 -0.1550  0.0475 -0.3863
 8268TIP3    H146295   1.864   5.935  12.829 -1.5530  0.4123  0.7501
 8268TIP3    H246296   1.730   5.982  12.778 -0.4672  1.2140 -1.5213
 8269TIP3   OH246297   4.988   5.801   4.044 -0.2484  0.1308 -0.3083
 8269TIP3    H146298   5.043   5.723   4.045 -0.0309  0.2650  1.7300
 8269TIP3    H246299   5.048   5.872   4.019 -0.0543 -0.0829 -0.4577
 8270TIP3   OH246300   3.784   4.468   1.754 -0.3414  0.2189 -0.6147
 8270TIP3    H146301   3.869   4.465   1.711 -0.2028  0.5044 -0.3585
 8270TIP3    H246302   3.789   4.400   1.822  0.2647  1.2991  0.4680
 8271TIP3   OH246303   3.776   1.142  15.619 -0.2316  0.1656 -0.1931
 8271TIP3    H146304   3.854   1.134  15.674  0.0077  0.2154 -0.5235
 8271TIP3    H246305   3.806   1.122  15.530 -0.9425 -1.5490 -0.0925
 8272TIP3   OH246306   4.707   5.875   5.001 -0.0018 -0.2440 -0.2088
 8272TIP3    H146307   4.757   5.833   5.071 -0.8622 -1.3790 -0.2538
 8272TIP3    H246308   4.765   5.870   4.924  0.5374  0.0978  0.1690
 8273TIP3   OH246309   2.768   5.073   6.430  0.0776  0.0238  0.1589
 8273TIP3    H146310   2.836   5.011   6.405  0.1860  0.4657 -0.6685
 8273TIP3    H246311   2.701   5.019   6.474  1.0845 -0.3643  1.2744
 8274TIP3   OH246312   4.177   3.640  11.036  0.6023  0.1191 -0.7216
 8274TIP3    H146313   4.160   3.664  11.127 -2.5164 -0.0582 -1.1703
 8274TIP3    H246314   4.246   3.701  11.008 -0.1319  1.8620  1.0301
 8275TIP3   OH246315   5.942   2.931   0.216 -0.6742  0.2706  0.2585
 8275TIP3    H146316   6.008   2.868   0.188 -2.2791 -2.7055  2.5729
 8275TIP3    H246317   5.883   2.938   0.141 -0.4282 -0.9902 -0.0871
 8276TIP3   OH246318   2.133   0.979  13.106  0.0859  0.0995  0.2018
 8276TIP3    H146319   2.080   0.972  13.186  1.1806 -1.3737  0.8660
 8276TIP3    H246320   2.146   0.888  13.079  1.8473  0.4488 -0.2056
 8277TIP3   OH246321   2.533   0.398   2.155 -0.0470  0.1407 -0.5937
 8277TIP3    H146322   2.456   0.385   2.100 -0.5353 -1.0156  0.3097
 8277TIP3    H246323   2.554   0.311   2.188  0.4825  0.7257  0.6973
 8278TIP3   OH246324   1.411   2.216  12.001  0.1907 -0.6314  0.2055
 8278TIP3    H146325   1.330   2.252  12.037 -0.6582 -1.7958 -0.4404
 8278TIP3    H246326   1.419   2.130  12.042  0.6746 -0.8482 -0.3276
 8279TIP3   OH246327   5.774   2.158   5.449 -0.2645 -0.3091 -0.0997
 8279TIP3    H146328   5.868   2.175   5.460 -0.6586  1.9454  0.4257
 8279TIP3    H246329   5.736   2.245   5.436 -2.5515 -0.8761  1.9560
 8280TIP3   OH246330   6.257   0.923   0.443 -0.3864  0.2867  0.1121
 8280TIP3    H146331   6.297   0.957   0.524 -1.2515  0.5494  0.4371
 8280TIP3    H246332   6.199   0.853   0.473  1.2084 -1.3856 -0.5275
 8281TIP3   OH246333   3.550   2.410  14.474  0.2364  0.6677  0.4899
 8281TIP3    H146334   3.584   2.330  14.514 -1.4562 -0.0163  0.6380
 8281TIP3    H246335   3.583   2.408  14.384 -1.3675 -1.2707 -0.1304
 8282TIP3   OH246336   0.033   5.426   1.492 -0.2904 -0.0312 -0.0717
 8282TIP3    H146337  -0.047   5.439   1.544 -1.0886  0.5270 -1.3985
 8282TIP3    H246338   0.104   5.426   1.557 -1.3833 -0.9492  1.1695
 8283TIP3   OH246339   3.435   1.409   0.974  0.2435 -0.1760 -0.0908
 8283TIP3    H146340   3.389   1.358   0.907  0.5744  1.2954 -1.5196
 8283TIP3    H246341   3.518   1.364   0.987 -1.4451 -2.9228  2.5807
 8284TIP3   OH246342   6.403   1.913  17.050 -0.0619 -0.1459  0.1915
 8284TIP3    H146343   6.398   1.859  17.128  2.1350 -0.6177  0.0758
 8284TIP3    H246344   6.438   1.855  16.983 -2.3106  0.1132 -1.3413
 8285TIP3   OH246345   1.237   6.123   0.879  0.3449  0.3983 -0.0233
 8285TIP3    H146346   1.248   6.167   0.795 -0.1771 -0.9631 -0.8400
 8285TIP3    H246347   1.160   6.165   0.917 -0.9683 -0.6377 -1.3966
 8286TIP3   OH246348   1.229   2.336  13.810 -0.1779 -0.2957 -0.2569
 8286TIP3    H146349   1.233   2.340  13.905 -0.3980  4.1953 -0.2520
 8286TIP3    H246350   1.305   2.385  13.780 -0.4868 -1.0212 -2.4367
 8287TIP3   OH246351   4.829   4.767  12.899 -0.1417  0.5407  0.2370
 8287TIP3    H146352   4.862   4.782  12.987  1.9613  0.5822 -0.4955
 8287TIP3    H246353   4.859   4.842  12.848  1.1084 -0.7941 -1.0989
 8288TIP3   OH246354   5.463   3.808  14.688 -0.0311 -0.2407  0.7402
 8288TIP3    H146355   5.521   3.789  14.761  2.0311  1.9387 -0.1741
 8288TIP3    H246356   5.460   3.727  14.637  2.5048 -0.3954  0.7038
 8289TIP3   OH246357   5.630   4.523   3.437 -0.4999  0.9175  0.2355
 8289TIP3    H146358   5.715   4.556   3.406  0.1317  0.0611  0.9824
 8289TIP3    H246359   5.566   4.587   3.406  0.3554  1.2782 -0.8339
 8290TIP3   OH246360   3.187   4.256   1.434 -0.8787 -0.2879 -0.2786
 8290TIP3    H146361   3.241   4.284   1.508 -2.2406  0.0097  0.6490
 8290TIP3    H246362   3.097   4.257   1.468 -1.3035 -3.0718 -1.0149
 8291TIP3   OH246363   4.119   0.342  12.003  0.3701  0.2011  0.1471
 8291TIP3    H146364   4.112   0.275  11.936  0.2796  0.6091 -0.2580
 8291TIP3    H246365   4.145   0.295  12.082 -0.1027 -0.3665 -0.0271
 8292TIP3   OH246366   3.038   1.847  14.951 -0.3557 -0.1374 -0.8296
 8292TIP3    H146367   3.019   1.902  14.875 -1.1875 -1.4089 -1.6023
 8292TIP3    H246368   2.954   1.804  14.970 -0.1366  0.0834  0.7685
 8293TIP3   OH246369   5.928   2.681   3.596 -0.5290  0.2359  0.5910
 8293TIP3    H146370   6.022   2.665   3.589 -0.8364 -1.1115 -1.0764
 8293TIP3    H246371   5.897   2.620   3.663 -0.3068  0.3302  0.7819
 8294TIP3   OH246372   5.912   0.709  14.973 -0.4256 -0.2492 -0.7436
 8294TIP3    H146373   5.991   0.674  15.015  0.0401 -0.2447 -1.5958
 8294TIP3    H246374   5.906   0.661  14.890 -1.0184  0.1274 -0.9211
 8295TIP3   OH246375   4.824   3.159   3.758 -0.1349  0.2248  0.1349
 8295TIP3    H146376   4.797   3.214   3.831 -1.5370  0.0507 -0.2269
 8295TIP3    H246377   4.907   3.120   3.786  0.9761  2.6044  0.3489
 8296TIP3   OH246378   4.450   6.742  14.015 -0.1531  0.3925 -0.5647
 8296TIP3    H146379   4.363   6.770  14.043 -0.5536 -0.3797 -1.0136
 8296TIP3    H246380   4.508   6.770  14.085 -0.6571  1.5520 -0.5823
 8297TIP3   OH246381   1.764   4.826   4.882  0.1347  0.6097  0.1538
 8297TIP3    H146382   1.751   4.734   4.907  0.2649  0.0406 -1.6704
 8297TIP3    H246383   1.770   4.873   4.965 -0.1892 -0.9941  1.1371
 8298TIP3   OH246384   0.956   5.450  11.438  0.5112 -0.3133 -0.1553
 8298TIP3    H146385   0.862   5.457  11.420  0.5360 -0.2818 -0.2718
 8298TIP3    H246386   0.983   5.539  11.459  0.3190 -0.4758  0.8480
 8299TIP3   OH246387   0.582   2.667  15.500  0.1198 -0.3589 -0.0236
 8299TIP3    H146388   0.632   2.601  15.452 -2.6368 -0.9443 -2.3728
 8299TIP3    H246389   0.501   2.624  15.523  0.1424  0.8642  2.6785
 8300TIP3   OH246390   4.118   4.059   0.073  0.0193  0.2734  0.0236
 8300TIP3    H146391   4.140   4.101   0.156 -0.7264 -1.6009  1.2338
 8300TIP3    H246392   4.186   3.993   0.062 -1.3285 -1.2632  0.5393
 8301TIP3   OH246393   6.213   2.993  15.877  1.0185  0.0528 -0.2065
 8301TIP3    H146394   6.139   3.000  15.817 -0.3247  0.9501  1.4630
 8301TIP3    H246395   6.188   3.047  15.952  2.7929 -0.7110  0.9972
 8302TIP3   OH246396   1.521   0.995   5.558 -0.1317  0.1597 -0.6034
 8302TIP3    H146397   1.571   0.913   5.557 -0.1181  0.1689 -0.8265
 8302TIP3    H246398   1.581   1.059   5.520  0.0763  0.4052  0.1195
 8303TIP3   OH246399   5.209   4.291   2.809  0.7084 -0.2869  0.3634
 8303TIP3    H146400   5.209   4.229   2.735  1.0526  1.7860 -1.4810
 8303TIP3    H246401   5.301   4.316   2.818  0.3650  1.2497 -0.1209
 8304TIP3   OH246402   6.598   5.322   5.888 -0.1329  0.5421  0.5885
 8304TIP3    H146403   6.653   5.396   5.912  0.3458 -0.0637  1.4242
 8304TIP3    H246404   6.510   5.359   5.882  0.1383  1.2286  0.7199
 8305TIP3   OH246405   4.842   5.127  15.782  0.0247 -0.2325  0.0167
 8305TIP3    H146406   4.864   5.220  15.771 -0.0523 -0.2462 -0.2799
 8305TIP3    H246407   4.868   5.106  15.871  0.7790 -0.1257 -0.1668
 8306TIP3   OH246408   0.527   5.347  12.006  0.2725  0.2762  0.0583
 8306TIP3    H146409   0.603   5.366  11.951  1.8152 -0.8571  1.7127
 8306TIP3    H246410   0.498   5.261  11.977 -0.5962  0.8135 -0.7447
 8307TIP3   OH246411   0.082   6.102  13.767 -0.1115 -0.6167 -0.8294
 8307TIP3    H146412  -0.004   6.139  13.789  0.2459  0.2166 -0.8080
 8307TIP3    H246413   0.100   6.042  13.839  0.3559  0.9493  0.4340
 8308TIP3   OH246414   5.648   6.767  17.101 -0.1134 -0.0804 -0.0713
 8308TIP3    H146415   5.563   6.794  17.066 -0.4620 -1.6188 -0.4686
 8308TIP3    H246416   5.678   6.843  17.152 -1.7970  0.4329  0.2210
 8309TIP3   OH246417   6.127   1.240  12.088 -0.1715  0.0347  0.3149
 8309TIP3    H146418   6.213   1.253  12.048  0.5392 -0.7899  1.5211
 8309TIP3    H246419   6.075   1.197  12.019  0.3190  0.6598 -0.4661
 8310TIP3   OH246420   5.540   3.482  13.304  0.1082  0.0741 -0.0290
 8310TIP3    H146421   5.457   3.528  13.290  0.9712  1.5562 -0.5391
 8310TIP3    H246422   5.593   3.544  13.354  1.5494 -0.0585 -1.3018
 8311TIP3   OH246423   1.941   5.686   1.149 -0.5026 -0.2884  0.3544
 8311TIP3    H146424   1.898   5.659   1.068 -1.0298  2.8693 -0.5467
 8311TIP3    H246425   2.032   5.703   1.124  0.8241 -4.3528  1.6882
 8312TIP3   OH246426   1.587   6.674  14.407  0.6026  0.6170 -0.4033
 8312TIP3    H146427   1.515   6.709  14.460 -1.2638 -1.1849 -1.6104
 8312TIP3    H246428   1.555   6.679  14.317  1.3665 -1.5370 -0.8541
 8313TIP3   OH246429   6.598   4.636  13.113 -0.1613  0.1844 -0.0007
 8313TIP3    H146430   6.648   4.570  13.160 -1.1728 -1.0325 -0.5781
 8313TIP3    H246431   6.520   4.590  13.082 -0.5830  1.4938 -0.9800
 8314TIP3   OH246432   6.717   3.351  16.346 -0.2572  0.0135 -0.0491
 8314TIP3    H146433   6.651   3.387  16.405  0.8201  1.8785  0.1016
 8314TIP3    H246434   6.668   3.291  16.289 -1.6543 -0.3824  1.4731
 8315TIP3   OH246435   0.017   1.234  16.372  0.2174 -0.0038  0.1236
 8315TIP3    H146436   0.078   1.239  16.299  0.0015  0.8062 -0.0169
 8315TIP3    H246437   0.058   1.174  16.434  0.5604 -0.4348 -0.5108
 8316TIP3   OH246438   4.272   4.140   4.693 -0.0958  0.0544 -0.0291
 8316TIP3    H146439   4.191   4.116   4.649 -0.9004  2.6458 -0.1289
 8316TIP3    H246440   4.312   4.206   4.635  0.7483  0.7444  1.2827
 8317TIP3   OH246441   0.185   4.256   4.110  0.2232  0.4678  0.1062
 8317TIP3    H146442   0.171   4.162   4.121  1.2332  0.3671  0.6149
 8317TIP3    H246443   0.123   4.282   4.041  0.3781 -0.6844 -0.4815
 8318TIP3   OH246444   3.863   5.178   0.254 -0.4729 -0.4901  0.8041
 8318TIP3    H146445   3.876   5.272   0.239  0.4443 -0.5392  1.1975
 8318TIP3    H246446   3.908   5.161   0.337  1.0596 -1.6430 -0.2042
 8319TIP3   OH246447   4.071   5.890   1.084  0.3297 -0.3491  0.8642
 8319TIP3    H146448   3.989   5.842   1.068  0.3663 -0.4665  1.0352
 8319TIP3    H246449   4.139   5.835   1.045  0.0034  1.4331 -2.7092
 8320TIP3   OH246450   5.661   1.735  13.711 -0.6228 -0.3258  0.3507
 8320TIP3    H146451   5.738   1.789  13.694 -0.2726 -0.6694  0.8386
 8320TIP3    H246452   5.616   1.780  13.783 -0.8596 -0.1440  0.0894
 8321TIP3   OH246453   3.177   4.013   3.046 -0.2224 -0.0396  0.1963
 8321TIP3    H146454   3.186   4.088   3.104 -0.6027 -0.1409  0.3934
 8321TIP3    H246455   3.104   4.035   2.988  0.5166  0.2995 -0.6232
 8322TIP3   OH246456   2.989   5.054   2.539  0.4500 -0.5186 -0.8726
 8322TIP3    H146457   2.907   5.022   2.501 -0.2596  1.1849 -0.8760
 8322TIP3    H246458   3.024   5.114   2.473 -0.1244  1.4612  0.5385
 8323TIP3   OH246459   5.309   0.734   4.892  0.0334 -0.4178  0.5083
 8323TIP3    H146460   5.269   0.713   4.808 -0.8862  0.9673  0.5666
 8323TIP3    H246461   5.268   0.672   4.954  0.2903 -1.0563  0.0526
 8324TIP3   OH246462   1.666   6.505  14.590 -0.1705  0.0203 -0.3187
 8324TIP3    H146463   1.623   6.572  14.537  0.5988  1.5025  0.8497
 8324TIP3    H246464   1.620   6.424  14.568 -1.4207  0.9930 -1.4606
 8325TIP3   OH246465   0.142   3.812  11.936  0.1377 -0.0861 -0.1442
 8325TIP3    H146466   0.115   3.736  11.885 -1.6525 -0.6429  1.4935
 8325TIP3    H246467   0.193   3.775  12.009 -0.3814  0.2926  0.4268
 8326TIP3   OH246468   5.823   4.216   1.915  0.8742 -0.3686  0.1217
 8326TIP3    H146469   5.775   4.298   1.907 -2.2351 -2.0061  0.3497
 8326TIP3    H246470   5.855   4.197   1.827 -0.5633 -0.0791 -0.4933
 8327TIP3   OH246471   4.087   5.717   6.197  0.6334  0.2479  0.1743
 8327TIP3    H146472   4.147   5.644   6.186 -0.9872 -1.3710  1.4787
 8327TIP3    H246473   4.049   5.730   6.110 -0.0764 -1.4256  0.2105
 8328TIP3   OH246474   4.588   1.180   4.467 -0.0430 -0.5849  0.5852
 8328TIP3    H146475   4.522   1.127   4.511  0.1874  0.3335  2.1189
 8328TIP3    H246476   4.637   1.118   4.414 -1.3392 -1.4803  0.3772
 8329TIP3   OH246477   4.029   2.468  17.072  0.0200  0.0263 -0.0206
 8329TIP3    H146478   4.075   2.449  17.154 -1.6277  0.4880  1.0545
 8329TIP3    H246479   4.000   2.382  17.040  1.8760 -0.3244 -0.9307
 8330TIP3   OH246480   4.000   0.232  16.593 -0.5410 -0.4423  0.1075
 8330TIP3    H146481   3.996   0.191  16.679  1.5047 -2.5914 -0.6771
 8330TIP3    H246482   4.007   0.158  16.532  0.1516  1.0275 -1.7081
 8331TIP3   OH246483   4.772   1.847  17.388  0.2003 -0.4743  0.3821
 8331TIP3    H146484   4.863   1.876  17.394  0.1660 -0.5836  1.9150
 8331TIP3    H246485   4.726   1.921  17.347  0.7829  0.0405  0.6371
 8332TIP3   OH246486   3.990   3.278   1.845  0.8363  0.2423 -0.4233
 8332TIP3    H146487   3.926   3.246   1.781  1.0486 -0.5138 -0.2602
 8332TIP3    H246488   3.942   3.345   1.895  0.1069 -0.4466 -0.1846
 8333TIP3   OH246489   5.954   5.695  14.748  0.2278 -0.3034 -0.0820
 8333TIP3    H146490   5.877   5.650  14.782 -0.7792 -1.2836 -3.3282
 8333TIP3    H246491   6.018   5.626  14.733  0.9455  0.2156  0.4717
 8334TIP3   OH246492   1.445   3.285   2.413  0.0678  0.0599 -0.4144
 8334TIP3    H146493   1.398   3.266   2.494  0.9869 -0.8858 -0.0764
 8334TIP3    H246494   1.508   3.213   2.404  2.6349  2.1029  0.0447
 8335TIP3   OH246495   0.438   6.487   6.251 -0.6382 -0.1352  0.5697
 8335TIP3    H146496   0.503   6.479   6.322  0.5541  0.6279 -0.4014
 8335TIP3    H246497   0.489   6.474   6.171 -2.0103 -1.2299 -0.1642
 8336TIP3   OH246498   5.606   5.273   5.766 -0.4346 -0.2603 -0.3520
 8336TIP3    H146499   5.544   5.337   5.801  0.8746  0.8247  0.0837
 8336TIP3    H246500   5.651   5.319   5.695  0.6238 -0.6205  0.0546
 8337TIP3   OH246501   3.446   4.094   5.225 -0.2520  0.2289 -0.3088
 8337TIP3    H146502   3.388   4.094   5.302  0.4423  1.5865  0.2339
 8337TIP3    H246503   3.430   4.178   5.183  1.6811  0.8795  0.1572
 8338TIP3   OH246504   3.888   6.219   1.866 -0.4902  0.6458  0.4200
 8338TIP3    H146505   3.867   6.127   1.850  0.0914  0.4418  0.8119
 8338TIP3    H246506   3.804   6.264   1.853 -0.6656  0.1360 -0.2914
 8339TIP3   OH246507   3.756   0.889   3.133  0.2348  0.5165  0.4598
 8339TIP3    H146508   3.819   0.828   3.172 -0.0650  0.1926  0.4435
 8339TIP3    H246509   3.799   0.974   3.138  1.4229  0.0708 -1.0886
 8340TIP3   OH246510   4.054   2.766   5.610 -0.3041  0.0201  0.2286
 8340TIP3    H146511   4.028   2.840   5.665  0.2342  0.9279 -0.7026
 8340TIP3    H246512   3.987   2.762   5.542 -0.5834 -0.6594  0.5319
 8341TIP3   OH246513   2.597   5.202   3.804  0.1174 -0.0437 -0.3003
 8341TIP3    H146514   2.532   5.192   3.735  0.6581 -0.0286 -0.8185
 8341TIP3    H246515   2.611   5.114   3.837  1.0574 -0.2900 -1.3254
 8342TIP3   OH246516   6.212   6.754  15.301 -0.0999  0.0103 -0.0739
 8342TIP3    H146517   6.127   6.774  15.342 -0.6523  0.5269 -1.4224
 8342TIP3    H246518   6.257   6.699  15.365 -1.3535 -0.0742  0.7691
 8343TIP3   OH246519   1.469   2.379   1.899  0.4803  0.5529  0.2295
 8343TIP3    H146520   1.451   2.312   1.966  1.7746 -0.8447 -0.7449
 8343TIP3    H246521   1.385   2.422   1.885 -0.6647 -1.5196  0.2488
 8344TIP3   OH246522   5.086   5.902  12.440 -0.2491 -0.1186  0.7375
 8344TIP3    H146523   5.142   5.955  12.496  0.8554 -1.9983  1.4606
 8344TIP3    H246524   5.033   5.967  12.392  2.1874  1.7047  0.3477
 8345TIP3   OH246525   5.869   3.917  17.153 -0.3020  0.0482 -0.1922
 8345TIP3    H146526   5.855   3.974  17.229 -1.2206 -0.9568  0.4124
 8345TIP3    H246527   5.797   3.938  17.094 -0.6364 -0.4586  0.0261
 8346TIP3   OH246528   5.220   6.687  16.554  0.3727 -0.1896  0.1484
 8346TIP3    H146529   5.287   6.633  16.594 -0.3734 -1.0885  0.2100
 8346TIP3    H246530   5.221   6.768  16.604  1.0064 -0.4161  0.5110
 8347TIP3   OH246531   1.227   3.553   2.130 -0.0966  0.0950  0.0252
 8347TIP3    H146532   1.264   3.629   2.086  0.4312  1.1538  2.1363
 8347TIP3    H246533   1.302   3.502   2.158 -0.1844  1.2341  2.6089
 8348TIP3   OH246534   4.894   6.714   5.900  0.1752  0.2662  0.3375
 8348TIP3    H146535   4.886   6.718   5.996 -0.7612 -0.5918  0.3179
 8348TIP3    H246536   4.803   6.709   5.870  0.3972  1.8549 -0.6789
 8349TIP3   OH246537   0.361   4.059   2.474 -0.3946  0.9535  0.0063
 8349TIP3    H146538   0.301   3.989   2.448 -2.3845  1.7942  2.0699
 8349TIP3    H246539   0.355   4.123   2.403  1.7254 -0.9815 -2.0953
 8350TIP3   OH246540   5.178   3.446  11.042  0.6976 -0.2293  0.3091
 8350TIP3    H146541   5.204   3.366  10.997 -0.8186 -0.8353  0.4510
 8350TIP3    H246542   5.258   3.479  11.082  1.0958 -2.5751  1.6291
 8351TIP3   OH246543   1.348   3.976   1.631  0.1116  0.1903 -0.5614
 8351TIP3    H146544   1.273   3.930   1.670 -0.2200  2.1910  1.4052
 8351TIP3    H246545   1.312   4.058   1.598  1.3719  1.1479  0.3159
 8352TIP3   OH246546   5.461   4.284  15.922 -0.0248 -0.1737 -0.0295
 8352TIP3    H146547   5.419   4.342  15.859 -0.0433  1.0633  1.0915
 8352TIP3    H246548   5.548   4.267  15.884 -0.5694 -0.7108 -1.1094
 8353TIP3   OH246549   3.566   5.909   3.139 -0.7260  0.0252 -0.2737
 8353TIP3    H146550   3.617   5.834   3.170 -5.0597 -3.4341 -0.4467
 8353TIP3    H246551   3.558   5.966   3.215  1.2476 -0.5110  0.3945
 8354TIP3   OH246552   4.557   5.623  14.245 -0.0908  0.2223  0.0666
 8354TIP3    H146553   4.635   5.646  14.296  0.3207 -1.8701  0.4642
 8354TIP3    H246554   4.514   5.554  14.297 -0.3772 -1.0429 -1.7611
 8355TIP3   OH246555   5.651   1.738   3.226  0.1619 -0.1193 -1.1260
 8355TIP3    H146556   5.688   1.749   3.138  1.0277  0.4548 -0.7123
 8355TIP3    H246557   5.588   1.809   3.235 -1.2991 -1.2679 -1.9395
 8356TIP3   OH246558   1.406   5.522   3.460  0.5953  0.1958  0.1279
 8356TIP3    H146559   1.404   5.613   3.430  3.1967  0.5845  0.8428
 8356TIP3    H246560   1.424   5.529   3.554 -0.6507 -1.0793  0.4955
 8357TIP3   OH246561   6.535   1.804  14.400  0.1892  0.3397 -0.3167
 8357TIP3    H146562   6.505   1.812  14.309 -0.3102 -0.5881 -0.2470
 8357TIP3    H246563   6.459   1.768  14.447  0.8917 -0.5465  0.1742
 8358TIP3   OH246564   5.629   3.866   3.312 -0.0199 -0.0687  0.0054
 8358TIP3    H146565   5.631   3.772   3.297  0.2283  0.0832 -1.0113
 8358TIP3    H246566   5.537   3.887   3.325 -0.5991  0.0325 -3.3526
 8359TIP3   OH246567   1.709   3.879  14.501  0.2000  0.2582 -0.3284
 8359TIP3    H146568   1.778   3.818  14.474 -0.9594 -0.8175 -0.9472
 8359TIP3    H246569   1.632   3.823  14.515 -0.0539  1.1210  2.3811
 8360TIP3   OH246570   1.425   5.397  14.552  0.0481  0.2036 -0.0379
 8360TIP3    H146571   1.461   5.360  14.471  0.3495  1.5183 -0.5272
 8360TIP3    H246572   1.401   5.320  14.604 -0.0758 -0.6761 -1.3285
 8361TIP3   OH246573   4.966   1.176   1.563  0.4889 -0.6907 -0.1421
 8361TIP3    H146574   4.992   1.247   1.505  0.2966 -0.1005  0.4964
 8361TIP3    H246575   4.878   1.152   1.533  1.0892 -1.6391 -1.2778
 8362TIP3   OH246576   5.402   0.218  14.732  0.7479 -0.8639 -0.0852
 8362TIP3    H146577   5.412   0.152  14.664 -1.1052 -1.3855  0.1133
 8362TIP3    H246578   5.407   0.170  14.814  1.0149 -0.5140  0.1094
 8363TIP3   OH246579   3.063   2.008  16.555 -0.4098 -0.2197  0.2353
 8363TIP3    H146580   3.020   1.994  16.470  2.8317  0.6008 -1.7075
 8363TIP3    H246581   3.096   1.922  16.580 -0.5323 -0.2837  0.1782
 8364TIP3   OH246582   1.820   0.176   5.581 -0.4706  0.0390  0.0203
 8364TIP3    H146583   1.781   0.215   5.660 -1.9455 -0.2755 -0.5085
 8364TIP3    H246584   1.767   0.210   5.509 -0.8029 -1.6780 -0.5962
 8365TIP3   OH246585   0.410   5.208   6.048  0.4634 -0.0571 -0.3692
 8365TIP3    H146586   0.431   5.272   6.116  0.3346 -0.0337 -0.3513
 8365TIP3    H246587   0.409   5.124   6.094  1.3687 -0.1636 -0.5360
 8366TIP3   OH246588   2.040   5.367   2.429 -0.2592  0.2362 -0.2026
 8366TIP3    H146589   2.027   5.381   2.335 -2.0752 -2.4725 -0.4727
 8366TIP3    H246590   2.134   5.380   2.443 -0.2912  2.9880 -1.8699
 8367TIP3   OH246591   5.171   4.749  11.446  0.1455 -0.6776 -0.0969
 8367TIP3    H146592   5.144   4.754  11.537  1.9575  1.4510  0.4093
 8367TIP3    H246593   5.250   4.694  11.447  1.6104  1.3122  0.0921
 8368TIP3   OH246594   0.335   6.589   1.758 -0.2420 -0.1167 -0.3876
 8368TIP3    H146595   0.365   6.637   1.681 -1.2008  0.4774 -0.4061
 8368TIP3    H246596   0.386   6.626   1.831  0.9521 -0.9583 -0.7777
 8369TIP3   OH246597   3.864   0.596  13.583  0.5045 -0.0011  0.4159
 8369TIP3    H146598   3.807   0.575  13.509  3.1499 -0.3358 -1.6828
 8369TIP3    H246599   3.900   0.511  13.610  2.0980  0.4582 -0.1745
 8370TIP3   OH246600   5.964   5.787  15.194  0.4859  0.0554  0.3305
 8370TIP3    H146601   6.053   5.752  15.202  0.4236  0.2283  1.9732
 8370TIP3    H246602   5.912   5.713  15.162  1.3385  0.1716 -1.4270
 8371TIP3   OH246603   6.247   2.644   5.188  0.1545  0.3774 -0.0598
 8371TIP3    H146604   6.245   2.716   5.251 -0.7616  0.0890  0.2527
 8371TIP3    H246605   6.270   2.567   5.239 -1.0460  0.0588  0.0243
 8372TIP3   OH246606   0.600   4.753  11.178  0.9133  0.2303 -0.1122
 8372TIP3    H146607   0.586   4.665  11.144 -0.7139  1.0843 -1.8249
 8372TIP3    H246608   0.655   4.797  11.112  0.7640  0.8434  0.1589
 8373TIP3   OH246609   3.953   5.062  14.842  0.6685  0.4762  0.5977
 8373TIP3    H146610   3.876   5.006  14.838  1.2239 -0.2200 -1.3044
 8373TIP3    H246611   4.026   5.001  14.859  1.3342  0.4839 -1.9050
 8374TIP3   OH246612   5.740   6.431   5.248  0.2252  0.1563 -0.2089
 8374TIP3    H146613   5.802   6.360   5.266 -0.8622 -0.7775 -0.0211
 8374TIP3    H246614   5.725   6.427   5.154 -0.7225 -0.6592 -0.0461
 8375TIP3   OH246615   5.870   2.313   1.410  0.1902 -0.1632 -0.0502
 8375TIP3    H146616   5.817   2.392   1.406 -1.7961 -1.4606 -2.7435
 8375TIP3    H246617   5.830   2.260   1.479 -0.4825 -0.0816 -0.3696
 8376TIP3   OH246618   4.598   3.294   3.627  0.2340  0.0435 -0.2152
 8376TIP3    H146619   4.555   3.273   3.543  0.1503  2.6171 -0.9000
 8376TIP3    H246620   4.668   3.230   3.634 -0.8489 -1.3491 -1.3584
 8377TIP3   OH246621   3.494   6.452  14.357 -0.1527 -0.2176 -0.1994
 8377TIP3    H146622   3.577   6.470  14.402  0.9300 -2.3682 -1.2088
 8377TIP3    H246623   3.518   6.448  14.264 -0.7523 -3.6948 -0.3186
 8378TIP3   OH246624   4.926   2.501   5.988  0.6538  0.1650 -0.1481
 8378TIP3    H146625   4.894   2.590   5.976  0.4217  0.3251  1.4701
 8378TIP3    H246626   4.864   2.447   5.939 -1.4396  0.5879  1.8619
 8379TIP3   OH246627   3.515   4.125   4.795  0.2385  0.2567 -0.5169
 8379TIP3    H146628   3.593   4.071   4.807  1.0402  1.5497  0.2155
 8379TIP3    H246629   3.467   4.081   4.724  1.0767 -1.1510 -0.2522
 8380TIP3   OH246630   3.291   0.566  14.981  0.2282  0.1443  0.4693
 8380TIP3    H146631   3.221   0.534  14.924  1.5607 -0.1187 -1.0949
 8380TIP3    H246632   3.369   0.567  14.925  1.4168  0.7385  2.0606
 8381TIP3   OH246633   2.985   4.720  14.875  0.9850  0.5273 -0.2545
 8381TIP3    H146634   3.063   4.683  14.917  0.6493  0.3347  0.2153
 8381TIP3    H246635   2.966   4.799  14.926  0.4141  0.1433  0.1355
 8382TIP3   OH246636   0.510   2.584  16.394  0.2022 -0.5425 -0.4981
 8382TIP3    H146637   0.442   2.599  16.329  1.3114  1.8844 -1.2235
 8382TIP3    H246638   0.467   2.601  16.478 -0.5299 -0.9347 -0.7834
 8383TIP3   OH246639   2.462   5.240   5.653  0.0321  0.3185  0.1824
 8383TIP3    H146640   2.421   5.169   5.604  1.2190 -0.4697  0.3133
 8383TIP3    H246641   2.466   5.313   5.590  1.4813 -0.6590 -0.9107
 8384TIP3   OH246642   1.533   4.339   5.266 -0.8173 -0.5301 -0.0334
 8384TIP3    H146643   1.608   4.281   5.280  0.5906  1.3599  0.6902
 8384TIP3    H246644   1.507   4.323   5.175  0.7767 -0.9218 -0.4565
 8385TIP3   OH246645   3.221   1.281  15.886 -0.4987 -0.0999  0.3340
 8385TIP3    H146646   3.185   1.229  15.814  0.7909  0.6913 -0.9355
 8385TIP3    H246647   3.281   1.222  15.930 -0.0843 -0.1185 -0.2427
 8386TIP3   OH246648   1.016   1.387  16.748  0.0050  0.5980  0.1647
 8386TIP3    H146649   1.054   1.472  16.769  2.5562 -0.1044 -1.2851
 8386TIP3    H246650   1.046   1.367  16.660 -1.0502 -1.5462  0.2027
 8387TIP3   OH246651   3.223   2.235   0.318 -0.1687  0.2620  0.1820
 8387TIP3    H146652   3.207   2.192   0.234  0.4623 -0.4646  0.4228
 8387TIP3    H246653   3.314   2.213   0.339 -0.6844 -0.6333  1.6571
 8388TIP3   OH246654   5.986   3.334  15.674 -0.6634  0.1492  0.2530
 8388TIP3    H146655   5.919   3.300  15.614 -0.1662 -1.7007  0.6860
 8388TIP3    H246656   6.058   3.361  15.616  1.3964 -5.0455 -0.1023
 8389TIP3   OH246657   0.078   2.625  16.236  0.3879 -0.3850  0.9723
 8389TIP3    H146658   0.001   2.661  16.191  0.2855 -0.7226  0.8745
 8389TIP3    H246659   0.069   2.530  16.226  0.7616 -0.4303  1.0544
 8390TIP3   OH246660   3.012   2.877   5.527  0.1311 -0.1425 -0.6728
 8390TIP3    H146661   3.064   2.947   5.565 -0.2363  0.1692 -0.7385
 8390TIP3    H246662   3.020   2.890   5.432  0.5893 -0.5801 -0.6962
 8391TIP3   OH246663   2.180   5.095   0.722 -0.7736  0.1800  0.1174
 8391TIP3    H146664   2.138   5.174   0.757  0.6931  2.0126 -1.9577
 8391TIP3    H246665   2.272   5.119   0.715 -0.2459 -1.8489 -0.3239
 8392TIP3   OH246666   0.896   1.637   2.473  0.3408  0.3699  0.4044
 8392TIP3    H146667   0.854   1.718   2.501 -0.1632  0.0252  0.6598
 8392TIP3    H246668   0.927   1.655   2.384  0.2568  0.8465  0.4687
 8393TIP3   OH246669   3.344   1.794  12.003  0.2097 -0.1369 -0.3464
 8393TIP3    H146670   3.338   1.807  11.909  0.9155  1.0613 -0.2425
 8393TIP3    H246671   3.421   1.843  12.030  1.0534 -1.8837  0.6208
 8394TIP3   OH246672   6.139   3.568  14.096 -0.4240 -0.3763 -0.0701
 8394TIP3    H146673   6.081   3.613  14.157 -0.4624  0.4633 -0.7145
 8394TIP3    H246674   6.199   3.636  14.065  0.6657 -1.1364  0.2851
 8395TIP3   OH246675   4.873   5.797   3.123  0.1858  0.0834  0.1048
 8395TIP3    H146676   4.778   5.786   3.112 -0.0855  1.0233  1.2641
 8395TIP3    H246677   4.903   5.831   3.039 -0.5852  0.2251 -0.1220
 8396TIP3   OH246678   6.187   4.941   4.611  0.1858 -0.3534 -0.3495
 8396TIP3    H146679   6.211   4.934   4.703  0.7715  0.6142 -0.4149
 8396TIP3    H246680   6.096   4.912   4.607  0.1931 -0.5059  0.5166
 8397TIP3   OH246681   5.292   4.167  16.973  0.2066 -1.2237  0.1247
 8397TIP3    H146682   5.368   4.225  16.965 -0.3154 -0.7344 -2.1159
 8397TIP3    H246683   5.257   4.184  17.060  0.5836  1.2145 -0.1228
 8398TIP3   OH246684   1.164   0.858  13.059 -0.5070 -0.8002 -0.0819
 8398TIP3    H146685   1.250   0.817  13.068 -0.0592  0.3660  1.2527
 8398TIP3    H246686   1.111   0.792  13.014  1.0726 -1.5215 -0.9569
 8399TIP3   OH246687   5.375   3.226  15.530 -0.1667  0.5553 -0.0908
 8399TIP3    H146688   5.335   3.140  15.536  0.9503  0.0153 -0.1714
 8399TIP3    H246689   5.435   3.220  15.456 -0.2344  1.4705 -0.2322
 8400TIP3   OH246690   2.994   1.738  12.895  0.0735 -0.1851  0.4630
 8400TIP3    H146691   3.010   1.648  12.869 -0.5169 -0.4609  1.0165
 8400TIP3    H246692   2.967   1.783  12.815 -0.6431 -0.7494  0.3849
 8401TIP3   OH246693   3.150   0.842  16.252 -0.3568  0.2941  0.3283
 8401TIP3    H146694   3.123   0.877  16.167 -2.1929 -0.8632  0.3644
 8401TIP3    H246695   3.244   0.856  16.255 -0.3871  1.1969 -1.5069
 8402TIP3   OH246696   5.814   2.086   0.926 -0.6108  0.0667  0.3136
 8402TIP3    H146697   5.750   2.129   0.869 -1.8133 -1.7784  0.2065
 8402TIP3    H246698   5.826   2.147   0.999  0.4950  2.2261 -1.5032
 8403TIP3   OH246699   6.043   0.842  15.294 -0.6335 -0.2461 -0.5473
 8403TIP3    H146700   6.136   0.830  15.309 -0.5815  0.2379 -0.4505
 8403TIP3    H246701   6.005   0.755  15.302 -0.4260 -0.2069  1.1181
 8404TIP3   OH246702   1.227   0.487  17.079 -0.2131  0.1991 -0.2627
 8404TIP3    H146703   1.174   0.514  17.154  0.2622  1.1562 -0.2484
 8404TIP3    H246704   1.315   0.517  17.100  0.0755 -0.2014 -0.8716
 8405TIP3   OH246705   6.017   5.540  15.473  0.2477  0.5647  0.2850
 8405TIP3    H146706   6.076   5.470  15.499 -0.9484 -1.4051 -1.9070
 8405TIP3    H246707   6.057   5.576  15.394 -0.0724  1.1410  0.3824
 8406TIP3   OH246708   6.706   3.289  13.052 -0.1745 -0.1051 -0.1814
 8406TIP3    H146709   6.649   3.311  12.978 -0.4948 -0.8274 -0.1520
 8406TIP3    H246710   6.764   3.221  13.020 -0.6883 -0.8302  0.3880
 8407TIP3   OH246711   0.705   0.881   1.918 -0.0795  0.4882  0.3038
 8407TIP3    H146712   0.797   0.867   1.940 -0.1956 -1.3430 -0.2342
 8407TIP3    H246713   0.662   0.892   2.003  0.3652 -0.4907  0.6677
 8408TIP3   OH246714   3.643   6.120  17.296  0.6281  0.2082 -0.1761
 8408TIP3    H146715   3.727   6.102  17.339 -0.0461  1.9988  2.0746
 8408TIP3    H246716   3.646   6.213  17.275  0.0655 -0.1918 -2.2149
 8409TIP3   OH246717   5.201   1.001   1.259 -0.0552  0.0706 -0.0615
 8409TIP3    H146718   5.171   1.070   1.317  0.6122  0.6798 -0.4252
 8409TIP3    H246719   5.187   1.036   1.171  1.5231  0.3173 -0.2477
 8410TIP3   OH246720   2.043   5.738   1.710 -0.1353  0.3543 -0.3614
 8410TIP3    H146721   1.980   5.804   1.682 -0.5327  0.4927  0.7943
 8410TIP3    H246722   1.999   5.654   1.693  0.3902  0.3591 -1.8748
 8411TIP3   OH246723   2.354   3.046   2.546 -0.2906  0.4428 -0.4002
 8411TIP3    H146724   2.270   3.024   2.504 -0.6368 -0.6952  0.8347
 8411TIP3    H246725   2.345   3.015   2.636  1.4022  0.4483 -0.1952
 8412TIP3   OH246726   4.949   5.223  12.587  0.2386 -0.2333  0.1486
 8412TIP3    H146727   4.887   5.189  12.651 -1.7019  1.6010 -0.6293
 8412TIP3    H246728   4.895   5.269  12.523  2.2346 -0.4738 -1.8680
 8413TIP3   OH246729   2.012   2.941   1.569  0.4251  0.1103 -0.4420
 8413TIP3    H146730   2.041   2.909   1.484 -0.7604 -0.9736 -0.4669
 8413TIP3    H246731   1.926   2.980   1.553 -0.8811 -2.1486  0.5694
 8414TIP3   OH246732   2.382   3.663  12.378  0.2870 -0.1670 -0.3188
 8414TIP3    H146733   2.316   3.671  12.309  0.3516 -0.3589 -0.4043
 8414TIP3    H246734   2.370   3.574  12.412 -4.1900  1.7045  4.4200
 8415TIP3   OH246735   4.374   0.944  14.337 -0.2383  0.5989 -0.2549
 8415TIP3    H146736   4.455   0.957  14.287 -1.5498 -0.5243 -2.8918
 8415TIP3    H246737   4.323   1.023  14.321 -0.0688  0.8970  0.6231
 8416TIP3   OH246738   2.410   3.849   1.753  0.2503  0.1007 -0.1006
 8416TIP3    H146739   2.441   3.790   1.821  2.1129  0.6431 -0.4179
 8416TIP3    H246740   2.357   3.794   1.695  1.3230 -1.0765  0.0114
 8417TIP3   OH246741   4.180   5.478  13.777  0.3285  0.2809  0.1194
 8417TIP3    H146742   4.189   5.543  13.707  0.1949 -1.0281 -1.1703
 8417TIP3    H246743   4.141   5.402  13.734 -1.0172 -0.1239  1.9204
 8418TIP3   OH246744   5.988   6.066   5.739  0.0867 -0.4697 -0.0801
 8418TIP3    H146745   6.076   6.095   5.713  1.1240 -2.8039  0.5039
 8418TIP3    H246746   5.998   6.044   5.832 -1.3352 -0.0805  0.1782
 8419TIP3   OH246747   3.843   5.349   1.804 -0.0604  0.1610 -0.1213
 8419TIP3    H146748   3.864   5.258   1.783 -1.4730 -0.1533 -0.3330
 8419TIP3    H246749   3.927   5.390   1.822  0.8707 -0.5221 -2.5600
 8420TIP3   OH246750   5.287   5.265  14.095 -0.5891 -0.1033  0.0578
 8420TIP3    H146751   5.300   5.187  14.041 -0.1009  0.5736 -0.8278
 8420TIP3    H246752   5.292   5.234  14.185  0.4458 -0.9651 -0.2807
 8421TIP3   OH246753   6.404   3.148   2.133 -0.3970 -0.9253  0.8849
 8421TIP3    H146754   6.402   3.212   2.205  2.3969 -0.8272  1.0077
 8421TIP3    H246755   6.334   3.175   2.075  1.0508  2.7789  0.5717
 8422TIP3   OH246756   3.200   3.815   3.750  0.6908  0.1289 -0.4919
 8422TIP3    H146757   3.271   3.875   3.727  0.8807 -0.3164 -1.0621
 8422TIP3    H246758   3.145   3.810   3.672 -0.2054  0.7754  0.0637
 8423TIP3   OH246759   3.664   4.788  15.330 -0.8372  0.2685  0.3229
 8423TIP3    H146760   3.574   4.768  15.356 -0.3794 -1.3569  0.7969
 8423TIP3    H246761   3.675   4.743  15.247 -1.1222  2.3396 -0.8934
 8424TIP3   OH246762   3.100   5.843   2.908 -0.2266  0.7330 -0.1142
 8424TIP3    H146763   3.103   5.890   2.825 -0.9530  2.2507  0.6774
 8424TIP3    H246764   3.191   5.821   2.927 -0.2782 -3.2135 -3.1830
 8425TIP3   OH246765   3.599   5.939   5.949  0.1105  0.4896 -0.1182
 8425TIP3    H146766   3.662   5.932   6.022  1.6699  1.7420 -1.2554
 8425TIP3    H246767   3.530   5.995   5.983 -0.1659 -0.4702  0.9918
 8426TIP3   OH246768   1.869   2.158   1.336 -0.2784 -0.1743 -0.2893
 8426TIP3    H146769   1.826   2.159   1.421 -0.1077 -0.9046 -0.1857
 8426TIP3    H246770   1.938   2.092   1.344  3.3424  3.3213  0.6951
 8427TIP3   OH246771   2.666   3.119   2.218  0.6964  0.0132  0.5335
 8427TIP3    H146772   2.752   3.126   2.176  0.7415  0.2245  0.6608
 8427TIP3    H246773   2.652   3.024   2.228  1.4143 -0.0069  1.5194
 8428TIP3   OH246774   0.301   0.444  12.464  0.2715  0.0314  1.0361
 8428TIP3    H146775   0.330   0.359  12.432 -0.0068 -0.0517  1.0095
 8428TIP3    H246776   0.373   0.473  12.521  0.9794  0.3817  0.0062
 8429TIP3   OH246777   6.053   1.098   0.527  0.0652 -0.1989  0.1144
 8429TIP3    H146778   6.038   1.063   0.439 -0.6503  0.6473 -0.1209
 8429TIP3    H246779   6.106   1.031   0.571  0.0441 -0.8446 -0.8066
 8430TIP3   OH246780   5.906   0.558  14.031 -0.4763 -0.5526 -0.3336
 8430TIP3    H146781   5.952   0.503  14.094  0.2836  1.2989  0.8248
 8430TIP3    H246782   5.974   0.588  13.971 -0.2626  1.3171  0.7388
 8431TIP3   OH246783   3.063   1.962  13.013  0.1662  0.2297 -0.2450
 8431TIP3    H146784   3.143   1.977  12.962  0.9746 -0.7281  0.6990
 8431TIP3    H246785   3.026   1.882  12.976 -1.6224  1.8377 -2.1731
 8432TIP3   OH246786   5.585   4.635  13.457  0.1783 -0.3274  0.2288
 8432TIP3    H146787   5.592   4.728  13.479 -2.9297  0.5966 -1.9869
 8432TIP3    H246788   5.602   4.631  13.363  0.0156 -1.9604  0.2355
 8433TIP3   OH246789   2.436   4.347  13.322  0.0239 -0.4489  0.7442
 8433TIP3    H146790   2.360   4.348  13.379  0.1327  0.2114  0.8853
 8433TIP3    H246791   2.415   4.283  13.254 -1.1376  0.5898  0.1142
 8434TIP3   OH246792   6.674   0.706  15.865 -0.5671 -0.2786 -0.1737
 8434TIP3    H146793   6.670   0.634  15.927 -0.9337 -0.8323 -0.8243
 8434TIP3    H246794   6.764   0.740  15.873 -0.5623 -0.4529  0.5248
 8435TIP3   OH246795   0.167   0.716   2.278 -0.1903  0.2620  0.0411
 8435TIP3    H146796   0.120   0.636   2.256  1.2290 -0.4332 -0.5395
 8435TIP3    H246797   0.251   0.708   2.234  1.1796  0.6827  2.4010
 8436TIP3   OH246798   2.104   2.275   3.551 -1.2246  0.0484 -0.1634
 8436TIP3    H146799   2.079   2.332   3.625 -1.7157  0.7163 -0.8287
 8436TIP3    H246800   2.134   2.195   3.593 -1.8431  0.2737  0.7690
 8437TIP3   OH246801   4.693   2.191   4.051  0.2330 -0.1018  0.0311
 8437TIP3    H146802   4.744   2.129   3.999  0.9734  0.7311 -0.2798
 8437TIP3    H246803   4.628   2.226   3.990 -0.5642 -0.9943  0.3648
 8438TIP3   OH246804   2.004   6.244   4.599 -0.6761  0.0844  0.2537
 8438TIP3    H146805   2.091   6.265   4.564 -1.4103  1.1339 -1.0662
 8438TIP3    H246806   2.009   6.151   4.622  0.8015  0.1413  0.2465
 8439TIP3   OH246807   3.111   1.840   4.905  0.2383  0.1371  0.0803
 8439TIP3    H146808   3.138   1.761   4.951  4.2258  0.5039 -1.2715
 8439TIP3    H246809   3.097   1.905   4.974  3.6588  0.0261  1.0336
 8440TIP3   OH246810   2.719   4.272  10.530 -0.0225  0.2435 -0.1314
 8440TIP3    H146811   2.784   4.320  10.477  0.1490 -0.0346 -0.1722
 8440TIP3    H246812   2.770   4.206  10.577 -0.2852 -0.0168 -0.2092
 8441TIP3   OH246813   4.238   1.883   6.802  0.5185  0.6782  0.4698
 8441TIP3    H146814   4.300   1.932   6.856 -0.1279 -0.3353  2.1928
 8441TIP3    H246815   4.170   1.947   6.780 -0.1259  0.7093  2.3780
 8442TIP3   OH246816   4.955   0.803   1.798 -0.1321  0.0170 -0.2935
 8442TIP3    H146817   4.881   0.787   1.739 -0.0284  0.8262 -0.6569
 8442TIP3    H246818   4.915   0.807   1.885 -0.1954 -1.8872 -0.1972
 8443TIP3   OH246819   2.241   1.394   2.721 -0.6288  0.2764 -1.0983
 8443TIP3    H146820   2.294   1.376   2.644  0.3075 -0.8715 -0.2110
 8443TIP3    H246821   2.256   1.320   2.780 -2.0852  0.6356 -0.2071
 8444TIP3   OH246822   0.119   3.494   1.169 -0.0823 -0.0520 -0.0369
 8444TIP3    H146823   0.204   3.454   1.189 -0.1656 -0.2063  0.0088
 8444TIP3    H246824   0.055   3.429   1.199 -0.2180  0.1303  0.0677
 8445TIP3   OH246825   4.863   3.940   2.068 -0.9418  0.4988  0.0596
 8445TIP3    H146826   4.816   4.013   2.109 -0.7501 -0.1340  1.4225
 8445TIP3    H246827   4.835   3.863   2.116  0.9743  0.0087  0.4565
 8446TIP3   OH246828   2.122   5.685   0.304 -0.2428 -0.2348 -0.2228
 8446TIP3    H146829   2.048   5.640   0.265 -0.4883 -0.3167  0.3413
 8446TIP3    H246830   2.190   5.618   0.312 -0.5264 -0.4549  0.3958
 8447TIP3   OH246831   5.453   2.212   4.831  0.3155 -0.1272  0.3609
 8447TIP3    H146832   5.445   2.237   4.739  1.4959  0.2042  0.3338
 8447TIP3    H246833   5.405   2.280   4.879 -2.5072 -1.6147 -0.0962
 8448TIP3   OH246834   0.967   6.113  16.411  0.1555 -0.2756  0.2618
 8448TIP3    H146835   1.040   6.074  16.363 -0.2846 -1.2450  0.3453
 8448TIP3    H246836   1.002   6.129  16.498  0.7376  0.7934 -0.1510
 8449TIP3   OH246837   0.090   5.498  13.533 -0.5852 -0.2591 -0.4670
 8449TIP3    H146838   0.127   5.575  13.490 -2.1382  0.6276 -0.3199
 8449TIP3    H246839   0.000   5.494  13.499 -0.2401 -2.6429 -1.2818
 8450TIP3   OH246840   3.577   4.437   1.561  0.5645 -0.8228  0.0834
 8450TIP3    H146841   3.638   4.454   1.489  0.4876  0.6730  0.3323
 8450TIP3    H246842   3.630   4.451   1.640 -0.3323  1.7099  0.3190
 8451TIP3   OH246843   2.432   2.028  13.096  0.5294  0.3794  0.0177
 8451TIP3    H146844   2.496   2.012  13.026  0.0346  0.6963 -0.5098
 8451TIP3    H246845   2.402   2.118  13.081  0.2938  0.3908  0.5406
 8452TIP3   OH246846   3.791   3.264   4.922  0.1886 -1.2407 -0.2497
 8452TIP3    H146847   3.703   3.278   4.956 -0.5170 -1.0721 -2.0126
 8452TIP3    H246848   3.849   3.299   4.989 -1.0888 -1.2300  0.8871
 8453TIP3   OH246849   1.901   6.443  13.219  0.2606  0.2206 -0.0286
 8453TIP3    H146850   1.906   6.377  13.150 -1.5076 -1.0132  0.9427
 8453TIP3    H246851   1.931   6.397  13.298 -0.6427  0.6602  0.5922
 8454TIP3   OH246852   6.159   3.291   0.067  0.2110  0.1697  0.2491
 8454TIP3    H146853   6.254   3.287   0.081  0.1886  1.0079  0.7698
 8454TIP3    H246854   6.136   3.207   0.028  1.1960  0.0287 -0.0467
 8455TIP3   OH246855   0.226   0.402   2.419 -0.2440  0.4896  0.0368
 8455TIP3    H146856   0.280   0.328   2.450 -0.2083  0.4980 -0.0044
 8455TIP3    H246857   0.263   0.478   2.463 -0.9432  0.3469  0.8850
 8456TIP3   OH246858   6.007   1.012  11.008 -0.0586  0.2735  0.0472
 8456TIP3    H146859   6.102   0.998  11.006 -0.2213 -1.1030 -2.1936
 8456TIP3    H246860   5.980   1.003  10.917 -2.4782 -0.3842  0.7594
 8457TIP3   OH246861   3.953   6.026  17.125 -0.3286 -0.1491 -0.4331
 8457TIP3    H146862   4.034   5.976  17.137  0.0695  0.4130 -0.7658
 8457TIP3    H246863   3.887   5.977  17.174  0.1927 -0.6637 -0.2426
 8458TIP3   OH246864   4.690   1.321   5.414 -0.2810 -0.5548 -0.1290
 8458TIP3    H146865   4.701   1.304   5.507 -0.3605  1.3395  0.2522
 8458TIP3    H246866   4.778   1.338   5.381 -0.5111  1.3726  0.1687
 8459TIP3   OH246867   1.434   1.751   3.733 -0.2343  0.3025  0.1922
 8459TIP3    H146868   1.514   1.803   3.745 -0.4462  0.8359 -0.5990
 8459TIP3    H246869   1.463   1.671   3.689  0.1276 -0.3798  1.6126
 8460TIP3   OH246870   5.026   3.124  13.889  0.2591 -0.0694  0.7327
 8460TIP3    H146871   5.086   3.186  13.932  0.9480 -0.3708  0.2251
 8460TIP3    H246872   5.060   3.038  13.913 -0.3634 -0.2527  0.9736
 8461TIP3   OH246873   0.906   2.706  16.318 -0.1127 -0.5577  0.1722
 8461TIP3    H146874   0.823   2.747  16.294  0.2912  1.1302  1.4766
 8461TIP3    H246875   0.972   2.758  16.272  0.3084 -1.0289  0.2325
 8462TIP3   OH246876   4.089   0.203   1.429  0.6693 -0.2250  0.2284
 8462TIP3    H146877   4.171   0.204   1.478  0.9289  1.5777 -0.1808
 8462TIP3    H246878   4.108   0.251   1.349 -0.5475 -0.5711 -0.2948
 8463TIP3   OH246879   5.614   2.375  13.720 -0.2764 -0.3065  0.1688
 8463TIP3    H146880   5.543   2.397  13.659 -1.6356 -1.1016  1.4136
 8463TIP3    H246881   5.604   2.281  13.734  0.9955 -0.4128  0.4336
 8464TIP3   OH246882   5.179   4.353   3.679  0.4505 -0.0347 -0.4153
 8464TIP3    H146883   5.216   4.373   3.766  0.5745  0.7115 -0.6339
 8464TIP3    H246884   5.145   4.437   3.648  0.0047 -0.3924 -0.9036
 8465TIP3   OH246885   6.404   6.687  13.862 -0.0629 -0.1417  0.5700
 8465TIP3    H146886   6.461   6.660  13.935  0.3496 -0.1164  0.2613
 8465TIP3    H246887   6.383   6.778  13.881  2.9761  1.0854 -1.1273
 8466TIP3   OH246888   4.773   3.449   4.835  0.0344  0.3091 -0.0129
 8466TIP3    H146889   4.740   3.361   4.856  0.6672  0.1013  0.1506
 8466TIP3    H246890   4.856   3.432   4.789  1.0878  0.8291  1.6047
 8467TIP3   OH246891   0.950   3.257  16.154  0.1705  0.4341 -0.4355
 8467TIP3    H146892   0.928   3.246  16.247  0.3603  0.0511 -0.4344
 8467TIP3    H246893   0.895   3.330  16.126  0.5923  0.9830  0.1402
 8468TIP3   OH246894   5.265   3.201  13.504  0.3711  0.1071 -0.1715
 8468TIP3    H146895   5.266   3.223  13.597  0.6137  0.9461 -0.3674
 8468TIP3    H246896   5.313   3.118  13.499  0.2849  0.0129  0.4555
 8469TIP3   OH246897   1.643   6.239  12.842  0.4663 -0.5673  0.2526
 8469TIP3    H146898   1.614   6.148  12.850  1.1402 -1.2286 -3.2015
 8469TIP3    H246899   1.578   6.280  12.784 -0.1340  1.3970  2.1629
 8470TIP3   OH246900   1.452   2.677  10.440  0.0427  0.2227  0.1360
 8470TIP3    H146901   1.408   2.760  10.460 -0.1636  0.3411 -0.7688
 8470TIP3    H246902   1.461   2.677  10.345  1.4435 -0.0997  0.2531
 8471TIP3   OH246903   2.719   0.436  16.069 -0.1397 -0.0649 -0.0330
 8471TIP3    H146904   2.648   0.488  16.032 -1.7548 -1.4164  1.0042
 8471TIP3    H246905   2.737   0.479  16.153  0.6683  0.5751 -0.5158
 8472TIP3   OH246906   0.240   2.719   2.602 -0.2216  0.1564 -0.1107
 8472TIP3    H146907   0.316   2.675   2.565 -1.0891 -0.4347 -1.2509
 8472TIP3    H246908   0.228   2.797   2.548  0.3289  0.9570  0.8819
 8473TIP3   OH246909   1.900   1.655   5.254 -0.3913  0.1014  0.3001
 8473TIP3    H146910   1.909   1.641   5.159  0.4333 -0.5249  0.4589
 8473TIP3    H246911   1.830   1.720   5.262 -1.7622 -1.2095 -0.6481
 8474TIP3   OH246912   2.214   5.193  17.393 -0.4566 -0.5156  0.6843
 8474TIP3    H146913   2.184   5.104  17.373 -0.1908 -0.8178  1.5811
 8474TIP3    H246914   2.217   5.237  17.308  1.0915 -1.8814 -0.0398
 8475TIP3   OH246915   1.014   4.583  13.546  0.2986 -0.1270  0.5604
 8475TIP3    H146916   1.015   4.512  13.482 -0.6386  0.3829 -0.0381
 8475TIP3    H246917   0.923   4.589  13.574 -0.1606  2.3380 -1.1289
 8476TIP3   OH246918   5.590   3.850  11.189 -0.0617  0.5081  0.0826
 8476TIP3    H146919   5.637   3.920  11.143  0.2454  0.6220  0.5596
 8476TIP3    H246920   5.619   3.770  11.145 -0.3498  0.6716 -0.4119
 8477TIP3   OH246921   1.248   2.587  15.667  0.1016  0.4687 -0.3226
 8477TIP3    H146922   1.259   2.493  15.680  0.1218  0.6498  1.0531
 8477TIP3    H246923   1.280   2.628  15.747 -1.1742  1.5705 -0.3235
 8478TIP3   OH246924   1.071   3.657   4.821 -0.6214  0.1525 -0.1240
 8478TIP3    H146925   1.008   3.632   4.753 -0.2756  3.6238 -1.9259
 8478TIP3    H246926   1.031   3.730   4.867  0.1367 -0.6698  2.0092
 8479TIP3   OH246927   1.577   3.444  10.666 -0.1222 -0.5548 -0.3361
 8479TIP3    H146928   1.577   3.531  10.625 -2.2710 -0.8371 -1.0962
 8479TIP3    H246929   1.535   3.387  10.601  2.8883 -2.6618 -0.6722
 8480TIP3   OH246930   6.613   5.110  12.569  0.6551  0.6860 -0.5534
 8480TIP3    H146931   6.595   5.109  12.475  0.2011  1.2483 -0.4763
 8480TIP3    H246932   6.527   5.095  12.609  0.8766  0.2709 -0.2309
 8481TIP3   OH246933   3.981   6.600  11.678  0.0330 -0.7894  0.2067
 8481TIP3    H146934   4.002   6.579  11.587  1.0017  0.9330 -0.0261
 8481TIP3    H246935   3.932   6.682  11.673  0.7974 -0.2361  1.2536
 8482TIP3   OH246936   5.018   5.908   2.691 -0.0717  0.1981  0.0725
 8482TIP3    H146937   4.987   5.989   2.650  2.2673  0.5537 -1.1459
 8482TIP3    H246938   4.943   5.848   2.685 -1.7606  2.1084  0.7209
 8483TIP3   OH246939   1.509   1.957   1.843  0.1595  0.8043 -0.4391
 8483TIP3    H146940   1.596   1.956   1.884 -0.4102 -1.1297  0.8877
 8483TIP3    H246941   1.526   1.941   1.750  1.1976 -1.7555  0.0923
 8484TIP3   OH246942   3.223   0.726  10.840  0.2595 -0.0776  0.5193
 8484TIP3    H146943   3.252   0.811  10.874 -0.2562 -0.2852  1.5155
 8484TIP3    H246944   3.282   0.662  10.882  0.2560 -0.2626  0.2459
 8485TIP3   OH246945   5.721   5.147   2.495  0.2862 -0.4142  0.1761
 8485TIP3    H146946   5.760   5.063   2.521  1.1788  0.2882  1.2222
 8485TIP3    H246947   5.688   5.183   2.577 -2.0272 -0.6647 -0.5753
 8486TIP3   OH246948   6.077   2.391   4.921 -0.5356 -0.2178 -0.0297
 8486TIP3    H146949   6.111   2.303   4.910  0.8838  0.5173 -2.0519
 8486TIP3    H246950   5.985   2.384   4.896  0.1330 -0.7182 -2.5944
 8487TIP3   OH246951   1.459   6.639  16.089  0.4715 -0.4424 -0.0967
 8487TIP3    H146952   1.520   6.696  16.136  0.9001 -0.3912 -0.7077
 8487TIP3    H246953   1.392   6.699  16.055  0.9007 -0.3016 -0.7043
 8488TIP3   OH246954   2.859   5.531   0.970 -0.3830  0.3478 -0.1036
 8488TIP3    H146955   2.808   5.510   1.049 -2.3183 -0.3877 -1.4775
 8488TIP3    H246956   2.853   5.626   0.963 -2.3242  0.2206 -0.6643
 8489TIP3   OH246957   3.307   3.693   4.792  0.5125 -0.1448 -0.1679
 8489TIP3    H146958   3.398   3.724   4.787  0.0622  1.0197 -1.7417
 8489TIP3    H246959   3.298   3.632   4.719 -0.4966  1.2743 -1.2747
 8490TIP3   OH246960   6.052   5.425   6.238  0.4273  0.2165 -0.4563
 8490TIP3    H146961   6.139   5.387   6.250  0.2982  0.2503  0.7207
 8490TIP3    H246962   6.049   5.497   6.301 -0.3428  0.4140 -0.7136
 8491TIP3   OH246963   4.720   2.181   1.528  0.1318  0.0712  0.1224
 8491TIP3    H146964   4.779   2.153   1.458 -0.7094 -0.9355 -0.2030
 8491TIP3    H246965   4.676   2.258   1.492  0.8462  0.5121  0.1678
 8492TIP3   OH246966   1.919   3.641   0.007 -0.4076  0.4364 -0.1218
 8492TIP3    H146967   1.978   3.644  -0.069  0.5552 -0.9903  0.5212
 8492TIP3    H246968   1.843   3.593  -0.024 -0.5472  0.8964 -0.5089
 8493TIP3   OH246969   4.860   0.201  14.387  0.7596 -0.4050  0.3777
 8493TIP3    H146970   4.917   0.169  14.456  1.0698 -0.4648  0.0976
 8493TIP3    H246971   4.917   0.213  14.311  0.1953 -1.6865 -0.2884
 8494TIP3   OH246972   3.615   3.139   1.744 -0.0460 -0.3830 -0.7183
 8494TIP3    H146973   3.633   3.233   1.738  0.1524 -0.4674 -1.5015
 8494TIP3    H246974   3.650   3.113   1.829 -0.7216  0.3878 -0.1860
 8495TIP3   OH246975   2.359   6.012  15.786  0.3764 -0.7269 -0.1715
 8495TIP3    H146976   2.408   6.063  15.850  1.0083 -2.0506  0.4481
 8495TIP3    H246977   2.271   6.004  15.824  0.1549  0.2136 -0.4673
 8496TIP3   OH246978   1.277   3.714   5.862 -0.1410 -0.0438 -0.3962
 8496TIP3    H146979   1.370   3.695   5.853  0.2593  0.5879  1.7904
 8496TIP3    H246980   1.262   3.716   5.957 -1.7777  2.5581 -0.6109
 8497TIP3   OH246981   2.516   4.542  13.867  0.5818 -0.0848  0.2722
 8497TIP3    H146982   2.556   4.459  13.894  1.7676  0.3687 -0.0542
 8497TIP3    H246983   2.492   4.527  13.775  1.6794  0.2421 -0.0791
 8498TIP3   OH246984   6.741   5.630  12.264 -0.2225 -0.0118 -0.1671
 8498TIP3    H146985   6.819   5.582  12.291 -0.4214 -0.9107 -1.1323
 8498TIP3    H246986   6.773   5.718  12.241 -0.0796  0.9504  3.1643
 8499TIP3   OH246987   1.985   2.810   4.212  0.4528  0.0982 -0.1206
 8499TIP3    H146988   1.924   2.737   4.220  0.6970 -0.1558 -0.5566
 8499TIP3    H246989   1.957   2.856   4.133  0.8970 -0.0895 -0.3899
 8500TIP3   OH246990   0.807   5.964  11.514 -0.3355 -0.0155 -0.0929
 8500TIP3    H146991   0.754   6.031  11.558  2.4001  1.9238  0.5445
 8500TIP3    H246992   0.898   5.990  11.532  0.8996 -1.9813 -2.7640
 8501TIP3   OH246993   2.266   6.109   2.479  0.1796  0.0238  0.1725
 8501TIP3    H146994   2.290   6.197   2.507  0.7835 -0.7908  2.4937
 8501TIP3    H246995   2.350   6.066   2.460 -0.0140 -0.4535  0.3830
 8502TIP3   OH246996   3.907   6.756  15.636  0.1102 -0.4185  0.0635
 8502TIP3    H146997   3.914   6.742  15.542 -0.5299  1.0096 -0.2373
 8502TIP3    H246998   3.813   6.769  15.651  0.4356  1.9782  0.4322
 8503TIP3   OH246999   0.944   3.899  16.926 -0.3047  0.4236  0.4600
 8503TIP3    H147000   0.972   3.818  16.884 -0.2871 -0.1505  1.5578
 8503TIP3    H247001   1.008   3.964  16.897 -1.4907  0.5753 -2.1357
 8504TIP3   OH247002   4.506   0.394   4.311  0.3936  0.3066  0.1644
 8504TIP3    H147003   4.455   0.474   4.306  0.6181  0.3984 -1.1607
 8504TIP3    H247004   4.527   0.383   4.404  2.0594  2.8734  0.1806
 8505TIP3   OH247005   0.366   6.644   4.311 -0.1969  0.0215  0.0255
 8505TIP3    H147006   0.310   6.601   4.247  0.7921  1.6977 -2.0948
 8505TIP3    H247007   0.445   6.589   4.315  0.0495  0.2948 -0.8181
 8506TIP3   OH247008   2.064   6.663  11.167 -0.5458  0.0739 -0.0343
 8506TIP3    H147009   2.082   6.737  11.109 -1.6582 -1.0096 -1.8707
 8506TIP3    H247010   2.056   6.588  11.108  0.4729 -1.5301  1.7473
 8507TIP3   OH247011   5.654   0.825  11.565  0.4814  0.8008 -0.1351
 8507TIP3    H147012   5.670   0.750  11.508  1.8805  0.1982  0.9828
 8507TIP3    H247013   5.560   0.842  11.557  0.3197 -0.4367 -1.1665
 8508TIP3   OH247014   4.946   1.037   4.521  0.2613  0.2786  0.0279
 8508TIP3    H147015   4.867   0.988   4.496 -0.0827  0.5589  0.5422
 8508TIP3    H247016   4.916   1.095   4.592  1.5455 -1.6617  2.3055
 8509TIP3   OH247017   6.316   0.716   5.539 -0.3183  0.2862 -0.0592
 8509TIP3    H147018   6.410   0.698   5.537  0.3486  3.1015  0.4293
 8509TIP3    H247019   6.284   0.668   5.615  0.9119  0.0120  0.3073
 8510TIP3   OH247020   2.339   4.641  12.634  0.1509 -0.1650 -0.0917
 8510TIP3    H147021   2.369   4.584  12.563  0.8912  0.6727 -0.4595
 8510TIP3    H247022   2.249   4.662  12.609  0.2407 -0.2706 -0.5313
 8511TIP3   OH247023   3.203   5.935   4.754  0.2111 -0.0837 -0.1627
 8511TIP3    H147024   3.118   5.893   4.741 -1.0719  1.8109  1.4710
 8511TIP3    H247025   3.255   5.871   4.804 -1.3587 -0.1642  1.4587
 8512TIP3   OH247026   0.904   6.644  14.329  0.5429  0.0071  0.0069
 8512TIP3    H147027   0.925   6.552  14.314  1.0072  0.2575 -0.9399
 8512TIP3    H247028   0.988   6.688  14.335  0.3192  0.5025 -0.4036
 8513TIP3   OH247029   3.053   0.287  11.572 -0.0806  0.1718 -0.2398
 8513TIP3    H147030   3.043   0.374  11.533  0.3403  0.8650  1.1181
 8513TIP3    H247031   2.969   0.244  11.557 -0.2432  0.7546 -1.0648
 8514TIP3   OH247032   3.081   1.023   2.979  0.1220 -0.1213 -0.4865
 8514TIP3    H147033   3.095   0.963   3.053  0.0443 -0.0899 -0.4459
 8514TIP3    H247034   3.113   1.107   3.011  0.3008 -0.1577 -0.5705
 8515TIP3   OH247035   6.403   2.961   4.749 -0.0868  0.7420  0.6351
 8515TIP3    H147036   6.426   3.043   4.706 -2.1466  0.6694 -0.7727
 8515TIP3    H247037   6.309   2.967   4.764 -0.6270 -1.8681 -0.8516
 8516TIP3   OH247038   4.196   6.521   0.141  0.4678  0.3057  0.1610
 8516TIP3    H147039   4.252   6.572   0.200 -1.0239  1.6686  0.4638
 8516TIP3    H247040   4.193   6.433   0.180  1.4332  0.5276  0.7643
 8517TIP3   OH247041   1.046   2.219  11.174  0.6472 -0.0216 -0.3326
 8517TIP3    H147042   0.999   2.269  11.107  1.5494  0.9360 -0.2705
 8517TIP3    H247043   1.050   2.130  11.139  0.2879  0.2615 -1.1198
 8518TIP3   OH247044   3.167   4.124  16.525  0.0415 -0.5104 -0.4197
 8518TIP3    H147045   3.149   4.097  16.435  1.6039  1.9608 -1.5939
 8518TIP3    H247046   3.254   4.087  16.545 -0.2497 -0.9564  0.0609
 8519TIP3   OH247047   5.148   4.295   5.051 -0.8689 -0.3259 -0.0823
 8519TIP3    H147048   5.195   4.309   4.969  0.3109  0.5633  0.7153
 8519TIP3    H247049   5.134   4.200   5.055  1.4526 -0.7246 -0.0706
 8520TIP3   OH247050   4.374   2.671  12.084 -0.7903 -0.0762  0.0913
 8520TIP3    H147051   4.294   2.653  12.036 -1.8051  1.2359  1.1847
 8520TIP3    H247052   4.411   2.748  12.040 -0.3655 -0.4049 -0.1318
 8521TIP3   OH247053   4.730   4.735   3.338  0.5137  0.1278 -0.6175
 8521TIP3    H147054   4.675   4.673   3.385 -0.3254 -0.2441 -2.0336
 8521TIP3    H247055   4.743   4.695   3.252 -1.5052  2.6373 -2.2194
 8522TIP3   OH247056   4.966   5.603  13.547  0.0806 -0.2387  0.4825
 8522TIP3    H147057   4.983   5.652  13.627  2.5969  0.6587 -0.4873
 8522TIP3    H247058   5.008   5.518  13.562  0.7275 -0.0016  0.1074
 8523TIP3   OH247059   1.174   6.319  16.022  0.2221 -0.0758 -0.3142
 8523TIP3    H147060   1.213   6.281  16.101 -0.5432 -0.6767 -0.2222
 8523TIP3    H247061   1.218   6.274  15.950  0.0324 -0.4184 -0.2170
 8524TIP3   OH247062   3.329   3.402  15.179 -0.0335  0.0935  0.0767
 8524TIP3    H147063   3.276   3.476  15.206 -1.0353  0.0365 -1.5963
 8524TIP3    H247064   3.290   3.373  15.097  2.2679 -0.2684 -0.9773
 8525TIP3   OH247065   3.857   3.138  13.779  0.2300  0.2775 -0.2655
 8525TIP3    H147066   3.832   3.230  13.795  1.7930  1.1068 -2.1764
 8525TIP3    H247067   3.783   3.101  13.731  1.2055  1.8349 -3.2168
 8526TIP3   OH247068   6.038   5.960  14.753 -0.4511 -0.8772 -0.6040
 8526TIP3    H147069   6.099   5.961  14.827  1.1253 -0.8976 -1.8505
 8526TIP3    H247070   5.994   5.876  14.759 -0.8815 -0.5914  0.6988
 8527TIP3   OH247071   4.585   6.290  12.688  0.1843  0.9605  0.3368
 8527TIP3    H147072   4.676   6.321  12.684 -0.0573  1.5681 -1.1071
 8527TIP3    H247073   4.565   6.289  12.782  1.1840  2.3192  0.6097
 8528TIP3   OH247074   3.450   5.781   5.615  0.0202  0.3364  0.1093
 8528TIP3    H147075   3.398   5.764   5.693  0.7852  0.0253  0.5667
 8528TIP3    H247076   3.500   5.700   5.601 -0.9095 -0.0255 -1.3554
 8529TIP3   OH247077   5.655   4.151  15.168  0.3529  0.9385 -0.6166
 8529TIP3    H147078   5.735   4.104  15.193 -0.4743  0.0274  0.3907
 8529TIP3    H247079   5.652   4.227  15.225 -0.0983  0.3367  0.1786
 8530TIP3   OH247080   4.942   1.167  13.902 -0.1168  0.0065 -0.2430
 8530TIP3    H147081   4.946   1.202  13.813 -0.3035 -1.0809 -0.6963
 8530TIP3    H247082   5.029   1.185  13.938  0.5081 -0.9407 -1.2100
 8531TIP3   OH247083   4.370   3.539   2.702 -0.7117  0.2625 -0.5271
 8531TIP3    H147084   4.417   3.621   2.685  0.6507 -0.3660  0.0929
 8531TIP3    H247085   4.309   3.560   2.772  0.4062  0.4986  0.4011
 8532TIP3   OH247086   1.637   2.025  14.060  0.1798 -0.3258 -0.7843
 8532TIP3    H147087   1.556   2.073  14.043  0.7967  0.8654 -0.4183
 8532TIP3    H247088   1.650   2.033  14.155  1.2505  0.3564 -0.9783
 8533TIP3   OH247089   1.143   2.366  11.409  0.3376  0.3240 -1.0615
 8533TIP3    H147090   1.214   2.309  11.440 -0.8975 -1.2402 -0.9719
 8533TIP3    H247091   1.104   2.317  11.336 -2.8800 -0.6223  1.0745
 8534TIP3   OH247092   4.512   5.709  11.107 -0.2742  0.1020  0.4579
 8534TIP3    H147093   4.585   5.690  11.048 -0.2482 -0.7691  0.7594
 8534TIP3    H247094   4.545   5.686  11.194 -1.0981 -0.8378  0.5328
 8535TIP3   OH247095   4.439   5.500  10.725  0.0542  0.4072 -0.7867
 8535TIP3    H147096   4.419   5.467  10.638 -0.2459 -1.5470 -0.0440
 8535TIP3    H247097   4.383   5.577  10.734 -0.5584  0.1424 -2.0162
 8536TIP3   OH247098   3.584   2.108  17.169  1.0572  0.4359  0.3946
 8536TIP3    H147099   3.593   2.029  17.221 -0.2547 -0.7870 -1.1387
 8536TIP3    H247100   3.602   2.080  17.079 -0.1348  1.7007 -0.2772
 8537TIP3   OH247101   2.832   5.593  11.543 -0.0523  0.0847  0.1999
 8537TIP3    H147102   2.833   5.672  11.489  0.9348  1.7829  2.5474
 8537TIP3    H247103   2.746   5.594  11.584  0.7284  1.2609  1.9337
 8538TIP3   OH247104   5.495   3.739   4.488 -0.1964  0.3133 -0.0589
 8538TIP3    H147105   5.521   3.815   4.541 -1.0282 -0.1045  0.9898
 8538TIP3    H247106   5.402   3.752   4.472 -0.1846 -0.1189 -0.5029
 8539TIP3   OH247107   4.751   4.082   1.567  0.0942 -0.7711  0.3121
 8539TIP3    H147108   4.709   4.001   1.539  0.4583 -0.1878 -2.1127
 8539TIP3    H247109   4.792   4.060   1.651 -1.7165 -2.4208  0.8286
 8540TIP3   OH247110   4.224   3.770  14.926  0.9357  0.3710  0.8032
 8540TIP3    H147111   4.197   3.851  14.883 -0.1175 -0.9163 -1.0907
 8540TIP3    H247112   4.147   3.745  14.978  0.3089 -0.6566 -0.5701
 8541TIP3   OH247113   1.394   4.038   4.197 -0.0238  0.2144  0.2405
 8541TIP3    H147114   1.317   4.071   4.245 -1.5443 -1.6687 -0.7365
 8541TIP3    H247115   1.422   3.962   4.248 -0.2571 -0.4638 -0.6272
 8542TIP3   OH247116   1.711   3.248  16.150  0.0714 -0.3224  0.3763
 8542TIP3    H147117   1.749   3.326  16.192  0.0153 -0.7180  1.1824
 8542TIP3    H247118   1.647   3.216  16.213  0.1740 -1.0905  0.0989
 8543TIP3   OH247119   1.122   4.871  14.978  0.5839  0.5715  0.1676
 8543TIP3    H147120   1.096   4.782  14.953 -1.9687  1.2087  0.2453
 8543TIP3    H247121   1.199   4.890  14.924 -0.7367 -0.5333 -2.2582
 8544TIP3   OH247122   2.034   0.005  16.118 -0.1030  0.0980 -0.8803
 8544TIP3    H147123   1.986  -0.058  16.171  1.1319 -1.8535 -1.9964
 8544TIP3    H247124   2.033   0.085  16.171 -3.3118 -0.2121 -0.2203
 8545TIP3   OH247125   4.700   4.403  13.520  0.2982  0.5440 -0.2311
 8545TIP3    H147126   4.762   4.454  13.468  1.3752 -1.0631 -0.5956
 8545TIP3    H247127   4.706   4.314  13.484  0.2148 -0.3582  1.8570
 8546TIP3   OH247128   1.076   1.368  16.476  0.3729 -0.2395 -0.0177
 8546TIP3    H147129   1.045   1.299  16.418  3.7084 -2.2041  0.2460
 8546TIP3    H247130   1.149   1.408  16.428  0.9066  0.5239  1.3873
 8547TIP3   OH247131   5.643   3.210  13.243  0.3785 -0.1448  0.1615
 8547TIP3    H147132   5.628   3.292  13.289  0.7814  0.7335 -1.2145
 8547TIP3    H247133   5.567   3.200  13.185 -0.2465 -1.3587  1.1395
 8548TIP3   OH247134   6.626   0.404  14.158 -0.8124 -0.1053 -0.4132
 8548TIP3    H147135   6.663   0.324  14.195 -2.0280 -0.1959  0.6397
 8548TIP3    H247136   6.645   0.397  14.064 -0.1962 -1.2292 -0.2291
 8549TIP3   OH247137   5.749   3.821  14.993 -0.3928 -0.7443 -0.2667
 8549TIP3    H147138   5.683   3.763  14.955  1.0477 -2.0974 -0.8241
 8549TIP3    H247139   5.767   3.783  15.079  2.6533 -3.0602 -1.7229
 8550TIP3   OH247140   5.073   3.498   0.907 -0.3045 -0.2919  0.3942
 8550TIP3    H147141   5.104   3.438   0.975  0.3580 -1.6133 -1.0086
 8550TIP3    H247142   5.138   3.568   0.904  0.9456 -1.4329 -0.4102
 8551TIP3   OH247143   4.396   5.440  12.369 -0.0508 -0.2704 -0.1931
 8551TIP3    H147144   4.487   5.446  12.338 -0.2014  1.3365 -0.4148
 8551TIP3    H247145   4.386   5.517  12.426 -1.6867  0.3944 -1.3224
 8552TIP3   OH247146   4.875   5.586   5.640  0.3124 -0.4723 -0.3447
 8552TIP3    H147147   4.919   5.667   5.664  0.5866 -0.5970 -0.4189
 8552TIP3    H247148   4.910   5.565   5.553  1.2557 -1.3762  0.2316
 8553TIP3   OH247149   6.170   2.428   3.154 -0.5586  0.0958 -0.0383
 8553TIP3    H147150   6.177   2.350   3.099 -0.4079 -1.1388  1.6308
 8553TIP3    H247151   6.197   2.500   3.098 -0.4879 -1.0794 -1.5807
 8554TIP3   OH247152   2.155   1.524  17.069  0.1395 -1.0670  0.0542
 8554TIP3    H147153   2.143   1.430  17.081 -0.7962 -0.7698  1.8129
 8554TIP3    H247154   2.067   1.559  17.063  0.3999 -0.1123  1.3668
 8555TIP3   OH247155   0.411   5.009   1.266  0.7873 -0.0665  0.2728
 8555TIP3    H147156   0.483   5.028   1.326  0.9448 -0.0350  0.0746
 8555TIP3    H247157   0.422   4.916   1.245 -1.1200 -0.9631  2.7741
 8556TIP3   OH247158   3.754   3.801  12.147  0.1966  0.7062 -0.4414
 8556TIP3    H147159   3.708   3.825  12.067 -0.1354  1.3699 -0.0563
 8556TIP3    H247160   3.815   3.873  12.163  0.3812  0.4973 -0.1866
 8557TIP3   OH247161   3.349   5.450  14.551 -0.0940  0.6113 -0.1403
 8557TIP3    H147162   3.265   5.455  14.596 -0.9709  0.2530 -1.6771
 8557TIP3    H247163   3.363   5.538  14.515 -1.3835 -0.0806 -2.5302
 8558TIP3   OH247164   5.487   1.932  12.325 -0.0464 -0.2355  0.0100
 8558TIP3    H147165   5.456   1.869  12.259  0.4143  0.9113 -1.3557
 8558TIP3    H247166   5.527   1.877  12.393  2.5761 -1.4313 -2.2797
 8559TIP3   OH247167   5.609   2.368  15.324  0.1989 -0.2301 -0.2933
 8559TIP3    H147168   5.696   2.331  15.312  0.5144  0.3468  0.1450
 8559TIP3    H247169   5.576   2.327  15.405  0.1751 -0.2401 -0.3078
 8560TIP3   OH247170   2.283   1.267  11.176  0.5204 -0.0970  0.0893
 8560TIP3    H147171   2.344   1.231  11.112  0.2824 -1.2789  0.4872
 8560TIP3    H247172   2.202   1.217  11.162  0.3613 -0.1411  1.0693
 8561TIP3   OH247173   4.359   3.273   1.257 -0.1949  0.1189  0.5089
 8561TIP3    H147174   4.317   3.322   1.327  0.2048  0.4451  0.5256
 8561TIP3    H247175   4.301   3.198   1.242 -1.3217  1.0990 -0.1863
 8562TIP3   OH247176   2.156   6.420  14.730  0.2606  0.1058  0.2998
 8562TIP3    H147177   2.118   6.503  14.759 -1.1874 -0.1578 -0.7396
 8562TIP3    H247178   2.132   6.414  14.637  0.6363 -1.3183  0.2755
 8563TIP3   OH247179   1.258   6.409  14.301 -0.1620  0.6252  0.1084
 8563TIP3    H147180   1.274   6.323  14.262  2.4884  0.4615  1.3814
 8563TIP3    H247181   1.163   6.419  14.297 -0.5934 -2.4928  0.1922
 8564TIP3   OH247182   3.615   3.799  15.423  0.3359 -0.2722  0.5571
 8564TIP3    H147183   3.651   3.757  15.345 -1.3018 -1.7493  0.5500
 8564TIP3    H247184   3.623   3.733  15.492 -2.1338 -0.6344  0.5842
 8565TIP3   OH247185   3.420   3.647  12.059 -0.5135  0.2689  0.0942
 8565TIP3    H147186   3.339   3.691  12.083 -1.5201 -1.9831  1.0836
 8565TIP3    H247187   3.427   3.574  12.121  0.7031 -1.3485 -1.8287
 8566TIP3   OH247188   0.601   0.551   0.006 -0.3394 -0.1983  0.3006
 8566TIP3    H147189   0.575   0.468  -0.035 -1.2063 -0.0328  0.5003
 8566TIP3    H247190   0.689   0.567  -0.028  0.4537 -1.9365  1.4080
 8567TIP3   OH247191   3.413   0.335  15.383  0.1252 -0.2125 -1.0264
 8567TIP3    H147192   3.422   0.404  15.317 -2.1990  1.2873  0.1113
 8567TIP3    H247193   3.332   0.289  15.359  0.3202 -0.9445 -0.3346
 8568TIP3   OH247194   1.359   0.304   2.519 -0.9478  0.5555 -0.2072
 8568TIP3    H147195   1.338   0.397   2.527  0.4029  0.8354  0.3417
 8568TIP3    H247196   1.387   0.293   2.428 -1.0032  0.7083 -0.2421
 8569TIP3   OH247197   2.085   5.814  17.260  0.0047 -0.2232 -0.2401
 8569TIP3    H147198   2.145   5.765  17.317  0.8591 -0.0673 -0.9867
 8569TIP3    H247199   2.028   5.861  17.320  1.4252  0.6049  0.5209
 8570TIP3   OH247200   4.805   0.706   2.027 -0.6887 -0.6388  0.0578
 8570TIP3    H147201   4.845   0.658   2.100 -1.0943 -0.4383  0.4183
 8570TIP3    H247202   4.718   0.731   2.059  0.0710  1.7406  0.5129
 8571TIP3   OH247203   2.446   5.790  13.514 -0.3098 -0.7514 -0.3621
 8571TIP3    H147204   2.446   5.810  13.420 -3.5561 -0.6379 -0.4313
 8571TIP3    H247205   2.470   5.697  13.518 -1.9277 -1.2567 -1.5042
 8572TIP3   OH247206   0.173   0.657   5.130  0.0238  0.1136  0.6540
 8572TIP3    H147207   0.138   0.719   5.066  0.0121  0.6303  1.1546
 8572TIP3    H247208   0.137   0.685   5.214 -0.2056 -0.7402  0.8546
 8573TIP3   OH247209   2.112   1.248  17.061  0.2043  0.1441 -0.1927
 8573TIP3    H147210   2.045   1.206  17.008 -1.6181  2.3919  0.1960
 8573TIP3    H247211   2.112   1.199  17.144  0.2600 -0.8960 -0.7928
 8574TIP3   OH247212   5.246   2.053  11.666 -0.3609  0.7383 -0.0178
 8574TIP3    H147213   5.335   2.044  11.634  0.2163 -2.0449  1.9736
 8574TIP3    H247214   5.254   2.101  11.748 -0.8155  1.1860 -0.2279
 8575TIP3   OH247215   6.511   2.070   2.871 -0.3349 -0.2451  0.1043
 8575TIP3    H147216   6.419   2.052   2.850 -0.1142 -1.8509  0.3987
 8575TIP3    H247217   6.554   1.985   2.863  0.5853 -0.1282  2.7349
 8576TIP3   OH247218   4.161   2.379  12.313  0.6544  0.3215 -0.1230
 8576TIP3    H147219   4.136   2.466  12.280  0.1895  1.0568  1.9768
 8576TIP3    H247220   4.234   2.352  12.257 -0.4778  1.1324 -2.1158
 8577TIP3   OH247221   5.912   0.872   2.526  0.4076  0.0321  0.5212
 8577TIP3    H147222   5.977   0.814   2.565 -1.6700 -1.6089  1.7388
 8577TIP3    H247223   5.883   0.825   2.447 -0.1765  0.1706  0.6550
 8578TIP3   OH247224   3.876   5.057  17.509  0.2835  0.0655 -0.0969
 8578TIP3    H147225   3.902   4.966  17.519 -0.8289 -0.2060  0.4984
 8578TIP3    H247226   3.853   5.086  17.598 -2.9744 -0.2459 -0.7148
 8579TIP3   OH247227   0.289   4.986   1.819 -0.2310 -0.6896  0.0625
 8579TIP3    H147228   0.317   4.997   1.728  0.9126 -0.3216  0.4399
 8579TIP3    H247229   0.348   5.043   1.869 -0.7454 -1.0029  1.0473
 8580TIP3   OH247230   0.420   2.068   0.876 -0.6330 -0.1049 -0.2950
 8580TIP3    H147231   0.333   2.027   0.869 -0.3506 -0.4691 -2.1678
 8580TIP3    H247232   0.480   2.004   0.837  0.3580  0.5294  0.1584
 8581TIP3   OH247233   6.396   2.387   2.201  0.8988 -0.1626  0.0070
 8581TIP3    H147234   6.422   2.475   2.174 -0.2250  0.7306  1.6722
 8581TIP3    H247235   6.447   2.370   2.280  0.4885 -0.6516  0.1719
 8582TIP3   OH247236   3.092   6.685  11.143 -0.3073 -0.2369  0.1606
 8582TIP3    H147237   3.043   6.750  11.195 -0.0836 -1.3160  1.7768
 8582TIP3    H247238   3.024   6.633  11.100 -0.5136  0.0611  0.1202
 8583TIP3   OH247239   1.907   1.009   3.221  0.0611 -0.4173  0.0734
 8583TIP3    H147240   1.920   1.098   3.187 -0.9967 -0.3222 -0.1382
 8583TIP3    H247241   1.943   1.012   3.309  2.0980 -0.4371 -0.7151
 8584TIP3   OH247242   4.115   2.587   2.415  0.2841  0.2385 -0.1504
 8584TIP3    H147243   4.203   2.616   2.438 -0.1108  0.1639  1.6013
 8584TIP3    H247244   4.124   2.546   2.329  1.9725  0.1033  0.0673
 8585TIP3   OH247245   5.339   6.148   3.702 -0.0862 -0.5197  0.5578
 8585TIP3    H147246   5.412   6.201   3.733 -1.0779  1.5592 -0.4918
 8585TIP3    H247247   5.261   6.195   3.731 -1.0072 -1.1289 -0.8363
 8586TIP3   OH247248   4.512   0.119   6.380  0.0244  0.2923  0.4577
 8586TIP3    H147249   4.474   0.176   6.313 -0.0816 -0.2627  0.0377
 8586TIP3    H247250   4.437   0.080   6.424  0.0990  0.3937  0.6781
 8587TIP3   OH247251   6.206   0.667  12.131 -0.3321 -0.1010 -0.0437
 8587TIP3    H147252   6.206   0.574  12.110 -0.3046  0.0444 -0.6943
 8587TIP3    H247253   6.121   0.682  12.173  0.3312 -0.7513  1.6244
 8588TIP3   OH247254   3.596   1.896   5.507 -0.1887 -0.1656  0.5149
 8588TIP3    H147255   3.576   1.831   5.575 -1.3149  1.3349  1.6976
 8588TIP3    H247256   3.522   1.893   5.447 -0.4278  0.2608  0.7809
 8589TIP3   OH247257   0.321   1.094   6.283 -0.3025  0.3212 -0.7797
 8589TIP3    H147258   0.368   1.152   6.223  1.4402 -0.3729 -0.1599
 8589TIP3    H247259   0.390   1.050   6.332 -1.6323 -0.8505  0.1112
 8590TIP3   OH247260   4.076   0.235   0.744  0.1785 -0.5056 -0.1005
 8590TIP3    H147261   4.073   0.323   0.705 -0.2988 -2.0092 -3.9657
 8590TIP3    H247262   4.117   0.248   0.829  0.6771  3.3628 -0.7221
 8591TIP3   OH247263   3.416   4.239   5.518  0.1535  0.0087 -0.7316
 8591TIP3    H147264   3.377   4.323   5.544  1.7228  0.2553  1.1423
 8591TIP3    H247265   3.442   4.252   5.427  1.3917  2.0616 -0.1851
 8592TIP3   OH247266   2.475   3.095  15.722 -0.2160  0.5304 -0.1046
 8592TIP3    H147267   2.500   3.017  15.672  0.7609  0.2113  0.8442
 8592TIP3    H247268   2.385   3.112  15.695 -0.6157 -1.1908 -0.0289
 8593TIP3   OH247269   2.592   4.938  15.315 -0.4011 -0.0939 -0.4373
 8593TIP3    H147270   2.580   5.032  15.307 -1.0147 -0.2419 -1.4928
 8593TIP3    H247271   2.511   4.906  15.353 -0.0530 -0.1650  0.2625
 8594TIP3   OH247272   6.175   3.385   1.002 -0.1194  0.3767 -0.0272
 8594TIP3    H147273   6.111   3.455   1.004 -1.0569 -0.4191  3.0352
 8594TIP3    H247274   6.123   3.305   1.002  0.9389 -0.3776 -1.7644
 8595TIP3   OH247275   5.891   4.610   4.325 -0.3014  0.1896  0.4636
 8595TIP3    H147276   5.801   4.632   4.347 -0.1667  0.3962  0.8127
 8595TIP3    H247277   5.887   4.520   4.294 -1.1022  1.0938 -2.4304
 8596TIP3   OH247278   4.032   5.037   3.775 -0.6241  0.4404  0.1611
 8596TIP3    H147279   4.099   5.071   3.716 -2.1079 -1.5190 -2.9184
 8596TIP3    H247280   3.982   5.114   3.801 -0.2594  1.3446 -1.6641
 8597TIP3   OH247281   2.950   0.761  12.664 -0.5051 -0.2958 -0.0753
 8597TIP3    H147282   3.005   0.752  12.586  0.5813 -1.1361  0.7601
 8597TIP3    H247283   2.980   0.843  12.704  0.1753 -0.7545  0.3816
 8598TIP3   OH247284   2.068   5.904  16.015 -0.0264  0.1950 -0.1006
 8598TIP3    H147285   2.143   5.850  16.036  1.0911  1.6073 -0.2868
 8598TIP3    H247286   1.992   5.848  16.032  1.0666 -1.6088 -0.8840
 8599TIP3   OH247287   3.396   0.308  14.726 -0.5507  0.2226  0.2941
 8599TIP3    H147288   3.479   0.299  14.679 -0.4143 -0.7743  0.6895
 8599TIP3    H247289   3.333   0.335  14.659 -0.0062  0.5285 -0.1041
 8600TIP3   OH247290   4.477   4.402   2.090  0.4768  0.0306  0.0961
 8600TIP3    H147291   4.554   4.458   2.080  1.4806 -1.6095 -2.1952
 8600TIP3    H247292   4.405   4.452   2.052  0.9608  0.5227 -0.1833
 8601TIP3   OH247293   0.368   1.051  17.523  0.3485 -0.8359  0.7339
 8601TIP3    H147294   0.375   0.957  17.506  2.4155 -0.5254 -0.4881
 8601TIP3    H247295   0.349   1.090  17.438  0.6591 -0.0476  1.0156
 8602TIP3   OH247296   2.062   3.407  11.671  0.0606  0.5394  0.1772
 8602TIP3    H147297   1.985   3.404  11.615 -0.0100  1.1172  0.2394
 8602TIP3    H247298   2.058   3.325  11.721  1.5548 -1.3494 -2.5136
 8603TIP3   OH247299   1.553   5.243   0.749  0.0495  0.1387  0.4111
 8603TIP3    H147300   1.519   5.331   0.733  0.5478  0.2209 -0.2337
 8603TIP3    H247301   1.519   5.191   0.677  0.6417  0.0472  0.1965
 8604TIP3   OH247302   2.574   4.478   0.414 -0.6386  0.1121 -0.2221
 8604TIP3    H147303   2.659   4.462   0.455 -0.6634  0.8456  0.1370
 8604TIP3    H247304   2.539   4.553   0.462 -1.1794  0.2506 -0.8285
 8605TIP3   OH247305   5.136   2.072  15.553 -0.2393 -0.4553 -0.3260
 8605TIP3    H147306   5.150   1.982  15.584 -0.4072 -0.3646  0.0206
 8605TIP3    H247307   5.058   2.102  15.601 -0.5578 -0.3408 -0.9008
 8606TIP3   OH247308   5.728   6.461  13.982 -0.3683 -0.0317 -0.1065
 8606TIP3    H147309   5.818   6.488  13.999 -0.0921 -0.4843 -0.8225
 8606TIP3    H247310   5.734   6.404  13.906 -1.3272  0.3598 -0.4904
 8607TIP3   OH247311   3.773   5.976   1.801 -0.3117  0.7761 -0.0485
 8607TIP3    H147312   3.690   5.932   1.822  1.6971 -2.8832  1.0655
 8607TIP3    H247313   3.769   5.992   1.707 -1.2136 -2.0570 -0.5845
 8608TIP3   OH247314   6.603   0.870   2.293 -0.6933 -0.1460  0.0074
 8608TIP3    H147315   6.538   0.882   2.224 -1.2641  1.3865  0.7540
 8608TIP3    H247316   6.612   0.775   2.302 -1.8734 -0.3718 -0.9884
 8609TIP3   OH247317   5.667   5.720  15.671  0.7782  0.0327  0.4544
 8609TIP3    H147318   5.732   5.779  15.634  0.4978 -0.2486 -0.5272
 8609TIP3    H247319   5.584   5.766  15.661  0.5624 -0.4891 -0.2817
 8610TIP3   OH247320   4.286   0.834  14.052  0.1293 -0.3513  0.0669
 8610TIP3    H147321   4.319   0.922  14.071 -0.1261 -0.4018  0.8000
 8610TIP3    H247322   4.213   0.823  14.113 -2.5290  0.4859 -2.7382
 8611TIP3   OH247323   3.289   2.090  15.464  0.0622  0.5400 -0.1111
 8611TIP3    H147324   3.356   2.146  15.503  0.5790  0.3487 -0.7170
 8611TIP3    H247325   3.287   2.012  15.520  0.3837  0.5247 -0.1209
 8612TIP3   OH247326   2.394   1.431  17.342  0.2498 -0.0113 -0.1389
 8612TIP3    H147327   2.401   1.524  17.365  0.3437  0.0266 -0.3213
 8612TIP3    H247328   2.474   1.412  17.294  0.1716 -0.1556 -0.2107
 8613TIP3   OH247329   5.075   6.463  13.288 -0.1844 -0.2037  0.5855
 8613TIP3    H147330   5.143   6.527  13.266 -0.0784 -0.2721  0.7113
 8613TIP3    H247331   5.011   6.470  13.217 -0.0525 -0.1294  0.4739
 8614TIP3   OH247332   3.530   6.162   2.252  0.3570  0.1049 -0.7312
 8614TIP3    H147333   3.507   6.089   2.309  1.9481  0.1147 -0.0232
 8614TIP3    H247334   3.458   6.168   2.190 -1.5496  0.1873  1.3542
 8615TIP3   OH247335   3.141   6.363   5.565 -0.0002  0.4878  0.0710
 8615TIP3    H147336   3.133   6.293   5.500  1.6873 -0.7938  1.1653
 8615TIP3    H247337   3.053   6.398   5.574 -1.0824 -2.0398  0.0545
 8616TIP3   OH247338   2.504   2.415   5.512 -0.1807  0.0982  0.2211
 8616TIP3    H147339   2.592   2.391   5.482 -0.4488  0.5886 -1.0360
 8616TIP3    H247340   2.485   2.353   5.582  1.4062  0.3784  0.9479
 8617TIP3   OH247341   2.196   4.539   4.956  0.0198 -0.4285  0.0510
 8617TIP3    H147342   2.287   4.513   4.944 -0.6808 -2.6666 -0.9275
 8617TIP3    H247343   2.177   4.517   5.047  1.0097  2.0939  0.9380
 8618TIP3   OH247344   0.488   0.773  16.239  0.3216 -0.2622 -0.2765
 8618TIP3    H147345   0.568   0.784  16.291 -0.3904  1.3552  0.5482
 8618TIP3    H247346   0.454   0.862  16.228 -1.5965 -0.9325 -0.2169
 8619TIP3   OH247347   3.357   0.725  16.885 -0.5074  0.5580 -0.5760
 8619TIP3    H147348   3.360   0.635  16.855  2.3614 -0.5273  2.3461
 8619TIP3    H247349   3.297   0.724  16.959 -2.0200  1.5848 -1.7231
 8620TIP3   OH247350   4.721   2.323  11.004 -0.0023 -0.2534 -0.2338
 8620TIP3    H147351   4.680   2.238  10.987 -1.9311  0.5458  0.1579
 8620TIP3    H247352   4.733   2.362  10.918 -1.0420 -0.0919 -0.3179
 8621TIP3   OH247353   0.862   3.128  13.865 -0.1019 -0.2190  0.8297
 8621TIP3    H147354   0.796   3.064  13.890 -0.6169  0.4806  1.3079
 8621TIP3    H247355   0.895   3.097  13.781 -2.1321  0.2268 -0.1946
 8622TIP3   OH247356   5.995   0.708  14.350  0.0860 -0.2888  0.3054
 8622TIP3    H147357   5.963   0.634  14.298 -0.6298  1.0073 -1.1799
 8622TIP3    H247358   6.084   0.722  14.318 -0.2118  0.2515 -0.3069
 8623TIP3   OH247359   5.093   5.253  15.417 -0.5345 -0.2316  0.8509
 8623TIP3    H147360   5.068   5.194  15.488 -2.2599  0.9605  1.3128
 8623TIP3    H247361   5.118   5.335  15.461 -1.0818  0.3406  0.1239
 8624TIP3   OH247362   4.572   3.681  11.199 -0.1504  0.7549 -0.3517
 8624TIP3    H147363   4.491   3.732  11.200 -0.6339 -0.0073  0.1141
 8624TIP3    H247364   4.636   3.739  11.158 -0.8039  1.5558 -0.2674
 8625TIP3   OH247365   0.009   4.372  12.649 -0.2737 -0.2747 -0.4399
 8625TIP3    H147366  -0.041   4.418  12.716  0.7410  1.4069 -0.7693
 8625TIP3    H247367   0.094   4.354  12.691 -0.2489 -0.8153 -0.7087
 8626TIP3   OH247368   6.083   0.608  11.720 -0.2972  0.2127 -0.5808
 8626TIP3    H147369   6.029   0.641  11.792 -1.0676 -1.7245 -0.2202
 8626TIP3    H247370   6.024   0.610  11.644  0.2167  1.3287 -0.9705
 8627TIP3   OH247371   3.203   6.351  15.298  0.3730 -0.6311  0.9117
 8627TIP3    H147372   3.223   6.380  15.387 -0.2600 -2.0389  1.5334
 8627TIP3    H247373   3.152   6.271  15.309  1.6238 -1.7313 -0.7230
 8628TIP3   OH247374   3.468   0.393  16.869  0.0865  0.1764  0.0605
 8628TIP3    H147375   3.412   0.429  16.801  0.7555  2.6345  0.7147
 8628TIP3    H247376   3.422   0.412  16.951  1.9237  2.6141  0.6385
 8629TIP3   OH247377   1.818   1.123  11.274 -0.0884  0.1192  0.2154
 8629TIP3    H147378   1.733   1.157  11.246 -0.1083  1.2493  1.5575
 8629TIP3    H247379   1.881   1.169  11.219 -0.3392 -1.4341 -1.4705
 8630TIP3   OH247380   1.557   5.140  12.874 -0.8378  0.1283 -0.1778
 8630TIP3    H147381   1.498   5.124  12.947  0.6364  0.5445  1.1647
 8630TIP3    H247382   1.575   5.234  12.878 -0.8792  0.1923 -1.2049
 8631TIP3   OH247383   6.712   3.017  14.218 -0.1857  0.0502  0.1787
 8631TIP3    H147384   6.710   3.060  14.132 -1.2661  0.0941  0.2045
 8631TIP3    H247385   6.723   3.089  14.280 -1.4401  0.2501  0.1891
 8632TIP3   OH247386   3.234   1.554  15.617  0.5857 -0.0557 -0.1505
 8632TIP3    H147387   3.217   1.572  15.710  0.4967  3.0687 -0.6513
 8632TIP3    H247388   3.330   1.555  15.610  0.5881 -0.0556 -0.1200
 8633TIP3   OH247389   0.187   3.519   3.559 -0.1138  0.0850  0.4240
 8633TIP3    H147390   0.152   3.434   3.589 -1.3968  0.8718  1.2708
 8633TIP3    H247391   0.115   3.556   3.508  0.6267  0.4642 -0.3546
 8634TIP3   OH247392   3.476   5.304   4.894  0.3587 -0.0077  0.5800
 8634TIP3    H147393   3.553   5.304   4.836  0.9099  0.6173  1.2853
 8634TIP3    H247394   3.418   5.369   4.856 -0.9103 -2.1158 -1.2991
 8635TIP3   OH247395   5.048   6.442   1.885  0.3678 -0.2709  0.0715
 8635TIP3    H147396   5.037   6.453   1.790  0.5495  1.5570  0.2190
 8635TIP3    H247397   5.143   6.433   1.896  0.4084  0.2020  0.1269
 8636TIP3   OH247398   0.466   2.284   1.493 -0.1957  0.5671 -0.2618
 8636TIP3    H147399   0.437   2.208   1.544 -1.3455 -0.1218 -1.8703
 8636TIP3    H247400   0.427   2.359   1.539 -1.9892 -0.1037 -0.5952
 8637TIP3   OH247401   2.150   2.600   4.306  0.2660  0.4278 -0.0452
 8637TIP3    H147402   2.129   2.693   4.293  0.9925  0.3606 -2.0856
 8637TIP3    H247403   2.069   2.554   4.284  0.2417  0.5350 -0.1805
 8638TIP3   OH247404   5.455   0.039  11.291  0.5502 -0.2719 -0.3923
 8638TIP3    H147405   5.397   0.022  11.216  0.6371 -1.3169 -0.2370
 8638TIP3    H247406   5.540   0.057  11.251  0.3419  0.3311 -0.5815
 8639TIP3   OH247407   2.330   6.154   5.726 -0.2273  0.0064 -0.1306
 8639TIP3    H147408   2.258   6.120   5.673 -0.6377  2.3279 -1.2059
 8639TIP3    H247409   2.387   6.198   5.663  0.9959  0.0779  0.9850
 8640TIP3   OH247410   5.189   1.487   2.794 -0.6884 -0.0025  0.1223
 8640TIP3    H147411   5.114   1.544   2.811 -0.7674 -0.0488 -0.0705
 8640TIP3    H247412   5.181   1.463   2.702  0.3629  1.1524 -0.2965
 8641TIP3   OH247413   4.203   1.412  15.157 -0.4707 -0.0387 -0.0285
 8641TIP3    H147414   4.253   1.480  15.203 -1.4175  0.3472  0.4783
 8641TIP3    H247415   4.256   1.333  15.165  1.6231  1.0248 -2.3479
 8642TIP3   OH247416   5.112   5.684  15.949  0.1566  0.1749  0.3034
 8642TIP3    H147417   5.041   5.625  15.925 -1.5255  1.7712  1.0960
 8642TIP3    H247418   5.150   5.644  16.028  0.5928 -1.0003 -0.4665
 8643TIP3   OH247419   1.641   1.471  12.008 -0.1144 -0.4339  0.9736
 8643TIP3    H147420   1.626   1.552  12.058  1.1309 -0.3402  1.2167
 8643TIP3    H247421   1.564   1.463  11.952 -0.3037  0.8570  1.0275
 8644TIP3   OH247422   2.930   0.233   0.943  0.8149 -0.1494  0.5592
 8644TIP3    H147423   2.891   0.152   0.974 -1.4905  0.9989  0.8862
 8644TIP3    H247424   2.862   0.273   0.888  2.3161  1.0190 -0.5419
 8645TIP3   OH247425   3.949   5.650  16.470 -0.4189 -0.1402  0.6797
 8645TIP3    H147426   3.944   5.731  16.522 -1.3739  0.9821 -1.0738
 8645TIP3    H247427   3.945   5.580  16.536  0.9012  1.1998  2.2870
 8646TIP3   OH247428   6.714   6.677  13.386  1.1163  0.2060 -0.3012
 8646TIP3    H147429   6.788   6.708  13.439  0.2418  0.7795  0.6451
 8646TIP3    H247430   6.678   6.757  13.347  0.2522  0.1051  0.2619
 8647TIP3   OH247431   5.505   1.990  11.585 -0.4397 -0.6663 -0.0858
 8647TIP3    H147432   5.496   1.898  11.559 -1.4629 -0.2650 -1.2209
 8647TIP3    H247433   5.586   2.019  11.544 -1.0541 -0.5730 -1.2620
 8648TIP3   OH247434   1.080   2.102  11.869 -0.0149  0.6104 -0.1056
 8648TIP3    H147435   1.057   2.194  11.878 -0.7486  0.3682  0.7167
 8648TIP3    H247436   1.001   2.061  11.834  0.7412  0.4844 -1.7584
 8649TIP3   OH247437   3.775   1.050  16.604  0.5700  0.1986 -0.5205
 8649TIP3    H147438   3.864   1.085  16.612  1.3293 -1.6600 -0.3583
 8649TIP3    H247439   3.744   1.041  16.695 -0.2520  1.8573 -0.5923
 8650TIP3   OH247440   2.034   5.858  15.011 -0.4677 -0.2667  0.7314
 8650TIP3    H147441   2.023   5.810  15.093 -0.5453 -1.0152  0.2875
 8650TIP3    H247442   2.009   5.796  14.943 -0.5267  0.3916  0.1449
 8651TIP3   OH247443   1.825   4.316   4.374  0.4459 -0.6319  0.3150
 8651TIP3    H147444   1.845   4.391   4.430  1.6474 -0.1960 -0.6675
 8651TIP3    H247445   1.787   4.252   4.434  1.6430 -0.1623  1.6445
 8652TIP3   OH247446   2.193   5.614   4.146  0.1237  0.7339  0.0213
 8652TIP3    H147447   2.149   5.635   4.229  1.5460 -1.5072  1.4377
 8652TIP3    H247448   2.138   5.546   4.107  1.0832 -0.4831  0.7207
 8653TIP3   OH247449   5.715   0.363   5.531  0.3521 -0.3529  0.2586
 8653TIP3    H147450   5.792   0.388   5.582 -0.5784 -0.3722  1.7328
 8653TIP3    H247451   5.712   0.425   5.458  0.0498  1.6613  1.9002
 8654TIP3   OH247452   4.976   1.986   3.779  0.1929  0.3380  0.6662
 8654TIP3    H147453   5.006   1.928   3.849  0.8477  0.1696  0.2574
 8654TIP3    H247454   5.024   1.957   3.702 -0.2986  0.7190  0.2132
 8655TIP3   OH247455   3.373   5.668   3.911  0.3099 -0.4768 -0.0691
 8655TIP3    H147456   3.376   5.669   4.006 -0.6651 -1.7284  0.0127
 8655TIP3    H247457   3.405   5.581   3.886 -0.5176 -0.5999 -0.7947
 8656TIP3   OH247458   4.134   0.067  17.468  0.4574 -0.8404 -0.2970
 8656TIP3    H147459   4.197   0.040  17.534  0.3449  1.6938  0.9721
 8656TIP3    H247460   4.121   0.161  17.484 -1.4977 -0.6772 -2.3194
 8657TIP3   OH247461   4.463   1.010   1.288  0.1180  0.1498 -0.5243
 8657TIP3    H147462   4.463   0.966   1.203 -2.0732 -1.0539 -0.0091
 8657TIP3    H247463   4.382   1.061   1.288  0.4322  0.6763  0.5819
 8658TIP3   OH247464   6.461   1.476  13.170  0.1506  0.3345  0.0867
 8658TIP3    H147465   6.497   1.460  13.082 -0.9845  1.5557 -0.6496
 8658TIP3    H247466   6.378   1.429  13.171  1.3004 -1.7764  1.4685
 8659TIP3   OH247467   1.618   0.594   5.017  0.1022 -0.1512  0.4627
 8659TIP3    H147468   1.666   0.653   4.960 -1.3599 -0.9500 -1.7483
 8659TIP3    H247469   1.553   0.649   5.060 -0.5035  0.0837 -0.7086
 8660TIP3   OH247470   0.310   5.729  17.324 -0.1648  0.5853  0.1329
 8660TIP3    H147471   0.220   5.721  17.355 -0.5350  0.3729 -0.9358
 8660TIP3    H247472   0.362   5.743  17.403 -1.3308  2.3992  0.6625
 8661TIP3   OH247473   3.160   1.494  10.992 -0.6365 -0.1473  0.3036
 8661TIP3    H147474   3.221   1.503  11.066  0.8233 -0.1944 -0.8466
 8661TIP3    H247475   3.111   1.414  11.012 -0.0958 -0.2937  1.1112
 8662TIP3   OH247476   4.401   3.955   4.340  0.1370 -0.0961 -0.4897
 8662TIP3    H147477   4.309   3.968   4.316 -0.0676 -0.2041  0.2031
 8662TIP3    H247478   4.416   3.861   4.328 -0.0620 -0.2108  0.0921
 8663TIP3   OH247479   3.046   6.232  12.566 -0.5545 -0.1059 -0.1072
 8663TIP3    H147480   3.085   6.159  12.518 -1.5202 -1.7169  1.4488
 8663TIP3    H247481   3.071   6.218  12.657  0.0763  2.1035  0.1149
 8664TIP3   OH247482   6.179   2.762  10.982 -0.3316 -0.6258  0.5208
 8664TIP3    H147483   6.191   2.742  11.074  0.8828  0.9869  0.7509
 8664TIP3    H247484   6.219   2.689  10.935  1.2675 -0.2986  1.3070
 8665TIP3   OH247485   2.790   4.961   4.813  0.0774 -0.3754 -0.1662
 8665TIP3    H147486   2.743   5.045   4.820  0.0175 -0.1855 -2.1565
 8665TIP3    H247487   2.755   4.921   4.733  0.4492 -2.1021  0.4960
 8666TIP3   OH247488   6.302   2.030  13.409 -0.4915  0.7971  0.0294
 8666TIP3    H147489   6.274   2.021  13.318 -1.1594 -1.3369  0.3897
 8666TIP3    H247490   6.359   1.954  13.425 -1.4554  0.3728  1.7472
 8667TIP3   OH247491   3.420   1.698   3.978  0.4540 -0.3757  0.0377
 8667TIP3    H147492   3.338   1.734   4.012  0.5625  0.1596 -0.2547
 8667TIP3    H247493   3.415   1.711   3.883  0.1213 -1.9209 -0.1918
 8668TIP3   OH247494   0.935   4.975  16.606 -0.0011  0.3047  0.1910
 8668TIP3    H147495   0.996   5.043  16.579 -0.9961  1.9856  1.9005
 8668TIP3    H247496   0.965   4.949  16.694 -0.4969 -0.3946  0.1629
 8669TIP3   OH247497   5.829   0.187   6.298 -0.3190 -0.5528 -0.2562
 8669TIP3    H147498   5.856   0.099   6.323 -0.4156 -0.5036  0.0197
 8669TIP3    H247499   5.749   0.174   6.247  0.3367 -0.7171 -1.2708
 8670TIP3   OH247500   4.987   3.479  14.769  0.1608  0.2761 -0.3657
 8670TIP3    H147501   5.020   3.480  14.679  2.0043 -0.1680  0.2507
 8670TIP3    H247502   5.032   3.551  14.812  0.7501 -0.6671  0.6507
 8671TIP3   OH247503   5.146   0.537  16.273 -0.4575  0.3288 -0.6023
 8671TIP3    H147504   5.218   0.594  16.244  0.8686  0.0382  1.8112
 8671TIP3    H247505   5.152   0.539  16.368 -1.8403 -2.0380 -0.4082
 8672TIP3   OH247506   5.998   2.577   2.094 -0.3632 -0.3673 -0.2746
 8672TIP3    H147507   6.058   2.504   2.113 -1.0287 -0.7941  0.2396
 8672TIP3    H247508   5.940   2.544   2.026  0.3446  0.2569 -1.2117
 8673TIP3   OH247509   2.818   5.652   3.423  0.1534 -0.2172  0.1631
 8673TIP3    H147510   2.817   5.557   3.436  0.3589 -0.1457  0.7218
 8673TIP3    H247511   2.744   5.668   3.364 -0.2501 -0.6610  0.5317
 8674TIP3   OH247512   6.393   1.271   5.977 -0.0257 -0.0726  0.7547
 8674TIP3    H147513   6.343   1.237   5.903 -0.1011  1.8935 -0.1596
 8674TIP3    H247514   6.347   1.239   6.054  0.0473 -2.1600 -0.0140
 8675TIP3   OH247515   3.465   1.452  16.951 -0.1107  0.2775 -0.3715
 8675TIP3    H147516   3.547   1.411  16.980 -0.2304 -1.0538 -1.8409
 8675TIP3    H247517   3.406   1.379  16.935 -2.1506  1.2589  2.0864
 8676TIP3   OH247518   0.353   3.367   2.864 -0.7962 -0.3613 -0.4175
 8676TIP3    H147519   0.360   3.282   2.907  1.5176  0.2188  0.4897
 8676TIP3    H247520   0.440   3.405   2.872 -1.8778  2.2932 -0.4377
 8677TIP3   OH247521   3.856   2.559   5.695  0.4668 -0.6819 -0.4528
 8677TIP3    H147522   3.912   2.637   5.693 -0.2833 -0.1407 -0.7009
 8677TIP3    H247523   3.897   2.502   5.761 -0.5431  1.1503  1.9396
 8678TIP3   OH247524   4.571   5.498   4.850 -0.7110 -0.3884 -0.2456
 8678TIP3    H147525   4.528   5.578   4.882  0.2587 -0.2320  0.7057
 8678TIP3    H247526   4.509   5.428   4.869 -0.9092 -0.0588  0.3381
 8679TIP3   OH247527   1.084   3.448   2.413  0.0192 -0.1275 -0.0694
 8679TIP3    H147528   1.018   3.515   2.398 -0.2480 -0.2984  0.3384
 8679TIP3    H247529   1.103   3.412   2.326 -0.2591  0.0706 -0.2115
 8680TIP3   OH247530   2.209   2.940   5.339  0.9713 -0.0308 -0.2141
 8680TIP3    H147531   2.209   3.028   5.376  0.6522 -0.8255  1.8164
 8680TIP3    H247532   2.301   2.914   5.338  0.9625 -0.0832  0.2379
 8681TIP3   OH247533   1.197   2.324  12.128 -0.1051  0.0880 -0.5829
 8681TIP3    H147534   1.228   2.414  12.142 -0.4993  0.4399 -1.8924
 8681TIP3    H247535   1.148   2.304  12.207  1.1414  0.5094  0.3395
 8682TIP3   OH247536   3.429   6.635   5.096  0.3558 -0.5888 -0.3765
 8682TIP3    H147537   3.484   6.713   5.086 -1.1916  0.6172  0.0606
 8682TIP3    H247538   3.476   6.566   5.049  2.1386  0.4105 -0.1587
 8683TIP3   OH247539   2.826   6.521  16.227  0.2708 -0.5071 -0.3957
 8683TIP3    H147540   2.731   6.526  16.218  0.4556  0.9582 -2.0011
 8683TIP3    H247541   2.854   6.612  16.231  1.6392 -0.9141 -0.3499
 8684TIP3   OH247542   4.275   0.444  11.804 -0.3243  0.0799  0.0318
 8684TIP3    H147543   4.349   0.446  11.866  0.6880  0.2786 -1.1466
 8684TIP3    H247544   4.209   0.390  11.848  0.1744  0.5753  1.4784
 8685TIP3   OH247545   0.600   4.364  17.520  0.4478 -0.0783 -0.6377
 8685TIP3    H147546   0.679   4.327  17.480 -1.4682 -0.2611 -4.7371
 8685TIP3    H247547   0.585   4.446  17.473 -0.4543  1.3182  1.8935
 8686TIP3   OH247548   0.556   2.672  14.680  1.0842 -0.2763  0.5691
 8686TIP3    H147549   0.517   2.698  14.764 -1.6294 -0.7797 -0.4334
 8686TIP3    H247550   0.522   2.584  14.664  1.0994  0.0243 -1.3123
 8687TIP3   OH247551   5.811   5.226   0.465 -0.8488  0.4044 -0.3243
 8687TIP3    H147552   5.767   5.201   0.383  0.0354  1.0236 -1.0073
 8687TIP3    H247553   5.739   5.234   0.528 -1.4037 -1.4197 -0.6684
 8688TIP3   OH247554   4.273   4.240  12.116 -0.3538  0.0274 -0.2920
 8688TIP3    H147555   4.363   4.210  12.131 -0.4833  0.3235  1.2093
 8688TIP3    H247556   4.221   4.160  12.117 -0.1882 -0.0863 -0.5505
 8689TIP3   OH247557   4.453   2.041  14.833 -0.0228  0.0738 -0.1328
 8689TIP3    H147558   4.522   2.001  14.781  0.0440  0.4565 -0.3418
 8689TIP3    H247559   4.467   2.135  14.822 -0.4692  0.1510 -0.0335
 8690TIP3   OH247560   5.094   6.059  16.757  0.1218  0.0643 -0.3451
 8690TIP3    H147561   5.057   6.140  16.722  0.8871  0.1026 -1.1245
 8690TIP3    H247562   5.164   6.089  16.816  0.6867 -0.0078 -0.9551
 8691TIP3   OH247563   1.178   5.111  16.832 -0.6710 -0.1522 -1.0147
 8691TIP3    H147564   1.245   5.115  16.900 -1.3627 -0.8400 -0.2557
 8691TIP3    H247565   1.183   5.021  16.798 -1.7970 -0.5148 -0.2947
 8692TIP3   OH247566   0.084   6.526   3.911 -0.0351  0.2924 -0.2818
 8692TIP3    H147567   0.045   6.439   3.898  1.8735 -1.5679  4.1291
 8692TIP3    H247568   0.098   6.559   3.823 -1.0187 -3.8199 -2.2556
 8693TIP3   OH247569   2.423   4.891   1.433  0.5915 -0.9066  0.1412
 8693TIP3    H147570   2.456   4.895   1.523 -1.7819 -2.3530  1.1844
 8693TIP3    H247571   2.335   4.854   1.441 -0.0654 -0.2489 -2.7209
 8694TIP3   OH247572   5.822   0.647   4.005  0.9032 -0.0778  0.6566
 8694TIP3    H147573   5.755   0.666   4.070  3.1774 -0.2252  3.1812
 8694TIP3    H247574   5.847   0.733   3.971 -1.1675 -0.0701 -1.1432
 8695TIP3   OH247575   6.205   1.964  15.651  0.2834 -0.1149  0.2829
 8695TIP3    H147576   6.241   2.053  15.652 -0.4702  0.2345 -1.0097
 8695TIP3    H247577   6.273   1.911  15.611  0.7151 -0.1284  1.0103
 8696TIP3   OH247578   2.083   6.137   1.052  0.1711  0.0226 -0.0382
 8696TIP3    H147579   2.027   6.129   1.130  1.2792 -0.0582  0.7828
 8696TIP3    H247580   2.157   6.189   1.082  0.4234  0.3411 -1.1760
 8697TIP3   OH247581   4.777   1.389  13.721  0.4834 -0.7914 -0.6017
 8697TIP3    H147582   4.713   1.365  13.654 -0.0311  1.3438 -0.9495
 8697TIP3    H247583   4.862   1.382  13.677  0.0876  1.7567 -1.9678
 8698TIP3   OH247584   2.488   3.637  15.833  0.2399 -0.4485  0.1150
 8698TIP3    H147585   2.561   3.576  15.821  0.9595  0.4323 -0.0608
 8698TIP3    H247586   2.464   3.662  15.743  0.0598 -0.3378  0.1957
 8699TIP3   OH247587   4.948   1.994   5.412 -0.2411 -0.3338  0.4500
 8699TIP3    H147588   4.997   2.006   5.494 -0.4930  2.1187  0.3045
 8699TIP3    H247589   4.929   1.900   5.410 -1.8982 -0.2510  4.1892
 8700TIP3   OH247590   0.059   1.055  16.107 -0.2689  0.5816 -0.3463
 8700TIP3    H147591   0.060   0.965  16.076 -0.8035  0.6229 -0.5030
 8700TIP3    H247592  -0.030   1.086  16.089 -0.3083  0.9124  0.3608
 8701TIP3   OH247593   1.558   0.125   0.462 -0.0894 -0.2496  0.1747
 8701TIP3    H147594   1.618   0.081   0.523 -0.2870 -0.0751  0.4941
 8701TIP3    H247595   1.616   0.175   0.405  0.0133  1.1122  1.4151
 8702TIP3   OH247596   1.403   2.614   3.465  0.2638 -0.0648 -0.0471
 8702TIP3    H147597   1.406   2.680   3.534 -0.2293 -1.1493  1.0646
 8702TIP3    H247598   1.425   2.661   3.385  1.7703  1.0563  0.9804
 8703TIP3   OH247599   4.168   4.710  11.641 -0.4313  0.3794 -0.3305
 8703TIP3    H147600   4.186   4.756  11.559  0.5970 -0.8609 -0.8303
 8703TIP3    H247601   4.126   4.628  11.614 -1.5970  0.6647  0.5052
 8704TIP3   OH247602   4.960   4.858  12.340 -0.2919  0.0803 -0.6002
 8704TIP3    H147603   4.964   4.764  12.323 -2.1993 -0.2371  0.4821
 8704TIP3    H247604   4.933   4.897  12.257  1.7818 -0.1331 -1.4326
 8705TIP3   OH247605   4.910   2.213   2.465  0.2952 -0.0214 -0.3077
 8705TIP3    H147606   4.980   2.167   2.512  0.2095  1.3031  1.1778
 8705TIP3    H247607   4.911   2.174   2.377  1.0046 -1.9902  0.5251
 8706TIP3   OH247608   6.254   0.538   5.311 -0.1136 -0.6490 -0.3583
 8706TIP3    H147609   6.345   0.549   5.287 -0.6103 -0.1400 -2.1110
 8706TIP3    H247610   6.225   0.625   5.338 -0.5589 -0.3904 -1.6161
 8707TIP3   OH247611   1.346   2.012   2.049 -0.0394  0.2093 -0.2736
 8707TIP3    H147612   1.385   1.996   1.963  0.3751 -0.8495  0.0909
 8707TIP3    H247613   1.350   1.927   2.093 -0.8674  0.5765  0.5438
 8708TIP3   OH247614   0.061   1.010  11.677  0.0479 -0.5195  0.5691
 8708TIP3    H147615   0.077   0.968  11.762  0.6958 -2.7159 -0.5749
 8708TIP3    H247616   0.061   0.938  11.614 -2.6804  0.7599 -1.0669
 8709TIP3   OH247617   2.569   1.695   4.724 -0.3230  0.1742 -0.0211
 8709TIP3    H147618   2.491   1.725   4.676 -1.8460 -0.9420  1.6308
 8709TIP3    H247619   2.611   1.632   4.665 -1.6395 -0.4935 -0.2822
 8710TIP3   OH247620   2.694   0.748  14.317 -0.2169  0.1424 -0.1211
 8710TIP3    H147621   2.654   0.772  14.401  0.8214 -2.3366  1.1827
 8710TIP3    H247622   2.780   0.792  14.319 -0.7335  1.2010 -0.5419
 8711TIP3   OH247623   3.236   3.568  11.399 -0.0818 -0.2327 -0.4835
 8711TIP3    H147624   3.263   3.494  11.344  1.4728 -0.8509  0.9973
 8711TIP3    H247625   3.187   3.626  11.340  0.1309 -1.6119 -2.0926
 8712TIP3   OH247626   2.735   5.047   1.658  0.0603 -0.7825  0.3806
 8712TIP3    H147627   2.663   4.986   1.676  0.1107 -0.9002  0.1875
 8712TIP3    H247628   2.694   5.133   1.658 -0.3785 -0.9532 -1.2504
 8713TIP3   OH247629   0.540   5.123  15.363 -0.1784 -0.1731 -0.3090
 8713TIP3    H147630   0.625   5.087  15.389  0.5838  0.3045 -2.0190
 8713TIP3    H247631   0.534   5.206  15.411 -0.3176 -0.8224  0.8478
 8714TIP3   OH247632   1.709   5.622   3.243  0.5041 -0.0798 -0.6382
 8714TIP3    H147633   1.763   5.681   3.191  1.4085 -0.3302 -0.0112
 8714TIP3    H247634   1.768   5.590   3.312 -1.0367  1.5063  1.5495
 8715TIP3   OH247635   1.065   1.643  15.608 -0.4005 -0.1939 -0.6859
 8715TIP3    H147636   1.139   1.703  15.594  0.9564 -1.4773  0.5508
 8715TIP3    H247637   1.103   1.556  15.597 -1.1109 -0.9776  2.2410
 8716TIP3   OH247638   3.017   1.333   4.142 -0.2597 -0.0578  0.1423
 8716TIP3    H147639   3.091   1.367   4.093 -1.4150  0.5253 -1.3012
 8716TIP3    H247640   2.946   1.327   4.077 -1.7776  0.4304  1.6643
 8717TIP3   OH247641   2.666   6.606   0.690  0.6507 -0.2128  0.6202
 8717TIP3    H147642   2.715   6.571   0.616 -0.7199 -0.0377 -0.4003
 8717TIP3    H247643   2.577   6.571   0.679  0.0659  0.9721  1.3840
 8718TIP3   OH247644   3.214   3.850   2.664 -0.3808 -0.2424 -0.9117
 8718TIP3    H147645   3.135   3.903   2.678 -0.4151 -0.9818  2.8816
 8718TIP3    H247646   3.286   3.912   2.676 -0.4430 -0.3987  0.5026
 8719TIP3   OH247647   3.501   6.728   3.506 -0.2276  0.8321  0.0364
 8719TIP3    H147648   3.414   6.690   3.517 -0.1214 -0.4510 -2.6165
 8719TIP3    H247649   3.560   6.653   3.512  0.6670  1.6236  1.3132
 8720TIP3   OH247650   3.842   4.743   4.706 -0.5618  0.0597 -1.0656
 8720TIP3    H147651   3.815   4.676   4.643  0.9361 -0.6620 -0.9998
 8720TIP3    H247652   3.914   4.789   4.663 -0.1162  0.1520 -0.2509
 8721TIP3   OH247653   4.982   0.980  11.012  0.0927  0.2650 -0.3017
 8721TIP3    H147654   4.951   0.967  10.923  1.9766 -1.0485 -0.8050
 8721TIP3    H247655   4.918   1.040  11.051 -1.1286  0.3314 -2.3052
 8722TIP3   OH247656   6.297   3.992   2.110  0.7021 -0.1952 -0.0976
 8722TIP3    H147657   6.234   4.064   2.098 -1.5152 -1.6448  1.9908
 8722TIP3    H247658   6.291   3.942   2.028 -0.0092  0.3190 -0.3744
 8723TIP3   OH247659   4.127   3.049   1.514  0.2649  0.2253  0.0985
 8723TIP3    H147660   4.085   2.976   1.561 -0.5227  0.1583 -0.6847
 8723TIP3    H247661   4.154   3.011   1.431  1.9554  0.2609  0.6048
 8724TIP3   OH247662   3.361   5.781   5.178  0.2616 -0.2293 -0.5834
 8724TIP3    H147663   3.395   5.808   5.263  1.7626 -0.4410 -1.0875
 8724TIP3    H247664   3.332   5.691   5.192  0.4177 -0.2332 -0.2723
 8725TIP3   OH247665   6.288   2.620   3.018 -0.8847  0.1717 -0.3162
 8725TIP3    H147666   6.260   2.661   2.936  0.7870 -1.4350 -1.7772
 8725TIP3    H247667   6.334   2.689   3.065 -1.5786  1.0292 -0.8733
 8726TIP3   OH247668   4.706   4.400  11.316 -0.2263 -0.3323  0.4942
 8726TIP3    H147669   4.797   4.431  11.316 -0.3190 -0.0088  2.1201
 8726TIP3    H247670   4.670   4.432  11.233  1.1848 -0.6211 -0.2587
 8727TIP3   OH247671   6.663   4.243  14.626 -0.0437 -0.3412 -0.2810
 8727TIP3    H147672   6.583   4.287  14.654  1.1158  1.1527  0.8240
 8727TIP3    H247673   6.651   4.152  14.654 -1.2175 -0.0767  0.1215
 8728TIP3   OH247674   3.357   4.270  14.478  0.3700 -0.3274  0.3069
 8728TIP3    H147675   3.352   4.327  14.555  0.9290  0.5849 -0.3121
 8728TIP3    H247676   3.388   4.186  14.513  2.0622  0.4835  0.9129
 8729TIP3   OH247677   5.273   3.432  14.318  0.3478  0.1869  0.3516
 8729TIP3    H147678   5.258   3.339  14.300 -0.9507  0.0980  1.6416
 8729TIP3    H247679   5.241   3.478  14.240 -1.8850 -0.3269  0.8997
 8730TIP3   OH247680   5.506   3.184  16.449 -0.1892  0.0004  0.2916
 8730TIP3    H147681   5.426   3.205  16.400 -0.5480 -2.1594 -0.1374
 8730TIP3    H247682   5.475   3.157  16.535  0.2585  1.2186  0.8496
 8731TIP3   OH247683   4.088   5.483  14.906  0.5356 -0.0649 -0.4089
 8731TIP3    H147684   4.143   5.460  14.831  0.5880  0.7111 -0.6159
 8731TIP3    H247685   4.004   5.510  14.867  1.4114  2.9793 -0.4276
 8732TIP3   OH247686   4.176   0.610   5.303  0.0550  0.1963  0.3089
 8732TIP3    H147687   4.105   0.638   5.360 -1.4778 -0.7677 -1.0688
 8732TIP3    H247688   4.140   0.538   5.251  2.0736 -0.4414 -0.3450
 8733TIP3   OH247689   1.610   2.352   3.327  0.5184  0.0699 -0.2737
 8733TIP3    H147690   1.700   2.322   3.336 -0.4937 -3.0851  0.3949
 8733TIP3    H247691   1.558   2.294   3.382 -2.0964  0.9580 -1.5768
 8734TIP3   OH247692   2.185   4.467  11.905 -0.2846  0.1711  0.2621
 8734TIP3    H147693   2.167   4.374  11.918  0.3224  0.0646  0.3693
 8734TIP3    H247694   2.193   4.477  11.810 -0.5883  0.1567  0.2364
 8735TIP3   OH247695   2.631   5.753  13.785  0.3140  0.2732 -0.4932
 8735TIP3    H147696   2.608   5.777  13.874 -0.1908 -1.4250 -0.1364
 8735TIP3    H247697   2.683   5.827  13.753 -0.0331  1.1859  0.9745
 8736TIP3   OH247698   4.486   1.984  13.107 -0.1438  0.4645 -0.0871
 8736TIP3    H147699   4.544   2.041  13.057 -1.3987  0.0079 -2.2042
 8736TIP3    H247700   4.407   2.037  13.121 -0.7497 -0.2301 -0.7870
 8737TIP3   OH247701   6.364   2.222  14.346 -0.3807 -0.5509 -0.1230
 8737TIP3    H147702   6.399   2.197  14.432  0.8690 -1.0245 -0.7518
 8737TIP3    H247703   6.417   2.296  14.318 -0.9561 -0.2292 -0.3841
 8738TIP3   OH247704   3.149   3.199  17.025  0.2211 -0.2173 -0.7459
 8738TIP3    H147705   3.170   3.289  17.000  2.3584 -0.2541  0.6959
 8738TIP3    H247706   3.068   3.206  17.076  0.5610  0.9519 -0.3348
 8739TIP3   OH247707   5.872   3.287   5.768  0.2546 -0.0936 -0.7634
 8739TIP3    H147708   5.930   3.308   5.841 -0.4221  0.3123 -0.3311
 8739TIP3    H247709   5.856   3.371   5.725  0.7767 -0.3529 -1.4850
 8740TIP3   OH247710   5.935   4.797  16.947  0.9211 -0.1191  0.0866
 8740TIP3    H147711   5.887   4.839  17.018  0.8776 -0.2524  0.1364
 8740TIP3    H247712   6.026   4.795  16.978  0.9876  0.2760 -0.0727
 8741TIP3   OH247713   5.851   0.197   0.781 -0.1602 -0.2049  0.0086
 8741TIP3    H147714   5.907   0.123   0.758  0.8141  1.0679 -2.0167
 8741TIP3    H247715   5.833   0.241   0.697 -1.7193  1.1610  0.9843
 8742TIP3   OH247716   3.101   1.336  16.906 -0.0965  0.3235  0.1655
 8742TIP3    H147717   3.135   1.316  16.993 -0.8567 -0.4989  0.2790
 8742TIP3    H247718   3.052   1.258  16.880  2.0039 -0.3891 -1.9740
 8743TIP3   OH247719   3.230   4.701   5.627 -0.7306  0.0563 -0.0138
 8743TIP3    H147720   3.285   4.777   5.610 -1.7801  1.0002  0.6100
 8743TIP3    H247721   3.206   4.710   5.720 -0.6943 -1.1654  0.1305
 8744TIP3   OH247722   5.907   5.927  16.432  0.2568  0.3286 -0.2925
 8744TIP3    H147723   5.927   5.845  16.478 -1.1404  0.6490  1.0013
 8744TIP3    H247724   5.972   5.989  16.465  1.4687 -0.2878 -1.4544
 8745TIP3   OH247725   4.103   5.680   1.962 -0.7612 -0.1905 -0.2457
 8745TIP3    H147726   4.163   5.665   2.035  1.0417 -0.3600 -1.6705
 8745TIP3    H247727   4.038   5.742   1.995  0.8107  0.8258  1.0806
 8746TIP3   OH247728   0.592   4.851  13.883  0.0501  0.5398 -0.7549
 8746TIP3    H147729   0.627   4.787  13.821  0.1722 -0.8864  0.7261
 8746TIP3    H247730   0.523   4.895  13.834  0.4699 -0.1787 -2.0699
 8747TIP3   OH247731   0.847   3.589   2.383 -0.4185 -0.6618 -0.0249
 8747TIP3    H147732   0.827   3.605   2.291 -0.2701  0.4357  0.1198
 8747TIP3    H247733   0.762   3.576   2.424 -0.6155  0.5105 -0.0315
 8748TIP3   OH247734   1.705   0.916  15.639 -0.0131 -0.2762  0.4433
 8748TIP3    H147735   1.619   0.877  15.651  0.0718 -0.3895  0.6951
 8748TIP3    H247736   1.689   1.010  15.634 -0.6382 -0.4016 -3.4646
 8749TIP3   OH247737   0.499   4.794  16.786  0.2591 -0.7497  0.0783
 8749TIP3    H147738   0.541   4.863  16.735 -0.6766  0.0319  0.3419
 8749TIP3    H247739   0.500   4.826  16.876  0.4460 -1.4066  0.3221
 8750TIP3   OH247740   6.670   3.445   5.271  0.1505 -0.3330 -0.0952
 8750TIP3    H147741   6.575   3.437   5.271  0.2628 -3.7757 -2.0453
 8750TIP3    H247742   6.688   3.512   5.205 -0.9409 -0.6983 -0.8006
 8751TIP3   OH247743   0.688   1.507   4.374 -0.6218 -0.0328 -0.4548
 8751TIP3    H147744   0.642   1.585   4.342  0.2187  0.0307 -1.5739
 8751TIP3    H247745   0.640   1.481   4.452 -1.9905  0.5759 -1.0589
 8752TIP3   OH247746   1.941   0.032  11.676 -0.2026 -0.1385  0.0844
 8752TIP3    H147747   2.016   0.032  11.735  0.3966 -2.8732 -0.5273
 8752TIP3    H247748   1.977   0.061  11.592 -0.6480  1.9301  0.5665
 8753TIP3   OH247749   3.746   5.098   0.791  0.2086 -0.0320 -0.3136
 8753TIP3    H147750   3.691   5.032   0.748 -3.2631  0.0398  3.4186
 8753TIP3    H247751   3.795   5.048   0.857 -0.7493  0.7306  1.0256
 8754TIP3   OH247752   3.160   2.474   3.041 -0.0200 -0.0450 -0.0071
 8754TIP3    H147753   3.207   2.530   2.980  0.2874 -0.1985  0.0906
 8754TIP3    H247754   3.187   2.385   3.019 -1.6538 -0.2930 -1.1599
 8755TIP3   OH247755   0.169   1.416   6.858  0.1981  0.1287 -0.1740
 8755TIP3    H147756   0.123   1.347   6.905 -1.6658  1.7439  0.5155
 8755TIP3    H247757   0.114   1.435   6.782  0.9820  0.4732 -0.6782
 8756TIP3   OH247758   0.395   2.667   5.616 -0.1855 -0.6494  0.1487
 8756TIP3    H147759   0.345   2.626   5.546  0.8569  0.4656 -1.3243
 8756TIP3    H247760   0.416   2.754   5.582  3.1480 -1.2243  0.4319
 8757TIP3   OH247761   3.707   1.541  16.795 -0.4360 -0.3646  0.8233
 8757TIP3    H147762   3.692   1.478  16.726 -0.5110  0.6363 -0.1019
 8757TIP3    H247763   3.637   1.524  16.859  0.8595 -2.6739  1.7362
 8758TIP3   OH247764   2.416   3.478   4.149 -0.5758  0.1187  0.4642
 8758TIP3    H147765   2.395   3.387   4.169  0.0673  0.0131  0.6913
 8758TIP3    H247766   2.409   3.484   4.054 -0.2874 -0.2644  0.4128
 8759TIP3   OH247767   6.718   2.279   4.619  0.5446  0.5132 -0.0023
 8759TIP3    H147768   6.684   2.339   4.554  1.0066  0.4541 -0.3046
 8759TIP3    H247769   6.784   2.329   4.666  0.2882  0.5227  0.3499
 8760TIP3   OH247770   0.590   6.737  14.075  0.4736  0.4553 -0.6037
 8760TIP3    H147771   0.622   6.717  14.162 -0.0911  0.9994 -0.2612
 8760TIP3    H247772   0.609   6.830  14.063  0.7293  0.3397 -1.1455
 8761TIP3   OH247773   5.204   2.666   1.055  0.5896  0.3902 -0.3619
 8761TIP3    H147774   5.176   2.623   0.974 -1.0395  0.5184  0.0930
 8761TIP3    H247775   5.190   2.759   1.039 -4.0123  0.2822  1.3925
 8762TIP3   OH247776   0.091   4.982  15.251 -0.0129  0.3231  0.5245
 8762TIP3    H147777   0.078   4.892  15.221  0.9761  0.1312  0.6368
 8762TIP3    H247778   0.003   5.011  15.276 -0.1705 -1.0428  1.6964
 8763TIP3   OH247779   6.196   6.656  10.489  0.5223 -0.5605  0.2279
 8763TIP3    H147780   6.193   6.743  10.530  0.0083 -0.2277 -0.4816
 8763TIP3    H247781   6.285   6.650  10.454  0.1136  0.3527 -1.0625
 8764TIP3   OH247782   3.061   2.958   2.034  0.3253  0.2086  0.3479
 8764TIP3    H147783   3.016   3.029   2.080 -0.1315 -0.0886  0.3649
 8764TIP3    H247784   3.007   2.881   2.050  0.9317 -0.1931  0.5118
 8765TIP3   OH247785   3.690   2.308  14.877 -0.8359  0.1734  0.0759
 8765TIP3    H147786   3.742   2.229  14.859  0.6907  1.3827 -1.1004
 8765TIP3    H247787   3.605   2.291  14.838 -0.1690 -0.4679 -1.1358
 8766TIP3   OH247788   0.684   2.949   2.112 -0.2910  0.6455  0.0533
 8766TIP3    H147789   0.779   2.956   2.126  0.0676 -0.7775 -1.3889
 8766TIP3    H247790   0.663   3.021   2.053  0.2440 -0.0532 -1.0291
 8767TIP3   OH247791   0.858   4.201   4.343 -0.1166  0.6999 -0.5754
 8767TIP3    H147792   0.919   4.267   4.310 -0.3510  1.8700  1.1766
 8767TIP3    H247793   0.778   4.249   4.363 -0.5226 -0.2268  0.1480
 8768TIP3   OH247794   0.528   0.478  11.841 -0.5073  0.4989 -0.3274
 8768TIP3    H147795   0.504   0.390  11.815 -1.0602  0.1366  1.2787
 8768TIP3    H247796   0.458   0.506  11.900 -0.1096  1.8367 -0.4414
 8769TIP3   OH247797   2.144   0.851  17.000 -0.1388 -0.1206 -0.1461
 8769TIP3    H147798   2.177   0.811  16.919  1.0256 -0.1529  0.3209
 8769TIP3    H247799   2.050   0.839  16.996  0.0043 -1.0824 -0.9897
 8770TIP3   OH247800   2.574   3.165  17.485 -0.2242  0.0542 -0.9613
 8770TIP3    H147801   2.551   3.072  17.495  0.0424 -0.1367 -2.0717
 8770TIP3    H247802   2.503   3.211  17.530 -0.5777 -0.6699 -0.7551
 8771TIP3   OH247803   1.270   1.675   3.938  0.0432  0.2330  0.5093
 8771TIP3    H147804   1.283   1.714   3.852  0.2641 -0.2888  0.3034
 8771TIP3    H247805   1.296   1.583   3.928 -0.2569  0.0802  1.0397
 8772TIP3   OH247806   5.218   5.304  17.341 -0.2641 -0.1563  0.6872
 8772TIP3    H147807   5.199   5.332  17.252  0.9950 -1.7260 -0.1146
 8772TIP3    H247808   5.217   5.208  17.338 -4.6498 -0.5111  3.3511
 8773TIP3   OH247809   2.072   3.499   4.072 -0.0704  0.2959  0.1960
 8773TIP3    H147810   1.988   3.507   4.027  0.8692  1.4727 -1.4451
 8773TIP3    H247811   2.128   3.452   4.011  1.8615  3.7651 -0.9019
 8774TIP3   OH247812   4.062   2.056  17.329 -0.8125  0.7273 -0.3402
 8774TIP3    H147813   4.014   2.008  17.397 -0.7275  1.0703 -0.0357
 8774TIP3    H247814   4.153   2.029  17.341 -0.9610 -0.1514 -1.1112
 8775TIP3   OH247815   3.072   4.164   6.046  0.2322 -0.3236 -0.2444
 8775TIP3    H147816   2.978   4.153   6.028  0.6176 -1.4387 -1.7705
 8775TIP3    H247817   3.084   4.128   6.134 -0.8144  0.0900  0.0804
 8776TIP3   OH247818   6.762   6.136  14.763 -0.0245  0.0354  0.4004
 8776TIP3    H147819   6.716   6.160  14.683  0.1530  0.2709  0.3688
 8776TIP3    H247820   6.841   6.189  14.763 -0.2665  0.4114  0.9876
 8777TIP3   OH247821   1.028   6.441   2.657  0.1996  0.1089  0.0503
 8777TIP3    H147822   1.117   6.467   2.631  0.6036 -0.9561  0.2890
 8777TIP3    H247823   1.006   6.369   2.598 -1.4605  1.8349 -1.5574
 8778TIP3   OH247824   5.817   1.156   4.925 -1.0946 -0.1739  0.2812
 8778TIP3    H147825   5.894   1.147   4.982 -1.8339 -2.5416  0.9972
 8778TIP3    H247826   5.747   1.185   4.984 -1.1967  0.1819 -0.0115
 8779TIP3   OH247827   0.059   1.353  11.985  0.5647 -0.0605 -0.1663
 8779TIP3    H147828   0.012   1.352  12.069  1.9874  1.4723  0.6818
 8779TIP3    H247829   0.126   1.420  11.995  1.5641 -0.6998 -2.1188
 8780TIP3   OH247830   5.483   4.310   2.457  0.0820 -0.4584  0.1800
 8780TIP3    H147831   5.444   4.301   2.544 -0.1030 -1.2648  0.0218
 8780TIP3    H247832   5.577   4.297   2.470  0.2697  1.0137  0.4894
 8781TIP3   OH247833   0.236   2.909  16.164 -0.0731  0.0936 -0.0255
 8781TIP3    H147834   0.148   2.920  16.126 -0.2405 -0.4991  0.1834
 8781TIP3    H247835   0.233   2.961  16.245 -0.4408 -0.4303  0.3031
 8782TIP3   OH247836   5.944   0.986   0.872  0.7509  0.3583 -0.0111
 8782TIP3    H147837   6.015   1.010   0.933 -0.1498  2.6425  0.2321
 8782TIP3    H247838   5.948   1.053   0.804 -0.0769 -0.5172 -0.9440
 8783TIP3   OH247839   3.963   0.658  15.859 -0.7128  0.4394 -0.6579
 8783TIP3    H147840   3.976   0.588  15.796 -0.6057 -0.8923  0.7758
 8783TIP3    H247841   4.042   0.713  15.851 -0.8086  0.4167 -1.8057
 8784TIP3   OH247842   3.820   2.243  16.117  0.0399  0.1143  0.0409
 8784TIP3    H147843   3.778   2.161  16.140  2.4899 -0.8258  1.5643
 8784TIP3    H247844   3.875   2.264  16.193  1.6510  1.6676 -1.4544
 8785TIP3   OH247845   3.864   3.195   3.208  0.6612  0.3088 -0.6836
 8785TIP3    H147846   3.807   3.265   3.175  0.4507 -0.0534 -1.0974
 8785TIP3    H247847   3.940   3.196   3.150  1.4033  1.2330  0.2735
 8786TIP3   OH247848   3.252   2.823  14.467  0.0647 -0.8242 -0.4128
 8786TIP3    H147849   3.180   2.804  14.526 -1.2423  0.2740 -1.5693
 8786TIP3    H247850   3.308   2.746  14.471 -0.2122 -0.9735  1.8602
 8787TIP3   OH247851   4.376   3.965  11.785 -0.6201  0.1396 -0.2356
 8787TIP3    H147852   4.396   3.960  11.691 -2.8295  0.5848 -0.7834
 8787TIP3    H247853   4.431   4.037  11.816  0.4469 -0.2711 -1.0799
 8788TIP3   OH247854   4.617   2.005  12.687 -0.4185  0.0425  0.4215
 8788TIP3    H147855   4.631   1.922  12.732 -1.8876  0.2568  1.3135
 8788TIP3    H247856   4.522   2.017  12.685 -0.2292  2.1367  1.1474
 8789TIP3   OH247857   5.466   5.526  11.695 -0.0524  0.0052 -0.2651
 8789TIP3    H147858   5.542   5.544  11.750  0.9655 -0.0176 -1.6149
 8789TIP3    H247859   5.474   5.589  11.623  0.0051 -1.5203 -1.6545
 8790TIP3   OH247860   0.412   2.418   2.016 -0.1940  0.0100  0.4158
 8790TIP3    H147861   0.408   2.328   1.982  1.6544 -0.1722  0.5889
 8790TIP3    H247862   0.500   2.447   1.996 -0.6471  1.6708  0.7213
 8791TIP3   OH247863   2.499   4.467  11.821 -0.0519 -0.0695  0.0175
 8791TIP3    H147864   2.486   4.558  11.850 -0.8728 -0.2134  0.1168
 8791TIP3    H247865   2.427   4.450  11.761 -0.4039 -0.9278  0.6550
 8792TIP3   OH247866   3.817   2.217   2.814 -0.0923 -0.1084  0.3313
 8792TIP3    H147867   3.757   2.145   2.837  1.1975 -1.2788  0.1630
 8792TIP3    H247868   3.898   2.196   2.859  0.0408  1.7723  1.0329
 8793TIP3   OH247869   2.050   3.528   6.084  0.1987 -0.1003  0.8571
 8793TIP3    H147870   2.060   3.602   6.025 -0.8927 -0.4252  0.2295
 8793TIP3    H247871   1.991   3.468   6.037 -0.5968 -0.4197  2.2314
 8794TIP3   OH247872   5.705   2.902   4.215  0.0664 -0.0145  0.2063
 8794TIP3    H147873   5.768   2.970   4.240  0.9867 -1.1073  1.0149
 8794TIP3    H247874   5.706   2.841   4.289 -2.4660  0.2566  0.5499
 8795TIP3   OH247875   6.422   6.319   2.514 -0.0471 -0.6416 -0.0624
 8795TIP3    H147876   6.468   6.262   2.576 -0.1171 -0.0347  0.5554
 8795TIP3    H247877   6.480   6.324   2.438  0.2847 -0.9552  0.1682
 8796TIP3   OH247878   6.679   3.060   3.578  0.0299 -0.3199  0.1934
 8796TIP3    H147879   6.712   3.135   3.629 -0.1540 -1.1705  1.6161
 8796TIP3    H247880   6.591   3.046   3.612 -0.8316  0.2085 -1.6646
 8797TIP3   OH247881   4.561   5.710   1.778  0.4468 -0.2190 -0.1619
 8797TIP3    H147882   4.508   5.636   1.750 -1.5881  1.8609 -2.3621
 8797TIP3    H247883   4.537   5.725   1.869 -0.9658 -0.8076 -0.4169
 8798TIP3   OH247884   2.318   1.229  12.526 -0.1735  0.6921  0.3526
 8798TIP3    H147885   2.343   1.162  12.589  2.0368 -1.0083 -2.0897
 8798TIP3    H247886   2.361   1.203  12.445 -2.7762  2.7546 -1.9032
 8799TIP3   OH247887   2.346   1.542   2.041 -0.0800  0.1930 -0.0777
 8799TIP3    H147888   2.419   1.519   2.099 -0.1437 -0.2489 -0.1733
 8799TIP3    H247889   2.338   1.468   1.981  1.3783  1.5472 -2.0648
 8800TIP3   OH247890   3.559   3.542   5.829 -0.2101 -0.3148  0.5421
 8800TIP3    H147891   3.468   3.512   5.838 -0.3645  0.3643  1.3201
 8800TIP3    H247892   3.570   3.555   5.734 -1.6750  1.8592  0.5946
 8801TIP3   OH247893   5.128   3.950   1.689  0.0419 -0.4810 -0.4939
 8801TIP3    H147894   5.040   3.954   1.725 -0.1072 -2.5380 -0.5124
 8801TIP3    H247895   5.185   3.956   1.766 -0.0408  1.5601 -0.5394
 8802TIP3   OH247896   1.313   4.080  15.364  0.6462  0.5666  0.2882
 8802TIP3    H147897   1.273   4.036  15.439  1.4090  0.8879  0.8946
 8802TIP3    H247898   1.293   4.173  15.377  1.2301  0.6796  0.3664
 8803TIP3   OH247899   0.402   2.771  13.537 -0.1943 -0.0490  0.0219
 8803TIP3    H147900   0.480   2.738  13.491 -0.6827 -0.1654 -0.7569
 8803TIP3    H247901   0.341   2.791  13.466 -0.6681  0.5712  0.6015
 8804TIP3   OH247902   1.596   3.485   5.329 -0.4544  0.1801  0.0323
 8804TIP3    H147903   1.553   3.476   5.414 -0.5973  0.9726  0.0457
 8804TIP3    H247904   1.527   3.464   5.266 -0.4026 -0.2074  0.0990
 8805TIP3   OH247905   2.904   0.749   1.613 -0.0179 -0.1375  0.2340
 8805TIP3    H147906   2.927   0.836   1.644  0.0224 -0.0128 -0.1349
 8805TIP3    H247907   2.989   0.706   1.598 -0.0395 -0.4257  0.9201
 8806TIP3   OH247908   6.487   2.377   6.324 -0.2487  0.3864  0.0436
 8806TIP3    H147909   6.398   2.409   6.342 -0.6852 -0.4369 -0.5443
 8806TIP3    H247910   6.543   2.427   6.383 -0.9751  1.6731 -0.3154
 8807TIP3   OH247911   0.835   0.300   1.253 -0.4530  0.4648 -0.3305
 8807TIP3    H147912   0.870   0.236   1.191  1.0887  0.5645  0.3824
 8807TIP3    H247913   0.752   0.261   1.283  0.5931 -1.4001  0.3273
 8808TIP3   OH247914   2.715   2.973   6.537 -0.3820  0.0535  0.4498
 8808TIP3    H147915   2.725   2.973   6.632 -0.7116 -0.0439  0.4882
 8808TIP3    H247916   2.718   3.066   6.512 -1.3868  0.1694  0.6890
 8809TIP3   OH247917   6.194   3.942   3.942 -0.1605  0.4483  0.4561
 8809TIP3    H147918   6.263   3.879   3.923 -1.5063 -1.3849  1.2688
 8809TIP3    H247919   6.221   3.985   4.022  0.3120  0.1513  0.4570
 8810TIP3   OH247920   0.915   6.323  17.503  1.2821 -0.4079 -0.0728
 8810TIP3    H147921   0.844   6.279  17.550  0.1834  0.2665 -1.0449
 8810TIP3    H247922   0.935   6.265  17.430 -0.0379  0.5499 -1.2484
 8811TIP3   OH247923   4.875   0.017  16.357 -0.4445  0.0779  0.0042
 8811TIP3    H147924   4.831   0.101  16.348  0.8840  0.7322 -0.6249
 8811TIP3    H247925   4.936   0.029  16.430  3.2884  1.3599 -3.0296
 8812TIP3   OH247926   6.362   2.835  13.317  0.0843 -0.0041  0.4485
 8812TIP3    H147927   6.389   2.889  13.243 -0.2897  0.3795  0.5867
 8812TIP3    H247928   6.441   2.825  13.370 -0.3644  2.4813  1.7131
 8813TIP3   OH247929   1.771   1.778   5.652 -0.0983  0.3085  0.3181
 8813TIP3    H147930   1.818   1.859   5.629 -3.1618  2.5785  1.3346
 8813TIP3    H247931   1.785   1.769   5.746 -0.4927  0.1961  0.3669
 8814TIP3   OH247932   1.565   4.626   1.834 -0.4334 -0.1970  0.4672
 8814TIP3    H147933   1.545   4.635   1.741 -0.2465 -0.5061  0.3937
 8814TIP3    H247934   1.581   4.532   1.846  0.5360 -0.0248  0.6092
 8815TIP3   OH247935   2.464   2.804  16.296 -0.4473  0.0370 -0.3270
 8815TIP3    H147936   2.447   2.899  16.296 -1.3584 -0.0645  2.2099
 8815TIP3    H247937   2.556   2.796  16.320  1.1028  0.2883 -5.1051
 8816TIP3   OH247938   6.376   5.978   2.119 -0.6387  0.2514 -0.3963
 8816TIP3    H147939   6.302   5.954   2.174 -0.7864  0.6976 -0.3952
 8816TIP3    H247940   6.392   5.901   2.064  0.1757 -0.5990  0.9869
 8817TIP3   OH247941   3.849   4.763  12.725  0.1986 -0.1645  0.5880
 8817TIP3    H147942   3.933   4.769  12.680 -0.2401 -1.0992 -0.4359
 8817TIP3    H247943   3.810   4.850  12.716  0.3707 -0.1763 -0.3870
 8818TIP3   OH247944   0.778   4.982   3.580  0.0936  0.1489 -0.1070
 8818TIP3    H147945   0.721   4.976   3.503  0.6728  0.0688 -0.5339
 8818TIP3    H247946   0.858   5.023   3.547 -0.6655  2.6885  1.0104
 8819TIP3   OH247947   5.706   0.976   3.809  0.4808 -0.6146  0.3070
 8819TIP3    H147948   5.771   1.041   3.782 -0.3654 -0.1550 -0.6920
 8819TIP3    H247949   5.708   0.978   3.904  1.1760  0.1563  0.2818
 8820TIP3   OH247950   5.700   1.477   0.657 -0.6027 -0.5381 -0.0339
 8820TIP3    H147951   5.711   1.461   0.563 -1.7612 -0.2365 -0.2317
 8820TIP3    H247952   5.606   1.468   0.673 -0.7519  1.5889  0.6737
 8821TIP3   OH247953   2.020   1.126  14.641  0.0417  0.4004 -0.3215
 8821TIP3    H147954   2.101   1.129  14.589  1.2220  1.2183  1.4466
 8821TIP3    H247955   2.036   1.188  14.712 -0.4753 -2.3904  2.4468
 8822TIP3   OH247956   1.153   3.238   1.428  0.5137  0.9577 -0.1431
 8822TIP3    H147957   1.083   3.288   1.385 -0.8944 -0.0179  0.9169
 8822TIP3    H247958   1.116   3.150   1.438  2.5081 -0.0210 -0.9536
 8823TIP3   OH247959   5.805   2.026   5.048 -0.9429  0.1656 -0.1754
 8823TIP3    H147960   5.838   1.993   5.131  1.2391  0.7817 -0.7416
 8823TIP3    H247961   5.710   2.034   5.062 -1.3867 -4.2311  0.6371
 8824TIP3   OH247962   1.521   5.426  17.042  0.2087 -0.5284  0.4645
 8824TIP3    H147963   1.486   5.349  16.998  0.2033  0.1124 -0.7021
 8824TIP3    H247964   1.557   5.393  17.125 -0.2428 -1.6878  0.2085
 8825TIP3   OH247965   4.901   0.992  11.529 -0.2626 -0.1529  0.3713
 8825TIP3    H147966   4.838   0.957  11.466 -0.9547 -1.5248  1.7382
 8825TIP3    H247967   4.874   1.082  11.544 -0.7442 -0.1537 -0.4644
 8826TIP3   OH247968   1.138   6.661   4.602  0.1144  0.2623 -0.0887
 8826TIP3    H147969   1.088   6.738   4.630 -0.5454 -0.2533  0.1918
 8826TIP3    H247970   1.175   6.626   4.683  0.5647  0.3844 -0.2391
 8827TIP3   OH247971   1.341   0.392  13.936  0.2529  0.6172 -0.2102
 8827TIP3    H147972   1.277   0.337  13.981  0.3921 -0.1869 -0.9922
 8827TIP3    H247973   1.346   0.471  13.991  2.3001 -1.3172  2.6407
 8828TIP3   OH247974   0.263   3.801   2.552 -0.0155  0.4727  0.3807
 8828TIP3    H147975   0.340   3.788   2.608  0.9696  0.5203 -0.9195
 8828TIP3    H247976   0.189   3.794   2.612  0.9311 -0.9065  1.4545
 8829TIP3   OH247977   0.481   6.422  17.194 -0.1222  0.3693  0.1060
 8829TIP3    H147978   0.490   6.398  17.102 -1.0650 -1.7710  0.5234
 8829TIP3    H247979   0.399   6.471  17.198  0.8344  2.1177 -0.4337
 8830TIP3   OH247980   0.095   5.850  12.666 -0.1012  0.5948 -0.4843
 8830TIP3    H147981   0.091   5.777  12.728  1.1157  0.5994 -0.3831
 8830TIP3    H247982   0.103   5.808  12.580 -1.0032  0.6002 -0.5814
 8831TIP3   OH247983   5.378   1.907   5.388 -0.3716  0.2628  0.2953
 8831TIP3    H147984   5.318   1.840   5.420 -0.3029  0.6289  1.2266
 8831TIP3    H247985   5.373   1.977   5.454 -2.5909  2.4598 -1.9815
 8832TIP3   OH247986   3.660   6.763   2.330  0.1324 -0.8924 -0.3698
 8832TIP3    H147987   3.627   6.674   2.342 -1.4292 -0.5214 -1.5795
 8832TIP3    H247988   3.639   6.785   2.239 -1.9230  1.6445  0.6051
 8833TIP3   OH247989   1.366   4.875  14.831 -0.5872  0.2496  0.1906
 8833TIP3    H147990   1.387   4.787  14.802 -1.8383  0.1049 -0.3544
 8833TIP3    H247991   1.376   4.930  14.753 -0.4538  0.4784  0.3655
 8834TIP3   OH247992   6.557   5.428  16.453 -0.0495  0.2908 -0.4204
 8834TIP3    H147993   6.559   5.523  16.439 -1.4632  0.1197 -2.0933
 8834TIP3    H247994   6.479   5.413  16.506 -0.4733 -0.0371 -1.1296
 8835TIP3   OH247995   3.281   6.244  14.015  0.7763 -0.0635 -0.6776
 8835TIP3    H147996   3.234   6.326  14.029 -1.7356 -1.5836  0.3343
 8835TIP3    H247997   3.282   6.234  13.920  1.4959  1.2780 -0.8497
 8836TIP3   OH247998   1.235   2.559   6.671 -0.2390  0.1650 -0.0033
 8836TIP3    H147999   1.144   2.533   6.685 -0.3798  0.2989 -0.6301
 8836TIP3    H248000   1.285   2.479   6.681 -0.2929  0.2763  1.4447
 8837TIP3   OH248001   0.789   4.071  10.519 -0.5477 -0.5805 -0.0944
 8837TIP3    H148002   0.740   4.147  10.489 -1.8627 -1.0360  0.7882
 8837TIP3    H248003   0.850   4.105  10.585  0.6604  0.0479 -1.4757
 8838TIP3   OH248004   5.495   5.379   0.929  0.4671  0.1308  0.3171
 8838TIP3    H148005   5.448   5.330   0.997 -0.5214 -0.7923 -0.9697
 8838TIP3    H248006   5.513   5.464   0.969 -0.3152 -0.2912  1.6407
 8839TIP3   OH248007   3.783   1.696  14.858 -0.2722 -0.1158 -0.0073
 8839TIP3    H148008   3.789   1.747  14.938 -0.7363  1.4955 -0.9491
 8839TIP3    H248009   3.842   1.741  14.797 -0.8920 -0.5474 -0.9422
 8840TIP3   OH248010   1.405   0.037   1.098  0.3386  0.0367  0.1221
 8840TIP3    H148011   1.388   0.103   1.031  0.4793 -0.2316 -0.1817
 8840TIP3    H248012   1.458  -0.029   1.053  0.0056 -0.3974  0.3569
 8841TIP3   OH248013   5.296   3.718   1.425 -0.6723  0.3933 -0.3229
 8841TIP3    H148014   5.303   3.805   1.387  0.2595 -0.0876 -1.3021
 8841TIP3    H248015   5.379   3.705   1.471 -0.6621 -0.1086 -0.4769
 8842TIP3   OH248016   3.951   5.094   5.474  0.8324  0.3229  0.1921
 8842TIP3    H148017   3.931   5.183   5.448 -0.3434  0.3823  1.2034
 8842TIP3    H248018   3.867   5.048   5.471  1.3216 -0.6055  0.2333
 8843TIP3   OH248019   1.575   5.679   1.846 -0.6567  0.4262 -0.0255
 8843TIP3    H148020   1.534   5.747   1.793 -1.8825  0.2698  0.6766
 8843TIP3    H248021   1.518   5.603   1.835  0.4501 -0.3656 -0.4396
 8844TIP3   OH248022   6.359   6.721   0.109  0.3450  0.2521 -0.5691
 8844TIP3    H148023   6.318   6.798   0.147 -0.2630 -1.1966  1.9815
 8844TIP3    H248024   6.437   6.707   0.163  1.2241 -0.1487 -1.8909
 8845TIP3   OH248025   3.574   3.977   2.702  0.4922  0.5836  0.7891
 8845TIP3    H148026   3.656   4.009   2.667 -1.1265  2.9157 -1.2303
 8845TIP3    H248027   3.558   4.033   2.779  0.0910  1.2067  0.2633
 8846TIP3   OH248028   3.344   4.353   6.161 -0.1365  0.3528 -0.0190
 8846TIP3    H148029   3.322   4.265   6.190  1.2586 -0.8727 -2.3814
 8846TIP3    H248030   3.419   4.378   6.215 -0.5822  0.1435  0.7111
 8847TIP3   OH248031   1.767   1.406  13.456 -0.0718  0.2140 -0.0766
 8847TIP3    H148032   1.836   1.362  13.506  0.7711  1.8655  0.3022
 8847TIP3    H248033   1.814   1.454  13.388 -0.9480  0.5679 -0.4421
 8848TIP3   OH248034   4.180   2.556   4.843  0.5487  0.5104 -0.1558
 8848TIP3    H148035   4.138   2.640   4.862  1.6483  0.9033  0.6034
 8848TIP3    H248036   4.212   2.565   4.754  1.6900  1.3480  0.3234
 8849TIP3   OH248037   0.137   6.152  13.480  0.3326 -0.4006 -0.1277
 8849TIP3    H148038   0.058   6.185  13.436  0.5159  0.8235  0.3956
 8849TIP3    H248039   0.136   6.196  13.565  0.4290 -2.0683  0.7759
 8850TIP3   OH248040   5.950   5.563  16.296 -0.2372  0.1291  0.3998
 8850TIP3    H148041   5.871   5.606  16.329 -0.2875  0.9169 -0.7288
 8850TIP3    H248042   6.016   5.632  16.291 -0.0584 -0.1056 -0.5905
 8851TIP3   OH248043   0.818   6.653   4.594 -0.2827 -0.0396 -0.1338
 8851TIP3    H148044   0.744   6.673   4.536 -0.1311 -1.6219 -0.9461
 8851TIP3    H248045   0.895   6.686   4.548 -0.1644 -1.2777 -0.8715
 8852TIP3   OH248046   5.364   2.989  10.813  0.2755 -0.1703 -0.5890
 8852TIP3    H148047   5.412   2.910  10.787  0.7114  0.4936 -1.8672
 8852TIP3    H248048   5.288   2.991  10.754 -0.3492 -0.2358  0.2008
 8853TIP3   OH248049   6.096   0.943  14.771 -0.0674  0.6196 -0.2419
 8853TIP3    H148050   6.150   0.867  14.793 -1.0709 -0.3130 -0.8913
 8853TIP3    H248051   6.048   0.964  14.851 -0.6765 -0.2016 -0.3808
 8854TIP3   OH248052   4.519   4.884   4.099 -0.2178  0.0457 -0.5314
 8854TIP3    H148053   4.432   4.888   4.138 -1.1239  1.9152 -2.5453
 8854TIP3    H248054   4.504   4.895   4.005  2.0701 -1.4479 -1.1603
 8855TIP3   OH248055   6.732   6.388   3.386  0.1796  0.6528 -0.2739
 8855TIP3    H148056   6.801   6.333   3.348 -0.5753  1.0720 -2.3271
 8855TIP3    H248057   6.663   6.390   3.320 -1.1908  1.4667  1.1185
 8856TIP3   OH248058   2.559   6.738   2.318 -0.2465 -0.0832 -0.4691
 8856TIP3    H148059   2.598   6.711   2.235  1.2627 -0.0125  0.1786
 8856TIP3    H248060   2.542   6.832   2.308 -0.5704 -0.1829 -0.8751
 8857TIP3   OH248061   3.716   4.408   3.661 -0.3834  0.1839 -0.1011
 8857TIP3    H148062   3.756   4.403   3.574  0.1247  1.5277  0.0338
 8857TIP3    H248063   3.789   4.394   3.721 -0.5941  0.0237  0.1155
 8858TIP3   OH248064   4.951   6.006  13.669 -0.4221 -0.4103  0.4349
 8858TIP3    H148065   4.876   5.947  13.664 -1.4466  0.6142  2.2897
 8858TIP3    H248066   4.922   6.085  13.624 -0.2226 -0.2494  0.5868
 8859TIP3   OH248067   5.406   2.100  15.861 -0.2165  0.0570 -0.0010
 8859TIP3    H148068   5.388   2.193  15.850 -0.0183  0.2751  1.3510
 8859TIP3    H248069   5.321   2.061  15.879 -0.1797  0.1259  0.3312
 8860TIP3   OH248070   5.420   3.278  14.910 -0.0111  0.0146 -0.8910
 8860TIP3    H148071   5.440   3.249  14.821  0.8998  0.7197 -0.9381
 8860TIP3    H248072   5.393   3.370  14.900 -0.0737  0.0453 -0.4646
 8861TIP3   OH248073   2.717   2.594   3.903  0.0649 -0.6283  0.1164
 8861TIP3    H148074   2.797   2.640   3.926 -0.3652  1.3180 -1.9279
 8861TIP3    H248075   2.718   2.590   3.807 -1.7017 -1.6540  0.0927
 8862TIP3   OH248076   1.277   4.736   0.863 -0.8016 -0.0240  0.2137
 8862TIP3    H148077   1.211   4.679   0.825  0.7342 -0.9606 -1.1341
 8862TIP3    H248078   1.356   4.683   0.867  0.2940  1.5491  0.3384
 8863TIP3   OH248079   1.409   4.922  13.329  0.3071 -0.2072 -0.2119
 8863TIP3    H148080   1.439   4.965  13.409 -0.7060 -0.4895  0.3306
 8863TIP3    H248081   1.385   4.833  13.357 -0.1892 -0.2620 -0.7917
 8864TIP3   OH248082   5.083   1.615   6.396  0.3181  0.0027  0.0536
 8864TIP3    H148083   5.046   1.651   6.476 -1.3911  3.1873 -1.9870
 8864TIP3    H248084   5.170   1.654   6.389  0.9389 -1.1735  0.8407
 8865TIP3   OH248085   3.100   0.262   5.994 -0.4121  0.0192 -0.3170
 8865TIP3    H148086   3.023   0.286   6.047 -1.3588 -0.6047 -1.3611
 8865TIP3    H248087   3.063   0.218   5.917  1.0507 -1.0710 -0.4338
 8866TIP3   OH248088   3.565   5.390   2.359  0.8936  0.0479  0.2570
 8866TIP3    H148089   3.625   5.442   2.305  0.5927  0.1083 -0.0259
 8866TIP3    H248090   3.622   5.335   2.413  1.2070 -1.0413 -1.1150
 8867TIP3   OH248091   5.603   0.139   5.822 -0.6977  0.2904  0.3274
 8867TIP3    H148092   5.693   0.112   5.839 -0.8954  0.1942  1.2725
 8867TIP3    H248093   5.608   0.191   5.742  0.0562 -0.4988 -0.1564
 8868TIP3   OH248094   0.146   2.497   5.864 -0.1710 -0.1702  0.8377
 8868TIP3    H148095   0.109   2.492   5.776 -3.0471  0.0490  1.9198
 8868TIP3    H248096   0.145   2.407   5.896  0.6665 -0.2205  0.7357
 8869TIP3   OH248097   6.226   4.808   1.829 -0.1833  1.0103  0.2141
 8869TIP3    H148098   6.249   4.728   1.782 -1.4634 -0.7587  2.4265
 8869TIP3    H248099   6.309   4.854   1.840  0.9243 -0.9489  0.5337
 8870TIP3   OH248100   2.251   5.701  12.075  0.5854 -0.3572  0.0666
 8870TIP3    H148101   2.165   5.681  12.111 -1.4816  1.3118 -3.4286
 8870TIP3    H248102   2.280   5.777  12.124 -1.2257  0.6945 -0.3990
 8871TIP3   OH248103   4.281   6.148  16.724 -0.0694 -0.0725 -0.1421
 8871TIP3    H148104   4.323   6.093  16.790  0.2685  1.2102  0.7582
 8871TIP3    H248105   4.288   6.237  16.759 -0.0617  0.6267 -1.8316
 8872TIP3   OH248106   4.854   5.752   4.770 -0.3327  0.1206  0.0133
 8872TIP3    H148107   4.780   5.736   4.711 -0.9291  0.1032  0.7594
 8872TIP3    H248108   4.900   5.668   4.774 -1.2474 -0.3467  0.8840
 8873TIP3   OH248109   5.419   1.262   3.384 -0.5879 -0.0684 -0.7984
 8873TIP3    H148110   5.396   1.283   3.475 -0.3389 -0.7578 -0.5701
 8873TIP3    H248111   5.421   1.347   3.340 -4.0291  0.1062 -0.9547
 8874TIP3   OH248112   1.847   1.562   4.631  0.0166  0.2772 -0.2057
 8874TIP3    H148113   1.877   1.471   4.637  1.6828  0.7521 -0.5675
 8874TIP3    H248114   1.754   1.556   4.611  0.3405 -1.3781 -1.5025
 8875TIP3   OH248115   4.672   5.378  10.809 -0.5095 -0.4216 -0.0425
 8875TIP3    H148116   4.604   5.414  10.751 -0.4405  0.1877  0.2408
 8875TIP3    H248117   4.740   5.346  10.749 -1.3469 -1.6694 -0.3476
 8876TIP3   OH248118   5.408   2.693   3.565  0.3769  0.7741 -0.0931
 8876TIP3    H148119   5.498   2.726   3.560  0.9214 -0.3812  1.4026
 8876TIP3    H248120   5.417   2.598   3.564 -0.7709  0.6312  0.7825
 8877TIP3   OH248121   2.633   2.433  14.010 -0.7107  0.4397  0.2140
 8877TIP3    H148122   2.715   2.460  13.969  0.9186  0.3360  3.1157
 8877TIP3    H248123   2.588   2.516  14.029 -0.6364  0.5641 -0.1410
 8878TIP3   OH248124   1.449   0.354  11.659 -0.0381 -0.1906  0.6111
 8878TIP3    H148125   1.465   0.443  11.690 -2.6825  0.9302 -0.8969
 8878TIP3    H248126   1.384   0.319  11.720  1.3796 -1.3504  1.5156
 8879TIP3   OH248127   3.657   6.080  14.482 -0.0867  0.3863 -0.3697
 8879TIP3    H148128   3.734   6.036  14.517  0.9218  0.3915 -2.4468
 8879TIP3    H248129   3.584   6.021  14.502  0.3660  0.4630  1.7859
 8880TIP3   OH248130   5.408   4.025  12.762 -0.3205  0.0354  0.2388
 8880TIP3    H148131   5.500   4.038  12.786 -0.7227 -0.4360  2.1781
 8880TIP3    H248132   5.410   3.953  12.698  0.5918 -0.5633  0.9136
 8881TIP3   OH248133   3.531   2.039  13.551 -0.0029  0.0286 -0.5172
 8881TIP3    H148134   3.604   2.075  13.501 -0.4791  1.7789  0.0048
 8881TIP3    H248135   3.531   2.087  13.634 -0.1100 -1.8227  0.6365
 8882TIP3   OH248136   4.368   3.061  11.451 -0.4365  0.4890  0.5865
 8882TIP3    H148137   4.361   3.114  11.531  0.2697  0.5916  0.5890
 8882TIP3    H248138   4.380   3.125  11.381  0.1162  0.3466  0.5489
 8883TIP3   OH248139   3.557   1.338  14.838  0.7425  0.2513 -0.1053
 8883TIP3    H148140   3.643   1.357  14.876 -0.5878  3.2502  1.7169
 8883TIP3    H248141   3.547   1.400  14.766 -0.9491  2.0986  1.5767
 8884TIP3   OH248142   4.999   2.478   2.762  0.0248  0.3286  0.4721
 8884TIP3    H148143   4.958   2.496   2.678 -1.2588  0.9121  1.1909
 8884TIP3    H248144   5.057   2.552   2.778 -2.3437  2.0728  1.6415
 8885TIP3   OH248145   0.555   2.105   6.963  0.4864  0.3036 -0.3131
 8885TIP3    H148146   0.589   2.123   7.051 -0.2366  0.2144 -0.0050
 8885TIP3    H248147   0.620   2.048   6.923  0.2016 -0.7491  0.6472
 8886TIP3   OH248148   2.581   2.495  13.676 -0.1711  0.6633  0.0148
 8886TIP3    H148149   2.650   2.451  13.628 -1.2845  0.0030 -1.0375
 8886TIP3    H248150   2.581   2.453  13.762 -0.7970 -0.9950 -0.7604
 8887TIP3   OH248151   2.510   0.177  11.854  0.1290  0.9029 -0.3627
 8887TIP3    H148152   2.437   0.237  11.846  0.4716  1.3318 -0.3064
 8887TIP3    H248153   2.496   0.112  11.785 -1.2617 -0.0600  0.7738
 8888TIP3   OH248154   2.986   0.924  11.520 -1.1625  0.1687 -0.3336
 8888TIP3    H148155   2.967   0.843  11.567 -0.0041  1.2769  2.2684
 8888TIP3    H248156   2.903   0.972  11.520 -1.2915 -0.0443  0.2043
 8889TIP3   OH248157   1.464   3.744  17.084  0.5050  0.1790  0.1642
 8889TIP3    H148158   1.504   3.675  17.138  2.4524  0.3285 -0.9995
 8889TIP3    H248159   1.413   3.696  17.019  1.1188 -0.1472 -0.0860
 8890TIP3   OH248160   1.080   2.319  10.656 -0.2303  0.4054 -0.7644
 8890TIP3    H148161   1.168   2.282  10.645  0.4450  1.3483  1.0194
 8890TIP3    H248162   1.091   2.413  10.641 -1.1719  0.3989 -1.5887
 8891TIP3   OH248163   2.433   4.624  13.187  0.6163  0.3857 -0.8499
 8891TIP3    H148164   2.484   4.566  13.131 -0.1553 -0.3052 -0.8684
 8891TIP3    H248165   2.433   4.581  13.272 -1.1119 -0.4135 -1.1960
 8892TIP3   OH248166   4.546   0.293   2.770 -0.1441  0.4434 -0.0659
 8892TIP3    H148167   4.461   0.327   2.744 -0.1273  2.4406  2.2085
 8892TIP3    H248168   4.561   0.327   2.858  2.3141 -1.1663  0.2662
 8893TIP3   OH248169   5.376   3.106  11.350 -0.5061  0.4101 -0.0326
 8893TIP3    H148170   5.371   3.174  11.417  1.2235  0.9170 -0.3749
 8893TIP3    H248171   5.419   3.148  11.275  0.9395 -1.1160 -0.1226
 8894TIP3   OH248172   1.493   5.222   1.690 -0.2573 -0.0941 -0.2256
 8894TIP3    H148173   1.466   5.189   1.776 -0.4724  0.1378 -0.2033
 8894TIP3    H248174   1.448   5.167   1.627 -0.7265  0.2420 -0.1887
 8895TIP3   OH248175   3.841   2.547  11.246  0.5383  0.4812  0.1877
 8895TIP3    H148176   3.846   2.642  11.260 -0.9778  0.6811 -0.3966
 8895TIP3    H248177   3.832   2.538  11.151 -1.8579 -0.0687  0.4030
 8896TIP3   OH248178   3.658   2.178   2.476  0.4544  0.4069  0.6728
 8896TIP3    H148179   3.602   2.178   2.554  0.8404  1.1517  0.9653
 8896TIP3    H248180   3.742   2.212   2.508  1.4360 -1.7170  0.4847
 8897TIP3   OH248181   0.080   2.739   1.483 -0.3340 -0.1715  0.6470
 8897TIP3    H148182   0.011   2.803   1.499 -1.2139 -0.3486 -2.0414
 8897TIP3    H248183   0.032   2.657   1.464  0.7392 -1.3694  2.7150
 8898TIP3   OH248184   6.596   3.100  15.225 -0.2251  0.3271 -0.2881
 8898TIP3    H148185   6.656   3.042  15.177 -0.7788 -0.4321 -0.0771
 8898TIP3    H248186   6.532   3.041  15.265 -0.5717  1.0602  0.2583
 8899TIP3   OH248187   1.305   6.511   6.939 -0.0997 -0.0049  0.0515
 8899TIP3    H148188   1.316   6.445   7.007 -1.5557 -0.4270 -0.0861
 8899TIP3    H248189   1.369   6.488   6.872 -0.1856 -0.9140  0.2772
 8900TIP3   OH248190   1.008   6.235   0.992  0.0421  0.8460  0.3983
 8900TIP3    H148191   0.991   6.296   1.064 -0.1456  0.2883  0.8392
 8900TIP3    H248192   0.969   6.277   0.915  0.8995  1.8004  0.4605
 8901TIP3   OH248193   2.839   1.105  12.116  0.5627  0.2508  0.7078
 8901TIP3    H148194   2.814   1.194  12.140 -1.4510  0.4066 -1.5693
 8901TIP3    H248195   2.872   1.112  12.027  0.2488 -1.2980  0.4385
 8902TIP3   OH248196   6.140   5.894  12.737  0.5379 -0.1544 -0.1923
 8902TIP3    H148197   6.197   5.822  12.711 -0.1894 -0.5700 -0.6706
 8902TIP3    H248198   6.056   5.874  12.697  0.7036  1.7431 -1.6588
 8903TIP3   OH248199   4.514   2.888   5.173 -0.1961  0.0991 -0.2305
 8903TIP3    H148200   4.577   2.821   5.200  0.8986  0.4204 -1.8765
 8903TIP3    H248201   4.564   2.968   5.167 -0.8950  0.4917 -1.0064
 8904TIP3   OH248202   0.598   2.183   2.109  0.1200 -0.1227 -0.3870
 8904TIP3    H148203   0.597   2.093   2.141 -2.1685 -0.5423 -1.4152
 8904TIP3    H248204   0.615   2.175   2.015  1.7229  0.6989 -0.2000
 8905TIP3   OH248205   2.694   5.529   4.575 -0.2643 -0.4227  0.6030
 8905TIP3    H148206   2.617   5.472   4.568  0.5768 -1.9083  2.5639
 8905TIP3    H248207   2.733   5.507   4.659  1.6613  1.1538  0.2065
 8906TIP3   OH248208   2.821   5.936   4.876 -0.2404  0.4459  0.3361
 8906TIP3    H148209   2.730   5.956   4.896  0.0421  1.6030  0.5308
 8906TIP3    H248210   2.858   5.905   4.959 -0.3984  0.1519  0.2996
 8907TIP3   OH248211   4.797   0.132  12.929 -0.3078 -0.2122 -0.1730
 8907TIP3    H148212   4.802   0.063  12.994 -0.6334 -2.1294 -2.0769
 8907TIP3    H248213   4.713   0.176  12.948  0.7623  1.0048  2.2126
 8908TIP3   OH248214   1.408   5.940  14.582  0.9807 -0.5317  0.6933
 8908TIP3    H148215   1.413   5.846  14.602  2.3866 -0.1524  2.3413
 8908TIP3    H248216   1.322   5.950  14.541  0.7624 -2.5192  0.5353
 8909TIP3   OH248217   3.478   0.576   1.986  0.3624 -0.3369  0.5997
 8909TIP3    H148218   3.510   0.662   1.958 -2.0902 -0.3316 -2.8957
 8909TIP3    H248219   3.549   0.515   1.964  0.1381  0.2575 -2.2281
 8910TIP3   OH248220   4.293   2.214  11.975 -0.7091 -0.0032  0.1079
 8910TIP3    H148221   4.339   2.267  12.040  0.2247  1.7306 -1.8249
 8910TIP3    H248222   4.245   2.148  12.026  0.6041  0.7432  2.4475
 8911TIP3   OH248223   3.973   2.820   0.022 -0.2409 -0.3597 -0.3527
 8911TIP3    H148224   3.956   2.833  -0.071  1.8029 -1.8520 -1.0279
 8911TIP3    H248225   3.920   2.744   0.046 -0.2412 -0.4079 -0.5061
 8912TIP3   OH248226   3.287   5.490  15.903  0.6370  0.1364  0.4353
 8912TIP3    H148227   3.381   5.495  15.923  0.6696  0.5751  0.1907
 8912TIP3    H248228   3.244   5.519  15.984  0.6474 -1.8356  1.1872
 8913TIP3   OH248229   4.715   2.244  13.425 -0.0447 -0.5218  0.1610
 8913TIP3    H148230   4.782   2.295  13.379  0.7029 -0.8093  0.9116
 8913TIP3    H248231   4.656   2.310  13.461  1.0237 -0.1256  1.2949
 8914TIP3   OH248232   0.742   1.276   5.761  0.0227  0.3584 -0.0995
 8914TIP3    H148233   0.662   1.289   5.709  1.3435  0.3769 -2.2277
 8914TIP3    H248234   0.798   1.350   5.737  1.1382 -0.2874  0.4578
 8915TIP3   OH248235   3.870   1.862  12.600  0.3536 -0.3544  0.5388
 8915TIP3    H148236   3.813   1.858  12.678  0.9671  0.0697  1.0218
 8915TIP3    H248237   3.864   1.953  12.572 -0.0301 -0.5567 -0.0449
 8916TIP3   OH248238   6.321   6.030   2.970  0.3015  0.0584  0.3750
 8916TIP3    H148239   6.261   5.991   3.034  2.1655 -1.3657  1.3694
 8916TIP3    H248240   6.395   6.063   3.023 -0.1933  3.1515 -0.6441
 8917TIP3   OH248241   5.099   2.144   3.451 -0.0154  0.4224  0.1750
 8917TIP3    H148242   5.079   2.051   3.451  2.0896 -0.0808  0.0218
 8917TIP3    H248243   5.015   2.187   3.433 -0.8678 -1.4597 -0.5817
 8918TIP3   OH248244   2.594   3.430  13.052  0.0827  0.0220  0.1343
 8918TIP3    H148245   2.683   3.462  13.063 -0.3044  1.0994  0.2553
 8918TIP3    H248246   2.599   3.371  12.977  1.1187 -0.8781  0.8752
 8919TIP3   OH248247   0.769   6.651   2.821  0.2543  0.3379  0.1338
 8919TIP3    H148248   0.788   6.593   2.895  2.3591  0.4712 -0.2413
 8919TIP3    H248249   0.833   6.721   2.829  1.2935 -0.2221 -2.3861
 8920TIP3   OH248250   0.392   6.479  12.902 -0.3041 -0.0139 -0.0727
 8920TIP3    H148251   0.402   6.532  12.981 -3.1704 -0.2091  0.5236
 8920TIP3    H248252   0.450   6.404  12.915  0.9048  1.0445  0.8091
 8921TIP3   OH248253   6.325   4.695   4.823 -0.2150 -0.7954  0.1537
 8921TIP3    H148254   6.343   4.619   4.878  0.0462 -1.3133 -0.6305
 8921TIP3    H248255   6.253   4.668   4.766  0.5655 -0.8371 -0.8404
 8922TIP3   OH248256   5.343   1.962   5.891  1.0980 -0.1192  0.3504
 8922TIP3    H148257   5.372   1.878   5.856  2.0755  0.8307 -1.2598
 8922TIP3    H248258   5.420   2.019   5.884  0.2507  1.1150  0.6976
 8923TIP3   OH248259   3.781   5.436   0.274  0.4896  0.1535 -0.2913
 8923TIP3    H148260   3.691   5.405   0.287  0.3525  1.2136  1.6716
 8923TIP3    H248261   3.781   5.474   0.186 -0.7931 -0.4483 -0.5746
 8924TIP3   OH248262   6.182   5.953   2.291  0.4353 -0.1425 -0.3864
 8924TIP3    H148263   6.091   5.969   2.314  0.5118 -2.1666  1.5513
 8924TIP3    H248264   6.232   6.012   2.347  0.3812  0.7019 -1.1908
 8925TIP3   OH248265   6.739   4.089  14.371  0.0237  0.0060  0.2972
 8925TIP3    H148266   6.761   4.165  14.317 -1.8725 -0.5557 -1.3950
 8925TIP3    H248267   6.677   4.123  14.436  0.5805  0.2348  0.7211
 8926TIP3   OH248268   5.028   2.673   6.432 -0.4656  0.0414 -0.3198
 8926TIP3    H148269   5.114   2.713   6.446 -0.8772  1.3778 -1.3699
 8926TIP3    H248270   5.026   2.599   6.492  1.5603 -0.2352 -0.5178
 8927TIP3   OH248271   5.702   0.784  13.395 -0.2546 -0.1382 -0.2777
 8927TIP3    H148272   5.627   0.742  13.437  0.1551 -0.8971 -0.2858
 8927TIP3    H248273   5.778   0.740  13.433  0.2673  1.5933  0.8225
 8928TIP3   OH248274   6.379   4.976   4.400  0.2608  0.4954 -0.7886
 8928TIP3    H148275   6.432   5.039   4.448 -0.8883  1.2867 -0.4968
 8928TIP3    H248276   6.322   4.938   4.467  0.2200 -0.0828 -1.1467
 8929TIP3   OH248277   4.276   3.039  17.056  0.1309  0.3884 -0.3537
 8929TIP3    H148278   4.353   2.985  17.037 -0.3616 -0.9638  1.2368
 8929TIP3    H248279   4.275   3.047  17.152 -2.0619 -0.2488 -0.2532
 8930TIP3   OH248280   3.580   3.216  15.623 -0.7979  0.3765 -0.0335
 8930TIP3    H148281   3.626   3.134  15.603 -1.0002 -0.2037  1.6701
 8930TIP3    H248282   3.487   3.193  15.620 -0.8393  0.2710  1.3565
 8931TIP3   OH248283   5.789   1.504   3.245  0.1035 -0.3045 -0.8313
 8931TIP3    H148284   5.750   1.592   3.251  0.5378 -0.1686  0.2263
 8931TIP3    H248285   5.724   1.452   3.199 -1.0753  0.0662  0.3624
 8932TIP3   OH248286   6.640   5.327  17.394  0.2536  0.2876  0.0163
 8932TIP3    H148287   6.615   5.419  17.391  1.6587  0.7114  0.4557
 8932TIP3    H248288   6.714   5.321  17.333 -1.1644 -1.0312 -1.6828
 8933TIP3   OH248289   6.547   3.196  12.297  0.3992  0.2755  0.0373
 8933TIP3    H148290   6.561   3.115  12.346 -0.0649  0.2005  0.0473
 8933TIP3    H248291   6.601   3.187  12.218  5.0805  2.3115  2.5422
 8934TIP3   OH248292   4.893   6.403   4.483  0.6357  0.6619 -0.2368
 8934TIP3    H148293   4.937   6.472   4.532 -1.7757  1.5065  0.9007
 8934TIP3    H248294   4.940   6.399   4.400  1.9516  2.4316  0.3576
 8935TIP3   OH248295   5.034   3.535   5.072  0.8492 -0.4011 -0.3535
 8935TIP3    H148296   5.056   3.519   4.981 -0.8553 -2.2460 -0.5158
 8935TIP3    H248297   5.079   3.466   5.121  2.2919  0.9599  0.3447
 8936TIP3   OH248298   5.094   2.805  12.754  0.4488  0.0717 -0.5811
 8936TIP3    H148299   5.039   2.861  12.699 -1.3249 -0.3660  0.6723
 8936TIP3    H248300   5.113   2.729  12.699 -1.3630 -0.3965 -0.6052
 8937TIP3   OH248301   5.270   6.015  14.177 -0.1900  0.1701  0.3143
 8937TIP3    H148302   5.249   6.093  14.126  2.8792  1.0227  0.1731
 8937TIP3    H248303   5.315   6.048  14.255  0.0254 -1.3885  0.8895
 8938TIP3   OH248304   5.328   0.642  14.874  0.0736 -0.5644 -0.3295
 8938TIP3    H148305   5.282   0.580  14.817  0.3819 -0.3757 -0.7983
 8938TIP3    H248306   5.354   0.590  14.950 -0.0632 -0.9021 -0.5097
 8939TIP3   OH248307   5.380   5.329   3.027  0.5035  0.3776  0.4218
 8939TIP3    H148308   5.296   5.368   3.002  0.2361 -0.1396  0.5112
 8939TIP3    H248309   5.368   5.235   3.015  0.8615  0.2450  1.0377
 8940TIP3   OH248310   3.695   4.016   3.764  0.2252 -0.0150  0.4935
 8940TIP3    H148311   3.749   3.941   3.787 -0.4696 -0.5230  0.5146
 8940TIP3    H248312   3.724   4.086   3.822  1.8406  0.1687 -0.4709
 8941TIP3   OH248313   0.788   6.048  12.845 -0.1472 -0.0261  0.0382
 8941TIP3    H148314   0.741   5.992  12.906  1.0216  0.6264  1.6044
 8941TIP3    H248315   0.742   6.132  12.850  0.2733  0.1816  0.4301
 8942TIP3   OH248316   3.048   5.231  10.524  0.0921 -0.3918  0.5566
 8942TIP3    H148317   3.086   5.147  10.497 -0.8953 -0.3720 -1.0018
 8942TIP3    H248318   3.121   5.293  10.519  0.4293 -0.8217 -0.0301
 8943TIP3   OH248319   5.242   4.673  15.378  0.0448 -0.5967  0.0193
 8943TIP3    H148320   5.216   4.680  15.470 -0.7991 -0.4365 -0.2237
 8943TIP3    H248321   5.253   4.763  15.348 -1.8984 -0.5412 -0.6356
 8944TIP3   OH248322   2.309   5.733  14.339 -0.3466  0.0304 -0.0322
 8944TIP3    H148323   2.331   5.656  14.287 -1.4362 -0.8337  0.7451
 8944TIP3    H248324   2.372   5.733  14.411  0.3143  0.4774 -0.5934
 8945TIP3   OH248325   3.155   1.597   1.430  0.0155  0.2230 -0.3661
 8945TIP3    H148326   3.189   1.545   1.357  1.5645 -0.0792  0.5202
 8945TIP3    H248327   3.071   1.556   1.452  0.9498 -1.6222 -0.0385
 8946TIP3   OH248328   0.483   3.729   2.698 -0.0352 -0.0464 -0.3535
 8946TIP3    H148329   0.511   3.808   2.744  0.1866  0.7348 -1.7610
 8946TIP3    H248330   0.516   3.657   2.752  0.6251  0.8250  0.4463
 8947TIP3   OH248331   1.844   2.681   4.872  0.3327  0.8419 -0.3798
 8947TIP3    H148332   1.765   2.723   4.907  0.3133  0.1813  0.3965
 8947TIP3    H248333   1.911   2.698   4.938  1.1745  2.4162 -1.5815
 8948TIP3   OH248334   4.656   3.652  13.070  0.5672  0.4291  0.4423
 8948TIP3    H148335   4.649   3.594  13.146  2.8711 -0.9085 -0.2683
 8948TIP3    H248336   4.736   3.702  13.085  0.3150  1.1355 -0.4742
 8949TIP3   OH248337   4.983   2.423  10.510 -0.2159  0.2442  0.3002
 8949TIP3    H148338   4.994   2.514  10.482 -1.0757  0.6941  1.3611
 8949TIP3    H248339   5.034   2.416  10.590 -0.1361 -0.2248  0.2137
 8950TIP3   OH248340   1.591   5.856   3.877 -0.1311 -0.4476  0.0657
 8950TIP3    H148341   1.630   5.939   3.848  0.4715 -0.6691  0.2218
 8950TIP3    H248342   1.564   5.872   3.967  0.8866 -0.7063  0.4333
 8951TIP3   OH248343   0.987   5.809   4.209  0.5905 -0.0540  0.0524
 8951TIP3    H148344   0.946   5.781   4.291  1.0261  0.0854  0.3206
 8951TIP3    H248345   1.081   5.811   4.228  0.7366 -0.4948 -0.5946
 8952TIP3   OH248346   2.762   2.428   3.293 -0.5214 -0.4172  0.0992
 8952TIP3    H148347   2.766   2.522   3.315 -1.7688 -0.1839 -0.5605
 8952TIP3    H248348   2.824   2.387   3.353 -0.9449  0.6773  1.3495
 8953TIP3   OH248349   3.435   0.938  16.213  0.1094 -0.6274 -0.5199
 8953TIP3    H148350   3.502   0.895  16.265  0.8907 -0.8108 -1.6282
 8953TIP3    H248351   3.460   0.920  16.122 -0.7412  0.3722 -0.9766
 8954TIP3   OH248352   0.098   0.200   5.420 -0.0728  0.4443  0.0190
 8954TIP3    H148353   0.071   0.277   5.469 -1.2906  3.3400 -4.5750
 8954TIP3    H248354   0.170   0.231   5.365 -2.1250 -0.7813 -3.7227
 8955TIP3   OH248355   5.636   6.218  12.654  0.2163 -0.1414  0.1373
 8955TIP3    H148356   5.707   6.214  12.718  1.1013  0.9685 -0.7304
 8955TIP3    H248357   5.623   6.312  12.638  1.3455 -0.3705 -2.6958
 8956TIP3   OH248358   0.407   0.325   2.062 -0.0860 -0.3987 -0.5089
 8956TIP3    H148359   0.469   0.349   2.131 -1.2362  0.5001  0.2623
 8956TIP3    H248360   0.370   0.242   2.091 -1.7907  0.7707  0.8956
 8957TIP3   OH248361   6.677   3.495  13.316 -0.8053 -0.2710 -0.4239
 8957TIP3    H148362   6.750   3.470  13.260  1.1051  1.3751  1.1700
 8957TIP3    H248363   6.640   3.572  13.274  0.2207  0.5827  0.1970
 8958TIP3   OH248364   2.914   4.675   6.790 -1.1218  0.0307  0.2513
 8958TIP3    H148365   2.989   4.616   6.776 -2.3688 -1.1268 -2.2013
 8958TIP3    H248366   2.850   4.621   6.836 -1.1394  0.4476  0.7172
 8959TIP3   OH248367   2.870   1.283   1.852  0.0805 -0.0047  0.7520
 8959TIP3    H148368   2.905   1.216   1.910  0.1108 -0.6411  0.0217
 8959TIP3    H248369   2.814   1.235   1.791  0.4895  0.5603 -0.1007
 8960TIP3   OH248370   4.493   2.387   1.973 -0.9852 -0.3961 -0.5531
 8960TIP3    H148371   4.474   2.478   1.951  0.7494 -0.2075 -1.3766
 8960TIP3    H248372   4.551   2.357   1.904  0.0106 -1.5436  0.7384
 8961TIP3   OH248373   0.065   5.924   3.849 -0.2981 -0.2600  0.4982
 8961TIP3    H148374  -0.017   5.954   3.889 -0.1889 -1.6479  1.8367
 8961TIP3    H248375   0.039   5.890   3.763 -1.1862 -0.9656  1.0306
 8962TIP3   OH248376   3.945   3.878  12.800  0.1124  0.1165  0.2654
 8962TIP3    H148377   4.020   3.860  12.744 -0.5044  0.1370 -0.5720
 8962TIP3    H248378   3.870   3.838  12.755 -0.5218  0.8085  0.6724
 8963TIP3   OH248379   0.565   0.635  12.774  0.0098  0.1801  0.4825
 8963TIP3    H148380   0.488   0.687  12.751  0.4324  0.3074 -0.6781
 8963TIP3    H248381   0.613   0.690  12.835 -0.1219  0.6804  0.1402
 8964TIP3   OH248382   1.092   0.248   4.175 -0.1543 -0.5134  0.1690
 8964TIP3    H148383   1.150   0.302   4.122 -0.7337 -0.4429 -0.4108
 8964TIP3    H248384   1.090   0.291   4.260  0.8234 -0.6518  0.2728
 8965TIP3   OH248385   3.757   4.393   5.434 -0.2666 -0.6782 -0.1882
 8965TIP3    H148386   3.828   4.329   5.432  1.5817  1.2642 -1.1326
 8965TIP3    H248387   3.715   4.384   5.348  1.6484  0.9787 -1.4151
 8966TIP3   OH248388   5.187   5.680  14.581  0.5778 -0.5746 -0.1931
 8966TIP3    H148389   5.092   5.680  14.573  0.7106 -1.6440 -2.7428
 8966TIP3    H248390   5.218   5.727  14.504  2.1297 -1.7820 -0.3711
 8967TIP3   OH248391   6.029   4.378   1.344 -0.7744 -0.1374 -0.6177
 8967TIP3    H148392   6.007   4.468   1.324 -0.1903  0.0544 -0.4170
 8967TIP3    H248393   6.006   4.367   1.436  1.2098  0.4795 -0.0055
 8968TIP3   OH248394   2.866   0.482   2.113  0.4572  0.0131 -0.7668
 8968TIP3    H148395   2.846   0.478   2.206 -0.2971 -0.1094 -0.9304
 8968TIP3    H248396   2.795   0.533   2.075  0.0325 -1.0542 -1.4668
 8969TIP3   OH248397   0.956   2.949  14.302  0.4315  0.0009  0.5260
 8969TIP3    H148398   0.955   2.889  14.377 -1.3405  0.9002  1.3023
 8969TIP3    H248399   0.913   3.028  14.335  0.5689  0.8177 -1.1534
 8970TIP3   OH248400   6.115   4.243   4.372  0.4350  0.4343  0.0495
 8970TIP3    H148401   6.166   4.208   4.299  0.2241  0.5557 -0.1594
 8970TIP3    H248402   6.053   4.303   4.331 -1.0120 -0.9553  0.1066
 8971TIP3   OH248403   1.686   3.650   2.229  0.9939  0.6265  0.0555
 8971TIP3    H148404   1.613   3.711   2.222  0.1754 -0.4345 -1.0578
 8971TIP3    H248405   1.647   3.563   2.216  2.0100 -0.2459  2.2299
 8972TIP3   OH248406   1.235   6.067  17.465  0.4609 -0.1948  0.1302
 8972TIP3    H148407   1.299   6.055  17.396  1.0790 -1.0281  0.8388
 8972TIP3    H248408   1.152   6.082  17.419  1.1366  0.8660 -0.7883
 8973TIP3   OH248409   4.396   0.956   5.646 -0.0424  0.4266  0.1320
 8973TIP3    H148410   4.396   1.039   5.695  2.2512  0.1341  0.7500
 8973TIP3    H248411   4.462   0.968   5.579  0.0746 -0.7854  0.0083
 8974TIP3   OH248412   5.027   3.896   0.255 -0.5608  0.2707 -0.2704
 8974TIP3    H148413   5.019   3.907   0.350  0.9514  0.2272 -0.1160
 8974TIP3    H248414   4.943   3.861   0.228 -1.9511  2.6279  0.6756
 8975TIP3   OH248415   0.884   2.004   0.694  0.9333 -0.0889 -0.5321
 8975TIP3    H148416   0.933   1.992   0.775  2.4481 -0.3739 -1.4577
 8975TIP3    H248417   0.831   2.083   0.709  1.7595  0.2975  0.4641
 8976TIP3   OH248418   2.567   1.734   3.258 -0.2406  0.0664 -0.1953
 8976TIP3    H148419   2.525   1.820   3.251 -0.4310 -0.1410 -2.6138
 8976TIP3    H248420   2.660   1.753   3.252 -0.3221  0.0803 -2.1577
 8977TIP3   OH248421   3.134   3.050  15.362 -0.6202 -0.5920  0.0103
 8977TIP3    H148422   3.131   3.142  15.389 -0.0990  0.3126 -2.7473
 8977TIP3    H248423   3.048   3.033  15.324 -0.4406 -1.0144 -0.2168
 8978TIP3   OH248424   5.172   6.319  14.428 -0.3767  0.5391 -0.0213
 8978TIP3    H148425   5.083   6.352  14.418 -0.4890 -0.1266 -1.5661
 8978TIP3    H248426   5.162   6.224  14.429  0.3405  0.4504 -0.6628
 8979TIP3   OH248427   2.259   0.882  14.415 -0.0358 -0.1742  0.1349
 8979TIP3    H148428   2.248   0.889  14.320 -0.2134 -1.6726  0.0178
 8979TIP3    H248429   2.171   0.869  14.448  0.2156 -1.6688  0.2797
 8980TIP3   OH248430   3.129   1.527   5.916 -0.1232 -0.4447 -0.6761
 8980TIP3    H148431   3.217   1.495   5.896  0.4430 -0.0991  1.0717
 8980TIP3    H248432   3.070   1.468   5.869  0.9709 -2.2810  0.1731
 8981TIP3   OH248433   2.771   6.073  12.242 -0.1368  0.1802  0.4385
 8981TIP3    H148434   2.717   6.136  12.195 -0.3762 -0.9685 -0.8908
 8981TIP3    H248435   2.721   5.992  12.239  1.0802 -0.5871  0.2944
 8982TIP3   OH248436   6.572   3.838   5.903 -0.0617 -0.5609 -0.5862
 8982TIP3    H148437   6.645   3.861   5.846 -0.0320  0.1573 -0.2581
 8982TIP3    H248438   6.521   3.918   5.911 -0.6651 -0.9466 -0.4804
 8983TIP3   OH248439   4.280   3.057  16.421  0.1362 -0.1421 -0.3063
 8983TIP3    H148440   4.346   2.990  16.438  0.6620  0.1890 -1.0132
 8983TIP3    H248441   4.263   3.051  16.327 -1.0083 -0.3701 -0.0994
 8984TIP3   OH248442   4.068   6.020   0.559  0.5846 -0.0617 -0.0792
 8984TIP3    H148443   4.038   5.957   0.625  1.1159 -1.0436 -0.7460
 8984TIP3    H248444   4.077   6.102   0.607 -1.8831 -0.0249  0.4248
 8985TIP3   OH248445   0.816   1.260   0.408  0.4949 -0.5381  0.1977
 8985TIP3    H148446   0.839   1.329   0.346 -1.2479 -1.0516 -1.0986
 8985TIP3    H248447   0.721   1.267   0.417  0.5010 -1.6866  1.3772
 8986TIP3   OH248448   5.108   1.161  11.906 -0.3457  0.1532  0.1881
 8986TIP3    H148449   5.164   1.084  11.914 -0.5654 -0.1256 -0.7906
 8986TIP3    H248450   5.123   1.193  11.817  1.6040  2.7478  1.3377
 8987TIP3   OH248451   5.043   1.153   0.030 -0.0669 -0.1151 -0.5478
 8987TIP3    H148452   5.138   1.157   0.019  0.3370  0.0554  2.4056
 8987TIP3    H248453   5.012   1.234  -0.011  1.4896  1.6474  1.5276
 8988TIP3   OH248454   1.222   4.900   1.677 -0.1219  0.4455  0.2819
 8988TIP3    H148455   1.305   4.863   1.708  1.0727  3.0769  0.5462
 8988TIP3    H248456   1.184   4.832   1.621  0.4637 -2.2278  2.8586
 8989TIP3   OH248457   5.411   1.280   0.103 -0.5826 -0.4200  0.1746
 8989TIP3    H148458   5.408   1.375   0.110 -0.9670 -0.3949 -0.2852
 8989TIP3    H248459   5.369   1.249   0.183 -0.5810 -0.2023  0.2608
 8990TIP3   OH248460   1.987   4.732   2.153 -0.0268  0.2112 -0.1810
 8990TIP3    H148461   2.062   4.744   2.212  0.4827  1.2308 -0.9871
 8990TIP3    H248462   1.935   4.811   2.165 -0.7125 -0.2613 -0.0069
 8991TIP3   OH248463   5.679   0.845  15.112 -0.0403 -0.1781  0.0006
 8991TIP3    H148464   5.765   0.809  15.087 -0.1281  0.8855 -2.0153
 8991TIP3    H248465   5.617   0.775  15.091 -0.1221  0.6981 -3.1478
 8992TIP3   OH248466   4.989   1.378  17.407  0.4736 -0.0828 -0.3047
 8992TIP3    H148467   5.050   1.423  17.465  0.2897  0.7673 -0.7677
 8992TIP3    H248468   4.932   1.447  17.373 -2.7064 -1.0897  2.3875
 8993TIP3   OH248469   3.276   6.524  15.504 -0.0320  0.9767 -0.1270
 8993TIP3    H148470   3.306   6.462  15.571 -0.3985  2.3266  1.3378
 8993TIP3    H248471   3.345   6.591  15.502  0.6497  0.2721 -2.1110
 8994TIP3   OH248472   0.275   1.314  16.877 -0.2710 -0.2908  0.5828
 8994TIP3    H148473   0.181   1.330  16.869 -0.4878 -1.5577  0.3484
 8994TIP3    H248474   0.298   1.344  16.965 -0.8585  0.2002  0.5692
 8995TIP3   OH248475   5.893   1.003  13.450  0.1994 -0.4062  0.2242
 8995TIP3    H148476   5.866   0.914  13.427 -1.4367  0.1122  0.0452
 8995TIP3    H248477   5.858   1.017  13.538 -2.3326  1.0998 -0.9050
 8996TIP3   OH248478   2.283   0.601  15.661 -0.6194  0.2674 -0.6817
 8996TIP3    H148479   2.304   0.530  15.601 -0.2580 -0.0420 -0.1972
 8996TIP3    H248480   2.281   0.560  15.748  0.3498  0.9653 -0.3016
 8997TIP3   OH248481   5.330   1.937  15.239  0.3204  0.2779  0.3454
 8997TIP3    H148482   5.360   1.941  15.330 -0.2583  1.3911  0.5043
 8997TIP3    H248483   5.359   2.019  15.201 -0.4715  0.3407 -0.1446
 8998TIP3   OH248484   1.576   0.012   0.110 -0.3733 -0.4854 -0.2716
 8998TIP3    H148485   1.591  -0.054   0.178 -2.1543 -0.7907 -0.1267
 8998TIP3    H248486   1.570  -0.039   0.029 -2.8263 -0.7111 -0.0282
 8999TIP3   OH248487   3.177   4.892  15.166  0.3342 -0.3505 -0.2602
 8999TIP3    H148488   3.262   4.877  15.207  0.3598 -0.3529 -0.3142
 8999TIP3    H248489   3.156   4.808  15.123 -0.5988 -1.0057  1.3856
 9000TIP3   OH248490   5.662   4.272   5.786 -0.6834  1.1138 -0.2525
 9000TIP3    H148491   5.748   4.303   5.759  0.3967 -1.5548 -0.2198
 9000TIP3    H248492   5.643   4.320   5.867 -0.0510  2.9906 -1.1745
 9001TIP3   OH248493   1.890   2.611   1.304  0.4957 -0.2491 -0.5213
 9001TIP3    H148494   1.812   2.568   1.269 -0.5781  0.7143  0.5551
 9001TIP3    H248495   1.856   2.666   1.375  2.1004  0.5967 -0.3697
 9002TIP3   OH248496   5.841   5.164  15.150 -0.2377  0.3412 -0.2147
 9002TIP3    H148497   5.748   5.150  15.133 -0.2470 -0.2829  0.3141
 9002TIP3    H248498   5.885   5.090  15.109 -0.0828 -0.0028  0.5554
 9003TIP3   OH248499   3.210   2.864   2.260  0.1265 -0.3750  0.8728
 9003TIP3    H148500   3.300   2.893   2.275  0.9360 -1.9647 -0.5315
 9003TIP3    H248501   3.184   2.909   2.179  0.5362 -1.6239  0.0066
 9004TIP3   OH248502   1.860   4.667  14.393 -0.3159 -0.1796 -0.3371
 9004TIP3    H148503   1.924   4.602  14.421  0.5778  0.3555 -1.0629
 9004TIP3    H248504   1.871   4.672  14.298  0.8916  2.2738 -0.1404
 9005TIP3   OH248505   0.679   2.162  15.974 -0.5082  0.9828  0.1327
 9005TIP3    H148506   0.657   2.247  16.012 -0.4873  1.5216 -1.0270
 9005TIP3    H248507   0.604   2.106  15.997  0.5804  0.5594  3.0622
 9006TIP3   OH248508   4.522   5.396  15.283  0.3165  0.2520 -0.1398
 9006TIP3    H148509   4.484   5.313  15.315  0.3026 -0.0698 -0.9538
 9006TIP3    H248510   4.465   5.464  15.320 -0.8178 -0.2044 -0.9696
 9007TIP3   OH248511   4.561   4.036  16.697  0.3264 -0.0658 -0.6533
 9007TIP3    H148512   4.504   4.111  16.712  2.4689  1.3102  1.1774
 9007TIP3    H248513   4.516   3.962  16.739 -1.1942  0.4172 -1.3622
 9008TIP3   OH248514   6.405   3.968  12.306  0.7022 -0.1136 -0.0090
 9008TIP3    H148515   6.449   4.036  12.255  1.3861 -0.2479  0.3926
 9008TIP3    H248516   6.469   3.897  12.312  0.0421 -0.7538 -0.3234
 9009TIP3   OH248517   4.270   1.270   3.963  0.1600  0.1462  0.2699
 9009TIP3    H148518   4.197   1.328   3.942  0.5743  0.7360  0.4581
 9009TIP3    H248519   4.348   1.325   3.956  0.5742 -0.4380  0.2422
 9010TIP3   OH248520   3.141   2.140   0.700  0.1110  0.0716  0.2679
 9010TIP3    H148521   3.100   2.183   0.625 -0.2006 -0.8318 -0.0803
 9010TIP3    H248522   3.092   2.059   0.712  2.2791 -1.4616 -0.6727
 9011TIP3   OH248523   1.744   0.696  13.912  0.6235 -0.1180  0.0137
 9011TIP3    H148524   1.685   0.762  13.875  1.6976  0.5140 -0.5986
 9011TIP3    H248525   1.737   0.622  13.853  0.5042 -0.0159 -0.1022
 9012TIP3   OH248526   1.050   1.999  13.844  0.3864 -0.9324  0.8981
 9012TIP3    H148527   1.063   2.058  13.770 -2.3976 -1.1250  0.1461
 9012TIP3    H248528   1.138   1.985  13.879  1.6012  0.4710 -1.3421
 9013TIP3   OH248529   4.508   1.064  12.940  0.0317  0.1207 -0.1236
 9013TIP3    H148530   4.446   1.095  13.006 -0.3138 -0.4083 -0.1919
 9013TIP3    H248531   4.553   0.990  12.982  1.8560  1.5532  0.5601
 9014TIP3   OH248532   5.466   6.333   5.811  0.0252 -0.1540 -0.6320
 9014TIP3    H148533   5.496   6.423   5.823 -1.9193  0.6048 -0.9682
 9014TIP3    H248534   5.531   6.279   5.856  1.4629  1.3756 -0.7838
 9015TIP3   OH248535   4.542   2.031   4.685  0.4904 -0.1892 -0.2778
 9015TIP3    H148536   4.528   2.020   4.591 -0.9675 -0.8673 -0.0091
 9015TIP3    H248537   4.558   2.124   4.696  0.0738 -0.0048 -1.1434
 9016TIP3   OH248538   2.608   0.613  15.592 -0.1627 -0.3172 -0.2800
 9016TIP3    H148539   2.687   0.657  15.561  0.9855 -1.2281  1.1946
 9016TIP3    H248540   2.638   0.524  15.614 -1.7886 -0.9460 -0.5107
 9017TIP3   OH248541   2.462   4.038  15.595 -0.2522 -0.3116 -0.0487
 9017TIP3    H148542   2.413   4.050  15.513 -0.5601 -1.2829 -0.0196
 9017TIP3    H248543   2.553   4.053  15.571 -0.2897 -1.0212 -0.6758
 9018TIP3   OH248544   5.036   3.900  17.359 -0.0464 -0.0276 -0.2565
 9018TIP3    H148545   5.078   3.869  17.439  1.0357  1.5220 -0.1673
 9018TIP3    H248546   5.084   3.855  17.289  0.8904  0.7075 -0.1061
 9019TIP3   OH248547   1.772   1.495  15.262 -0.2041  0.4685  0.3396
 9019TIP3    H148548   1.844   1.540  15.217 -0.7946  0.6797 -0.4161
 9019TIP3    H248549   1.814   1.422  15.306  0.8616  1.9835  1.9799
 9020TIP3   OH248550   1.102   5.814  12.556  0.3281  0.3141  0.0392
 9020TIP3    H148551   1.038   5.785  12.491  1.9074 -2.5038 -0.4055
 9020TIP3    H248552   1.050   5.862  12.621 -1.7249  0.6941 -1.7808
 9021TIP3   OH248553   0.312   5.135  16.642  0.0503 -0.1561 -0.1420
 9021TIP3    H148554   0.250   5.174  16.704  0.4973 -1.5139  1.2393
 9021TIP3    H248555   0.390   5.190  16.648  0.6960 -1.1684  1.8320
 9022TIP3   OH248556   5.883   0.341   2.713 -0.0127 -0.2265  0.4997
 9022TIP3    H148557   5.846   0.352   2.800  1.0722  0.0774  0.9346
 9022TIP3    H248558   5.971   0.379   2.719 -0.7506  2.0750 -1.3559
 9023TIP3   OH248559   4.693   5.983   0.353 -0.0460  0.5056  0.2358
 9023TIP3    H148560   4.757   5.940   0.410 -0.1859  0.0859  0.0788
 9023TIP3    H248561   4.735   6.065   0.328  1.4377 -0.7822 -1.7760
 9024TIP3   OH248562   5.766   0.325   4.611  0.6994  0.3469 -0.2097
 9024TIP3    H148563   5.830   0.394   4.592  1.0820 -0.5086 -2.3424
 9024TIP3    H248564   5.688   0.351   4.562  0.6093 -0.3472 -0.4487
 9025TIP3   OH248565   4.363   2.672  16.785 -0.5077  0.4064 -0.3341
 9025TIP3    H148566   4.291   2.610  16.797 -0.7854  1.0099  1.4977
 9025TIP3    H248567   4.437   2.619  16.756 -0.6527 -0.8793  1.4701
 9026TIP3   OH248568   5.220   3.016  15.586 -0.5091 -0.9163  0.2556
 9026TIP3    H148569   5.138   3.065  15.583  0.2005  0.4742  1.7655
 9026TIP3    H248570   5.241   3.010  15.680  1.8359  0.0591 -0.1255
 9027TIP3   OH248571   1.104   3.325  17.416  0.2799  0.4351 -0.0154
 9027TIP3    H148572   1.027   3.362  17.373 -0.1662  0.7048  0.9817
 9027TIP3    H248573   1.176   3.340  17.354 -0.6466 -0.8618 -1.4848
 9028TIP3   OH248574   4.404   0.772  13.692  0.1099 -0.0228  0.3996
 9028TIP3    H148575   4.415   0.729  13.607 -0.4364 -1.5428  1.0650
 9028TIP3    H248576   4.456   0.718  13.753  1.3039  1.6094  0.8872
 9029TIP3   OH248577   4.520   2.689  13.175  0.3412  0.0890 -0.1138
 9029TIP3    H148578   4.445   2.677  13.234 -1.0007  2.6366 -1.1021
 9029TIP3    H248579   4.590   2.721  13.231 -0.6989  1.7787  0.3130
 9030TIP3   OH248580   6.713   5.613   2.648  0.2916 -0.2624  0.7234
 9030TIP3    H148581   6.803   5.643   2.636  0.1640  0.2098  0.9147
 9030TIP3    H248582   6.665   5.653   2.576  0.4539 -1.4977 -0.0916
 9031TIP3   OH248583   2.797   2.352   4.234  0.7090  0.2226 -0.4768
 9031TIP3    H148584   2.722   2.309   4.193  0.3340 -0.5318  0.9372
 9031TIP3    H248585   2.867   2.346   4.168  0.2919 -1.4235 -0.8114
 9032TIP3   OH248586   0.313   1.157  12.700 -0.4138 -0.3614  0.4680
 9032TIP3    H148587   0.317   1.132  12.792 -1.4133  1.2128  0.9778
 9032TIP3    H248588   0.403   1.182  12.678 -0.1997 -0.6025  1.0617
 9033TIP3   OH248589   3.226   5.556   0.615  0.5873 -0.5338  0.0880
 9033TIP3    H148590   3.312   5.594   0.598  0.2557  0.2169  0.0155
 9033TIP3    H248591   3.166   5.631   0.611 -0.3650 -1.3532 -2.0395
 9034TIP3   OH248592   4.994   0.608  15.284  0.5327  0.0693 -0.1795
 9034TIP3    H148593   4.907   0.602  15.244  0.1240  1.4228  0.4676
 9034TIP3    H248594   5.034   0.523  15.265 -0.4953 -0.1659 -1.4730
 9035TIP3   OH248595   1.239   3.243   4.690  0.0082  0.6162 -0.6831
 9035TIP3    H148596   1.203   3.280   4.609 -0.2929 -1.0683 -1.3585
 9035TIP3    H248597   1.295   3.171   4.660 -0.9693 -0.7480  0.6439
 9036TIP3   OH248598   2.254   6.158  13.440  0.1096 -0.2650  0.4592
 9036TIP3    H148599   2.272   6.087  13.502  1.3281  1.7839  2.6053
 9036TIP3    H248600   2.259   6.237  13.493 -0.1810  1.5220 -2.0459
 9037TIP3   OH248601   3.593   5.139  12.254  0.4103 -0.0684 -0.0384
 9037TIP3    H148602   3.503   5.131  12.221  0.2962 -1.2925  0.5182
 9037TIP3    H248603   3.612   5.054  12.292  1.9766  0.0317 -0.5196
 9038TIP3   OH248604   1.812   5.697  10.784  0.7899 -0.7818  0.5410
 9038TIP3    H148605   1.718   5.695  10.805  0.4342  0.5942 -0.7422
 9038TIP3    H248606   1.822   5.628  10.718  0.3556  0.0393 -0.4129
 9039TIP3   OH248607   3.377   0.514   4.673  0.1542  0.2768 -0.4412
 9039TIP3    H148608   3.343   0.445   4.616 -3.1070  1.8260 -0.6186
 9039TIP3    H248609   3.399   0.469   4.755  0.4901 -1.2835 -1.3431
 9040TIP3   OH248610   2.558   3.364   2.124  0.2154  0.1486 -0.0159
 9040TIP3    H148611   2.596   3.319   2.049  2.0757  0.0186  0.9414
 9040TIP3    H248612   2.584   3.310   2.200 -0.9462  0.6879  0.7958
 9041TIP3   OH248613   2.826   3.758  12.605  0.0205  0.5414 -0.1764
 9041TIP3    H148614   2.916   3.761  12.573 -0.2148  0.6161 -0.8444
 9041TIP3    H248615   2.832   3.713  12.689  0.5359 -0.5362 -0.7671
 9042TIP3   OH248616   6.048   5.705  15.678  0.4721 -0.8697 -0.0695
 9042TIP3    H148617   6.065   5.797  15.657  1.0215 -0.6722  1.2106
 9042TIP3    H248618   6.065   5.659  15.596 -0.9186  0.2788 -1.0640
 9043TIP3   OH248619   0.913   2.517  15.377 -0.1261  0.3204  0.2330
 9043TIP3    H148620   0.943   2.560  15.457 -0.8992  1.0252  0.1628
 9043TIP3    H248621   0.916   2.424  15.397  0.2443  0.4700  0.8833
 9044TIP3   OH248622   4.215   3.271   5.352 -0.0213 -0.1130 -0.0051
 9044TIP3    H148623   4.189   3.231   5.435  1.9412 -0.9914  0.2419
 9044TIP3    H248624   4.170   3.219   5.285  0.7483 -1.3489  0.4076
 9045TIP3   OH248625   4.123   4.307   3.803 -0.0828  0.8036 -0.1150
 9045TIP3    H148626   4.151   4.377   3.744 -0.8035  2.3614  1.3357
 9045TIP3    H248627   4.108   4.232   3.745  1.7835  1.4783 -1.5831
 9046TIP3   OH248628   3.494   6.600   5.407  0.0460 -0.2323 -0.2268
 9046TIP3    H148629   3.536   6.670   5.356  0.5441 -0.3951 -0.0501
 9046TIP3    H248630   3.403   6.599   5.377 -0.5394  1.8975  1.1894
 9047TIP3   OH248631   4.897   4.160  11.824 -0.4172 -0.2968 -0.3982
 9047TIP3    H148632   4.888   4.254  11.810  0.5570  0.0309  0.9388
 9047TIP3    H248633   4.810   4.125  11.808 -0.4749  0.6064 -2.3429
 9048TIP3   OH248634   2.832   5.978   0.490 -0.3427 -0.9886  0.4390
 9048TIP3    H148635   2.808   5.919   0.419 -0.2067 -0.5214 -0.0100
 9048TIP3    H248636   2.787   6.060   0.469  0.5790 -0.5069  0.2847
 9049TIP3   OH248637   5.197   1.410   4.402  0.0887 -0.2988  0.4017
 9049TIP3    H148638   5.206   1.427   4.308 -0.1431 -0.0583  0.4213
 9049TIP3    H248639   5.244   1.481   4.445 -1.7568  0.9363  0.4993
 9050TIP3   OH248640   4.465   5.181  16.589 -0.4117 -0.0848  0.7502
 9050TIP3    H148641   4.445   5.145  16.502  2.7710 -2.7073  0.9203
 9050TIP3    H248642   4.529   5.250  16.572  1.0309 -1.3288  1.0400
 9051TIP3   OH248643   5.601   0.550   1.944 -0.0099 -0.8981 -0.3887
 9051TIP3    H148644   5.579   0.584   2.031  1.8973 -0.6778  0.0642
 9051TIP3    H248645   5.537   0.590   1.886 -1.4514 -1.2047  0.9222
 9052TIP3   OH248646   1.278   5.158  15.126  0.4065  0.1209  0.4532
 9052TIP3    H148647   1.270   5.166  15.221 -0.1353 -0.1200  0.4330
 9052TIP3    H248648   1.235   5.236  15.092  0.1403 -0.0472  0.3971
 9053TIP3   OH248649   3.558   0.385  13.110 -0.3869  0.1882 -0.2438
 9053TIP3    H148650   3.514   0.333  13.176 -1.2029  0.5280 -0.5053
 9053TIP3    H248651   3.579   0.467  13.154  0.8805 -0.3352  0.1624
 9054TIP3   OH248652   6.035   0.037   1.207  0.0999 -0.0962 -0.1350
 9054TIP3    H148653   6.064   0.090   1.281  0.3393 -0.4072 -0.0103
 9054TIP3    H248654   6.061  -0.052   1.228 -0.3213 -0.2730 -0.3403
 9055TIP3   OH248655   2.754   1.587   4.076 -0.3265  0.2822  0.2231
 9055TIP3    H148656   2.812   1.527   4.029  0.0589  1.4510 -0.8707
 9055TIP3    H248657   2.735   1.543   4.158  0.0737 -1.2480 -0.4717
 9056TIP3   OH248658   0.623   0.495   0.967  0.1812 -0.1220 -0.2080
 9056TIP3    H148659   0.588   0.582   0.949 -0.4305 -0.5485 -1.1543
 9056TIP3    H248660   0.570   0.436   0.913  1.1790 -0.9774 -0.2909
 9057TIP3   OH248661   4.373   6.513   5.821  0.1486 -0.0354 -0.3252
 9057TIP3    H148662   4.415   6.439   5.778  1.2872 -0.0103  0.6721
 9057TIP3    H248663   4.283   6.511   5.790  0.6729 -0.5759 -1.9247
 9058TIP3   OH248664   5.771   2.710   0.999 -1.0002  0.0267  0.1436
 9058TIP3    H148665   5.819   2.735   0.920 -2.1200  0.3646 -0.4584
 9058TIP3    H248666   5.702   2.776   1.006 -2.4390 -1.4177 -0.0026
 9059TIP3   OH248667   4.765   0.056   6.397  0.3550  0.1003 -0.2480
 9059TIP3    H148668   4.679   0.041   6.435  0.2220  1.4543  0.0394
 9059TIP3    H248669   4.767   0.150   6.379  1.7875  0.0952 -0.2038
 9060TIP3   OH248670   6.653   6.459   5.825  0.0687  0.2885 -0.0831
 9060TIP3    H148671   6.564   6.492   5.808  0.9214  1.0796 -3.7657
 9060TIP3    H248672   6.646   6.364   5.813  0.2719  0.6226 -4.5354
 9061TIP3   OH248673   3.674   6.541  16.747 -0.3140  0.9088 -0.5424
 9061TIP3    H148674   3.615   6.616  16.760  1.2383  1.8911  1.4195
 9061TIP3    H248675   3.741   6.552  16.814  1.1094 -1.1618 -1.5328
 9062TIP3   OH248676   4.522   0.915   3.398 -0.3304  0.1083  0.1019
 9062TIP3    H148677   4.519   0.837   3.453 -1.9261 -0.3519 -0.5776
 9062TIP3    H248678   4.435   0.953   3.406  0.5468  2.0801  0.7375
 9063TIP3   OH248679   0.929   4.234   2.680 -0.4139  0.6281 -0.4595
 9063TIP3    H148680   0.971   4.319   2.676  1.9543 -0.2342  2.3967
 9063TIP3    H248681   0.858   4.245   2.743 -0.4272  0.6049 -0.4703
 9064TIP3   OH248682   5.992   3.398   5.967 -0.0656 -0.1600 -0.0348
 9064TIP3    H148683   6.027   3.485   5.944  0.8795 -0.7332 -0.8506
 9064TIP3    H248684   5.999   3.394   6.062  0.3070  0.4839 -0.0253
 9065TIP3   OH248685   4.091   1.763  16.699 -0.3551  0.1654  0.2143
 9065TIP3    H148686   4.083   1.799  16.610 -0.8019  0.4035  0.3503
 9065TIP3    H248687   4.185   1.762  16.716 -0.3617  2.0320  0.5167
 9066TIP3   OH248688   5.305   2.423   4.188  0.1464  0.2211  0.0022
 9066TIP3    H148689   5.322   2.351   4.127  1.0739  0.8337 -0.4751
 9066TIP3    H248690   5.391   2.456   4.211 -0.1984  0.2542  1.3641
 9067TIP3   OH248691   1.762   5.938   4.988  0.2094  0.2066  0.6222
 9067TIP3    H148692   1.731   5.857   4.948  1.8236 -0.3362  0.3793
 9067TIP3    H248693   1.731   6.007   4.929 -0.0110 -0.3398  0.0852
 9068TIP3   OH248694   4.171   2.598   4.089 -0.4369 -0.3436  0.0261
 9068TIP3    H148695   4.167   2.551   4.172  0.0724  3.3763  2.4148
 9068TIP3    H248696   4.257   2.639   4.089 -0.9015  0.7460 -1.7186
 9069TIP3   OH248697   6.381   0.853  14.716 -0.2665 -0.1703  0.3901
 9069TIP3    H148698   6.315   0.850  14.646  0.9648  2.1318 -0.9794
 9069TIP3    H248699   6.330   0.866  14.796 -1.5817 -0.5569 -0.3463
 9070TIP3   OH248700   6.364   2.333  10.716 -0.5980  0.4967 -0.3360
 9070TIP3    H148701   6.424   2.267  10.682  0.4503  1.3809 -0.2955
 9070TIP3    H248702   6.277   2.305  10.688 -0.1334 -0.6876 -0.6210
 9071TIP3   OH248703   1.832   3.350  13.332 -0.1853  0.2032 -0.5457
 9071TIP3    H148704   1.847   3.267  13.288  1.5738  0.0903  0.2019
 9071TIP3    H248705   1.844   3.331  13.425 -2.0376  0.8362 -0.1254
 9072TIP3   OH248706   2.535   0.497   4.770  0.6158  0.1730  0.0255
 9072TIP3    H148707   2.525   0.542   4.854 -0.4293  0.4459 -0.2287
 9072TIP3    H248708   2.629   0.499   4.753  0.9005 -0.3099  1.4084
 9073TIP3   OH248709   4.408   2.133  12.429 -0.5197 -0.2468  0.2908
 9073TIP3    H148710   4.425   2.074  12.503  1.0869 -0.4449 -0.2051
 9073TIP3    H248711   4.317   2.161  12.442 -0.6292 -1.1368  1.7251
 9074TIP3   OH248712   2.436   6.265  13.868  0.0807  0.5882 -0.3633
 9074TIP3    H148713   2.511   6.245  13.813 -1.1772 -2.5419 -1.2074
 9074TIP3    H248714   2.473   6.301  13.948  2.4639 -0.5904 -0.8594
 9075TIP3   OH248715   4.754   3.245   1.970  0.0579 -0.7744  0.0308
 9075TIP3    H148716   4.822   3.184   2.000  0.1663 -1.6594 -1.8555
 9075TIP3    H248717   4.685   3.188   1.937 -0.0990  0.1211 -1.2285
 9076TIP3   OH248718   0.952   0.865  16.373  0.1248 -0.0837 -0.6909
 9076TIP3    H148719   0.920   0.954  16.357  1.4290  0.4828 -0.2312
 9076TIP3    H248720   1.031   0.858  16.320  0.6218 -0.6052  0.1071
 9077TIP3   OH248721   5.566   6.438  14.689 -0.1113  0.2663 -0.1387
 9077TIP3    H148722   5.626   6.409  14.621  0.3081 -0.2453  0.4353
 9077TIP3    H248723   5.621   6.451  14.766 -0.6694  0.1931  0.2846
 9078TIP3   OH248724   4.762   3.827   5.147 -0.6282  0.6779 -0.2022
 9078TIP3    H148725   4.809   3.824   5.064  2.1013 -0.1128  1.2432
 9078TIP3    H248726   4.768   3.738   5.181 -1.0611  1.1481  1.1650
 9079TIP3   OH248727   5.230   5.735   5.325 -0.0950  0.3286  0.0570
 9079TIP3    H148728   5.314   5.777   5.343  0.2431 -0.0909 -0.5111
 9079TIP3    H248729   5.226   5.729   5.230  0.1682 -1.5069  0.1139
 9080TIP3   OH248730   4.596   2.535   4.937 -0.1295  0.3285 -0.7594
 9080TIP3    H148731   4.653   2.463   4.912  1.6694  2.3267 -2.9293
 9080TIP3    H248732   4.515   2.493   4.966 -0.0047 -2.5565 -3.9140
 9081TIP3   OH248733   4.153   6.331   3.377  0.0244  0.5473 -0.2736
 9081TIP3    H148734   4.073   6.382   3.385  0.0712  0.8195 -1.3367
 9081TIP3    H248735   4.195   6.364   3.297  1.6237  0.9900  0.6975
 9082TIP3   OH248736   4.614   3.696  17.357  0.3952 -0.2894 -0.2541
 9082TIP3    H148737   4.650   3.743  17.282 -1.6641  0.5414 -0.7751
 9082TIP3    H248738   4.547   3.754  17.393  0.0010 -1.4848  1.0449
 9083TIP3   OH248739   3.397   5.872   3.710  0.3920  0.0055 -0.0455
 9083TIP3    H148740   3.408   5.837   3.622  0.9944 -0.1011  0.0664
 9083TIP3    H248741   3.382   5.796   3.765 -0.3750  0.1013 -0.1048
 9084TIP3   OH248742   5.472   4.680   6.784  0.2091 -0.7414 -0.6108
 9084TIP3    H148743   5.496   4.770   6.761  2.3674 -1.4097 -1.1980
 9084TIP3    H248744   5.432   4.686   6.870 -1.5967  1.0041 -1.4935
 9085TIP3   OH248745   1.132   4.534   4.780 -0.1310  0.3700  0.7101
 9085TIP3    H148746   1.188   4.532   4.858  0.0824 -0.6310  0.5465
 9085TIP3    H248747   1.046   4.560   4.813  0.0449  0.3063  1.2300
 9086TIP3   OH248748   1.840   1.415  16.331  0.1278  0.3241 -0.0537
 9086TIP3    H148749   1.773   1.420  16.398 -0.3756 -2.1498 -0.2773
 9086TIP3    H248750   1.917   1.380  16.376 -0.1520 -1.1655 -0.6901
 9087TIP3   OH248751   6.701   4.108  12.285  0.2169 -0.1224  0.1218
 9087TIP3    H148752   6.723   4.047  12.214  2.3494  2.3029 -1.4738
 9087TIP3    H248753   6.783   4.117  12.334 -0.3448  0.7236  0.9301
 9088TIP3   OH248754   4.710   4.015   3.341  0.2188  0.0253  0.2173
 9088TIP3    H148755   4.767   4.089   3.321 -0.2685  0.4520  0.3546
 9088TIP3    H248756   4.712   4.008   3.437  2.2991 -1.8075  0.1055
 9089TIP3   OH248757   2.407   3.250  13.740 -0.5515  0.1293  0.9802
 9089TIP3    H148758   2.424   3.159  13.716  0.3957 -0.1476  2.5662
 9089TIP3    H248759   2.319   3.268  13.705 -0.4077 -1.1047 -0.0914
 9090TIP3   OH248760   0.141   4.752   1.444  0.3066 -0.4579 -0.4888
 9090TIP3    H148761   0.073   4.692   1.411  1.1232 -1.7295  0.0686
 9090TIP3    H248762   0.214   4.739   1.384  0.2506  0.5270 -0.7792
 9091TIP3   OH248763   3.880   5.610   5.138 -0.2028  0.1735  0.5909
 9091TIP3    H148764   3.926   5.691   5.161  0.3393 -0.0520  0.3223
 9091TIP3    H248765   3.925   5.542   5.189  1.1985 -0.3846 -1.2635
 9092TIP3   OH248766   4.991   2.172   4.883 -0.0852  0.0215  0.3032
 9092TIP3    H148767   4.923   2.111   4.854  1.3442 -1.5179  0.1092
 9092TIP3    H248768   5.002   2.152   4.976  2.4905 -2.2376 -0.3629
 9093TIP3   OH248769   6.480   3.651   2.629  0.0318 -0.2678  1.2422
 9093TIP3    H148770   6.471   3.725   2.569 -2.9564 -0.3652  1.4250
 9093TIP3    H248771   6.575   3.636   2.635  0.5570  1.4194 -1.3474
 9094TIP3   OH248772   1.144   0.875   5.838 -0.1436 -0.6369  0.0832
 9094TIP3    H148773   1.166   0.850   5.928  1.0464 -0.3197 -0.0968
 9094TIP3    H248774   1.196   0.816   5.783 -0.2058 -0.2671 -0.3806
 9095TIP3   OH248775   2.348   2.402  17.244 -0.0969 -0.2356  0.1537
 9095TIP3    H148776   2.419   2.361  17.195  0.5994  0.7549  0.2981
 9095TIP3    H248777   2.367   2.495  17.241  1.0125 -0.1718  3.7583
 9096TIP3   OH248778   5.598   6.475  12.667  0.3098 -0.0331 -0.0413
 9096TIP3    H148779   5.666   6.537  12.692  1.0980 -1.0035  0.3213
 9096TIP3    H248780   5.518   6.507  12.708  0.8821  0.2709  0.8434
 9097TIP3   OH248781   5.909   4.651  15.956  0.6511  0.0955  0.3481
 9097TIP3    H148782   5.942   4.571  15.914 -1.2652 -0.0630 -0.9618
 9097TIP3    H248783   5.873   4.703  15.883  0.0857  1.2689  1.4293
 9098TIP3   OH248784   4.324   4.824  15.504  0.3765  0.0080  0.1617
 9098TIP3    H148785   4.284   4.789  15.424  2.3009 -0.5038 -0.6557
 9098TIP3    H248786   4.281   4.776  15.575  0.9813 -2.1037 -0.7878
 9099TIP3   OH248787   2.799   0.772  12.159  0.2543 -0.4785  0.3205
 9099TIP3    H148788   2.806   0.868  12.161  1.7828 -0.5489 -0.2700
 9099TIP3    H248789   2.734   0.751  12.226 -1.9620  1.1149 -1.1950
 9100TIP3   OH248790   5.720   1.855  15.300  0.4793  0.1063  0.0154
 9100TIP3    H148791   5.658   1.896  15.361  0.2662 -0.4151  0.1597
 9100TIP3    H248792   5.692   1.763  15.296  1.6134 -0.2789  0.5427
 9101TIP3   OH248793   1.216   4.344   3.042  0.3195  0.3895  0.0874
 9101TIP3    H148794   1.239   4.273   2.983  1.2089 -0.5136  1.4550
 9101TIP3    H248795   1.295   4.358   3.094 -0.6691  0.5871  1.6076
 9102TIP3   OH248796   1.269   2.043  16.032 -0.4392  0.1889 -0.2741
 9102TIP3    H148797   1.334   2.099  16.074 -0.1292 -0.2262 -0.1905
 9102TIP3    H248798   1.186   2.089  16.043 -0.3524  0.1203  0.7347
 9103TIP3   OH248799   3.075   0.616   1.969  0.3169 -0.3891 -0.2082
 9103TIP3    H148800   2.988   0.651   1.949  0.2002 -0.7305 -0.2989
 9103TIP3    H248801   3.061   0.558   2.044 -0.0199 -2.5512 -1.8373
 9104TIP3   OH248802   2.911   3.686  12.881  0.2386 -0.3029  0.1955
 9104TIP3    H148803   2.905   3.756  12.946 -1.4127 -0.9127  0.7596
 9104TIP3    H248804   2.910   3.605  12.932 -0.6910 -0.7836 -0.5414
 9105TIP3   OH248805   0.244   0.763   0.523 -0.4013 -0.3471 -0.2507
 9105TIP3    H148806   0.280   0.706   0.590 -1.4177 -0.1393  0.5002
 9105TIP3    H248807   0.165   0.801   0.563  0.4765  1.9467 -0.5219
 9106TIP3   OH248808   5.277   5.882   5.648  0.6040  0.0486 -0.2743
 9106TIP3    H148809   5.284   5.892   5.553  1.9764  1.8946 -0.0289
 9106TIP3    H248810   5.365   5.861   5.677  0.1773 -0.6126  0.5979
 9107TIP3   OH248811   5.128   5.700   3.087  0.0432 -0.3184  0.3141
 9107TIP3    H148812   5.047   5.655   3.111 -0.3886  0.1552 -0.2428
 9107TIP3    H248813   5.100   5.773   3.032  0.5065  1.9015  2.8104
 9108TIP3   OH248814   4.777   0.850  12.033 -0.1582 -0.2968 -0.0238
 9108TIP3    H148815   4.705   0.912  12.045  0.0617 -0.1556  0.6071
 9108TIP3    H248816   4.855   0.899  12.060 -0.0310 -0.9744  0.8708
 9109TIP3   OH248817   3.835   2.528   2.373  0.4087 -0.5754  0.0801
 9109TIP3    H148818   3.908   2.586   2.391 -0.7693  0.5547  1.4487
 9109TIP3    H248819   3.858   2.445   2.414 -0.0078  0.4466  2.5369
 9110TIP3   OH248820   6.636   2.256  17.184 -0.2476 -0.0350 -0.2694
 9110TIP3    H148821   6.714   2.266  17.130 -0.7141 -2.8133 -1.6460
 9110TIP3    H248822   6.649   2.171  17.228 -1.4962  0.5173  1.2743
 9111TIP3   OH248823   4.357   0.337   6.246 -0.0475 -0.2986 -0.1913
 9111TIP3    H148824   4.315   0.421   6.230  0.5662  0.2809  1.1172
 9111TIP3    H248825   4.288   0.281   6.281 -0.2134  0.0017 -0.0346
 9112TIP3   OH248826   4.662   1.048  14.256  0.9576  0.2859 -0.3317
 9112TIP3    H148827   4.751   1.066  14.287  1.8078 -1.5702 -1.5175
 9112TIP3    H248828   4.668   1.056  14.161 -0.2544  0.5285 -0.3987
 9113TIP3   OH248829   5.469   6.372  17.165 -0.2897 -0.3450  0.4693
 9113TIP3    H148830   5.374   6.365  17.164 -0.3515 -0.4662  2.3346
 9113TIP3    H248831   5.499   6.290  17.204  0.3719  0.6947  2.3048
 9114TIP3   OH248832   0.712   1.421   1.459 -0.3072 -0.5621  0.1043
 9114TIP3    H148833   0.766   1.423   1.539  1.9381  0.6666 -1.3315
 9114TIP3    H248834   0.623   1.406   1.491  0.6906 -1.6258  2.7126
 9115TIP3   OH248835   2.717   1.794  12.702 -0.0672 -0.3756  0.4118
 9115TIP3    H148836   2.797   1.846  12.712  0.1082 -0.7719  1.2313
 9115TIP3    H248837   2.740   1.728  12.637 -0.4842  0.9106 -1.0816
 9116TIP3   OH248838   3.982   0.432  13.318  0.5419  0.1193 -0.2092
 9116TIP3    H148839   4.012   0.345  13.294  1.3058  0.1199  0.6733
 9116TIP3    H248840   3.889   0.432  13.297 -0.1794 -1.9309  2.4158
 9117TIP3   OH248841   1.908   4.928  12.831  0.0275 -0.9488 -0.0597
 9117TIP3    H148842   1.871   5.008  12.794 -1.5275 -0.7137  1.8488
 9117TIP3    H248843   2.003   4.942  12.828 -0.1680  0.3522 -1.0184
 9118TIP3   OH248844   6.076   1.723  14.663  0.2470  0.1358  0.2564
 9118TIP3    H148845   6.030   1.805  14.644  0.4237 -0.3411 -2.7143
 9118TIP3    H248846   6.154   1.726  14.608  0.9400 -1.4744  1.0941
 9119TIP3   OH248847   6.628   6.553   2.464  0.2036  0.0766  0.3586
 9119TIP3    H148848   6.566   6.606   2.514  1.3626  0.5197  1.3798
 9119TIP3    H248849   6.634   6.596   2.379 -2.6983 -1.3490 -0.6979
 9120TIP3   OH248850   4.359   6.071   0.829 -0.0796  0.3434 -0.5626
 9120TIP3    H148851   4.398   6.088   0.743  1.5319 -1.1217 -0.1699
 9120TIP3    H248852   4.370   6.153   0.877  0.3761  0.6890 -1.2462
 9121TIP3   OH248853   1.673   2.981  10.748 -0.0555 -0.8478 -0.6119
 9121TIP3    H148854   1.649   3.037  10.674 -0.6333 -1.4456 -0.8844
 9121TIP3    H248855   1.647   3.032  10.825  2.1361  0.5375 -0.7118
 9122TIP3   OH248856   5.850   1.820   4.722  0.1942  0.2249 -0.0570
 9122TIP3    H148857   5.878   1.761   4.792  1.0935  2.2154  1.3472
 9122TIP3    H248858   5.763   1.850   4.749 -0.0966 -0.1199 -0.5738
 9123TIP3   OH248859   3.903   4.398  10.717 -0.5284 -0.1559  0.4437
 9123TIP3    H148860   3.896   4.493  10.709 -1.4117 -0.3351 -1.3488
 9123TIP3    H248861   3.914   4.367  10.627 -0.7951 -1.7876  0.9439
 9124TIP3   OH248862   0.132   0.647   0.886 -1.1027 -0.3512 -0.7996
 9124TIP3    H148863   0.151   0.576   0.824  0.2329 -2.0231  1.3448
 9124TIP3    H248864   0.214   0.696   0.891 -0.4969 -1.4874  1.1027
 9125TIP3   OH248865   5.532   0.308   0.136  0.2334  0.3606  0.1809
 9125TIP3    H148866   5.594   0.380   0.120 -2.2426  2.2610 -1.7994
 9125TIP3    H248867   5.477   0.340   0.207  0.4487 -0.5700  0.7799
 9126TIP3   OH248868   6.398   3.883   4.158 -0.0681 -0.0461 -0.6683
 9126TIP3    H148869   6.446   3.933   4.224  1.0068  1.1926 -2.3176
 9126TIP3    H248870   6.459   3.815   4.129 -0.2859 -0.1551 -0.8825
 9127TIP3   OH248871   3.128   6.437   4.225 -0.2656 -0.2206 -0.1379
 9127TIP3    H148872   3.213   6.479   4.231  0.9277 -1.4043 -4.6211
 9127TIP3    H248873   3.141   6.350   4.263 -0.0460  0.2207  0.8187
 9128TIP3   OH248874   5.316   4.670   4.059 -0.3358 -0.6347 -0.0301
 9128TIP3    H148875   5.224   4.686   4.038  0.0931  1.2588 -0.6866
 9128TIP3    H248876   5.319   4.674   4.154 -0.7208  0.8666 -0.0506
 9129TIP3   OH248877   1.732   3.804  14.864  0.1279  0.3403 -0.3725
 9129TIP3    H148878   1.775   3.734  14.814 -0.7433  0.7103 -1.6913
 9129TIP3    H248879   1.785   3.882  14.846 -0.3902  0.5483 -1.0320
 9130TIP3   OH248880   6.575   5.093  11.134  0.5696 -0.0311  0.1789
 9130TIP3    H148881   6.660   5.049  11.133  1.3983  1.5124  0.0482
 9130TIP3    H248882   6.566   5.128  11.046 -0.8823 -1.3836 -0.2435
 9131TIP3   OH248883   3.384   3.561  15.730  0.4177 -0.0731 -0.2635
 9131TIP3    H148884   3.290   3.550  15.741  0.5330 -0.6016  0.2533
 9131TIP3    H248885   3.395   3.579  15.637 -0.3073  1.2975 -0.1047
 9132TIP3   OH248886   3.999   3.647   5.817  0.1898  0.0074 -0.7215
 9132TIP3    H148887   4.044   3.580   5.868  0.0926 -0.2924 -1.0253
 9132TIP3    H248888   4.067   3.689   5.765  0.2956  0.3398 -0.3233
 9133TIP3   OH248889   5.945   4.333   1.652  0.1092  0.0734 -0.5668
 9133TIP3    H148890   5.913   4.256   1.606  4.2156 -1.2670 -1.5773
 9133TIP3    H248891   6.039   4.335   1.635  0.6023  4.0963  1.2753
 9134TIP3   OH248892   6.688   2.268   3.910 -0.6940  0.0479  0.4655
 9134TIP3    H148893   6.742   2.189   3.913  0.5504  0.8911  1.4629
 9134TIP3    H248894   6.601   2.239   3.936 -0.4992 -1.1829 -0.2310
 9135TIP3   OH248895   3.389   1.078  10.672 -0.6291 -0.7823  0.3284
 9135TIP3    H148896   3.364   1.049  10.760  0.4153 -0.2909  0.8024
 9135TIP3    H248897   3.407   1.171  10.682 -0.8755 -0.6400 -0.4975
 9136TIP3   OH248898   3.072   2.281  12.675 -0.6565  0.2283 -0.3069
 9136TIP3    H148899   3.104   2.359  12.719  1.0052 -0.5622 -0.0377
 9136TIP3    H248900   2.979   2.278  12.696 -0.3972  1.2014  1.0906
 9137TIP3   OH248901   3.573   1.406  16.118 -0.4801 -0.3844 -0.2617
 9137TIP3    H148902   3.535   1.488  16.085 -0.5913 -0.8751 -1.4042
 9137TIP3    H248903   3.653   1.433  16.163 -1.8878  0.6242  1.7973
 9138TIP3   OH248904   6.539   5.525   3.382 -0.1799  0.1185  0.3238
 9138TIP3    H148905   6.572   5.437   3.399 -1.6395 -0.4910  0.1490
 9138TIP3    H248906   6.570   5.546   3.294 -1.8054 -1.2487 -0.6505
 9139TIP3   OH248907   1.372   3.388  11.804  0.4990 -0.1819  0.5884
 9139TIP3    H148908   1.423   3.460  11.767  1.4654 -1.4883 -0.7352
 9139TIP3    H248909   1.379   3.399  11.899  1.5762  0.8033  0.4047
 9140TIP3   OH248910   2.284   3.227  16.843  0.1549  0.2886 -0.0289
 9140TIP3    H148911   2.354   3.289  16.864  0.6534  0.2479 -1.5075
 9140TIP3    H248912   2.308   3.147  16.890  0.0384  0.8721  1.0694
 9141TIP3   OH248913   1.259   2.132  14.778  0.1038  0.0671  0.2803
 9141TIP3    H148914   1.304   2.200  14.828  0.9222 -1.3354  1.5332
 9141TIP3    H248915   1.174   2.124  14.821 -0.0445  0.3916  0.0476
 9142TIP3   OH248916   2.437   6.387   5.599  0.7933 -0.0965  1.1349
 9142TIP3    H148917   2.474   6.330   5.532  1.2763  1.9504 -0.4402
 9142TIP3    H248918   2.371   6.439   5.554  0.1098  0.3532  2.5785
 9143TIP3   OH248919   0.876   3.524   5.221 -0.5315  0.6599  0.4531
 9143TIP3    H148920   0.946   3.459   5.220 -0.7194  0.4144 -1.4806
 9143TIP3    H248921   0.883   3.567   5.306  0.6442 -0.7634  1.1042
 9144TIP3   OH248922   2.077   0.210   6.331  0.7215 -0.5333  0.1623
 9144TIP3    H148923   2.054   0.284   6.388 -0.2468 -0.5403 -0.2020
 9144TIP3    H248924   1.992   0.173   6.304  1.1905 -1.6807  0.2094
 9145TIP3   OH248925   6.044   5.578  13.686 -0.1627  0.1265  0.5466
 9145TIP3    H148926   5.972   5.582  13.623  1.1281  1.2434 -0.9494
 9145TIP3    H248927   6.091   5.497  13.664  0.1719  0.4140  0.1859
 9146TIP3   OH248928   3.123   5.698   1.715  0.3257 -0.0215  0.0974
 9146TIP3    H148929   3.168   5.688   1.799  0.5129  1.8318  0.2784
 9146TIP3    H248930   3.031   5.713   1.739  0.2516 -0.1967 -0.0729
 9147TIP3   OH248931   0.754   6.746  16.266 -0.2606 -0.0493  0.0800
 9147TIP3    H148932   0.743   6.837  16.238 -0.2578 -0.4457 -1.2562
 9147TIP3    H248933   0.842   6.722  16.235  0.0215 -0.3029  1.0442
 9148TIP3   OH248934   1.259   4.553   1.716  0.2461  0.1674  0.2641
 9148TIP3    H148935   1.273   4.468   1.757  0.6093 -0.1539 -0.4998
 9148TIP3    H248936   1.170   4.578   1.740 -0.5705 -1.3059 -1.0352
 9149TIP3   OH248937   3.778   4.289  15.287  0.2101 -0.0844  0.3746
 9149TIP3    H148938   3.814   4.325  15.206 -0.1995  0.5728  0.4739
 9149TIP3    H248939   3.815   4.201  15.293  0.6917  0.0699 -0.2309
 9150TIP3   OH248940   0.130   6.083   1.758 -0.0458  0.2875 -0.1788
 9150TIP3    H148941   0.200   6.031   1.718 -1.5621 -0.4855 -1.9805
 9150TIP3    H248942   0.171   6.124   1.834  2.1579 -0.6968 -0.7584
 9151TIP3   OH248943   2.977   0.532  15.756  0.5067  0.0406  0.7353
 9151TIP3    H148944   3.057   0.515  15.807  0.8532  0.1896  0.2466
 9151TIP3    H248945   2.939   0.446  15.741  1.3692 -0.1854 -0.2993
 9152TIP3   OH248946   2.459   0.693  14.634  0.7652  0.0676 -0.0253
 9152TIP3    H148947   2.370   0.729  14.637  0.1885 -1.2297 -0.6373
 9152TIP3    H248948   2.452   0.610  14.682  1.3293 -0.6397 -1.1169
 9153TIP3   OH248949   3.699   1.097   2.645  0.0408  0.6801 -0.0159
 9153TIP3    H148950   3.639   1.044   2.592  0.3989 -0.3697  0.5924
 9153TIP3    H248951   3.642   1.156   2.695 -0.4632  0.0265  0.1954
 9154TIP3   OH248952   3.063   3.126  11.124  0.2502 -0.4165  0.2063
 9154TIP3    H148953   3.128   3.146  11.057 -0.2266 -0.8421 -0.3877
 9154TIP3    H248954   3.022   3.044  11.095 -0.0120 -0.5691  0.9750
 9155TIP3   OH248955   1.413   2.189   5.652  0.0113 -0.5501 -0.4945
 9155TIP3    H148956   1.442   2.121   5.713 -0.0180 -1.4556 -1.4560
 9155TIP3    H248957   1.406   2.268   5.705 -0.9994 -1.5300  0.8895
 9156TIP3   OH248958   1.526   5.068   2.970  0.1017  0.2267  0.0764
 9156TIP3    H148959   1.435   5.095   2.976 -0.2648 -0.9206 -0.0776
 9156TIP3    H248960   1.568   5.136   2.917 -0.7519  0.5489 -0.2013
 9157TIP3   OH248961   1.603   2.806   3.356  0.1508 -0.0362  0.2082
 9157TIP3    H148962   1.644   2.819   3.442 -0.7992 -0.0561  0.6723
 9157TIP3    H248963   1.673   2.826   3.293  1.4973 -1.9666  0.9728
 9158TIP3   OH248964   2.993   6.588  13.093  0.5198  0.1445  0.0944
 9158TIP3    H148965   2.979   6.658  13.156  2.8675 -0.1231  1.0262
 9158TIP3    H248966   3.026   6.631  13.014  1.6316  0.1462  0.5477
 9159TIP3   OH248967   6.580   0.602   3.078  0.5713 -0.1641  0.0566
 9159TIP3    H148968   6.584   0.635   2.988  1.4183  0.9882  0.5028
 9159TIP3    H248969   6.521   0.662   3.123  1.4760  0.2827  0.6736
 9160TIP3   OH248970   4.946   0.180  11.236 -0.7608 -0.0708  0.0055
 9160TIP3    H148971   5.034   0.212  11.216 -0.6386 -0.3307  0.1375
 9160TIP3    H248972   4.934   0.199  11.329 -0.6542 -0.4986  0.1048
 9161TIP3   OH248973   6.442   2.410  15.159  0.1095 -0.2864  0.5533
 9161TIP3    H148974   6.412   2.359  15.083  0.3158 -1.6006  1.3217
 9161TIP3    H248975   6.467   2.344  15.224  3.1652  0.7241  0.5629
 9162TIP3   OH248976   3.809   4.662   3.315 -0.0284 -0.3132  0.3420
 9162TIP3    H148977   3.878   4.657   3.381  0.6701  1.1670 -0.2397
 9162TIP3    H248978   3.855   4.680   3.233 -0.9993 -0.7653 -0.3216
 9163TIP3   OH248979   1.307   6.357  11.168  0.2535  0.0431  0.5017
 9163TIP3    H148980   1.291   6.354  11.263  0.1381  0.8017  0.5162
 9163TIP3    H248981   1.272   6.442  11.141  0.0060 -0.2962 -0.2786
 9164TIP3   OH248982   0.297   2.028   5.638 -0.0429 -0.4596 -0.4892
 9164TIP3    H148983   0.350   2.097   5.599 -0.3678 -0.8798 -1.7597
 9164TIP3    H248984   0.349   1.995   5.711 -0.5357  2.0953  1.1176
 9165TIP3   OH248985   3.398   4.579   2.570  0.1624  0.2977 -0.1557
 9165TIP3    H148986   3.370   4.598   2.481 -1.1351 -1.0108 -0.0528
 9165TIP3    H248987   3.388   4.663   2.616 -0.7795  0.5826 -0.8403
 9166TIP3   OH248988   6.549   4.386  11.013  0.4083 -0.2080 -0.2227
 9166TIP3    H148989   6.607   4.312  11.024  1.4915  0.5394 -0.7101
 9166TIP3    H248990   6.588   4.438  10.943  0.1101  1.2219  0.6074
 9167TIP3   OH248991   6.565   5.084  15.046 -0.0944  0.2256  0.9700
 9167TIP3    H148992   6.561   5.034  15.127 -0.4186  0.8123  1.3285
 9167TIP3    H248993   6.655   5.076  15.017 -0.2112 -0.7800  0.8765
 9168TIP3   OH248994   4.643   2.633  16.004 -0.4484 -0.2283  0.3996
 9168TIP3    H148995   4.577   2.682  16.054  0.5070 -0.1907  1.6836
 9168TIP3    H248996   4.673   2.565  16.064 -0.3295 -1.1550 -0.6737
 9169TIP3   OH248997   5.216   5.727   2.756  0.3160 -0.4099  0.7318
 9169TIP3    H148998   5.123   5.752   2.764  0.4658  1.1258 -1.5741
 9169TIP3    H248999   5.263   5.810   2.764  1.1729 -0.5244 -2.1144
 9170TIP3   OH249000   6.180   2.085  14.767 -0.5010  0.0681 -0.2264
 9170TIP3    H149001   6.268   2.059  14.740 -0.3174  0.5821 -0.1359
 9170TIP3    H249002   6.127   2.006  14.756  0.3322 -0.7620  1.3915
 9171TIP3   OH249003   3.463   4.955  17.116 -0.0090  0.6072  0.1929
 9171TIP3    H149004   3.404   5.028  17.099 -0.0480  0.4834 -0.2297
 9171TIP3    H249005   3.551   4.992  17.101 -0.0507  0.4645 -0.4198
 9172TIP3   OH249006   0.575   4.150  12.696 -0.1279 -0.2217 -0.1020
 9172TIP3    H149007   0.503   4.210  12.678 -0.3545 -1.0040 -2.0570
 9172TIP3    H249008   0.535   4.063  12.692  0.8067 -0.6388 -0.6994
 9173TIP3   OH249009   0.847   2.940  13.246 -0.5197  0.2530 -0.3726
 9173TIP3    H149010   0.895   2.887  13.309  1.2795 -0.1911 -1.9884
 9173TIP3    H249011   0.810   2.877  13.184 -1.8506  0.6967 -0.0552
 9174TIP3   OH249012   2.821   3.477  17.113 -0.2269  1.0392 -0.3135
 9174TIP3    H149013   2.846   3.522  17.032  1.0947  1.0422  0.0704
 9174TIP3    H249014   2.782   3.545  17.168 -0.7131  1.1305 -0.7629
 9175TIP3   OH249015   5.986   6.142   3.583 -0.4609 -0.1592 -0.1989
 9175TIP3    H149016   6.064   6.197   3.587 -0.3874 -0.3224  1.0190
 9175TIP3    H249017   5.972   6.126   3.489  0.5507  0.4466 -0.4642
 9176TIP3   OH249018   3.012   4.341  15.852  0.4182  0.0336 -0.7581
 9176TIP3    H149019   2.998   4.432  15.826  0.1932 -0.1533 -1.2868
 9176TIP3    H249020   2.961   4.332  15.933  0.2721  0.3202 -0.8148
 9177TIP3   OH249021   5.796   3.698   1.017 -0.4251 -0.3042  0.0508
 9177TIP3    H149022   5.811   3.790   0.997  0.4811 -0.2933  0.7376
 9177TIP3    H249023   5.707   3.681   0.984 -1.9114  1.6394  2.6688
 9178TIP3   OH249024   5.966   6.368  15.879  0.0933  0.2541  0.0990
 9178TIP3    H149025   5.998   6.282  15.853  0.3272  0.1370  0.7653
 9178TIP3    H249026   6.024   6.429  15.835  1.0639  0.0465  1.0358
 9179TIP3   OH249027   1.535   5.589  11.070 -0.0656  0.5620 -0.1173
 9179TIP3    H149028   1.548   5.497  11.048 -0.7203  0.4270  0.0426
 9179TIP3    H249029   1.592   5.604  11.146  0.3818  0.4099 -0.4198
 9180TIP3   OH249030   0.790   2.870   6.416 -0.1721  0.5888 -0.6100
 9180TIP3    H149031   0.792   2.782   6.454  1.2120  1.7053  2.2573
 9180TIP3    H249032   0.707   2.873   6.368  0.0056 -2.4238 -1.3137
 9181TIP3   OH249033   4.071   1.503  16.205  0.3395 -0.2167  0.2405
 9181TIP3    H149034   4.130   1.578  16.196 -0.2290  0.1983 -0.1354
 9181TIP3    H249035   3.993   1.528  16.154  0.2971 -1.2193 -0.2117
 9182TIP3   OH249036   1.375   4.959  12.405 -0.4100 -0.2622 -0.1312
 9182TIP3    H149037   1.456   4.971  12.356  1.0024  1.4844  2.4216
 9182TIP3    H249038   1.342   5.048  12.419 -2.9083 -0.9314 -1.2154
 9183TIP3   OH249039   2.959   1.074  15.810  0.3779  0.6073  0.1566
 9183TIP3    H149040   2.947   0.980  15.798  0.9318  0.6319 -0.6220
 9183TIP3    H249041   3.025   1.099  15.745  0.6606  1.4304  0.7402
 9184TIP3   OH249042   1.839   0.260   6.470 -0.0065 -0.1950 -0.6243
 9184TIP3    H149043   1.759   0.209   6.480  0.2124 -0.7316 -1.5687
 9184TIP3    H249044   1.855   0.264   6.376  0.5150  0.7950 -0.5157
 9185TIP3   OH249045   2.409   6.185   1.356  0.0231  0.7390  0.0158
 9185TIP3    H149046   2.439   6.176   1.266  1.4561 -0.8555  0.5774
 9185TIP3    H249047   2.461   6.258   1.391 -0.6104  1.4285 -0.4460
 9186TIP3   OH249048   3.968   6.439   2.001 -0.5997 -0.2543 -0.0667
 9186TIP3    H149049   4.062   6.426   2.009 -0.4499  0.9131  0.2706
 9186TIP3    H249050   3.939   6.371   1.940  0.5676 -0.1746 -0.7328
 9187TIP3   OH249051   1.701   2.688  11.813  0.2093 -0.2491 -0.4445
 9187TIP3    H149052   1.671   2.606  11.853  2.4962 -1.3056 -0.7283
 9187TIP3    H249053   1.702   2.751  11.885 -0.0842 -0.8967  0.1438
 9188TIP3   OH249054   4.148   2.481   1.081  0.0199  0.5566  0.1055
 9188TIP3    H149055   4.101   2.564   1.074  0.6600  1.3033  3.0608
 9188TIP3    H249056   4.240   2.506   1.075  0.2377  0.1972  1.5812
 9189TIP3   OH249057   6.604   0.190   5.267  0.2571  0.1985  0.0252
 9189TIP3    H149058   6.674   0.246   5.232  0.8805 -0.5847  0.0103
 9189TIP3    H249059   6.535   0.197   5.202 -0.0448  1.6565  0.4502
 9190TIP3   OH249060   5.743   6.473  16.496  0.1324 -0.2769 -0.3686
 9190TIP3    H149061   5.768   6.478  16.589  0.3950  1.0137 -0.4923
 9190TIP3    H249062   5.816   6.514  16.450  0.5583 -1.9464 -1.2714
 9191TIP3   OH249063   5.822   0.380   3.918 -0.4040  0.1915  0.1971
 9191TIP3    H149064   5.797   0.469   3.941 -0.2591  0.0101  1.1056
 9191TIP3    H249065   5.839   0.383   3.824 -2.7363  0.5749 -0.2811
 9192TIP3   OH249066   2.408   1.584   5.005  0.2373  0.1441  0.2671
 9192TIP3    H149067   2.333   1.627   4.963  0.5871 -0.0318 -0.5578
 9192TIP3    H249068   2.484   1.633   4.974  0.9046 -2.3923 -2.6475
 9193TIP3   OH249069   1.447   0.642   3.345  0.1420  0.3164 -0.5130
 9193TIP3    H149070   1.371   0.636   3.286 -0.0245 -0.7061 -0.2066
 9193TIP3    H249071   1.492   0.558   3.335 -0.8932 -0.6712  2.1388
 9194TIP3   OH249072   2.868   0.240  14.341 -0.5048  0.3446  0.1831
 9194TIP3    H149073   2.836   0.282  14.420 -0.7253 -0.6682  0.6417
 9194TIP3    H249074   2.802   0.175  14.319 -0.0404  0.0433 -0.3583
 9195TIP3   OH249075   1.557   0.410  12.003  0.0416  0.3855  0.0271
 9195TIP3    H149076   1.566   0.484  12.063 -2.3329  0.2953  0.6018
 9195TIP3    H249077   1.590   0.443  11.919 -1.6890  2.4453  0.0594
 9196TIP3   OH249078   0.363   6.543   0.886 -0.3242  0.5244  0.6764
 9196TIP3    H149079   0.339   6.453   0.867 -0.3505  0.3573  1.4517
 9196TIP3    H249080   0.458   6.545   0.875 -0.3539  0.4681  0.4051
 9197TIP3   OH249081   2.395   3.766  17.345 -0.1587  0.0056  0.4249
 9197TIP3    H149082   2.463   3.825  17.376  0.0671 -0.5680  1.0438
 9197TIP3    H249083   2.407   3.763  17.250  1.2518 -0.7704  0.5987
 9198TIP3   OH249084   0.089   0.984  15.687 -0.4379  0.3336  0.7136
 9198TIP3    H149085   0.067   0.899  15.648  0.6904 -1.1226  3.1029
 9198TIP3    H249086   0.005   1.018  15.718 -0.5625 -1.4100  2.4915
 9199TIP3   OH249087   3.078   4.166   0.439 -0.0570  0.0215 -0.5467
 9199TIP3    H149088   3.009   4.115   0.480  0.3056  1.4615  2.0579
 9199TIP3    H249089   3.152   4.160   0.500  1.2458  0.6030 -2.0033
 9200TIP3   OH249090   0.734   6.134   3.090  0.5274  0.4505  0.3168
 9200TIP3    H149091   0.680   6.155   3.014 -0.9694  3.1301  1.9543
 9200TIP3    H249092   0.814   6.097   3.053  0.4784  2.9141 -2.7130
 9201TIP3   OH249093   5.593   1.043  14.247 -0.3912 -0.0249  0.4050
 9201TIP3    H149094   5.583   0.949  14.239  1.7328 -0.2965  0.3676
 9201TIP3    H249095   5.598   1.058  14.342  1.1088 -0.2268  0.3864
 9202TIP3   OH249096   0.946   4.251  10.701 -0.5393  0.3707  0.0032
 9202TIP3    H149097   0.964   4.344  10.685  0.9833  0.1855  0.4744
 9202TIP3    H249098   0.994   4.231  10.781 -1.6347 -0.6048  0.4333
 9203TIP3   OH249099   1.874   3.607  14.694 -0.4874  0.5140 -0.2103
 9203TIP3    H149100   1.864   3.573  14.605  0.9379  0.4551 -0.3771
 9203TIP3    H249101   1.942   3.674  14.687 -0.1419  0.3014  0.8875
 9204TIP3   OH249102   6.719   3.849  15.525  0.6937 -0.2927  0.0489
 9204TIP3    H149103   6.687   3.861  15.436 -0.6330 -0.6634  0.4455
 9204TIP3    H249104   6.680   3.921  15.574  2.9160  1.0070  0.0026
 9205TIP3   OH249105   2.155   2.644   0.813  1.2354 -0.3827  0.0460
 9205TIP3    H149106   2.134   2.564   0.765  1.4041 -0.1072 -0.4936
 9205TIP3    H249107   2.241   2.670   0.779  0.7797  0.5126 -0.4285
 9206TIP3   OH249108   3.478   5.108   1.171  0.3299 -0.1325 -0.1442
 9206TIP3    H149109   3.454   5.168   1.241  0.5426 -1.7898  1.4207
 9206TIP3    H249110   3.395   5.089   1.127  0.4413  2.3576 -1.6575
 9207TIP3   OH249111   4.083   5.356   2.174  0.2484  0.1346 -0.7038
 9207TIP3    H149112   4.129   5.435   2.146  0.4131 -0.0687 -1.0290
 9207TIP3    H249113   4.081   5.301   2.095 -0.0962 -0.0741 -0.5525
 9208TIP3   OH249114   5.447   6.520   6.180 -0.2091 -0.0913  0.4849
 9208TIP3    H149115   5.501   6.453   6.222 -1.0404 -2.3281 -1.7878
 9208TIP3    H249116   5.502   6.554   6.110 -0.2483  0.7270  0.8465
 9209TIP3   OH249117   5.577   1.871  12.920  0.6955 -0.2742  0.4189
 9209TIP3    H149118   5.569   1.902  12.830  0.4726  0.1760  0.5933
 9209TIP3    H249119   5.490   1.881  12.958  0.8332 -0.2754  0.7466
 9210TIP3   OH249120   4.977   2.153   0.251  0.5768  0.4929 -0.4266
 9210TIP3    H149121   5.064   2.116   0.268  0.4695  0.6265  0.4670
 9210TIP3    H249122   4.926   2.130   0.328 -0.3446 -0.0520 -1.1880
 9211TIP3   OH249123   3.867   0.945  11.679 -0.3784  0.2391  0.3704
 9211TIP3    H149124   3.907   0.898  11.607 -0.9209  2.9405 -1.8732
 9211TIP3    H249125   3.797   0.887  11.710  1.0977 -1.7855  0.1062
 9212TIP3   OH249126   2.853   6.347  14.078  0.0839  0.4971  0.7871
 9212TIP3    H149127   2.870   6.308  13.993 -2.2448  0.7370  0.1269
 9212TIP3    H249128   2.828   6.274  14.134 -2.5811  0.7162  0.0217
 9213TIP3   OH249129   2.398   4.807  17.419 -0.1525 -0.2211  0.3453
 9213TIP3    H149130   2.451   4.734  17.386  0.1471 -0.7037  1.8360
 9213TIP3    H249131   2.314   4.799  17.373  0.7804  0.1163 -1.4941
 9214TIP3   OH249132   6.384   1.001   0.669  0.6156 -0.0756  0.2200
 9214TIP3    H149133   6.370   1.025   0.761 -1.1528  1.7558 -0.4258
 9214TIP3    H249134   6.429   0.917   0.672  1.0820  0.1825  2.7502
 9215TIP3   OH249135   6.062   5.972   1.515  0.6320 -0.5412 -0.4838
 9215TIP3    H149136   6.131   6.018   1.562  0.7825 -1.0714 -0.1869
 9215TIP3    H249137   6.080   5.879   1.528  0.0166 -0.6891 -0.6204
 9216TIP3   OH249138   3.078   0.923  14.842 -0.3303  0.0698 -0.1913
 9216TIP3    H149139   3.106   1.015  14.844 -0.1362  0.0061  0.6991
 9216TIP3    H249140   3.081   0.896  14.934  1.4559 -1.3969 -0.6319
 9217TIP3   OH249141   5.161   5.055  11.188 -0.0228 -0.3055  0.7244
 9217TIP3    H149142   5.146   4.963  11.166 -0.5356  0.0481 -0.4881
 9217TIP3    H249143   5.159   5.101  11.103 -2.6260  1.2146  1.4715
 9218TIP3   OH249144   2.856   2.293   0.139  0.4295  0.0656  0.4053
 9218TIP3    H149145   2.760   2.292   0.142  0.2449  3.3293 -1.0308
 9218TIP3    H249146   2.882   2.351   0.211  1.3236 -0.2721  0.3732
 9219TIP3   OH249147   0.781   0.288  11.618 -0.3162 -0.2815 -0.2699
 9219TIP3    H149148   0.768   0.247  11.533  1.5899  1.1859 -1.3343
 9219TIP3    H249149   0.769   0.382  11.602  2.5248  0.2896  0.4534
 9220TIP3   OH249150   0.408   1.067   1.419  0.3683 -0.1882  0.1581
 9220TIP3    H149151   0.381   1.028   1.502 -2.1260  0.9018 -0.0314
 9220TIP3    H249152   0.389   1.001   1.353  1.7890 -0.8315  0.3723
 9221TIP3   OH249153   0.842   3.372  12.081  0.2376 -0.2280 -0.2500
 9221TIP3    H149154   0.902   3.370  12.006 -1.7639  1.8159 -2.0484
 9221TIP3    H249155   0.869   3.450  12.130  1.0019 -1.0816  0.7039
 9222TIP3   OH249156   2.282   1.213   6.176 -0.2819 -0.0599 -0.3824
 9222TIP3    H149157   2.303   1.123   6.201  1.6656  0.3370 -0.4032
 9222TIP3    H249158   2.365   1.249   6.145 -1.2313  1.4562 -1.3145
 9223TIP3   OH249159   0.474   5.966  11.398 -0.1834  0.0789 -0.4667
 9223TIP3    H149160   0.441   5.999  11.481  1.1003 -0.9323  0.4860
 9223TIP3    H249161   0.552   6.018  11.380  0.3051 -0.5975 -0.3402
 9224TIP3   OH249162   4.557   3.010   3.091  0.5485  0.3650 -0.1544
 9224TIP3    H149163   4.633   3.053   3.130 -0.2717  0.2461  1.6286
 9224TIP3    H249164   4.484   3.070   3.108 -0.2374 -0.7677  0.5594
 9225TIP3   OH249165   0.492   2.034  11.668 -0.5274 -0.0018 -0.1405
 9225TIP3    H149166   0.566   2.089  11.643 -0.3519 -0.3783 -0.4632
 9225TIP3    H249167   0.458   1.999  11.585 -0.9007 -0.0446  0.0245
 9226TIP3   OH249168   1.523   0.944   3.336 -0.0380  0.6955  0.7170
 9226TIP3    H149169   1.588   0.951   3.405 -0.1858  0.6786  0.8578
 9226TIP3    H249170   1.508   0.850   3.325 -0.5591  0.7221  1.1736
 9227TIP3   OH249171   4.363   1.248   6.600 -0.0553 -0.2247  0.6227
 9227TIP3    H149172   4.380   1.154   6.597  2.2458  0.1453  0.2086
 9227TIP3    H249173   4.447   1.287   6.624 -1.2839  1.6581  2.1327
 9228TIP3   OH249174   6.586   2.562  12.140 -0.1439  0.1910 -0.3103
 9228TIP3    H149175   6.566   2.482  12.189  0.7639  0.1997  0.0993
 9228TIP3    H249176   6.563   2.633  12.200 -0.7568  0.2451 -0.5981
 9229TIP3   OH249177   1.336   2.357   2.222  0.0173  0.5032 -0.2195
 9229TIP3    H149178   1.249   2.391   2.239  0.1525  0.3543  0.8570
 9229TIP3    H249179   1.395   2.426   2.252  0.2776  0.0336  0.3517
 9230TIP3   OH249180   3.246   5.530   2.049  0.0533 -0.1820 -0.8872
 9230TIP3    H149181   3.259   5.616   2.090  1.1290  0.9287 -3.3350
 9230TIP3    H249182   3.334   5.494   2.040 -0.3187 -1.1831 -0.6711
 9231TIP3   OH249183   6.767   3.192   0.765 -0.4715 -0.1946 -0.1837
 9231TIP3    H149184   6.808   3.205   0.850  0.3873  2.1931 -0.9107
 9231TIP3    H249185   6.811   3.115   0.728  0.4570 -0.1131  0.7381
 9232TIP3   OH249186   2.791   3.661   1.890 -0.1529 -0.4109  0.2588
 9232TIP3    H149187   2.754   3.616   1.965 -3.2906 -1.0652 -1.5189
 9232TIP3    H249188   2.787   3.597   1.819  1.5877  0.5656 -0.8156
 9233TIP3   OH249189   3.344   6.387  15.720 -0.3090  0.5038 -0.3965
 9233TIP3    H149190   3.392   6.466  15.744 -0.5228  0.5106  0.0276
 9233TIP3    H249191   3.386   6.317  15.772  0.6649  0.1144 -1.6589
 9234TIP3   OH249192   3.149   5.206   2.358 -0.4019 -0.0512  0.0718
 9234TIP3    H149193   3.163   5.300   2.365 -1.8033  0.2070 -0.4275
 9234TIP3    H249194   3.151   5.188   2.264 -2.0000 -0.2036  0.0533
 9235TIP3   OH249195   1.302   1.665   2.970 -0.0440 -0.1949 -0.8466
 9235TIP3    H149196   1.369   1.715   3.017 -1.3939  2.5568 -1.6274
 9235TIP3    H249197   1.321   1.574   2.991  1.5240  0.6840  2.1577
 9236TIP3   OH249198   5.384   6.407  11.346  0.4415  0.7052  0.2485
 9236TIP3    H149199   5.468   6.381  11.386 -0.3093 -0.6082  1.0633
 9236TIP3    H249200   5.372   6.344  11.275  0.7774  1.7540 -0.7679
 9237TIP3   OH249201   1.537   0.505   3.818 -0.3269 -0.4569  0.3099
 9237TIP3    H149202   1.595   0.433   3.793  0.4131 -0.6871  2.4903
 9237TIP3    H249203   1.526   0.556   3.738  2.1393 -0.9307 -0.4029
 9238TIP3   OH249204   2.576   3.334  15.634 -0.0102  0.5503 -0.3004
 9238TIP3    H149205   2.542   3.253  15.671  0.8797  0.4029  0.2113
 9238TIP3    H249206   2.499   3.376  15.595 -0.6789 -0.0292  0.3545
 9239TIP3   OH249207   0.796   5.471   5.832 -0.5638 -0.7179 -0.3124
 9239TIP3    H149208   0.788   5.482   5.927 -0.6407  0.6396 -0.4592
 9239TIP3    H249209   0.890   5.477   5.815 -0.6708  0.9535 -0.5028
 9240TIP3   OH249210   4.063   0.572  11.014 -0.0325  0.1415 -0.6146
 9240TIP3    H149211   4.134   0.522  11.055  0.9432  0.7086 -1.5533
 9240TIP3    H249212   4.098   0.597  10.928 -0.6229  2.0908 -0.3309
 9241TIP3   OH249213   2.344   1.809   4.613 -0.3908  0.2528  0.5686
 9241TIP3    H149214   2.310   1.886   4.566  0.2309  0.4907  0.5063
 9241TIP3    H249215   2.274   1.744   4.605  0.0189 -0.0189 -1.4182
 9242TIP3   OH249216   1.269   5.328  12.815 -0.5323 -0.1715 -0.2399
 9242TIP3    H149217   1.239   5.414  12.784 -0.1848 -0.4042 -1.2794
 9242TIP3    H249218   1.301   5.344  12.904 -0.8071  0.7067 -0.2922
 9243TIP3   OH249219   5.365   2.215   5.596 -0.1903 -0.5335  0.3719
 9243TIP3    H149220   5.437   2.154   5.582  0.7288 -0.0194  2.4849
 9243TIP3    H249221   5.286   2.161   5.593  0.2989 -1.2174 -1.2687
 9244TIP3   OH249222   2.521   0.211  13.770  0.7558  0.5089 -0.4604
 9244TIP3    H149223   2.445   0.173  13.814  0.6801 -1.5335 -2.2208
 9244TIP3    H249224   2.596   0.163  13.805  1.3243  2.5196  1.2766
 9245TIP3   OH249225   5.059   3.390  14.494  0.3877 -0.6376  0.4068
 9245TIP3    H149226   5.001   3.463  14.474 -1.1530 -1.9970 -0.2999
 9245TIP3    H249227   5.129   3.397  14.429 -0.4201 -0.4971 -0.4718
 9246TIP3   OH249228   6.072   0.824  17.438 -0.7339 -0.0158 -0.4713
 9246TIP3    H149229   6.003   0.839  17.503 -1.0338  0.0071 -0.7953
 9246TIP3    H249230   6.132   0.763  17.481 -0.1106  1.1783  0.4357
 9247TIP3   OH249231   0.245   5.308   5.871 -0.7223 -0.1028  0.1762
 9247TIP3    H149232   0.326   5.284   5.916 -0.2857  0.4648 -0.3023
 9247TIP3    H249233   0.237   5.242   5.802 -1.6796 -1.3090  1.3768
 9248TIP3   OH249234   0.076   5.975  13.040  0.0405  0.7596  0.3027
 9248TIP3    H149235   0.007   6.018  13.089 -1.4990  0.6285 -1.6390
 9248TIP3    H249236   0.079   6.020  12.956  1.7157  0.1749 -0.0076
 9249TIP3   OH249237   4.893   2.172   2.056 -0.0052 -0.4833 -0.2568
 9249TIP3    H149238   4.879   2.078   2.047 -1.3009 -0.3094 -0.2524
 9249TIP3    H249239   4.955   2.194   1.986 -1.4269 -0.9825 -1.7435
 9250TIP3   OH249240   1.541   5.955  12.889  0.2250 -0.0126 -0.1495
 9250TIP3    H149241   1.508   5.972  12.977 -1.7347 -1.7285 -0.4678
 9250TIP3    H249242   1.463   5.931  12.839  1.3264  0.6453 -2.3111
 9251TIP3   OH249243   4.281   2.252   1.835  0.8887 -0.1365 -0.2935
 9251TIP3    H149244   4.257   2.189   1.768 -1.5793  0.8222 -0.3970
 9251TIP3    H249245   4.311   2.329   1.786  0.2704  0.1212 -0.2694
 9252TIP3   OH249246   4.525   0.663   3.971  0.0360 -0.0739  0.4908
 9252TIP3    H149247   4.496   0.586   3.922  1.7495  1.3585 -3.0767
 9252TIP3    H249248   4.612   0.639   4.004  1.3393  0.7364 -2.0861
 9253TIP3   OH249249   1.881   6.092   3.059 -0.0177  0.0612 -0.1335
 9253TIP3    H149250   1.867   6.154   3.130  0.3621 -0.7598  0.6861
 9253TIP3    H249251   1.970   6.059   3.072 -1.1732 -2.8628  1.3144
 9254TIP3   OH249252   5.746   5.609  13.579 -0.1604  0.2760 -0.2790
 9254TIP3    H149253   5.801   5.623  13.502  1.5514 -2.0040  0.4119
 9254TIP3    H249254   5.675   5.672  13.569  0.8932  1.2154 -2.8382
 9255TIP3   OH249255   3.083   4.652  12.434  0.3685  0.7657 -0.0294
 9255TIP3    H149256   3.120   4.627  12.519  0.1092 -1.4433 -0.5114
 9255TIP3    H249257   3.126   4.736  12.413 -0.1178  1.7626  2.5852
 9256TIP3   OH249258   1.722   0.050  13.586  0.5881 -0.3715 -0.3586
 9256TIP3    H149259   1.747   0.096  13.666  0.9068  1.5939 -1.5099
 9256TIP3    H249260   1.801   0.002  13.561  1.8663  2.0935 -1.4765
 9257TIP3   OH249261   3.219   3.074   3.327  0.3303 -0.2532  0.4647
 9257TIP3    H149262   3.292   3.134   3.342 -0.7403  0.5472  2.9652
 9257TIP3    H249263   3.196   3.042   3.415 -1.3530 -1.6612 -0.4273
 9258TIP3   OH249264   5.235   3.320  16.343  0.3751 -0.8184 -0.6386
 9258TIP3    H149265   5.176   3.291  16.412  1.4958  0.2135  0.8179
 9258TIP3    H249266   5.184   3.311  16.263 -1.4372 -0.8009  0.4481
 9259TIP3   OH249267   1.578   5.400   5.333 -0.3503  0.3450  0.3884
 9259TIP3    H149268   1.503   5.372   5.386  0.8026 -1.1039  1.3412
 9259TIP3    H249269   1.610   5.320   5.292  0.6506  0.9389 -0.0379
 9260TIP3   OH249270   4.375   0.450  17.202  0.1093 -0.1155  0.3481
 9260TIP3    H149271   4.337   0.482  17.284  2.1794  1.9755  0.6031
 9260TIP3    H249272   4.300   0.418  17.152 -1.4379  0.1988  2.3212
 9261TIP3   OH249273   0.944   3.013   2.208 -0.7430  0.3984  0.1752
 9261TIP3    H149274   1.015   2.959   2.173 -0.5163  0.7012  0.1634
 9261TIP3    H249275   0.988   3.076   2.266 -1.1424 -0.3180  1.2968
 9262TIP3   OH249276   0.634   2.462   3.881  0.3219  0.1386  0.3842
 9262TIP3    H149277   0.567   2.498   3.824 -0.3027  1.8549  2.1062
 9262TIP3    H249278   0.717   2.486   3.838 -0.0981  2.6192  0.8226
 9263TIP3   OH249279   2.028   5.673  12.374 -0.2395 -0.1538  0.2163
 9263TIP3    H149280   1.985   5.718  12.447 -0.7189  0.7149 -0.5832
 9263TIP3    H249281   2.120   5.699  12.382 -0.5779  1.3940 -0.5021
 9264TIP3   OH249282   2.551   5.412   0.203  0.4521 -0.3416  0.1812
 9264TIP3    H149283   2.568   5.391   0.295 -0.2654 -0.1119  0.3757
 9264TIP3    H249284   2.475   5.359   0.180  0.1514  0.1782 -0.0443
 9265TIP3   OH249285   4.303   5.506   0.336 -0.5062 -0.4483 -0.0706
 9265TIP3    H149286   4.229   5.543   0.385 -0.6144 -1.6852  0.7372
 9265TIP3    H249287   4.263   5.465   0.259 -0.5117  0.0316 -0.3280
 9266TIP3   OH249288   2.226   5.743   4.652  0.1509 -0.0604  0.1605
 9266TIP3    H149289   2.273   5.742   4.735  1.1950 -2.3566 -0.3685
 9266TIP3    H249290   2.231   5.653   4.621 -1.3691  0.4477 -1.7696
 9267TIP3   OH249291   5.488   2.447  14.723  0.0255 -0.3975 -0.2410
 9267TIP3    H149292   5.508   2.469  14.632  0.0135  1.5729  0.1740
 9267TIP3    H249293   5.523   2.520  14.774  2.7832 -2.8530  1.7090
 9268TIP3   OH249294   0.954   3.746   1.209  0.6947 -0.4457 -0.0624
 9268TIP3    H149295   1.003   3.681   1.160  0.3507 -0.4877 -0.3487
 9268TIP3    H249296   0.880   3.698   1.247  1.2743 -0.5398  0.9824
 9269TIP3   OH249297   4.507   3.287  14.328 -0.1922 -0.4202  0.1547
 9269TIP3    H149298   4.588   3.253  14.290 -1.6847 -1.2531 -2.5656
 9269TIP3    H249299   4.486   3.227  14.399  1.4147 -0.3001  0.7782
 9270TIP3   OH249300   1.534   1.893   3.161  0.3044  1.0899 -0.4849
 9270TIP3    H149301   1.552   1.917   3.252  1.3148  0.7177 -0.5669
 9270TIP3    H249302   1.507   1.975   3.119 -2.2431  0.8688  0.6023
 9271TIP3   OH249303   5.479   3.101  14.653  0.1203 -0.1969  0.6697
 9271TIP3    H149304   5.514   3.014  14.668 -0.1263 -0.5921 -0.8724
 9271TIP3    H249305   5.384   3.091  14.664 -0.1224 -0.6177 -1.4815
 9272TIP3   OH249306   4.737   5.231  14.110 -0.0188 -0.0437 -0.0224
 9272TIP3    H149307   4.743   5.286  14.188  1.6853 -2.6911  1.8882
 9272TIP3    H249308   4.665   5.268  14.060 -0.5138  2.4149  2.2820
 9273TIP3   OH249309   6.021   5.321  14.163  0.1339 -0.2213 -0.0096
 9273TIP3    H149310   5.951   5.326  14.098  0.5619  1.2508 -0.3957
 9273TIP3    H249311   6.085   5.261  14.124 -0.9899 -1.8006  0.4695
 9274TIP3   OH249312   2.176   4.657   0.841  0.3950 -0.1381  0.1493
 9274TIP3    H149313   2.152   4.600   0.914  0.5642 -0.3070  0.0739
 9274TIP3    H249314   2.105   4.721   0.836 -1.5713 -2.2657 -1.8532
 9275TIP3   OH249315   6.200   4.001  14.273  0.1158 -0.0708  0.3614
 9275TIP3    H149316   6.288   3.964  14.271  0.6947  1.2842 -0.6060
 9275TIP3    H249317   6.157   3.958  14.347  1.1789 -1.6476  0.0947
 9276TIP3   OH249318   3.784   1.103   1.771  0.0710  0.5862  0.1280
 9276TIP3    H149319   3.814   1.185   1.734 -1.0271  0.5805 -0.8244
 9276TIP3    H249320   3.850   1.039   1.745 -0.1473  0.7836 -0.9630
 9277TIP3   OH249321   1.663   2.777   0.584  0.2269  0.1161  0.3547
 9277TIP3    H149322   1.639   2.851   0.528  1.4613  0.3824  0.1461
 9277TIP3    H249323   1.595   2.774   0.651 -0.1797  1.0488 -0.0035
 9278TIP3   OH249324   0.009   0.945   4.249 -0.5125 -0.7013  0.2169
 9278TIP3    H149325  -0.055   0.980   4.311  0.5514 -2.2247  2.2892
 9278TIP3    H249326  -0.037   0.874   4.204 -0.4301 -1.5137  1.3883
 9279TIP3   OH249327   1.063   3.773  15.807 -0.1659 -0.0816  0.1746
 9279TIP3    H149328   1.045   3.782  15.713 -2.1916  0.9952  0.6038
 9279TIP3    H249329   1.022   3.689  15.830 -0.8067  0.2704  0.3289
 9280TIP3   OH249330   1.210   3.286  16.047  0.3638  0.2858 -0.0126
 9280TIP3    H149331   1.250   3.290  16.134 -0.0220  0.6391  0.1519
 9280TIP3    H249332   1.116   3.286  16.063  0.2900 -0.2717 -0.4094
 9281TIP3   OH249333   6.414   2.868  15.025  0.3322 -0.0656 -0.6753
 9281TIP3    H149334   6.384   2.860  15.115 -0.7833 -0.5326 -1.0647
 9281TIP3    H249335   6.385   2.787  14.982  0.7994  0.1671 -1.4665
 9282TIP3   OH249336   5.230   1.233  15.473  0.0290 -0.1704 -0.1807
 9282TIP3    H149337   5.225   1.144  15.508 -0.6493 -0.0359  0.0777
 9282TIP3    H249338   5.321   1.259  15.487  0.6587 -1.4012 -1.7031
 9283TIP3   OH249339   2.471   5.928  12.438  0.1921 -0.8341 -0.1948
 9283TIP3    H149340   2.495   6.006  12.488 -2.5898  0.6223 -0.9014
 9283TIP3    H249341   2.435   5.867  12.503 -0.6629 -0.1569 -0.0134
 9284TIP3   OH249342   2.614   3.137  15.434  0.3589 -0.2760  0.1275
 9284TIP3    H149343   2.653   3.224  15.443 -1.5436  0.5810  0.3833
 9284TIP3    H249344   2.648   3.088  15.509 -0.2981  0.9319  1.2451
 9285TIP3   OH249345   1.864   5.755  13.158  0.0782 -0.2226 -1.2100
 9285TIP3    H149346   1.802   5.803  13.214  0.7283  0.6883 -1.2495
 9285TIP3    H249347   1.885   5.676  13.208 -0.1303  0.0891 -0.6119
 9286TIP3   OH249348   2.313   2.142  14.890 -0.2410 -0.2670 -0.2386
 9286TIP3    H149349   2.324   2.048  14.874 -2.7164 -0.5333 -0.7562
 9286TIP3    H249350   2.244   2.147  14.956  0.4673  1.2057  0.4540
 9287TIP3   OH249351   3.547   1.954  14.813 -0.2528 -0.4363  0.6021
 9287TIP3    H149352   3.459   1.980  14.789 -0.0820 -0.4502 -0.0451
 9287TIP3    H249353   3.546   1.951  14.909 -1.0366 -0.7492  0.5853
 9288TIP3   OH249354   6.629   5.712   0.498 -0.4803 -0.5524  0.7699
 9288TIP3    H149355   6.718   5.723   0.531 -0.3741  0.1827  0.2637
 9288TIP3    H249356   6.625   5.620   0.469 -0.0743 -0.7469  1.3157
 9289TIP3   OH249357   3.941   2.483  11.475 -0.2583  0.1530 -0.0507
 9289TIP3    H149358   3.910   2.479  11.385  0.0330  0.1489 -0.1489
 9289TIP3    H249359   4.003   2.411  11.483 -0.9834 -0.4332  0.4190
 9290TIP3   OH249360   5.082   3.182   3.052  0.6983  0.4408  0.0837
 9290TIP3    H149361   5.016   3.161   2.986  0.4905 -0.0928  0.4491
 9290TIP3    H249362   5.038   3.244   3.111  0.9030  0.9618 -0.3024
 9291TIP3   OH249363   6.181   5.538   3.581 -0.1084  0.5869 -0.1770
 9291TIP3    H149364   6.213   5.522   3.493  2.3770  1.5721  0.4572
 9291TIP3    H249365   6.109   5.600   3.571 -0.5910 -0.1563 -1.5365
 9292TIP3   OH249366   1.298   2.408  14.070  0.0026  0.3873  0.3296
 9292TIP3    H149367   1.249   2.404  14.152  0.5076  0.7458  0.6571
 9292TIP3    H249368   1.367   2.472  14.087  0.7176 -0.2741 -0.0461
 9293TIP3   OH249369   2.084   6.207   6.400  0.1943  0.3639  0.4529
 9293TIP3    H149370   1.989   6.207   6.399  0.1926 -0.2632 -0.3720
 9293TIP3    H249371   2.109   6.264   6.327  0.4388 -0.1343  0.1397
 9294TIP3   OH249372   0.383   2.748   0.961  0.0802  0.9751  0.3308
 9294TIP3    H149373   0.381   2.692   1.038  1.2651 -1.6136 -1.3735
 9294TIP3    H249374   0.297   2.735   0.920  0.3116  0.4194 -0.0008
 9295TIP3   OH249375   4.551   0.279   3.311 -0.1550 -0.5553  0.1162
 9295TIP3    H149376   4.459   0.283   3.337 -0.5045 -1.6174 -0.8473
 9295TIP3    H249377   4.554   0.325   3.227  0.7266  1.7689  1.3140
 9296TIP3   OH249378   6.375   2.262  14.065  0.0578 -0.4781 -0.5097
 9296TIP3    H149379   6.431   2.331  14.030 -1.9312  1.2563 -0.4520
 9296TIP3    H249380   6.383   2.271  14.160 -0.0018 -0.4963 -0.5027
 9297TIP3   OH249381   0.112   6.658   2.521 -0.1069 -0.2033  0.3497
 9297TIP3    H149382   0.034   6.605   2.505 -0.2778  0.0541  0.3365
 9297TIP3    H249383   0.088   6.714   2.595  1.4437 -3.0548  3.3013
 9298TIP3   OH249384   2.299   5.331   2.424 -0.2346 -0.2930  0.4855
 9298TIP3    H149385   2.307   5.311   2.517  2.0913 -2.4763 -0.0626
 9298TIP3    H249386   2.269   5.249   2.384  0.1831  0.1519 -0.8187
 9299TIP3   OH249387   0.084   5.636   2.971  0.2819  0.1453 -0.0263
 9299TIP3    H149388   0.164   5.620   2.921  0.3072 -0.8364  0.2963
 9299TIP3    H249389   0.038   5.703   2.922  0.7019 -0.1962 -0.9082
 9300TIP3   OH249390   2.612   5.662  15.112 -0.5615  0.2787 -0.1178
 9300TIP3    H149391   2.640   5.671  15.021  1.1607 -0.6924  0.2530
 9300TIP3    H249392   2.642   5.742  15.154  1.5843 -0.6193  0.2079
 9301TIP3   OH249393   3.774   2.986  17.092  0.3698 -0.1629  0.2372
 9301TIP3    H149394   3.820   2.951  17.017  0.1328  0.2569 -0.1093
 9301TIP3    H249395   3.822   3.066  17.115 -0.6866  0.7670 -0.6789
 9302TIP3   OH249396   4.150   1.125   6.362 -0.0695  0.4238  0.3935
 9302TIP3    H149397   4.068   1.172   6.346 -0.1969  0.2522  0.5347
 9302TIP3    H249398   4.136   1.080   6.445 -1.2032 -2.5267 -1.2510
 9303TIP3   OH249399   4.266   1.167   3.693 -0.1835  0.2289 -0.0499
 9303TIP3    H149400   4.253   1.186   3.786  1.7881  0.5645  0.2060
 9303TIP3    H249401   4.356   1.194   3.675 -0.5900  0.4166 -2.1337
 9304TIP3   OH249402   3.118   5.873  14.678  0.3281 -0.1098 -0.4489
 9304TIP3    H149403   3.085   5.830  14.599  0.4808 -0.1973 -0.4659
 9304TIP3    H249404   3.116   5.967  14.657 -0.7289 -0.0530 -0.1357
 9305TIP3   OH249405   5.979   0.001  16.724 -0.7189 -0.0668  0.2150
 9305TIP3    H149406   5.969   0.035  16.813  0.6582  0.5381  0.1689
 9305TIP3    H249407   5.929   0.061  16.669  0.4215  1.0248  0.3186
 9306TIP3   OH249408   4.238   0.050  15.139 -0.1742 -0.3643 -0.1363
 9306TIP3    H149409   4.199   0.048  15.051 -0.5168  1.5819 -0.0719
 9306TIP3    H249410   4.327   0.082  15.124 -0.2148 -0.0829  0.2145
 9307TIP3   OH249411   1.977   6.633  15.872 -0.4284  0.3571 -0.5035
 9307TIP3    H149412   2.010   6.656  15.959 -1.8394  2.8299 -0.5131
 9307TIP3    H249413   1.899   6.688  15.861 -1.1959 -1.0429 -2.7172
 9308TIP3   OH249414   1.619   5.658  12.162 -0.8181  0.3114 -0.3184
 9308TIP3    H149415   1.677   5.627  12.093  2.2724  4.5531  0.0506
 9308TIP3    H249416   1.548   5.702  12.116 -1.0049 -0.3924 -0.7277
 9309TIP3   OH249417   3.893   1.630  11.554 -0.6775  0.1197 -0.5079
 9309TIP3    H149418   3.852   1.544  11.544  0.6822 -0.9137  1.9487
 9309TIP3    H249419   3.985   1.611  11.570 -0.7291  1.8142  2.5471
 9310TIP3   OH249420   5.571   0.512  17.427  0.1382  0.5007  1.2463
 9310TIP3    H149421   5.480   0.485  17.443  0.0809  0.4504  0.8638
 9310TIP3    H249422   5.564   0.598  17.387  0.2104  0.1305  0.4106
 9311TIP3   OH249423   4.326   0.452  15.723  0.0573  0.0242 -0.1820
 9311TIP3    H149424   4.279   0.392  15.781 -1.7516  1.7807  0.2788
 9311TIP3    H249425   4.400   0.401  15.691 -0.1738 -1.7510  1.8617
 9312TIP3   OH249426   4.356   5.855  10.925 -0.7090  0.2768 -0.0251
 9312TIP3    H149427   4.410   5.791  10.971 -0.1578  1.2574  0.7424
 9312TIP3    H249428   4.412   5.932  10.917 -1.4873  0.7986 -0.5713
 9313TIP3   OH249429   1.246   6.476  13.599 -0.0099 -0.2547  0.4486
 9313TIP3    H149430   1.191   6.520  13.664  1.5728  0.5676  1.2923
 9313TIP3    H249431   1.247   6.384  13.627 -0.4184 -0.1546  0.8012
 9314TIP3   OH249432   3.845   1.533  16.038  0.0309  0.2444 -0.1565
 9314TIP3    H149433   3.864   1.482  15.960 -0.4297  0.7807 -0.6220
 9314TIP3    H249434   3.782   1.599  16.010  1.2722  1.6529  0.2175
 9315TIP3   OH249435   6.745   1.105  11.159  0.5172  0.4364  0.6130
 9315TIP3    H149436   6.714   1.177  11.214  1.0618  1.1247  0.0299
 9315TIP3    H249437   6.664   1.063  11.129  0.1140  1.8011 -0.3387
 9316TIP3   OH249438   1.173   4.244   1.197 -0.0832  0.5134 -0.2381
 9316TIP3    H149439   1.128   4.160   1.193 -0.3027  0.6261 -0.1449
 9316TIP3    H249440   1.126   4.293   1.265 -0.4134  0.9794 -0.7949
 9317TIP3   OH249441   4.694   3.232   5.851 -0.0567 -0.0762 -0.2288
 9317TIP3    H149442   4.729   3.204   5.767  0.3509  0.9849 -0.4317
 9317TIP3    H249443   4.620   3.174   5.867 -0.4789  0.0542 -1.5771
 9318TIP3   OH249444   2.064   1.996   6.521 -0.1994 -0.6179  0.3774
 9318TIP3    H149445   2.054   1.933   6.450  1.0775 -0.7733  0.3136
 9318TIP3    H249446   2.126   2.060   6.487  0.3052 -0.6084  1.2899
 9319TIP3   OH249447   0.541   4.585   2.920 -0.0622 -0.5515  0.2437
 9319TIP3    H149448   0.599   4.555   2.850  0.7691 -0.8407  1.0426
 9319TIP3    H249449   0.563   4.677   2.931 -0.3839 -0.4378 -0.0565
 9320TIP3   OH249450   0.764   5.434   2.609  0.0128 -0.3975 -0.3957
 9320TIP3    H149451   0.833   5.392   2.661 -0.0741 -0.1949 -0.1119
 9320TIP3    H249452   0.723   5.362   2.561  0.2724 -0.5514 -0.3885
 9321TIP3   OH249453   6.194   2.638  11.684 -0.1011 -0.2070  0.0029
 9321TIP3    H149454   6.253   2.643  11.608 -0.1122 -1.0003 -0.0648
 9321TIP3    H249455   6.232   2.698  11.748 -0.5990  1.1865 -0.9613
 9322TIP3   OH249456   2.016   0.036  12.314 -0.2891  0.0264  0.5533
 9322TIP3    H149457   1.977   0.056  12.400 -0.8527  0.2531  0.2489
 9322TIP3    H249458   2.052  -0.052  12.325  1.0369  0.6554  1.5003
 9323TIP3   OH249459   6.049   3.625  13.294  0.0935 -0.1023  0.3603
 9323TIP3    H149460   6.042   3.674  13.212  0.1271  0.7770  0.8608
 9323TIP3    H249461   5.970   3.650  13.343 -0.2489 -1.1197  0.3391
 9324TIP3   OH249462   4.194   0.246   4.793 -0.6142  0.6712  0.1629
 9324TIP3    H149463   4.262   0.267   4.857  1.0720 -1.0560 -0.9698
 9324TIP3    H249464   4.239   0.196   4.724 -3.1623 -1.3588 -0.2070
 9325TIP3   OH249465   1.191   3.763   2.741 -0.1462  0.1717 -0.1509
 9325TIP3    H149466   1.276   3.764   2.785 -1.3111 -1.4638  2.4097
 9325TIP3    H249467   1.172   3.854   2.722  2.7780  0.4969 -2.2398
 9326TIP3   OH249468   5.635   3.054   3.527 -0.1787 -0.1825  0.0849
 9326TIP3    H149469   5.628   3.061   3.622  0.1020  1.7864 -0.0071
 9326TIP3    H249470   5.660   2.963   3.511  0.8183 -0.2755  1.9603
 9327TIP3   OH249471   6.182   3.948   3.193  0.1713 -0.2419 -0.0067
 9327TIP3    H149472   6.099   3.929   3.238 -2.0174  0.6696 -3.2576
 9327TIP3    H249473   6.180   4.043   3.179  1.2666 -0.3409 -0.9746
 9328TIP3   OH249474   5.018   5.361   6.352  0.3877 -0.1962 -0.2607
 9328TIP3    H149475   4.980   5.427   6.294  0.6545 -0.5021 -0.7929
 9328TIP3    H249476   5.107   5.349   6.319  0.3852 -0.7246 -0.0864
 9329TIP3   OH249477   5.116   5.309   4.440  0.6798  0.5803 -0.1625
 9329TIP3    H149478   5.023   5.308   4.460  0.5312  2.0010 -0.6846
 9329TIP3    H249479   5.159   5.310   4.525  0.2190  0.3520  0.0794
 9330TIP3   OH249480   1.137   1.959   1.558 -0.2321  0.1612  0.0909
 9330TIP3    H149481   1.154   1.969   1.465 -0.9427 -1.0402 -0.1901
 9330TIP3    H249482   1.049   1.993   1.570  0.2802  1.3759  0.5527
 9331TIP3   OH249483   0.332   0.255  13.473  0.2973 -0.0396 -0.4559
 9331TIP3    H149484   0.272   0.298  13.533  1.2856  1.1286 -0.2723
 9331TIP3    H249485   0.417   0.293  13.492  1.2387 -2.0863 -0.2955
 9332TIP3   OH249486   2.207   3.352  16.536 -0.1441 -0.8348 -0.2809
 9332TIP3    H149487   2.285   3.402  16.515 -0.4212  0.8069  2.1064
 9332TIP3    H249488   2.226   3.312  16.621 -2.2372  0.6628  1.0195
 9333TIP3   OH249489   2.134   3.020   5.822  0.3478 -0.4477 -0.3519
 9333TIP3    H149490   2.067   2.972   5.871 -0.2099  0.0347 -0.6340
 9333TIP3    H249491   2.145   3.102   5.870 -1.8540  1.0603 -2.1907
 9334TIP3   OH249492   5.351   5.276   5.629  0.1172  0.2982  0.5475
 9334TIP3    H149493   5.328   5.369   5.634  0.6485  0.5231 -0.8353
 9334TIP3    H249494   5.420   5.272   5.564 -0.7759 -1.2276 -0.3640
 9335TIP3   OH249495   0.118   5.983   2.760  0.2588  0.3677 -0.3826
 9335TIP3    H149496   0.100   6.077   2.749 -0.5903  0.2898  0.2280
 9335TIP3    H249497   0.187   5.964   2.696 -0.4597  1.1322 -1.4190
 9336TIP3   OH249498   3.014   3.214  16.301  0.0237  0.4983 -0.1658
 9336TIP3    H149499   3.098   3.212  16.255 -0.3162  0.6435 -0.8047
 9336TIP3    H249500   2.973   3.130  16.279 -0.5043  0.9125 -0.8458
 9337TIP3   OH249501   4.454   4.602   2.689 -0.4210  0.1369 -0.1628
 9337TIP3    H149502   4.501   4.572   2.767 -0.1862 -0.4752 -0.5293
 9337TIP3    H249503   4.519   4.596   2.619 -0.6032  0.7734 -0.3913
 9338TIP3   OH249504   5.755   1.531  14.633 -1.0578  0.3278 -0.4574
 9338TIP3    H149505   5.784   1.516  14.724 -1.5384 -0.4611 -0.4213
 9338TIP3    H249506   5.774   1.448  14.589 -1.2783  0.5430 -0.9570
 9339TIP3   OH249507   5.270   5.750  12.929  0.1113 -0.2082 -0.0601
 9339TIP3    H149508   5.201   5.790  12.877  0.3493  1.9187  1.1237
 9339TIP3    H249509   5.224   5.713  13.005  0.2606  1.6086  0.9575
 9340TIP3   OH249510   3.137   2.221   1.725  0.6274  0.1608 -0.0046
 9340TIP3    H149511   3.179   2.162   1.662  0.9055  1.4711 -1.0968
 9340TIP3    H249512   3.049   2.236   1.690 -0.2251 -1.2450  1.3976
 9341TIP3   OH249513   5.426   2.596   4.679  0.5231  0.2218  0.0905
 9341TIP3    H149514   5.406   2.687   4.701  0.5443 -0.0806  1.3976
 9341TIP3    H249515   5.452   2.556   4.762  1.4298 -0.7460 -0.6379
 9342TIP3   OH249516   0.075   5.221   6.068 -0.6773 -0.9064 -0.8175
 9342TIP3    H149517   0.149   5.255   6.019 -0.7980 -0.3076 -0.5992
 9342TIP3    H249518   0.021   5.298   6.085 -0.4981 -1.0496  0.4910
 9343TIP3   OH249519   6.551   6.570  11.715  0.1760 -0.0129  0.0469
 9343TIP3    H149520   6.501   6.530  11.786  0.4076 -1.1124 -0.3931
 9343TIP3    H249521   6.623   6.510  11.699  1.2295  1.1852  0.1582
 9344TIP3   OH249522   3.184   6.636   3.947 -0.2469 -0.4574  0.1080
 9344TIP3    H149523   3.108   6.579   3.943  0.7525 -2.0256  1.8856
 9344TIP3    H249524   3.158   6.707   4.007 -0.4530 -0.7514  0.3687
 9345TIP3   OH249525   2.769   3.248   6.747  0.3015 -0.1307  0.2677
 9345TIP3    H149526   2.686   3.296   6.737  0.2045 -0.4794 -0.7629
 9345TIP3    H249527   2.805   3.244   6.658  0.0768 -2.3586  0.2208
 9346TIP3   OH249528   2.706   2.132  11.072 -0.2284 -0.3222  0.6553
 9346TIP3    H149529   2.708   2.188  11.149  0.0968 -0.7724  0.9740
 9346TIP3    H249530   2.614   2.106  11.063 -0.2769 -0.2166  0.8454
 9347TIP3   OH249531   2.166   1.808   6.268 -0.2862 -0.5154 -0.2268
 9347TIP3    H149532   2.233   1.779   6.330  0.3978  1.6770  0.1285
 9347TIP3    H249533   2.096   1.743   6.278  0.3892 -1.0283  1.8268
 9348TIP3   OH249534   5.358   5.718  11.886  0.4583  0.4495 -0.0451
 9348TIP3    H149535   5.452   5.727  11.897  0.7495 -0.1259 -1.7683
 9348TIP3    H249536   5.334   5.785  11.822 -0.0433 -0.2997 -0.6718
 9349TIP3   OH249537   1.004   1.005   3.792  0.5216 -0.1627  0.0940
 9349TIP3    H149538   0.933   1.068   3.790  0.7708  0.1074 -0.4780
 9349TIP3    H249539   0.986   0.945   3.719  0.1379 -0.9233  0.7945
 9350TIP3   OH249540   3.422   0.082   5.980 -0.0679  0.3927  0.1725
 9350TIP3    H149541   3.369   0.082   6.059  0.4658 -2.6719  0.6487
 9350TIP3    H249542   3.362   0.052   5.911  0.1859  0.2894 -0.0049
 9351TIP3   OH249543   1.188   3.054  12.495 -0.4347 -0.4551 -0.3205
 9351TIP3    H149544   1.194   3.027  12.404  1.3270  0.4695 -0.5113
 9351TIP3    H249545   1.134   3.133  12.494 -0.5975 -0.5695 -0.5364
 9352TIP3   OH249546   0.891   0.090  17.243 -0.4060  0.4749  0.1965
 9352TIP3    H149547   0.828   0.136  17.188 -0.3035  1.4990  0.9076
 9352TIP3    H249548   0.858   0.000  17.249 -2.4199  1.2377  1.4419
 9353TIP3   OH249549   4.355   5.375   5.908 -0.1142  0.6065 -0.0524
 9353TIP3    H149550   4.370   5.345   5.818  1.3778 -0.7964  0.6258
 9353TIP3    H249551   4.260   5.374   5.918 -0.2763  0.1981 -1.4145
 9354TIP3   OH249552   4.536   0.844  12.521  0.4803 -0.2225 -0.1566
 9354TIP3    H149553   4.589   0.921  12.498  2.5851 -1.4940  0.1950
 9354TIP3    H249554   4.449   0.865  12.489  1.3679  1.6254 -1.5499
 9355TIP3   OH249555   4.226   3.634  16.759  0.0747  0.0696 -0.2188
 9355TIP3    H149556   4.190   3.594  16.838 -1.7370 -1.5361 -1.7839
 9355TIP3    H249557   4.199   3.577  16.688  1.0799  1.8249 -2.1201
 9356TIP3   OH249558   1.058   5.547   5.669  0.2934 -0.3719  0.1454
 9356TIP3    H149559   1.093   5.477   5.725  3.6041  0.2104 -0.9859
 9356TIP3    H249560   1.124   5.617   5.674 -1.0159  1.1092 -1.8019
 9357TIP3   OH249561   0.037   1.631  14.125 -0.6521 -0.3512 -0.4868
 9357TIP3    H149562   0.058   1.539  14.137 -2.1216 -0.7203 -0.5248
 9357TIP3    H249563   0.001   1.659  14.209 -1.6970 -0.2700 -0.9414
 9358TIP3   OH249564   3.353   1.490  10.457  0.1079  0.1249  0.5132
 9358TIP3    H149565   3.363   1.485  10.552  2.9852  1.8046  0.4091
 9358TIP3    H249566   3.271   1.538  10.445 -1.2533 -1.6745  2.0423
 9359TIP3   OH249567   5.839   4.642  11.377  0.3242 -0.0958 -0.0188
 9359TIP3    H149568   5.754   4.686  11.378  0.0255 -0.6571 -0.0922
 9359TIP3    H249569   5.818   4.550  11.394  0.8312 -0.3849 -0.9090
 9360TIP3   OH249570   0.266   4.693   2.239  0.2464  0.3056 -0.4233
 9360TIP3    H149571   0.174   4.700   2.266 -0.4012 -0.6219 -2.1471
 9360TIP3    H249572   0.265   4.717   2.146  2.2353  2.8698  0.1205
 9361TIP3   OH249573   5.904   1.034  14.396 -0.4534  0.3496 -0.2762
 9361TIP3    H149574   5.899   0.981  14.317 -0.9185  0.5741 -0.3949
 9361TIP3    H249575   5.885   0.973  14.467 -0.7686  0.3086 -0.3959
 9362TIP3   OH249576   0.785   0.190  15.580 -0.1621 -0.4002  0.1376
 9362TIP3    H149577   0.819   0.146  15.658  1.7322 -0.5362 -0.7189
 9362TIP3    H249578   0.752   0.118  15.525  0.8733 -0.5832 -0.2776
 9363TIP3   OH249579   3.046   5.293   4.967 -0.0532  0.1582  0.3848
 9363TIP3    H149580   2.976   5.246   5.012  0.6143 -0.1594  1.1312
 9363TIP3    H249581   3.060   5.243   4.887 -1.0990  0.5954 -0.0857
 9364TIP3   OH249582   0.657   6.504   4.312 -0.6649 -0.4271 -0.5546
 9364TIP3    H149583   0.732   6.522   4.255 -0.2704 -0.5053 -0.0648
 9364TIP3    H249584   0.695   6.486   4.398 -1.1521 -1.7835 -0.5939
 9365TIP3   OH249585   1.124   2.934  13.388  0.0575 -0.7755 -0.1096
 9365TIP3    H149586   1.047   2.881  13.411  0.1736 -1.6634 -1.6604
 9365TIP3    H249587   1.098   3.024  13.409 -1.8503 -0.9124 -1.6079
 9366TIP3   OH249588   6.296   2.047   2.237 -0.9741 -0.3898  0.0751
 9366TIP3    H149589   6.386   2.032   2.209 -0.9630  1.5938 -1.1779
 9366TIP3    H249590   6.245   1.978   2.195 -0.4013  0.1960 -1.6434
 9367TIP3   OH249591   1.309   6.023  14.240  0.3015  0.1177 -0.7627
 9367TIP3    H149592   1.280   6.101  14.285 -1.6607 -0.2328 -1.3423
 9367TIP3    H249593   1.386   5.993  14.289  0.7486  2.0570 -0.2123
 9368TIP3   OH249594   1.879   6.016   3.383  0.3565 -0.0419  0.2683
 9368TIP3    H149595   1.852   6.094   3.336 -0.4172 -0.8191 -0.5979
 9368TIP3    H249596   1.967   5.997   3.350 -0.9084 -1.7394 -2.4982
 9369TIP3   OH249597   5.250   2.735   5.635  0.8109  0.4315 -0.0146
 9369TIP3    H149598   5.297   2.789   5.699  1.7905 -0.1430 -0.2293
 9369TIP3    H249599   5.261   2.645   5.666  2.1179  0.0392 -1.4494
 9370TIP3   OH249600   5.542   3.258  12.551  0.1272  0.3192  0.6619
 9370TIP3    H149601   5.528   3.193  12.482  1.0243  0.0347  0.7350
 9370TIP3    H249602   5.489   3.333  12.524 -1.1496 -0.5453  0.7312
 9371TIP3   OH249603   6.626   5.783   2.868 -0.3623  0.2809  0.2731
 9371TIP3    H149604   6.630   5.710   2.807  2.0457 -0.2037  0.9125
 9371TIP3    H249605   6.635   5.861   2.813  1.4368 -0.1329 -0.0840
 9372TIP3   OH249606   6.322   4.172   0.979  0.2871  0.2259  0.2468
 9372TIP3    H149607   6.399   4.119   0.958 -0.4909 -0.1203 -2.0413
 9372TIP3    H249608   6.263   4.112   1.024 -0.1336 -0.6194 -1.3496
 9373TIP3   OH249609   0.172   0.024   1.195 -0.2492  0.2463 -0.1197
 9373TIP3    H149610   0.188  -0.007   1.106 -2.2824  2.6083 -1.4457
 9373TIP3    H249611   0.215   0.110   1.198  1.5733 -0.6529  1.9447
 9374TIP3   OH249612   3.350   6.181   1.593  0.0496  0.5661 -0.7173
 9374TIP3    H149613   3.281   6.245   1.609  0.9832  1.4810 -0.2222
 9374TIP3    H249614   3.310   6.097   1.613 -0.4215  1.2219  1.2623
 9375TIP3   OH249615   1.166   5.892  11.347  0.3199 -0.4659 -0.0729
 9375TIP3    H149616   1.131   5.974  11.311  2.0490  0.8465  1.0856
 9375TIP3    H249617   1.260   5.897  11.332  0.2946 -3.2648 -1.8600
 9376TIP3   OH249618   0.144   0.047  12.738 -0.4934  0.0062  1.0735
 9376TIP3    H149619   0.240   0.046  12.733 -0.5311 -0.3240  0.3779
 9376TIP3    H249620   0.124  -0.015  12.809 -0.3411 -3.5237 -1.6953
 9377TIP3   OH249621   1.715   1.707  16.088  0.2856  0.1740  0.1055
 9377TIP3    H149622   1.670   1.791  16.092  0.6093  0.5933 -2.8836
 9377TIP3    H249623   1.652   1.644  16.123 -0.0550  1.5557  2.1738
 9378TIP3   OH249624   5.807   1.373  11.743  0.3981 -0.1300 -0.6165
 9378TIP3    H149625   5.748   1.434  11.700  2.2035  1.4438 -1.0087
 9378TIP3    H249626   5.838   1.315  11.673 -0.9886 -1.2893 -0.3204
 9379TIP3   OH249627   4.157   6.115   6.303  0.1738 -0.1180  0.6383
 9379TIP3    H149628   4.185   6.042   6.249  0.3852 -0.8438  1.7115
 9379TIP3    H249629   4.215   6.113   6.379  0.4016  1.3748  0.5299
 9380TIP3   OH249630   1.986   5.390   3.735 -0.5221 -0.0231  0.3011
 9380TIP3    H149631   2.020   5.348   3.814  2.4899  0.6234 -0.5255
 9380TIP3    H249632   1.958   5.476   3.764 -1.7592 -0.6498  1.0571
 9381TIP3   OH249633   0.529   5.972  12.527 -0.3090 -0.4488 -0.1608
 9381TIP3    H149634   0.509   6.052  12.575  1.3934  0.6554 -1.1617
 9381TIP3    H249635   0.527   5.903  12.593 -0.5507  0.6148  0.9870
 9382TIP3   OH249636   4.562   3.506  16.538 -0.9165  0.0864 -0.3551
 9382TIP3    H149637   4.595   3.450  16.467  0.0285  0.2844 -0.0876
 9382TIP3    H249638   4.485   3.460  16.571 -0.5985 -0.6752 -0.6467
 9383TIP3   OH249639   3.984   1.058  13.792 -0.4362  0.3593 -0.1969
 9383TIP3    H149640   3.942   0.977  13.762 -0.1234  1.0106 -2.6109
 9383TIP3    H249641   4.076   1.035  13.800 -0.4365  0.3254 -0.2883
 9384TIP3   OH249642   0.998   0.138   2.832  0.2851  0.1564  0.2666
 9384TIP3    H149643   0.978   0.156   2.923  1.4328  1.3531  0.3146
 9384TIP3    H249644   1.092   0.120   2.830  0.1105 -0.7954 -0.5567
 9385TIP3   OH249645   6.276   6.090   5.853 -0.3780  0.3461  0.2613
 9385TIP3    H149646   6.275   6.141   5.934 -0.2950  0.0874  0.4256
 9385TIP3    H249647   6.333   6.016   5.872 -0.6802  0.0690  0.0961
 9386TIP3   OH249648   4.405   3.248   3.113  0.1630 -0.3193 -0.4130
 9386TIP3    H149649   4.323   3.290   3.088  0.6818  0.8701 -0.1748
 9386TIP3    H249650   4.468   3.275   3.046 -0.1077 -3.0821 -1.9270
 9387TIP3   OH249651   3.003   3.833   1.829  0.0473 -0.3238 -0.1307
 9387TIP3    H149652   2.926   3.780   1.848 -0.1791  0.2251  0.4793
 9387TIP3    H249653   2.969   3.920   1.811  0.4971 -0.1608 -0.2096
 9388TIP3   OH249654   0.219   2.726  12.864 -0.1753  0.1578 -0.2207
 9388TIP3    H149655   0.215   2.821  12.870 -0.0166  0.2691 -1.5919
 9388TIP3    H249656   0.270   2.708  12.785  1.7219 -1.0995  1.1983
 9389TIP3   OH249657   2.457   1.230  13.858  0.7245 -0.0733 -0.1531
 9389TIP3    H149658   2.511   1.257  13.932  2.8339 -0.5928 -1.3991
 9389TIP3    H249659   2.502   1.267  13.781 -0.1860 -1.2879 -1.3219
 9390TIP3   OH249660   3.394   3.004  13.342 -0.2014  0.2093  0.3845
 9390TIP3    H149661   3.463   2.950  13.382  0.1781 -0.3746 -1.0059
 9390TIP3    H249662   3.442   3.072  13.295 -0.6751  2.0669  2.4089
 9391TIP3   OH249663   4.765   1.539  11.861  0.5743  0.5333  0.1519
 9391TIP3    H149664   4.859   1.522  11.855  0.5430  0.3828  0.0840
 9391TIP3    H249665   4.757   1.634  11.854  0.6953  0.5176 -0.2308
 9392TIP3   OH249666   1.450   1.082   5.817 -0.1845 -0.1108  0.2608
 9392TIP3    H149667   1.459   0.999   5.863 -1.2506 -0.9058 -0.8913
 9392TIP3    H249668   1.466   1.060   5.725 -2.5045  0.5035 -0.3500
 9393TIP3   OH249669   3.853   4.484   0.265  0.0472 -0.3295  0.1999
 9393TIP3    H149670   3.821   4.563   0.308 -1.1138 -0.2449 -0.7377
 9393TIP3    H249671   3.948   4.485   0.280  0.1585  1.5608 -0.2738
 9394TIP3   OH249672   1.498   2.081   4.314 -0.6788 -0.0007 -0.0671
 9394TIP3    H149673   1.528   2.128   4.392  0.3609 -2.3244  1.0456
 9394TIP3    H249674   1.452   2.147   4.263 -1.2955  1.6662  2.4364
 9395TIP3   OH249675   6.722   0.554  11.219  0.0392  0.0357 -0.8286
 9395TIP3    H149676   6.716   0.521  11.130  1.0854  0.2048 -0.9627
 9395TIP3    H249677   6.676   0.638  11.217 -1.0348 -0.5297 -0.9030
 9396TIP3   OH249678   5.467   6.430   4.166  0.1206 -0.1947  0.0730
 9396TIP3    H149679   5.525   6.493   4.207 -0.4337  0.1717  0.2996
 9396TIP3    H249680   5.512   6.346   4.176  0.1277 -0.0709  1.1678
 9397TIP3   OH249681   5.348   5.842  12.335  0.3908  0.0271  0.1239
 9397TIP3    H149682   5.365   5.933  12.359  0.8607 -0.0132 -0.0400
 9397TIP3    H249683   5.335   5.797  12.419 -0.2052  0.3055  0.1923
 9398TIP3   OH249684   0.582   5.951   3.922  0.1468 -0.0869 -0.0174
 9398TIP3    H149685   0.607   5.859   3.935 -0.8601 -0.2486  0.9857
 9398TIP3    H249686   0.499   5.947   3.874  0.0321  0.2788  0.1420
 9399TIP3   OH249687   1.229   3.891   0.110  0.3648 -0.0572  0.1509
 9399TIP3    H149688   1.280   3.971   0.097 -1.5976  1.2691  0.2485
 9399TIP3    H249689   1.213   3.858   0.022  0.7137 -0.0436  0.0811
 9400TIP3   OH249690   0.565   4.643   6.109  0.1602 -0.0153  0.1574
 9400TIP3    H149691   0.581   4.687   6.193  1.4933 -1.2769  0.6191
 9400TIP3    H249692   0.470   4.643   6.100 -0.0773 -0.4740  2.0628
 9401TIP3   OH249693   1.971   4.250  15.224  0.5008  0.5044  0.3838
 9401TIP3    H149694   2.057   4.288  15.239  1.1030 -1.1499  1.3160
 9401TIP3    H249695   1.984   4.156  15.232 -1.0448  0.0867 -1.2988
 9402TIP3   OH249696   3.927   5.551  17.214  0.1043 -0.0889  0.1317
 9402TIP3    H149697   3.854   5.538  17.275  0.5663 -0.4463  0.6239
 9402TIP3    H249698   3.980   5.620  17.254  1.0504 -1.1401  0.7776
 9403TIP3   OH249699   5.420   4.724   1.592  0.4511 -0.2296 -0.0925
 9403TIP3    H149700   5.346   4.776   1.624  0.7985 -0.9934  2.1420
 9403TIP3    H249701   5.380   4.642   1.562  0.3537 -0.6547  1.1443
 9404TIP3   OH249702   6.077   6.340   3.327  0.1275 -0.2649  0.0738
 9404TIP3    H149703   6.159   6.294   3.308  0.0869 -0.7698  1.0755
 9404TIP3    H249704   6.104   6.430   3.347  0.2789 -0.0294 -1.0777
 9405TIP3   OH249705   5.490   3.693  12.997 -0.1322 -0.2885 -0.3598
 9405TIP3    H149706   5.430   3.702  13.071 -0.4879 -2.9067 -0.2299
 9405TIP3    H249707   5.552   3.765  13.007 -1.3324  0.5899  1.3363
 9406TIP3   OH249708   5.784   6.373  14.520  0.1141 -0.6295  0.5022
 9406TIP3    H149709   5.858   6.317  14.542  0.3983 -0.2226  0.5869
 9406TIP3    H249710   5.746   6.333  14.441 -0.2985 -1.5111  1.1400
 9407TIP3   OH249711   6.487   6.359  13.138 -0.4089  0.3477  0.4516
 9407TIP3    H149712   6.520   6.445  13.164 -0.1332  0.0849  1.0066
 9407TIP3    H249713   6.536   6.337  13.059  0.8474 -0.0705  1.3062
 9408TIP3   OH249714   3.732   4.557  12.878 -0.2825 -0.0611  0.0378
 9408TIP3    H149715   3.744   4.591  12.967  1.5120 -0.8577  0.1424
 9408TIP3    H249716   3.745   4.633  12.821  1.8973 -0.1445  0.3454
 9409TIP3   OH249717   3.668   2.349  16.861 -0.3221 -0.6132 -0.5781
 9409TIP3    H149718   3.597   2.402  16.825  0.4402 -0.6442 -2.2621
 9409TIP3    H249719   3.719   2.322  16.784  2.4307  0.7092  0.6322
 9410TIP3   OH249720   0.458   0.525   6.575 -0.5159  0.4924 -0.2850
 9410TIP3    H149721   0.521   0.482   6.632 -0.6175 -0.1799 -0.6675
 9410TIP3    H249722   0.492   0.614   6.565 -1.4000  1.2023  2.2079
 9411TIP3   OH249723   1.965   2.767   1.841  0.0456  0.2509 -0.1237
 9411TIP3    H149724   1.986   2.815   1.761  1.4831  1.2489  0.7920
 9411TIP3    H249725   2.038   2.706   1.853  0.2390  0.6357  0.7927
 9412TIP3   OH249726   6.074   4.968  16.070  0.1565  0.3357  1.0884
 9412TIP3    H149727   6.045   4.970  16.161 -0.4363  0.2396  0.9076
 9412TIP3    H249728   6.023   5.036  16.027 -0.0878 -0.0988  0.6825
 9413TIP3   OH249729   4.878   4.319  13.931 -0.1134  0.0781 -0.0131
 9413TIP3    H149730   4.880   4.412  13.908  1.0882 -0.0474 -0.4693
 9413TIP3    H249731   4.799   4.286  13.888  0.3605  0.5351 -1.2780
 9414TIP3   OH249732   0.219   0.951  15.261  0.4813  0.0456 -0.1013
 9414TIP3    H149733   0.141   1.002  15.242 -0.6182 -1.7442 -0.6347
 9414TIP3    H249734   0.241   0.908  15.178  0.6141 -1.3159  0.6111
 9415TIP3   OH249735   4.170   0.490  11.557  0.7109  0.1951  0.3477
 9415TIP3    H149736   4.207   0.445  11.632  0.8558 -1.0824 -0.4605
 9415TIP3    H249737   4.228   0.469  11.484  0.4846  1.2691 -0.1728
 9416TIP3   OH249738   3.158   1.611   5.030 -0.1996  0.7181  0.2812
 9416TIP3    H149739   3.152   1.516   5.021 -0.9447  0.8545 -0.7812
 9416TIP3    H249740   3.201   1.624   5.115  0.4714 -0.5618  0.1561
 9417TIP3   OH249741   0.763   4.052  13.042 -0.0251 -0.1127 -0.1246
 9417TIP3    H149742   0.851   4.019  13.026  0.4794 -0.0823  2.1838
 9417TIP3    H249743   0.768   4.145  13.021  0.0510 -0.4077 -1.4620
 9418TIP3   OH249744   0.132   4.796   0.125  0.1037 -0.0275  0.6422
 9418TIP3    H149745   0.074   4.872   0.131 -1.0855 -0.8518 -0.0589
 9418TIP3    H249746   0.082   4.724   0.163  1.2941 -0.4543  1.4909
 9419TIP3   OH249747   4.583   3.960   2.945 -0.6498 -0.1168 -0.0488
 9419TIP3    H149748   4.580   3.902   3.021 -0.0568 -0.1216 -0.0264
 9419TIP3    H249749   4.605   4.045   2.980  0.6766 -0.3332 -0.3259
 9420TIP3   OH249750   1.218   3.927  17.205  0.2541  0.3796 -0.1720
 9420TIP3    H149751   1.180   3.840  17.221 -0.0323  0.9535  2.9038
 9420TIP3    H249752   1.283   3.912  17.136 -1.7945 -1.6505 -1.8489
 9421TIP3   OH249753   5.907   5.323  17.339  0.1294 -0.0650  0.1750
 9421TIP3    H149754   5.952   5.337  17.422  0.5194 -1.8529  0.3064
 9421TIP3    H249755   5.820   5.291  17.363  0.2313 -0.5595 -0.1083
 9422TIP3   OH249756   5.240   5.975   2.299  0.3657 -0.4460 -0.2357
 9422TIP3    H149757   5.241   6.012   2.210  0.4813  0.0178 -0.0409
 9422TIP3    H249758   5.271   6.045   2.355 -1.1470 -0.2239  0.3689
 9423TIP3   OH249759   4.142   1.660   3.472  0.5185 -0.1327 -0.0710
 9423TIP3    H149760   4.209   1.726   3.455 -0.7028  1.0969 -0.3209
 9423TIP3    H249761   4.069   1.709   3.511 -1.3995 -0.8492 -2.5095
 9424TIP3   OH249762   4.631   2.677   2.058 -0.4350 -0.8945 -0.2877
 9424TIP3    H149763   4.718   2.652   2.090  0.2918  0.2639 -1.2646
 9424TIP3    H249764   4.638   2.771   2.042 -2.0428 -0.6842  0.0926
 9425TIP3   OH249765   3.361   4.201   4.184 -0.9439 -0.1632 -0.1772
 9425TIP3    H149766   3.314   4.171   4.261 -1.2330 -1.4632 -0.8346
 9425TIP3    H249767   3.370   4.123   4.129  2.4381 -0.1642  0.1453
 9426TIP3   OH249768   4.649   5.853   1.574 -0.8913 -0.2662 -0.4877
 9426TIP3    H149769   4.738   5.881   1.596 -0.4407 -1.5741 -0.5296
 9426TIP3    H249770   4.624   5.794   1.645 -1.2755 -0.7980 -1.0559
 9427TIP3   OH249771   4.854   0.356   6.558 -0.2001  1.1700 -1.1793
 9427TIP3    H149772   4.866   0.409   6.637  0.5129  0.2022 -0.6227
 9427TIP3    H249773   4.833   0.420   6.490  1.6686  2.2995 -0.7730
 9428TIP3   OH249774   3.873   3.410   3.578 -0.1330 -0.0802 -0.4314
 9428TIP3    H149775   3.801   3.355   3.548  0.3813 -1.4364  0.6644
 9428TIP3    H249776   3.847   3.437   3.666 -0.0407  0.8315 -0.6776
 9429TIP3   OH249777   3.673   0.977  14.845 -0.5840  0.0769 -0.2605
 9429TIP3    H149778   3.704   0.920  14.915  0.7068  0.6720 -0.3187
 9429TIP3    H249779   3.707   0.938  14.764 -0.6490  0.3055 -0.4014
 9430TIP3   OH249780   1.055   6.065  11.590  0.3206 -0.3596  0.4672
 9430TIP3    H149781   1.149   6.052  11.595  0.6743  1.9845  0.9110
 9430TIP3    H249782   1.042   6.115  11.510 -0.5879 -0.8024  0.3212
 9431TIP3   OH249783   5.743   2.162   4.710 -0.1789 -0.2779 -0.6343
 9431TIP3    H149784   5.667   2.202   4.668  0.1743  0.3731 -0.6701
 9431TIP3    H249785   5.732   2.068   4.697  0.2016 -0.0896 -2.6903
 9432TIP3   OH249786   0.842   6.493  14.619  0.1383 -0.6876 -0.1600
 9432TIP3    H149787   0.749   6.475  14.606 -0.0378 -0.4936  0.7604
 9432TIP3    H249788   0.851   6.587  14.603  0.3274 -0.8406 -1.0109
 9433TIP3   OH249789   2.681   0.264   4.122  0.2128  0.3059 -0.4273
 9433TIP3    H149790   2.643   0.182   4.091  0.1851  0.2826 -0.3321
 9433TIP3    H249791   2.745   0.288   4.055  1.8224 -0.9301  0.5858
 9434TIP3   OH249792   0.423   5.651   3.704  0.6286 -0.2397  0.6599
 9434TIP3    H149793   0.497   5.661   3.645 -0.4488  1.6746 -0.4685
 9434TIP3    H249794   0.361   5.719   3.677 -0.5155 -0.1972  3.1026
 9435TIP3   OH249795   2.808   0.376   3.666 -0.0179 -1.1418  0.4191
 9435TIP3    H149796   2.726   0.418   3.690 -1.2408 -2.3619 -1.3767
 9435TIP3    H249797   2.864   0.449   3.637 -0.6850 -0.3688  1.0251
 9436TIP3   OH249798   0.327   6.722   2.857  0.4253  0.3123  0.1778
 9436TIP3    H149799   0.352   6.659   2.925 -0.5020 -0.1869  0.0669
 9436TIP3    H249800   0.292   6.797   2.906  1.0222  0.5268  0.2890
 9437TIP3   OH249801   2.456   5.468  16.066  0.0892 -0.2489  0.4522
 9437TIP3    H149802   2.512   5.527  16.016 -1.2546  0.4454 -0.2812
 9437TIP3    H249803   2.418   5.409  16.001 -3.2293  1.8964  0.2226
 9438TIP3   OH249804   1.645   2.994   5.495 -0.4291 -0.4772  0.4009
 9438TIP3    H149805   1.600   3.078   5.491  0.3098 -0.1034 -0.0444
 9438TIP3    H249806   1.736   3.015   5.515 -0.1817 -1.1534  0.0349
 9439TIP3   OH249807   5.397   1.631   1.293 -0.2451 -0.1105 -0.0779
 9439TIP3    H149808   5.463   1.613   1.226  0.5380  0.5137  0.4986
 9439TIP3    H249809   5.402   1.556   1.352  0.6395  0.3678  0.4817
 9440TIP3   OH249810   6.473   3.462   5.585  0.2287 -0.7417 -0.0350
 9440TIP3    H149811   6.549   3.479   5.530  0.8034 -0.4851  0.8279
 9440TIP3    H249812   6.406   3.523   5.552  1.0867  0.5835  0.6024
 9441TIP3   OH249813   1.579   1.058  14.065  0.2570 -0.1536 -0.4808
 9441TIP3    H149814   1.663   1.091  14.096 -0.2275  1.6797 -0.9815
 9441TIP3    H249815   1.594   1.036  13.973 -0.6540  4.1150 -1.8867
 9442TIP3   OH249816   0.447   4.807   3.610  0.3596  0.1261  0.6385
 9442TIP3    H149817   0.378   4.771   3.665  1.0719  0.2544  1.6465
 9442TIP3    H249818   0.452   4.899   3.634 -0.2783  0.5290 -0.6805
 9443TIP3   OH249819   4.413   6.277   4.711 -0.1275 -0.1215 -0.7906
 9443TIP3    H149820   4.436   6.348   4.652 -0.0308 -0.4968 -1.2090
 9443TIP3    H249821   4.495   6.232   4.728 -0.3677 -0.8553 -1.4892
 9444TIP3   OH249822   5.923   4.773  15.073 -0.0509  0.0086 -0.2008
 9444TIP3    H149823   5.847   4.810  15.118  0.7606  0.1344  1.1103
 9444TIP3    H249824   5.986   4.845  15.071  0.2781 -0.2882 -0.7170
 9445TIP3   OH249825   2.089   5.876  14.482 -0.1487 -0.2893 -0.0026
 9445TIP3    H149826   2.128   5.939  14.542  1.7651 -1.8984  0.5887
 9445TIP3    H249827   2.164   5.827  14.448 -1.4915 -1.9110 -0.7845
 9446TIP3   OH249828   0.253   0.497   1.551  0.0131  0.4824 -0.1225
 9446TIP3    H149829   0.333   0.448   1.531  0.3725  1.2455 -0.5935
 9446TIP3    H249830   0.277   0.552   1.625  0.4267  1.8470 -1.2139
 9447TIP3   OH249831   3.731   1.479  15.036  0.3941 -0.4781  0.0206
 9447TIP3    H149832   3.799   1.465  15.102  0.6496  0.7986  0.0449
 9447TIP3    H249833   3.773   1.533  14.970 -0.7134  0.6917  0.2442
 9448TIP3   OH249834   3.266   0.851  16.660 -0.4072 -0.1941  0.5139
 9448TIP3    H149835   3.295   0.810  16.742 -0.3750 -1.8399 -0.2921
 9448TIP3    H249836   3.330   0.823  16.595 -2.6011 -2.2925 -0.9052
 9449TIP3   OH249837   5.373   5.433   1.853  0.2721  0.5316 -0.1327
 9449TIP3    H149838   5.456   5.433   1.901 -0.5002 -0.7479  1.2720
 9449TIP3    H249839   5.398   5.454   1.762  2.0243  0.8397  0.3817
 9450TIP3   OH249840   5.760   5.109   3.707 -0.2115  0.3642  0.0719
 9450TIP3    H149841   5.798   5.141   3.789 -0.4070 -0.7005  0.5906
 9450TIP3    H249842   5.782   5.016   3.704 -0.9508  0.1920 -0.6566
 9451TIP3   OH249843   1.495   2.950   0.104  0.0649  0.8951  0.2525
 9451TIP3    H149844   1.424   2.888   0.118 -0.2139  0.9143 -0.9557
 9451TIP3    H249845   1.500   2.961   0.009  1.6372  0.9437  0.3029
 9452TIP3   OH249846   5.574   0.940  16.924  0.2367  0.2810  0.1294
 9452TIP3    H149847   5.523   0.860  16.909 -0.7149  0.7079  0.9854
 9452TIP3    H249848   5.665   0.910  16.927 -0.0688 -0.6973 -0.0123
 9453TIP3   OH249849   4.518   4.201   4.492 -0.3526 -0.0133 -0.1281
 9453TIP3    H149850   4.553   4.289   4.477  0.6448 -0.6432 -1.7150
 9453TIP3    H249851   4.582   4.160   4.550  0.5978 -0.5164 -1.4728
 9454TIP3   OH249852   5.219   5.771   6.372  0.4297 -0.4247 -0.9343
 9454TIP3    H149853   5.229   5.691   6.423 -2.2946 -0.3524 -0.1007
 9454TIP3    H249854   5.245   5.841   6.432  1.7352 -0.5870 -1.2868
 9455TIP3   OH249855   4.434   6.482   4.537 -0.5060 -0.2927 -0.4537
 9455TIP3    H149856   4.474   6.471   4.450  2.2484  4.9725 -0.2078
 9455TIP3    H249857   4.342   6.498   4.518 -0.5436 -1.9516 -2.0604
 9456TIP3   OH249858   5.992   3.133  15.461 -0.9708 -0.0957  0.3521
 9456TIP3    H149859   5.897   3.128  15.471 -0.8783  0.2460  1.6164
 9456TIP3    H249860   6.005   3.162  15.371 -2.1340  1.3685  0.6137
 9457TIP3   OH249861   0.607   2.287   0.227 -0.1226 -0.7033 -0.2179
 9457TIP3    H149862   0.531   2.293   0.284  0.2292 -0.8301  0.2721
 9457TIP3    H249863   0.678   2.256   0.284 -0.2665 -2.9413 -1.1448
 9458TIP3   OH249864   0.119   1.012   2.891  0.2434 -0.4913 -0.0932
 9458TIP3    H149865   0.089   0.932   2.934  1.4767  0.4203  2.6818
 9458TIP3    H249866   0.038   1.057   2.865 -0.6250 -0.9512  1.6603
 9459TIP3   OH249867   2.464   4.163  13.071 -0.1359  0.0506  0.1632
 9459TIP3    H149868   2.515   4.111  13.009 -0.5534 -0.7570  0.4839
 9459TIP3    H249869   2.423   4.099  13.128 -1.4221  0.6859 -0.0128
 9460TIP3   OH249870   0.977   6.604  15.961  0.5410 -0.0508  0.1316
 9460TIP3    H149871   0.982   6.511  15.939  3.6543 -0.0110  0.1199
 9460TIP3    H249872   1.027   6.611  16.043  1.1524  1.6936 -0.3409
 9461TIP3   OH249873   4.464   5.920  15.090 -0.2237 -0.3698 -0.1389
 9461TIP3    H149874   4.524   5.904  15.017 -1.0982  1.3360 -1.2844
 9461TIP3    H249875   4.379   5.933  15.049 -0.5477  1.6852  1.0696
 9462TIP3   OH249876   1.585   0.718  14.929 -0.2801 -0.0780  0.4494
 9462TIP3    H149877   1.536   0.779  14.984  1.2379  0.1907  1.5860
 9462TIP3    H249878   1.575   0.634  14.973 -1.1176 -0.3662 -0.2734
 9463TIP3   OH249879   2.507   3.570  14.676 -0.1655 -0.2479  0.3328
 9463TIP3    H149880   2.580   3.609  14.724 -0.1789 -0.0387  0.1867
 9463TIP3    H249881   2.508   3.615  14.591 -0.9803  0.3620  0.6282
 9464TIP3   OH249882   0.827   6.717   2.520  0.2793 -0.2764  0.3828
 9464TIP3    H149883   0.806   6.678   2.605  1.1193 -1.5856  0.0250
 9464TIP3    H249884   0.884   6.652   2.478  2.3695  1.6714  0.0209
 9465TIP3   OH249885   1.881   1.412  13.185  0.2562 -0.2990 -0.3259
 9465TIP3    H149886   1.903   1.329  13.143  1.9097  0.5824 -1.2910
 9465TIP3    H249887   1.952   1.428  13.247 -1.2375 -0.6873  1.5898
 9466TIP3   OH249888   0.293   4.042   0.919  0.2722 -0.7730  0.4717
 9466TIP3    H149889   0.254   4.057   1.005  0.1630 -0.6978  0.4087
 9466TIP3    H249890   0.221   4.050   0.858  0.4288 -0.3884  0.3319
 9467TIP3   OH249891   2.574   3.975  17.436 -0.1524  0.6531 -0.2720
 9467TIP3    H149892   2.649   3.939  17.484 -0.4753 -1.2140 -1.0751
 9467TIP3    H249893   2.554   4.058  17.480  3.5997  2.2786 -1.2062
 9468TIP3   OH249894   4.844   2.180  14.443  0.6776 -0.1413 -0.1164
 9468TIP3    H149895   4.798   2.122  14.383  2.6823  0.6378 -2.5848
 9468TIP3    H249896   4.776   2.218  14.498 -1.0616 -2.1368 -0.7865
 9469TIP3   OH249897   2.682   3.972  10.909 -0.3560  0.3332  0.4543
 9469TIP3    H149898   2.647   3.889  10.942 -0.3828  1.5108  3.8175
 9469TIP3    H249899   2.663   3.971  10.815 -1.4403 -2.8915  0.5907
 9470TIP3   OH249900   5.861   2.468   1.671 -0.3368 -0.3405  0.3620
 9470TIP3    H149901   5.927   2.513   1.723 -1.2270  0.4024  0.9033
 9470TIP3    H249902   5.867   2.509   1.585 -1.2010  0.9426  0.8768
 9471TIP3   OH249903   5.855   0.066   5.804 -0.2995  0.0884 -0.0426
 9471TIP3    H149904   5.917   0.134   5.777 -1.0604  2.1773  3.0224
 9471TIP3    H249905   5.897   0.022   5.878 -0.0184 -2.6259 -1.6719
 9472TIP3   OH249906   4.033   3.254   2.631  0.3723  0.5002 -0.1603
 9472TIP3    H149907   4.012   3.302   2.711  2.6058  0.2931  0.6020
 9472TIP3    H249908   4.028   3.162   2.656 -0.8380  0.3571 -0.8164
 9473TIP3   OH249909   0.227   5.023  16.951  0.0160 -0.6298  0.2693
 9473TIP3    H149910   0.254   5.068  17.031  0.0511  0.5225 -0.3732
 9473TIP3    H249911   0.225   5.091  16.884  0.2159 -1.6162 -0.7800
 9474TIP3   OH249912   0.714   1.808   1.179  0.3683 -0.0118 -0.6594
 9474TIP3    H149913   0.771   1.772   1.110  1.2595 -1.1232  0.5864
 9474TIP3    H249914   0.645   1.743   1.189 -0.3868  0.6852 -1.2390
 9475TIP3   OH249915   0.043   5.007  12.147 -0.4660 -0.4720 -0.2031
 9475TIP3    H149916   0.135   5.028  12.129 -0.8124  0.4174 -0.9944
 9475TIP3    H249917   0.046   4.920  12.187  0.6606 -0.8898 -1.1243
 9476TIP3   OH249918   5.084   4.208   4.358 -0.3160 -0.4745 -0.2154
 9476TIP3    H149919   5.081   4.289   4.307  0.5695 -0.6664 -0.5759
 9476TIP3    H249920   4.997   4.203   4.398 -0.6002  0.3218 -0.6972
 9477TIP3   OH249921   2.442   3.310  15.161  0.0873 -0.7191 -0.0207
 9477TIP3    H149922   2.419   3.283  15.072  0.4405  1.4389 -0.8388
 9477TIP3    H249923   2.525   3.357  15.151 -0.6687  0.9615  1.1718
 9478TIP3   OH249924   3.957   6.560  14.925  0.0418  0.4124 -0.5009
 9478TIP3    H149925   4.003   6.506  14.860  1.8888  2.0235 -0.6104
 9478TIP3    H249926   4.026   6.606  14.972 -1.4115  1.9069  0.2933
 9479TIP3   OH249927   2.969   0.005   2.148 -0.0289 -0.2945 -0.1850
 9479TIP3    H149928   3.024  -0.072   2.163  0.3295 -0.3875 -1.8081
 9479TIP3    H249929   3.003   0.070   2.210 -0.0009 -1.2482  0.8459
 9480TIP3   OH249930   0.475   4.928  12.844  0.1664 -0.0851 -0.1448
 9480TIP3    H149931   0.398   4.967  12.887 -1.0148 -1.4210 -0.9436
 9480TIP3    H249932   0.466   4.954  12.752 -0.4720 -1.8633 -0.6328
 9481TIP3   OH249933   6.214   3.682   3.368 -0.2956  0.0194 -0.1037
 9481TIP3    H149934   6.205   3.593   3.404 -1.5290  0.5360  0.9174
 9481TIP3    H249935   6.234   3.667   3.276 -0.2741 -1.3208  0.0850
 9482TIP3   OH249936   6.651   6.349   5.266  0.0644  0.2143 -1.0290
 9482TIP3    H149937   6.632   6.283   5.332  1.2931 -0.7137 -1.5661
 9482TIP3    H249938   6.569   6.397   5.255  0.3684  1.9818  2.8546
 9483TIP3   OH249939   1.077   4.280  15.551 -0.1410  0.1159  0.2939
 9483TIP3    H149940   1.088   4.233  15.633 -0.8536  1.1690  1.0243
 9483TIP3    H249941   0.983   4.280  15.535  0.0169 -0.3674 -0.7080
 9484TIP3   OH249942   4.908   2.445   3.023  0.7142 -0.1952  0.1048
 9484TIP3    H149943   4.929   2.474   2.934  3.4259  0.0541  0.7486
 9484TIP3    H249944   4.893   2.526   3.072 -1.4421 -0.3487 -0.1962
 9485TIP3   OH249945   5.153   6.693   2.596  0.1251 -0.1520 -0.0570
 9485TIP3    H149946   5.144   6.607   2.636 -0.3803 -0.0682  0.0165
 9485TIP3    H249947   5.246   6.699   2.573  0.2279 -0.5829  0.2303
 9486TIP3   OH249948   4.790   3.214   2.622 -0.0735  0.1141  0.0369
 9486TIP3    H149949   4.716   3.273   2.635 -1.8136 -2.2525  1.6618
 9486TIP3    H249950   4.830   3.206   2.709  2.3071  1.4743 -0.8302
 9487TIP3   OH249951   3.762   2.001  11.465  0.0365 -0.6091  0.0794
 9487TIP3    H149952   3.781   2.094  11.474  0.4991 -0.8003  1.1835
 9487TIP3    H249953   3.688   1.998  11.403  0.3983  0.4386 -0.4277
 9488TIP3   OH249954   1.325   0.658   4.695  0.2487 -0.0919 -0.0464
 9488TIP3    H149955   1.254   0.644   4.633 -0.1833  1.2689  0.1133
 9488TIP3    H249956   1.397   0.603   4.662 -0.7999 -1.3801 -0.2816
 9489TIP3   OH249957   3.460   4.942   5.317 -0.0943 -0.1923 -0.5494
 9489TIP3    H149958   3.438   4.860   5.361 -1.2607 -0.0625 -0.8615
 9489TIP3    H249959   3.496   4.998   5.386  0.1528 -0.7545 -0.2197
 9490TIP3   OH249960   0.903   0.656   4.571 -0.2266  0.1100  0.0411
 9490TIP3    H149961   0.846   0.602   4.624 -0.0605  1.5687  1.8136
 9490TIP3    H249962   0.844   0.715   4.523 -0.3936 -1.3966 -1.7208
 9491TIP3   OH249963   5.233   3.084  15.075  0.0071  0.2518  0.6186
 9491TIP3    H149964   5.263   3.170  15.045  0.0242  0.5601  1.5008
 9491TIP3    H249965   5.311   3.029  15.069 -0.2618 -0.0139 -1.0187
 9492TIP3   OH249966   2.023   5.370  14.329  0.2649  0.3890  0.0264
 9492TIP3    H149967   2.019   5.275  14.345  2.1631  0.1880 -0.4989
 9492TIP3    H249968   1.969   5.408  14.398 -1.4501 -1.1091 -0.3762
 9493TIP3   OH249969   3.095   0.481   3.008  0.1272 -0.7283 -0.0776
 9493TIP3    H149970   3.022   0.442   3.056  0.0328 -1.0167 -0.4530
 9493TIP3    H249971   3.075   0.464   2.916  1.1055 -1.5771 -0.1484
 9494TIP3   OH249972   6.533   5.114   2.808  0.2657  0.0985  0.5273
 9494TIP3    H149973   6.444   5.149   2.820 -0.0541 -0.4347 -0.2741
 9494TIP3    H249974   6.590   5.187   2.832 -0.3941  1.2676 -1.2612
 9495TIP3   OH249975   1.383   3.337   4.995 -0.9172  0.3631 -0.2797
 9495TIP3    H149976   1.366   3.429   5.017  2.2769  1.3655 -1.4768
 9495TIP3    H249977   1.385   3.293   5.080  0.6194  2.0666  0.6513
 9496TIP3   OH249978   4.238   4.623   2.539 -0.3104 -0.5222  0.1519
 9496TIP3    H149979   4.270   4.615   2.449  0.9195  1.1963  0.3940
 9496TIP3    H249980   4.317   4.630   2.592 -1.0260  1.5369  1.0226
 9497TIP3   OH249981   1.350   3.537  15.627 -0.0693 -0.6587 -0.0041
 9497TIP3    H149982   1.416   3.470  15.641 -0.4553 -0.7995  1.2927
 9497TIP3    H249983   1.366   3.601  15.696  0.1076  0.4435 -1.0491
 9498TIP3   OH249984   1.095   0.137   1.952  0.7797  0.5916 -0.2641
 9498TIP3    H149985   1.051   0.061   1.914 -0.0682 -0.0383  1.8536
 9498TIP3    H249986   1.183   0.135   1.914  0.4546 -0.8584 -1.0206
 9499TIP3   OH249987   1.833   0.472   5.374  0.2505  0.3949  0.5778
 9499TIP3    H149988   1.834   0.491   5.280  0.8069 -2.1668 -0.0139
 9499TIP3    H249989   1.782   0.391   5.382 -1.5779  1.6462  2.7761
 9500TIP3   OH249990   6.217   5.127   0.110 -0.8934  0.0244 -0.0751
 9500TIP3    H149991   6.200   5.110   0.203 -2.2454  0.0208 -0.2956
 9500TIP3    H249992   6.303   5.169   0.108 -0.6763 -0.3266  1.1401
 9501TIP3   OH249993   0.725   5.384  14.146 -0.1961 -0.0929  0.7004
 9501TIP3    H149994   0.641   5.393  14.101 -0.7073 -0.2216  1.6029
 9501TIP3    H249995   0.715   5.433  14.227  0.7141  0.1452  0.6850
 9502TIP3   OH249996   2.204   0.545  14.486 -0.2970  0.6041  0.9166
 9502TIP3    H149997   2.272   0.612  14.485 -0.6816  1.0021  0.1669
 9502TIP3    H249998   2.124   0.593  14.464 -0.5810 -0.0988  0.3988
 9503TIP3   OH249999   2.482   4.890  12.700  0.0003 -0.2813  0.9973
 9503TIP3    H150000   2.447   4.822  12.643 -0.3070 -0.9910  2.0086
 9503TIP3    H250001   2.577   4.877  12.696 -0.0780 -1.0654  1.5326
 9504TIP3   OH250002   1.827   4.593  11.698 -0.5256  0.0519  0.1795
 9504TIP3    H150003   1.831   4.555  11.610 -0.7631  0.0445  0.1720
 9504TIP3    H250004   1.885   4.537  11.750 -2.0774 -1.2998  0.5245
 9505TIP3   OH250005   2.951   5.178   1.079 -0.1568 -0.1192  0.1328
 9505TIP3    H150006   2.953   5.258   1.131 -1.3765 -0.3350  0.5224
 9505TIP3    H250007   2.885   5.194   1.012  1.4724  0.2010 -1.4632
 9506TIP3   OH250008   5.611   2.164  12.260 -0.5402 -0.0681  0.0007
 9506TIP3    H150009   5.667   2.183  12.335  0.4824 -0.0262 -0.7525
 9506TIP3    H250010   5.568   2.081  12.282  0.8436 -0.7994  0.0278
 9507TIP3   OH250011   0.817   3.275   5.946 -0.2673  0.4436  0.2827
 9507TIP3    H150012   0.830   3.300   5.854  0.1433  0.2111  0.2749
 9507TIP3    H250013   0.901   3.296   5.988 -0.1879 -0.1684  0.4391
 9508TIP3   OH250014   1.316   5.915   3.311  0.2710  0.0730 -0.2688
 9508TIP3    H150015   1.365   5.836   3.287  1.4206  0.5893  0.2791
 9508TIP3    H250016   1.361   5.985   3.263 -0.4803  0.4555 -0.4227
 9509TIP3   OH250017   6.157   1.377  14.843 -0.2507 -0.9535  0.5129
 9509TIP3    H150018   6.199   1.294  14.865 -0.6016 -1.4353 -0.5464
 9509TIP3    H250019   6.066   1.367  14.871 -0.4543 -1.1871 -0.2131
 9510TIP3   OH250020   0.022   4.147  17.441 -0.0866  0.3634 -0.1208
 9510TIP3    H150021   0.042   4.165  17.349  1.3239  0.0283  0.0975
 9510TIP3    H250022  -0.058   4.094  17.439  1.5422 -2.2699 -1.3812
 9511TIP3   OH250023   4.188   5.521   3.082  0.5981  0.3329 -0.1671
 9511TIP3    H150024   4.159   5.576   3.010  1.1418  1.7509  0.6618
 9511TIP3    H250025   4.263   5.567   3.119 -0.6359  0.5511  2.3371
 9512TIP3   OH250026   4.431   4.033   1.886 -0.5391  0.1776  0.1089
 9512TIP3    H150027   4.510   4.052   1.937 -1.6736  2.0673  1.3229
 9512TIP3    H250028   4.425   3.937   1.885  1.6426  0.0062  0.1376
 9513TIP3   OH250029   6.558   5.991   3.082  0.9118  0.4494  0.2050
 9513TIP3    H150030   6.528   5.940   3.157  0.1836  0.6410  0.0561
 9513TIP3    H250031   6.558   5.929   3.009 -0.7792  0.8117 -0.1598
 9514TIP3   OH250032   4.481   1.048  15.492  0.2974  0.5209  0.2624
 9514TIP3    H150033   4.403   0.993  15.500 -0.4243  1.4580 -0.1384
 9514TIP3    H250034   4.554   0.990  15.513 -0.3770 -0.7841 -0.8580
 9515TIP3   OH250035   1.322   3.843   4.001  0.2063 -0.1773 -0.0697
 9515TIP3    H150036   1.413   3.840   3.971 -0.4590 -0.3604 -2.2547
 9515TIP3    H250037   1.321   3.912   4.067  2.1734 -1.0840  0.9948
 9516TIP3   OH250038   3.561   0.896  15.987  0.2590  0.1956  0.4713
 9516TIP3    H150039   3.576   0.859  15.900 -0.4540  2.0618 -0.4989
 9516TIP3    H250040   3.645   0.890  16.030  0.3176 -1.9515  0.1558
 9517TIP3   OH250041   3.443   3.258  10.709 -0.4767  0.4366  0.2969
 9517TIP3    H150042   3.406   3.170  10.710 -0.9784  0.6431  1.4157
 9517TIP3    H250043   3.530   3.248  10.747 -0.4688  0.4096  0.2730
 9518TIP3   OH250044   1.697   1.692   1.890 -0.0987 -0.1600  0.2812
 9518TIP3    H150045   1.769   1.669   1.831  1.1216 -3.8368  2.8448
 9518TIP3    H250046   1.623   1.639   1.859 -0.2015 -0.1920  0.5791
 9519TIP3   OH250047   5.105   5.736  13.177 -0.3174 -0.0176 -0.0411
 9519TIP3    H150048   5.083   5.657  13.227  1.8120 -1.0953 -0.7142
 9519TIP3    H250049   5.125   5.802  13.244  2.4063 -1.4114  0.6543
 9520TIP3   OH250050   1.196   3.916   3.530  0.1735 -0.0269 -0.4302
 9520TIP3    H150051   1.119   3.969   3.505  0.7213  0.7100 -0.5942
 9520TIP3    H250052   1.175   3.885   3.618  0.2869  1.3695  0.1186
 9521TIP3   OH250053   2.537   4.962  16.767 -0.2299 -0.2707 -0.5386
 9521TIP3    H150054   2.619   4.957  16.816 -1.3018  1.0255  1.5247
 9521TIP3    H250055   2.480   4.897  16.807 -0.4567 -0.6748 -1.4861
 9522TIP3   OH250056   0.951   1.669  14.696 -0.3825 -0.1736  0.7101
 9522TIP3    H150057   0.887   1.614  14.652 -0.3406  0.0078  0.4222
 9522TIP3    H250058   0.957   1.747  14.642  0.5885 -0.4752  0.3555
 9523TIP3   OH250059   6.480   2.069  16.542  0.0546 -0.3970 -0.2446
 9523TIP3    H150060   6.554   2.125  16.566  0.7747 -0.3160 -2.3908
 9523TIP3    H250061   6.519   1.983  16.529 -0.2816 -0.4524 -0.9464
 9524TIP3   OH250062   2.945   0.453  10.905 -0.2297  0.1024 -0.2928
 9524TIP3    H150063   2.990   0.516  10.848 -0.4379  1.9389  1.4474
 9524TIP3    H250064   3.015   0.398  10.941  0.2759  0.9227  0.0044
 9525TIP3   OH250065   0.407   4.933   4.660  0.2608  0.4340  0.3051
 9525TIP3    H150066   0.468   4.866   4.689  0.0266  0.6017  1.2165
 9525TIP3    H250067   0.462   5.001   4.621  0.5065 -0.2160 -0.5076
 9526TIP3   OH250068   5.313   5.237  16.799  0.7557 -0.1330 -0.4031
 9526TIP3    H150069   5.376   5.235  16.727 -1.0806 -0.4839 -2.0882
 9526TIP3    H250070   5.302   5.145  16.824  0.1487 -0.1847 -0.8392
 9527TIP3   OH250071   5.663   6.471   2.047  0.0601  0.5322 -0.2857
 9527TIP3    H150072   5.720   6.535   2.006 -2.5955  3.3502  0.0757
 9527TIP3    H250073   5.591   6.522   2.085 -1.0413 -2.4694  2.1544
 9528TIP3   OH250074   2.312   4.931  15.219 -0.0331  0.3698 -1.0353
 9528TIP3    H150075   2.356   5.015  15.222  0.7685 -0.0612 -0.1167
 9528TIP3    H250076   2.218   4.952  15.219  0.0582  1.2532  2.1592
 9529TIP3   OH250077   6.588   0.129  16.044 -0.8776  0.0142  0.1855
 9529TIP3    H150078   6.532   0.052  16.034 -0.5510 -0.1681 -0.3107
 9529TIP3    H250079   6.667   0.108  15.993  0.5856 -0.6327  2.5520
 9530TIP3   OH250080   6.415   6.153  16.775 -0.1746  0.0881  0.3055
 9530TIP3    H150081   6.446   6.090  16.840  1.2567 -0.5934 -0.9789
 9530TIP3    H250082   6.495   6.192  16.739 -1.0104  2.6856  1.0577
 9531TIP3   OH250083   5.483   4.471   5.929 -0.4651 -0.5731 -0.2769
 9531TIP3    H150084   5.440   4.460   6.014  0.1806  0.1852  0.1605
 9531TIP3    H250085   5.555   4.531   5.946 -0.6692  0.0476 -1.4756
 9532TIP3   OH250086   4.247   0.884  12.620 -0.1384  0.1380  0.0632
 9532TIP3    H150087   4.191   0.806  12.623  0.7052 -0.5164 -0.7322
 9532TIP3    H250088   4.224   0.933  12.700  1.3799 -2.3503  2.1803
 9533TIP3   OH250089   6.042   2.566   2.377 -0.4780  0.2568 -0.3670
 9533TIP3    H150090   6.022   2.523   2.460 -0.0253  1.2021  0.2411
 9533TIP3    H250091   5.958   2.569   2.331 -1.3499  2.2429  1.2389
 9534TIP3   OH250092   1.903   3.319   5.949 -0.1465  0.2078  0.1410
 9534TIP3    H150093   1.868   3.335   5.861  3.1259  0.8765 -1.1745
 9534TIP3    H250094   1.866   3.234   5.975 -0.8806 -0.1989 -2.0562
 9535TIP3   OH250095   5.097   2.695  12.097 -0.5239 -0.2533  0.2752
 9535TIP3    H150096   5.035   2.716  12.167 -2.2456 -0.5725 -1.1009
 9535TIP3    H250097   5.061   2.617  12.055  1.0398 -0.6842 -0.3221
 9536TIP3   OH250098   5.419   5.442  14.500  0.1419  0.1071  0.6198
 9536TIP3    H150099   5.372   5.430  14.583  0.8177 -0.8697  0.8828
 9536TIP3    H250100   5.366   5.397  14.435 -0.0004  0.2240  0.6542
 9537TIP3   OH250101   2.717   3.430  15.126 -0.2748 -0.0531  0.3683
 9537TIP3    H150102   2.687   3.518  15.103 -0.5886  0.3404  2.1518
 9537TIP3    H250103   2.797   3.443  15.176 -1.4385 -0.5903  2.4930
 9538TIP3   OH250104   3.231   4.288   3.508  0.0423  0.6603 -0.3405
 9538TIP3    H150105   3.175   4.345   3.562 -1.0051 -0.6378  0.0065
 9538TIP3    H250106   3.208   4.200   3.536  2.4902  0.0585  0.0093
 9539TIP3   OH250107   3.255   0.544  12.808  0.6762 -0.0049  0.3348
 9539TIP3    H150108   3.329   0.568  12.753 -0.1061  1.4601 -0.1138
 9539TIP3    H250109   3.252   0.448  12.803  0.9320  0.0596 -1.7492
 9540TIP3   OH250110   5.787   1.393   0.211 -0.1180  0.6724 -0.2529
 9540TIP3    H150111   5.745   1.314   0.179 -1.8247  1.1386  0.7088
 9540TIP3    H250112   5.868   1.399   0.161  1.8764 -3.5201  1.9720
 9541TIP3   OH250113   4.945   3.500   2.426 -0.6647  0.6556  0.2763
 9541TIP3    H150114   4.925   3.504   2.332 -0.9619 -1.2785  0.2094
 9541TIP3    H250115   4.993   3.418   2.436 -1.9598  0.0521  2.0459
 9542TIP3   OH250116   3.610   0.832  17.403  0.1085 -0.0397 -0.4015
 9542TIP3    H150117   3.615   0.737  17.411 -0.0373 -0.2251 -2.2271
 9542TIP3    H250118   3.552   0.848  17.329  0.9761  1.4397 -0.8120
 9543TIP3   OH250119   6.285   3.655   3.837 -0.7048  0.5397  0.4575
 9543TIP3    H150120   6.194   3.670   3.812 -0.7114 -0.9288 -0.5292
 9543TIP3    H250121   6.315   3.588   3.777  0.6640  0.1028  1.5808
 9544TIP3   OH250122   4.224   2.801  16.579  0.1564 -0.4166 -0.2921
 9544TIP3    H150123   4.168   2.869  16.616  1.7317  0.7914 -0.0477
 9544TIP3    H250124   4.280   2.773  16.652  0.1519 -1.3293 -0.6227
 9545TIP3   OH250125   2.346   4.794   0.162  0.0035 -0.5069 -0.2821
 9545TIP3    H150126   2.304   4.874   0.193  1.1478 -0.0893  0.2575
 9545TIP3    H250127   2.385   4.818   0.078  0.9861 -0.2578  0.2259
 9546TIP3   OH250128   5.032   2.553   0.092 -0.2290 -0.0473 -0.2063
 9546TIP3    H150129   5.115   2.598   0.075 -0.5602  0.6487 -0.0416
 9546TIP3    H250130   5.047   2.504   0.173 -0.1901  0.6505  0.2189
 9547TIP3   OH250131   6.731   4.360  16.935 -0.3569  0.1840  0.4945
 9547TIP3    H150132   6.656   4.300  16.929 -0.8470  0.7558  0.8151
 9547TIP3    H250133   6.699   4.442  16.898  0.5993  0.0024 -0.8071
 9548TIP3   OH250134   1.116   0.681   0.018 -0.1301  0.3439 -0.7247
 9548TIP3    H150135   1.067   0.763   0.011  0.6298  0.7654 -1.4604
 9548TIP3    H250136   1.172   0.681  -0.060  2.1131  0.6193  0.7923
 9549TIP3   OH250137   0.850   5.406   0.463 -0.1211 -0.1518  0.1860
 9549TIP3    H150138   0.800   5.357   0.397 -0.0468  0.6479 -0.4723
 9549TIP3    H250139   0.880   5.484   0.418  0.3629  0.1676  1.0361
 9550TIP3   OH250140   5.988   4.075   2.350 -0.8673  0.1195 -0.0730
 9550TIP3    H150141   6.042   4.153   2.339 -2.1289  0.7254 -2.7863
 9550TIP3    H250142   6.051   4.004   2.362  0.5319  1.0246 -1.5989
 9551TIP3   OH250143   2.777   3.265   4.070  0.2667 -0.6715  0.6506
 9551TIP3    H150144   2.737   3.322   4.005 -0.2803  0.4661  1.9544
 9551TIP3    H250145   2.790   3.182   4.024 -2.1714 -0.6080 -0.2642
 9552TIP3   OH250146   5.886   0.963  14.129 -0.0959 -0.3492  0.7136
 9552TIP3    H150147   5.880   0.933  14.038  0.5587  0.5543  0.3517
 9552TIP3    H250148   5.804   1.009  14.145 -0.2958 -0.6830  0.6466
 9553TIP3   OH250149   5.942   0.774  13.198 -0.3997  0.1949 -0.0625
 9553TIP3    H150150   6.028   0.765  13.157 -1.3472 -1.6439 -1.7721
 9553TIP3    H250151   5.942   0.709  13.268 -0.7309 -0.5173 -0.7110
 9554TIP3   OH250152   4.799   1.495  11.162 -0.1992  0.1108 -0.6271
 9554TIP3    H150153   4.855   1.541  11.099 -1.1058  0.2003 -1.3811
 9554TIP3    H250154   4.744   1.564  11.199 -0.9975 -0.2302 -1.1588
 9555TIP3   OH250155   1.480   3.547   0.823 -0.4991 -0.3014  0.3813
 9555TIP3    H150156   1.475   3.626   0.876 -2.7284 -0.0920 -0.0508
 9555TIP3    H250157   1.441   3.572   0.739  0.2296 -1.4447 -0.3311
 9556TIP3   OH250158   5.707   0.915  15.659  0.0691 -0.3261  0.2159
 9556TIP3    H150159   5.729   0.886  15.570 -0.0924  0.3728 -0.0653
 9556TIP3    H250160   5.616   0.943  15.653  0.7545  2.1634 -0.0875
 9557TIP3   OH250161   2.446   2.831   5.298 -0.4587 -0.3649 -0.5559
 9557TIP3    H150162   2.427   2.838   5.204 -0.0653  1.0561 -0.5470
 9557TIP3    H250163   2.496   2.750   5.306 -0.3443 -0.4116 -1.6042
 9558TIP3   OH250164   6.746   5.846  14.230 -0.3468  0.7856 -0.2543
 9558TIP3    H150165   6.709   5.780  14.289  1.2202  1.1616  1.2213
 9558TIP3    H250166   6.676   5.911  14.220 -1.2295 -0.1226 -0.1945
 9559TIP3   OH250167   4.078   1.438   5.119  0.5609  0.1415  0.3234
 9559TIP3    H150168   4.155   1.436   5.062 -0.0610 -2.5785 -0.5496
 9559TIP3    H250169   4.105   1.390   5.197  0.6605  1.8508  1.3928
 9560TIP3   OH250170   4.452   2.732   1.837  0.2374 -0.5084 -0.6131
 9560TIP3    H150171   4.491   2.715   1.923 -0.0168 -0.4654 -0.4864
 9560TIP3    H250172   4.380   2.793   1.856 -0.4098 -1.2219 -0.7204
 9561TIP3   OH250173   4.915   1.704   6.621 -0.2047  0.0423  0.5059
 9561TIP3    H150174   4.833   1.654   6.619  0.0655 -0.3996 -0.4697
 9561TIP3    H250175   4.907   1.766   6.548  0.4214 -0.1629  0.2529
 9562TIP3   OH250176   1.647   5.060   2.171  0.3900  0.2501  0.1871
 9562TIP3    H150177   1.607   4.987   2.123  0.5880 -0.7552  1.4859
 9562TIP3    H250178   1.572   5.109   2.206  0.2523 -0.0578  0.3363
 9563TIP3   OH250179   6.373   0.188   5.785  0.4741 -0.6447  0.3880
 9563TIP3    H150180   6.339   0.103   5.759  0.8748 -0.1940 -1.7535
 9563TIP3    H250181   6.359   0.244   5.709  1.7834  0.7671  1.1331
 9564TIP3   OH250182   6.631   4.187  13.661 -0.1093  0.3599 -0.2690
 9564TIP3    H150183   6.600   4.144  13.582 -1.8755 -0.1965  0.6704
 9564TIP3    H250184   6.561   4.248  13.685  0.4253  0.5837  0.8227
 9565TIP3   OH250185   4.111   2.230   0.064 -0.4395 -0.7467 -0.3756
 9565TIP3    H150186   4.182   2.166   0.062  0.7993  0.5056  1.0992
 9565TIP3    H250187   4.043   2.190   0.118  0.0487 -1.0787 -0.0100
 9566TIP3   OH250188   5.701   3.445   6.305 -0.7041  0.0606 -0.7518
 9566TIP3    H150189   5.737   3.427   6.392 -1.5017  2.4750  0.1370
 9566TIP3    H250190   5.622   3.497   6.322 -0.4131  1.2991 -2.9490
 9567TIP3   OH250191   4.160   1.005  15.026  0.3382  0.8774 -0.5926
 9567TIP3    H150192   4.187   0.914  15.039 -1.4530  0.1084 -1.8816
 9567TIP3    H250193   4.230   1.057  15.066  1.8704 -1.0342 -0.6740
 9568TIP3   OH250194   4.209   4.351   0.009 -0.6303  0.2552 -0.4644
 9568TIP3    H150195   4.175   4.262  -0.001 -1.1480  0.3386  0.4532
 9568TIP3    H250196   4.299   4.339   0.042 -0.6595  0.0681 -0.4544
 9569TIP3   OH250197   2.469   6.524  15.816  0.0527 -0.4384 -0.4742
 9569TIP3    H150198   2.491   6.604  15.863  0.8349  0.1350 -1.7511
 9569TIP3    H250199   2.392   6.490  15.861 -0.2680  1.0059  0.1329
 9570TIP3   OH250200   1.499   3.157  15.631 -0.2746 -0.0383 -0.2823
 9570TIP3    H150201   1.496   3.119  15.543 -0.1414 -0.4601 -0.1057
 9570TIP3    H250202   1.546   3.240  15.620  1.1097 -0.8159 -0.3480
 9571TIP3   OH250203   2.592   6.336  16.446 -0.4876  0.4988 -0.1441
 9571TIP3    H150204   2.626   6.372  16.528 -2.5295 -0.1182  1.0600
 9571TIP3    H250205   2.549   6.410  16.403 -2.4570  0.1691  1.1004
 9572TIP3   OH250206   6.261   5.361  12.520 -0.2681 -0.3265  0.3542
 9572TIP3    H150207   6.324   5.415  12.472 -1.2214  0.2376 -0.2894
 9572TIP3    H250208   6.175   5.391  12.490 -0.8568 -1.0720  1.2232
 9573TIP3   OH250209   4.709   4.298   1.042 -0.2567 -0.3198  0.5986
 9573TIP3    H150210   4.680   4.238   0.973  2.0538 -1.0627  0.1807
 9573TIP3    H250211   4.676   4.259   1.123 -0.5291 -1.0377  0.1536
 9574TIP3   OH250212   4.672   4.934  10.607 -0.1717 -0.2526  0.1503
 9574TIP3    H150213   4.603   4.892  10.556 -1.6181  2.4707 -0.3336
 9574TIP3    H250214   4.702   4.867  10.667 -2.0503 -2.0458 -0.7965
 9575TIP3   OH250215   1.707   4.588   0.840  0.0516 -0.2136 -0.1596
 9575TIP3    H150216   1.715   4.615   0.749  1.5270  1.7650  0.5026
 9575TIP3    H250217   1.784   4.534   0.856 -0.0350 -0.2885  0.0081
 9576TIP3   OH250218   1.264   5.702   1.997 -0.5564 -0.1801  0.3757
 9576TIP3    H150219   1.230   5.753   1.923 -2.3789 -1.7740  0.0423
 9576TIP3    H250220   1.251   5.611   1.972 -0.2447 -0.7822  2.2283
 9577TIP3   OH250221   5.213   3.108  14.706 -0.0136 -0.8616  0.2119
 9577TIP3    H150222   5.154   3.133  14.634  1.1337 -1.0255 -0.8145
 9577TIP3    H250223   5.165   3.131  14.785 -1.1621 -0.3297 -0.6120
 9578TIP3   OH250224   2.336   2.900   5.990 -0.3356  0.3866 -0.1629
 9578TIP3    H150225   2.247   2.922   5.962 -0.9397  2.0488  2.6997
 9578TIP3    H250226   2.392   2.931   5.919 -1.8738  2.1548 -0.6808
 9579TIP3   OH250227   0.247   4.885  14.192  0.2594  0.9500 -0.1313
 9579TIP3    H150228   0.327   4.915  14.236  0.1825  0.5191  0.3110
 9579TIP3    H250229   0.279   4.825  14.124  0.2825  0.2183  0.5082
 9580TIP3   OH250230   3.345   2.520   4.112 -0.0151 -0.2118 -0.1577
 9580TIP3    H150231   3.278   2.458   4.139  0.6029 -0.4546  0.8633
 9580TIP3    H250232   3.419   2.502   4.170  0.9699 -0.0149 -1.3172
 9581TIP3   OH250233   6.369   2.069   4.257 -0.7299  0.6861  0.2566
 9581TIP3    H150234   6.324   2.100   4.179  0.1897  0.6801 -0.2905
 9581TIP3    H250235   6.311   2.001   4.292 -0.5229 -0.2823 -1.1951
 9582TIP3   OH250236   6.564   3.411  14.887  0.0874 -0.3283 -0.1995
 9582TIP3    H150237   6.658   3.413  14.905  0.2415 -0.6104 -0.9106
 9582TIP3    H250238   6.553   3.466  14.809 -0.1743 -1.1646 -0.7643
 9583TIP3   OH250239   5.605   3.492   0.671  0.2119  0.3187 -0.0750
 9583TIP3    H150240   5.673   3.480   0.605 -1.8488  0.3657 -2.3531
 9583TIP3    H250241   5.570   3.404   0.686  3.0504 -0.3936  3.9394
 9584TIP3   OH250242   5.261   1.257  17.193  0.4050 -0.2270 -0.3141
 9584TIP3    H150243   5.330   1.205  17.152  0.7671  1.0391 -1.3886
 9584TIP3    H250244   5.305   1.337  17.222 -0.7221  1.0621 -1.9326
 9585TIP3   OH250245   3.861   0.115   2.500 -0.5955  0.7978  0.7231
 9585TIP3    H150246   3.908   0.035   2.522  0.0755  0.9862  0.0068
 9585TIP3    H250247   3.791   0.086   2.441 -0.9049  0.6258  1.1686
 9586TIP3   OH250248   6.129   0.144  17.409 -0.1702  0.0875  0.0569
 9586TIP3    H150249   6.108   0.203  17.482 -0.2385 -0.3136  0.3718
 9586TIP3    H250250   6.174   0.070  17.451 -0.4159 -0.2577 -0.2723
 9587TIP3   OH250251   1.711   2.897  14.065 -0.3226 -0.7655  0.2217
 9587TIP3    H150252   1.701   2.989  14.039  0.3528 -1.0609 -1.1568
 9587TIP3    H250253   1.704   2.899  14.161 -0.6643  0.6733  0.1958
 9588TIP3   OH250254   3.892   3.744  14.895 -0.4214  0.2359  0.2191
 9588TIP3    H150255   3.917   3.656  14.869 -0.4808  0.6835 -1.5320
 9588TIP3    H250256   3.796   3.744  14.893 -0.4186  0.6238 -0.9786
 9589TIP3   OH250257   4.779   0.348  12.686  0.1218 -0.3187  0.0078
 9589TIP3    H150258   4.860   0.318  12.727  0.1172 -2.5212 -1.4061
 9589TIP3    H250259   4.743   0.269  12.645 -1.5622  1.0775 -1.3378
 9590TIP3   OH250260   3.785   0.412  14.401  0.0750  0.0704  0.7237
 9590TIP3    H150261   3.843   0.434  14.474  1.2403 -1.0599  0.1665
 9590TIP3    H250262   3.741   0.332  14.428 -0.3526  0.2716  0.6381
 9591TIP3   OH250263   6.040   6.234   3.898  0.0543 -0.0282 -0.1514
 9591TIP3    H150264   6.036   6.326   3.870 -0.3000 -0.0821 -0.2806
 9591TIP3    H250265   5.953   6.216   3.933  0.6587  0.2130  1.5536
 9592TIP3   OH250266   3.740   2.851  15.150 -0.4368  0.8508  0.2419
 9592TIP3    H150267   3.831   2.822  15.158 -0.6357  0.0703 -0.2268
 9592TIP3    H250268   3.688   2.777  15.182 -1.0158  0.0054 -2.3898
 9593TIP3   OH250269   2.474   3.642   5.520 -0.0156 -0.2490  0.3693
 9593TIP3    H150270   2.401   3.687   5.478 -0.8599 -0.0734  1.9375
 9593TIP3    H250271   2.437   3.560   5.552  0.7665 -0.6887  0.1825
 9594TIP3   OH250272   2.353   6.721   0.562  0.7131  0.6492  0.0972
 9594TIP3    H150273   2.258   6.710   0.559  0.5167  2.2765 -1.2862
 9594TIP3    H250274   2.382   6.662   0.631 -1.3538  0.5086  0.9096
 9595TIP3   OH250275   4.129   1.352   2.696  0.4907  0.7170  0.1538
 9595TIP3    H150276   4.193   1.423   2.696  1.5761 -0.2304 -0.9664
 9595TIP3    H250277   4.046   1.396   2.716  1.1085  2.3154 -0.5479
 9596TIP3   OH250278   5.798   2.506   5.895  0.0351  0.4472 -0.1672
 9596TIP3    H150279   5.751   2.440   5.945 -0.9780  0.1477 -1.4493
 9596TIP3    H250280   5.878   2.523   5.945  0.5058 -2.0217  0.0264
 9597TIP3   OH250281   4.654   5.595   4.036  0.3767  0.5932  1.1237
 9597TIP3    H150282   4.726   5.615   3.976  0.3809 -1.3006  0.4327
 9597TIP3    H250283   4.690   5.613   4.123  2.0126 -1.0651  0.8518
 9598TIP3   OH250284   1.274   4.369   1.943 -0.2587 -0.1062 -0.5361
 9598TIP3    H150285   1.222   4.433   1.992  1.6358  1.1964 -0.1144
 9598TIP3    H250286   1.241   4.284   1.972 -1.2343  0.6681  0.7066
 9599TIP3   OH250287   0.391   6.399   2.326 -0.3721  0.0626  0.0780
 9599TIP3    H150288   0.437   6.377   2.407 -1.1677  0.8046  0.7441
 9599TIP3    H250289   0.321   6.333   2.320 -0.2828 -0.0221 -0.0335
 9600TIP3   OH250290   1.880   4.337  11.895  0.7206 -0.1825  0.2298
 9600TIP3    H150291   1.911   4.280  11.966 -2.4451 -0.0440  1.8649
 9600TIP3    H250292   1.853   4.276  11.826  1.5203 -0.4134  0.1013
 9601TIP3   OH250293   0.327   4.058  16.334 -0.1163  0.4338 -0.4917
 9601TIP3    H150294   0.263   4.044  16.264 -0.2516  0.3600 -0.3521
 9601TIP3    H250295   0.307   3.992  16.400  0.7880 -0.3040 -0.9321
 9602TIP3   OH250296   0.022   0.146  14.590  0.8288  0.6683  0.1571
 9602TIP3    H150297   0.044   0.127  14.681  1.6857  0.9618  0.0195
 9602TIP3    H250298  -0.068   0.114  14.580  0.5337  1.1231  1.2449
 9603TIP3   OH250299   2.297   2.851   6.244  0.0280 -0.2703  0.0097
 9603TIP3    H150300   2.316   2.856   6.151 -0.2608 -0.1585 -0.0437
 9603TIP3    H250301   2.288   2.757   6.262 -1.0241 -0.2435 -0.3033
 9604TIP3   OH250302   5.556   2.794   6.109 -0.1933  0.2207 -0.7945
 9604TIP3    H150303   5.510   2.749   6.039  0.4206  0.7947 -1.5775
 9604TIP3    H250304   5.494   2.795   6.182 -0.8383 -0.3762 -1.3218
 9605TIP3   OH250305   3.054   2.299   3.283  0.6185  0.2168  0.2940
 9605TIP3    H150306   3.022   2.362   3.219  0.0096 -1.1340 -0.7537
 9605TIP3    H250307   2.989   2.301   3.353  0.5057  0.6117  0.1821
 9606TIP3   OH250308   5.721   3.896   0.078  0.9200 -0.6728 -0.5593
 9606TIP3    H150309   5.777   3.943   0.016  0.2987  0.9420  0.0354
 9606TIP3    H250310   5.765   3.812   0.092  3.5978  0.7566  0.4104
 9607TIP3   OH250311   2.091   1.365  16.442  0.4434 -0.1811  0.4808
 9607TIP3    H150312   2.087   1.380  16.536  0.4621  0.6918  0.3530
 9607TIP3    H250313   2.122   1.275  16.433  0.6051 -0.2144  1.3066
 9608TIP3   OH250314   5.527   6.126   3.512  0.0532 -0.3649  0.2058
 9608TIP3    H150315   5.452   6.127   3.571 -1.7754 -1.1125 -1.9796
 9608TIP3    H250316   5.515   6.204   3.458  0.5870 -0.7628 -0.4905
 9609TIP3   OH250317   1.481   5.972   5.979  0.3373  0.1409 -0.1466
 9609TIP3    H150318   1.499   6.022   5.899 -0.5396 -0.8480 -0.9934
 9609TIP3    H250319   1.466   5.882   5.948 -0.4042 -0.1847  1.0837
 9610TIP3   OH250320   3.505   3.979   3.556 -0.6809 -0.4062 -0.0545
 9610TIP3    H150321   3.528   3.889   3.531  0.5882 -0.8319  2.3542
 9610TIP3    H250322   3.572   4.005   3.618 -0.1555  2.8355 -1.7587
 9611TIP3   OH250323   6.378   2.276  16.721  0.3017  0.5882  0.0261
 9611TIP3    H150324   6.363   2.253  16.813 -0.7538  2.5815  0.4170
 9611TIP3    H250325   6.405   2.194  16.680 -0.6004 -0.6758  1.8037
 9612TIP3   OH250326   2.743   0.322  12.548  0.0728 -0.3559 -0.1557
 9612TIP3    H150327   2.731   0.411  12.581 -1.7749 -0.2000 -1.0871
 9612TIP3    H250328   2.807   0.332  12.477 -1.2663  0.5563 -1.3074
 9613TIP3   OH250329   0.187   5.793   0.967 -0.1641  0.1748  0.7460
 9613TIP3    H150330   0.238   5.800   1.047 -1.4565  0.5365  1.5681
 9613TIP3    H250331   0.193   5.701   0.942 -1.0146 -0.2798  2.1380
 9614TIP3   OH250332   1.096   2.258  16.501 -0.0779 -0.5954 -0.3696
 9614TIP3    H150333   1.056   2.319  16.438  0.8792  0.3758 -0.0692
 9614TIP3    H250334   1.022   2.220  16.548 -0.8386 -1.5633 -2.2502
 9615TIP3   OH250335   5.018   4.557  14.537 -0.1176 -0.3831  0.3003
 9615TIP3    H150336   4.929   4.572  14.568 -0.1423 -0.4000  0.2370
 9615TIP3    H250337   5.057   4.645  14.531  0.6662 -0.4771  2.6883
 9616TIP3   OH250338   2.811   2.692  14.059  0.2095  0.3789  0.0386
 9616TIP3    H150339   2.874   2.626  14.028  2.1750  1.8959  0.6212
 9616TIP3    H250340   2.820   2.690  14.154  1.5869  2.6105  0.0146
 9617TIP3   OH250341   3.988   6.218  12.218 -0.1658 -0.8778  0.7265
 9617TIP3    H150342   4.035   6.241  12.138 -0.7541 -0.2715  0.5578
 9617TIP3    H250343   3.917   6.281  12.225 -0.5382 -1.3477  1.3642
 9618TIP3   OH250344   3.482   2.829   4.128  0.6018  0.6196 -0.1220
 9618TIP3    H150345   3.555   2.773   4.156 -0.2979 -0.3591  0.3473
 9618TIP3    H250346   3.489   2.907   4.184  0.8271  0.1924  0.4536
 9619TIP3   OH250347   3.460   6.254  16.153 -0.4915  0.3040  0.5926
 9619TIP3    H150348   3.487   6.346  16.157 -0.5549  0.2787  2.4844
 9619TIP3    H250349   3.503   6.214  16.229 -2.0918 -0.7573  0.9716
 9620TIP3   OH250350   3.642   0.580  14.578  0.2309  0.1758 -0.6226
 9620TIP3    H150351   3.595   0.585  14.662  1.2764 -1.3976  0.1044
 9620TIP3    H250352   3.626   0.491  14.548  1.9052 -0.0728 -0.8464
 9621TIP3   OH250353   2.706   1.106   1.663 -0.3350 -0.3447  0.3352
 9621TIP3    H150354   2.695   1.031   1.722 -0.9779 -0.6100 -0.1076
 9621TIP3    H250355   2.617   1.125   1.631 -0.2320  0.8255  0.7030
 9622TIP3   OH250356   5.370   3.157  11.889 -0.3017 -0.1546 -0.0646
 9622TIP3    H150357   5.308   3.164  11.817 -0.8576  1.5103  0.5062
 9622TIP3    H250358   5.320   3.118  11.961  0.3640 -2.1979 -0.6477
 9623TIP3   OH250359   6.287   1.368   3.939 -0.2364 -0.3114 -0.0741
 9623TIP3    H150360   6.241   1.428   3.998  0.5168  1.3837 -1.1022
 9623TIP3    H250361   6.379   1.376   3.963 -0.1657 -1.4669  0.0849
 9624TIP3   OH250362   0.129   6.350  12.292 -0.2408  0.2576  0.3639
 9624TIP3    H150363   0.126   6.255  12.306  0.4079  0.0658 -0.6732
 9624TIP3    H250364   0.217   6.375  12.320 -0.2240  0.4587  0.1367
 9625TIP3   OH250365   3.299   0.907   4.983 -0.2147  0.7792  0.1191
 9625TIP3    H150366   3.276   0.872   4.897 -1.1278 -0.4608  0.8325
 9625TIP3    H250367   3.221   0.955   5.011  0.7528  2.8430 -0.5214
 9626TIP3   OH250368   5.912   5.007  11.800  0.4137  0.0576 -0.4445
 9626TIP3    H150369   5.889   5.005  11.707 -1.5686  0.7575 -0.0058
 9626TIP3    H250370   5.858   5.076  11.837  2.3648  0.9066  0.9603
 9627TIP3   OH250371   6.747   2.120  16.636  0.1510  0.1410  0.5968
 9627TIP3    H150372   6.829   2.075  16.617  0.0533  0.2610 -0.1204
 9627TIP3    H250373   6.749   2.133  16.731 -0.4949 -2.6756  1.0946
 9628TIP3   OH250374   5.628   2.882  16.664  0.7418  0.2516  0.0888
 9628TIP3    H150375   5.687   2.957  16.672  1.3280 -0.3109  1.3726
 9628TIP3    H250376   5.681   2.806  16.687 -0.0342 -0.4894 -0.4558
 9629TIP3   OH250377   6.507   0.825   5.241 -0.5879 -0.0751  0.1178
 9629TIP3    H150378   6.424   0.863   5.269 -0.4777 -1.2862  2.3032
 9629TIP3    H250379   6.562   0.901   5.220 -1.7591  0.7876  0.0814
 9630TIP3   OH250380   1.992   2.381   2.585 -0.3099  0.0347 -0.3455
 9630TIP3    H150381   1.959   2.315   2.524 -1.0865 -0.6897  0.8246
 9630TIP3    H250382   1.926   2.450   2.584  0.7314  1.0512 -1.9244
 9631TIP3   OH250383   3.218   5.853  17.041 -0.2360 -0.3014  0.3872
 9631TIP3    H150384   3.201   5.943  17.069  1.4619  0.3452 -0.5450
 9631TIP3    H250385   3.191   5.851  16.949 -1.7104 -1.2135  0.7974
 9632TIP3   OH250386   5.886   2.969  16.171 -0.0567 -0.4118  0.4644
 9632TIP3    H150387   5.947   2.911  16.217 -1.9749 -2.3010  0.7980
 9632TIP3    H250388   5.801   2.950  16.210 -1.3032  0.0934 -1.8271
 9633TIP3   OH250389   0.811   4.889   4.043 -0.2231  0.2633  0.3953
 9633TIP3    H150390   0.769   4.935   4.116 -0.4231  0.2569  0.2849
 9633TIP3    H250391   0.790   4.942   3.966  0.9162  0.8795  0.4908
 9634TIP3   OH250392   2.477   0.085  12.591  0.0624 -0.3380 -0.2429
 9634TIP3    H150393   2.491   0.066  12.498 -2.0930 -2.2768 -0.2636
 9634TIP3    H250394   2.396   0.137  12.592  1.1066  1.3527  0.4712
 9635TIP3   OH250395   6.222   1.512   1.256  0.2926  0.4435 -0.2259
 9635TIP3    H150396   6.147   1.455   1.275  0.7449  0.2089  0.9794
 9635TIP3    H250397   6.294   1.451   1.238 -0.1021  0.6638 -2.8068
 9636TIP3   OH250398   0.093   5.649   5.313 -0.4442 -0.0583 -0.1097
 9636TIP3    H150399   0.100   5.736   5.272 -0.8066  0.3708  0.7136
 9636TIP3    H250400   0.005   5.618   5.289 -0.8691  0.4298  0.7728
 9637TIP3   OH250401   2.029   0.540  13.250  0.3366  0.6915  0.2207
 9637TIP3    H150402   2.051   0.609  13.187  1.9135  1.6098  1.6827
 9637TIP3    H250403   2.013   0.587  13.332  1.3484 -0.6423  1.2330
 9638TIP3   OH250404   5.533   5.893  16.281  0.0299  0.3192 -0.1962
 9638TIP3    H150405   5.485   5.829  16.333  1.0381 -1.3889 -1.2724
 9638TIP3    H250406   5.513   5.870  16.190  0.8939  1.1504 -0.6138
 9639TIP3   OH250407   6.313   3.781  11.958  0.0167 -0.2219 -0.0240
 9639TIP3    H150408   6.303   3.722  11.884 -1.6310  0.8527 -0.7256
 9639TIP3    H250409   6.407   3.799  11.963  0.3193 -1.4537 -0.9083
 9640TIP3   OH250410   5.083   6.531   3.588 -0.4729  0.6713  0.4574
 9640TIP3    H150411   4.996   6.570   3.595 -0.9695 -0.4001  0.4906
 9640TIP3    H250412   5.070   6.453   3.535  0.1519 -0.4201  1.8481
 9641TIP3   OH250413   0.187   5.644   5.568  0.2682 -0.4472  0.2979
 9641TIP3    H150414   0.175   5.556   5.602 -1.0284 -0.4716 -0.1976
 9641TIP3    H250415   0.151   5.642   5.479 -1.0174  0.9098  0.7499
 9642TIP3   OH250416   0.025   5.766  15.383 -0.4720 -0.5955  0.8396
 9642TIP3    H150417  -0.024   5.737  15.460 -0.6225 -0.3016  0.8547
 9642TIP3    H250418  -0.042   5.777  15.315 -0.0966 -3.3475 -0.1223
 9643TIP3   OH250419   6.320   6.734  11.098 -0.2498 -0.3169 -0.6037
 9643TIP3    H150420   6.335   6.814  11.147  1.3688 -0.6954 -0.4481
 9643TIP3    H250421   6.272   6.762  11.020  1.0493  0.9443 -0.9848
 9644TIP3   OH250422   0.157   1.805  13.014 -0.1400  0.1217 -0.1309
 9644TIP3    H150423   0.117   1.758  12.942  1.1816  0.3262 -1.0496
 9644TIP3    H250424   0.092   1.870  13.040 -0.6682 -0.0030 -1.0972
 9645TIP3   OH250425   3.882   0.363   2.831 -0.1315  0.1915  0.4605
 9645TIP3    H150426   3.865   0.272   2.853 -1.1307  0.2579  0.0214
 9645TIP3    H250427   3.853   0.372   2.740  3.3502  0.0613 -0.8090
 9646TIP3   OH250428   3.577   0.047  15.832 -0.1044  0.2564 -0.4567
 9646TIP3    H150429   3.526   0.126  15.851 -0.1436  0.4243 -1.2059
 9646TIP3    H250430   3.540   0.014  15.750 -0.5245 -0.9273  0.1905
 9647TIP3   OH250431   0.450   0.913   2.367 -0.3799  0.4188 -0.2572
 9647TIP3    H150432   0.444   0.844   2.432 -0.2160 -0.3774 -1.0632
 9647TIP3    H250433   0.388   0.980   2.397 -0.3099  0.0636  0.6985
 9648TIP3   OH250434   6.748   2.608   5.150  0.1658  0.0873 -0.3208
 9648TIP3    H150435   6.720   2.699   5.154  0.1362  0.1060 -0.9160
 9648TIP3    H250436   6.823   2.608   5.090  1.8662  0.1399  1.6669
 9649TIP3   OH250437   1.495   4.599   1.579  0.4392  0.5505  0.6791
 9649TIP3    H150438   1.486   4.580   1.486  1.0053  1.9623  0.3186
 9649TIP3    H250439   1.411   4.573   1.617 -0.3168  1.2484 -0.4528
 9650TIP3   OH250440   1.148   2.013   1.300  0.1692 -0.7904 -0.3150
 9650TIP3    H150441   1.082   2.083   1.296  0.2772 -0.3281  3.1970
 9650TIP3    H250442   1.225   2.051   1.259 -0.0684  0.8299  0.6607
 9651TIP3   OH250443   3.911   3.694  16.894 -0.4937  0.4371 -0.1323
 9651TIP3    H150444   3.986   3.704  16.952 -0.0140  1.4229 -0.8880
 9651TIP3    H250445   3.843   3.750  16.933 -0.2652  0.8783 -0.3603
 9652TIP3   OH250446   1.879   2.587  13.498  0.2464 -0.0869 -0.2719
 9652TIP3    H150447   1.825   2.591  13.576 -0.0698  1.5563 -0.5406
 9652TIP3    H250448   1.834   2.642  13.434  1.3316 -0.0850 -1.0717
 9653TIP3   OH250449   0.263   0.534   4.273 -0.4019  0.0265 -0.1327
 9653TIP3    H150450   0.296   0.494   4.193  0.2903 -1.3776  0.8119
 9653TIP3    H250451   0.172   0.504   4.279 -0.1394 -0.7347  0.1299
 9654TIP3   OH250452   1.683   1.816   0.138  0.1493  0.1836 -0.1561
 9654TIP3    H150453   1.694   1.881   0.069 -0.2318  0.6925  0.2643
 9654TIP3    H250454   1.763   1.821   0.189 -0.0405  0.5886  0.1018
 9655TIP3   OH250455   4.475   0.329   5.977 -0.4937  0.3545 -0.1942
 9655TIP3    H150456   4.512   0.417   5.967  0.3847 -0.0467 -0.6218
 9655TIP3    H250457   4.446   0.326   6.068 -0.8385  1.1956 -0.2625
 9656TIP3   OH250458   3.143   2.735   1.018  0.3424  0.2948  0.1027
 9656TIP3    H150459   3.228   2.774   0.998  0.3257  0.2747 -0.0077
 9656TIP3    H250460   3.146   2.649   0.976  0.6884 -0.1539  1.0205
 9657TIP3   OH250461   4.256   2.914   5.125 -0.4848 -0.4167 -0.0753
 9657TIP3    H150462   4.348   2.904   5.150  0.1856  0.4527 -1.9894
 9657TIP3    H250463   4.257   2.984   5.059 -2.4450 -0.7756 -0.5352
 9658TIP3   OH250464   0.486   2.951   0.610 -0.8675  0.1520  0.3231
 9658TIP3    H150465   0.450   2.947   0.521 -1.3378  0.1567  0.5077
 9658TIP3    H250466   0.413   2.983   0.664 -0.4857  0.4637  0.6590
 9659TIP3   OH250467   2.728   3.715   2.553  0.4423  0.2402  0.1387
 9659TIP3    H150468   2.740   3.699   2.646  1.0450 -0.4985 -0.0570
 9659TIP3    H250469   2.717   3.628   2.514 -0.0724  0.5538 -0.4514
 9660TIP3   OH250470   2.167   5.209   3.136  0.4144  0.3955 -0.0127
 9660TIP3    H150471   2.136   5.172   3.218 -0.4644 -0.2764 -0.6336
 9660TIP3    H250472   2.163   5.304   3.149  0.0556  0.2952  0.6297
 9661TIP3   OH250473   6.450   3.362  16.123  0.3273  0.1281  0.9011
 9661TIP3    H150474   6.386   3.433  16.137 -0.2742 -0.1879 -0.1612
 9661TIP3    H250475   6.404   3.299  16.068  1.7318  0.1398 -0.3416
 9662TIP3   OH250476   3.548   4.524  11.500  1.0781  0.1932  0.5961
 9662TIP3    H150477   3.463   4.544  11.462  1.4409 -1.7256 -1.4272
 9662TIP3    H250478   3.530   4.460  11.569  0.7575  1.0036  1.2770
 9663TIP3   OH250479   5.532   3.621   3.287 -0.0443  0.3109 -0.1280
 9663TIP3    H150480   5.473   3.609   3.362 -0.4275 -1.8927 -0.7065
 9663TIP3    H250481   5.599   3.553   3.299  0.1499  0.2360 -1.5389
 9664TIP3   OH250482   1.374   1.473  16.041  0.0378 -0.4672 -0.2166
 9664TIP3    H150483   1.284   1.504  16.054 -0.1782 -1.8157  2.2642
 9664TIP3    H250484   1.421   1.548  16.006 -1.7034  0.7698 -0.0377
 9665TIP3   OH250485   1.621   5.256   2.548  0.1462 -0.6962  0.3733
 9665TIP3    H150486   1.639   5.319   2.478 -0.7561  0.7331  1.3524
 9665TIP3    H250487   1.632   5.170   2.507  0.4363  0.0909 -1.2874
 9666TIP3   OH250488   0.958   1.055   4.613 -0.1765 -0.6905 -0.4193
 9666TIP3    H150489   1.050   1.028   4.619  0.2794  0.1411 -2.7637
 9666TIP3    H250490   0.913   0.999   4.676  2.2337  0.5012  2.6782
 9667TIP3   OH250491   3.765   5.213  16.082  0.1409 -0.2166 -0.2948
 9667TIP3    H150492   3.732   5.246  16.166 -1.1154 -0.8155 -0.5415
 9667TIP3    H250493   3.860   5.210  16.094  0.0565  0.7162  0.7332
 9668TIP3   OH250494   4.700   4.694  12.363 -0.1311  0.1318 -0.2052
 9668TIP3    H150495   4.729   4.753  12.292  1.3227 -0.0949  0.1619
 9668TIP3    H250496   4.688   4.610  12.320 -0.8025  0.3575 -0.4677
 9669TIP3   OH250497   2.028   0.957   3.799 -0.0180 -0.8444 -0.7586
 9669TIP3    H150498   2.097   0.910   3.844  0.3830  0.4589  0.0503
 9669TIP3    H250499   1.949   0.904   3.813  0.1227 -0.5677  1.3859
 9670TIP3   OH250500   1.988   3.115  16.424 -0.3941 -0.2748  0.3225
 9670TIP3    H150501   1.915   3.167  16.389  0.2950  1.1163  0.8903
 9670TIP3    H250502   2.007   3.155  16.509  0.8160 -0.8358  0.3263
 9671TIP3   OH250503   5.759   1.075   6.299  0.4751 -0.4037 -0.4908
 9671TIP3    H150504   5.702   1.076   6.376  0.4981  1.1430 -0.4686
 9671TIP3    H250505   5.848   1.067   6.334  0.9395  4.4936  0.0781
 9672TIP3   OH250506   6.384   4.935  13.252 -0.0903 -0.3305 -0.6105
 9672TIP3    H150507   6.387   5.015  13.200  0.0565 -0.7005 -1.1735
 9672TIP3    H250508   6.404   4.865  13.190  1.1075 -0.6795  0.1439
 9673TIP3   OH250509   2.286   0.140  16.287  0.1550  0.4341  0.1286
 9673TIP3    H150510   2.269   0.183  16.203 -1.8760 -1.3726 -0.4664
 9673TIP3    H250511   2.209   0.161  16.341  0.9881  0.7698  1.2311
 9674TIP3   OH250512   3.359   0.140   3.339 -0.6655 -0.2948  0.0940
 9674TIP3    H150513   3.422   0.181   3.397 -0.6302  0.1323 -0.2417
 9674TIP3    H250514   3.360   0.194   3.260 -2.4230  0.5373  0.5807
 9675TIP3   OH250515   4.911   2.940  15.581  0.1973  0.0361 -0.3917
 9675TIP3    H150516   4.884   2.996  15.654  0.1588 -1.2553  0.6291
 9675TIP3    H250517   4.931   2.855  15.622  3.4699  0.1798 -1.3981
 9676TIP3   OH250518   6.418   4.330   1.850 -0.3610  0.2598 -0.5333
 9676TIP3    H150519   6.348   4.308   1.911  1.5409 -0.7103  1.4684
 9676TIP3    H250520   6.456   4.411   1.885 -1.3801  1.6551 -2.4804
 9677TIP3   OH250521   0.270   4.399  13.947 -0.0766  0.1342 -0.4570
 9677TIP3    H150522   0.211   4.404  13.872  0.0574 -0.6640 -0.6242
 9677TIP3    H250523   0.214   4.420  14.022 -0.0984  1.4335 -0.8162
 9678TIP3   OH250524   0.339   5.478   0.082 -0.5476  0.1010  0.3030
 9678TIP3    H150525   0.316   5.401   0.134  0.1188  0.3285  0.9504
 9678TIP3    H250526   0.394   5.531   0.140 -1.0377  1.0951 -0.1102
 9679TIP3   OH250527   1.165   2.072  13.256 -0.3147  0.1349  0.6208
 9679TIP3    H150528   1.177   2.160  13.220 -0.6324 -0.1838 -0.3026
 9679TIP3    H250529   1.205   2.015  13.190 -1.8092 -0.5431  0.2641
 9680TIP3   OH250530   1.567   0.339   0.690  0.3129  0.0560 -0.4365
 9680TIP3    H150531   1.483   0.324   0.647 -1.7478  0.8634  2.9139
 9680TIP3    H250532   1.614   0.398   0.632 -1.0365 -1.0691 -2.7984
 9681TIP3   OH250533   0.282   0.081   4.744  0.0975  0.4918 -0.1868
 9681TIP3    H150534   0.322   0.165   4.723  0.7774  0.9155  2.4206
 9681TIP3    H250535   0.199   0.081   4.697  0.9308  1.7545 -1.7593
 9682TIP3   OH250536   6.570   1.233   1.513 -0.2674 -0.1376  0.0884
 9682TIP3    H150537   6.575   1.320   1.553  1.7798  0.2514 -0.8628
 9682TIP3    H250538   6.476   1.218   1.499 -0.7182  1.5309  1.0628
 9683TIP3   OH250539   3.113   1.224   3.642 -0.3080  0.2477 -0.2062
 9683TIP3    H150540   3.184   1.273   3.602  0.9703 -0.2838  1.2863
 9683TIP3    H250541   3.132   1.132   3.622 -0.9203  0.1320 -0.2976
 9684TIP3   OH250542   1.121   0.991  16.859  0.0718  0.3669 -0.1768
 9684TIP3    H150543   1.149   0.996  16.768  0.6358  2.0498  0.0524
 9684TIP3    H250544   1.093   0.900  16.871  1.8786 -0.4042 -1.4603
 9685TIP3   OH250545   2.233   2.189   2.420  0.2809 -0.4487  0.1496
 9685TIP3    H150546   2.210   2.119   2.481  0.4337 -0.7297 -0.1080
 9685TIP3    H250547   2.149   2.220   2.386  0.1413  0.3504  1.1965
 9686TIP3   OH250548   0.547   3.466  15.945 -0.3718  0.2810  0.5220
 9686TIP3    H150549   0.600   3.421  16.012  0.1838  0.3935  0.1661
 9686TIP3    H250550   0.503   3.395  15.898  0.2928  0.1157  0.1365
 9687TIP3   OH250551   4.402   5.810  12.306 -0.0382 -0.2266 -0.5752
 9687TIP3    H150552   4.490   5.836  12.331  0.0960 -1.4297  0.3204
 9687TIP3    H250553   4.357   5.892  12.286  0.8627  0.5328  0.3849
 9688TIP3   OH250554   1.159   5.313   5.807  0.5070  0.1551  0.1897
 9688TIP3    H150555   1.249   5.326   5.775  1.1000  0.1328  1.7535
 9688TIP3    H250556   1.170   5.264   5.888 -1.0714 -1.7852 -0.6641
 9689TIP3   OH250557   0.752   6.635   5.496 -0.1897 -0.6714 -0.3213
 9689TIP3    H150558   0.757   6.570   5.566 -0.9777 -0.7156 -0.2993
 9689TIP3    H250559   0.682   6.603   5.439 -0.1513 -0.1720 -0.6537
 9690TIP3   OH250560   3.373   4.744   4.971 -0.2249 -0.7812  0.2114
 9690TIP3    H150561   3.297   4.757   4.914 -1.5273 -0.1365  1.9894
 9690TIP3    H250562   3.414   4.831   4.976 -0.1858 -0.8057  0.3225
 9691TIP3   OH250563   0.084   1.032   4.913 -0.5001  0.1583  0.1230
 9691TIP3    H150564   0.151   1.101   4.915  0.3838 -0.6856  0.5559
 9691TIP3    H250565   0.016   1.066   4.855  0.5079  0.8657 -0.6907
 9692TIP3   OH250566   2.288   0.658   6.056  0.8161 -0.2479 -0.1184
 9692TIP3    H150567   2.338   0.663   5.975 -0.4531 -0.5438 -0.9448
 9692TIP3    H250568   2.353   0.642   6.124  1.8397 -0.5793 -1.1543
 9693TIP3   OH250569   3.370   4.192  15.033  1.1497  0.1424  0.5885
 9693TIP3    H150570   3.420   4.262  15.074  0.1983  1.6472 -0.6883
 9693TIP3    H250571   3.300   4.172  15.095  1.4308  0.3280  0.9650
 9694TIP3   OH250572   3.336   0.318   1.929 -0.0969 -0.1877  0.7291
 9694TIP3    H150573   3.366   0.408   1.943 -0.5896  0.8970 -3.6325
 9694TIP3    H250574   3.241   0.322   1.940 -0.2360  0.1341 -0.4558
 9695TIP3   OH250575   3.305   0.426  14.102 -0.3724  0.0425 -0.0053
 9695TIP3    H150576   3.326   0.365  14.031  3.2026 -0.2582  1.1169
 9695TIP3    H250577   3.256   0.373  14.165  0.3349 -0.9585 -0.2689
 9696TIP3   OH250578   0.994   1.889  12.855 -0.1677  0.6365 -0.0130
 9696TIP3    H150579   0.911   1.852  12.886 -0.1819 -1.5118 -2.2743
 9696TIP3    H250580   0.971   1.933  12.773  0.4425  2.9702  0.9887
 9697TIP3   OH250581   2.059   1.919  15.865  0.2909  0.2533 -0.3313
 9697TIP3    H150582   1.984   1.948  15.916  0.1273  0.3349 -0.6144
 9697TIP3    H250583   2.099   1.849  15.917  0.0852  0.2893 -0.1281
 9698TIP3   OH250584   1.887   4.269   5.769  0.0446  0.0828 -0.1708
 9698TIP3    H150585   1.916   4.357   5.794  0.5481 -0.2149  0.3256
 9698TIP3    H250586   1.937   4.249   5.690 -0.9315  0.6935 -0.9750
 9699TIP3   OH250587   1.339   0.806  11.673 -0.1412  0.3416 -0.6505
 9699TIP3    H150588   1.272   0.769  11.731 -0.3178  0.6022 -0.6863
 9699TIP3    H250589   1.307   0.785  11.585  1.4941 -2.5512 -0.6980
 9700TIP3   OH250590   1.455   1.745   5.349 -0.1211 -0.4164  0.5192
 9700TIP3    H150591   1.379   1.714   5.398 -0.7032 -0.7709 -0.5558
 9700TIP3    H250592   1.429   1.735   5.257  0.9707  0.1086  0.1395
 9701TIP3   OH250593   3.517   6.737   0.207  0.3077  0.0428 -0.4455
 9701TIP3    H150594   3.559   6.821   0.189  1.7935 -0.4618  0.4295
 9701TIP3    H250595   3.538   6.719   0.299  2.0639 -2.3364 -1.1915
 9702TIP3   OH250596   0.791   2.806  12.038  0.3717  0.1434 -0.1215
 9702TIP3    H150597   0.749   2.823  12.123  0.6771 -0.6323  0.1924
 9702TIP3    H250598   0.718   2.778  11.982  0.2583  0.0831  0.0518
 9703TIP3   OH250599   3.457   6.747  12.738 -1.0228 -0.2096 -0.1323
 9703TIP3    H150600   3.389   6.692  12.700 -0.8770 -0.1156 -0.5299
 9703TIP3    H250601   3.498   6.693  12.805 -0.0850 -1.0116 -1.3222
 9704TIP3   OH250602   4.822   1.979  15.160 -0.1748  0.2821  0.4051
 9704TIP3    H150603   4.799   1.987  15.253 -0.7034 -0.5259  0.3499
 9704TIP3    H250604   4.756   1.920  15.124  1.0142 -0.7794 -0.1158
 9705TIP3   OH250605   1.704   5.061  15.259  0.0856  0.3377 -0.6965
 9705TIP3    H150606   1.700   5.146  15.215  0.7801  0.0081 -1.4066
 9705TIP3    H250607   1.750   5.078  15.341 -1.2682  0.9659 -0.0237
 9706TIP3   OH250608   6.455   4.011  10.630 -1.0890  0.0001 -0.4947
 9706TIP3    H150609   6.383   3.953  10.603 -1.0859 -0.0289 -0.4400
 9706TIP3    H250610   6.450   4.085  10.569 -0.0370 -0.8610 -1.6597
 9707TIP3   OH250611   5.775   2.642  13.597 -0.4730 -0.2445 -0.4730
 9707TIP3    H150612   5.785   2.715  13.535  1.2561 -0.5574 -0.5988
 9707TIP3    H250613   5.830   2.666  13.672 -0.6331 -0.9822 -0.1112
 9708TIP3   OH250614   3.487   1.687   2.359 -0.0226 -0.0890 -0.2575
 9708TIP3    H150615   3.401   1.728   2.369 -0.1202 -0.2689 -0.3583
 9708TIP3    H250616   3.497   1.674   2.265  0.6180  0.9945 -0.3534
 9709TIP3   OH250617   0.711   3.893   0.239  0.1591 -0.0302 -0.5013
 9709TIP3    H150618   0.675   3.966   0.187 -0.0836  0.5580  0.4779
 9709TIP3    H250619   0.655   3.888   0.316  1.4049  0.0576  0.4332
 9710TIP3   OH250620   3.973   4.424  11.055 -0.1845 -0.4956  0.3258
 9710TIP3    H150621   4.036   4.382  10.997 -1.3528 -1.7982 -0.0650
 9710TIP3    H250622   3.938   4.497  11.005  0.8650  0.1220  0.4780
 9711TIP3   OH250623   0.329   5.439   2.833  0.0830 -0.5568  0.0673
 9711TIP3    H150624   0.387   5.505   2.870 -3.2568  2.5289  0.3877
 9711TIP3    H250625   0.339   5.363   2.890  3.0026  0.1179  0.6216
 9712TIP3   OH250626   2.598   3.119  16.244 -0.3169 -0.1205  0.2496
 9712TIP3    H150627   2.655   3.195  16.230 -1.0358  0.6819  1.4101
 9712TIP3    H250628   2.596   3.109  16.339 -1.3701 -0.7026  0.1742
 9713TIP3   OH250629   3.290   4.658   5.929  0.2793  0.4378  0.2845
 9713TIP3    H150630   3.375   4.618   5.913  0.4989  1.6066 -1.7817
 9713TIP3    H250631   3.265   4.626   6.016  1.8406 -1.5978  0.0725
 9714TIP3   OH250632   5.123   1.240  12.881  0.4263  0.1313  0.3201
 9714TIP3    H150633   5.035   1.250  12.918 -0.1859  1.3963 -1.2946
 9714TIP3    H250634   5.140   1.146  12.883 -2.1571 -0.5211 -1.7452
 9715TIP3   OH250635   1.489   5.082  14.995  0.2316 -0.2758  0.0265
 9715TIP3    H150636   1.421   5.103  15.060 -1.7214  0.3259 -2.0984
 9715TIP3    H250637   1.446   5.023  14.933  1.5243  0.4126 -1.6026
 9716TIP3   OH250638   4.757   0.855   4.681 -0.2484  0.4827 -0.7399
 9716TIP3    H150639   4.784   0.775   4.726  0.3495  0.2224 -1.5238
 9716TIP3    H250640   4.799   0.926   4.730 -1.5931  0.4063  0.5498
 9717TIP3   OH250641   2.126   2.559   3.723 -0.3386 -0.5344 -0.1342
 9717TIP3    H150642   2.079   2.594   3.798 -1.3418  0.5183 -1.2084
 9717TIP3    H250643   2.110   2.622   3.653  4.7924  1.3223 -0.0020
 9718TIP3   OH250644   4.427   5.202  13.785 -0.6469  0.0885  0.1164
 9718TIP3    H150645   4.500   5.142  13.768 -0.2987  0.2916  0.8737
 9718TIP3    H250646   4.465   5.272  13.837 -1.5399 -0.1660  1.1373
 9719TIP3   OH250647   5.573   1.305  17.398 -0.5234  0.5937  0.3963
 9719TIP3    H150648   5.511   1.344  17.337 -1.4130  1.7411  1.9369
 9719TIP3    H250649   5.520   1.285  17.476  0.9837  1.4645  1.7065
 9720TIP3   OH250650   5.418   1.593  15.169  0.3628  0.1268 -0.5553
 9720TIP3    H150651   5.382   1.651  15.102  2.5172 -0.4862 -2.3701
 9720TIP3    H250652   5.362   1.515  15.166 -0.2922  0.5980 -0.7656
 9721TIP3   OH250653   2.857   3.924  13.065 -0.3120  0.5582  0.4022
 9721TIP3    H150654   2.860   3.876  13.148  0.4998 -0.6936 -0.3109
 9721TIP3    H250655   2.847   4.016  13.090 -0.3355  0.1742  1.8699
 9722TIP3   OH250656   3.819   3.689  13.387  0.1823  0.9650 -0.5452
 9722TIP3    H150657   3.775   3.655  13.309 -0.6376  1.0269 -0.1244
 9722TIP3    H250658   3.834   3.781  13.367  1.0122  0.7282 -1.0733
 9723TIP3   OH250659   0.185   2.516   2.101  0.1636  0.6552  0.3746
 9723TIP3    H150660   0.154   2.457   2.170  0.8288  0.3399  0.4163
 9723TIP3    H250661   0.274   2.487   2.084 -0.7346 -0.8987 -2.3335
 9724TIP3   OH250662   2.313   4.999   3.417 -0.5862 -0.1020 -0.2355
 9724TIP3    H150663   2.344   5.055   3.488  0.5812 -0.5077 -0.4082
 9724TIP3    H250664   2.392   4.977   3.368 -1.4799  1.0200 -2.3025
 9725TIP3   OH250665   3.223   2.722  13.763 -0.6470  0.1832 -0.1392
 9725TIP3    H150666   3.191   2.688  13.679  0.2468  0.0774 -0.4576
 9725TIP3    H250667   3.282   2.654  13.795  0.9079  1.2439 -0.6194
 9726TIP3   OH250668   6.378   2.928   3.399 -0.4728  0.0929 -0.0321
 9726TIP3    H150669   6.379   2.834   3.384  0.3840 -0.1771  1.5189
 9726TIP3    H250670   6.400   2.938   3.491 -1.8275  1.7636  0.1623
 9727TIP3   OH250671   2.733   2.461   1.815 -0.4325  0.3028  0.3733
 9727TIP3    H150672   2.679   2.471   1.736 -0.0822 -1.1234 -0.0926
 9727TIP3    H250673   2.814   2.506   1.795  0.8499 -2.4985 -1.3666
 9728TIP3   OH250674   4.815   4.458   4.171 -0.4078  0.2324  0.5757
 9728TIP3    H150675   4.819   4.476   4.077  0.2961  0.3924  0.6284
 9728TIP3    H250676   4.785   4.368   4.177  0.8181 -0.2269  0.1399
 9729TIP3   OH250677   2.774   6.126  11.346  0.2838 -0.0820  0.7350
 9729TIP3    H150678   2.839   6.152  11.282 -0.1506 -0.0833  0.2903
 9729TIP3    H250679   2.773   6.198  11.410  0.1454  0.2937  0.3111
 9730TIP3   OH250680   2.178   6.296   0.623  0.4659 -0.2937  0.0683
 9730TIP3    H150681   2.140   6.366   0.676 -0.1527  0.2307 -1.0437
 9730TIP3    H250682   2.179   6.220   0.682 -1.3874 -0.0718  0.4646
 9731TIP3   OH250683   0.371   0.779   3.565  0.5100  0.2440 -0.4038
 9731TIP3    H150684   0.293   0.829   3.542  1.2329  2.1893  1.0738
 9731TIP3    H250685   0.444   0.838   3.546  1.5394 -0.9387 -0.2630
 9732TIP3   OH250686   5.025   3.957   0.533  0.6610 -0.1053 -0.0081
 9732TIP3    H150687   5.076   4.034   0.560  0.3423  0.2532 -0.4190
 9732TIP3    H250688   4.934   3.985   0.541  0.4659 -1.0561  1.6651
 9733TIP3   OH250689   1.181   1.382   1.053 -0.4396  0.3142 -0.4150
 9733TIP3    H150690   1.169   1.455   0.992 -1.4222 -0.1220 -0.7560
 9733TIP3    H250691   1.121   1.401   1.125 -1.1813 -0.4716 -0.8094
 9734TIP3   OH250692   1.681   6.248   5.321  0.0603  0.2328 -0.5282
 9734TIP3    H150693   1.634   6.180   5.274 -1.4880  0.2301  0.9322
 9734TIP3    H250694   1.647   6.330   5.286 -2.1710  0.2577  1.4202
 9735TIP3   OH250695   0.378   4.094  14.007 -0.3851  0.7894 -0.1115
 9735TIP3    H150696   0.316   4.022  14.016  0.6848 -0.5871 -2.7250
 9735TIP3    H250697   0.343   4.147  13.935 -1.0013  2.8067  1.5728
 9736TIP3   OH250698   3.645   4.910   2.976 -0.1938  0.1489  0.3089
 9736TIP3    H150699   3.558   4.948   2.961 -0.9883 -0.9029  1.9670
 9736TIP3    H250700   3.640   4.823   2.936  0.9762  0.9804 -1.7896
 9737TIP3   OH250701   4.373   0.220   1.856 -0.0834 -0.5193 -0.3312
 9737TIP3    H150702   4.455   0.206   1.903 -0.6057  2.1997  1.6663
 9737TIP3    H250703   4.336   0.298   1.897 -2.4674 -0.1928 -2.8644
 9738TIP3   OH250704   3.431   2.694  17.468 -0.3692 -0.1391 -0.1889
 9738TIP3    H150705   3.504   2.642  17.433  1.8939  2.7952 -0.2117
 9738TIP3    H250706   3.472   2.756  17.528 -2.7072  2.2310 -0.8581
 9739TIP3   OH250707   0.851   6.764  15.801  0.5353  0.0681 -0.4637
 9739TIP3    H150708   0.755   6.764  15.806  0.5804  1.1008  0.9275
 9739TIP3    H250709   0.878   6.690  15.855  0.5378 -0.2986 -0.9553
 9740TIP3   OH250710   5.685   2.081   0.001 -0.5569  0.4471  0.3553
 9740TIP3    H150711   5.769   2.116  -0.027 -0.5781  0.4967  0.3544
 9740TIP3    H250712   5.624   2.154  -0.006 -1.0487 -0.0857 -1.6363
 9741TIP3   OH250713   0.116   3.664   2.131 -0.3780  0.1892 -0.3812
 9741TIP3    H150714   0.039   3.607   2.140  0.6143 -0.8868  2.2328
 9741TIP3    H250715   0.181   3.610   2.087 -1.0778  1.1435 -2.7113
 9742TIP3   OH250716   3.705   6.258  16.964 -0.3314  0.2175  0.7809
 9742TIP3    H150717   3.640   6.315  16.923 -0.1108 -0.2418 -0.2258
 9742TIP3    H250718   3.660   6.174  16.974  0.4292 -0.4324 -0.9485
 9743TIP3   OH250719   5.741   1.988   3.830 -0.2782  0.5395 -0.3229
 9743TIP3    H150720   5.663   2.044   3.825 -0.1834  0.5648 -1.7101
 9743TIP3    H250721   5.737   1.932   3.753 -0.8030 -2.0271  1.4342
 9744TIP3   OH250722   4.159   1.884   6.535 -0.3002 -0.4632  0.6712
 9744TIP3    H150723   4.193   1.865   6.622 -0.1408 -1.3123  0.4349
 9744TIP3    H250724   4.098   1.812   6.517  1.0055 -1.3085 -0.6215
 9745TIP3   OH250725   6.687   3.415   0.425 -1.1960 -0.4806 -0.0954
 9745TIP3    H150726   6.644   3.369   0.497 -1.0749 -0.6209 -0.1142
 9745TIP3    H250727   6.737   3.484   0.468 -2.0274  0.1591 -0.1178
 9746TIP3   OH250728   5.591   1.378  12.581  0.2983 -0.0629  0.4289
 9746TIP3    H150729   5.686   1.368  12.572  0.1848 -1.1420  0.2943
 9746TIP3    H250730   5.560   1.291  12.602 -0.6868  0.2591  0.3502
 9747TIP3   OH250731   1.200   0.572   2.815 -0.0812  0.2740 -0.4602
 9747TIP3    H150732   1.150   0.570   2.733  0.5817  0.5249 -0.8748
 9747TIP3    H250733   1.274   0.630   2.797 -0.8907  1.8188  0.8736
 9748TIP3   OH250734   6.089   1.252   1.305  0.1045  1.1187  0.1580
 9748TIP3    H150735   6.066   1.214   1.220  0.2855  1.8030 -0.2050
 9748TIP3    H250736   6.005   1.263   1.350  0.1588 -1.4189  1.0473
 9749TIP3   OH250737   5.519   4.034  10.755 -0.8238 -0.7215  0.2117
 9749TIP3    H150738   5.605   4.005  10.726  0.1662  0.5895  1.6677
 9749TIP3    H250739   5.476   3.955  10.786  0.1085 -1.2998  0.0781
 9750TIP3   OH250740   4.817   3.353  13.509 -0.0141  0.3060 -0.2795
 9750TIP3    H150741   4.779   3.270  13.539  1.6093 -0.9605 -1.5562
 9750TIP3    H250742   4.870   3.329  13.433  2.4779  2.0964  0.7605
 9751TIP3   OH250743   3.678   0.220  13.598 -0.0188 -0.2385  0.5761
 9751TIP3    H150744   3.639   0.293  13.646 -0.0600 -0.0925  0.3246
 9751TIP3    H250745   3.621   0.146  13.618 -0.4518 -0.0206  0.1861
 9752TIP3   OH250746   5.187   6.520   1.277 -0.1403 -0.3092 -0.5302
 9752TIP3    H150747   5.098   6.533   1.247 -0.7261 -1.5340  0.5688
 9752TIP3    H250748   5.181   6.450   1.342  1.6490 -0.5707 -0.5747
 9753TIP3   OH250749   1.960   3.574  15.405 -0.4393 -0.4767  0.4672
 9753TIP3    H150750   2.048   3.611  15.396 -0.3970 -0.6210  0.3054
 9753TIP3    H250751   1.950   3.561  15.500  0.3856 -2.1017  0.3674
 9754TIP3   OH250752   0.433   6.160  11.818  0.0508 -0.2955  0.8222
 9754TIP3    H150753   0.474   6.231  11.867 -1.5275  0.9967  0.3528
 9754TIP3    H250754   0.342   6.188  11.806 -0.5214 -2.2181  0.2611
 9755TIP3   OH250755   3.059   3.754   2.099  0.2029 -0.1570  0.4417
 9755TIP3    H150756   2.979   3.799   2.127 -1.5935 -2.0596 -1.3531
 9755TIP3    H250757   3.090   3.804   2.023  0.3369  0.1303  0.6781
 9756TIP3   OH250758   5.567   5.581  12.186 -0.0682  0.0722  0.3590
 9756TIP3    H150759   5.590   5.631  12.264 -0.1115  0.0932  0.3592
 9756TIP3    H250760   5.638   5.598  12.124  1.3805 -2.1114  1.3450
 9757TIP3   OH250761   2.289   6.482  13.976  0.1702 -0.2730 -0.2441
 9757TIP3    H150762   2.371   6.479  14.025  0.4485  2.7445 -0.3524
 9757TIP3    H250763   2.314   6.460  13.886  0.4459 -1.3958  0.0876
 9758TIP3   OH250764   1.529   0.661  11.365 -0.0873 -0.4255 -0.0673
 9758TIP3    H150765   1.448   0.703  11.336  0.6550 -0.1224 -1.8029
 9758TIP3    H250766   1.566   0.623  11.285  1.4849 -0.5690  0.7020
 9759TIP3   OH250767   2.966   4.604  12.839 -0.1882 -0.5122 -0.2979
 9759TIP3    H150768   3.021   4.570  12.769  0.3840 -0.4001  0.0889
 9759TIP3    H250769   2.924   4.526  12.877  0.2898 -0.6760 -0.1055
 9760TIP3   OH250770   3.278   6.480  13.359  0.1988  0.9044 -0.0054
 9760TIP3    H150771   3.361   6.457  13.400 -0.4737  1.7676  1.9612
 9760TIP3    H250772   3.260   6.408  13.298  2.0209  0.3616  0.0492
 9761TIP3   OH250773   2.412   5.678   3.154  0.4397 -0.4270 -0.2434
 9761TIP3    H150774   2.461   5.681   3.236  0.7826 -0.9483 -0.4269
 9761TIP3    H250775   2.424   5.589   3.122  0.8978 -0.0314 -1.2126
 9762TIP3   OH250776   6.740   1.731   1.723 -0.5388  0.2769  0.5724
 9762TIP3    H150777   6.750   1.637   1.733 -0.5187  0.2101 -0.0403
 9762TIP3    H250778   6.650   1.749   1.749 -1.1360 -0.1786 -1.0884
 9763TIP3   OH250779   1.735   3.141   1.811  0.1110 -0.2445  0.1099
 9763TIP3    H150780   1.679   3.184   1.746  0.6874  0.1909 -0.1091
 9763TIP3    H250781   1.732   3.198   1.888 -1.1964 -1.1595  0.7677
 9764TIP3   OH250782   3.253   2.272  16.963 -0.4570  0.4722  0.3505
 9764TIP3    H150783   3.270   2.339  17.029 -0.1698  1.3717 -0.5996
 9764TIP3    H250784   3.330   2.214  16.967 -0.3776  0.6040  0.7092
 9765TIP3   OH250785   5.221   0.386  12.869 -0.3298  0.0860 -0.0733
 9765TIP3    H150786   5.162   0.310  12.866  0.6524 -0.7012 -2.5531
 9765TIP3    H250787   5.301   0.352  12.911  0.1474 -0.3552 -1.2744
 9766TIP3   OH250788   1.534   1.286  12.927  0.0508  0.1224 -0.3776
 9766TIP3    H150789   1.485   1.361  12.961  0.9677  0.7224 -0.3344
 9766TIP3    H250790   1.560   1.312  12.839 -1.8491 -1.2101 -1.4169
 9767TIP3   OH250791   2.740   1.813   6.040  0.8236  0.0604  0.2333
 9767TIP3    H150792   2.823   1.768   6.055  1.0197 -0.5319 -2.1180
 9767TIP3    H250793   2.699   1.764   5.967 -1.1452  0.9128  0.6879
 9768TIP3   OH250794   4.441   4.914   2.443  0.7755 -0.0805 -0.0108
 9768TIP3    H150795   4.352   4.885   2.462  0.9588  0.2520  1.5264
 9768TIP3    H250796   4.444   5.004   2.476  1.5948  0.0211 -0.3387
 9769TIP3   OH250797   4.600   2.674  15.504 -0.4811  0.4276  0.2367
 9769TIP3    H150798   4.526   2.617  15.523  1.1334 -1.1917  2.1260
 9769TIP3    H250799   4.655   2.670  15.583  1.3135  2.0591 -0.8241
 9770TIP3   OH250800   1.250   4.679  12.758  0.2061  0.0627 -0.5682
 9770TIP3    H150801   1.171   4.675  12.811  1.7459  1.1418  1.9700
 9770TIP3    H250802   1.270   4.587  12.738 -0.5130 -0.3579  0.5628
 9771TIP3   OH250803   6.484   1.168   3.965 -0.2394  0.4961 -0.4531
 9771TIP3    H150804   6.565   1.140   4.007 -2.1996 -2.6751  1.6987
 9771TIP3    H250805   6.486   1.129   3.878  0.4660  0.3064 -0.3525
 9772TIP3   OH250806   4.554   5.548  14.862 -0.3336  0.3166 -0.4328
 9772TIP3    H150807   4.535   5.637  14.833 -1.4174  0.1016 -0.4073
 9772TIP3    H250808   4.499   5.535  14.939  0.6699  0.0144  0.2577
 9773TIP3   OH250809   4.717   2.514  12.724 -0.3988  0.0078  0.3953
 9773TIP3    H150810   4.654   2.581  12.695  0.6191  0.4087 -1.0437
 9773TIP3    H250811   4.709   2.445  12.658 -0.2391 -0.5316  0.9372
 9774TIP3   OH250812   4.704   4.203  13.334 -0.0094 -0.2514 -0.2878
 9774TIP3    H150813   4.688   4.242  13.248 -0.7536  0.0268 -0.0307
 9774TIP3    H250814   4.789   4.161  13.326 -0.0977 -0.2749 -1.1802
 9775TIP3   OH250815   2.285   2.829   5.062  0.9014 -0.0375 -0.0830
 9775TIP3    H150816   2.248   2.759   5.115  0.3227 -0.0061 -0.4400
 9775TIP3    H250817   2.213   2.890   5.048  1.3622  0.5629  0.1069
 9776TIP3   OH250818   6.470   5.351  13.333 -0.2991  0.3663  0.3829
 9776TIP3    H150819   6.432   5.391  13.254  1.7825 -1.2392 -1.5627
 9776TIP3    H250820   6.526   5.419  13.370 -1.6682  1.3003  0.8117
 9777TIP3   OH250821   5.569   0.833   4.933 -0.1800  0.6105 -0.2619
 9777TIP3    H150822   5.569   0.902   4.866  0.2115  0.5659 -0.3105
 9777TIP3    H250823   5.485   0.790   4.923  0.7774 -0.9689 -2.3454
 9778TIP3   OH250824   6.321   6.131  15.437  0.5375 -0.4156 -0.1736
 9778TIP3    H150825   6.384   6.060  15.451  2.5288  0.8092 -2.2984
 9778TIP3    H250826   6.289   6.118  15.348  1.0550  1.3619 -0.6611
 9779TIP3   OH250827   5.997   4.651   1.323  0.1384 -0.4454 -0.1158
 9779TIP3    H150828   6.091   4.652   1.344  0.4450 -0.5335 -1.3683
 9779TIP3    H250829   5.995   4.649   1.227 -1.1474 -1.6402 -0.0794
 9780TIP3   OH250830   5.378   6.163  13.249  0.0432 -0.6632 -0.5077
 9780TIP3    H150831   5.390   6.254  13.277  0.1340 -0.8668  0.1489
 9780TIP3    H250832   5.441   6.151  13.179  1.7507 -0.8884  0.9787
 9781TIP3   OH250833   3.094   6.005   1.286 -0.1837  0.3048 -0.6690
 9781TIP3    H150834   3.006   5.973   1.267 -0.1405 -0.2890  0.0929
 9781TIP3    H250835   3.135   6.015   1.200 -0.3844 -1.1717 -0.9582
 9782TIP3   OH250836   5.039   2.930  16.760  0.4387 -0.4797 -0.4984
 9782TIP3    H150837   5.101   2.946  16.689 -0.6127 -0.1346 -1.3667
 9782TIP3    H250838   5.001   2.844  16.740  0.2746 -0.4643 -0.2619
 9783TIP3   OH250839   3.485   3.104  10.267 -0.0617 -0.0613  0.4228
 9783TIP3    H150840   3.566   3.153  10.283 -0.4316  0.4418  0.7818
 9783TIP3    H250841   3.423   3.138  10.331 -1.1492  0.9552 -1.0980
 9784TIP3   OH250842   2.542   0.479  13.155 -0.2283  0.0406 -0.3794
 9784TIP3    H150843   2.562   0.398  13.202 -1.5720 -0.4367 -0.6027
 9784TIP3    H250844   2.628   0.515  13.134  0.3958 -0.9620  0.3367
 9785TIP3   OH250845   4.117   2.052  13.489  0.6674  0.1927  0.0904
 9785TIP3    H150846   4.193   1.994  13.481  1.5721  1.3767 -0.2833
 9785TIP3    H250847   4.091   2.046  13.581  0.9645 -0.5135  0.1365
 9786TIP3   OH250848   3.782   1.017  12.996 -0.0031 -0.0906  0.3418
 9786TIP3    H150849   3.845   0.946  12.997 -0.1276 -0.2083 -0.2043
 9786TIP3    H250850   3.697   0.974  12.991 -0.0450  0.1133 -0.8399
 9787TIP3   OH250851   1.690   5.834  15.634  0.0244 -0.6191  0.0699
 9787TIP3    H150852   1.739   5.885  15.697  0.7609  0.1605 -1.0906
 9787TIP3    H250853   1.601   5.868  15.639  0.5177  0.8790 -0.7418
 9788TIP3   OH250854   3.898   1.461   3.458 -0.8000 -0.4385  0.4230
 9788TIP3    H150855   3.976   1.516   3.462  0.2209 -1.8687  0.9658
 9788TIP3    H250856   3.900   1.410   3.540 -3.4861  0.9986  1.5252
 9789TIP3   OH250857   4.235   1.322   0.043  0.0662  0.3383 -0.7872
 9789TIP3    H150858   4.195   1.402   0.079 -0.0922  0.6164 -1.5702
 9789TIP3    H250859   4.308   1.354  -0.009 -1.1215  0.1195 -2.6576
 9790TIP3   OH250860   5.508   1.988   3.596  0.4593 -0.0029  0.0947
 9790TIP3    H150861   5.584   2.046   3.583  1.0578 -0.4775  1.3663
 9790TIP3    H250862   5.540   1.901   3.571  0.4433 -0.2580  0.9312
 9791TIP3   OH250863   2.027   5.486   3.098 -0.9516 -0.4094  0.6837
 9791TIP3    H150864   2.010   5.563   3.152  1.3116 -0.9838  2.3610
 9791TIP3    H250865   1.984   5.414   3.145 -1.5781 -0.4632  0.0459
 9792TIP3   OH250866   1.396   6.245   2.451 -0.2630 -0.7025 -0.1817
 9792TIP3    H150867   1.351   6.183   2.508 -0.9054 -0.0825 -0.0003
 9792TIP3    H250868   1.393   6.204   2.364 -0.4537 -1.0421 -0.0171
 9793TIP3   OH250869   2.383   3.843   2.352  0.3249 -0.0205 -0.0031
 9793TIP3    H150870   2.441   3.904   2.306 -0.8132  0.7362 -0.4498
 9793TIP3    H250871   2.393   3.760   2.305 -1.4973  0.9528 -2.2298
 9794TIP3   OH250872   0.871   3.891   0.972  0.9145  0.1183  0.6147
 9794TIP3    H150873   0.780   3.920   0.982 -0.0172 -2.0003 -0.9517
 9794TIP3    H250874   0.895   3.856   1.058 -0.3058 -0.6766  0.6547
 9795TIP3   OH250875   0.077   5.900   4.167 -0.0494  0.4521  0.6400
 9795TIP3    H150876   0.052   5.853   4.087  0.0009 -1.1205  1.4887
 9795TIP3    H250877   0.162   5.863   4.189 -0.3650  0.3711  1.7653
 9796TIP3   OH250878   6.413   5.181  17.375  0.3399 -0.2521 -0.0130
 9796TIP3    H150879   6.491   5.234  17.387  1.3207 -1.1273 -2.0505
 9796TIP3    H250880   6.427   5.104  17.430  0.3047  0.1737  0.6013
 9797TIP3   OH250881   4.611   4.633  17.242 -0.0934  0.4099  0.4724
 9797TIP3    H150882   4.575   4.554  17.283 -2.1506  1.0550  0.0730
 9797TIP3    H250883   4.676   4.666  17.304  2.8664 -2.9719 -0.5370
 9798TIP3   OH250884   4.370   5.033   3.098  0.4656  0.1982 -0.6912
 9798TIP3    H150885   4.286   5.044   3.054 -0.8518 -0.1810  1.5937
 9798TIP3    H250886   4.407   4.953   3.060 -3.0679 -3.2777  2.3083
 9799TIP3   OH250887   2.334   0.950  11.459 -0.7269  0.0470 -0.1650
 9799TIP3    H150888   2.315   1.044  11.466  0.7470  0.3440  0.1373
 9799TIP3    H250889   2.286   0.921  11.382 -3.5827  0.3979  1.3220
 9800TIP3   OH250890   3.018   4.873  13.226 -0.2303 -0.8269  0.0360
 9800TIP3    H150891   3.015   4.969  13.223 -0.8485 -0.6904  2.6809
 9800TIP3    H250892   3.071   4.853  13.303 -0.4209 -2.6335 -0.2636
 9801TIP3   OH250893   3.841   1.956   6.683 -0.6280 -0.5073 -0.3904
 9801TIP3    H150894   3.778   1.991   6.747 -1.1285  0.4942 -1.3936
 9801TIP3    H250895   3.894   2.032   6.657 -0.4802 -0.8791 -1.2052
 9802TIP3   OH250896   5.086   3.606   5.604 -0.6210  0.1308 -0.0958
 9802TIP3    H150897   5.003   3.584   5.562  0.1881  0.0522 -1.7013
 9802TIP3    H250898   5.139   3.645   5.535  0.1250  1.6885  1.2676
 9803TIP3   OH250899   5.863   5.483   2.909  0.0494 -0.4419  0.4923
 9803TIP3    H150900   5.796   5.479   2.977  1.5638  1.4931  2.2304
 9803TIP3    H250901   5.853   5.569   2.870  1.9563  0.2592  1.3813
 9804TIP3   OH250902   1.055   3.984   2.757  0.3208 -0.0553 -0.4557
 9804TIP3    H150903   1.008   4.046   2.702 -1.4381 -0.1581  0.8419
 9804TIP3    H250904   0.986   3.932   2.798  1.4465  0.6715  2.6156
 9805TIP3   OH250905   5.273   5.488  14.733 -0.4599  0.2537 -0.2143
 9805TIP3    H150906   5.258   5.573  14.693  1.2121  0.2750 -0.8853
 9805TIP3    H250907   5.210   5.429  14.690 -1.2331  1.0109 -0.1454
 9806TIP3   OH250908   3.822   1.944   1.987 -0.0503 -0.0779  0.3256
 9806TIP3    H150909   3.874   1.881   2.037 -0.5818 -0.9445 -0.1865
 9806TIP3    H250910   3.753   1.971   2.048 -0.3248 -0.6498  0.2806
 9807TIP3   OH250911   5.716   4.446   0.983  0.4875  0.3279  0.3917
 9807TIP3    H150912   5.698   4.386   0.910 -0.4290  1.1327 -0.0629
 9807TIP3    H250913   5.783   4.401   1.034 -0.7346 -1.4616  0.5070
 9808TIP3   OH250914   2.615   3.553  13.910  0.1099  0.4844  0.2788
 9808TIP3    H150915   2.570   3.602  13.842  0.8966  1.0653  0.1611
 9808TIP3    H250916   2.708   3.562  13.889  0.2762 -0.9467  0.3355
 9809TIP3   OH250917   3.949   4.234  14.129  0.2640 -0.7968  0.7012
 9809TIP3    H150918   4.028   4.196  14.168  0.5149 -1.5274 -0.4875
 9809TIP3    H250919   3.956   4.328  14.149  3.2787 -0.1831 -2.3226
 9810TIP3   OH250920   1.285   5.830  12.205  0.8704  0.0867 -1.3638
 9810TIP3    H150921   1.310   5.784  12.286  0.4340  0.2693 -1.1213
 9810TIP3    H250922   1.353   5.806  12.142  1.1612 -0.1395 -0.9712
 9811TIP3   OH250923   3.937   5.758  15.901 -0.1560 -0.0921  0.2870
 9811TIP3    H150924   4.020   5.803  15.886 -0.8965  0.8458 -1.3177
 9811TIP3    H250925   3.876   5.828  15.924 -0.4865 -0.8018  1.7201
 9812TIP3   OH250926   3.143   4.851   1.322 -0.0207 -0.3872  0.6763
 9812TIP3    H150927   3.152   4.818   1.411 -0.6785 -3.5690 -0.3071
 9812TIP3    H250928   3.049   4.861   1.309  0.1424  1.7846  0.8328
 9813TIP3   OH250929   4.577   3.830   0.917  0.6169  0.6161  0.0391
 9813TIP3    H150930   4.608   3.826   0.826  0.0479 -0.5193 -0.1222
 9813TIP3    H250931   4.482   3.818   0.910  0.4677  1.2894  0.7399
 9814TIP3   OH250932   6.287   3.709  16.891 -0.7556 -0.6380  0.1169
 9814TIP3    H150933   6.348   3.679  16.958 -1.2166 -0.8717  0.4321
 9814TIP3    H250934   6.200   3.695  16.928 -1.0026 -0.0048 -0.1981
 9815TIP3   OH250935   5.543   1.914  14.831 -0.3824  0.7234  0.6237
 9815TIP3    H150936   5.483   1.963  14.775 -0.5262  0.9279  0.9586
 9815TIP3    H250937   5.495   1.835  14.856  2.0424 -3.7316 -5.8503
 9816TIP3   OH250938   4.015   4.950   5.940 -0.7161  0.3649  0.2514
 9816TIP3    H150939   4.042   4.955   5.848  1.7138  0.2311  0.9001
 9816TIP3    H250940   3.994   4.857   5.953  1.3537 -0.1340  0.3966
 9817TIP3   OH250941   4.172   6.226   1.410 -0.1005 -0.2475  0.3180
 9817TIP3    H150942   4.149   6.179   1.490 -0.1718  0.0390  0.4670
 9817TIP3    H250943   4.178   6.318   1.437 -2.7920  0.2709 -0.4959
 9818TIP3   OH250944   5.195   1.465   2.509  0.2111  0.4552 -0.2953
 9818TIP3    H150945   5.207   1.381   2.465 -1.2672  0.7512 -1.3348
 9818TIP3    H250946   5.275   1.514   2.489  0.3675 -0.0995 -1.0786
 9819TIP3   OH250947   6.410   2.707  13.936  0.0525 -0.5341  0.2065
 9819TIP3    H150948   6.483   2.769  13.947  1.5288 -2.3031  0.9730
 9819TIP3    H250949   6.337   2.761  13.906  1.5188  1.4168 -0.0740
 9820TIP3   OH250950   6.443   1.099  12.735  0.0673  0.1224 -0.0891
 9820TIP3    H150951   6.413   1.190  12.741 -0.7272 -0.1158 -0.3222
 9820TIP3    H250952   6.463   1.086  12.642 -2.6601 -0.7751 -0.6577
 9821TIP3   OH250953   6.039   6.641   0.830  0.1355  0.9110 -0.0061
 9821TIP3    H150954   6.013   6.551   0.815 -0.3394  0.9030  0.7966
 9821TIP3    H250955   6.131   6.635   0.858 -0.4863  0.4520  2.1134
 9822TIP3   OH250956   3.923   6.057   0.853  0.0867  0.0148 -0.3566
 9822TIP3    H150957   4.014   6.038   0.876  0.2425 -1.2854 -1.9071
 9822TIP3    H250958   3.889   6.106   0.929  1.2806 -1.8173  1.4711
 9823TIP3   OH250959   3.647   4.205  13.852  0.5327 -0.1116 -0.5248
 9823TIP3    H150960   3.659   4.267  13.780  2.1845 -0.3406 -0.4726
 9823TIP3    H250961   3.668   4.255  13.930  1.2815 -0.5620 -0.4303
 9824TIP3   OH250962   3.701   5.584  16.367  1.0734 -0.0503  0.7239
 9824TIP3    H150963   3.790   5.610  16.392  0.6605  0.3718  1.7940
 9824TIP3    H250964   3.680   5.641  16.293  0.9927  1.2083  1.6763
 9825TIP3   OH250965   2.294   0.068   3.172  0.3945  0.2614 -0.0783
 9825TIP3    H150966   2.306   0.020   3.090  0.3352 -0.8196  0.5159
 9825TIP3    H250967   2.201   0.089   3.174  0.0381 -1.2019  0.4571
 9826TIP3   OH250968   0.677   3.799  16.389 -1.0676 -0.0208 -0.6961
 9826TIP3    H150969   0.755   3.852  16.409 -0.8686 -0.2692 -0.8108
 9826TIP3    H250970   0.671   3.738  16.463 -0.2415 -1.0456 -1.4463
 9827TIP3   OH250971   3.235   2.369  11.580  0.1005  0.2139 -0.3006
 9827TIP3    H150972   3.251   2.333  11.668 -1.8446  1.9164  0.8463
 9827TIP3    H250973   3.272   2.457  11.583 -1.1310  0.7652 -0.7211
 9828TIP3   OH250974   1.531   1.031  12.023 -0.3720  0.0377  0.0485
 9828TIP3    H150975   1.557   1.110  11.975  2.4535 -0.1582  1.1250
 9828TIP3    H250976   1.462   1.061  12.082  0.7108  1.7645  0.5083
 9829TIP3   OH250977   5.858   3.415   3.942  0.9587  0.3026 -0.0608
 9829TIP3    H150978   5.924   3.359   3.982  0.3492 -0.4582 -0.1030
 9829TIP3    H250979   5.782   3.408   4.000  0.0068 -0.9436 -1.4033
 9830TIP3   OH250980   2.105   4.261   0.594  0.1511  0.1716 -0.0132
 9830TIP3    H150981   2.082   4.348   0.562  0.9280  0.4165  0.0710
 9830TIP3    H250982   2.201   4.258   0.589  0.0721 -1.4364 -2.0298
 9831TIP3   OH250983   1.769   2.444  12.833 -0.5263  0.8241  0.0780
 9831TIP3    H150984   1.742   2.520  12.781 -3.7192  0.1409  0.5473
 9831TIP3    H250985   1.744   2.368  12.781  0.5716  0.0726  0.5924
 9832TIP3   OH250986   1.189   4.746   5.035  0.4025  0.5484 -0.3461
 9832TIP3    H150987   1.181   4.787   5.121 -1.4130 -1.9960  0.8427
 9832TIP3    H250988   1.284   4.740   5.020  0.7672  0.9429  1.5558
 9833TIP3   OH250989   1.292   6.114  15.439  0.1391  0.0868 -0.5006
 9833TIP3    H150990   1.267   6.107  15.531 -4.2377  1.0228 -1.3752
 9833TIP3    H250991   1.336   6.199  15.433  1.1681 -0.3207  0.7888
 9834TIP3   OH250992   5.223   4.737  11.747 -0.3157  0.5272 -0.0948
 9834TIP3    H150993   5.277   4.815  11.740 -0.8889  0.8109 -1.4968
 9834TIP3    H250994   5.142   4.767  11.787  0.3420  0.1789  1.6038
 9835TIP3   OH250995   5.510   1.094   3.202 -0.1784  0.3959  0.0192
 9835TIP3    H150996   5.474   1.159   3.263 -0.9044  0.7002 -0.7077
 9835TIP3    H250997   5.532   1.146   3.124 -1.8277 -0.3596 -1.0134
 9836TIP3   OH250998   6.525   3.381  12.865  0.3697  0.2042  0.0245
 9836TIP3    H150999   6.454   3.323  12.893  0.6860  1.1069  3.1527
 9836TIP3    H251000   6.503   3.466  12.903  2.5247  0.7904  0.1216
 9837TIP3   OH251001   3.820   0.209   4.028 -0.6253  0.0730  0.2679
 9837TIP3    H151002   3.767   0.130   4.036 -0.9106  0.3709  1.7171
 9837TIP3    H251003   3.770   0.265   3.968  0.6782 -1.6439 -2.5954
 9838TIP3   OH251004   1.175   6.100   3.455 -0.5566 -0.7339  0.2881
 9838TIP3    H151005   1.208   6.036   3.393  1.1990 -0.4331  0.8640
 9838TIP3    H251006   1.092   6.064   3.485 -0.4658 -1.8355 -0.7462
 9839TIP3   OH251007   1.835   4.471  16.586  0.1285  0.1321 -0.3300
 9839TIP3    H151008   1.803   4.490  16.674  0.6582  0.8204 -0.2768
 9839TIP3    H251009   1.884   4.389  16.594  0.2492  0.2408  0.0299
 9840TIP3   OH251010   4.634   5.157   0.621 -0.4065  0.3836  0.2367
 9840TIP3    H151011   4.656   5.244   0.588  0.0422  0.5835  1.0259
 9840TIP3    H251012   4.603   5.173   0.710 -1.1568 -0.1817  0.0920
 9841TIP3   OH251013   5.920   2.608  11.066 -0.3460 -0.0244  0.1782
 9841TIP3    H151014   5.975   2.684  11.052  1.2228 -1.1783 -0.2207
 9841TIP3    H251015   5.831   2.641  11.057  0.2262  1.9932  1.2911
 9842TIP3   OH251016   2.730   6.723  13.504 -0.4933 -0.6438  0.7492
 9842TIP3    H151017   2.689   6.729  13.418  2.4303  1.6468 -0.6877
 9842TIP3    H251018   2.823   6.737  13.487  0.3002 -0.7030  4.2600
 9843TIP3   OH251019   0.945   5.559  12.428  0.4918  0.0229  0.3198
 9843TIP3    H151020   0.979   5.559  12.339  0.7369 -2.6220  0.3279
 9843TIP3    H251021   0.988   5.485  12.470  0.5713  1.3316  2.7506
 9844TIP3   OH251022   6.249   0.937  15.990 -0.1151  0.1783  0.1200
 9844TIP3    H151023   6.343   0.922  15.977  0.0640 -0.3485  1.7999
 9844TIP3    H251024   6.230   1.015  15.938  1.1973  0.1443 -0.4492
 9845TIP3   OH251025   6.274   1.151   4.892  0.3361  0.2624 -0.0787
 9845TIP3    H151026   6.349   1.100   4.922  0.5469  0.2264 -0.6593
 9845TIP3    H251027   6.303   1.242   4.900 -0.2261  0.3440  1.4631
 9846TIP3   OH251028   3.801   2.303  11.613 -0.2593  0.0873 -0.4558
 9846TIP3    H151029   3.841   2.381  11.575  0.4219 -0.1171 -0.1799
 9846TIP3    H251030   3.874   2.257  11.655 -0.6348 -0.7377 -0.6864
 9847TIP3   OH251031   0.451   0.439  17.211  0.5187  0.0283 -0.1490
 9847TIP3    H151032   0.435   0.345  17.221  1.0296  0.1239  1.9158
 9847TIP3    H251033   0.502   0.446  17.130 -0.2852 -1.3552 -0.8159
 9848TIP3   OH251034   6.068   5.451   1.759 -0.2482  0.2166 -0.5349
 9848TIP3    H151035   6.013   5.459   1.837 -2.7194  0.7942 -2.2109
 9848TIP3    H251036   6.134   5.386   1.782 -0.6728  0.6240  2.1207
 9849TIP3   OH251037   5.012   0.295  15.769  0.2479 -0.0499  0.1817
 9849TIP3    H151038   4.989   0.312  15.861 -1.0004 -2.2903  0.3643
 9849TIP3    H251039   5.042   0.205  15.769  0.4429 -0.0062 -1.5995
 9850TIP3   OH251040   2.183   3.596   2.964 -0.6537  0.0760 -0.3074
 9850TIP3    H151041   2.233   3.542   2.904 -1.7376 -1.1577 -0.1586
 9850TIP3    H251042   2.185   3.683   2.926  0.7679 -0.1517 -0.7936
 9851TIP3   OH251043   5.930   5.761  12.438 -0.4669 -0.1771  0.4104
 9851TIP3    H151044   5.836   5.772  12.421 -0.1806  1.3345 -0.3919
 9851TIP3    H251045   5.962   5.850  12.455  1.1676 -0.3662 -1.3230
 9852TIP3   OH251046   1.675   6.516   3.565  0.2025 -0.2882  0.3123
 9852TIP3    H151047   1.651   6.430   3.530  0.2937  0.3094 -1.2762
 9852TIP3    H251048   1.747   6.498   3.625 -0.9416 -1.5221  1.4142
 9853TIP3   OH251049   1.734   1.820  15.544 -0.1219  0.1329 -0.5770
 9853TIP3    H151050   1.715   1.820  15.638 -1.1635  0.3301 -0.7756
 9853TIP3    H251051   1.821   1.781  15.537  0.2090  0.6421  0.5182
 9854TIP3   OH251052   2.081   0.831  11.964 -0.3715  0.1745  0.6578
 9854TIP3    H151053   2.043   0.889  12.029  1.1338  3.7219 -1.3384
 9854TIP3    H251054   2.033   0.849  11.883  0.3230 -1.2267 -0.1227
 9855TIP3   OH251055   1.432   0.724   2.726 -0.5957  0.2415  0.6835
 9855TIP3    H151056   1.505   0.675   2.763 -0.0734  0.0313 -0.5772
 9855TIP3    H251057   1.473   0.797   2.679 -1.1132 -0.4250 -0.8697
 9856TIP3   OH251058   2.733   5.608   3.139 -0.1304 -0.0414 -0.3203
 9856TIP3    H151059   2.734   5.624   3.045 -2.1444  0.2891 -0.3364
 9856TIP3    H251060   2.662   5.544   3.152 -0.3618  0.4416  1.0290
 9857TIP3   OH251061   2.510   4.471  13.589 -0.5687 -0.0811 -0.1670
 9857TIP3    H151062   2.424   4.487  13.551 -0.5625 -0.1860 -0.2245
 9857TIP3    H251063   2.545   4.396  13.540 -0.1568  0.3956 -0.6120
 9858TIP3   OH251064   6.578   0.668  14.729  0.0920  0.1269  0.3751
 9858TIP3    H151065   6.551   0.600  14.668 -0.7532  0.2678  0.5803
 9858TIP3    H251066   6.503   0.727  14.735  1.2002  1.7175 -0.6525
 9859TIP3   OH251067   2.632   6.487  16.682  0.0195 -0.2203 -0.1984
 9859TIP3    H151068   2.658   6.570  16.643  0.5634 -1.5792 -3.0066
 9859TIP3    H251069   2.660   6.494  16.774  3.1771  1.4500 -1.1188
 9860TIP3   OH251070   3.169   5.815   2.216 -0.1091  0.5472 -0.1962
 9860TIP3    H151071   3.195   5.817   2.308  1.7505 -0.0263 -0.6792
 9860TIP3    H251072   3.184   5.904   2.185  2.9994 -0.1086 -0.8625
 9861TIP3   OH251073   4.742   0.385   4.549  0.1676  0.0180  0.2412
 9861TIP3    H151074   4.796   0.352   4.621 -0.8010 -1.0723  0.5023
 9861TIP3    H251075   4.686   0.451   4.591 -0.8017 -1.0271  0.6563
 9862TIP3   OH251076   1.410   1.435   3.941 -0.8540 -0.2188 -0.0049
 9862TIP3    H151077   1.494   1.474   3.964 -1.0265 -0.6918  1.5504
 9862TIP3    H251078   1.365   1.423   4.024 -3.5045  2.2149 -0.9394
 9863TIP3   OH251079   0.871   1.654   3.362 -0.3093 -0.5132  0.2283
 9863TIP3    H151080   0.898   1.584   3.422 -0.4705 -0.7236  0.0578
 9863TIP3    H251081   0.953   1.682   3.321 -0.3195 -1.0518 -0.1812
 9864TIP3   OH251082   2.791   4.126   3.093 -0.1192 -0.4542  0.0701
 9864TIP3    H151083   2.795   4.111   2.999  1.7040 -1.5337  0.2631
 9864TIP3    H251084   2.781   4.221   3.102  0.4679 -0.2467 -1.2089
 9865TIP3   OH251085   6.334   4.100  12.695 -0.0684 -0.1584  0.1794
 9865TIP3    H151086   6.325   4.194  12.710 -1.1086 -0.2629  0.2987
 9865TIP3    H251087   6.401   4.092  12.628  0.0577  0.6678  0.2039
 9866TIP3   OH251088   2.771   4.188   0.115 -0.0605 -0.3463  0.1627
 9866TIP3    H151089   2.839   4.184   0.048  1.6131  0.1576  1.7624
 9866TIP3    H251090   2.767   4.099   0.151  1.2788  0.0835  1.4680
 9867TIP3   OH251091   5.635   5.757  12.392  0.2045  0.1029  0.1571
 9867TIP3    H151092   5.620   5.833  12.335 -0.1202 -0.6621 -0.8064
 9867TIP3    H251093   5.590   5.780  12.474  0.4446  1.1095  0.0238
 9868TIP3   OH251094   6.302   3.932  15.550  0.6357 -0.0441 -0.1395
 9868TIP3    H151095   6.262   3.898  15.630 -1.5586 -0.6216 -1.4153
 9868TIP3    H251096   6.350   4.010  15.579 -0.2070 -0.1559  1.7208
 9869TIP3   OH251097   3.632   3.113   0.876 -0.2635 -0.0854  0.0728
 9869TIP3    H151098   3.540   3.089   0.880 -0.3465  0.2592  0.1679
 9869TIP3    H251099   3.647   3.136   0.784 -0.4385  0.5361  0.1982
 9870TIP3   OH251100   6.748   3.848  14.226  0.5608 -0.2169  0.6214
 9870TIP3    H151101   6.732   3.933  14.265 -0.2471  0.0490 -0.2437
 9870TIP3    H251102   6.664   3.822  14.190  1.2015 -0.5399 -0.7241
 9871TIP3   OH251103   6.581   2.281  12.604 -0.1387  0.5656  0.4456
 9871TIP3    H151104   6.632   2.234  12.537  0.9857 -1.2643  2.4588
 9871TIP3    H251105   6.491   2.252  12.590  0.0056  0.5224 -0.4901
 9872TIP3   OH251106   5.914   4.219   5.221 -0.2027  0.2762 -0.3083
 9872TIP3    H151107   5.908   4.191   5.130  0.2781  0.1423 -0.3010
 9872TIP3    H251108   5.878   4.307   5.221  0.1699  0.4344 -0.7050
 9873TIP3   OH251109   2.860   1.413   5.360 -0.0692 -0.0790  0.3164
 9873TIP3    H151110   2.803   1.478   5.320 -0.7077  0.3225  1.7973
 9873TIP3    H251111   2.927   1.466   5.405  1.8546 -0.5351 -1.8179
 9874TIP3   OH251112   1.230   2.392   3.487 -0.0608 -0.7532  0.1129
 9874TIP3    H151113   1.295   2.460   3.473 -0.3349 -0.3401  0.7732
 9874TIP3    H251114   1.153   2.439   3.520 -0.5100 -1.2950 -0.1488
 9875TIP3   OH251115   4.912   1.794  12.614 -0.6477  0.5747  0.8495
 9875TIP3    H151116   4.951   1.848  12.546  0.8218  0.6521  1.7045
 9875TIP3    H251117   4.846   1.742  12.569  1.0999 -0.2443 -0.8874
 9876TIP3   OH251118   4.432   3.211  14.638 -0.0559 -0.2445 -0.1618
 9876TIP3    H151119   4.361   3.202  14.575 -0.8759 -0.7289  0.8068
 9876TIP3    H251120   4.398   3.270  14.705  1.1307  0.9919 -0.5950
 9877TIP3   OH251121   2.278   4.496  14.409  0.0421  0.2556 -0.5032
 9877TIP3    H151122   2.202   4.465  14.458  1.1046  1.5710  2.1404
 9877TIP3    H251123   2.279   4.591  14.423  0.5999  0.6669 -2.8799
 9878TIP3   OH251124   4.330   4.923  16.400 -0.0174 -0.7386  0.1243
 9878TIP3    H151125   4.387   4.852  16.429  0.0752 -0.2305  1.2416
 9878TIP3    H251126   4.248   4.908  16.446 -0.2564 -0.5591 -0.2420
 9879TIP3   OH251127   3.218   6.621  16.279 -0.1548 -0.3174  0.1527
 9879TIP3    H151128   3.244   6.539  16.320 -0.4960 -0.3261  0.3596
 9879TIP3    H251129   3.134   6.643  16.320  0.5901  0.8412  1.0933
 9880TIP3   OH251130   4.333   4.950   5.677 -0.0808 -0.3807 -0.3316
 9880TIP3    H151131   4.385   4.880   5.638 -1.5000 -1.0856 -1.0117
 9880TIP3    H251132   4.245   4.913   5.687 -0.6647  1.0324  0.0578
 9881TIP3   OH251133   3.582   5.577   3.316  0.8803 -0.1278 -0.3307
 9881TIP3    H151134   3.533   5.544   3.241  0.2422 -1.2398  0.5535
 9881TIP3    H251135   3.665   5.606   3.279 -0.6531  2.5891 -2.0163
 9882TIP3   OH251136   2.966   1.485  13.604 -0.0761 -0.3351  0.7503
 9882TIP3    H151137   3.049   1.446  13.631  1.3268  0.9452 -1.3541
 9882TIP3    H251138   2.965   1.475  13.508 -2.1958  0.0116  0.6783
 9883TIP3   OH251139   6.505   4.076   6.293 -0.3682  0.0241  0.6774
 9883TIP3    H151140   6.596   4.079   6.324  0.4505  1.2540 -1.5335
 9883TIP3    H251141   6.456   4.129   6.355  0.2490 -1.2177  2.2970
 9884TIP3   OH251142   2.574   2.966  17.092 -0.0547  0.2082 -0.4376
 9884TIP3    H151143   2.633   3.014  17.151 -0.7362 -0.2022  0.6011
 9884TIP3    H251144   2.487   3.000  17.113 -0.7213 -2.2410  1.1672
 9885TIP3   OH251145   0.595   5.606   6.666 -0.3208 -0.0509  0.3146
 9885TIP3    H151146   0.613   5.537   6.602  0.4380 -0.3060  0.7928
 9885TIP3    H251147   0.538   5.564   6.731  0.0585 -0.2062  0.5517
 9886TIP3   OH251148   0.157   1.125   4.423  0.5876 -0.5091  0.0125
 9886TIP3    H151149   0.177   1.108   4.331  0.3488 -1.7999  0.1876
 9886TIP3    H251150   0.182   1.045   4.469 -0.3307 -0.3014  0.9123
 9887TIP3   OH251151   4.556   2.095  17.239 -0.0039 -0.3281 -0.1017
 9887TIP3    H151152   4.621   2.069  17.174  0.1623 -3.2176  1.0955
 9887TIP3    H251153   4.608   2.126  17.314 -0.1880  2.2843 -0.9472
 9888TIP3   OH251154   2.466   1.024   4.302 -0.5807  0.2584  0.7561
 9888TIP3    H151155   2.471   0.991   4.212  2.3954 -0.1116  0.9637
 9888TIP3    H251156   2.374   1.051   4.312 -1.3436 -0.9691 -1.9002
 9889TIP3   OH251157   4.059   4.102  16.903  0.3132 -0.9070  0.0427
 9889TIP3    H151158   4.063   4.068  16.993  1.9945  0.9457  0.7501
 9889TIP3    H251159   3.996   4.174  16.908  1.3799  0.0582  0.1111
 9890TIP3   OH251160   1.221   3.503  13.419  0.1422  0.0468  0.7321
 9890TIP3    H151161   1.156   3.543  13.476 -1.0210  1.1190 -1.2553
 9890TIP3    H251162   1.209   3.546  13.334  0.4388 -2.8595 -0.8944
 9891TIP3   OH251163   1.857   5.160  11.263  0.3057 -0.0130  0.1867
 9891TIP3    H151164   1.946   5.129  11.243  0.4420  0.6110 -0.1987
 9891TIP3    H251165   1.808   5.145  11.182 -0.0615 -0.7379  0.5235
 9892TIP3   OH251166   3.484   0.610  12.650  0.2726  0.5426 -0.3075
 9892TIP3    H151167   3.481   0.704  12.669 -0.6500  0.8144 -1.7003
 9892TIP3    H251168   3.455   0.602  12.560  0.2486 -1.1033 -0.1891
 9893TIP3   OH251169   3.488   1.002  16.820  0.1557  0.0040 -0.3489
 9893TIP3    H151170   3.408   0.958  16.847  0.5260 -0.3139  0.2628
 9893TIP3    H251171   3.558   0.939  16.838  0.7564  0.9968  1.0595
 9894TIP3   OH251172   1.588   3.750  13.795  0.2445  0.3903 -0.8676
 9894TIP3    H151173   1.663   3.698  13.769  1.1416  1.5442 -0.6794
 9894TIP3    H251174   1.548   3.778  13.713  1.3940  1.6701 -1.0252
 9895TIP3   OH251175   0.272   0.163   3.030  0.4234  0.8755 -0.7054
 9895TIP3    H151176   0.283   0.257   3.019  0.4722  1.1467  1.3657
 9895TIP3    H251177   0.183   0.152   3.063  0.8733  0.3480  0.3927
 9896TIP3   OH251178   3.869   6.474   6.427  0.2007 -0.3469  0.1341
 9896TIP3    H151179   3.914   6.451   6.509  0.4040  1.0056  0.4242
 9896TIP3    H251180   3.929   6.533   6.383 -0.0903 -0.7485 -0.8106
 9897TIP3   OH251181   4.597   4.833   4.642 -0.3294 -0.0467 -0.0211
 9897TIP3    H151182   4.650   4.893   4.692  1.3938 -1.6603  0.2122
 9897TIP3    H251183   4.511   4.837   4.683  0.1879  1.0023  1.0265
 9898TIP3   OH251184   5.237   0.054  11.928  0.3671 -0.1079  0.3682
 9898TIP3    H151185   5.204   0.080  12.014 -0.4241 -2.0792  0.7171
 9898TIP3    H251186   5.177  -0.014  11.899 -0.9175  2.1542 -2.9306
 9899TIP3   OH251187   5.240   5.077   2.551 -0.0425 -0.2779 -0.4364
 9899TIP3    H151188   5.176   5.132   2.596  1.1595 -0.8827  2.1888
 9899TIP3    H251189   5.256   5.122   2.468 -1.1440  1.8295  0.4164
 9900TIP3   OH251190   5.270   1.270  14.456 -0.9546  0.3742  0.2270
 9900TIP3    H151191   5.231   1.236  14.376  0.1473 -2.2318  0.7148
 9900TIP3    H251192   5.198   1.269  14.520 -1.2306  0.1021 -0.0840
 9901TIP3   OH251193   1.346   1.285   0.301  0.1380 -0.5543 -0.2495
 9901TIP3    H151194   1.405   1.305   0.228 -0.0618 -1.2157 -0.6064
 9901TIP3    H251195   1.269   1.245   0.259 -0.5674  0.2868  0.2084
 9902TIP3   OH251196   3.111   6.221  15.711  0.0871  0.0742  0.1290
 9902TIP3    H151197   3.187   6.278  15.694  0.5785 -0.7694 -0.5682
 9902TIP3    H251198   3.129   6.183  15.797 -0.4125  1.2103  0.7630
 9903TIP3   OH251199   0.121   5.856  14.583  0.0003  0.0290 -0.1858
 9903TIP3    H151200   0.147   5.942  14.550  0.5623 -0.0691  0.0012
 9903TIP3    H251201   0.179   5.794  14.539 -2.0732 -0.5375 -2.3289
 9904TIP3   OH251202   1.351   4.089   2.880 -0.3138 -0.2526  0.3274
 9904TIP3    H151203   1.367   4.071   2.787  0.6906 -0.7170  0.5807
 9904TIP3    H251204   1.430   4.059   2.924 -0.7241  0.1041  1.3250
 9905TIP3   OH251205   0.331   3.223  17.351 -0.3428  0.5867  0.6241
 9905TIP3    H151206   0.405   3.169  17.381 -0.9735 -0.7180 -0.0673
 9905TIP3    H251207   0.370   3.280  17.284 -0.1384 -0.8811 -0.5636
 9906TIP3   OH251208   1.284   2.412   2.897  0.7895  0.1175 -0.4252
 9906TIP3    H151209   1.246   2.389   2.812  0.6497  1.0147 -0.6177
 9906TIP3    H251210   1.244   2.351   2.959 -0.0796  0.2895 -0.8097
 9907TIP3   OH251211   0.501   0.184  17.363  0.5092  0.2994  0.0819
 9907TIP3    H151212   0.562   0.121  17.402  0.4365  0.1150 -0.1022
 9907TIP3    H251213   0.454   0.221  17.438  0.8987  0.4993  0.2350
 9908TIP3   OH251214   2.570   6.754   4.826  0.5418 -0.3590 -0.1303
 9908TIP3    H151215   2.596   6.665   4.852  1.1374  0.3792  2.0300
 9908TIP3    H251216   2.653   6.797   4.804  0.4244  0.0939  0.3057
 9909TIP3   OH251217   0.713   1.960   3.890  0.2715 -0.1863  0.2657
 9909TIP3    H151218   0.680   2.045   3.917 -0.1236  0.2963 -1.6234
 9909TIP3    H251219   0.803   1.977   3.861  0.3431 -0.5121  0.2876
 9910TIP3   OH251220   0.494   5.524  15.973 -0.1243 -0.3551  0.8095
 9910TIP3    H151221   0.420   5.569  16.013 -0.3761 -1.8137  2.0888
 9910TIP3    H251222   0.481   5.432  15.995  1.4377 -0.7997  0.0280
 9911TIP3   OH251223   3.859   3.380   0.168 -0.0706  0.1704  0.0409
 9911TIP3    H151224   3.845   3.357   0.076  0.2960  0.7733 -0.1725
 9911TIP3    H251225   3.800   3.453   0.185 -0.3530 -0.1305  0.3707
 9912TIP3   OH251226   0.367   3.590  14.773 -0.1480  0.2421  0.3227
 9912TIP3    H151227   0.367   3.644  14.852 -1.3456 -1.9850  1.9304
 9912TIP3    H251228   0.460   3.581  14.751  0.1588  1.6039  0.9214
 9913TIP3   OH251229   1.553   5.991  17.274 -0.0057  0.6868 -0.1216
 9913TIP3    H151230   1.514   6.039  17.202  0.8132  0.4312 -0.7510
 9913TIP3    H251231   1.505   5.908  17.277 -1.1879  1.3811  0.7478
 9914TIP3   OH251232   1.984   0.772   1.547  0.9074 -0.2367  0.2787
 9914TIP3    H151233   2.050   0.719   1.594  1.1108 -0.5383 -0.3390
 9914TIP3    H251234   2.012   0.770   1.456  0.8244  0.8199  0.2225
 9915TIP3   OH251235   6.092   5.432   1.167  0.4289 -0.9476  0.5179
 9915TIP3    H151236   6.120   5.455   1.079 -0.0200  1.7420  0.9839
 9915TIP3    H251237   6.007   5.389   1.156 -1.0495  1.9632 -0.2995
 9916TIP3   OH251238   0.609   6.307   3.912  0.4846 -0.0068  0.6606
 9916TIP3    H151239   0.536   6.355   3.872  0.3435 -0.7589 -0.0012
 9916TIP3    H251240   0.576   6.218   3.922  0.6832  0.0603  2.0479
 9917TIP3   OH251241   6.060   2.459   3.427  0.2553  0.2183  0.1340
 9917TIP3    H151242   6.101   2.544   3.440 -3.8774  2.5595 -0.4742
 9917TIP3    H251243   6.053   2.450   3.332  1.3667 -1.2666  0.1600
 9918TIP3   OH251244   1.918   5.497   4.720 -0.4187 -0.0029  0.1314
 9918TIP3    H151245   1.839   5.447   4.702  0.4309 -1.5416  0.5613
 9918TIP3    H251246   1.929   5.552   4.642 -0.3105 -1.9310 -1.2973
 9919TIP3   OH251247   6.240   0.730   3.381  0.5292 -0.0785 -0.3662
 9919TIP3    H151248   6.276   0.644   3.358  1.2712  0.7258 -2.4539
 9919TIP3    H251249   6.151   0.729   3.346  0.9061  0.3568 -1.3784
 9920TIP3   OH251250   1.981   5.057   1.661 -0.3545 -0.0760  0.1564
 9920TIP3    H151251   1.992   5.004   1.739 -1.9514 -1.2212 -0.3381
 9920TIP3    H251252   1.918   5.009   1.608  0.8055  0.5693 -1.9306
 9921TIP3   OH251253   4.291   3.151  15.660  0.0012 -0.5843 -0.3178
 9921TIP3    H151254   4.387   3.144  15.662  0.1358  1.0226  1.3256
 9921TIP3    H251255   4.271   3.181  15.572  1.1435  0.3696 -0.2763
 9922TIP3   OH251256   3.929   2.206  17.014  0.4338  0.8187  0.0114
 9922TIP3    H151257   3.862   2.258  16.970  0.7883 -0.3767 -2.0916
 9922TIP3    H251258   3.883   2.129  17.047  0.0610  1.9630  2.4088
 9923TIP3   OH251259   6.198   3.857   2.310  0.1440 -0.5588  0.1958
 9923TIP3    H151260   6.244   3.911   2.246 -1.9299  1.6856  0.4580
 9923TIP3    H251261   6.140   3.801   2.258 -1.6588  1.3748  0.0095
 9924TIP3   OH251262   4.256   1.949  15.629  0.1618 -0.2872  0.1787
 9924TIP3    H151263   4.339   1.907  15.654  1.0355  1.1456 -0.1866
 9924TIP3    H251264   4.255   1.943  15.533 -0.3612 -0.6461  0.2057
 9925TIP3   OH251265   3.222   5.945   3.974  0.3033 -0.4509 -0.3108
 9925TIP3    H151266   3.299   5.940   4.030  1.1759  1.1086 -1.2836
 9925TIP3    H251267   3.249   5.901   3.893 -0.0773 -0.5042 -0.4109
 9926TIP3   OH251268   5.024   2.293  13.915 -0.8135  0.0149 -0.5382
 9926TIP3    H151269   5.020   2.215  13.969 -0.8258  0.6332  0.3689
 9926TIP3    H251270   5.012   2.261  13.825 -2.6582 -0.8309 -0.0394
 9927TIP3   OH251271   2.857   1.230  15.403 -0.5578  0.1814 -0.1036
 9927TIP3    H151272   2.823   1.287  15.472  0.2249 -1.4651  1.7679
 9927TIP3    H251273   2.935   1.276  15.370 -0.5622  0.7018  0.5931
 9928TIP3   OH251274   5.767   1.063  12.343  0.0903  0.0695  0.2835
 9928TIP3    H151275   5.844   1.024  12.300 -0.4203 -1.7807  0.9393
 9928TIP3    H251276   5.713   1.096  12.271 -0.1186 -1.7773 -0.4596
 9929TIP3   OH251277   5.479   3.458  16.228  0.3212 -0.0517  0.0935
 9929TIP3    H151278   5.557   3.459  16.283  1.5685  0.8686 -1.6167
 9929TIP3    H251279   5.415   3.408  16.279  1.3278  0.8957  2.4404
 9930TIP3   OH251280   4.746   1.094   0.263  0.5022  0.5003 -0.1067
 9930TIP3    H151281   4.824   1.042   0.246 -0.8011 -1.9269  0.8668
 9930TIP3    H251282   4.687   1.074   0.191 -0.0293  0.6034  0.2882
 9931TIP3   OH251283   0.144   3.337   4.644 -0.0837 -0.0833  0.3574
 9931TIP3    H151284   0.112   3.299   4.725 -1.5047  1.0100  0.3549
 9931TIP3    H251285   0.168   3.427   4.667  1.0110 -0.2476 -0.1053
 9932TIP3   OH251286   3.262   3.848  15.543 -0.1052 -0.1699  0.3936
 9932TIP3    H151287   3.281   3.759  15.513 -0.7813  0.4416 -2.1003
 9932TIP3    H251288   3.246   3.898  15.462  0.1001  2.1947  1.7157
 9933TIP3   OH251289   2.005   2.162  16.289 -0.4265  0.5180  0.1944
 9933TIP3    H151290   1.931   2.132  16.342  1.0487  0.1703  2.1895
 9933TIP3    H251291   2.013   2.096  16.219 -1.7387  0.3518  0.1895
 9934TIP3   OH251292   3.321   2.487   4.900  0.2983 -0.3181 -0.7994
 9934TIP3    H151293   3.415   2.467   4.898  0.0876 -1.7257  0.9458
 9934TIP3    H251294   3.279   2.413   4.856 -0.0713 -0.3324 -0.4310
 9935TIP3   OH251295   3.366   3.565   0.197  0.0448  0.4300 -0.1428
 9935TIP3    H151296   3.443   3.542   0.250 -0.7636 -0.3711  0.7322
 9935TIP3    H251297   3.326   3.481   0.175 -1.3806  0.8610  0.6572
 9936TIP3   OH251298   4.384   0.645   0.727 -0.2894 -0.0057 -0.1762
 9936TIP3    H151299   4.355   0.555   0.708 -0.3759  0.1165 -0.6270
 9936TIP3    H251300   4.473   0.635   0.760 -0.2303 -0.2418 -0.4081
 9937TIP3   OH251301   6.218   0.265   4.241 -0.6700  0.1550  0.6650
 9937TIP3    H151302   6.275   0.189   4.245 -0.4663  0.2266 -0.4510
 9937TIP3    H251303   6.137   0.237   4.283 -1.3116 -1.3512 -1.4198
 9938TIP3   OH251304   5.000   3.500   4.068 -0.4944  0.9556 -0.0213
 9938TIP3    H151305   4.917   3.501   4.116 -0.4999  0.2030 -0.0012
 9938TIP3    H251306   4.975   3.496   3.976 -0.4823  1.0414 -0.0278
 9939TIP3   OH251307   3.099   5.282  11.787 -0.1512  0.1919  0.2152
 9939TIP3    H151308   3.182   5.303  11.831 -0.6701 -0.8316  1.7465
 9939TIP3    H251309   3.052   5.366  11.783  1.9070  1.3965 -3.0133
 9940TIP3   OH251310   4.350   1.846   3.418  0.3824  0.0149  0.6679
 9940TIP3    H151311   4.429   1.815   3.374 -0.9354 -1.6865 -0.6253
 9940TIP3    H251312   4.381   1.884   3.500  2.5457 -0.3758  0.0849
 9941TIP3   OH251313   6.762   2.312   5.712  0.1729  0.3502 -0.0379
 9941TIP3    H151314   6.760   2.253   5.636  0.7202  1.0204 -0.5822
 9941TIP3    H251315   6.675   2.352   5.712 -0.4601 -0.9477  0.7534
 9942TIP3   OH251316   3.388   5.381   5.154 -0.3616  0.7429 -0.1510
 9942TIP3    H151317   3.388   5.334   5.071 -1.5929  1.6691 -0.7008
 9942TIP3    H251318   3.471   5.429   5.154 -0.3009  0.6463 -0.7879
 9943TIP3   OH251319   5.848   1.549  13.562  0.5862  0.5685 -0.1285
 9943TIP3    H151320   5.873   1.553  13.655 -0.1526  0.5446  0.0769
 9943TIP3    H251321   5.759   1.585  13.560  0.1993 -0.3890 -0.6710
 9944TIP3   OH251322   0.681   4.044   1.344 -0.2996  0.2680 -0.1984
 9944TIP3    H151323   0.597   4.023   1.386  0.0660  0.3321  0.5717
 9944TIP3    H251324   0.747   4.005   1.401  0.2208  0.5197 -0.6175
 9945TIP3   OH251325   0.964   3.777   0.213 -0.3251 -0.4200 -0.1905
 9945TIP3    H151326   0.999   3.830   0.285 -0.3884 -1.1053  0.3637
 9945TIP3    H251327   0.869   3.781   0.225 -0.3210 -0.8834  0.0343
 9946TIP3   OH251328   0.745   0.654  16.823 -0.1705  0.1804 -0.0797
 9946TIP3    H151329   0.761   0.730  16.766 -1.2173  2.5784  2.5408
 9946TIP3    H251330   0.816   0.593  16.803  2.0316  2.8022 -0.8658
 9947TIP3   OH251331   0.392   2.791   4.541  0.2894 -0.1796 -0.0328
 9947TIP3    H151332   0.364   2.849   4.611  0.6151 -0.7670  0.6024
 9947TIP3    H251333   0.313   2.744   4.515  0.4897 -1.2693  1.2137
 9948TIP3   OH251334   6.654   2.664   2.954  0.0524  0.3516  0.3500
 9948TIP3    H151335   6.708   2.733   2.993 -0.7112  1.4357 -0.4598
 9948TIP3    H251336   6.620   2.702   2.873  1.0703 -1.6121 -1.0997
 9949TIP3   OH251337   3.325   1.826  12.933  0.7996 -0.3936  0.1540
 9949TIP3    H151338   3.395   1.828  12.868 -0.8426  0.1321 -1.6881
 9949TIP3    H251339   3.306   1.733  12.945  2.7351 -0.6594  1.8285
 9950TIP3   OH251340   4.851   4.178   4.489 -0.4904  0.4129 -0.4992
 9950TIP3    H151341   4.802   4.117   4.433  1.1495 -1.1607 -0.3086
 9950TIP3    H251342   4.853   4.136   4.575  0.9024  0.5819 -0.4298
 9951TIP3   OH251343   5.132   2.298   3.070 -0.2672 -0.0102 -0.4509
 9951TIP3    H151344   5.055   2.351   3.048 -0.9255  0.2566  2.1988
 9951TIP3    H251345   5.191   2.310   2.995 -2.0763  1.1530 -1.7847
 9952TIP3   OH251346   0.407   6.654   3.223  0.1558 -0.0291  0.0062
 9952TIP3    H151347   0.314   6.645   3.204  0.0604 -0.7316  0.8165
 9952TIP3    H251348   0.417   6.746   3.250 -0.3208  0.0080  0.0608
 9953TIP3   OH251349   0.045   2.973  12.768 -0.4053 -0.7467  0.7655
 9953TIP3    H151350   0.052   3.064  12.737  1.6015 -2.2314 -4.2576
 9953TIP3    H251351   0.081   2.975  12.856 -1.0556  3.3902  1.1496
 9954TIP3   OH251352   6.623   6.758   2.254 -0.7853  0.3893  0.4450
 9954TIP3    H151353   6.683   6.832   2.265 -2.3912  1.6852  0.7411
 9954TIP3    H251354   6.551   6.776   2.313 -1.3761 -1.2732  0.2839
 9955TIP3   OH251355   6.315   4.030  15.283  0.3154 -0.5945 -0.3167
 9955TIP3    H151356   6.315   4.009  15.376 -1.7379 -1.9151 -0.5533
 9955TIP3    H251357   6.358   4.115  15.278  0.2418 -0.3660  1.8548
 9956TIP3   OH251358   0.305   6.122  11.072  0.1260 -0.3322  0.5026
 9956TIP3    H151359   0.337   6.056  11.011 -0.7578 -0.6865  0.4040
 9956TIP3    H251360   0.213   6.133  11.049  0.3721  1.3161  0.1722
 9957TIP3   OH251361   2.641   4.771   3.659  0.0085 -0.6500 -0.6075
 9957TIP3    H151362   2.602   4.721   3.588 -0.8062 -0.9602  0.0344
 9957TIP3    H251363   2.673   4.851   3.618  1.8906 -1.9318 -1.7528
 9958TIP3   OH251364   6.696   5.651  13.016  0.2457  0.1702 -0.1597
 9958TIP3    H151365   6.716   5.666  12.924 -2.2780 -2.9537 -1.3889
 9958TIP3    H251366   6.729   5.563  13.034 -0.5940  0.1538  1.5060
 9959TIP3   OH251367   6.523   4.804   6.440  0.1238  0.3771 -0.2072
 9959TIP3    H151368   6.432   4.789   6.416 -0.1636 -1.2716  1.6657
 9959TIP3    H251369   6.574   4.765   6.369 -0.6581 -0.6801 -0.2072
 9960TIP3   OH251370   5.985   1.239   1.048 -0.0012 -0.7740 -0.6428
 9960TIP3    H151371   5.966   1.322   1.005 -1.0745 -0.6445  0.0451
 9960TIP3    H251372   5.905   1.217   1.096  0.6484 -1.6468  0.0939
 9961TIP3   OH251373   1.506   3.103  17.162 -0.2761 -0.4682 -0.6164
 9961TIP3    H151374   1.491   3.042  17.234 -0.4804  0.0131 -0.2484
 9961TIP3    H251375   1.471   3.059  17.085  1.9011 -1.9558 -0.8501
 9962TIP3   OH251376   2.189   3.335  15.855 -0.0313  0.4998 -0.2914
 9962TIP3    H151377   2.118   3.295  15.905 -0.0209  0.4785 -0.2935
 9962TIP3    H251378   2.200   3.278  15.779  0.7738 -0.1644  0.3000
 9963TIP3   OH251379   6.463   0.364  15.848  0.0072  0.4898 -0.5779
 9963TIP3    H151380   6.424   0.310  15.916 -0.3561  0.6205 -0.6809
 9963TIP3    H251381   6.556   0.341  15.850 -0.2712 -0.8027 -1.2080
 9964TIP3   OH251382   1.872   4.687   0.630  0.2718 -0.1491 -0.0910
 9964TIP3    H151383   1.925   4.746   0.683 -0.9336 -0.0779  1.0913
 9964TIP3    H251384   1.936   4.630   0.587  1.2982 -0.9456  2.3090
 9965TIP3   OH251385   5.572   0.419   3.669  0.5339  0.6759 -0.3452
 9965TIP3    H151386   5.598   0.491   3.727  5.2826  0.7064 -2.0786
 9965TIP3    H251387   5.567   0.459   3.582 -0.9149 -0.4040 -0.8082
 9966TIP3   OH251388   5.817   4.267   2.940 -0.1772  0.3171  0.5560
 9966TIP3    H151389   5.849   4.357   2.933 -1.9695  0.9397 -0.4249
 9966TIP3    H251390   5.887   4.213   2.905  0.6256  1.3950  0.4471
 9967TIP3   OH251391   0.296   1.485  12.098  0.0590  0.7087  0.7823
 9967TIP3    H151392   0.314   1.574  12.067  0.5313  0.8902  1.5338
 9967TIP3    H251393   0.317   1.488  12.192  1.5998 -0.5918  0.5284
 9968TIP3   OH251394   2.515   5.383   6.083  0.5287 -0.2168 -0.1853
 9968TIP3    H151395   2.569   5.331   6.142  2.7370  1.7470 -0.3121
 9968TIP3    H251396   2.543   5.474   6.099 -1.3572  0.6965 -1.7062
 9969TIP3   OH251397   2.669   5.183   2.355  0.3967 -0.3798 -0.0548
 9969TIP3    H151398   2.582   5.197   2.320  0.1947 -1.9347 -0.2561
 9969TIP3    H251399   2.663   5.211   2.447  0.5169  2.2538 -0.7865
 9970TIP3   OH251400   6.199   5.772   4.043  0.2564  0.3991 -0.1777
 9970TIP3    H151401   6.104   5.765   4.047  0.0631  2.2796 -0.4447
 9970TIP3    H251402   6.225   5.717   3.970 -0.9164  1.8094 -1.7160
 9971TIP3   OH251403   1.327   5.180   0.160  0.0839 -0.4619 -0.7551
 9971TIP3    H151404   1.410   5.158   0.119  0.8895 -1.8770  1.4192
 9971TIP3    H251405   1.351   5.233   0.236 -1.2052  0.8206 -1.1975
 9972TIP3   OH251406   1.634   5.366   0.208  0.1336 -0.1405  0.3627
 9972TIP3    H151407   1.611   5.350   0.300  0.0656 -0.5754  0.2722
 9972TIP3    H251408   1.621   5.460   0.196 -1.0286 -0.2774  0.4684
 9973TIP3   OH251409   4.469   2.602   3.379 -0.0968  0.6482  0.5288
 9973TIP3    H151410   4.511   2.560   3.305  0.1283  3.2069 -0.9222
 9973TIP3    H251411   4.523   2.579   3.455 -0.4398 -2.1638  0.0244
 9974TIP3   OH251412   5.206   2.166   4.508 -0.5241  0.1808 -0.1284
 9974TIP3    H151413   5.301   2.156   4.506 -0.4907  0.3963  0.3978
 9974TIP3    H251414   5.178   2.140   4.420  0.1088  1.0200 -0.5961
 9975TIP3   OH251415   1.760   4.249  11.207  0.0269 -0.3162 -1.0203
 9975TIP3    H151416   1.826   4.180  11.205 -0.5650 -0.9442  0.0405
 9975TIP3    H251417   1.677   4.203  11.218 -0.5413  0.4915 -1.8201
 9976TIP3   OH251418   4.560   2.970   1.564 -0.4395  0.4775  0.2387
 9976TIP3    H151419   4.515   3.047   1.599  0.0457  1.8534 -1.9335
 9976TIP3    H251420   4.646   2.972   1.605 -0.4818  1.0339  0.3098
 9977TIP3   OH251421   4.841   4.654  10.854 -0.0589  0.4738 -0.4482
 9977TIP3    H151422   4.880   4.741  10.841  1.3704 -0.0858 -0.0281
 9977TIP3    H251423   4.833   4.619  10.765 -0.6464  1.0178 -0.6225
 9978TIP3   OH251424   5.159   2.543  15.963 -0.1994 -0.3338 -0.0254
 9978TIP3    H151425   5.216   2.481  16.008 -1.4883 -1.4068  0.2200
 9978TIP3    H251426   5.157   2.620  16.019  0.1199 -0.7228  0.5229
 9979TIP3   OH251427   1.451   2.200  11.711 -0.3575 -0.3802 -0.1935
 9979TIP3    H151428   1.425   2.169  11.798  0.8870  0.3598  0.4786
 9979TIP3    H251429   1.435   2.295  11.715  0.2633 -0.2582 -0.5628
 9980TIP3   OH251430   2.722   6.658   3.287  0.3615  0.2042 -0.0926
 9980TIP3    H151431   2.690   6.578   3.330  1.1998  0.8262  1.7716
 9980TIP3    H251432   2.800   6.630   3.239 -0.1476 -0.3565 -0.6097
 9981TIP3   OH251433   5.317   3.778   2.850  0.7579 -0.5354 -0.3890
 9981TIP3    H151434   5.222   3.777   2.863  0.2802 -1.5715 -3.2841
 9981TIP3    H251435   5.349   3.704   2.901  0.1700  0.1727  1.1071
 9982TIP3   OH251436   1.761   0.926   5.745 -0.0543  0.4532 -0.6305
 9982TIP3    H151437   1.804   0.983   5.682  0.2956  0.2411 -0.5835
 9982TIP3    H251438   1.736   0.849   5.695  0.8057 -0.0032 -0.3821
 9983TIP3   OH251439   3.646   5.094   0.427 -0.0420 -0.2327 -0.3123
 9983TIP3    H151440   3.708   5.146   0.377 -0.8485 -0.3422 -1.4578
 9983TIP3    H251441   3.700   5.031   0.475  0.7383 -0.1935 -1.1285
 9984TIP3   OH251442   4.579   3.392  10.517  0.0423  0.1667  0.1026
 9984TIP3    H151443   4.630   3.350  10.447  0.9294  0.3744  0.6115
 9984TIP3    H251444   4.500   3.339  10.524  0.5531 -0.6459 -0.1649
 9985TIP3   OH251445   1.506   3.262   2.983 -0.0518 -0.0931 -0.0030
 9985TIP3    H151446   1.446   3.241   3.055  2.1681  0.3367  2.1091
 9985TIP3    H251447   1.518   3.356   2.988  0.1574 -0.0559 -0.9540
 9986TIP3   OH251448   4.370   6.254  17.279 -0.4171 -0.4046 -0.0105
 9986TIP3    H151449   4.329   6.312  17.215 -0.9557  2.3906  2.5956
 9986TIP3    H251450   4.458   6.239  17.245 -0.5572  1.2876 -1.2665
 9987TIP3   OH251451   1.040   3.064  11.700  0.2999  0.1257  1.0788
 9987TIP3    H151452   1.026   3.157  11.682  1.8153  0.2561  0.4051
 9987TIP3    H251453   0.973   3.019  11.649  2.1034  0.6903 -2.0633
 9988TIP3   OH251454   0.577   4.497  11.101 -0.0913  0.0566 -0.1734
 9988TIP3    H151455   0.612   4.434  11.164  1.2518 -0.0654 -1.0072
 9988TIP3    H251456   0.641   4.498  11.030 -0.3957  1.9066 -0.4780
 9989TIP3   OH251457   3.130   4.974   6.187 -0.0214 -0.3677 -0.3511
 9989TIP3    H151458   3.077   5.054   6.195 -0.1093 -0.5219  0.7219
 9989TIP3    H251459   3.101   4.919   6.260  1.5182 -0.5183  0.1699
 9990TIP3   OH251460   0.277   2.734  13.153  0.5007 -0.6374 -0.3592
 9990TIP3    H151461   0.275   2.742  13.058  1.9675 -1.2856 -0.4677
 9990TIP3    H251462   0.254   2.642  13.170 -0.8062 -0.2684 -0.0060
 9991TIP3   OH251463   5.400   3.053  17.018 -0.2392  0.5463  0.4666
 9991TIP3    H151464   5.358   3.019  17.098 -1.0814 -0.4580 -0.3813
 9991TIP3    H251465   5.488   3.016  17.019 -0.3059  0.3915  0.8355
 9992TIP3   OH251466   3.978   4.266  13.305 -0.2513 -0.0845  0.5781
 9992TIP3    H151467   3.952   4.347  13.350  0.6977  0.6196 -0.1023
 9992TIP3    H251468   4.072   4.261  13.318 -0.5005 -2.0030  2.0520
 9993TIP3   OH251469   1.706   0.876   6.716  0.3126 -0.4857  0.0211
 9993TIP3    H151470   1.660   0.810   6.662  0.6682 -0.8271  0.1317
 9993TIP3    H251471   1.644   0.897   6.785 -0.3295  0.2909 -0.7692
 9994TIP3   OH251472   5.571   6.072  15.485  0.2417  0.1294  0.2509
 9994TIP3    H151473   5.657   6.038  15.507  0.9336  1.6222 -0.0147
 9994TIP3    H251474   5.574   6.087  15.391 -0.3996 -0.0466  0.1965
 9995TIP3   OH251475   2.783   4.373   1.129 -0.3478 -0.3631 -0.0274
 9995TIP3    H151476   2.861   4.417   1.096 -1.5694  0.5309 -1.9177
 9995TIP3    H251477   2.742   4.438   1.187 -0.5468 -0.1810 -0.3687
 9996TIP3   OH251478   2.856   3.753   4.879  0.5892 -0.1746 -0.2963
 9996TIP3    H151479   2.935   3.793   4.916  0.7045  0.6860 -1.4162
 9996TIP3    H251480   2.870   3.659   4.887  2.7634 -0.1354 -2.4642
 9997TIP3   OH251481   5.065   5.780   2.367 -0.2555  0.5127  0.0844
 9997TIP3    H151482   5.132   5.723   2.406 -0.9735  0.0555  0.6747
 9997TIP3    H251483   5.113   5.857   2.338  0.5036  0.2702  0.6671
 9998TIP3   OH251484   5.236   2.339   4.939 -0.0701 -0.2356  0.0808
 9998TIP3    H151485   5.148   2.313   4.909  0.3838 -0.0806 -1.4876
 9998TIP3    H251486   5.236   2.435   4.932  0.2682 -0.2467 -0.0723
 9999TIP3   OH251487   4.744   3.298  11.847  0.3858  0.4302 -0.0477
 9999TIP3    H151488   4.771   3.330  11.761  1.6571 -1.5865 -0.4480
 9999TIP3    H251489   4.663   3.250  11.830  0.6186  0.0610 -0.1213
10000TIP3   OH251490   2.663   3.898   1.084 -0.1347  0.0752 -0.1324
10000TIP3    H151491   2.738   3.868   1.134 -0.2762  0.4648  0.3110
10000TIP3    H251492   2.610   3.819   1.072  0.5247 -0.2858 -0.7858
10001TIP3   OH251493   4.482   4.776   2.978  0.3439  0.3687 -0.3170
10001TIP3    H151494   4.430   4.729   3.043 -0.6712  0.9043 -0.7041
10001TIP3    H251495   4.543   4.712   2.944  0.1361 -0.2083  0.3773
10002TIP3   OH251496   1.629   4.010   2.958 -0.3970 -0.4404 -0.3415
10002TIP3    H151497   1.701   3.967   3.003  0.3346 -2.1235 -2.9124
10002TIP3    H251498   1.655   4.102   2.952  1.1682 -0.8605 -0.4642
10003TIP3   OH251499   5.909   4.479  15.346 -0.2179 -0.1090 -0.4086
10003TIP3    H151500   5.977   4.414  15.328 -0.5411 -0.4310 -0.4772
10003TIP3    H251501   5.957   4.560  15.362  0.2496 -0.5720  0.6596
10004TIP3   OH251502   1.723   1.128   5.231 -0.4021  0.1492 -1.0896
10004TIP3    H151503   1.685   1.196   5.287 -4.8904 -1.3015 -1.9388
10004TIP3    H251504   1.768   1.069   5.292 -2.5232  0.2319  0.7199
10005TIP3   OH251505   6.568   5.029   1.942  0.2061  0.1436  0.2874
10005TIP3    H151506   6.505   5.054   1.875 -0.6984  1.0414  1.4378
10005TIP3    H251507   6.642   4.992   1.893 -0.7753 -0.0026 -1.1361
10006TIP3   OH251508   1.339   3.727  15.397  0.5832 -0.1713  0.0110
10006TIP3    H151509   1.347   3.657  15.461 -1.6388  0.4358  1.0492
10006TIP3    H251510   1.391   3.799  15.433 -1.8529  0.7114  2.0446
10007TIP3   OH251511   6.337   1.462   5.053  0.0676  0.1399 -0.7380
10007TIP3    H151512   6.418   1.500   5.089  0.7183 -0.2422 -1.7708
10007TIP3    H251513   6.288   1.434   5.131  0.8710  0.4735 -0.0889
10008TIP3   OH251514   5.387   2.621  12.026  0.1127  0.2479  0.8319
10008TIP3    H151515   5.294   2.645  12.027  0.5863  2.4071 -0.4175
10008TIP3    H251516   5.393   2.545  12.083 -2.1108  1.2103  2.4838
10009TIP3   OH251517   0.619   6.118   0.894 -0.6088 -0.1241  0.2850
10009TIP3    H151518   0.628   6.031   0.933  0.2100 -0.8005 -1.3144
10009TIP3    H251519   0.707   6.139   0.862 -0.8902  1.1214  0.2892
10010TIP3   OH251520   1.913   3.540  15.660  0.9957 -0.4740  0.1244
10010TIP3    H151521   1.870   3.621  15.687  0.2530 -0.9590  0.4180
10010TIP3    H251522   1.959   3.510  15.738 -1.7069 -2.2367  1.1650
10011TIP3   OH251523   0.461   5.861  12.281 -0.2391  0.5120 -0.2611
10011TIP3    H151524   0.491   5.895  12.365  1.1445 -1.0125 -0.0872
10011TIP3    H251525   0.392   5.922  12.254 -0.9044  0.8982  2.0713
10012TIP3   OH251526   1.744   5.955  15.268 -0.1574  0.1174  0.3136
10012TIP3    H151527   1.808   5.898  15.311  1.3462 -0.5283 -2.5319
10012TIP3    H251528   1.666   5.900  15.257  0.9214 -1.1816 -1.4650
10013TIP3   OH251529   6.238   3.327  14.488 -0.5723  0.2323  0.1877
10013TIP3    H151530   6.256   3.360  14.400 -1.1387 -1.0341 -0.4187
10013TIP3    H251531   6.210   3.237  14.475 -0.8346  0.0792  1.6574
10014TIP3   OH251532   2.765   0.097  14.800  0.6040 -0.0474  0.5204
10014TIP3    H151533   2.777   0.064  14.711 -1.1121  0.7279 -0.0347
10014TIP3    H251534   2.775   0.020  14.856  2.2488 -0.4500 -0.2575
10015TIP3   OH251535   2.452   5.682  11.772  0.0839 -0.2730  0.5909
10015TIP3    H151536   2.381   5.731  11.813 -1.6421 -1.6000 -0.7007
10015TIP3    H251537   2.532   5.722  11.807 -1.2457  2.2102  0.9785
10016TIP3   OH251538   5.476   4.366  16.932  0.5152 -0.2449  0.1338
10016TIP3    H151539   5.440   4.434  16.875  1.2035 -0.2503 -0.3164
10016TIP3    H251540   5.558   4.402  16.965  2.3443 -1.8814 -2.3113
10017TIP3   OH251541   3.276   6.656   0.896 -0.1174  0.9041  0.2424
10017TIP3    H151542   3.325   6.577   0.871 -0.7610  0.1547  1.2795
10017TIP3    H251543   3.207   6.624   0.954 -0.6968  2.1805  0.2870
10018TIP3   OH251544   3.416   4.025  11.724  0.0505 -0.1315 -0.2735
10018TIP3    H151545   3.414   4.112  11.763 -0.4394 -1.1398  2.0937
10018TIP3    H251546   3.354   4.030  11.651  0.0979  1.4982 -0.2480
10019TIP3   OH251547   3.893   4.960   2.633 -0.2604 -0.1505  0.7254
10019TIP3    H151548   3.841   5.017   2.576  2.5981  1.8539 -0.0866
10019TIP3    H251549   3.876   4.872   2.599 -0.8426  0.7221 -1.4411
10020TIP3   OH251550   2.988   4.417   4.243  0.3232 -0.0661 -0.4750
10020TIP3    H151551   2.994   4.406   4.148 -1.0848 -0.9383 -0.5015
10020TIP3    H251552   2.909   4.368   4.267 -0.3229  1.5376  0.9067
10021TIP3   OH251553   3.296   4.587   2.951  0.4461  0.0574 -0.5121
10021TIP3    H151554   3.292   4.496   2.922 -0.6261  0.2574 -1.0269
10021TIP3    H251555   3.214   4.626   2.922  0.7902  1.1412 -0.1040
10022TIP3   OH251556   2.186   2.700  14.010  0.6014 -0.8650 -0.2407
10022TIP3    H151557   2.193   2.774  13.950  1.7738 -1.6206 -1.0788
10022TIP3    H251558   2.102   2.712  14.053  0.5492  0.6746 -0.7260
10023TIP3   OH251559   2.806   3.614   0.008  0.0870 -0.0297 -0.3493
10023TIP3    H151560   2.832   3.548   0.072 -1.8180  1.9460  2.6856
10023TIP3    H251561   2.765   3.563  -0.063  4.2300 -2.4730 -1.3390
10024TIP3   OH251562   4.635   0.792   6.065  0.2455  0.5813 -0.3306
10024TIP3    H151563   4.629   0.766   6.157  1.1609 -0.1837 -0.4695
10024TIP3    H251564   4.580   0.870   6.058 -1.3454 -0.3987  0.4614
10025TIP3   OH251565   4.404   5.710   0.031  0.1585 -0.1421  0.5214
10025TIP3    H151566   4.310   5.694   0.025  0.2267 -0.2022 -0.4400
10025TIP3    H251567   4.411   5.802   0.057 -0.1682  0.4326 -1.3138
10026TIP3   OH251568   5.560   0.427   6.332 -0.3880 -0.4680 -0.1566
10026TIP3    H151569   5.619   0.422   6.257 -2.2867  2.0727 -2.0094
10026TIP3    H251570   5.582   0.510   6.375 -0.2629 -1.2253  1.3326
10027TIP3   OH251571   2.908   1.284  14.848 -0.0529  0.3472  0.1395
10027TIP3    H151572   3.002   1.267  14.835  0.2868  1.7152  0.6267
10027TIP3    H251573   2.864   1.217  14.795  1.1927 -0.1916 -0.2614
10028TIP3   OH251574   5.385   6.563  14.476  0.0488  0.3696 -0.1398
10028TIP3    H151575   5.436   6.632  14.433  0.9247 -0.4294 -0.4223
10028TIP3    H251576   5.451   6.507  14.516 -0.3546 -2.2823 -2.8426
10029TIP3   OH251577   0.243   5.922  14.268  0.4565  0.4597 -0.0928
10029TIP3    H151578   0.150   5.907  14.249  0.3148 -1.4081  1.6881
10029TIP3    H251579   0.243   5.996  14.328 -0.0913 -0.6152  1.2884
10030TIP3   OH251580   5.770   0.725   1.007  0.7958  0.1855  0.6018
10030TIP3    H151581   5.816   0.783   0.947  0.4330  0.4381  0.5664
10030TIP3    H251582   5.680   0.756   1.006  0.4194 -0.8742 -0.0309
10031TIP3   OH251583   3.888   4.967  13.003  0.0157 -0.1121 -0.4332
10031TIP3    H151584   3.832   4.987  12.928  0.6775 -0.0213 -0.9103
10031TIP3    H251585   3.970   4.936  12.965  0.3506 -0.1017  0.2528
10032TIP3   OH251586   6.214   6.647   2.941  0.5492  0.3623  0.4348
10032TIP3    H151587   6.263   6.596   2.876  1.6763  0.4634  1.1705
10032TIP3    H251588   6.271   6.648   3.018 -0.4556  0.8285  1.1976
10033TIP3   OH251589   4.588   4.166  11.801  0.4829  0.1413  0.1590
10033TIP3    H151590   4.598   4.205  11.714 -0.2523  0.6710  0.3062
10033TIP3    H251591   4.592   4.241  11.861 -2.6497  0.2731  0.3514
10034TIP3   OH251592   1.527   3.154  11.447 -0.2183  0.4864 -0.0247
10034TIP3    H151593   1.447   3.204  11.467  0.6239  1.1889  1.7899
10034TIP3    H251594   1.578   3.158  11.528  1.6805  0.0762 -1.1588
10035TIP3   OH251595   1.705   5.610   4.029 -0.0866 -0.0067  0.1748
10035TIP3    H151596   1.675   5.665   3.956 -0.0411  1.7999  1.4578
10035TIP3    H251597   1.790   5.578   4.001 -0.6691 -0.4983 -1.1348
10036TIP3   OH251598   2.789   1.953   4.476 -0.2130 -0.2794 -0.2697
10036TIP3    H151599   2.776   1.921   4.387 -3.3839 -1.7910  0.5904
10036TIP3    H251600   2.843   1.886   4.518 -1.9324 -1.6213 -0.0858
10037TIP3   OH251601   2.167   6.502  16.921 -0.3159 -0.4464  0.1235
10037TIP3    H151602   2.225   6.578  16.931  1.2682 -1.5343 -0.3273
10037TIP3    H251603   2.085   6.529  16.962  0.2700  1.4201  0.1715
10038TIP3   OH251604   3.862   4.057   6.025 -0.0691 -0.5807  0.1337
10038TIP3    H151605   3.938   4.081   6.077  0.0369  1.9283 -1.0594
10038TIP3    H251606   3.788   4.102   6.067  0.0693  1.7739 -1.9211
10039TIP3   OH251607   0.854   2.583  16.918 -0.4575 -0.2114  0.2785
10039TIP3    H151608   0.765   2.558  16.941 -1.1119  1.8706  0.2180
10039TIP3    H251609   0.844   2.656  16.858  1.3000 -0.2029 -0.0604
10040TIP3   OH251610   6.594   0.067  15.379 -0.0044 -0.2942 -0.0798
10040TIP3    H151611   6.609  -0.028  15.374 -0.4428 -0.3293 -0.8151
10040TIP3    H251612   6.611   0.099  15.291 -0.3803  0.2346  0.0326
10041TIP3   OH251613   4.610   6.676   5.828 -0.3113 -0.0384 -0.3306
10041TIP3    H151614   4.522   6.639   5.827 -0.8143  1.0391  0.7359
10041TIP3    H251615   4.617   6.722   5.744 -0.1401 -1.4713 -1.1202
10042TIP3   OH251616   5.640   1.515  16.459  0.1918 -0.0644 -0.8158
10042TIP3    H151617   5.667   1.424  16.448 -2.2488 -0.7061 -1.9754
10042TIP3    H251618   5.618   1.545  16.371 -0.9878  0.9797 -0.2003
10043TIP3   OH251619   4.893   1.657  14.918 -0.0790  0.4334 -0.3293
10043TIP3    H151620   4.975   1.631  14.959 -0.8145 -1.1895  0.2014
10043TIP3    H251621   4.914   1.737  14.869  2.3044 -1.0215 -1.8832
10044TIP3   OH251622   1.858   1.580  17.469  0.0755 -0.6592  0.3415
10044TIP3    H151623   1.938   1.535  17.494 -0.2179 -2.2749 -1.3689
10044TIP3    H251624   1.887   1.659  17.424  0.6106  0.4600  2.5165
10045TIP3   OH251625   2.841   3.004   6.799  0.5183 -0.0039 -0.2245
10045TIP3    H151626   2.855   3.096   6.777 -2.6901  0.2878 -1.5377
10045TIP3    H251627   2.769   3.004   6.861  0.6932 -1.6271  0.0279
10046TIP3   OH251628   5.721   0.080  13.246  0.3592  0.3629 -0.2049
10046TIP3    H151629   5.643   0.130  13.223  1.2338  0.9474 -2.1506
10046TIP3    H251630   5.780   0.145  13.285  0.6198  0.3670 -0.5982
10047TIP3   OH251631   5.145   4.931   0.297  0.3010 -0.5894 -0.4089
10047TIP3    H151632   5.219   4.872   0.281  1.2462  0.3011  0.5456
10047TIP3    H251633   5.071   4.872   0.316  0.5412 -1.5072 -2.1463
10048TIP3   OH251634   2.628   3.011  16.531 -0.4460 -0.2543  0.4908
10048TIP3    H151635   2.559   2.991  16.594 -0.6103  0.9899  0.7300
10048TIP3    H251636   2.705   3.029  16.585  0.7944 -3.8923  0.1949
10049TIP3   OH251637   6.684   5.917   0.787  0.3253  0.7340  0.3488
10049TIP3    H151638   6.706   5.961   0.870 -0.7946  0.5558  0.7538
10049TIP3    H251639   6.685   5.824   0.809 -3.0342  0.7196  1.0430
10050TIP3   OH251640   1.423   1.043  13.037 -0.2480 -0.1298 -0.6215
10050TIP3    H151641   1.332   1.068  13.050 -0.3834 -1.4823  1.4812
10050TIP3    H251642   1.468   1.125  13.018 -1.3467  1.1407  1.7902
10051TIP3   OH251643   5.146   4.657  13.957 -0.2670  0.1330 -0.0992
10051TIP3    H151644   5.162   4.624  14.045  0.5399 -1.5314 -0.8345
10051TIP3    H251645   5.055   4.631  13.939 -0.2288 -0.0770  0.0030
10052TIP3   OH251646   2.898   6.302   0.691  0.3166  0.3589 -0.0797
10052TIP3    H151647   2.894   6.311   0.595  1.0562  1.4013 -0.0321
10052TIP3    H251648   2.978   6.348   0.715 -1.2762  2.5721  1.3180
10053TIP3   OH251649   5.221   2.254  12.545  0.2831  0.3657  0.1079
10053TIP3    H151650   5.261   2.259  12.458 -1.6778  2.1625 -0.7788
10053TIP3    H251651   5.181   2.167  12.548  0.0085  0.4394 -0.9797
10054TIP3   OH251652   1.331   5.627   2.831  0.6553  0.0768  0.2143
10054TIP3    H151653   1.359   5.594   2.745  0.5603  0.1167  0.1680
10054TIP3    H251654   1.319   5.548   2.884 -0.5028 -0.0228 -0.1777
10055TIP3   OH251655   4.257   1.147   1.764 -0.3565 -0.1924 -0.1638
10055TIP3    H151656   4.213   1.106   1.690 -1.2185 -0.9498  0.7485
10055TIP3    H251657   4.327   1.199   1.724 -0.3907 -1.0931 -1.4632
10056TIP3   OH251658   4.062   3.675   4.378 -0.2782  0.0120 -0.4385
10056TIP3    H151659   4.011   3.595   4.387 -0.1277  0.0634  1.2213
10056TIP3    H251660   3.997   3.746   4.385 -0.3616  0.0550 -1.5109
10057TIP3   OH251661   5.636   1.193  12.132 -0.7203  0.5258  0.1468
10057TIP3    H151662   5.612   1.282  12.105  1.5471  0.9476 -0.6810
10057TIP3    H251663   5.639   1.143  12.050 -0.8790 -0.0463  0.4817
10058TIP3   OH251664   5.033   3.006  17.067  0.0022 -0.5172 -0.0679
10058TIP3    H151665   4.949   2.967  17.043 -1.3195  1.9575  0.1815
10058TIP3    H251666   5.062   3.052  16.988  0.9147 -0.9858 -0.0180
10059TIP3   OH251667   4.987   4.699   1.042  0.1786 -0.0917  0.4748
10059TIP3    H151668   4.979   4.609   1.009  3.1557  0.1341 -1.2486
10059TIP3    H251669   5.037   4.690   1.123 -0.5707 -0.0733  0.9410
10060TIP3   OH251670   5.873   4.944   4.317  0.0215 -0.4293  0.5255
10060TIP3    H151671   5.860   4.919   4.409  0.5212 -1.1951  0.3993
10060TIP3    H251672   5.807   4.894   4.269  1.3195 -1.9121  0.2222
10061TIP3   OH251673   3.664   2.977  12.764  0.0448  0.3053  0.1199
10061TIP3    H151674   3.708   3.049  12.809  0.9617 -1.3102  1.9409
10061TIP3    H251675   3.612   3.019  12.696  0.7732  2.6428  0.9360
10062TIP3   OH251676   1.173   4.630   1.332  0.0354  0.6260  0.0843
10062TIP3    H151677   1.150   4.611   1.241  2.7969 -2.3629 -0.1775
10062TIP3    H251678   1.260   4.593   1.343  0.5474  2.4427  3.5300
10063TIP3   OH251679   5.009   6.476  13.569  0.4343 -0.1791  0.3878
10063TIP3    H151680   5.037   6.459  13.478 -0.6137  1.1228 -0.2060
10063TIP3    H251681   5.090   6.499  13.614  1.0914 -1.5715  0.0006
10064TIP3   OH251682   1.427   1.195  13.824 -0.2578 -0.3723  0.2239
10064TIP3    H151683   1.460   1.253  13.755 -0.2452 -0.7852 -0.1202
10064TIP3    H251684   1.348   1.156  13.788 -0.8087  0.1548  0.8223
10065TIP3   OH251685   0.173   5.919   0.435  0.4579  0.3413  0.0595
10065TIP3    H151686   0.128   5.936   0.353  1.7461  4.0003 -0.0600
10065TIP3    H251687   0.132   5.978   0.498  3.0331  1.6965  0.6075
10066TIP3   OH251688   0.581   1.318  12.910  0.3557 -0.0822  0.1457
10066TIP3    H151689   0.568   1.307  12.816 -1.5326  0.5427  0.2942
10066TIP3    H251690   0.498   1.292  12.950  1.6312 -1.9034  1.8141
10067TIP3   OH251691   0.572   5.377   1.288 -0.2075 -0.4227  0.1065
10067TIP3    H151692   0.511   5.381   1.215 -0.2714 -0.0713  0.1814
10067TIP3    H251693   0.523   5.335   1.359  0.2797 -2.1001 -0.4776
10068TIP3   OH251694   4.509   3.515   2.293 -0.2873 -0.2809 -0.5443
10068TIP3    H151695   4.431   3.465   2.321  0.0117 -1.3744 -1.5671
10068TIP3    H251696   4.478   3.605   2.287 -1.2434 -0.5559 -0.0543
10069TIP3   OH251697   0.720   6.763  14.850 -0.1398  0.4346  0.0958
10069TIP3    H151698   0.775   6.723  14.917 -1.1484 -3.5184 -1.1870
10069TIP3    H251699   0.658   6.818  14.898  3.0174  2.8771  1.7517
10070TIP3   OH251700   3.221   4.442   0.433 -0.2765  0.5936 -0.0633
10070TIP3    H151701   3.207   4.470   0.343 -1.5832 -1.5675 -0.5925
10070TIP3    H251702   3.170   4.362   0.442  2.2482 -0.9553  1.7155
10071TIP3   OH251703   5.145   3.950   1.967 -0.3970 -0.6577 -0.3964
10071TIP3    H151704   5.071   4.004   1.996 -0.5982 -0.6908 -0.8409
10071TIP3    H251705   5.220   3.987   2.013 -0.7788 -1.0053  0.5340
10072TIP3   OH251706   3.779   1.157   0.566  0.0328  0.0105 -0.2343
10072TIP3    H151707   3.776   1.171   0.661 -0.8751  0.7660 -0.3585
10072TIP3    H251708   3.688   1.168   0.538  0.4085  0.5020 -1.2872
10073TIP3   OH251709   2.545   1.795  13.169 -0.8340 -0.2894 -0.0584
10073TIP3    H151710   2.505   1.710  13.150 -2.2971  0.1263  0.9472
10073TIP3    H251711   2.472   1.857  13.167 -0.0115  0.7458  0.4892
10074TIP3   OH251712   5.375   2.618  12.462  0.0854 -0.0660  0.6426
10074TIP3    H151713   5.307   2.575  12.513 -0.2494  0.1519  0.3834
10074TIP3    H251714   5.396   2.556  12.392  0.5562 -0.3718  1.0512
10075TIP3   OH251715   0.969   6.704   1.860  0.0738  0.1123  0.0837
10075TIP3    H151716   0.903   6.756   1.907  0.4554  0.4017  0.3033
10075TIP3    H251717   0.918   6.636   1.815 -0.2773 -0.2504  1.0205
10076TIP3   OH251718   0.678   2.895  15.157 -0.1375  0.4416  0.3035
10076TIP3    H151719   0.662   2.904  15.063  0.3327 -0.1650  0.1604
10076TIP3    H251720   0.769   2.865  15.163 -0.1744  0.4417  0.9542
10077TIP3   OH251721   5.112   4.557   5.497  0.3790  0.0421  0.2735
10077TIP3    H151722   5.032   4.590   5.538 -0.6964 -0.8425 -1.0119
10077TIP3    H251723   5.138   4.483   5.551 -1.2378 -1.3508 -0.7467
10078TIP3   OH251724   0.172   1.542   0.751 -0.2878  0.3082  0.0495
10078TIP3    H151725   0.238   1.603   0.783  0.1487  0.6154 -1.3487
10078TIP3    H251726   0.091   1.593   0.748 -0.2094  0.4355  0.1174
10079TIP3   OH251727   6.385   5.494   0.088  0.4248 -0.7159  0.6468
10079TIP3    H151728   6.476   5.517   0.069  0.6053 -1.6070  0.3467
10079TIP3    H251729   6.391   5.419   0.147 -0.1133 -0.8720  0.5081
10080TIP3   OH251730   5.903   2.801   5.295  0.3543 -0.2986 -0.2084
10080TIP3    H151731   5.832   2.738   5.302 -0.6542  0.7731 -0.4734
10080TIP3    H251732   5.976   2.762   5.344 -0.9786 -0.6178  1.5879
10081TIP3   OH251733   3.186   2.024  11.308  0.1691  0.1427  0.5350
10081TIP3    H151734   3.274   2.059  11.302 -0.5286  2.1877  1.4203
10081TIP3    H251735   3.144   2.051  11.227  0.4597 -1.2859 -0.1302
10082TIP3   OH251736   6.162   0.943   5.053  0.1229  0.2366 -0.3842
10082TIP3    H151737   6.254   0.952   5.077 -0.3847  1.2546  1.2924
10082TIP3    H251738   6.137   0.857   5.086 -0.0456  0.8137  1.0597
10083TIP3   OH251739   0.981   6.517   0.495  0.1818 -0.1642 -0.1865
10083TIP3    H151740   0.924   6.453   0.452 -0.4280  0.5447 -0.4522
10083TIP3    H251741   0.955   6.601   0.458 -0.4784  0.5020  1.6640
10084TIP3   OH251742   3.221   0.204   0.512  0.7241  0.8147  0.4770
10084TIP3    H151743   3.183   0.238   0.431  0.2957  1.2872  0.8712
10084TIP3    H251744   3.149   0.201   0.574  1.1562  0.9629  0.9989
10085TIP3   OH251745   3.024   1.365   5.124 -0.4092 -0.0291 -0.5492
10085TIP3    H151746   3.007   1.362   5.219  0.6411  0.3986 -0.3273
10085TIP3    H251747   2.939   1.384   5.085 -0.6887  0.7480  0.3852
10086TIP3   OH251748   0.959   5.326   2.372 -0.1517 -0.2671 -0.0227
10086TIP3    H151749   0.935   5.415   2.398  0.7337 -0.1604  0.4618
10086TIP3    H251750   1.025   5.299   2.435  0.2271 -0.9413 -0.6854
10087TIP3   OH251751   1.412   4.367  14.300 -0.7887 -0.1001 -0.3017
10087TIP3    H151752   1.447   4.441  14.251  2.4161 -1.0895  0.2896
10087TIP3    H251753   1.453   4.290  14.261 -2.5490 -1.4525  0.3511
10088TIP3   OH251754   2.612   2.442  17.424 -0.2177 -0.4104 -0.1109
10088TIP3    H151755   2.599   2.352  17.454 -1.4086 -1.2823 -2.8486
10088TIP3    H251756   2.688   2.437  17.366 -2.0598 -0.4658 -2.7312
10089TIP3   OH251757   4.534   0.443  10.902  0.0083  0.4658  0.1766
10089TIP3    H151758   4.462   0.383  10.884  1.1828 -0.4194 -1.9167
10089TIP3    H251759   4.544   0.441  10.997 -0.3652 -2.2670  0.2365
10090TIP3   OH251760   3.695   0.418   1.780 -0.2469  0.4357  0.2183
10090TIP3    H151761   3.703   0.388   1.870  0.1006 -2.3916 -0.6701
10090TIP3    H251762   3.786   0.425   1.749 -0.3485  1.7389  0.1482
10091TIP3   OH251763   2.180   0.282   4.163  0.5342  0.1369 -0.1335
10091TIP3    H151764   2.234   0.229   4.221  0.0157 -0.4158 -0.1506
10091TIP3    H251765   2.095   0.238   4.161  0.3552  0.4894 -0.8241
10092TIP3   OH251766   4.839   6.214  11.844  0.0813 -0.0164  0.4879
10092TIP3    H151767   4.797   6.150  11.786 -0.5729  1.5686 -0.8526
10092TIP3    H251768   4.932   6.208  11.823 -0.3191  2.2438 -2.7028
10093TIP3   OH251769   1.210   5.510   0.530 -0.0638 -0.5852  0.0813
10093TIP3    H151770   1.146   5.516   0.458  0.3983  0.1384 -0.2857
10093TIP3    H251771   1.174   5.566   0.598  0.3731  0.1667 -0.2909
10094TIP3   OH251772   5.053   3.919  12.482  0.2308 -0.0439  0.6266
10094TIP3    H151773   4.973   3.955  12.444  0.3046  1.0105  1.4315
10094TIP3    H251774   5.047   3.825  12.466 -1.4180 -0.0492  1.1104
10095TIP3   OH251775   4.987   2.989   3.387  0.1791 -0.0766  0.0064
10095TIP3    H151776   5.021   3.060   3.442 -0.1286 -0.5955  0.8863
10095TIP3    H251777   5.040   2.912   3.411 -0.6537 -0.5526  0.3483
10096TIP3   OH251778   3.828   1.625   0.265  0.0915  0.1481  0.0997
10096TIP3    H151779   3.878   1.543   0.269  1.6552  0.8570 -2.7351
10096TIP3    H251780   3.878   1.686   0.320 -0.6447 -0.5031  1.5651
10097TIP3   OH251781   3.028   6.299  17.187  0.2054 -0.2369  0.1164
10097TIP3    H151782   2.987   6.321  17.103 -0.2640  0.1075  0.4287
10097TIP3    H251783   3.099   6.239  17.164 -0.0638 -0.3301 -0.5038
10098TIP3   OH251784   6.183   4.860   0.738  0.2995 -0.0014 -0.4466
10098TIP3    H151785   6.220   4.779   0.773 -0.2122 -0.0894 -0.0827
10098TIP3    H251786   6.224   4.871   0.653  2.5611  0.9023  0.6888
10099TIP3   OH251787   4.921   2.368   0.941  0.1058 -0.3582  0.4337
10099TIP3    H151788   4.868   2.314   0.882  0.3812  2.2751 -2.4804
10099TIP3    H251789   4.873   2.451   0.948  2.0650  0.8279  0.6303
10100TIP3   OH251790   4.030   5.658   6.463  0.4078 -0.0082 -0.6409
10100TIP3    H151791   4.034   5.690   6.373 -2.1439  0.8197 -0.5374
10100TIP3    H251792   4.014   5.736   6.516  0.1721 -0.7039  0.3493
10101TIP3   OH251793   2.155   0.740   0.944  0.0216 -0.0246  0.1105
10101TIP3    H151794   2.236   0.697   0.969 -0.2829 -1.4028 -1.1150
10101TIP3    H251795   2.177   0.833   0.939  0.5283  0.1615  3.5754
10102TIP3   OH251796   6.614   0.576  17.199 -0.1534 -0.3157  0.4578
10102TIP3    H151797   6.697   0.577  17.248 -0.3753  0.1019  0.8366
10102TIP3    H251798   6.548   0.601  17.264 -0.6625 -1.2120  0.3065
10103TIP3   OH251799   1.600   3.325  13.472  0.0031 -0.0731 -0.2317
10103TIP3    H151800   1.565   3.409  13.499  1.8026  0.4756  0.6042
10103TIP3    H251801   1.642   3.342  13.388  0.7237 -0.0133  0.1304
10104TIP3   OH251802   2.506   1.326  14.898 -0.0322  0.6074 -0.2858
10104TIP3    H151803   2.412   1.318  14.883 -0.1543  0.8425  0.3267
10104TIP3    H251804   2.521   1.282  14.982  0.1959  1.6840  0.2620
10105TIP3   OH251805   4.556   2.345  14.802  0.1500 -0.6162  0.2743
10105TIP3    H151806   4.528   2.291  14.728  2.0492 -1.3098 -0.0075
10105TIP3    H251807   4.512   2.428  14.790  0.5174 -0.6690 -1.7439
10106TIP3   OH251808   6.334   4.218  11.576  0.1936  0.4273  0.2013
10106TIP3    H151809   6.387   4.293  11.551  1.1830 -0.0279  0.8736
10106TIP3    H251810   6.304   4.239  11.665  0.7005 -0.0720  0.5012
10107TIP3   OH251811   5.674   5.596  11.875  0.1723 -0.3650 -0.9431
10107TIP3    H151812   5.724   5.557  11.947 -0.8519 -0.7285 -0.3919
10107TIP3    H251813   5.738   5.614  11.807  0.8651 -1.9842 -0.7698
10108TIP3   OH251814   1.605   4.139  15.641  0.3543  0.0900 -0.3704
10108TIP3    H151815   1.552   4.097  15.573 -2.8927  2.5287  0.4170
10108TIP3    H251816   1.666   4.195  15.593 -0.7952  0.5471 -1.3474
10109TIP3   OH251817   0.779   1.585  15.656 -0.2327 -0.1646  0.0914
10109TIP3    H151818   0.748   1.611  15.743 -1.1888 -0.4773 -0.1359
10109TIP3    H251819   0.872   1.605  15.656  0.0241 -1.2218  1.5978
10110TIP3   OH251820   4.472   2.774  16.185 -0.1696  0.4758  0.2878
10110TIP3    H151821   4.508   2.759  16.272  0.6426 -1.2824 -0.3005
10110TIP3    H251822   4.407   2.705  16.173 -1.0588  1.3492 -0.1115
10111TIP3   OH251823   1.647   1.940   0.550 -0.5725 -0.5366  0.1511
10111TIP3    H151824   1.571   1.963   0.496 -1.2126 -0.1477  1.1831
10111TIP3    H251825   1.611   1.928   0.638  0.7129  0.7500  0.8876
10112TIP3   OH251826   5.844   5.372   5.441 -0.7593 -0.1813  0.4428
10112TIP3    H151827   5.905   5.348   5.370  0.2070  0.9896  0.8296
10112TIP3    H251828   5.825   5.289   5.485  0.7032 -0.5682  0.4112
10113TIP3   OH251829   2.559   4.447   0.956  0.0757  0.6448 -0.4780
10113TIP3    H151830   2.621   4.428   1.027 -1.0950  1.2731  0.7481
10113TIP3    H251831   2.474   4.455   1.000 -0.5984  1.5370 -1.8941
10114TIP3   OH251832   2.719   1.973  13.799 -0.1496  0.0234 -0.2283
10114TIP3    H151833   2.689   1.884  13.782  1.1051 -0.1046 -2.0770
10114TIP3    H251834   2.646   2.016  13.843 -1.9614 -1.0436 -2.0711
10115TIP3   OH251835   5.868   5.349  12.955 -0.4347 -0.5819 -0.7442
10115TIP3    H151836   5.789   5.335  13.008 -0.3177 -0.1708 -0.4540
10115TIP3    H251837   5.941   5.333  13.015 -0.2651  2.2658 -0.0327
10116TIP3   OH251838   3.527   3.721   3.460 -0.3246  0.1478  0.1752
10116TIP3    H151839   3.536   3.628   3.438  0.6366  0.3151 -0.1644
10116TIP3    H251840   3.434   3.739   3.448 -0.5307 -0.7783  0.2793
10117TIP3   OH251841   0.339   1.279  15.033  0.0993  0.1298 -0.0545
10117TIP3    H151842   0.404   1.224  14.989 -0.8829 -2.1440  1.1795
10117TIP3    H251843   0.359   1.271  15.126 -2.8455 -2.0507  0.5333
10118TIP3   OH251844   1.092   2.683  13.983 -0.1597 -0.7263 -0.3524
10118TIP3    H151845   1.088   2.738  13.905  0.4656  0.1124  0.1940
10118TIP3    H251846   1.158   2.617  13.962  0.8490  0.1836 -0.1213
10119TIP3   OH251847   1.771   2.577  14.354 -0.1388 -0.1643 -0.0972
10119TIP3    H151848   1.706   2.508  14.340 -0.8163  0.6532 -1.1334
10119TIP3    H251849   1.777   2.586  14.449 -1.2169 -0.5671  0.0189
10120TIP3   OH251850   3.204   6.041  11.950 -0.2621  0.2144  0.4218
10120TIP3    H151851   3.171   6.059  12.038 -2.4592  0.1596 -0.3233
10120TIP3    H251852   3.125   6.027  11.897  1.0188 -0.6563 -1.3759
10121TIP3   OH251853   3.902   5.239  13.025 -0.2905 -0.2100 -0.0123
10121TIP3    H151854   3.881   5.150  13.051 -1.0677 -0.0803 -0.1634
10121TIP3    H251855   3.997   5.247  13.038 -0.1567 -1.1667 -0.3359
10122TIP3   OH251856   4.763   5.613  15.116 -0.2978  0.2949 -0.1561
10122TIP3    H151857   4.725   5.645  15.034  0.6451  0.3894 -0.5681
10122TIP3    H251858   4.713   5.658  15.184  0.0006  1.5022 -0.7022
10123TIP3   OH251859   2.809   1.424   5.683  0.2618 -0.3019 -0.0373
10123TIP3    H151860   2.899   1.392   5.697  0.9623  0.9813 -1.3235
10123TIP3    H251861   2.797   1.418   5.588 -1.0632 -0.5195  0.1290
10124TIP3   OH251862   0.584   4.749  16.003 -0.4501  0.5499 -0.1763
10124TIP3    H151863   0.495   4.741  16.037 -0.2379  0.0697  0.3008
10124TIP3    H251864   0.623   4.819  16.055 -0.2914  0.1761  0.2224
10125TIP3   OH251865   0.122   5.469   4.239 -0.2973  1.1109  0.1215
10125TIP3    H151866   0.110   5.564   4.246  0.6479  1.4025 -1.6657
10125TIP3    H251867   0.169   5.457   4.157 -0.1669 -0.9042  0.4484
10126TIP3   OH251868   5.073   3.609  12.484  0.3450 -0.4085 -0.1376
10126TIP3    H151869   5.087   3.535  12.543  2.8105  0.3985  0.3863
10126TIP3    H251870   5.055   3.568  12.399 -1.6372 -1.5677  0.7700
10127TIP3   OH251871   1.519   3.075   3.434  0.5040  0.0191  0.3739
10127TIP3    H151872   1.553   3.032   3.512  0.3905  0.1405  0.4915
10127TIP3    H251873   1.552   3.165   3.440  1.7229 -0.3499 -0.4706
10128TIP3   OH251874   2.498   0.270   2.565  0.2276 -0.0480  0.0183
10128TIP3    H151875   2.473   0.344   2.620 -0.6802  0.7446 -1.4005
10128TIP3    H251876   2.494   0.194   2.623  0.3123  0.8832  1.2803
10129TIP3   OH251877   4.426   2.679  12.351 -0.3885  0.2289  0.3351
10129TIP3    H151878   4.390   2.765  12.372 -1.0131 -0.1382  0.8164
10129TIP3    H251879   4.422   2.674  12.256  4.2757  2.7035 -0.2645
10130TIP3   OH251880   4.065   1.253   3.444  0.5935 -0.2027 -0.2501
10130TIP3    H151881   4.140   1.313   3.439  1.2045 -1.0369 -2.1386
10130TIP3    H251882   4.015   1.272   3.364 -1.5384  0.6858  1.2171
10131TIP3   OH251883   2.310   2.130  11.949 -0.3180 -0.0074  0.1770
10131TIP3    H151884   2.258   2.125  11.868  0.6748 -1.8842 -0.4152
10131TIP3    H251885   2.317   2.039  11.978  0.2221  0.5316  1.8179
10132TIP3   OH251886   5.221   2.137   0.032 -0.4072 -0.3712 -0.7628
10132TIP3    H151887   5.213   2.223   0.074  0.4060 -0.7502  0.1866
10132TIP3    H251888   5.297   2.146  -0.026 -0.6689 -0.2852 -1.0974
10133TIP3   OH251889   1.737   4.147  16.493 -0.5496 -0.0641  0.3023
10133TIP3    H151890   1.709   4.059  16.468 -1.2745  0.2920 -0.1736
10133TIP3    H251891   1.832   4.146  16.482 -0.4206 -1.1080  1.3311
10134TIP3   OH251892   3.087   4.914  12.497 -0.1255  0.2086 -0.1794
10134TIP3    H151893   3.076   4.956  12.583 -1.5203 -0.8719  0.2230
10134TIP3    H251894   3.027   4.961  12.440  1.1474  1.2345 -0.7139
10135TIP3   OH251895   3.922   0.149  11.418  0.3441  0.0306  0.0028
10135TIP3    H151896   3.977   0.199  11.479  1.0567 -2.0165  1.1395
10135TIP3    H251897   3.982   0.121  11.349  0.4342 -1.0235  0.4993
10136TIP3   OH251898   1.033   1.787   6.485 -0.9431 -0.1822  0.2428
10136TIP3    H151899   1.089   1.858   6.453 -0.7579 -0.6742 -0.5472
10136TIP3    H251900   1.006   1.816   6.572 -0.5508  0.6764  0.0931
10137TIP3   OH251901   5.867   6.640   0.327  0.2053 -0.1787  0.2298
10137TIP3    H151902   5.808   6.688   0.270  0.8201  1.5840  0.9902
10137TIP3    H251903   5.847   6.672   0.415  0.9408 -1.0043  0.7241
10138TIP3   OH251904   4.960   3.095   2.112 -0.1123 -0.3497 -0.4329
10138TIP3    H151905   4.919   3.051   2.187 -0.0320  0.3522  0.0263
10138TIP3    H251906   5.001   3.024   2.063  1.6649 -0.6156  1.3046
10139TIP3   OH251907   0.993   4.598   0.446 -0.2780  0.4068 -0.0001
10139TIP3    H151908   0.953   4.520   0.408  1.5299 -1.4845  1.7009
10139TIP3    H251909   0.926   4.635   0.503  0.0371 -2.3196  2.3178
10140TIP3   OH251910   6.463   4.875   5.076 -0.9405 -0.0981 -0.1320
10140TIP3    H151911   6.554   4.846   5.086 -0.6081  1.5939  2.9950
10140TIP3    H251912   6.415   4.796   5.053  1.0680 -1.3626 -0.2458
10141TIP3   OH251913   4.151   3.685   1.717 -0.8871  0.5587 -0.6809
10141TIP3    H151914   4.124   3.777   1.719  0.2314  1.0293 -3.1247
10141TIP3    H251915   4.125   3.650   1.802 -3.1317  2.6146 -0.4198
10142TIP3   OH251916   1.822   5.547   1.352 -0.2640 -0.0746  0.2594
10142TIP3    H151917   1.898   5.587   1.309 -1.6802  0.5904 -1.8123
10142TIP3    H251918   1.747   5.593   1.314 -1.7953 -1.9471  0.8525
10143TIP3   OH251919   4.717   2.705   4.744 -0.4429  0.2766  0.4780
10143TIP3    H151920   4.690   2.656   4.822 -0.0786 -1.6263 -0.5383
10143TIP3    H251921   4.661   2.782   4.744  0.1001  0.7726  3.0605
10144TIP3   OH251922   2.092   5.090   2.522 -0.6369 -0.1366 -0.0347
10144TIP3    H151923   2.122   5.106   2.433  1.4008  0.4700  0.7157
10144TIP3    H251924   2.002   5.123   2.523 -0.0898  1.5620 -1.3863
10145TIP3   OH251925   2.578   0.874  16.758  0.1787  0.4837 -0.3671
10145TIP3    H151926   2.669   0.849  16.746 -0.0213 -1.1163  1.0947
10145TIP3    H251927   2.582   0.961  16.797  1.1647 -0.2398  1.2310
10146TIP3   OH251928   6.324   1.478   0.600  0.2640  0.3903 -0.3118
10146TIP3    H151929   6.338   1.439   0.686  0.8999  0.7171 -0.2625
10146TIP3    H251930   6.294   1.567   0.619  1.3606  0.7989 -0.4134
10147TIP3   OH251931   0.550   4.419   0.668  0.1014  0.2462 -0.5737
10147TIP3    H151932   0.586   4.492   0.718  1.7229 -1.3469  0.7373
10147TIP3    H251933   0.461   4.446   0.647  0.3336  2.1870  0.6791
10148TIP3   OH251934   1.548   3.188  10.898  0.4628  0.6940 -0.0823
10148TIP3    H151935   1.456   3.164  10.890  0.5906  0.4129 -0.8252
10148TIP3    H251936   1.551   3.280  10.871  0.4530  0.5905 -0.4430
10149TIP3   OH251937   4.399   3.939  15.197 -0.2333 -1.0246 -0.0288
10149TIP3    H151938   4.430   3.860  15.151  0.8271 -0.1912 -0.7887
10149TIP3    H251939   4.469   4.003  15.184 -0.7240 -0.1991  1.2632
10150TIP3   OH251940   2.250   2.545   1.620 -0.0014  0.0827  0.1631
10150TIP3    H151941   2.310   2.511   1.553 -0.6171 -0.5695 -0.0609
10150TIP3    H251942   2.164   2.539   1.580 -0.1791  1.5794  0.2579
10151TIP3   OH251943   6.613   3.335  11.420  0.3334  0.2633 -0.5757
10151TIP3    H151944   6.653   3.418  11.396  0.0173  0.2031 -1.3353
10151TIP3    H251945   6.677   3.269  11.395  1.3415  0.3263  1.5956
10152TIP3   OH251946   1.259   0.619  13.248 -0.2817  0.2486 -0.2168
10152TIP3    H151947   1.176   0.630  13.295  0.4952  2.2831  0.8289
10152TIP3    H251948   1.303   0.548  13.293 -0.8259  0.1649  0.1918
10153TIP3   OH251949   6.405   0.443   1.797 -0.9252  0.3887 -0.2985
10153TIP3    H151950   6.375   0.353   1.782  1.3703 -0.7889  1.4297
10153TIP3    H251951   6.324   0.493   1.812 -2.4125 -0.8609 -3.3386
10154TIP3   OH251952   6.303   2.451   0.599  0.4345 -0.2191  0.1067
10154TIP3    H151953   6.358   2.419   0.671 -0.1984 -0.8134  0.3483
10154TIP3    H251954   6.228   2.491   0.643  0.3751  0.0216 -0.2175
10155TIP3   OH251955   0.633   3.411   6.283 -0.2103  0.4566 -0.3566
10155TIP3    H151956   0.700   3.465   6.240 -0.9206 -0.1563 -2.3514
10155TIP3    H251957   0.660   3.321   6.264  1.1831 -0.0717  3.2617
10156TIP3   OH251958   4.795   2.054  13.612  0.2344 -0.0372  0.5085
10156TIP3    H151959   4.873   2.108  13.624  0.4085 -0.2293  0.2447
10156TIP3    H251960   4.759   2.082  13.528  0.7964 -0.9155 -0.0369
10157TIP3   OH251961   6.160   1.715  11.806  0.5142 -0.5813  0.1861
10157TIP3    H151962   6.206   1.751  11.730  0.1151 -2.5068 -1.0256
10157TIP3    H251963   6.229   1.694  11.868  0.8839  0.5487  0.1847
10158TIP3   OH251964   4.815   5.417   4.999  0.1355 -0.1979 -0.4495
10158TIP3    H151965   4.826   5.326   5.027  0.4717  0.5254  2.0438
10158TIP3    H251966   4.726   5.421   4.964 -0.1333 -1.3281  0.0587
10159TIP3   OH251967   1.611   2.027  14.371 -0.3740  0.3939  0.2903
10159TIP3    H151968   1.614   2.074  14.455 -0.5861 -0.1746  0.6222
10159TIP3    H251969   1.519   2.026  14.347 -0.2548  1.0014 -0.2141
10160TIP3   OH251970   2.370   5.023  15.581  0.2923 -0.4098  0.4482
10160TIP3    H151971   2.366   4.929  15.563 -1.3158 -0.2318 -0.2308
10160TIP3    H251972   2.340   5.032  15.671  0.6825 -0.5688  0.5935
10161TIP3   OH251973   1.813   5.936  16.520 -0.2864 -0.1355 -0.2891
10161TIP3    H151974   1.740   5.970  16.571  0.7773  1.1007  0.4618
10161TIP3    H251975   1.861   5.880  16.582 -0.6225 -1.0170 -0.8034
10162TIP3   OH251976   0.021   0.244   3.116  0.0821 -0.6490  0.1624
10162TIP3    H151977  -0.018   0.285   3.038 -0.8841 -1.3778  0.2372
10162TIP3    H251978   0.012   0.309   3.185 -2.9892 -1.4726  0.7190
10163TIP3   OH251979   6.668   3.607  16.004  0.2468 -0.4754 -0.7661
10163TIP3    H151980   6.641   3.661  15.930  0.8024 -0.3474 -0.8802
10163TIP3    H251981   6.602   3.624  16.072  1.9956  2.7555  0.3593
10164TIP3   OH251982   3.154   4.946  12.094  0.4687  0.2584 -0.2250
10164TIP3    H151983   3.111   4.865  12.121  0.2217  1.2535  2.6535
10164TIP3    H251984   3.088   4.991  12.041  0.2425 -0.9255 -0.9861
10165TIP3   OH251985   0.347   4.321  15.191  0.0632 -0.6322 -0.1011
10165TIP3    H151986   0.385   4.392  15.140 -1.5036 -1.0008 -1.8937
10165TIP3    H251987   0.327   4.253  15.127 -1.0285 -1.5622  1.1663
10166TIP3   OH251988   6.541   1.857   5.765  0.4762  0.1073 -0.2719
10166TIP3    H151989   6.613   1.868   5.827  0.5743 -1.0494 -0.1618
10166TIP3    H251990   6.530   1.943   5.726  2.2733  0.1869 -0.6813
10167TIP3   OH251991   3.586   4.155   6.098 -0.2687 -0.1474  0.3916
10167TIP3    H151992   3.572   4.126   6.189 -0.1516 -1.1223  0.1078
10167TIP3    H251993   3.615   4.246   6.107 -1.1836  0.0776  1.2835
10168TIP3   OH251994   0.941   0.030   5.241 -0.4363 -0.1119 -0.1553
10168TIP3    H151995   0.855   0.021   5.201  0.3575 -0.9312 -1.7729
10168TIP3    H251996   0.961  -0.056   5.276 -0.8477  0.4385  1.5271
10169TIP3   OH251997   0.742   2.570  15.837  0.0277  0.4925  0.0181
10169TIP3    H151998   0.720   2.505  15.769 -0.0576  1.0548 -0.5020
10169TIP3    H251999   0.658   2.590  15.878  0.1227 -0.0704  0.4995
10170TIP3   OH252000   2.676   1.419  13.658 -0.2728 -0.4290 -0.2452
10170TIP3    H152001   2.706   1.504  13.625  4.2790 -0.7487  2.3863
10170TIP3    H252002   2.718   1.355  13.601 -0.4150 -0.9347  0.2138
10171TIP3   OH252003   3.526   5.779   0.824 -0.0209 -0.0859  0.1540
10171TIP3    H152004   3.557   5.859   0.867 -1.5701  1.2123 -1.0110
10171TIP3    H252005   3.433   5.774   0.848 -0.3001 -0.6918 -1.0040
10172TIP3   OH252006   2.407   0.598   5.012 -0.2002 -0.0418 -0.2523
10172TIP3    H152007   2.368   0.659   5.075 -1.9574 -0.6502 -0.6939
10172TIP3    H252008   2.351   0.521   5.015  1.3698 -1.2362 -0.4788
10173TIP3   OH252009   4.125   4.751   3.725 -0.0042  0.2626 -0.4202
10173TIP3    H152010   4.112   4.731   3.818  1.3527 -0.3078 -0.3227
10173TIP3    H252011   4.129   4.847   3.722 -0.7278  0.3086  0.0076
10174TIP3   OH252012   0.417   1.387  14.622  0.7072 -0.4258 -0.2715
10174TIP3    H152013   0.480   1.447  14.583 -0.6596  1.7575  0.6937
10174TIP3    H252014   0.423   1.404  14.716 -1.4654  0.0475 -0.1646
10175TIP3   OH252015   0.619   3.845  13.138 -0.3387 -0.1593 -0.1023
10175TIP3    H152016   0.552   3.893  13.089 -0.8233 -0.2001  0.5120
10175TIP3    H252017   0.702   3.875  13.100 -0.5996  1.5181  0.5612
10176TIP3   OH252018   1.224   3.958  15.622  0.1920 -0.3902 -0.4004
10176TIP3    H152019   1.313   3.927  15.642  1.0458  1.8027 -0.5274
10176TIP3    H252020   1.200   4.011  15.697 -0.1272  0.7784 -1.3088
10177TIP3   OH252021   0.210   2.066   1.225  0.1978  0.2223 -0.4833
10177TIP3    H152022   0.209   2.024   1.139  1.6767 -1.5339  0.2861
10177TIP3    H252023   0.128   2.039   1.266  0.3355 -0.5019 -0.6642
10178TIP3   OH252024   3.914   5.683  13.170  0.1152  0.2546  0.3281
10178TIP3    H152025   3.863   5.754  13.132  0.1765 -0.3944 -1.0433
10178TIP3    H252026   4.005   5.712  13.160  0.1184  0.2063  0.2044
10179TIP3   OH252027   4.018   5.351  12.262  0.6375  0.2494 -0.2452
10179TIP3    H152028   4.039   5.370  12.353  1.5275 -0.3999 -0.2949
10179TIP3    H252029   4.059   5.422  12.213 -2.0988  2.1037 -0.0132
10180TIP3   OH252030   1.068   0.920   2.170  0.2493 -0.4501 -0.2308
10180TIP3    H152031   1.019   0.844   2.136 -0.4492  0.5886 -1.6567
10180TIP3    H252032   1.026   0.939   2.254  1.4571 -2.5582  0.9471
10181TIP3   OH252033   1.245   5.137  15.384  0.4820  0.2955 -0.1875
10181TIP3    H152034   1.301   5.177  15.450  1.9487 -0.3758 -0.9734
10181TIP3    H252035   1.272   5.045  15.381 -2.0561 -0.5846  0.8042
10182TIP3   OH252036   0.613   1.011  12.421 -0.1188  0.5148 -0.1643
10182TIP3    H152037   0.530   1.056  12.409 -0.8964 -1.2914 -2.3324
10182TIP3    H252038   0.660   1.025  12.339  1.5481  1.0913  0.8395
10183TIP3   OH252039   4.398   5.677   3.182  0.1731 -0.2533 -0.2586
10183TIP3    H152040   4.485   5.692   3.218 -0.3692  0.9938  0.6386
10183TIP3    H252041   4.385   5.750   3.121 -0.5605  0.0916  0.2886
10184TIP3   OH252042   0.021   6.764   5.645 -0.3624 -0.3793  0.5214
10184TIP3    H152043   0.025   6.668   5.653  0.5423 -0.3638  0.4427
10184TIP3    H252044   0.102   6.794   5.686  0.0314  0.2637 -0.6729
10185TIP3   OH252045   3.478   4.421  13.750 -0.1276 -0.0375  0.4144
10185TIP3    H152046   3.445   4.472  13.676  1.3013 -1.4798 -1.3021
10185TIP3    H252047   3.427   4.340  13.748  0.8993 -0.7057  0.0347
10186TIP3   OH252048   4.556   5.856   3.744  0.0834 -0.1697 -0.6131
10186TIP3    H152049   4.634   5.861   3.800  0.0836  2.6629 -0.7255
10186TIP3    H252050   4.491   5.812   3.799  1.2659 -1.1634  0.0649
10187TIP3   OH252051   0.244   3.634   1.674 -0.7373  0.1564 -0.2861
10187TIP3    H152052   0.209   3.606   1.589 -0.7458 -0.3383 -0.1186
10187TIP3    H252053   0.330   3.672   1.653 -0.6105 -0.2340 -0.4807
10188TIP3   OH252054   6.203   5.905  13.259  0.9513  0.2972  0.3974
10188TIP3    H152055   6.151   5.908  13.178 -0.0863 -1.9997  0.8796
10188TIP3    H252056   6.276   5.965  13.243  0.3551  0.5129 -1.9432
10189TIP3   OH252057   2.441   5.252  16.451  0.3776 -0.0851  0.3312
10189TIP3    H152058   2.462   5.222  16.363  0.4420 -0.9303  0.6210
10189TIP3    H252059   2.410   5.173  16.496  0.0392  0.4015  0.9660
10190TIP3   OH252060   6.316   6.441  10.865 -0.2994 -0.1844  0.0631
10190TIP3    H152061   6.327   6.496  10.787  0.5817 -1.8191 -1.0256
10190TIP3    H252062   6.221   6.437  10.878 -0.4267  0.6268 -0.5453
10191TIP3   OH252063   1.846   5.642   1.971 -0.0494 -0.6706  0.0462
10191TIP3    H152064   1.880   5.612   1.887  1.3263 -0.3699  0.4801
10191TIP3    H252065   1.752   5.654   1.955  0.3850  0.7155 -1.8559
10192TIP3   OH252066   5.696   4.676  14.634  0.1350  0.5467  0.5130
10192TIP3    H152067   5.638   4.676  14.710  1.7461  1.5971  1.8169
10192TIP3    H252068   5.660   4.610  14.575 -0.4875 -1.1609  2.7089
10193TIP3   OH252069   4.029   6.562  15.356 -0.0221  0.0693  0.1753
10193TIP3    H152070   4.068   6.646  15.381 -0.7782 -0.1268  2.2419
10193TIP3    H252071   3.942   6.585  15.323  0.1343  0.1495 -0.1944
10194TIP3   OH252072   5.008   4.591  12.427 -0.2860  0.7264 -0.1942
10194TIP3    H152073   5.068   4.545  12.486  1.4262  1.9189 -0.9197
10194TIP3    H252074   4.967   4.658  12.482 -1.5471 -0.5418  0.4722
10195TIP3   OH252075   5.951   1.640   4.918  0.3014 -0.0107  0.1938
10195TIP3    H152076   6.033   1.597   4.894  0.0085 -1.2169  1.2547
10195TIP3    H252077   5.959   1.657   5.012 -0.5056  0.2123  0.2287
10196TIP3   OH252078   6.336   1.092   5.313  0.3322  0.0134 -0.4382
10196TIP3    H152079   6.269   1.159   5.303 -1.0429 -1.4482 -1.4101
10196TIP3    H252080   6.418   1.142   5.321 -0.6949  1.8069 -0.4893
10197TIP3   OH252081   2.311   0.953  12.420 -0.4279  0.2801  0.6237
10197TIP3    H152082   2.340   1.021  12.360  2.0368 -0.2208  1.1273
10197TIP3    H252083   2.308   0.873  12.368  0.9661 -0.0089  0.9463
10198TIP3   OH252084   5.916   1.090   3.033  0.2119  0.4609  0.4189
10198TIP3    H152085   6.006   1.091   3.067  0.2518 -1.5909  0.4496
10198TIP3    H252086   5.901   1.181   3.006  2.0396  1.0089  1.0495
10199TIP3   OH252087   6.506   4.916   2.622 -0.2264  0.3667 -0.2369
10199TIP3    H152088   6.563   4.863   2.568 -1.3913 -0.2735 -0.8837
10199TIP3    H252089   6.565   4.972   2.673  0.9527 -0.3752 -0.7598
10200TIP3   OH252090   5.722   3.449  16.369 -0.1970 -0.3987  0.6114
10200TIP3    H152091   5.785   3.493  16.426 -0.0675  0.8025 -0.4267
10200TIP3    H252092   5.727   3.357  16.396  0.9775 -0.1100  1.4898
10201TIP3   OH252093   2.990   4.135   1.701  0.2610 -0.0727  0.1606
10201TIP3    H152094   3.031   4.071   1.642 -2.6849 -1.2212 -0.8103
10201TIP3    H252095   2.978   4.213   1.646 -2.3221 -1.0836 -0.8491
10202TIP3   OH252096   0.569   3.422   0.101 -0.7403  0.4876 -0.2701
10202TIP3    H152097   0.473   3.424   0.112 -0.5461  0.3713  2.1145
10202TIP3    H252098   0.602   3.461   0.183  1.2565  2.1194 -1.7571
10203TIP3   OH252099   0.822   1.401  14.547 -0.2562  0.0538  0.0499
10203TIP3    H152100   0.840   1.446  14.464  0.0558 -2.5979 -1.4363
10203TIP3    H252101   0.746   1.447  14.583 -0.5572  1.1348 -1.8257
10204TIP3   OH252102   5.914   5.058   0.210 -0.5307 -0.3136 -0.0399
10204TIP3    H152103   5.822   5.081   0.194 -0.3531 -0.5512 -1.6228
10204TIP3    H252104   5.920   4.967   0.180  0.0823 -0.5223  0.6947
10205TIP3   OH252105   1.511   0.851   4.646 -0.3623  0.1917 -0.0644
10205TIP3    H152106   1.589   0.799   4.665  0.0433 -1.2290 -4.4247
10205TIP3    H252107   1.438   0.799   4.679  0.3116 -1.1425 -0.5827
10206TIP3   OH252108   3.979   5.874  16.280 -0.0752  0.2264  0.5644
10206TIP3    H152109   3.927   5.921  16.345 -3.6248  0.3502 -2.0484
10206TIP3    H252110   3.984   5.784  16.312 -3.1923 -0.1076  0.4064
10207TIP3   OH252111   3.104   4.032  11.831  0.6861 -0.2366  0.3295
10207TIP3    H152112   3.020   4.078  11.824  1.7050  1.9055  1.2441
10207TIP3    H252113   3.093   3.954  11.777 -1.7971  0.1106  0.2141
10208TIP3   OH252114   6.454   4.488   4.318  0.0457 -0.6801  0.1092
10208TIP3    H152115   6.362   4.503   4.293  0.2139 -0.6045 -0.4741
10208TIP3    H252116   6.505   4.535   4.252  0.5462 -2.2012 -0.6242
10209TIP3   OH252117   4.927   4.382  12.252 -0.2214 -0.0530  0.8130
10209TIP3    H152118   4.839   4.417  12.246 -0.2643 -0.3890 -1.6446
10209TIP3    H252119   4.978   4.449  12.297 -0.9754  1.7804 -0.9582
10210TIP3   OH252120   2.539   5.918  12.767  0.2334  0.1436 -0.2319
10210TIP3    H152121   2.502   5.926  12.856 -0.0953 -0.3723 -0.3198
10210TIP3    H252122   2.594   5.996  12.758  0.5327  0.0351  0.5470
10211TIP3   OH252123   3.364   6.294   3.233  0.4379  0.6601 -0.2422
10211TIP3    H152124   3.445   6.334   3.203  2.5107 -4.1014 -2.0506
10211TIP3    H252125   3.381   6.270   3.324 -0.6186  3.1249  0.6809
10212TIP3   OH252126   3.049   0.256  16.347  0.1806 -0.4564  0.2039
10212TIP3    H152127   3.142   0.252  16.325 -0.2881 -1.6854 -1.8198
10212TIP3    H252128   3.017   0.333  16.298  0.1066 -0.0550  0.8699
10213TIP3   OH252129   4.388   4.783  10.858 -0.0922  0.2135  0.8960
10213TIP3    H152130   4.385   4.721  10.931  1.1286 -1.1970 -0.1717
10213TIP3    H252131   4.470   4.762  10.812 -0.3180  1.7332 -0.2997
10214TIP3   OH252132   5.733   2.195  14.915  0.0430 -0.2611 -0.0112
10214TIP3    H152133   5.767   2.169  15.001 -0.8930 -1.9216 -0.0954
10214TIP3    H252134   5.749   2.119  14.860 -0.8143  0.1899 -0.9031
10215TIP3   OH252135   2.086   4.428   2.313 -0.7347  0.2971  0.2752
10215TIP3    H152136   2.133   4.346   2.327 -0.5181  0.4324  0.3437
10215TIP3    H252137   2.143   4.495   2.351  0.2840  0.7886 -1.9819
10216TIP3   OH252138   4.245   3.300  15.889  0.7146  0.5622 -0.2469
10216TIP3    H152139   4.151   3.312  15.904  0.5738 -1.5189  0.9205
10216TIP3    H252140   4.250   3.247  15.810  0.9661  1.2566 -0.7088
10217TIP3   OH252141   1.153   5.330   0.010 -0.3468 -0.9336  0.0457
10217TIP3    H152142   1.196   5.395  -0.045 -0.9750 -1.2789 -0.8786
10217TIP3    H252143   1.224   5.292   0.062  0.2253 -0.4488 -0.3708
10218TIP3   OH252144   5.926   6.012   5.341 -0.2266 -0.5335 -0.3145
10218TIP3    H152145   5.967   5.963   5.269  0.1873  0.2954 -0.6490
10218TIP3    H252146   5.835   5.982   5.341 -0.2831 -0.3949 -1.3140
10219TIP3   OH252147   4.201   3.224  12.175 -0.4998  0.5109  0.6931
10219TIP3    H152148   4.286   3.188  12.204 -0.6544 -2.3515 -1.8778
10219TIP3    H252149   4.201   3.211  12.080 -3.8160  0.3433  0.6134
10220TIP3   OH252150   2.078   2.818   1.323  0.6862  0.0455 -0.1272
10220TIP3    H152151   2.166   2.787   1.298  0.4772 -0.3429 -0.4029
10220TIP3    H252152   2.021   2.744   1.303  0.7026 -0.9623  3.0503
10221TIP3   OH252153   1.805   2.096   5.169  0.2473  0.6875 -0.2018
10221TIP3    H152154   1.762   2.011   5.178 -0.1750  0.7046 -1.8406
10221TIP3    H252155   1.834   2.117   5.258 -2.1979  0.1896  0.7873
10222TIP3   OH252156   2.244   2.540   5.569  0.0751  0.1854 -0.4311
10222TIP3    H152157   2.326   2.491   5.566  0.1010  0.1193  0.7803
10222TIP3    H252158   2.176   2.474   5.556  0.2024  0.2137 -1.2634
10223TIP3   OH252159   4.621   5.391  16.454  0.0159 -0.0454  0.1576
10223TIP3    H152160   4.604   5.323  16.389  0.5679  0.5082 -0.5696
10223TIP3    H252161   4.715   5.409  16.446 -0.6235  3.1532 -1.9983
10224TIP3   OH252162   3.361   5.049  14.584 -0.5972  0.7277  0.0237
10224TIP3    H152163   3.301   5.113  14.546  1.5620  2.2812 -0.9867
10224TIP3    H252164   3.445   5.069  14.544  0.4892 -1.7766  0.8933
10225TIP3   OH252165   0.772   3.618  14.992 -0.0304  0.1771  0.1712
10225TIP3    H152166   0.826   3.682  15.037  0.2673 -0.6185  0.9733
10225TIP3    H252167   0.832   3.547  14.970 -0.4894 -0.1300 -0.1073
10226TIP3   OH252168   1.287   1.108   1.044 -0.7034  0.2704  0.0623
10226TIP3    H152169   1.356   1.067   1.097 -0.3050 -0.2341 -0.8191
10226TIP3    H252170   1.291   1.201   1.068  1.0898  0.4650 -0.8066
10227TIP3   OH252171   5.623   5.198  10.833 -0.0261 -0.3678 -0.0127
10227TIP3    H152172   5.544   5.195  10.888  1.9589 -2.4368  3.0517
10227TIP3    H252173   5.638   5.108  10.807  1.4842 -0.0741 -0.2487
10228TIP3   OH252174   5.746   1.154   3.469 -0.2501  0.8027 -0.3268
10228TIP3    H152175   5.748   1.064   3.435 -0.3994  0.3718  0.7818
10228TIP3    H252176   5.654   1.180   3.463 -0.8089 -0.2980  2.2900
10229TIP3   OH252177   6.614   1.111  10.599  0.4483  0.2320 -0.0723
10229TIP3    H152178   6.568   1.131  10.518  0.7885 -1.6986 -0.7916
10229TIP3    H252179   6.565   1.038  10.637  0.6452  0.7223  1.1692
10230TIP3   OH252180   5.623   3.513   2.015 -0.1780 -0.0417  0.4397
10230TIP3    H152181   5.715   3.492   1.999 -0.1757 -0.8852  1.4625
10230TIP3    H252182   5.625   3.601   2.053  0.1046  0.4043 -0.5754
10231TIP3   OH252183   4.324   6.413  16.801  0.2257  0.1548 -0.9600
10231TIP3    H152184   4.295   6.427  16.710 -0.1211  0.2584 -0.8352
10231TIP3    H252185   4.401   6.469  16.810 -0.1255  0.6565 -0.9931
10232TIP3   OH252186   3.643   1.755   2.798 -0.0638 -0.1179  0.3249
10232TIP3    H152187   3.724   1.760   2.747  0.5000  0.1195  1.2205
10232TIP3    H252188   3.589   1.690   2.752  0.4817 -0.0157 -0.4785
10233TIP3   OH252189   3.816   5.364  13.838 -0.3074 -0.0727  0.0230
10233TIP3    H152190   3.847   5.295  13.780  0.5817  0.1141  0.2538
10233TIP3    H252191   3.787   5.434  13.779 -1.0346 -0.5504 -0.2072
10234TIP3   OH252192   5.570   2.422   1.286  0.3443  0.4347 -0.3792
10234TIP3    H152193   5.614   2.409   1.203 -0.1153 -2.3213 -0.2992
10234TIP3    H252194   5.503   2.488   1.268  1.0719  0.8087 -1.8410
10235TIP3   OH252195   0.339   4.035   3.943  0.6902 -0.7506  0.3139
10235TIP3    H152196   0.391   4.038   3.863 -0.3658 -0.7885 -0.3885
10235TIP3    H252197   0.378   4.101   4.000  1.9723 -1.2952  0.1066
10236TIP3   OH252198   6.728   1.366   1.323  0.2538 -0.4970  0.2226
10236TIP3    H152199   6.720   1.275   1.293 -1.5315 -0.3617  0.1669
10236TIP3    H252200   6.708   1.362   1.416 -0.1333 -0.1249  0.1571
10237TIP3   OH252201   1.884   3.794   4.268  0.1528  0.4879  0.6145
10237TIP3    H152202   1.907   3.797   4.175  1.7907 -0.1361  0.9652
10237TIP3    H252203   1.788   3.796   4.269  0.1122  1.0910 -1.0516
10238TIP3   OH252204   1.810   4.590  12.013  0.1027 -0.2348  0.1709
10238TIP3    H152205   1.836   4.514  11.960 -0.3064  1.1666 -2.2215
10238TIP3    H252206   1.746   4.556  12.075  0.1996 -1.9177 -0.5861
10239TIP3   OH252207   4.974   4.564   2.177  0.1748 -0.5442  0.1009
10239TIP3    H152208   4.947   4.532   2.091 -0.2291  0.9672 -0.3745
10239TIP3    H252209   5.039   4.632   2.158  1.4868 -1.4800  1.0866
10240TIP3   OH252210   2.984   3.063   1.758  0.5493  0.3679  0.6135
10240TIP3    H152211   3.001   3.156   1.767  0.7033  0.5004 -0.7396
10240TIP3    H252212   3.036   3.022   1.826  0.1343  1.2919  1.5037
10241TIP3   OH252213   2.853   6.109   3.930 -0.6892 -0.2458 -0.3604
10241TIP3    H152214   2.883   6.019   3.941 -0.6807 -0.2305 -0.2633
10241TIP3    H252215   2.932   6.162   3.937 -0.7850 -0.1759  0.2624
10242TIP3   OH252216   2.041   6.678  15.443  0.3745  0.2286 -0.3902
10242TIP3    H152217   2.067   6.606  15.500  1.1642  0.7122 -0.1181
10242TIP3    H252218   1.980   6.730  15.497  1.0418  0.6305 -0.0129
10243TIP3   OH252219   0.263   1.670  11.482 -0.4533 -0.8247  0.4386
10243TIP3    H152220   0.338   1.718  11.517  0.5536 -2.4442  0.5904
10243TIP3    H252221   0.268   1.685  11.387 -0.1324 -0.6607  0.4800
10244TIP3   OH252222   6.222   0.905   1.460 -0.4648  0.5675 -0.0805
10244TIP3    H152223   6.198   0.885   1.369  0.0688  0.9454 -0.3081
10244TIP3    H252224   6.215   0.821   1.505  0.4708  0.1039 -0.7442
10245TIP3   OH252225   3.101   2.527  11.167  0.1846 -0.6914  0.0454
10245TIP3    H152226   3.111   2.596  11.232 -1.2451  0.5655 -1.0062
10245TIP3    H252227   3.191   2.499  11.147  0.8798  1.5810 -0.2542
10246TIP3   OH252228   3.530   4.468   0.512 -0.2245  0.0597 -0.3653
10246TIP3    H152229   3.553   4.416   0.435  0.0423  1.1311 -1.0432
10246TIP3    H252230   3.435   4.466   0.515 -0.2318 -0.0702 -0.6734
10247TIP3   OH252231   3.959   2.298  12.729 -0.4807 -0.5829  0.6949
10247TIP3    H152232   3.939   2.387  12.699  0.8953  0.5423  2.8598
10247TIP3    H252233   3.931   2.297  12.821  1.0238 -1.8157  1.1835
10248TIP3   OH252234   0.411   3.509  12.593 -0.1792  0.2276  0.6258
10248TIP3    H152235   0.368   3.547  12.670  0.1412  2.0753 -0.0735
10248TIP3    H252236   0.493   3.557  12.586  0.1825 -0.5141 -0.4076
10249TIP3   OH252237   4.614   6.505   4.996  0.0229  0.5731  0.0631
10249TIP3    H152238   4.534   6.555   4.981 -0.6489 -0.8467 -1.3607
10249TIP3    H252239   4.636   6.469   4.910  1.0631 -0.6966  0.8289
10250TIP3   OH252240   3.356   5.789  12.184 -0.2824 -0.1412  0.3724
10250TIP3    H152241   3.263   5.800  12.164  0.1200  1.2227 -0.9499
10250TIP3    H252242   3.358   5.725  12.255 -2.1815 -0.7681 -0.0833
10251TIP3   OH252243   1.354   0.860  13.989  0.4940 -0.1978 -0.2697
10251TIP3    H152244   1.319   0.914  14.060  1.8354 -2.5236  2.3336
10251TIP3    H252245   1.447   0.881  13.986  0.5352 -0.4333 -1.1192
10252TIP3   OH252246   4.717   2.161   5.362  0.5807  0.0896 -0.7754
10252TIP3    H152247   4.695   2.219   5.434  0.6370  0.0171 -0.6992
10252TIP3    H252248   4.783   2.102   5.398  1.3570  0.6917 -1.1635
10253TIP3   OH252249   5.682   3.973  12.744 -0.1941 -0.1598  0.2376
10253TIP3    H152250   5.712   3.910  12.679 -0.1362 -0.0147  0.1265
10253TIP3    H252251   5.707   3.933  12.828 -2.3703 -1.5175  0.3230
10254TIP3   OH252252   6.138   5.465  12.824  0.0255 -0.1248  0.3160
10254TIP3    H152253   6.104   5.467  12.913 -0.0513  2.1408  0.3038
10254TIP3    H252254   6.064   5.494  12.770  0.5768  0.2218 -0.2598
10255TIP3   OH252255   0.509   5.069   1.600 -0.3019 -0.3011  0.7302
10255TIP3    H152256   0.543   5.133   1.663  0.3409 -0.6591  0.7523
10255TIP3    H252257   0.585   5.014   1.578 -0.6976 -0.6467  0.2160
10256TIP3   OH252258   4.001   4.649   3.496  0.7309  0.5944  0.6425
10256TIP3    H152259   4.032   4.560   3.509  3.2275  1.0497 -1.3799
10256TIP3    H252260   4.027   4.695   3.575 -0.1785 -0.3329  1.5101
10257TIP3   OH252261   1.361   6.049   1.165 -0.0209 -0.1515 -0.2564
10257TIP3    H152262   1.456   6.059   1.158  0.2251 -2.3422 -0.6411
10257TIP3    H252263   1.328   6.067   1.077  0.3749 -2.1995 -0.8670
10258TIP3   OH252264   5.306   4.228   5.466 -0.1275  0.6504  0.0167
10258TIP3    H152265   5.242   4.284   5.421 -0.2428  0.3098 -0.2461
10258TIP3    H252266   5.297   4.143   5.424  1.1948  0.8443 -0.7145
10259TIP3   OH252267   0.145   1.087  12.004 -0.7800  0.1624  0.2121
10259TIP3    H152268   0.118   1.174  11.975  2.2153  0.7200 -1.3594
10259TIP3    H252269   0.165   1.097  12.097  0.2730  1.4134 -0.1161
10260TIP3   OH252270   1.445   4.537   2.791 -0.0043  0.2415  0.1294
10260TIP3    H152271   1.456   4.598   2.718  0.3119  2.1847  1.7101
10260TIP3    H252272   1.530   4.537   2.835 -1.2145  2.3361  2.7958
10261TIP3   OH252273   1.524   2.985   0.450  0.2634 -0.5150  0.0791
10261TIP3    H152274   1.559   3.057   0.502  0.4477 -0.5362 -0.0143
10261TIP3    H252275   1.495   3.026   0.368  0.8831 -0.6309 -0.2002
10262TIP3   OH252276   6.690   2.332  14.586  0.0823  0.0534 -0.4624
10262TIP3    H152277   6.665   2.290  14.504 -1.1183 -2.6223  1.1434
10262TIP3    H252278   6.631   2.407  14.594 -1.0086 -0.7075 -1.1939
10263TIP3   OH252279   4.303   3.053  17.332 -0.8309 -0.2570  1.0643
10263TIP3    H152280   4.387   3.082  17.365 -0.2954 -0.9831  0.3848
10263TIP3    H252281   4.238   3.104  17.381  0.0345  1.5469  0.4023
10264TIP3   OH252282   0.636   1.455  11.884 -0.6940 -0.1854 -0.3424
10264TIP3    H152283   0.729   1.474  11.873 -0.6917 -1.1696 -2.7326
10264TIP3    H252284   0.606   1.517  11.950  1.6960 -0.0442  0.7002
10265TIP3   OH252285   4.816   1.356   3.138  0.1901  0.3131 -0.4828
10265TIP3    H152286   4.897   1.360   3.086  0.4798 -0.3332 -0.0864
10265TIP3    H252287   4.816   1.268   3.176 -0.3060  0.5851  0.1568
10266TIP3   OH252288   4.324   0.945  13.341  0.6317 -0.1424 -0.1773
10266TIP3    H152289   4.287   0.921  13.425 -0.1558  0.7248 -0.2648
10266TIP3    H252290   4.412   0.977  13.362  0.9377 -1.1576  0.1532
10267TIP3   OH252291   0.472   1.818   1.892 -1.0143  0.5158  0.0152
10267TIP3    H152292   0.432   1.862   1.967  0.3945  1.4064  0.3045
10267TIP3    H252293   0.399   1.787   1.839 -2.0538  1.6812  0.7250
10268TIP3   OH252294   3.567   6.362  13.399  0.1745 -0.0743 -0.1552
10268TIP3    H152295   3.598   6.323  13.317  1.4755 -0.6161  0.5665
10268TIP3    H252296   3.638   6.419  13.427  0.0227 -0.4062  0.9434
10269TIP3   OH252297   0.307   2.817  15.707  0.3366 -0.2712 -0.1514
10269TIP3    H152298   0.362   2.893  15.724 -0.5786  0.2458  0.6298
10269TIP3    H252299   0.297   2.815  15.611  2.1425 -0.7222 -0.3628
10270TIP3   OH252300   6.310   0.741  11.881  0.7916 -0.8043 -0.3357
10270TIP3    H152301   6.260   0.700  11.952  1.3813 -2.2612 -0.7367
10270TIP3    H252302   6.257   0.725  11.803  0.2311  0.6454 -0.2925
10271TIP3   OH252303   3.924   3.787  16.428 -0.3041  0.3570 -0.0359
10271TIP3    H152304   3.989   3.724  16.396  0.1539  1.0425 -0.4676
10271TIP3    H252305   3.973   3.868  16.439 -0.9732  0.7364  0.1624
10272TIP3   OH252306   5.455   6.342   3.282 -0.1471  0.2111  0.0283
10272TIP3    H152307   5.411   6.422   3.308 -1.8909 -0.4439 -0.7983
10272TIP3    H252308   5.444   6.337   3.187  0.8960 -0.4650 -0.0825
10273TIP3   OH252309   5.850   1.429  12.079 -0.3134 -0.1155 -0.1859
10273TIP3    H152310   5.791   1.425  12.003 -2.8496  2.0582  1.4793
10273TIP3    H252311   5.865   1.337  12.102 -2.3936 -0.8008 -1.2403
10274TIP3   OH252312   1.256   3.120   0.351 -0.5114  0.0084  0.4719
10274TIP3    H152313   1.292   3.155   0.433 -0.0915 -0.1047  0.3416
10274TIP3    H252314   1.189   3.183   0.325  0.1012  0.6189  0.3439
10275TIP3   OH252315   3.815   5.316   1.386 -0.3691  0.1469 -0.0358
10275TIP3    H152316   3.803   5.267   1.304  2.7838 -0.5044 -0.2209
10275TIP3    H252317   3.876   5.386   1.364  0.2882  0.1573  1.6877
10276TIP3   OH252318   5.255   3.005  11.070  0.0536  0.6129 -0.0784
10276TIP3    H152319   5.287   3.045  10.989 -4.2039  0.8811 -1.9062
10276TIP3    H252320   5.271   3.071  11.137  2.1452  1.0961 -0.9739
10277TIP3   OH252321   0.204   2.361  14.559  0.3226  0.2501  0.5087
10277TIP3    H152322   0.194   2.364  14.464 -0.0836  1.5045  0.5726
10277TIP3    H252323   0.116   2.341  14.591  0.7353 -1.6419  0.5968
10278TIP3   OH252324   3.125   0.054   4.150 -0.1503 -0.5863  0.2111
10278TIP3    H152325   3.116   0.055   4.246 -0.1135  1.8739  0.2416
10278TIP3    H252326   3.210   0.094   4.134 -1.3570  1.7051 -0.8930
10279TIP3   OH252327   0.708   3.106   1.243  0.1701  0.3536  0.6443
10279TIP3    H152328   0.740   3.098   1.153  0.9971 -0.4854  0.9926
10279TIP3    H252329   0.690   3.016   1.270  0.8839  0.4925  1.6397
10280TIP3   OH252330   4.329   6.112   3.394  0.3436  0.4550 -0.1217
10280TIP3    H152331   4.271   6.045   3.429 -0.6046  0.6693 -1.2105
10280TIP3    H252332   4.274   6.190   3.387  1.5342  1.5054  1.5278
10281TIP3   OH252333   3.906   0.800  13.748  0.0341  0.1773  0.4548
10281TIP3    H152334   3.886   0.749  13.670 -2.3440 -0.6989  1.5431
10281TIP3    H252335   3.901   0.737  13.820 -0.3773  1.4521  1.5874
10282TIP3   OH252336   1.365   4.175  13.677  0.4551  0.1204 -0.0538
10282TIP3    H152337   1.291   4.234  13.693 -0.8214 -1.2884 -0.5370
10282TIP3    H252338   1.422   4.225  13.619 -0.4550  0.9953 -0.2385
10283TIP3   OH252339   6.330   1.457  17.283  0.0985  0.4309  0.0877
10283TIP3    H152340   6.385   1.453  17.205  1.1691 -1.3595  0.8525
10283TIP3    H252341   6.242   1.475  17.251  0.3499 -1.1532 -1.6481
10284TIP3   OH252342   4.934   5.681  11.756 -0.1817  0.2497  0.0165
10284TIP3    H152343   4.966   5.690  11.845  1.0345 -1.9581 -0.1316
10284TIP3    H252344   4.964   5.595  11.728 -2.0483  0.1402 -1.9289
10285TIP3   OH252345   4.705   3.270  17.501  0.5614 -0.4079  0.5612
10285TIP3    H152346   4.676   3.360  17.516  0.2669 -0.6930  1.9218
10285TIP3    H252347   4.785   3.278  17.450  0.8556  0.6685  1.1562
10286TIP3   OH252348   5.701   5.686   4.397  0.3205 -0.1042  0.2298
10286TIP3    H152349   5.788   5.652   4.375 -0.2963 -1.9386  0.4785
10286TIP3    H252350   5.644   5.651   4.329 -0.3518  0.5125  0.4663
10287TIP3   OH252351   0.391   0.481   4.522  0.3409  0.0590 -0.0682
10287TIP3    H152352   0.343   0.461   4.602  1.3813 -1.5662  0.1830
10287TIP3    H252353   0.322   0.500   4.457 -0.6117 -1.0616  0.5706
10288TIP3   OH252354   2.528   0.193  13.285 -0.2315  0.0181  0.3160
10288TIP3    H152355   2.452   0.190  13.226 -1.4960  0.3746  1.8470
10288TIP3    H252356   2.498   0.148  13.365  0.9112  0.8148  1.2338
10289TIP3   OH252357   3.213   4.399   2.417 -0.6263  0.6608  0.1721
10289TIP3    H152358   3.277   4.446   2.363 -0.3886  0.6135  0.4094
10289TIP3    H252359   3.128   4.430   2.386 -0.6211 -1.2730 -2.0399
10290TIP3   OH252360   3.995   6.702   1.332  0.3777  0.1248  0.2644
10290TIP3    H152361   4.007   6.764   1.404  0.6790  1.0160 -0.5506
10290TIP3    H252362   4.070   6.716   1.275 -0.4524  0.2438 -0.8205
10291TIP3   OH252363   2.862   1.482   3.188  0.0979  0.3556 -0.5737
10291TIP3    H152364   2.832   1.494   3.278 -0.7460  0.8910 -0.9098
10291TIP3    H252365   2.819   1.401   3.160 -0.3685  0.6727 -0.7832
10292TIP3   OH252366   0.442   3.111   4.044 -0.1271 -0.6266 -0.4313
10292TIP3    H152367   0.474   3.092   4.132 -1.3976  1.9021  0.6959
10292TIP3    H252368   0.495   3.056   3.987  0.9311 -2.1764  1.8581
10293TIP3   OH252369   6.395   1.950  11.964  0.0123  0.1906  0.2941
10293TIP3    H152370   6.406   2.043  11.985 -2.8120  0.3191  1.6329
10293TIP3    H252371   6.415   1.904  12.045  0.3215 -0.2978 -0.0504
10294TIP3   OH252372   2.462   3.976   0.291  0.4940  0.2178  0.1439
10294TIP3    H152373   2.454   4.067   0.262  0.7249  0.1534 -0.1245
10294TIP3    H252374   2.554   3.955   0.280  0.2788 -0.3508 -0.7164
10295TIP3   OH252375   0.925   4.254   0.751  0.0037 -0.1337  0.3175
10295TIP3    H152376   0.977   4.218   0.823 -0.0324  0.3464  0.5950
10295TIP3    H252377   0.961   4.342   0.738  2.5553 -1.4338 -2.7577
10296TIP3   OH252378   1.969   5.609  12.128 -0.3958  0.3826  0.1666
10296TIP3    H152379   1.880   5.573  12.133 -0.5389  0.8939  1.8712
10296TIP3    H252380   1.996   5.619  12.219  0.2575  3.0431 -0.2568
10297TIP3   OH252381   0.643   4.682  17.078  0.3276  0.0061  0.2340
10297TIP3    H152382   0.636   4.670  17.173 -0.3742  0.2990  0.2266
10297TIP3    H252383   0.583   4.753  17.058  0.3191 -0.1841 -0.4616
10298TIP3   OH252384   1.251   6.481   0.925  0.3178  0.3694  0.0542
10298TIP3    H152385   1.317   6.546   0.902  0.4112 -0.2169 -1.4152
10298TIP3    H252386   1.257   6.414   0.856 -0.6890 -0.5239  0.7879
10299TIP3   OH252387   1.351   6.150   2.026  0.3872 -0.0083 -0.0168
10299TIP3    H152388   1.283   6.134   1.961 -0.3261  1.6572  0.2531
10299TIP3    H252389   1.365   6.065   2.069 -1.7774 -0.3259  0.1452
10300TIP3   OH252390   2.502   4.545  15.377 -0.0824 -0.1707  0.6334
10300TIP3    H152391   2.592   4.577  15.391 -0.3947  1.1815 -0.2914
10300TIP3    H252392   2.447   4.615  15.412 -0.7928  0.0890 -0.9615
10301TIP3   OH252393   5.396   1.311   5.007 -0.1609  0.2277  0.2843
10301TIP3    H152394   5.352   1.309   5.092  1.7023  2.1318  1.3910
10301TIP3    H252395   5.475   1.258   5.020  0.7433  1.4912  0.1882
10302TIP3   OH252396   1.636   1.154   2.012 -0.2843 -0.2537 -0.4179
10302TIP3    H152397   1.706   1.090   2.027 -0.4422 -0.2819  0.2185
10302TIP3    H252398   1.620   1.150   1.918 -0.1042 -0.9518 -0.4265
10303TIP3   OH252399   5.316   2.207  13.129 -0.0103  0.3017 -0.3344
10303TIP3    H152400   5.260   2.140  13.168 -0.2399  0.1651 -0.8880
10303TIP3    H252401   5.405   2.179  13.149 -0.1045 -0.2005 -0.6168
10304TIP3   OH252402   5.785   2.938   4.828 -0.6462  0.5099  0.1764
10304TIP3    H152403   5.793   2.958   4.921  1.5034  1.3562 -0.1348
10304TIP3    H252404   5.848   2.867   4.813 -0.1668  1.1150 -0.8139
10305TIP3   OH252405   2.972   1.652  15.289  0.4822 -1.0742  0.6296
10305TIP3    H152406   2.952   1.746  15.289 -0.4151 -1.2449  1.4494
10305TIP3    H252407   3.026   1.639  15.212  0.5552  0.1092  0.4602
10306TIP3   OH252408   2.347   0.003  14.835 -0.1052 -0.2089 -0.4359
10306TIP3    H152409   2.275   0.006  14.772  1.0613  0.5604 -1.7768
10306TIP3    H252410   2.424   0.031  14.786  0.6770  1.4896  1.6039
10307TIP3   OH252411   1.294   2.207  16.676 -0.1526 -0.9434 -0.2975
10307TIP3    H152412   1.235   2.248  16.739  1.7635  0.3136  0.7732
10307TIP3    H252413   1.249   2.216  16.592 -0.8724  1.2019  0.2614
10308TIP3   OH252414   2.561   2.608  13.283 -0.3567  0.0836 -0.0078
10308TIP3    H152415   2.629   2.662  13.324  0.0021 -0.8660  0.6577
10308TIP3    H252416   2.479   2.653  13.304 -0.1642 -0.2437  1.5628
10309TIP3   OH252417   3.135   4.964   5.351 -0.4635 -0.3706 -0.0675
10309TIP3    H152418   3.142   5.042   5.407 -0.1287 -0.0867 -0.5043
10309TIP3    H252419   3.225   4.931   5.346 -0.0787  0.7884 -2.1146
10310TIP3   OH252420   3.127   2.358   4.229 -0.4061  0.4679 -0.3566
10310TIP3    H152421   3.086   2.273   4.243 -1.5392  0.9514 -0.6128
10310TIP3    H252422   3.081   2.416   4.290  0.7918  0.7727  0.2735
10311TIP3   OH252423   0.759   1.091  16.993  0.1917  0.5870  0.1808
10311TIP3    H152424   0.815   1.096  17.071  1.0272 -1.0052 -0.2619
10311TIP3    H252425   0.748   0.997  16.979 -0.1153  0.8573 -1.4980
10312TIP3   OH252426   3.942   5.970   6.468 -0.0248 -0.6193 -0.4657
10312TIP3    H152427   4.015   5.977   6.407  0.3904 -1.0074 -0.0206
10312TIP3    H252428   3.955   6.041   6.531 -0.7302  0.0978 -1.1061
10313TIP3   OH252429   1.809   0.412   4.668  0.5057 -0.0276  0.0252
10313TIP3    H152430   1.896   0.452   4.674  0.2367  0.5995 -0.1291
10313TIP3    H252431   1.810   0.341   4.732  0.7267  0.7364  0.8909
10314TIP3   OH252432   6.675   3.821  14.994  0.2999  0.3562  0.0322
10314TIP3    H152433   6.734   3.773  14.936 -0.6901 -0.0340 -0.6548
10314TIP3    H252434   6.595   3.769  14.998 -0.3435  1.3223  0.2557
10315TIP3   OH252435   1.933   3.165   0.804  0.1826 -0.4967  0.2730
10315TIP3    H152436   1.973   3.120   0.730  1.7010  0.3158  0.5402
10315TIP3    H252437   1.885   3.238   0.764  0.9648 -0.0831  0.0474
10316TIP3   OH252438   6.612   6.018   4.014  0.3263 -0.0895 -0.3330
10316TIP3    H152439   6.675   5.975   4.073  1.5762  1.0053 -0.8291
10316TIP3    H252440   6.547   6.057   4.074  1.1403  0.3320  0.3033
10317TIP3   OH252441   0.943   5.779   1.160  0.0308 -0.0243 -0.3275
10317TIP3    H152442   0.869   5.738   1.205  1.9505 -0.0682  3.2161
10317TIP3    H252443   0.914   5.868   1.140 -0.8721  0.0996  1.3777
10318TIP3   OH252444   6.307   4.514   2.183  0.0636  0.6210  0.4498
10318TIP3    H152445   6.397   4.507   2.150  0.0833  1.5472  0.2904
10318TIP3    H252446   6.264   4.577   2.124 -0.6240  0.3608  0.6650
10319TIP3   OH252447   0.821   6.023   3.838  0.1719  0.0199  0.2527
10319TIP3    H152448   0.813   6.118   3.851 -0.1667 -0.2825  2.7875
10319TIP3    H252449   0.737   5.988   3.867  1.1716 -1.2095  1.8107
10320TIP3   OH252450   1.219   4.302   5.588 -0.2745  0.4988  0.3203
10320TIP3    H152451   1.225   4.209   5.569  0.5944  0.6455 -0.1437
10320TIP3    H252452   1.297   4.321   5.640 -0.4278  0.9841  0.3797
10321TIP3   OH252453   0.435   0.382   0.275  0.0321  0.0174 -0.2380
10321TIP3    H152454   0.521   0.357   0.241  0.2800 -0.0672  0.4335
10321TIP3    H252455   0.445   0.474   0.300 -0.2782  0.2086 -0.7770
10322TIP3   OH252456   4.770   3.591   3.062  0.0390 -0.2737  0.3811
10322TIP3    H152457   4.709   3.654   3.101  2.0783  1.4633  0.9455
10322TIP3    H252458   4.779   3.620   2.971  0.5191 -0.1104  0.4783
10323TIP3   OH252459   1.369   0.325  15.448 -0.3920  0.2865  0.0278
10323TIP3    H152460   1.431   0.278  15.392 -1.2903 -1.2590  0.2656
10323TIP3    H252461   1.337   0.259  15.509 -0.5048  1.6053  1.4625
10324TIP3   OH252462   3.642   2.275  12.410  0.2536 -0.1284  0.1683
10324TIP3    H152463   3.640   2.367  12.437  0.7806 -0.4760  1.4849
10324TIP3    H252464   3.709   2.235  12.466  0.9170 -1.0674 -1.2273
10325TIP3   OH252465   5.221   0.042  11.599 -0.2011  0.0609  0.4132
10325TIP3    H152466   5.135   0.007  11.578 -0.0891 -1.0572  1.6129
10325TIP3    H252467   5.260  -0.024  11.657  0.9875  1.1006  0.8604
10326TIP3   OH252468   1.826   4.407   5.137  0.2917  0.2111  1.0468
10326TIP3    H152469   1.803   4.383   5.227  1.1611 -0.7983  1.0167
10326TIP3    H252470   1.850   4.325   5.095 -0.8161  0.5582 -0.3430
10327TIP3   OH252471   1.514   4.181   3.772  0.2179 -0.0523 -0.2551
10327TIP3    H152472   1.520   4.275   3.752 -2.0231  0.0555 -0.6947
10327TIP3    H252473   1.481   4.142   3.691  1.6484 -1.3287 -0.2513
10328TIP3   OH252474   6.270   6.383  16.366 -0.5113 -0.0070 -0.2009
10328TIP3    H152475   6.245   6.401  16.456 -0.7787 -2.2695  0.2442
10328TIP3    H252476   6.356   6.341  16.373  0.3696  1.5151 -1.1912
10329TIP3   OH252477   0.710   3.401  15.649  0.3908 -0.2470  0.2868
10329TIP3    H152478   0.741   3.361  15.568 -1.6532 -0.3781 -0.5006
10329TIP3    H252479   0.630   3.448  15.623  1.3694  2.3334  1.6337
10330TIP3   OH252480   4.828   2.043   1.016  0.2948  0.4353  0.0391
10330TIP3    H152481   4.870   2.079   0.938 -0.9388  1.0947 -0.3525
10330TIP3    H252482   4.900   2.025   1.077  1.3132 -0.4087 -1.3555
10331TIP3   OH252483   5.570   0.276  13.671 -0.3088 -0.3488 -0.2220
10331TIP3    H152484   5.643   0.313  13.721  0.8651  1.1365 -2.8212
10331TIP3    H252485   5.599   0.189  13.645  0.3865  0.0566 -0.8438
10332TIP3   OH252486   4.069   4.215  16.007 -0.0997  0.1534 -0.0485
10332TIP3    H152487   4.046   4.299  16.045 -1.0410  0.7660 -1.8410
10332TIP3    H252488   3.986   4.169  15.998  0.3889 -0.9299  0.7651
10333TIP3   OH252489   0.871   1.980   2.136 -0.3772 -0.1268 -0.1436
10333TIP3    H152490   0.830   1.968   2.050 -0.2568  1.0042 -0.3667
10333TIP3    H252491   0.867   2.074   2.152 -1.7999 -0.4432  1.7850
10334TIP3   OH252492   2.433   2.028  11.188 -0.0839 -0.3287 -0.2481
10334TIP3    H152493   2.357   2.042  11.132 -1.0114 -1.5774  0.6468
10334TIP3    H252494   2.406   2.061  11.274  0.8664  0.4018 -0.2088
10335TIP3   OH252495   4.733   1.681   3.729  0.3798 -0.0757 -0.3693
10335TIP3    H152496   4.784   1.723   3.799 -0.1501 -0.6856  0.4058
10335TIP3    H252497   4.728   1.589   3.755 -1.6507  0.0731 -0.0495
10336TIP3   OH252498   4.946   3.611  11.309  0.0095 -0.0773  0.3651
10336TIP3    H152499   5.022   3.665  11.333 -0.3012  1.5029 -1.9316
10336TIP3    H252500   4.981   3.522  11.304  1.2856  0.3554  1.1362
10337TIP3   OH252501   1.107   3.648  11.829  0.4228  0.0990  0.3756
10337TIP3    H152502   1.043   3.659  11.759  0.0232 -1.2247  0.5041
10337TIP3    H252503   1.153   3.732  11.833 -1.9006  1.4426  0.8953
10338TIP3   OH252504   1.202   0.116  14.528  0.2883  0.0579 -0.4091
10338TIP3    H152505   1.178   0.095  14.618  0.3179  0.5686 -0.2799
10338TIP3    H252506   1.161   0.200  14.511  1.8377  0.8985 -0.2284
10339TIP3   OH252507   3.370   3.669   6.484  0.1061 -0.7437 -0.0201
10339TIP3    H152508   3.348   3.714   6.402  0.9039 -4.1752 -2.3337
10339TIP3    H252509   3.286   3.663   6.530  0.0432  3.3975  0.7831
10340TIP3   OH252510   3.947   4.481  13.469 -0.3686 -0.3707 -0.0643
10340TIP3    H152511   3.925   4.437  13.551  0.6033 -1.2043 -0.2293
10340TIP3    H252512   3.926   4.573  13.485  0.7596 -0.3487  1.4935
10341TIP3   OH252513   5.214   2.731   5.223 -0.0982 -0.4204  0.2169
10341TIP3    H152514   5.131   2.761   5.186  0.0308 -0.4197 -0.0749
10341TIP3    H252515   5.254   2.810   5.258  0.3601 -0.1968 -0.7841
10342TIP3   OH252516   3.205   2.774  11.268 -0.8213 -0.2547 -0.1727
10342TIP3    H152517   3.203   2.846  11.205 -0.6396 -1.2305 -1.3553
10342TIP3    H252518   3.298   2.753  11.276 -0.8086  0.1406  0.7736
10343TIP3   OH252519   0.673   2.574  14.074 -0.2909  0.4467  0.3793
10343TIP3    H152520   0.735   2.646  14.085 -2.0120  1.9783  0.4660
10343TIP3    H252521   0.603   2.593  14.136  0.2287 -2.5568  2.1253
10344TIP3   OH252522   6.228   6.258   3.634 -0.4217  0.1596  0.2596
10344TIP3    H152523   6.301   6.237   3.576  0.1851 -0.7888  1.3354
10344TIP3    H252524   6.257   6.335   3.683 -0.8032  0.7588 -0.4327
10345TIP3   OH252525   4.730   6.162   3.645  0.2857  0.5518 -0.4989
10345TIP3    H152526   4.656   6.220   3.662  1.7620  2.7176 -1.0498
10345TIP3    H252527   4.696   6.096   3.584 -1.4353  0.7967  0.1246
10346TIP3   OH252528   1.903   1.763   2.516 -0.2501  0.5684 -0.5301
10346TIP3    H152529   1.861   1.699   2.573  1.1511  0.5363  0.5221
10346TIP3    H252530   1.949   1.711   2.450 -2.0695  0.6096 -1.9051
10347TIP3   OH252531   1.078   4.218  12.625  0.7328 -0.4865  0.1611
10347TIP3    H152532   1.125   4.294  12.589  1.2745 -1.3512 -1.0155
10347TIP3    H252533   1.144   4.149  12.630 -0.0346 -1.2472  0.0494
10348TIP3   OH252534   2.018   5.205  15.401 -0.3762 -0.1281  0.4489
10348TIP3    H152535   2.100   5.252  15.417 -0.4262  0.4651 -0.9151
10348TIP3    H252536   1.958   5.237  15.469  0.1878  0.2577  0.7749
10349TIP3   OH252537   5.416   5.042  14.222 -0.3327 -0.3594  0.1114
10349TIP3    H152538   5.357   5.069  14.292 -0.0284 -0.8578  0.5635
10349TIP3    H252539   5.361   4.994  14.161 -0.2925 -1.2917  0.7999
10350TIP3   OH252540   3.348   0.935   5.685  0.3003 -0.5549 -0.1272
10350TIP3    H152541   3.374   0.975   5.602  3.9471  0.6644  1.4101
10350TIP3    H252542   3.320   1.008   5.739 -0.5785 -1.1573  0.2598
10351TIP3   OH252543   3.913   5.343  11.255  0.2808 -0.0697  0.4302
10351TIP3    H152544   3.896   5.406  11.186  0.0449  0.1010  0.6413
10351TIP3    H252545   3.925   5.396  11.334 -3.3923 -0.3667  1.3635
10352TIP3   OH252546   1.090   2.184   3.092 -0.4994  0.4480  0.9912
10352TIP3    H152547   1.095   2.272   3.129 -2.2377  1.0171 -0.0040
10352TIP3    H252548   1.007   2.183   3.044  1.2820 -0.3626 -2.4609
10353TIP3   OH252549   0.420   1.846  13.090  0.8298  0.2077 -0.6027
10353TIP3    H152550   0.331   1.824  13.062  0.2434  1.3907  0.2644
10353TIP3    H252551   0.468   1.764  13.083 -0.1163 -0.2713 -1.8712
10354TIP3   OH252552   5.556   4.769   5.620  0.1091 -0.5130  0.1832
10354TIP3    H152553   5.641   4.793   5.657 -0.6025  1.1174  0.8701
10354TIP3    H252554   5.495   4.777   5.694 -1.1666  1.6710 -1.0138
10355TIP3   OH252555   4.701   5.175   5.005  0.2664 -0.3963 -0.5054
10355TIP3    H152556   4.717   5.118   4.930  0.0091  0.0146 -0.8775
10355TIP3    H252557   4.636   5.128   5.057  1.6044 -1.4260  0.3004
10356TIP3   OH252558   0.395   0.163  12.425  0.2551 -0.4082 -0.3550
10356TIP3    H152559   0.424   0.150  12.334 -1.1442  0.2340 -0.9230
10356TIP3    H252560   0.344   0.084  12.445  1.1787 -0.8883  0.1450
10357TIP3   OH252561   5.312   5.718  12.564  0.2490 -0.2075 -0.6897
10357TIP3    H152562   5.329   5.624  12.553 -0.7620 -0.3428 -1.2611
10357TIP3    H252563   5.234   5.722  12.619  1.4585  0.3629  1.0675
10358TIP3   OH252564   6.241   6.395  15.177  0.4743  0.3077  0.2079
10358TIP3    H152565   6.310   6.457  15.152 -0.6659  2.1358  1.3607
10358TIP3    H252566   6.282   6.309  15.169  1.5931  1.0247 -3.1927
10359TIP3   OH252567   0.714   4.338  15.318  0.3972  0.2259  0.2339
10359TIP3    H152568   0.795   4.298  15.286 -1.1548 -1.4262 -2.0180
10359TIP3    H252569   0.692   4.403  15.251 -0.5668  0.0476  0.3674
10360TIP3   OH252570   3.055   6.610   2.599 -0.3348  0.0867 -0.1385
10360TIP3    H152571   3.046   6.551   2.524 -0.8450  2.4180 -2.0641
10360TIP3    H252572   3.030   6.557   2.675  0.2395 -2.4002 -1.5816
10361TIP3   OH252573   6.460   2.701  16.652  0.2716  0.4917 -0.4393
10361TIP3    H152574   6.548   2.718  16.685  0.5716 -0.5149 -0.6838
10361TIP3    H252575   6.409   2.777  16.678  1.5041  1.6844 -1.3631
10362TIP3   OH252576   4.104   3.481  13.300 -0.5021  0.4642  0.2966
10362TIP3    H152577   4.177   3.539  13.281 -0.0717  0.3864  1.6142
10362TIP3    H252578   4.030   3.517  13.250  0.2700  0.9134 -0.5355
10363TIP3   OH252579   5.875   0.185   3.149 -0.3696  0.1722 -0.0757
10363TIP3    H152580   5.868   0.136   3.231 -1.7016 -0.9341 -0.8123
10363TIP3    H252581   5.785   0.204   3.124  0.0109  0.3628 -1.3703
10364TIP3   OH252582   3.734   3.848   1.019  0.5004 -0.0446  0.7825
10364TIP3    H152583   3.828   3.866   1.023  1.2097 -1.9437 -2.7603
10364TIP3    H252584   3.705   3.892   0.939 -0.9498 -1.7491  0.3030
10365TIP3   OH252585   1.677   6.319   4.048  0.3908 -0.1785 -0.0750
10365TIP3    H152586   1.628   6.270   3.981  1.0859 -2.6612  1.1255
10365TIP3    H252587   1.768   6.314   4.020  0.3933  1.1509 -0.3396
10366TIP3   OH252588   6.734   2.917   3.086 -0.0548 -0.6607  0.0789
10366TIP3    H152589   6.741   2.974   3.163 -0.8805 -0.2872 -0.1054
10366TIP3    H252590   6.757   2.974   3.012  0.8284 -1.0430  0.0481
10367TIP3   OH252591   6.358   4.984  14.656 -0.0377 -1.0511  0.4100
10367TIP3    H152592   6.342   4.920  14.725  2.4342 -0.8157  1.3231
10367TIP3    H252593   6.372   5.067  14.703  1.8721 -0.9230 -0.2995
10368TIP3   OH252594   6.197   3.639   0.707 -0.1647 -0.8583 -0.4692
10368TIP3    H152595   6.152   3.573   0.761 -1.5538  0.7561  0.4197
10368TIP3    H252596   6.128   3.699   0.680  1.2082  0.7744 -0.4600
10369TIP3   OH252597   3.770   4.036  14.147  0.1224  0.1235  0.4633
10369TIP3    H152598   3.698   4.089  14.183  0.2765  0.7120 -0.0647
10369TIP3    H252599   3.842   4.099  14.138 -0.2238  0.2674 -1.8339
10370TIP3   OH252600   1.323   3.249  13.487 -0.9334 -0.2936 -0.0124
10370TIP3    H152601   1.414   3.223  13.499 -0.8253 -0.2943 -0.7512
10370TIP3    H252602   1.328   3.339  13.454 -1.2509  0.1510  1.0980
10371TIP3   OH252603   2.356   3.014   6.465 -0.1942 -0.4356 -0.3227
10371TIP3    H152604   2.314   2.959   6.399 -1.8167  0.0730  0.2355
10371TIP3    H252605   2.295   3.086   6.479  2.4171  2.2980 -1.9291
10372TIP3   OH252606   5.180   3.263   1.021  0.0752  0.3541 -0.6439
10372TIP3    H152607   5.276   3.267   1.024  0.0580  0.5765 -0.3272
10372TIP3    H252608   5.160   3.170   1.013  0.3975  0.4555 -3.8630
10373TIP3   OH252609   2.138   1.225   3.461  0.4934 -0.1003 -0.2791
10373TIP3    H152610   2.154   1.314   3.431 -1.5518  0.2941 -0.3645
10373TIP3    H252611   2.197   1.214   3.536  1.6879  0.8463 -1.0488
10374TIP3   OH252612   0.775   1.097  11.627 -0.0130 -0.1228 -0.1165
10374TIP3    H152613   0.844   1.033  11.643  0.5275  0.2377 -0.9233
10374TIP3    H252614   0.772   1.105  11.532  1.6702  2.8802 -0.0332
10375TIP3   OH252615   0.880   0.342  14.227  0.2956 -0.2716  1.1353
10375TIP3    H152616   0.800   0.360  14.178  0.3994 -0.9067  0.7191
10375TIP3    H252617   0.899   0.250  14.209 -0.0418 -0.7313  2.9376
10376TIP3   OH252618   0.311   2.871   1.977 -0.5063  0.5768 -0.4217
10376TIP3    H152619   0.359   2.918   1.909  0.1928  0.1565 -0.2281
10376TIP3    H252620   0.273   2.795   1.932  1.1838 -0.5164 -0.0766
10377TIP3   OH252621   5.786   3.923  10.772  0.0072 -0.4187  0.6439
10377TIP3    H152622   5.854   3.979  10.733 -0.6871  0.5095  0.7164
10377TIP3    H252623   5.832   3.844  10.798  0.9116 -0.1358 -0.0279
10378TIP3   OH252624   4.526   5.487   4.414 -0.2051 -0.0089  0.1145
10378TIP3    H152625   4.517   5.410   4.357  1.1474  0.1054 -0.2888
10378TIP3    H252626   4.493   5.560   4.362 -0.6225 -0.1651  0.1524
10379TIP3   OH252627   0.630   6.460  16.670 -0.1119  0.2539  0.0670
10379TIP3    H152628   0.575   6.470  16.593 -1.9550  1.2183  1.4131
10379TIP3    H252629   0.719   6.451  16.636 -0.9994 -0.6708 -2.1771
10380TIP3   OH252630   3.526   4.033  13.634  0.1473  0.1985 -0.2881
10380TIP3    H152631   3.554   4.071  13.717  0.4505  1.8637 -1.1161
10380TIP3    H252632   3.438   4.067  13.620  0.3821  0.5381 -0.9965
10381TIP3   OH252633   2.416   1.418   4.767  0.1107 -0.0593  0.3003
10381TIP3    H152634   2.418   1.468   4.848 -1.8597 -0.5252  0.6906
10381TIP3    H252635   2.504   1.382   4.759  0.6366  0.8431  1.6768
10382TIP3   OH252636   2.958   2.794   5.920  0.6843 -0.0375 -0.0405
10382TIP3    H152637   2.994   2.875   5.956  1.1296  0.0283 -0.6352
10382TIP3    H252638   2.874   2.784   5.965 -0.3084  1.7991 -1.3316
10383TIP3   OH252639   1.651   0.686  13.377  0.7083  0.4693 -0.0433
10383TIP3    H152640   1.712   0.620  13.346  2.2299  1.2128  1.2317
10383TIP3    H252641   1.648   0.751  13.306 -1.7001 -1.4044 -1.8293
10384TIP3   OH252642   5.548   2.720   4.412 -0.1188  0.6603  0.0963
10384TIP3    H152643   5.466   2.727   4.460 -0.9598  1.3478 -1.3972
10384TIP3    H252644   5.604   2.666   4.469 -1.6191  0.0845  1.0806
10385TIP3   OH252645   5.834   2.981  17.490  0.7338  0.5175  0.2380
10385TIP3    H152646   5.918   2.959  17.449  0.2755  0.9862 -1.0098
10385TIP3    H252647   5.768   2.941  17.432  0.0669  0.6701  0.8668
10386TIP3   OH252648   3.948   3.329  12.694 -0.6025  0.7405 -0.0140
10386TIP3    H152649   3.972   3.410  12.739 -2.6831  0.9162  0.8990
10386TIP3    H252650   4.030   3.298  12.657  0.6939  2.0716  1.5329
10387TIP3   OH252651   1.082   2.091   5.896  0.2506 -0.2114 -0.7843
10387TIP3    H152652   1.138   2.168   5.888 -1.0699  0.7385 -1.2070
10387TIP3    H252653   1.143   2.017   5.906  1.5339  0.8756 -0.3720
10388TIP3   OH252654   5.245   0.645   0.356 -0.1140 -0.5609 -0.2389
10388TIP3    H152655   5.217   0.643   0.265 -0.4515 -0.1412 -0.1465
10388TIP3    H252656   5.307   0.717   0.361 -0.9857  0.1884  0.1075
10389TIP3   OH252657   3.731   0.183   6.145 -0.3275 -0.4065  0.2698
10389TIP3    H152658   3.727   0.279   6.153 -2.2985 -0.2576 -1.5600
10389TIP3    H252659   3.694   0.151   6.227  1.5296  0.2864  1.4713
10390TIP3   OH252660   2.124   3.948   4.128  0.9331 -0.1434  0.0558
10390TIP3    H152661   2.107   3.929   4.220 -0.0038  0.2436 -0.0317
10390TIP3    H252662   2.050   3.910   4.081 -0.4110  2.5893 -0.2362
10391TIP3   OH252663   0.534   0.238  11.468 -0.0523  0.2368 -0.0516
10391TIP3    H152664   0.473   0.165  11.475  1.3799 -0.8455  2.1318
10391TIP3    H252665   0.523   0.286  11.550  1.0511  0.8316 -0.2347
10392TIP3   OH252666   5.872   3.401   1.921  0.1475  0.0803  0.5920
10392TIP3    H152667   5.846   3.310   1.928 -0.9920  0.3923  0.5710
10392TIP3    H252668   5.964   3.402   1.949 -0.0992 -0.9134  1.4974
10393TIP3   OH252669   3.207   0.707   6.013  0.1870 -0.0596  0.1622
10393TIP3    H152670   3.154   0.787   6.016 -0.4362 -0.4974  1.4958
10393TIP3    H252671   3.286   0.729   6.062  0.5218  0.0751 -0.4273
10394TIP3   OH252672   1.971   5.082   0.036  0.0267  0.2721 -0.5707
10394TIP3    H152673   1.877   5.069   0.031  0.3016 -1.8237 -1.3933
10394TIP3    H252674   2.004   5.049  -0.048  1.6278 -0.6401  0.3750
10395TIP3   OH252675   4.332   0.866  15.239  0.1657 -0.1718  0.2592
10395TIP3    H152676   4.419   0.830  15.260  0.2286 -0.6013 -0.6824
10395TIP3    H252677   4.294   0.887  15.324  0.9364 -0.5972  0.7249
10396TIP3   OH252678   2.092   3.020   4.358 -0.7568  0.4409 -0.6079
10396TIP3    H152679   2.176   2.990   4.394 -0.5507  0.6505 -0.9160
10396TIP3    H252680   2.064   2.948   4.301 -1.5742 -0.3423  0.7215
10397TIP3   OH252681   2.739   0.005   4.613 -0.2213 -0.5231 -0.3385
10397TIP3    H152682   2.686  -0.021   4.538  0.2902  0.3205 -1.0135
10397TIP3    H252683   2.806   0.062   4.576 -0.0349  0.0109  0.7823
10398TIP3   OH252684   5.292   1.604   1.884  0.6623 -0.1371  0.3541
10398TIP3    H152685   5.376   1.560   1.876  0.5448 -0.0899 -1.4496
10398TIP3    H252686   5.263   1.617   1.794 -1.0357  0.3157  0.9333
10399TIP3   OH252687   2.677   2.016  16.236 -0.7321  0.1785  0.0108
10399TIP3    H152688   2.702   2.037  16.326 -1.9862 -2.2858  1.0415
10399TIP3    H252689   2.749   1.961  16.204 -0.0517  1.4431 -0.7284
10400TIP3   OH252690   2.262   1.344  14.192  0.7898 -0.3661  0.1577
10400TIP3    H152691   2.209   1.402  14.137 -0.3329  0.5697  2.1213
10400TIP3    H252692   2.347   1.387  14.198  0.7484 -0.2002 -0.3811
10401TIP3   OH252693   3.154   5.382   5.240 -0.8383  1.0192  0.3226
10401TIP3    H152694   3.245   5.394   5.214 -0.2408 -1.5076  0.9953
10401TIP3    H252695   3.117   5.325   5.172 -0.6405 -1.5254  2.2142
10402TIP3   OH252696   5.866   6.597   3.584 -0.7771 -0.0025 -0.1289
10402TIP3    H152697   5.866   6.606   3.679  0.3903  0.6984 -0.1695
10402TIP3    H252698   5.807   6.523   3.566 -0.1315 -0.8745  1.2077
10403TIP3   OH252699   4.437   0.785  10.733  0.1137  0.3412 -0.1311
10403TIP3    H152700   4.348   0.756  10.713  0.3494 -0.5636  0.1257
10403TIP3    H252701   4.481   0.708  10.767  1.3872  0.4359 -1.4657
10404TIP3   OH252702   2.055   1.964   2.644  0.8312  0.1294  0.1780
10404TIP3    H152703   2.149   1.957   2.627  0.9120  1.0325  0.2285
10404TIP3    H252704   2.018   1.886   2.602  1.4894  0.2371 -0.6375
10405TIP3   OH252705   4.327   5.277   2.788 -0.1164 -0.4376  0.0890
10405TIP3    H152706   4.232   5.279   2.800 -0.1456 -0.1538 -0.1797
10405TIP3    H252707   4.343   5.194   2.743 -0.2917 -0.2512 -0.3213
10406TIP3   OH252708   0.649   5.103  16.506 -0.7062  0.1386  0.6239
10406TIP3    H152709   0.555   5.108  16.485 -0.6377 -1.3734 -0.2839
10406TIP3    H252710   0.659   5.016  16.546  0.0010  1.0961  2.6475
10407TIP3   OH252711   5.588   2.815  14.594  0.0614 -0.2118 -0.3205
10407TIP3    H152712   5.562   2.799  14.503 -1.8280 -1.6883  0.3909
10407TIP3    H252713   5.683   2.823  14.591 -0.0332  0.9457 -2.5530
10408TIP3   OH252714   0.206   5.406   1.700  0.0467 -0.1113 -0.4950
10408TIP3    H152715   0.256   5.324   1.698 -0.0390 -0.1558 -0.8470
10408TIP3    H252716   0.179   5.416   1.792  0.7047 -0.0852 -0.2979
10409TIP3   OH252717   6.549   3.942  11.911  0.3682 -0.4657 -0.1369
10409TIP3    H152718   6.611   3.931  11.839  1.3700 -1.3271  0.8405
10409TIP3    H252719   6.478   3.995  11.873  1.0998 -0.4976 -1.6111
10410TIP3   OH252720   4.210   2.973  12.608  0.0091  0.0183 -0.1264
10410TIP3    H152721   4.253   2.907  12.664 -1.4216 -0.7341  0.1480
10410TIP3    H252722   4.118   2.948  12.610 -0.8102  2.8066  1.0516
10411TIP3   OH252723   6.192   6.505  13.809 -0.8516 -0.1553 -0.3968
10411TIP3    H152724   6.255   6.574  13.829 -0.7162 -0.3306 -0.2049
10411TIP3    H252725   6.130   6.508  13.882 -2.3740  1.4895 -1.6579
10412TIP3   OH252726   1.621   0.424  10.971  0.0840 -0.8190 -0.1145
10412TIP3    H152727   1.574   0.360  10.917 -0.9587  0.2943 -0.5863
10412TIP3    H252728   1.707   0.431  10.930 -0.3232 -0.8019 -0.9935
10413TIP3   OH252729   1.934   3.431  13.572 -0.4856 -0.3268  0.5927
10413TIP3    H152730   1.933   3.488  13.496 -0.8390  0.1145  0.9250
10413TIP3    H252731   2.010   3.459  13.623  0.7692 -1.7373 -0.4222
10414TIP3   OH252732   3.110   6.213   5.343  0.5005  0.4763 -0.0858
10414TIP3    H152733   3.136   6.219   5.251  0.6384 -1.5589 -0.2287
10414TIP3    H252734   3.101   6.119   5.360 -5.1257  0.7058  0.3895
10415TIP3   OH252735   0.028   1.887  12.396  0.7129  0.3284 -0.0354
10415TIP3    H152736   0.032   1.951  12.467  0.2197  0.3620 -0.0342
10415TIP3    H252737   0.104   1.830  12.410  0.7876  0.5192  0.3371
10416TIP3   OH252738   0.770   2.295  16.441  0.8241 -0.4550 -0.1088
10416TIP3    H152739   0.685   2.277  16.401  0.6095  1.7680 -0.7995
10416TIP3    H252740   0.755   2.283  16.534 -0.7048  1.3281 -0.0626
10417TIP3   OH252741   5.493   5.515   5.943  0.2632  0.1525 -0.4479
10417TIP3    H152742   5.587   5.515   5.961  0.2169  1.2901 -0.1462
10417TIP3    H252743   5.455   5.575   6.007 -0.8217 -1.0258  0.0815
10418TIP3   OH252744   5.497   4.376  14.675  0.1958  0.0981  0.3702
10418TIP3    H152745   5.574   4.319  14.670 -0.5419 -0.8689 -0.3916
10418TIP3    H252746   5.434   4.326  14.726 -1.0024 -0.4747 -1.5585
10419TIP3   OH252747   2.789   1.527  16.701  0.4091 -0.3750 -0.3503
10419TIP3    H152748   2.836   1.605  16.670 -0.7356 -0.3040 -2.0410
10419TIP3    H252749   2.788   1.468  16.626  0.7142 -1.7983  0.7215
10420TIP3   OH252750   6.758   4.816   3.997  0.3834 -0.1833  0.3763
10420TIP3    H152751   6.720   4.746   4.051  0.6243  0.5704  1.5762
10420TIP3    H252752   6.692   4.885   3.997  0.5458 -0.0247  0.0184
10421TIP3   OH252753   1.201   3.417  10.930 -0.1366 -0.3821  0.0855
10421TIP3    H152754   1.106   3.414  10.939 -0.0978 -0.5531  0.4658
10421TIP3    H252755   1.231   3.467  11.005  0.3088 -3.2154  1.9768
10422TIP3   OH252756   3.961   5.253   4.495  0.0049  0.6376  0.1376
10422TIP3    H152757   3.981   5.307   4.571  1.0301  1.3953 -0.6421
10422TIP3    H252758   4.031   5.272   4.432 -2.1619  2.0143 -2.0367
10423TIP3   OH252759   1.547   0.603   2.321  0.0169  0.0887  0.1354
10423TIP3    H152760   1.617   0.629   2.381 -0.9100  0.8387  0.9196
10423TIP3    H252761   1.538   0.677   2.261  0.7266 -0.5286 -0.7472
10424TIP3   OH252762   6.292   3.488  12.612  0.1184 -0.1747  0.6003
10424TIP3    H152763   6.262   3.399  12.627 -0.2914 -0.2783 -0.7802
10424TIP3    H252764   6.387   3.482  12.610  0.0767 -0.6377  0.1120
10425TIP3   OH252765   3.124   4.862   0.518 -0.6423 -0.0328  0.5985
10425TIP3    H152766   3.041   4.819   0.495 -1.0913 -0.1244  2.2268
10425TIP3    H252767   3.168   4.799   0.574  0.6458 -0.0552 -0.3975
10426TIP3   OH252768   0.652   4.026   1.064 -0.1612 -0.0598  0.3299
10426TIP3    H152769   0.640   4.116   1.035 -0.3725 -0.5256 -1.1515
10426TIP3    H252770   0.657   4.031   1.159  0.9667  1.6400  0.2183
10427TIP3   OH252771   3.285   3.640   5.552 -0.2413 -0.0660 -0.8867
10427TIP3    H152772   3.204   3.672   5.513  0.3928  0.7210 -1.5987
10427TIP3    H252773   3.294   3.689   5.633 -0.1510  0.3025 -1.1211
10428TIP3   OH252774   0.322   4.692   1.241 -0.2499  0.2052 -0.0304
10428TIP3    H152775   0.347   4.600   1.247  1.0066  0.5913  1.3121
10428TIP3    H252776   0.283   4.702   1.154 -0.4593 -1.5903 -0.1630
10429TIP3   OH252777   2.434   6.569  10.597 -0.2152 -0.7927  0.5113
10429TIP3    H152778   2.395   6.485  10.572 -0.2454 -0.9976  1.2109
10429TIP3    H252779   2.403   6.584  10.686  1.0388 -0.8145  0.9766
10430TIP3   OH252780   4.877   4.713   0.401 -0.3464 -0.3102 -0.3392
10430TIP3    H152781   4.953   4.665   0.369 -0.0214  0.4393 -0.7118
10430TIP3    H252782   4.820   4.645   0.438  0.1320 -0.9673 -0.7790
10431TIP3   OH252783   4.174   6.321  11.671 -0.1964  0.2320  0.3095
10431TIP3    H152784   4.217   6.330  11.585 -2.5631  1.6349 -0.8020
10431TIP3    H252785   4.179   6.408  11.710 -1.4932  0.2904  0.3849
10432TIP3   OH252786   4.798   1.925  11.293 -0.3971  0.1215 -0.0966
10432TIP3    H152787   4.893   1.923  11.283 -0.3781  1.5603 -0.4015
10432TIP3    H252788   4.771   2.005  11.248 -1.9939 -1.3712 -2.0295
10433TIP3   OH252789   4.514   5.399   1.882 -0.1290  0.4227 -0.9369
10433TIP3    H152790   4.575   5.339   1.840 -0.5419 -1.6010  1.1251
10433TIP3    H252791   4.441   5.407   1.820  0.9980  0.7392 -2.2613
10434TIP3   OH252792   5.720   4.886  15.234 -0.2250 -0.1719 -0.5002
10434TIP3    H152793   5.708   4.919  15.323  2.9834  1.1081 -0.4241
10434TIP3    H252794   5.675   4.949  15.178 -1.3946 -0.4348  0.1086
10435TIP3   OH252795   2.090   5.429   0.569  0.1201  0.2441 -0.2646
10435TIP3    H152796   2.006   5.473   0.556 -0.3153 -0.2158  0.8987
10435TIP3    H252797   2.121   5.411   0.480 -1.6419 -0.7676 -0.7300
10436TIP3   OH252798   3.108   3.672   6.191 -0.3494  0.5138 -0.1035
10436TIP3    H152799   3.017   3.692   6.213 -0.6973 -1.4787  0.4214
10436TIP3    H252800   3.158   3.742   6.234 -1.6111  1.8560 -0.7115
10437TIP3   OH252801   1.727   3.822  15.152  0.0838  0.3186  0.4793
10437TIP3    H152802   1.810   3.807  15.107 -0.5652  0.4749 -0.8230
10437TIP3    H252803   1.660   3.798  15.087 -0.8973  1.6005  0.9784
10438TIP3   OH252804   2.555   2.125  14.148 -0.1292 -0.3214 -0.6085
10438TIP3    H152805   2.516   2.184  14.083  0.7497 -0.0387 -0.8865
10438TIP3    H252806   2.504   2.141  14.228 -1.4484 -0.9337 -1.3052
10439TIP3   OH252807   2.962   5.851  17.468 -0.3666  0.4565 -0.4392
10439TIP3    H152808   3.057   5.856  17.475 -0.4427  0.1337  1.6294
10439TIP3    H252809   2.932   5.941  17.484 -0.4678  0.1014  1.5878
10440TIP3   OH252810   2.515   6.313   4.637  0.1600  0.1636  0.0587
10440TIP3    H152811   2.568   6.373   4.688  1.1726  0.0763 -0.8632
10440TIP3    H252812   2.577   6.271   4.577 -0.5240 -1.6853  0.5581
10441TIP3   OH252813   4.551   2.381   5.554  0.1120 -0.1175 -0.0442
10441TIP3    H152814   4.605   2.431   5.492 -1.4493  1.0993 -0.4731
10441TIP3    H252815   4.508   2.448   5.607 -0.9485 -1.0547  0.3052
10442TIP3   OH252816   0.369   2.628  17.158 -0.1115 -0.8366  0.7991
10442TIP3    H152817   0.416   2.544  17.153  1.4660  0.0748 -0.6141
10442TIP3    H252818   0.337   2.642  17.069  0.6592  0.6009  0.7212
10443TIP3   OH252819   1.754   4.828  13.068 -0.1271  0.0497 -0.2996
10443TIP3    H152820   1.798   4.849  12.986 -1.1408 -2.6240 -1.6087
10443TIP3    H252821   1.661   4.844  13.051 -0.3896 -0.8780  0.2079
10444TIP3   OH252822   4.483   2.182  16.373 -0.2703  0.1260  0.1359
10444TIP3    H152823   4.512   2.115  16.311 -0.3364 -0.8452  1.1208
10444TIP3    H252824   4.392   2.199  16.349 -0.0868  0.2675 -0.4692
10445TIP3   OH252825   2.983   6.013   1.789 -0.3595  0.1444 -0.0527
10445TIP3    H152826   2.901   5.971   1.815 -1.1680  2.1373  0.8194
10445TIP3    H252827   3.043   5.940   1.772 -1.2850 -1.3636  2.5948
10446TIP3   OH252828   3.246   0.196  16.579  0.6591  0.8559  0.2390
10446TIP3    H152829   3.173   0.249  16.548 -0.6051 -0.2854  1.0932
10446TIP3    H252830   3.216   0.105  16.568  1.7700  0.3635  1.0155
10447TIP3   OH252831   4.316   4.339  11.624  0.0201 -0.3819  0.0425
10447TIP3    H152832   4.328   4.267  11.561 -0.2381 -0.1670 -0.2521
10447TIP3    H252833   4.241   4.388  11.591 -1.5182 -1.5166  1.6847
10448TIP3   OH252834   6.368   5.771   3.618 -0.2695 -0.1165  0.1718
10448TIP3    H152835   6.304   5.699   3.619 -1.0449  0.5352  1.6961
10448TIP3    H252836   6.372   5.800   3.709 -1.2510  2.8613 -0.6230
10449TIP3   OH252837   2.743   1.140   5.489 -0.3596  0.0006  0.4381
10449TIP3    H152838   2.721   1.047   5.489 -2.7031  0.4414  2.5784
10449TIP3    H252839   2.722   1.169   5.577  1.8955  2.2824  0.3379
10450TIP3   OH252840   5.851   3.194  16.023 -0.7775 -0.0028 -0.1992
10450TIP3    H152841   5.840   3.271  16.080  0.7743  1.7080 -2.0258
10450TIP3    H252842   5.852   3.120  16.083 -0.2782  1.5903  1.8984
10451TIP3   OH252843   4.209   5.981  15.012 -0.0522  0.6662  0.1612
10451TIP3    H152844   4.190   6.036  15.088 -1.4967 -0.0373  0.3454
10451TIP3    H252845   4.134   5.995  14.954  0.2449 -0.0476 -0.4050
10452TIP3   OH252846   3.157   1.550   1.074 -0.5758 -0.1470  0.1557
10452TIP3    H152847   3.074   1.571   1.118 -0.1640 -0.8748  1.3197
10452TIP3    H252848   3.176   1.460   1.100 -0.0102 -0.4136 -1.0741
10453TIP3   OH252849   2.906   6.707  11.652 -0.0994  0.2179  0.4463
10453TIP3    H152850   2.891   6.616  11.676  0.0868  0.2610  0.7315
10453TIP3    H252851   2.998   6.710  11.626 -0.3860  0.0972 -0.6287
10454TIP3   OH252852   3.804   3.266  12.484  0.2217 -0.1558  0.1099
10454TIP3    H152853   3.826   3.282  12.576  0.6621  0.6575 -0.1288
10454TIP3    H252854   3.875   3.307  12.435 -0.0158 -0.5776 -0.5972
10455TIP3   OH252855   0.171   5.211  13.472  0.8065 -0.3182 -0.4273
10455TIP3    H152856   0.252   5.224  13.520  2.0001  0.9760 -2.5894
10455TIP3    H252857   0.127   5.296  13.477  0.5267 -0.4366 -0.8537
10456TIP3   OH252858   1.993   5.978  12.268 -0.0735 -0.3436  0.3137
10456TIP3    H152859   1.908   5.953  12.233  0.5263 -1.2001 -0.5937
10456TIP3    H252860   2.030   5.897  12.304  0.4689 -0.0466  0.4466
10457TIP3   OH252861   5.182   4.917  16.403  0.0957 -0.0690  0.6204
10457TIP3    H152862   5.225   4.954  16.326  1.2581 -2.8880 -0.2122
10457TIP3    H252863   5.105   4.972  16.417  0.2862  1.0133 -2.0700
10458TIP3   OH252864   1.460   3.543   0.051  0.8152  0.2096  0.1886
10458TIP3    H152865   1.416   3.457   0.051 -0.3445  0.7559 -1.1019
10458TIP3    H252866   1.502   3.549   0.136  0.5860 -1.4813  0.4580
10459TIP3   OH252867   1.201   0.815  14.236 -0.4039  0.3983 -0.1407
10459TIP3    H152868   1.268   0.871  14.276 -0.8244  0.7490  0.0860
10459TIP3    H252869   1.149   0.783  14.310 -1.4368  1.3756 -0.4076
10460TIP3   OH252870   6.595   0.279   4.241 -0.5419  0.4442 -0.1603
10460TIP3    H152871   6.578   0.236   4.325  0.1665  0.3144 -0.0832
10460TIP3    H252872   6.512   0.323   4.220  0.0033  2.6400  1.8584
10461TIP3   OH252873   0.931   1.432   0.224  0.0425 -0.3673  0.4320
10461TIP3    H152874   0.890   1.518   0.238 -2.6649 -1.1791 -1.7056
10461TIP3    H252875   1.005   1.450   0.167 -2.1716  0.3719 -2.4336
10462TIP3   OH252876   5.239   3.701   0.897 -0.1838  0.0500  0.0374
10462TIP3    H152877   5.203   3.709   0.809  2.8580 -0.7153 -1.4222
10462TIP3    H252878   5.318   3.756   0.895  1.6848 -2.4216  1.2145
10463TIP3   OH252879   4.349   5.686   3.850 -0.5613 -0.1560 -0.5221
10463TIP3    H152880   4.399   5.609   3.877 -0.2391 -0.6015 -2.2650
10463TIP3    H252881   4.304   5.658   3.771 -1.8251  0.9387 -0.2081
10464TIP3   OH252882   1.297   3.931   0.611 -0.1024 -0.3436  0.6530
10464TIP3    H152883   1.262   3.934   0.522 -1.3747  1.8403  1.1482
10464TIP3    H252884   1.377   3.879   0.604 -0.2121 -0.2830 -1.7440
10465TIP3   OH252885   1.571   2.889  13.555  0.0705 -0.1168 -0.0443
10465TIP3    H152886   1.647   2.846  13.515  0.6627 -0.1345  1.0379
10465TIP3    H252887   1.600   2.980  13.569  0.0532 -0.2257  0.7468
10466TIP3   OH252888   6.441   5.139   5.334 -0.1244  0.2573 -0.1811
10466TIP3    H152889   6.400   5.195   5.400 -0.5609 -0.7310  0.4031
10466TIP3    H252890   6.516   5.190   5.303  0.3450  0.5805  1.3920
10467TIP3   OH252891   6.407   0.084   4.531  0.4559  0.3476  0.3502
10467TIP3    H152892   6.472   0.151   4.551  0.6844 -0.0190  0.8589
10467TIP3    H252893   6.323   0.125   4.552  0.5597  0.6423  0.1901
10468TIP3   OH252894   6.612   1.625  15.834 -0.2720 -0.1768  0.7312
10468TIP3    H152895   6.630   1.669  15.917  0.3277 -0.4427  0.7463
10468TIP3    H252896   6.572   1.692  15.779 -0.9137 -0.0695  1.3215
10469TIP3   OH252897   3.397   5.703  15.138  0.8317  0.4051  0.4537
10469TIP3    H152898   3.449   5.733  15.212 -0.2924 -1.5025  2.0954
10469TIP3    H252899   3.441   5.622  15.109 -0.9867 -1.0925  1.7046
10470TIP3   OH252900   1.985   1.026  11.491  0.4421  0.4404 -0.1332
10470TIP3    H152901   1.976   0.936  11.462  1.1258  0.4277 -0.3123
10470TIP3    H252902   1.920   1.075  11.439  0.6007  0.1753 -0.5842
10471TIP3   OH252903   1.812   0.057  17.210  0.5101 -0.1627 -0.0808
10471TIP3    H152904   1.766   0.091  17.287  0.0327  0.8713 -0.7993
10471TIP3    H252905   1.891   0.016  17.246  1.0259  1.5523  0.8596
10472TIP3   OH252906   6.439   3.110   2.700 -0.1264  0.0027 -0.0364
10472TIP3    H152907   6.492   3.175   2.654  1.5486 -0.3089  1.3352
10472TIP3    H252908   6.428   3.146   2.787  1.8937 -1.9727  1.1603
10473TIP3   OH252909   6.265   0.929  12.352  0.4484  0.4070 -0.4136
10473TIP3    H152910   6.341   0.957  12.402  0.5360  1.0485 -0.8986
10473TIP3    H252911   6.269   0.833  12.353  2.1909  0.4377 -1.8658
10474TIP3   OH252912   4.982   6.323  13.891  0.1006  0.4069  0.1055
10474TIP3    H152913   5.045   6.384  13.853  0.2174  0.2297  0.0142
10474TIP3    H252914   4.907   6.378  13.914  0.8314  0.8813  1.5270
10475TIP3   OH252915   4.689   0.117  12.536 -0.0182  0.2154  0.0443
10475TIP3    H152916   4.603   0.109  12.493 -0.6305  0.9522  1.0910
10475TIP3    H252917   4.752   0.100  12.466 -0.9995  0.6067 -0.9682
10476TIP3   OH252918   3.808   6.253  12.664 -0.2354  0.2082 -0.0236
10476TIP3    H152919   3.832   6.198  12.590  0.0879  0.3245 -0.0092
10476TIP3    H252920   3.871   6.325  12.662  0.2889 -0.1943  0.8122
10477TIP3   OH252921   3.007   3.290  12.967 -0.0744  0.3171  0.3189
10477TIP3    H152922   2.978   3.201  12.986 -0.0306  0.1764 -0.2344
10477TIP3    H252923   3.013   3.293  12.871 -1.4015  1.3360  0.2474
10478TIP3   OH252924   6.340   6.179  14.099 -0.0511  0.1637 -0.0756
10478TIP3    H152925   6.387   6.098  14.120  0.4774  0.4447 -0.1443
10478TIP3    H252926   6.345   6.231  14.180  1.0574  0.8068 -0.5356
10479TIP3   OH252927   5.088   3.325   1.836 -0.5110 -0.7597  0.1918
10479TIP3    H152928   5.008   3.377   1.836 -0.1443  0.1302  4.4852
10479TIP3    H252929   5.150   3.377   1.785 -1.6047  0.3785 -0.0473
10480TIP3   OH252930   5.498   3.055  12.360  0.0124 -0.0051 -0.4340
10480TIP3    H152931   5.487   3.134  12.307  0.2964  0.8057  0.6870
10480TIP3    H252932   5.488   2.983  12.297  0.4820  0.9215 -1.6144
10481TIP3   OH252933   2.425   3.880   4.454 -0.6338  0.2074 -0.0682
10481TIP3    H152934   2.338   3.898   4.418 -0.8660  0.6297  0.6933
10481TIP3    H252935   2.454   3.801   4.408 -0.9922  0.6317 -1.0563
10482TIP3   OH252936   5.666   0.005   1.651  0.1979  0.3360  0.4006
10482TIP3    H152937   5.681   0.099   1.643  3.3358 -0.1806 -1.5658
10482TIP3    H252938   5.690  -0.031   1.566 -1.2637 -2.2584  0.9677
10483TIP3   OH252939   5.293   2.574  13.633  1.0229  0.5523  0.5817
10483TIP3    H152940   5.358   2.577  13.562  2.6381  0.3337  1.9802
10483TIP3    H252941   5.294   2.483  13.663 -0.4098  0.4025  0.2458
10484TIP3   OH252942   5.300   0.629  17.420  0.2067 -0.2680 -0.8029
10484TIP3    H152943   5.352   0.659  17.345 -0.1836  0.1475 -0.9159
10484TIP3    H252944   5.321   0.691  17.490 -1.3445  0.9267 -1.3243
10485TIP3   OH252945   1.343   0.845  15.334  0.7130  0.6049 -0.0827
10485TIP3    H152946   1.302   0.773  15.381 -0.9096  1.6575  0.2031
10485TIP3    H252947   1.398   0.889  15.399  1.3507 -0.0870 -0.1463
10486TIP3   OH252948   3.134   0.240  14.263 -0.1692 -0.3698  0.4850
10486TIP3    H152949   3.051   0.246  14.309  0.1602 -0.3312  1.0761
10486TIP3    H252950   3.119   0.173  14.195 -1.1334  0.7130 -0.4028
10487TIP3   OH252951   3.795   5.499  14.950  0.1549 -0.3524 -0.1627
10487TIP3    H152952   3.788   5.409  14.983  0.6409 -0.5492 -0.6010
10487TIP3    H252953   3.773   5.493  14.857  0.3389 -0.0386 -0.2283
10488TIP3   OH252954   3.726   5.262   1.136  0.3134 -0.0055  0.9793
10488TIP3    H152955   3.656   5.199   1.120  0.9916 -0.4982 -0.2153
10488TIP3    H252956   3.698   5.342   1.091  0.9620 -0.5341 -0.4360
10489TIP3   OH252957   3.118   1.368  15.383 -0.6142 -0.3755  0.0742
10489TIP3    H152958   3.119   1.381  15.288 -0.5455 -2.3735 -0.2298
10489TIP3    H252959   3.199   1.409  15.413  0.6858 -1.9838 -1.0839
10490TIP3   OH252960   6.462   1.498  15.170 -0.0072 -0.5410  0.3409
10490TIP3    H152961   6.481   1.443  15.094  0.8425 -0.2025  0.2968
10490TIP3    H252962   6.366   1.499  15.176 -0.2897  1.7871 -2.5079
10491TIP3   OH252963   0.166   0.677   5.694  0.5268  0.0491 -0.4556
10491TIP3    H152964   0.247   0.727   5.696  2.2972 -2.6227 -0.6234
10491TIP3    H252965   0.126   0.693   5.779  1.3496  1.1857 -0.2578
10492TIP3   OH252966   1.903   1.764  17.265  0.2423 -0.3165 -0.5371
10492TIP3    H152967   1.906   1.703  17.191  0.1113 -2.0319  0.8145
10492TIP3    H252968   1.981   1.818  17.254  0.1681 -0.4498 -1.9807
10493TIP3   OH252969   1.120   0.063  17.406  0.0371 -0.2352  0.2027
10493TIP3    H152970   1.058   0.035  17.473  0.3466 -0.5831  0.3427
10493TIP3    H252971   1.066   0.081  17.329 -0.6604  2.6375  1.2359
10494TIP3   OH252972   2.803   4.334   6.226 -0.2711 -0.3275  0.1464
10494TIP3    H152973   2.791   4.304   6.136  0.4412  0.1756 -0.1295
10494TIP3    H252974   2.812   4.253   6.277  0.1026 -0.6103 -0.3526
10495TIP3   OH252975   4.443   2.960  14.359 -0.4451  0.0331 -0.5160
10495TIP3    H152976   4.411   3.022  14.293 -0.1769 -0.5971 -1.2643
10495TIP3    H252977   4.481   2.889  14.307 -1.6540 -1.2523  0.2833
10496TIP3   OH252978   1.539   5.969  14.348 -0.1323 -0.1823 -0.0869
10496TIP3    H152979   1.530   5.957  14.443 -0.0198  1.7076  0.1834
10496TIP3    H252980   1.587   6.051  14.338  2.8894 -1.9569 -1.7396
10497TIP3   OH252981   1.311   6.675   6.045  0.1490  0.0353 -0.1857
10497TIP3    H152982   1.304   6.585   6.012 -1.7581 -0.0112  0.2059
10497TIP3    H252983   1.365   6.720   5.981  0.5104 -1.2044 -0.7939
10498TIP3   OH252984   2.351   6.298  12.342  0.1499 -0.4774  0.1087
10498TIP3    H152985   2.431   6.253  12.371  0.1410 -0.5310  0.0491
10498TIP3    H252986   2.280   6.242  12.373  0.1500 -0.7789 -0.4228
10499TIP3   OH252987   3.395   6.135   3.756  0.1366 -0.1660  0.4642
10499TIP3    H152988   3.456   6.175   3.818  1.0786  0.0548 -0.5811
10499TIP3    H252989   3.428   6.046   3.744 -0.4023 -0.4075  0.7432
10500TIP3   OH252990   1.540   0.863   1.642  0.4671  0.4508  0.0437
10500TIP3    H152991   1.617   0.918   1.627  0.3273  0.8382  0.7313
10500TIP3    H252992   1.472   0.902   1.588  0.1983  1.3401  0.9835
10501TIP3   OH252993   1.691   0.586   2.810 -0.1124 -0.1383  0.1952
10501TIP3    H152994   1.684   0.607   2.903  1.6410  0.2587  0.2671
10501TIP3    H252995   1.765   0.527   2.804  0.8967  1.1869 -1.1347
10502TIP3   OH252996   2.545   4.231  16.906 -0.5317 -0.6267  0.4481
10502TIP3    H152997   2.470   4.259  16.854  0.1466 -0.1689 -0.3074
10502TIP3    H252998   2.622   4.255  16.853  0.1202 -3.5630 -0.0967
10503TIP3   OH252999   4.919   5.834  14.585 -0.6211  0.3612  0.3982
10503TIP3    H153000   4.829   5.837  14.616 -1.0092 -0.4785 -0.6069
10503TIP3    H253001   4.960   5.913  14.623 -2.5315  2.3589 -1.4222
10504TIP3   OH253002   1.956   4.015  13.696 -0.4254 -0.7223  0.3954
10504TIP3    H153003   1.926   4.101  13.724 -0.0113 -0.6041  0.4822
10504TIP3    H253004   1.981   4.026  13.604 -0.4961 -0.7828  0.3683
10505TIP3   OH253005   3.485   0.254   4.222  0.2435 -0.9383 -0.2954
10505TIP3    H153006   3.521   0.177   4.180  0.8174 -0.5144 -0.5999
10505TIP3    H253007   3.512   0.247   4.314 -0.2242 -1.3978 -0.1881
10506TIP3   OH253008   4.555   3.858   4.070 -0.1377  0.4197  0.5242
10506TIP3    H153009   4.502   3.869   4.149 -0.5130 -2.2036  0.7334
10506TIP3    H253010   4.640   3.826   4.102  1.0290  2.8471  0.0624
10507TIP3   OH253011   5.143   6.668   1.530  0.0304 -0.4996 -0.0767
10507TIP3    H153012   5.184   6.636   1.449  0.5542 -1.5146  0.5600
10507TIP3    H253013   5.087   6.740   1.502  1.5274  0.3101 -1.1163
10508TIP3   OH253014   5.786   6.312  15.356 -0.5959 -0.2169  0.0693
10508TIP3    H153015   5.721   6.282  15.292  0.0484 -0.1031 -0.6464
10508TIP3    H253016   5.833   6.383  15.312  0.7389 -1.0069  0.1606
10509TIP3   OH253017   5.256   4.066  15.405  0.5541 -0.7091 -0.1013
10509TIP3    H153018   5.177   4.120  15.414  1.3981  0.6763 -0.5959
10509TIP3    H253019   5.224   3.977  15.392 -0.9245 -0.1559 -0.3944
10510TIP3   OH253020   4.810   0.713   0.812 -0.4462  0.5836 -0.2065
10510TIP3    H153021   4.867   0.733   0.738 -0.8833  0.9263 -0.4569
10510TIP3    H253022   4.832   0.779   0.878 -1.9125  2.0017 -1.0463
10511TIP3   OH253023   2.841   1.358   1.415 -0.3867  0.4246  0.0379
10511TIP3    H153024   2.759   1.332   1.457  0.2236 -1.4429  0.1269
10511TIP3    H253025   2.894   1.395   1.485 -0.4836  0.0078  0.3323
10512TIP3   OH253026   6.237   2.436   1.908 -0.2169 -0.8172  0.2598
10512TIP3    H153027   6.272   2.366   1.964 -1.2856 -1.5803  0.0065
10512TIP3    H253028   6.313   2.491   1.889  0.0816 -0.0946  3.0313
10513TIP3   OH253029   3.965   6.607  15.991 -0.6035 -0.1453 -0.4745
10513TIP3    H153030   3.981   6.531  16.048  0.2164  1.6171  1.7701
10513TIP3    H253031   4.038   6.607  15.929 -0.3036 -0.8447 -0.1333
10514TIP3   OH253032   0.259   5.384   5.429  0.4432 -0.4164  0.1766
10514TIP3    H153033   0.179   5.369   5.479  0.1037 -1.0748 -0.5440
10514TIP3    H253034   0.322   5.416   5.493 -0.7031  1.1855  0.5786
10515TIP3   OH253035   3.155   3.723  11.183 -0.2226  0.3713 -0.1678
10515TIP3    H153036   3.112   3.807  11.166  0.7758  0.8462 -0.3924
10515TIP3    H253037   3.205   3.706  11.104  0.4825  0.1265  0.3288
10516TIP3   OH253038   1.884   6.422   3.753 -0.4467 -0.4774  0.5652
10516TIP3    H153039   1.914   6.331   3.748 -0.4765 -0.4156 -1.5759
10516TIP3    H253040   1.926   6.457   3.832  0.9963 -1.8502  0.4493
10517TIP3   OH253041   5.698   6.042  14.702  0.4095 -0.4543  0.1605
10517TIP3    H153042   5.769   5.993  14.660  0.4545 -1.0248  0.8960
10517TIP3    H253043   5.723   6.134  14.689  0.3826 -0.6078 -1.1132
10518TIP3   OH253044   6.442   3.129   5.847 -0.4144  0.7167  0.6101
10518TIP3    H153045   6.469   3.159   5.934 -1.7571  0.3342  1.1897
10518TIP3    H253046   6.366   3.072   5.864 -1.8580  2.0783 -0.9372
10519TIP3   OH253047   5.037   2.857   0.018  0.6365 -0.0374 -0.1288
10519TIP3    H153048   4.991   2.851  -0.066  0.6423  0.9295 -0.2173
10519TIP3    H253049   5.033   2.950   0.040 -1.6100 -0.5748  2.1951
10520TIP3   OH253050   6.542   3.380   4.130  0.1848  0.5997  0.0509
10520TIP3    H153051   6.575   3.394   4.219  0.2267  2.2024 -0.1819
10520TIP3    H253052   6.517   3.468   4.100  1.1219  0.2506 -1.8992
10521TIP3   OH253053   4.134   5.383  11.447  0.7547  0.2256  0.2923
10521TIP3    H153054   4.092   5.370  11.533 -0.5282 -2.9315 -0.6500
10521TIP3    H253055   4.199   5.313  11.443  2.1412  1.5269 -0.6060
10522TIP3   OH253056   3.218   6.310   2.398 -0.1491 -0.0271 -0.7645
10522TIP3    H153057   3.284   6.358   2.450 -1.2637 -0.5028  1.1925
10522TIP3    H253058   3.139   6.363   2.406 -1.1985 -1.7318  0.7773
10523TIP3   OH253059   6.119   6.576  12.410 -0.2089  0.8758  0.6156
10523TIP3    H153060   6.074   6.599  12.492 -1.6381  0.9434 -0.1584
10523TIP3    H253061   6.053   6.529  12.359  1.6813 -2.4457  0.9241
10524TIP3   OH253062   3.275   1.436  17.167  0.0547  0.4655 -0.6213
10524TIP3    H153063   3.343   1.371  17.151 -0.6769 -1.2228  2.4110
10524TIP3    H253064   3.323   1.515  17.191  1.1108 -0.9877  2.5271
10525TIP3   OH253065   5.988   1.189  11.842 -0.4780  0.3185 -0.0042
10525TIP3    H153066   6.064   1.208  11.786 -1.0306 -0.3616 -1.0101
10525TIP3    H253067   5.918   1.245  11.808 -1.4235 -1.6029 -1.4351
10526TIP3   OH253068   2.336   1.198  12.844 -0.2985  0.4416 -0.0160
10526TIP3    H153069   2.400   1.201  12.773 -0.4318  1.4551 -0.1135
10526TIP3    H253070   2.383   1.159  12.918 -0.3410 -1.1989 -0.8195
10527TIP3   OH253071   1.053   4.719  11.687 -0.0331  0.0443 -0.0770
10527TIP3    H153072   1.071   4.630  11.656 -0.0185  0.4519 -1.2998
10527TIP3    H253073   1.139   4.763  11.684  0.3089 -0.3414  2.1569
10528TIP3   OH253074   5.152   3.151   4.911  0.0480 -0.3444  0.3951
10528TIP3    H153075   5.093   3.224   4.896 -0.1524 -0.5885 -0.0239
10528TIP3    H253076   5.234   3.178   4.869 -0.3331 -0.7778 -0.6595
10529TIP3   OH253077   3.775   5.273   2.530  0.0068 -0.2846 -0.3511
10529TIP3    H153078   3.837   5.223   2.476 -0.7985 -0.0460 -1.5419
10529TIP3    H253079   3.815   5.359   2.539  1.1027 -0.9145  1.1800
10530TIP3   OH253080   3.708   5.704  15.354  0.3618  0.7164  0.0081
10530TIP3    H153081   3.750   5.719  15.439  0.0907  0.4202  0.1954
10530TIP3    H253082   3.774   5.658  15.302 -0.1819 -0.9771  0.7519
10531TIP3   OH253083   4.534   0.174   5.764 -0.2181  0.6104  0.5538
10531TIP3    H153084   4.611   0.133   5.802 -0.0889  0.3797  0.0474
10531TIP3    H253085   4.501   0.232   5.833  0.2531  0.5115  0.8630
10532TIP3   OH253086   3.044   0.710  13.532 -0.8530 -0.1165  0.6804
10532TIP3    H153087   3.138   0.723  13.547 -0.5418 -2.0405  0.6049
10532TIP3    H253088   3.015   0.659  13.607 -1.8076  0.2330  0.5619
10533TIP3   OH253089   1.652   5.665   2.628  0.0769  0.2440 -0.5944
10533TIP3    H153090   1.667   5.737   2.689 -0.0540 -0.0680 -0.1921
10533TIP3    H253091   1.719   5.600   2.649  0.0123  0.1217 -0.7622
10534TIP3   OH253092   4.257   2.487  13.584  0.4748 -0.1734 -0.2159
10534TIP3    H153093   4.172   2.457  13.617  0.8178 -2.2872 -1.1258
10534TIP3    H253094   4.239   2.515  13.494  0.6658 -0.2760 -0.2858
10535TIP3   OH253095   5.238   2.427  14.839  0.3422  0.2471 -0.2590
10535TIP3    H153096   5.228   2.502  14.897 -1.0356 -0.1761  0.0852
10535TIP3    H253097   5.326   2.436  14.802  0.5870  1.4442  0.5847
10536TIP3   OH253098   5.412   4.594   5.430  0.1560 -0.0326  0.5036
10536TIP3    H153099   5.444   4.654   5.498  1.1792 -0.0707  0.0753
10536TIP3    H253100   5.317   4.602   5.434  0.2698  1.8304  0.2716
10537TIP3   OH253101   3.112   3.373  15.730  0.3461  1.0047  0.2532
10537TIP3    H153102   3.046   3.337  15.790 -0.5566  0.2295 -1.1316
10537TIP3    H253103   3.087   3.465  15.720  0.6134  1.1857  1.1904
10538TIP3   OH253104   1.715   0.226   5.865 -0.1096  0.2560 -0.1520
10538TIP3    H153105   1.702   0.286   5.939  1.9864  0.7422 -0.1133
10538TIP3    H253106   1.639   0.240   5.809 -0.2053  2.2142  0.3908
10539TIP3   OH253107   6.064   0.670   5.047  0.3552  0.4990 -0.3883
10539TIP3    H153108   6.120   0.630   4.980 -0.5691  1.0897 -1.5389
10539TIP3    H253109   5.981   0.685   5.003 -1.1840 -1.4784  1.5833
10540TIP3   OH253110   4.274   4.401   5.078 -0.2248 -0.6551  0.5362
10540TIP3    H153111   4.234   4.405   4.991 -2.0345  0.4224  1.3630
10540TIP3    H253112   4.367   4.417   5.063 -0.6871  0.7690 -1.0842
10541TIP3   OH253113   3.793   2.903   1.037 -0.0710  0.4688  0.1761
10541TIP3    H153114   3.728   2.961   0.996 -0.8752  1.3968  2.6073
10541TIP3    H253115   3.742   2.844   1.092  0.9935 -0.4848  0.1899
10542TIP3   OH253116   6.757   5.882   2.444  0.5936  0.1735 -0.2951
10542TIP3    H153117   6.821   5.931   2.496 -0.0709  0.3877  0.3394
10542TIP3    H253118   6.701   5.950   2.405 -0.2962 -0.0677  0.5378
10543TIP3   OH253119   4.267   1.365  11.792 -0.6209 -0.6073 -0.1695
10543TIP3    H153120   4.248   1.410  11.710  0.5620 -0.3519 -0.3097
10543TIP3    H253121   4.347   1.315  11.775 -0.9056 -1.3402  0.5338
10544TIP3   OH253122   2.328   5.696   4.943 -0.4426 -0.1284  0.0065
10544TIP3    H153123   2.248   5.656   4.909 -0.5335  0.2606 -0.2381
10544TIP3    H253124   2.300   5.747   5.018 -0.6163  0.9883 -0.7978
10545TIP3   OH253125   1.532   1.650   3.380 -0.0768  0.7939  0.0414
10545TIP3    H153126   1.546   1.625   3.471 -1.3727 -1.9469 -0.4060
10545TIP3    H253127   1.455   1.707   3.382 -0.6801 -0.0337  0.5818
10546TIP3   OH253128   1.086   0.356  14.529 -0.0802 -0.0696  0.1360
10546TIP3    H153129   1.134   0.408  14.593 -1.8500  1.5627  0.2411
10546TIP3    H253130   1.001   0.341  14.569 -1.3050  1.1422 -1.8035
10547TIP3   OH253131   4.378   3.710   5.840  0.0237 -0.4126  0.0533
10547TIP3    H153132   4.471   3.699   5.856  0.2510  0.7422 -0.4268
10547TIP3    H253133   4.345   3.756   5.918 -0.0086 -0.1693 -0.1046
10548TIP3   OH253134   1.014   4.004   3.304 -0.5269 -0.0292  0.3218
10548TIP3    H153135   1.058   4.047   3.230 -0.9434 -1.1640 -0.6078
10548TIP3    H253136   0.999   3.915   3.274 -0.8236 -0.4722  1.7483
10549TIP3   OH253137   5.509   1.564  13.317  0.0647  0.4588 -0.2185
10549TIP3    H153138   5.455   1.543  13.241  1.4718  0.8748 -1.3773
10549TIP3    H253139   5.579   1.499  13.316  2.1902  2.6185 -1.4937
10550TIP3   OH253140   6.258   4.622  15.572 -0.0269  0.0399 -0.1086
10550TIP3    H153141   6.345   4.648  15.604 -0.3183  1.5681 -0.4921
10550TIP3    H253142   6.275   4.552  15.510  0.9328  0.3321 -0.1887
10551TIP3   OH253143   0.362   1.899   3.369 -0.7365  0.1755  0.4035
10551TIP3    H153144   0.290   1.885   3.430 -0.0864 -0.8064  0.9696
10551TIP3    H253145   0.441   1.886   3.422 -0.0755  2.6044  0.1570
10552TIP3   OH253146   4.483   3.933  11.518  0.0601 -0.0368 -0.4729
10552TIP3    H153147   4.389   3.951  11.517 -0.3547 -2.0672 -1.1374
10552TIP3    H253148   4.521   4.004  11.466 -0.9548  1.3350  0.5500
10553TIP3   OH253149   1.771   0.959   0.831  0.4627 -0.2345 -0.1434
10553TIP3    H153150   1.690   1.003   0.806  0.4799  0.8852  1.6034
10553TIP3    H253151   1.838   1.027   0.825  0.9353 -0.6617  0.2134
10554TIP3   OH253152   1.288   5.433  14.186  0.1629 -1.0303 -0.3104
10554TIP3    H153153   1.335   5.482  14.254 -0.6545 -0.9683  0.2261
10554TIP3    H253154   1.226   5.496  14.149 -0.1807 -1.3706 -0.3260
10555TIP3   OH253155   1.186   2.573  10.586 -0.0218 -0.1396  0.0039
10555TIP3    H153156   1.272   2.582  10.543 -0.1797  0.2745 -0.2326
10555TIP3    H253157   1.166   2.661  10.616  0.9954 -0.7562  2.7140
10556TIP3   OH253158   0.783   6.670  11.929 -0.8650  0.1361 -0.2485
10556TIP3    H153159   0.742   6.704  11.849 -3.4345 -1.1817  0.3895
10556TIP3    H253160   0.790   6.576  11.914  0.0344  0.0679  0.5227
10557TIP3   OH253161   1.099   1.037  11.871  0.3745 -0.4713 -0.0833
10557TIP3    H153162   1.027   0.977  11.891  0.0579  0.2539  0.9813
10557TIP3    H253163   1.061   1.124  11.875  1.4584 -0.0269  1.2278
10558TIP3   OH253164   3.174   2.900  17.004 -0.2181  0.3228  0.7148
10558TIP3    H153165   3.148   2.989  16.979  0.8249  0.7922  1.2702
10558TIP3    H253166   3.268   2.896  16.987 -0.0926 -0.3891  1.5249
10559TIP3   OH253167   5.324   2.835  11.409 -0.2800  0.6353 -0.1726
10559TIP3    H153168   5.336   2.924  11.374 -0.2761  0.8397  0.3410
10559TIP3    H253169   5.285   2.848  11.495 -0.0142  0.1475  0.0275
10560TIP3   OH253170   4.578   4.591  10.681  0.2512  0.5396 -0.1542
10560TIP3    H153171   4.489   4.560  10.702 -0.0373  2.5131  1.8858
10560TIP3    H253172   4.628   4.511  10.666 -1.9774 -0.6186 -2.0239
10561TIP3   OH253173   4.285   1.228  14.251  0.4219  0.0577 -0.1170
10561TIP3    H153174   4.195   1.240  14.280 -0.0113  1.7811 -1.9857
10561TIP3    H253175   4.332   1.305  14.283  1.9781 -2.0435  3.1535
10562TIP3   OH253176   5.546   1.842  14.145  0.0799 -0.4145  0.2702
10562TIP3    H153177   5.616   1.894  14.183 -2.0890  0.7551  3.0230
10562TIP3    H253178   5.536   1.877  14.056  2.2035  0.1101  0.1854
10563TIP3   OH253179   2.681   5.332  11.920  0.0607  0.4500  0.4413
10563TIP3    H153180   2.612   5.323  11.854  0.6009 -0.4240 -0.0235
10563TIP3    H253181   2.693   5.427  11.928 -0.5279  0.5897 -0.1713
10564TIP3   OH253182   1.896   4.385   0.775  0.6827  0.3582 -0.9236
10564TIP3    H153183   1.981   4.342   0.764  0.5531  0.4443 -2.3555
10564TIP3    H253184   1.885   4.438   0.697 -0.3257  1.0089 -0.3603
10565TIP3   OH253185   3.825   4.543   1.403 -0.2703  0.2330 -0.0077
10565TIP3    H153186   3.838   4.469   1.343 -0.0667  0.1609  0.1232
10565TIP3    H253187   3.889   4.528   1.473 -0.7867  0.0937  0.4414
10566TIP3   OH253188   4.691   5.205  10.574  0.3201 -0.1276 -0.0123
10566TIP3    H153189   4.676   5.111  10.576 -1.6038  0.1488 -0.0051
10566TIP3    H253190   4.787   5.214  10.579  0.4757 -2.0127  1.5379
10567TIP3   OH253191   4.751   0.601   4.327 -0.4100  0.0958  0.1276
10567TIP3    H153192   4.776   0.561   4.244  0.1341  0.1528  0.2594
10567TIP3    H253193   4.724   0.527   4.382  2.3270 -0.3715  0.9916
10568TIP3   OH253194   2.667   2.639   5.520  0.9642 -0.3335 -0.2891
10568TIP3    H153195   2.726   2.594   5.459 -0.7317 -0.5400 -1.8704
10568TIP3    H253196   2.584   2.592   5.512  0.1900  0.7879  0.8208
10569TIP3   OH253197   1.667   4.215  14.842 -0.1209 -0.0504  0.1211
10569TIP3    H153198   1.683   4.168  14.760  0.6687 -2.7612  1.6795
10569TIP3    H253199   1.751   4.215  14.888 -0.9667 -0.4661  1.7763
10570TIP3   OH253200   3.189   3.804  12.692 -0.7762  0.2576 -0.0437
10570TIP3    H153201   3.161   3.866  12.759  1.8821 -0.0783  1.5263
10570TIP3    H253202   3.158   3.719  12.723 -3.3182  0.5179 -1.5623
10571TIP3   OH253203   3.433   6.124  15.568  0.4521  0.0701  0.2208
10571TIP3    H153204   3.458   6.202  15.618  1.4610 -0.5055  0.6459
10571TIP3    H253205   3.486   6.054  15.606 -0.4000 -0.8143 -0.1934
10572TIP3   OH253206   3.228   1.146  11.240  0.0136 -0.7298  0.2215
10572TIP3    H153207   3.159   1.187  11.188  1.4367  1.1391 -0.3503
10572TIP3    H253208   3.307   1.157  11.186  1.2563 -0.1751  2.0672
10573TIP3   OH253209   4.924   2.963   0.450 -0.2083 -0.1433  0.1513
10573TIP3    H153210   4.933   3.054   0.421 -0.3090 -0.2735 -0.2906
10573TIP3    H253211   4.860   2.967   0.521 -1.6715 -0.1142 -1.1195
10574TIP3   OH253212   6.753   2.619  11.911 -0.2282  0.4436 -0.0608
10574TIP3    H153213   6.837   2.585  11.941 -1.0861 -1.4207  0.3924
10574TIP3    H253214   6.693   2.602  11.984 -0.8877  2.3763 -0.0914
10575TIP3   OH253215   0.743   3.711  14.545 -0.2979 -0.3247  0.6138
10575TIP3    H153216   0.774   3.796  14.575  1.2224 -0.8625  0.6526
10575TIP3    H253217   0.756   3.712  14.450  1.6317 -1.1885  0.8101
10576TIP3   OH253218   3.086   5.940  15.261 -0.2190 -0.0510  0.0482
10576TIP3    H153219   3.171   5.979  15.278 -1.1604  1.6656  1.0969
10576TIP3    H253220   3.097   5.847  15.281  1.3764  0.1577  0.2171
10577TIP3   OH253221   4.543   6.435  14.831  0.7847 -0.2485  0.2456
10577TIP3    H153222   4.545   6.490  14.752  5.4517  3.3572  2.3669
10577TIP3    H253223   4.513   6.494  14.900  0.4213 -2.1670  1.8160
10578TIP3   OH253224   1.218   0.471  14.755 -0.3123 -0.0473  0.4515
10578TIP3    H153225   1.219   0.455  14.850 -0.1353  0.6558  0.5757
10578TIP3    H253226   1.246   0.562  14.746 -1.8367  0.3954 -0.1803
10579TIP3   OH253227   6.082   2.846   0.503 -0.2239  0.3066  0.2721
10579TIP3    H153228   6.117   2.810   0.584  1.2709 -0.0390 -0.4952
10579TIP3    H253229   6.018   2.782   0.473 -1.0642  0.6183  1.3476
10580TIP3   OH253230   0.249   5.202  13.161  0.2954 -0.1410 -0.3898
10580TIP3    H153231   0.336   5.240  13.155 -0.5292  1.8046 -0.8881
10580TIP3    H253232   0.244   5.166  13.249  1.1558  0.9423  0.1228
10581TIP3   OH253233   4.752   2.296  11.766 -0.1929 -0.2469  0.4290
10581TIP3    H153234   4.709   2.371  11.807 -0.8544  0.8823 -2.1326
10581TIP3    H253235   4.715   2.293  11.677  1.6235 -2.1218 -0.3420
10582TIP3   OH253236   4.740   4.975   1.544  0.5160  0.5552  0.0955
10582TIP3    H153237   4.815   4.951   1.490  0.9536  1.0381  0.4800
10582TIP3    H253238   4.724   5.067   1.524  0.5809  0.6947  0.6620
10583TIP3   OH253239   1.229   2.857   0.283 -0.2121 -0.0701  0.2659
10583TIP3    H153240   1.222   2.811   0.366  2.1077  0.0348  0.5826
10583TIP3    H253241   1.219   2.950   0.306  0.3955 -0.0434  0.4448
10584TIP3   OH253242   6.060   3.367  16.491  0.3825 -0.7407 -0.6100
10584TIP3    H153243   6.023   3.455  16.487  1.3695 -0.3595 -2.6591
10584TIP3    H253244   5.984   3.309  16.480  0.0649 -0.0243 -2.6520
10585TIP3   OH253245   2.641   4.721   0.936 -0.3688 -0.0226 -0.5567
10585TIP3    H153246   2.597   4.637   0.948  0.8093 -0.4643  0.8966
10585TIP3    H253247   2.570   4.783   0.915 -1.1298 -1.5581 -2.9606
10586TIP3   OH253248   4.062   5.886   3.111 -0.1603 -0.0834  0.0932
10586TIP3    H153249   4.060   5.814   3.048 -0.0409  0.7666 -0.9113
10586TIP3    H253250   4.147   5.927   3.098 -1.4409  2.2677 -1.7517
10587TIP3   OH253251   4.392   0.193  15.846  0.0262  0.1494 -0.4077
10587TIP3    H153252   4.400   0.154  15.933  0.9919 -0.8883 -0.9457
10587TIP3    H253253   4.309   0.159  15.811 -0.2451  0.3808 -0.0015
10588TIP3   OH253254   6.660   1.700   4.332 -0.2308 -0.0150  0.1928
10588TIP3    H153255   6.616   1.691   4.247  1.0734 -2.0805 -0.3560
10588TIP3    H253256   6.589   1.713   4.395 -1.4031 -0.5981 -0.9642
10589TIP3   OH253257   2.837   3.304   2.722  0.0281  0.0608  0.0917
10589TIP3    H153258   2.845   3.212   2.748  0.5916  0.5159  1.6630
10589TIP3    H253259   2.857   3.305   2.629  2.8349 -1.0676  0.5704
10590TIP3   OH253260   3.197   3.594   2.651  0.3221 -0.2548  0.2318
10590TIP3    H153261   3.179   3.574   2.743  2.0184 -1.2563  0.3885
10590TIP3    H253262   3.230   3.684   2.652 -0.2578 -0.0385  0.5103
10591TIP3   OH253263   0.538   0.237   4.713 -0.1720 -0.6062  0.0423
10591TIP3    H153264   0.510   0.267   4.627 -0.5191 -0.0184  0.3515
10591TIP3    H253265   0.529   0.142   4.710  1.8426 -0.8251 -1.2810
10592TIP3   OH253266   1.410   4.967  16.140 -0.2072  0.5380 -0.7061
10592TIP3    H153267   1.335   5.020  16.114 -1.9743 -1.3169  0.3525
10592TIP3    H253268   1.424   4.990  16.232  0.2329  0.5363 -0.7701
10593TIP3   OH253269   1.363   3.424  13.770  0.5909  0.7303  0.1532
10593TIP3    H153270   1.425   3.353  13.790 -0.5136 -0.2368  0.2409
10593TIP3    H253271   1.397   3.463  13.689  2.1940  1.2751  1.0427
10594TIP3   OH253272   1.267   0.403   3.581 -0.0461 -0.4202  0.2298
10594TIP3    H153273   1.294   0.441   3.498 -1.4224 -1.7937 -0.8974
10594TIP3    H253274   1.174   0.424   3.589  0.0026 -0.5402  1.3031
10595TIP3   OH253275   6.750   3.278   4.853 -0.3750  0.5157  0.0329
10595TIP3    H153276   6.670   3.228   4.834 -0.2915  0.3189  0.1947
10595TIP3    H253277   6.779   3.245   4.938  1.1687 -1.0833 -1.0404
10596TIP3   OH253278   1.726   0.662   2.539  0.0624 -0.1525  0.3033
10596TIP3    H153279   1.718   0.639   2.632  1.5461 -0.0394  0.4752
10596TIP3    H253280   1.819   0.679   2.526 -0.4365  2.2124 -0.6607
10597TIP3   OH253281   1.021   3.351   2.070 -0.0535  0.0333 -0.6408
10597TIP3    H153282   1.052   3.277   2.019  0.9735  1.3321 -1.9923
10597TIP3    H253283   1.100   3.399   2.095 -0.5338 -0.3613  1.9635
10598TIP3   OH253284   5.807   3.029   5.413 -0.3131 -0.2156 -0.0749
10598TIP3    H153285   5.770   2.999   5.496 -0.2188 -0.4494 -0.1175
10598TIP3    H253286   5.858   2.955   5.381  2.8203  1.0617  1.5174
10599TIP3   OH253287   3.116   5.070   3.127 -0.3456 -0.1073 -0.2797
10599TIP3    H153288   3.144   5.148   3.080 -1.2031 -0.3276 -1.1956
10599TIP3    H253289   3.024   5.087   3.149 -0.7178 -1.0705 -1.0076
10600TIP3   OH253290   2.074   0.250   2.200  0.5245 -0.4305  0.5247
10600TIP3    H153291   2.021   0.236   2.278  0.7693 -0.5651  0.6647
10600TIP3    H253292   2.155   0.291   2.231 -0.5134  2.2206  0.0504
10601TIP3   OH253293   3.382   0.842  11.637 -0.0765  0.1013 -0.4401
10601TIP3    H153294   3.308   0.807  11.685 -0.1392  1.8980  0.8990
10601TIP3    H253295   3.352   0.928  11.606  1.3433  0.7978 -0.0035
10602TIP3   OH253296   5.116   1.390   0.609  0.0885 -0.2221  0.2004
10602TIP3    H153297   5.047   1.405   0.545  0.0148 -0.8635  0.1207
10602TIP3    H253298   5.125   1.473   0.655 -0.6049 -0.0731  0.0812
10603TIP3   OH253299   3.068   2.258  13.890 -0.3285  0.1090  0.2022
10603TIP3    H153300   3.102   2.200  13.823 -2.0085 -0.2733 -0.3759
10603TIP3    H253301   2.989   2.214  13.922 -1.9079  2.1846 -0.5612
10604TIP3   OH253302   0.444   1.232   3.329  0.1502 -0.3535 -0.2291
10604TIP3    H153303   0.475   1.303   3.273  0.5326  0.5983  1.1245
10604TIP3    H253304   0.516   1.218   3.391 -1.3853  0.7750  1.9408
10605TIP3   OH253305   1.447   2.734  12.993  0.6740 -0.1580  0.0162
10605TIP3    H153306   1.352   2.730  12.987  0.5063 -0.7642  2.2347
10605TIP3    H253307   1.476   2.644  12.979  0.9761  0.0975 -1.0712
10606TIP3   OH253308   3.777   2.102  15.652 -0.1941  0.3598  0.0131
10606TIP3    H153309   3.855   2.067  15.609 -0.5496 -1.5675  0.8357
10606TIP3    H253310   3.810   2.171  15.710  0.8575 -0.1930  0.0841
10607TIP3   OH253311   4.914   2.254  15.306 -0.4920 -0.5392  0.0389
10607TIP3    H153312   4.893   2.222  15.218  1.0312 -0.1218 -0.5111
10607TIP3    H253313   4.885   2.183  15.364 -0.2979 -1.4279 -0.9077
10608TIP3   OH253314   6.308   6.126  12.464  0.2760 -0.0471  0.5800
10608TIP3    H153315   6.256   6.149  12.541  2.7905  0.4124  2.2668
10608TIP3    H253316   6.251   6.147  12.390 -1.6133  1.2014  2.2685
10609TIP3   OH253317   4.572   1.826  13.840  0.1175  0.8051  0.3232
10609TIP3    H153318   4.524   1.900  13.803 -1.1351  0.9462  2.1401
10609TIP3    H253319   4.552   1.828  13.933  0.9209 -1.1991  0.5854
10610TIP3   OH253320   4.380   3.665  11.512 -0.3541 -0.3045 -0.2487
10610TIP3    H153321   4.441   3.603  11.551  0.6814  1.0137  0.3145
10610TIP3    H253322   4.416   3.751  11.534 -1.0965  0.5037 -2.0164
10611TIP3   OH253323   3.202   0.246  11.818 -0.1682  0.1828 -0.7395
10611TIP3    H153324   3.266   0.312  11.790  0.9394 -0.5694 -0.0873
10611TIP3    H253325   3.181   0.198  11.738 -0.8354  1.1709 -1.1831
10612TIP3   OH253326   2.004   4.623  17.141  0.5678  0.0173 -0.0961
10612TIP3    H153327   1.916   4.587  17.133  1.0015 -1.2537  0.5051
10612TIP3    H253328   2.062   4.547  17.134  1.6627  0.9019 -1.0835
10613TIP3   OH253329   2.879   0.134   2.610 -0.0360 -1.1290 -0.2983
10613TIP3    H153330   2.841   0.048   2.593  0.4386 -0.9555 -2.4879
10613TIP3    H253331   2.967   0.115   2.643  0.1184 -1.5003 -0.9035
10614TIP3   OH253332   2.695   1.458   1.922 -0.2538 -0.0396 -0.0616
10614TIP3    H153333   2.656   1.467   1.835  0.6328 -0.5751 -0.5221
10614TIP3    H253334   2.762   1.391   1.912 -0.5420 -0.5431  1.1766
10615TIP3   OH253335   3.749   1.979   3.155  0.8189 -0.7539 -0.0527
10615TIP3    H153336   3.764   2.009   3.244 -1.1443 -1.7045  0.6592
10615TIP3    H253337   3.708   1.893   3.165 -1.2689 -0.0590 -1.7751
10616TIP3   OH253338   1.453   2.172  12.316  0.1502 -0.4975 -0.7692
10616TIP3    H153339   1.469   2.078  12.322 -2.7777 -1.0214  1.1217
10616TIP3    H253340   1.448   2.201  12.407 -2.5633  0.6787 -1.2026
10617TIP3   OH253341   0.439   2.446  12.796  0.1375  0.1546  0.0038
10617TIP3    H153342   0.502   2.506  12.835  0.1450 -0.2753  0.6661
10617TIP3    H253343   0.393   2.499  12.731 -0.8375  1.3073  1.5512
10618TIP3   OH253344   1.517   3.558   3.877 -0.7360 -0.3567  0.5245
10618TIP3    H153345   1.441   3.571   3.933 -0.1712  1.1742  0.9912
10618TIP3    H253346   1.556   3.645   3.869 -0.5042 -0.6144 -1.8555
10619TIP3   OH253347   3.137   0.207   2.258 -0.3456 -0.3998  0.1731
10619TIP3    H153348   3.207   0.175   2.200  0.9559 -0.0493  1.4823
10619TIP3    H253349   3.143   0.151   2.335  0.8832  1.8374  1.8063
10620TIP3   OH253350   4.909   5.726   6.818  0.7856  0.1151  0.0623
10620TIP3    H153351   4.816   5.734   6.797  0.2990  2.6853  2.6361
10620TIP3    H253352   4.924   5.631   6.826 -1.6527 -0.3384 -0.1041
10621TIP3   OH253353   0.930   3.703  16.148 -0.1342  0.1323 -0.1830
10621TIP3    H153354   0.913   3.657  16.230 -0.4795 -1.0258 -0.8831
10621TIP3    H253355   0.907   3.640  16.080 -1.4719  1.6359 -1.2025
10622TIP3   OH253356   5.972   4.002   0.185 -0.0013  0.3200  0.4495
10622TIP3    H153357   5.982   3.932   0.121  0.7304  1.7795 -1.1226
10622TIP3    H253358   6.029   4.072   0.153  0.3215  1.1546  2.6719
10623TIP3   OH253359   5.284   4.601  17.107 -0.2817  0.5362 -0.0810
10623TIP3    H153360   5.236   4.555  17.038  1.1872 -1.9109  0.3975
10623TIP3    H253361   5.367   4.625  17.066 -0.5641  1.7769  0.0337
10624TIP3   OH253362   1.312   2.028   5.452 -0.0484 -0.0264  0.0179
10624TIP3    H153363   1.337   2.084   5.525  0.9212 -0.0092 -0.2990
10624TIP3    H253364   1.329   1.939   5.483  1.5037  0.0311 -0.5516
10625TIP3   OH253365   5.544   2.755   5.539  0.2186  0.2863 -0.0594
10625TIP3    H153366   5.601   2.754   5.616 -0.0154 -2.3431  0.1456
10625TIP3    H253367   5.463   2.713   5.567  0.2663 -1.0987 -1.8172
10626TIP3   OH253368   5.011   1.648  15.456  0.2046  0.3252  0.8813
10626TIP3    H153369   5.094   1.605  15.479  0.4847  0.4393  0.0993
10626TIP3    H253370   5.031   1.698  15.377 -0.3490  1.1852  1.2698
10627TIP3   OH253371   3.689   1.817   5.047  0.3071  0.3668 -0.2178
10627TIP3    H153372   3.759   1.799   5.110  0.2252  0.6134 -0.0533
10627TIP3    H253373   3.688   1.912   5.039  0.3838  0.3291 -0.6724
10628TIP3   OH253374   5.088   5.793  14.044  0.0673  0.2888  0.4988
10628TIP3    H153375   5.181   5.810  14.028  0.3158 -0.0516  1.4933
10628TIP3    H253376   5.047   5.879  14.039  0.5684  0.5537  0.8249
10629TIP3   OH253377   4.968   0.211  14.878  0.4022  0.1300  0.2077
10629TIP3    H153378   4.940   0.122  14.898 -2.3247  0.9683  0.4532
10629TIP3    H253379   4.960   0.218  14.782 -3.3166  1.1810  0.4453
10630TIP3   OH253380   4.687   2.798   3.328 -0.3220 -0.6769  0.0043
10630TIP3    H153381   4.610   2.744   3.346 -0.9694  0.0391 -0.5391
10630TIP3    H253382   4.707   2.840   3.411 -0.4979 -0.9065  0.1630
10631TIP3   OH253383   2.814   4.606  13.284 -0.2119 -0.5003  0.0821
10631TIP3    H153384   2.895   4.579  13.239 -0.4060 -0.7482 -0.1287
10631TIP3    H253385   2.785   4.683  13.236  0.5889  0.3733  0.9697
10632TIP3   OH253386   5.995   6.099  15.397  0.0365 -0.2501 -0.2118
10632TIP3    H153387   5.916   6.153  15.391  0.4713  0.5174  0.7450
10632TIP3    H253388   6.026   6.092  15.307 -0.3570  0.6035 -0.4227
10633TIP3   OH253389   5.377   2.437  16.109  0.5891 -0.3517 -0.1732
10633TIP3    H153390   5.397   2.515  16.163  0.4502  0.8635 -1.8066
10633TIP3    H253391   5.393   2.363  16.168 -1.2667  0.9184  2.1215
10634TIP3   OH253392   6.181   1.638  14.913  0.7651  0.2597 -0.2457
10634TIP3    H153393   6.136   1.677  14.838 -1.4564  0.2614  0.9902
10634TIP3    H253394   6.199   1.548  14.886  2.9127  1.0973 -1.8908
10635TIP3   OH253395   6.267   2.492  15.753  0.2047 -0.0802 -0.8598
10635TIP3    H153396   6.321   2.536  15.687  1.9970 -1.6986 -0.5393
10635TIP3    H253397   6.270   2.551  15.829  0.2802  0.5376 -1.3300
10636TIP3   OH253398   1.224   2.644  14.444 -0.3975 -0.7843  0.2484
10636TIP3    H153399   1.281   2.637  14.520  2.1183  1.2371 -1.2872
10636TIP3    H253400   1.242   2.565  14.393  0.9422 -0.2921 -0.0912
10637TIP3   OH253401   2.807   2.424   1.440 -0.1481  0.2031 -0.0951
10637TIP3    H153402   2.832   2.516   1.438 -0.4979  0.2897 -0.6861
10637TIP3    H253403   2.803   2.398   1.348 -2.7239  0.3362 -0.1066
10638TIP3   OH253404   0.733   1.077  10.755 -0.4654  0.8540  0.2561
10638TIP3    H153405   0.755   1.153  10.701  2.3795  0.9379  1.3121
10638TIP3    H253406   0.756   1.104  10.845 -0.5787 -0.8057  0.8214
10639TIP3   OH253407   5.866   4.358  17.203 -0.6882  0.1896 -0.0741
10639TIP3    H153408   5.897   4.319  17.121 -0.2494 -1.1330  0.6940
10639TIP3    H253409   5.912   4.443  17.207  2.0154 -1.1850  0.4362
10640TIP3   OH253410   4.772   3.268  15.474 -0.2000  0.6449  0.8169
10640TIP3    H153411   4.867   3.275  15.478 -0.0058 -0.7582 -0.3777
10640TIP3    H253412   4.749   3.212  15.549  0.3056 -1.5822 -0.5805
10641TIP3   OH253413   2.503   3.753   5.041  0.7818  0.2841  0.5556
10641TIP3    H153414   2.545   3.781   5.122  1.1049 -0.4784  0.6561
10641TIP3    H253415   2.419   3.716   5.069  1.0872 -0.3922  0.5929
10642TIP3   OH253416   4.481   5.223  17.127  0.2424  0.2280 -0.2282
10642TIP3    H153417   4.541   5.222  17.052  0.9426  0.3784  0.3185
10642TIP3    H253418   4.399   5.188  17.093  0.5325  0.3604 -1.0825
10643TIP3   OH253419   0.924   1.273  11.765  0.1082  0.3723  0.0444
10643TIP3    H153420   0.872   1.241  11.691  0.6107  0.7410 -0.4746
10643TIP3    H253421   1.006   1.301  11.727  1.5470 -2.0961  1.1048
10644TIP3   OH253422   4.540   5.799   5.953  0.5061  0.0601  0.1950
10644TIP3    H153423   4.579   5.871   5.904 -1.2835  1.1104  0.1964
10644TIP3    H253424   4.534   5.727   5.891 -1.8454  1.4051 -1.3044
10645TIP3   OH253425   3.708   3.379   4.270 -0.5522  0.0113 -0.2059
10645TIP3    H153426   3.657   3.379   4.350  1.2201 -1.2746  0.9959
10645TIP3    H253427   3.731   3.287   4.256  0.0526  0.3484 -1.6082
10646TIP3   OH253428   6.225   1.488  14.003 -0.2346  0.3175  0.1718
10646TIP3    H153429   6.206   1.483  13.909  2.1325  0.8837 -0.4025
10646TIP3    H253430   6.149   1.532  14.040 -0.2249  2.2484 -1.8594
10647TIP3   OH253431   1.438   0.273   1.287 -0.1451  0.0195  0.3466
10647TIP3    H153432   1.519   0.223   1.298  0.4788  0.6004 -1.3191
10647TIP3    H253433   1.371   0.207   1.269  0.6705 -0.2697 -1.8480
10648TIP3   OH253434   0.801   6.026  16.189 -0.0285  0.7028 -0.7149
10648TIP3    H153435   0.838   5.948  16.147  0.3506  0.4643  0.0435
10648TIP3    H253436   0.861   6.044  16.262 -1.7387 -0.0878  0.9565
10649TIP3   OH253437   1.470   3.155  16.259  0.0950 -0.1925  0.4649
10649TIP3    H153438   1.379   3.182  16.266 -0.0259 -0.8239  1.7788
10649TIP3    H253439   1.490   3.116  16.345  1.5742 -0.1288  0.1859
10650TIP3   OH253440   2.194   5.555   1.309  0.0207  0.8240  0.9806
10650TIP3    H153441   2.222   5.494   1.242  0.1912  0.9845  0.9066
10650TIP3    H253442   2.155   5.500   1.377 -0.6431  0.6964  0.5144
10651TIP3   OH253443   1.202   2.203   4.500  0.3638  0.2060  0.1086
10651TIP3    H153444   1.159   2.255   4.568 -0.3214 -0.3379  0.0969
10651TIP3    H253445   1.131   2.172   4.443  0.5849 -1.7400  0.7948
10652TIP3   OH253446   4.935   5.222   6.023 -0.7323  0.4089 -0.3169
10652TIP3    H153447   4.953   5.310   5.990 -1.5411  0.1715 -1.4465
10652TIP3    H253448   4.882   5.236   6.101 -1.8527  0.9243 -1.1393
10653TIP3   OH253449   3.838   0.709   1.490 -0.3196  0.7317 -0.1730
10653TIP3    H153450   3.808   0.750   1.409 -0.8755  0.2265 -0.2298
10653TIP3    H253451   3.815   0.771   1.559 -2.8551 -0.2108 -0.0428
10654TIP3   OH253452   3.108   6.389  14.634  0.1888  0.1855 -0.1000
10654TIP3    H153453   3.150   6.461  14.588  0.2333 -0.0135 -0.3722
10654TIP3    H253454   3.159   6.380  14.715  1.6584 -1.0218 -1.0851
10655TIP3   OH253455   2.624   1.363  11.208 -0.3398  0.1249  0.4991
10655TIP3    H153456   2.606   1.279  11.167  0.3794 -0.4359  1.3001
10655TIP3    H253457   2.704   1.394  11.166 -0.4887  0.3183  0.3536
10656TIP3   OH253458   5.229   2.041   0.314  0.6411  0.9152 -0.0506
10656TIP3    H153459   5.315   2.065   0.350  0.4572  2.4239 -0.5542
10656TIP3    H253460   5.249   1.977   0.245  1.4036  1.4765 -0.3676
10657TIP3   OH253461   0.266   4.633  17.078  0.1420  0.0877 -0.1543
10657TIP3    H153462   0.179   4.615  17.114  0.8073 -1.5182  0.7606
10657TIP3    H253463   0.305   4.546  17.066  1.1218  0.7200 -1.8507
10658TIP3   OH253464   2.812   3.138  15.660  0.2486 -0.1953  0.2905
10658TIP3    H153465   2.883   3.073  15.657  0.5145  0.0256  1.1981
10658TIP3    H253466   2.828   3.195  15.585  1.7481  0.5364  1.0977
10659TIP3   OH253467   5.069   1.111   4.123  0.5363 -0.0192  0.2300
10659TIP3    H153468   5.146   1.061   4.152  0.7372  0.4519  0.5085
10659TIP3    H253469   5.099   1.161   4.048  0.3438 -0.2799 -0.0234
10660TIP3   OH253470   2.326   1.524  11.310  0.3336  0.4487 -0.2950
10660TIP3    H153471   2.311   1.449  11.253 -0.1833 -2.0574  2.8033
10660TIP3    H253472   2.415   1.512  11.343 -0.2624  0.2322  1.3806
10661TIP3   OH253473   3.919   2.138  14.570  0.1855 -0.0190  0.4311
10661TIP3    H153474   3.978   2.064  14.555  2.3756  1.9577 -1.6684
10661TIP3    H253475   3.977   2.213  14.581 -1.9025  1.3489  3.3481
10662TIP3   OH253476   5.336   5.911   1.622 -0.7850 -0.1095  0.6811
10662TIP3    H153477   5.330   5.847   1.551  2.4218 -0.1544  0.2868
10662TIP3    H253478   5.429   5.913   1.644 -0.8733  3.6989  1.3769
10663TIP3   OH253479   6.597   4.286   4.447  0.1732  0.1726 -0.4447
10663TIP3    H153480   6.547   4.357   4.407  0.1721 -0.5748 -1.8230
10663TIP3    H253481   6.607   4.221   4.378  0.7119 -0.9077  0.6038
10664TIP3   OH253482   5.815   3.763   2.842  0.1318  0.3565 -0.1867
10664TIP3    H153483   5.860   3.842   2.871  0.9742  0.0252 -0.5304
10664TIP3    H253484   5.872   3.691   2.873 -0.3681 -0.0921 -0.2951
10665TIP3   OH253485   0.301   1.688   5.144 -0.4939  0.3052 -0.6716
10665TIP3    H153486   0.377   1.639   5.113  0.6003  1.1919  0.4774
10665TIP3    H253487   0.333   1.778   5.154 -1.1448  0.3560  1.5694
10666TIP3   OH253488   3.297   2.717   6.577 -0.4957  0.2799 -0.0456
10666TIP3    H153489   3.230   2.770   6.621  0.2056  0.5938  0.6767
10666TIP3    H253490   3.375   2.773   6.577 -0.3628  0.1089 -1.3236
10667TIP3   OH253491   3.666   0.689  15.790 -0.6820 -0.3150 -0.0626
10667TIP3    H153492   3.749   0.674  15.836 -0.3691  1.3148 -0.0512
10667TIP3    H253493   3.690   0.692  15.698 -0.9061 -0.9274 -0.1445
10668TIP3   OH253494   5.822   1.586   4.565 -0.3865 -0.0453 -0.9594
10668TIP3    H153495   5.803   1.552   4.652 -2.9593 -2.4669 -2.2853
10668TIP3    H253496   5.823   1.681   4.576 -0.3837 -0.2766  1.7143
10669TIP3   OH253497   6.384   4.669  17.266 -0.1861 -0.2120 -0.2295
10669TIP3    H153498   6.453   4.620  17.221 -1.5199 -0.6583 -1.9001
10669TIP3    H253499   6.380   4.631  17.354  1.6396 -0.1840 -0.0922
10670TIP3   OH253500   2.176   6.575  11.702 -0.0982  0.0708 -0.4544
10670TIP3    H153501   2.111   6.506  11.714 -0.2211  0.3143  0.3501
10670TIP3    H253502   2.138   6.632  11.635 -1.2348  0.7937  0.7576
10671TIP3   OH253503   4.957   1.318  14.884 -0.2234 -0.3926 -0.4710
10671TIP3    H153504   4.979   1.247  14.944 -0.5668 -0.7356 -0.7529
10671TIP3    H253505   4.962   1.397  14.938 -1.7181 -0.8099  0.3063
10672TIP3   OH253506   0.689   4.842  16.580  0.5482 -0.1573  0.0934
10672TIP3    H153507   0.784   4.854  16.592  0.5279  0.6898 -0.4435
10672TIP3    H253508   0.681   4.759  16.534  0.8578 -1.4828  2.3143
10673TIP3   OH253509   4.698   6.396   0.819  0.3368 -0.0560 -0.3642
10673TIP3    H153510   4.722   6.416   0.909  1.3645  1.4916 -0.9400
10673TIP3    H253511   4.716   6.477   0.770  0.0801 -0.9398 -2.0104
10674TIP3   OH253512   4.494   1.315   3.633 -0.5850  0.0664 -0.3871
10674TIP3    H153513   4.536   1.278   3.555  0.4642 -1.2943  0.7548
10674TIP3    H253514   4.486   1.408   3.614 -1.9326 -0.4534 -2.7822
10675TIP3   OH253515   5.755   1.657  12.824 -0.4367 -0.1217  0.1921
10675TIP3    H153516   5.761   1.574  12.872 -0.6295 -0.8714 -1.0466
10675TIP3    H253517   5.704   1.714  12.882  1.1762 -0.2587  1.8444
10676TIP3   OH253518   4.491   1.011   4.738  0.2243  0.1269 -0.3133
10676TIP3    H153519   4.574   0.964   4.724 -1.3933 -2.6143 -1.5857
10676TIP3    H253520   4.461   0.979   4.823  1.0164  2.1658  0.8075
10677TIP3   OH253521   3.584   5.083  14.419  0.5628 -0.3581  0.1256
10677TIP3    H153522   3.612   5.056  14.332 -0.3796 -0.8548 -0.0335
10677TIP3    H253523   3.604   5.177  14.422 -1.8388  0.3130 -1.6607
10678TIP3   OH253524   5.876   1.801  14.055 -0.4663 -0.4588  0.2697
10678TIP3    H153525   5.814   1.792  14.128 -0.6351  1.5372  0.4141
10678TIP3    H253526   5.946   1.857  14.090  0.0319 -0.4307 -0.7490
10679TIP3   OH253527   6.006   0.309  11.467 -0.1938  0.3363 -0.5752
10679TIP3    H153528   6.063   0.324  11.392 -1.0018 -0.7906 -1.4550
10679TIP3    H253529   5.973   0.396  11.490 -0.5305  0.6128 -2.0283
10680TIP3   OH253530   0.888   2.017   2.607  0.0227 -0.1090  0.3200
10680TIP3    H153531   0.832   1.950   2.568  0.3275 -1.9582  2.7783
10680TIP3    H253532   0.827   2.083   2.640 -0.3204  0.5508 -1.4994
10681TIP3   OH253533   0.714   0.769   4.401 -0.1943  0.3742  0.4971
10681TIP3    H153534   0.663   0.744   4.478  0.0652  0.1646  0.6001
10681TIP3    H253535   0.731   0.687   4.356  1.1676  0.2793  1.1499
10682TIP3   OH253536   6.680   4.535   4.151 -0.1731  0.3170 -0.1211
10682TIP3    H153537   6.708   4.477   4.080 -2.6533  1.0083 -1.7583
10682TIP3    H253538   6.760   4.548   4.203  0.8518 -3.3316 -0.4857
10683TIP3   OH253539   4.062   3.183   0.631 -0.0459 -0.5475 -0.7470
10683TIP3    H153540   4.085   3.122   0.561 -1.0606  0.0713 -1.6495
10683TIP3    H253541   3.985   3.230   0.598  0.7902  1.3519 -0.1704
10684TIP3   OH253542   5.727   0.833  11.832 -0.3538 -0.5662  0.2192
10684TIP3    H153543   5.815   0.852  11.864 -0.3486  2.5490 -1.2380
10684TIP3    H253544   5.735   0.832  11.737 -1.7184 -1.4496  0.0841
10685TIP3   OH253545   5.296   6.568  12.762  0.1950  0.1992  0.7370
10685TIP3    H153546   5.283   6.565  12.668  1.0622 -1.3808  0.6486
10685TIP3    H253547   5.219   6.524  12.799 -0.0989  0.7371  0.7946
10686TIP3   OH253548   2.369   5.993   1.865  0.1437 -0.2864  0.2456
10686TIP3    H153549   2.387   6.021   1.955  1.0134 -1.2923  0.4182
10686TIP3    H253550   2.300   5.928   1.873 -0.4120  0.2818  0.0822
10687TIP3   OH253551   2.415   6.547   3.494 -0.0599  0.3423 -0.0046
10687TIP3    H153552   2.475   6.473   3.506  0.5872  0.7456 -0.6890
10687TIP3    H253553   2.338   6.509   3.452  1.2138  0.4071 -2.6027
10688TIP3   OH253554   6.446   2.633   2.103  0.5583  0.1480  0.1339
10688TIP3    H153555   6.396   2.698   2.153  1.0711 -0.8394  2.0235
10688TIP3    H253556   6.538   2.654   2.121  0.7306 -1.4999  1.4005
10689TIP3   OH253557   0.196   0.387  11.600  0.9466  0.6436 -0.3361
10689TIP3    H153558   0.138   0.321  11.639 -0.1947  2.1236  0.5394
10689TIP3    H253559   0.198   0.365  11.507 -0.7262  0.3300 -0.3241
10690TIP3   OH253560   0.533   4.584   1.952 -0.1042 -0.3530  0.6363
10690TIP3    H153561   0.454   4.623   1.990  0.2420  2.0184 -0.8760
10690TIP3    H253562   0.522   4.594   1.858  2.3721  0.9209  0.4057
10691TIP3   OH253563   4.667   3.132  16.624 -0.0273 -0.5965 -0.5294
10691TIP3    H153564   4.732   3.124  16.694 -1.3667 -1.3838  0.6682
10691TIP3    H253565   4.588   3.165  16.667 -0.3912  0.5867 -2.0029
10692TIP3   OH253566   0.751   6.753   0.433  0.5233  0.3505  0.8403
10692TIP3    H153567   0.808   6.811   0.382  0.3081  0.9508  1.2785
10692TIP3    H253568   0.672   6.804   0.449  0.0941 -0.2653  0.7534
10693TIP3   OH253569   4.848   5.242  16.806 -0.5272  0.1840 -0.0073
10693TIP3    H153570   4.894   5.224  16.888  0.7831  0.3072 -0.7001
10693TIP3    H253571   4.784   5.310  16.829 -0.4997 -0.1227  1.0083
10694TIP3   OH253572   3.292   0.422  13.257  0.1000  0.1126  0.0466
10694TIP3    H153573   3.276   0.481  13.183 -0.3836  0.4248  0.3973
10694TIP3    H253574   3.206   0.405  13.293  0.0199 -2.1078 -1.0069
10695TIP3   OH253575   0.683   3.779  16.010  0.1313  0.0805  0.4160
10695TIP3    H153576   0.762   3.744  16.051  0.2407  0.7975  0.8264
10695TIP3    H253577   0.711   3.801  15.921  0.5755  0.9283  0.7529
10696TIP3   OH253578   4.635   2.632  10.691  0.0656 -0.1185  0.7434
10696TIP3    H153579   4.547   2.669  10.697  0.1833  0.3961 -0.2910
10696TIP3    H253580   4.667   2.630  10.781 -0.0124  2.2390  0.8916
10697TIP3   OH253581   5.024   2.908  12.986  0.1750  0.0309 -0.4836
10697TIP3    H153582   5.034   2.825  13.033 -2.0994 -0.4711 -0.7284
10697TIP3    H253583   5.049   2.888  12.896 -2.1093 -0.9845 -0.9646
10698TIP3   OH253584   2.026   0.135  16.359  0.3308 -0.3238 -0.7287
10698TIP3    H153585   2.043   0.054  16.406 -1.9873 -2.0515 -2.6051
10698TIP3    H253586   1.953   0.175  16.407  0.4367 -0.1710 -0.6963
10699TIP3   OH253587   3.226   5.028  16.287 -0.2540  0.1089  0.3811
10699TIP3    H153588   3.220   4.939  16.254 -0.8395  0.4827 -0.5804
10699TIP3    H253589   3.185   5.025  16.373  0.4866 -0.7104  0.7207
10700TIP3   OH253590   3.797   2.007   0.187  0.0760 -0.6751 -0.2038
10700TIP3    H153591   3.745   1.971   0.260  0.6005 -1.8216 -0.3862
10700TIP3    H253592   3.765   2.097   0.178 -0.1135 -0.5565  1.3406
10701TIP3   OH253593   3.274   1.289   1.941  0.2817  0.1759 -0.2263
10701TIP3    H153594   3.269   1.325   1.852 -1.7608 -3.5181 -1.8634
10701TIP3    H253595   3.339   1.219   1.934 -0.4335 -0.6352  0.9665
10702TIP3   OH253596   5.406   1.358   1.373  0.2280  0.6450  0.0646
10702TIP3    H153597   5.366   1.289   1.426  1.9291 -1.3514 -1.1064
10702TIP3    H253598   5.395   1.328   1.283  1.2707  1.7565 -0.4569
10703TIP3   OH253599   5.385   4.556   1.309 -0.1353  0.8321 -0.5897
10703TIP3    H153600   5.475   4.577   1.333  0.3717 -1.1353 -0.6548
10703TIP3    H253601   5.377   4.586   1.218  1.6080 -1.9817 -1.8167
10704TIP3   OH253602   1.271   2.453   0.623 -0.1710 -0.3639  0.2625
10704TIP3    H153603   1.344   2.402   0.589 -1.7282 -2.1574 -0.6172
10704TIP3    H253604   1.243   2.405   0.701  0.6083  1.2636  1.6006
10705TIP3   OH253605   5.606   1.805  16.824 -0.0347  0.2735 -0.2633
10705TIP3    H153606   5.661   1.883  16.816 -0.9694  1.0661  0.6831
10705TIP3    H253607   5.663   1.732  16.800  0.4576  1.3561 -2.6479
10706TIP3   OH253608   5.952   1.677  13.056 -0.8266  0.5174 -0.4926
10706TIP3    H153609   5.922   1.766  13.040 -0.0292  0.6662 -1.3044
10706TIP3    H253610   5.909   1.625  12.988 -1.8824  0.1453  0.4496
10707TIP3   OH253611   3.763   1.346  14.212  0.5111  0.2438  0.1551
10707TIP3    H153612   3.691   1.398  14.247 -0.3756 -0.3432 -0.7244
10707TIP3    H253613   3.728   1.310  14.130  0.9649 -1.9447  0.8571
10708TIP3   OH253614   4.841   4.609   5.310  0.5799 -0.1176  0.2818
10708TIP3    H153615   4.878   4.687   5.269  0.7453 -0.9224 -1.1589
10708TIP3    H253616   4.889   4.536   5.271 -1.3860 -1.0987 -0.4606
10709TIP3   OH253617   6.733   1.130   2.112 -0.1979  0.1399  0.3954
10709TIP3    H153618   6.792   1.057   2.130  0.0089  0.3264  0.4820
10709TIP3    H253619   6.661   1.119   2.174  0.1226  0.3374  0.8062
10710TIP3   OH253620   2.791   1.246  17.033  0.1324  0.5682  0.4401
10710TIP3    H153621   2.729   1.275  16.967  1.0764  1.0393 -0.2606
10710TIP3    H253622   2.877   1.269  16.998  0.7082  0.0361  1.4359
10711TIP3   OH253623   4.220   2.774   0.340  0.0110  0.1822 -0.0215
10711TIP3    H153624   4.163   2.702   0.369  0.2336 -0.0771 -0.2165
10711TIP3    H253625   4.222   2.764   0.244  0.9285 -0.2306  0.0339
10712TIP3   OH253626   0.425   5.593   0.728 -0.2590  0.4681 -0.3277
10712TIP3    H153627   0.407   5.567   0.818 -1.1445  0.6006 -0.4622
10712TIP3    H253628   0.375   5.532   0.674 -0.2791  0.8156 -0.7092
10713TIP3   OH253629   1.202   4.693  17.264 -0.1562  0.0575  0.0635
10713TIP3    H153630   1.152   4.692  17.346  0.4010  0.3642  0.4137
10713TIP3    H253631   1.259   4.616  17.270  0.5737  0.6125  0.4076
10714TIP3   OH253632   6.745   2.670   5.607  0.2381 -0.1735 -0.3932
10714TIP3    H153633   6.697   2.738   5.559 -0.4243 -0.8442 -0.6954
10714TIP3    H253634   6.679   2.632   5.666  1.2493  1.3143  1.8348
10715TIP3   OH253635   4.720   5.534  13.691  0.2060  0.0844 -0.5884
10715TIP3    H153636   4.765   5.561  13.611  0.1604  0.3481 -0.5290
10715TIP3    H253637   4.770   5.576  13.761 -0.5034  0.9167 -0.5598
10716TIP3   OH253638   2.745   0.013  13.056  0.5644 -0.2686  0.6847
10716TIP3    H153639   2.655  -0.018  13.064  1.2711 -2.3403  1.4057
10716TIP3    H253640   2.787  -0.049  12.997  1.5869  0.4914  0.5847
10717TIP3   OH253641   1.260   4.413   2.633  0.3880  0.3651  0.8257
10717TIP3    H153642   1.302   4.341   2.587  0.5712  1.3012 -0.5423
10717TIP3    H253643   1.326   4.445   2.695  1.3398  1.1355 -0.5451
10718TIP3   OH253644   2.136   3.709  17.383 -0.1395  0.2214 -0.1427
10718TIP3    H153645   2.108   3.795  17.352  2.0049  0.4263 -1.6835
10718TIP3    H253646   2.231   3.714  17.386  0.0701 -2.1920 -0.5432
10719TIP3   OH253647   3.833   0.276   4.548  0.3474 -0.3922 -0.0718
10719TIP3    H153648   3.777   0.312   4.479  2.1894  0.7169 -1.0625
10719TIP3    H253649   3.820   0.181   4.543 -1.3737 -0.1794 -0.2812
10720TIP3   OH253650   1.293   5.466   1.830  0.0084  0.3001  0.3482
10720TIP3    H153651   1.300   5.450   1.736  0.6021 -0.8019  0.5617
10720TIP3    H253652   1.265   5.383   1.867 -0.7392  0.8700  1.0995
10721TIP3   OH253653   1.909   5.285   5.248  0.1691 -0.1501 -0.0320
10721TIP3    H153654   1.858   5.222   5.198 -0.8309 -0.2534  1.0793
10721TIP3    H253655   1.892   5.263   5.340  0.6770  1.0302  0.3686
10722TIP3   OH253656   5.846   5.413  17.046  0.1757  0.1356  0.2176
10722TIP3    H153657   5.760   5.406  17.088 -0.9788 -1.5834 -2.2115
10722TIP3    H253658   5.887   5.489  17.088 -1.9843  0.2375  2.3512
10723TIP3   OH253659   3.707   4.917   4.067 -0.3087  0.5524  0.0469
10723TIP3    H153660   3.651   4.976   4.118 -0.7426 -0.0177  0.2318
10723TIP3    H253661   3.659   4.904   3.985 -0.5921 -0.1710  0.3245
10724TIP3   OH253662   1.109   6.425  16.384 -0.1911  0.0671 -0.3509
10724TIP3    H153663   1.149   6.502  16.424 -0.2591  1.1705 -2.2899
10724TIP3    H253664   1.180   6.361  16.380 -0.2811 -0.2516  1.8129
10725TIP3   OH253665   2.642   3.958  16.991 -0.0944  0.0588  0.0510
10725TIP3    H153666   2.615   4.048  17.012 -1.9947 -0.3643 -0.4214
10725TIP3    H253667   2.736   3.965  16.974  0.4987  1.3451  3.2796
10726TIP3   OH253668   5.323   2.605   1.297  0.2799 -0.3729  0.2519
10726TIP3    H153669   5.370   2.688   1.305 -0.2511 -0.1260  0.8706
10726TIP3    H253670   5.266   2.617   1.221  0.6042 -0.3774  0.0036
10727TIP3   OH253671   5.460   2.348   2.252  0.0670 -0.0290  0.1907
10727TIP3    H153672   5.446   2.272   2.309 -1.3608  0.6506  0.7859
10727TIP3    H253673   5.548   2.377   2.274  0.0254 -0.5519  1.1288
10728TIP3   OH253674   5.176   6.760   4.286  0.1018 -0.3694  0.3122
10728TIP3    H153675   5.203   6.669   4.297  1.5187 -0.0411 -0.1712
10728TIP3    H253676   5.170   6.794   4.376  1.5453 -0.4209  0.4498
10729TIP3   OH253677   2.230   2.542   2.864  0.2256  0.2712 -0.1136
10729TIP3    H153678   2.296   2.497   2.811  1.2962  1.9378 -0.2642
10729TIP3    H253679   2.281   2.587   2.932 -0.8137  1.0165  0.1901
10730TIP3   OH253680   4.473   6.210   3.026  0.0092  1.0459 -0.1422
10730TIP3    H153681   4.473   6.288   2.971  1.9406  1.0906 -0.1658
10730TIP3    H253682   4.486   6.243   3.115 -0.1572  0.8054 -0.0274
10731TIP3   OH253683   1.964   2.048  13.901 -0.2109  0.5550  0.2578
10731TIP3    H153684   2.040   2.090  13.940  0.1818  0.5105 -0.4550
10731TIP3    H253685   1.926   2.115  13.844 -0.5550  0.4866  0.4011
10732TIP3   OH253686   4.076   2.848  14.123  0.0619 -0.3606 -0.5965
10732TIP3    H153687   4.006   2.910  14.142  0.4247  1.0135 -3.3214
10732TIP3    H253688   4.035   2.762  14.131 -0.8499  0.1952  1.6910
10733TIP3   OH253689   4.031   0.576   5.550 -0.3461  0.2079  0.2518
10733TIP3    H153690   4.123   0.562   5.573 -0.4470 -0.6408  0.1409
10733TIP3    H253691   4.015   0.668   5.573  1.3852  1.3808 -2.6244
10734TIP3   OH253692   0.328   6.081   5.890  0.4623 -0.1848 -0.2802
10734TIP3    H153693   0.316   6.045   5.977  2.0269  2.3047  1.0892
10734TIP3    H253694   0.405   6.036   5.855  0.0687 -0.8963 -0.2545
10735TIP3   OH253695   6.139   0.602  12.758 -0.4937  0.8226  0.6138
10735TIP3    H153696   6.178   0.689  12.765 -2.5870  1.8660  0.0631
10735TIP3    H253697   6.121   0.592  12.665  3.1784 -1.9009 -0.0276
10736TIP3   OH253698   5.322   0.223  15.296  0.6234 -0.1579 -0.6120
10736TIP3    H153699   5.240   0.271  15.286  1.8184  1.8033 -1.7478
10736TIP3    H253700   5.306   0.162  15.367 -2.1412 -0.5980 -1.5038
10737TIP3   OH253701   2.649   0.545  17.373  0.0834  0.5631 -0.3487
10737TIP3    H153702   2.672   0.586  17.290  1.3172  0.0818 -0.2630
10737TIP3    H253703   2.719   0.570  17.433 -0.3468  0.2004  0.3141
10738TIP3   OH253704   6.641   1.318   0.971  0.1014 -0.2561 -0.0716
10738TIP3    H153705   6.611   1.392   0.918 -2.0943 -1.1499 -0.1751
10738TIP3    H253706   6.625   1.241   0.916  2.9232 -0.8522 -0.2285
10739TIP3   OH253707   1.040   2.128   4.858 -0.3325 -0.8999 -0.1671
10739TIP3    H153708   1.051   2.079   4.939 -0.1074  1.3266  1.2229
10739TIP3    H253709   1.123   2.175   4.847 -1.0128  0.2166 -0.6932
10740TIP3   OH253710   2.423   0.613   1.017 -0.0538  0.2218 -0.4895
10740TIP3    H153711   2.503   0.661   0.995  0.3801  0.3401  1.1738
10740TIP3    H253712   2.428   0.601   1.112 -0.2033 -2.9888 -0.7848
10741TIP3   OH253713   0.160   5.903   4.893  0.5397 -0.1518 -0.1319
10741TIP3    H153714   0.160   5.813   4.926  1.6635 -0.2979 -0.4702
10741TIP3    H253715   0.086   5.907   4.833  0.4800 -0.8531 -0.1141
10742TIP3   OH253716   6.501   1.982   2.086 -0.0373 -0.2034 -0.3569
10742TIP3    H153717   6.467   1.901   2.046 -1.2445  0.3973 -0.5974
10742TIP3    H253718   6.480   2.050   2.023  1.3092  0.2703 -0.3232
10743TIP3   OH253719   5.318   2.023   0.865  0.5076  0.3543  0.2871
10743TIP3    H153720   5.368   1.959   0.916  0.9313  1.2838  1.0663
10743TIP3    H253721   5.286   2.085   0.930 -0.9679  0.2501 -0.3064
10744TIP3   OH253722   6.552   4.914   0.908  0.0375 -0.1673  0.2801
10744TIP3    H153723   6.528   4.937   0.818 -0.3860 -1.2360  0.1046
10744TIP3    H253724   6.528   4.990   0.960 -1.2409 -0.1674 -0.2904
10745TIP3   OH253725   0.888   5.419   5.487 -0.1648 -0.6000 -0.9765
10745TIP3    H153726   0.857   5.339   5.529  1.4969 -1.2772 -0.9760
10745TIP3    H253727   0.971   5.439   5.530 -0.6818  1.3057 -0.7858
10746TIP3   OH253728   3.666   3.226  11.523 -0.2449 -0.4777 -0.4826
10746TIP3    H153729   3.701   3.165  11.588  0.1334 -0.1305 -0.3545
10746TIP3    H253730   3.572   3.230  11.541 -0.2448 -0.8943 -0.3861
10747TIP3   OH253731   4.169   0.347  13.849 -0.0385  0.7161  0.8111
10747TIP3    H153732   4.197   0.437  13.868  0.9674  0.3039  1.3379
10747TIP3    H253733   4.250   0.297  13.843 -0.6205 -0.3355  1.4354
10748TIP3   OH253734   5.644   3.483  16.754 -0.0282 -0.0121 -0.0098
10748TIP3    H153735   5.587   3.550  16.794 -0.5061  0.8576 -1.9986
10748TIP3    H253736   5.731   3.503  16.787 -0.5641 -0.1479  1.5774
10749TIP3   OH253737   5.486   1.747  16.260 -0.1173  0.2190 -0.5488
10749TIP3    H153738   5.466   1.668  16.210 -1.1068  0.0432  0.1154
10749TIP3    H253739   5.503   1.814  16.193  2.1415 -0.8501 -1.1477
10750TIP3   OH253740   4.629   1.539   3.072 -0.5578 -0.5358 -0.0923
10750TIP3    H153741   4.693   1.470   3.088  2.4937  1.6240 -1.7886
10750TIP3    H253742   4.630   1.550   2.976 -0.7750  1.8834  0.1153
10751TIP3   OH253743   3.348   2.838   5.410  0.6529 -0.0586 -0.4606
10751TIP3    H153744   3.290   2.914   5.404  0.0096 -0.3075  1.6811
10751TIP3    H253745   3.421   2.859   5.352  0.0405  1.7931 -0.6283
10752TIP3   OH253746   3.681   1.589   4.864 -0.2196 -0.2831  0.6260
10752TIP3    H153747   3.667   1.668   4.917 -2.6525 -0.4043  0.2767
10752TIP3    H253748   3.646   1.611   4.778  0.1114 -1.3750  0.1959
10753TIP3   OH253749   3.528   3.436   2.249  0.6451  0.4473 -0.0828
10753TIP3    H153750   3.434   3.441   2.234  0.4520  1.2982  1.2718
10753TIP3    H253751   3.550   3.344   2.234 -0.6197 -0.0025  0.7135
10754TIP3   OH253752   4.755   0.566   1.791  0.4592 -0.3104 -0.1607
10754TIP3    H153753   4.674   0.599   1.752  0.2760 -1.2131 -0.5638
10754TIP3    H253754   4.758   0.607   1.878 -0.4633 -0.3204 -0.1130
10755TIP3   OH253755   1.555   4.961   1.813 -0.3339 -0.3273  0.8248
10755TIP3    H153756   1.605   4.901   1.867  1.3419  0.8378  0.6729
10755TIP3    H253757   1.599   4.959   1.728 -0.3791  0.9126  0.7496
10756TIP3   OH253758   3.784   5.002  13.937  0.2947  0.4892 -0.1242
10756TIP3    H153759   3.878   4.986  13.937 -0.1422 -2.7190  0.0869
10756TIP3    H253760   3.755   4.983  13.848 -0.4867 -1.4625  0.4976
10757TIP3   OH253761   2.562   5.467  17.270  0.1098 -0.4612 -0.0206
10757TIP3    H153762   2.583   5.560  17.260  0.9279 -0.7136 -0.7237
10757TIP3    H253763   2.638   5.430  17.315 -0.7182 -0.5858  1.3492
10758TIP3   OH253764   6.045   2.498  17.066 -0.1518 -0.2694  0.1634
10758TIP3    H153765   6.094   2.536  16.993 -1.7016  1.4880 -0.0636
10758TIP3    H253766   6.028   2.408  17.040 -0.6355  0.3020 -1.6779
10759TIP3   OH253767   6.011   1.031   0.255 -0.5327 -0.7503 -0.1388
10759TIP3    H153768   6.006   1.122   0.228  0.5418  0.2123  2.5825
10759TIP3    H253769   5.919   1.004   0.266 -0.8456  0.0699 -0.6289
10760TIP3   OH253770   1.768   5.271  16.817  0.3366  0.4705  0.3725
10760TIP3    H153771   1.770   5.202  16.751  1.6076  1.0067 -0.1933
10760TIP3    H253772   1.685   5.317  16.801 -0.9328 -1.3589  1.2887
10761TIP3   OH253773   6.607   5.885   0.139 -0.2728 -0.2941 -0.0785
10761TIP3    H153774   6.552   5.930   0.074  2.4576  0.2656 -2.1698
10761TIP3    H253775   6.617   5.948   0.210 -3.1101 -0.8155  0.9054
10762TIP3   OH253776   3.262   5.942  17.459 -0.2786 -0.3206  0.1538
10762TIP3    H153777   3.289   5.982  17.377 -1.4415 -1.7845 -1.0093
10762TIP3    H253778   3.331   5.966  17.521  0.0004  1.8537 -0.9071
10763TIP3   OH253779   5.349   4.163   3.248 -0.4996 -0.5475  0.3649
10763TIP3    H153780   5.272   4.168   3.192 -0.9592 -2.2793  0.7995
10763TIP3    H253781   5.373   4.071   3.250  1.2317 -0.1432  0.7493
10764TIP3   OH253782   2.526   1.432  12.551  0.2402  0.6345  0.0162
10764TIP3    H153783   2.449   1.383  12.580  1.9153 -2.2650 -0.0492
10764TIP3    H253784   2.519   1.431  12.455  1.1406 -1.2174 -0.0886
10765TIP3   OH253785   1.421   4.770   5.536  0.8008 -0.5297  0.2044
10765TIP3    H153786   1.471   4.689   5.525 -1.0759 -1.7441  0.0487
10765TIP3    H253787   1.330   4.741   5.540  0.0953  1.5611  0.5759
10766TIP3   OH253788   5.726   5.249   1.811 -0.2367 -0.2407 -0.8964
10766TIP3    H153789   5.801   5.202   1.848  1.4653 -0.4041 -4.1712
10766TIP3    H253790   5.693   5.303   1.883  2.8389 -0.4047  0.7854
10767TIP3   OH253791   3.143   1.880   5.384  0.0090  0.6389  0.0804
10767TIP3    H153792   3.182   1.901   5.468  0.6152  0.6704 -0.2049
10767TIP3    H253793   3.109   1.791   5.395  0.3157  0.5462  0.2744
10768TIP3   OH253794   1.234   2.335  15.822  0.5419 -0.1344 -0.1834
10768TIP3    H153795   1.257   2.311  15.912 -0.0744 -0.2451 -0.0512
10768TIP3    H253796   1.141   2.356  15.826  0.4034 -0.5815 -0.8863
10769TIP3   OH253797   5.149   2.053   5.600  0.2584 -0.2826 -0.1722
10769TIP3    H153798   5.090   2.130   5.600 -1.3763 -1.4590  1.0977
10769TIP3    H253799   5.110   1.994   5.664  2.8145 -1.2049  0.6297
10770TIP3   OH253800   5.864   6.163   0.895 -0.3971 -0.0734  0.1865
10770TIP3    H153801   5.805   6.183   0.967  0.4082  1.7850  0.3810
10770TIP3    H253802   5.812   6.112   0.833 -1.5667 -0.2698  1.3094
10771TIP3   OH253803   4.466   3.420   0.765  0.5811 -0.9199  0.0100
10771TIP3    H153804   4.424   3.403   0.850 -0.2520  0.7210 -0.0289
10771TIP3    H253805   4.559   3.419   0.783  0.4299 -1.1758  0.8154
10772TIP3   OH253806   1.213   5.060  13.055 -0.7770 -0.1713 -0.2955
10772TIP3    H153807   1.265   5.140  13.064  1.3556 -1.6510  1.9285
10772TIP3    H253808   1.156   5.061  13.132  0.6497 -1.6342  0.8448
10773TIP3   OH253809   3.129   1.516   0.818 -0.6057 -0.0935 -0.1061
10773TIP3    H153810   3.160   1.498   0.907  0.1104 -1.4408 -0.6115
10773TIP3    H253811   3.191   1.470   0.761 -0.4360  1.6157 -1.3667
10774TIP3   OH253812   3.503   2.590  10.996  0.3243  0.2523  0.1582
10774TIP3    H153813   3.570   2.522  10.987 -1.2205 -1.2031 -0.6845
10774TIP3    H253814   3.540   2.665  10.949  1.0352 -0.7976 -1.0360
10775TIP3   OH253815   2.242   1.320  15.880  0.0041  0.3113 -0.7130
10775TIP3    H153816   2.264   1.351  15.792 -2.0696  1.8395 -0.7653
10775TIP3    H253817   2.293   1.376  15.938 -0.2903  0.7974 -0.9142
10776TIP3   OH253818   4.081   2.517   6.560 -0.2223  0.3216 -0.4088
10776TIP3    H153819   4.147   2.575   6.523 -0.2079  0.7373  0.2635
10776TIP3    H253820   4.083   2.534   6.654 -0.7332 -0.2361 -0.2865
10777TIP3   OH253821   4.240   1.159   1.241  0.0756 -0.1047  0.1163
10777TIP3    H153822   4.204   1.188   1.157  0.9633  0.5028 -0.0684
10777TIP3    H253823   4.231   1.235   1.298  0.3002 -0.2236  0.3106
10778TIP3   OH253824   3.374   4.355   5.272  0.5817  0.3038 -0.0349
10778TIP3    H153825   3.453   4.375   5.222 -0.7629 -0.7684 -2.7963
10778TIP3    H253826   3.322   4.435   5.268 -0.2174 -0.2438 -1.9102
10779TIP3   OH253827   5.268   3.074   5.945 -0.0472  0.3127  0.4825
10779TIP3    H153828   5.285   3.074   5.850 -1.2411 -0.4044  0.2487
10779TIP3    H253829   5.244   2.983   5.964  1.0552  0.2465  1.6501
10780TIP3   OH253830   0.578   3.238   4.312  0.0385  0.6345 -0.0192
10780TIP3    H153831   0.623   3.261   4.230  0.0072  0.8369  0.0195
10780TIP3    H253832   0.540   3.321   4.342  0.0294  0.5552  0.1881
10781TIP3   OH253833   6.275   3.371  14.798  0.4420 -0.4073  0.1253
10781TIP3    H153834   6.318   3.409  14.721  0.9159 -1.9454 -0.4172
10781TIP3    H253835   6.289   3.435  14.868 -1.7694  2.0498 -1.4721
10782TIP3   OH253836   5.793   5.884  16.116  0.7913  0.3741 -0.1101
10782TIP3    H153837   5.790   5.939  16.037 -0.0776 -0.7137 -0.8686
10782TIP3    H253838   5.867   5.825  16.102 -1.1739 -1.9406 -1.6642
10783TIP3   OH253839   4.995   2.192   2.758  0.1153 -0.0716  0.4686
10783TIP3    H153840   5.026   2.281   2.772 -2.3311  1.0983 -0.9514
10783TIP3    H253841   5.043   2.161   2.682 -1.3269  1.3631 -1.1196
10784TIP3   OH253842   2.017   5.813   0.734 -0.9568  0.5418 -0.5370
10784TIP3    H153843   1.950   5.852   0.790 -1.2439  0.6575 -0.9622
10784TIP3    H253844   2.077   5.885   0.715 -0.3255  0.2801  0.4092
10785TIP3   OH253845   5.981   0.242  16.094  0.3351 -0.2417  0.2121
10785TIP3    H153846   6.010   0.306  16.029  0.2891  0.4120  0.8197
10785TIP3    H253847   6.059   0.190  16.113  0.7033  0.4361  0.6123
10786TIP3   OH253848   5.948   0.915  16.113  0.0743  0.3115  0.1177
10786TIP3    H153849   5.926   0.840  16.169 -0.2919 -1.4637 -2.2505
10786TIP3    H253850   6.042   0.904  16.095 -0.0245  0.2810 -0.3985
10787TIP3   OH253851   5.411   6.327   2.374  0.0999 -0.2499 -0.4353
10787TIP3    H153852   5.353   6.304   2.447 -0.2466  2.5334  0.3002
10787TIP3    H253853   5.351   6.359   2.306  0.5036 -1.7882 -1.5547
10788TIP3   OH253854   4.906   2.558   5.181 -0.2877  0.1523  0.3018
10788TIP3    H153855   4.915   2.568   5.087  2.9903  1.8003  0.6407
10788TIP3    H253856   4.888   2.647   5.213 -2.3514 -0.5401  1.2035
10789TIP3   OH253857   4.324   3.686   3.725  0.1811  0.0003 -0.0995
10789TIP3    H153858   4.333   3.673   3.819  0.7377 -1.6214 -0.3300
10789TIP3    H253859   4.391   3.629   3.687  0.3060  1.0184 -1.4607
10790TIP3   OH253860   1.236   1.682  11.478  0.3406  0.1113 -0.0890
10790TIP3    H153861   1.291   1.755  11.451 -0.2415 -0.1756 -2.2828
10790TIP3    H253862   1.253   1.614  11.413 -1.3781 -0.5626  0.1147
10791TIP3   OH253863   1.168   2.720  16.986  0.0382 -0.5410 -0.0785
10791TIP3    H153864   1.222   2.690  16.913  0.9883 -2.4398  1.3045
10791TIP3    H253865   1.115   2.644  17.009 -1.9892  0.7630 -0.2632
10792TIP3   OH253866   0.889   2.215  10.842  0.3412  0.4854  0.0359
10792TIP3    H153867   0.879   2.291  10.899  0.8679  0.1379  0.6022
10792TIP3    H253868   0.965   2.236  10.787  0.5553  0.3239  0.2691
10793TIP3   OH253869   1.719   1.729  13.118 -0.1093 -0.1062  0.9307
10793TIP3    H153870   1.765   1.684  13.048 -3.0116 -1.5277 -0.2030
10793TIP3    H253871   1.780   1.797  13.146  2.8584 -2.1790 -0.0083
10794TIP3   OH253872   5.643   0.295  14.146  0.3340  0.4030  0.8155
10794TIP3    H153873   5.682   0.215  14.180 -2.1270 -0.8511  0.9528
10794TIP3    H253874   5.569   0.265  14.093 -1.8306  2.5875  2.3475
10795TIP3   OH253875   4.222   6.087  14.581  0.1899 -0.4300  0.0510
10795TIP3    H153876   4.236   6.003  14.538 -0.2484 -0.4253 -0.1028
10795TIP3    H253877   4.310   6.126  14.586  0.5555 -1.3346  1.0393
10796TIP3   OH253878   6.557   0.778  13.056  0.2253  0.6318  0.3178
10796TIP3    H153879   6.625   0.798  13.120 -0.2703  0.4645  0.9171
10796TIP3    H253880   6.568   0.685  13.036  0.7108  0.8079 -0.2488
10797TIP3   OH253881   5.779   6.254   1.391 -0.7104 -0.0378  0.0260
10797TIP3    H153882   5.854   6.313   1.383  0.3586 -1.3351  0.0556
10797TIP3    H253883   5.736   6.280   1.472 -0.5890  1.0369 -0.2351
10798TIP3   OH253884   1.134   0.624   0.723  0.2968  0.2106 -0.5472
10798TIP3    H153885   1.156   0.708   0.762 -1.9333  1.1699 -1.1993
10798TIP3    H253886   1.206   0.605   0.663  1.0144  1.4525 -0.1043
10799TIP3   OH253887   2.396   4.769   3.131 -0.6191  0.6065 -0.3806
10799TIP3    H153888   2.417   4.858   3.158 -0.0552  0.5509 -0.6201
10799TIP3    H253889   2.428   4.764   3.041  1.3079 -0.4806  0.3005
10800TIP3   OH253890   1.110   6.719   5.506  0.3224  0.3788 -0.2176
10800TIP3    H153891   1.070   6.644   5.461 -0.3670 -0.0997  1.1236
10800TIP3    H253892   1.102   6.697   5.599  2.5582  0.8871  0.1458
10801TIP3   OH253893   3.251   2.232  16.435 -0.4300 -0.8129  0.1526
10801TIP3    H153894   3.177   2.174  16.452 -1.1811  0.4654  1.4423
10801TIP3    H253895   3.251   2.243  16.340 -0.2106 -2.9268 -0.1504
10802TIP3   OH253896   5.207   3.336   5.176 -0.5639  0.1805 -0.4746
10802TIP3    H153897   5.192   3.279   5.251 -1.3148  0.0004 -0.7611
10802TIP3    H253898   5.294   3.310   5.144 -0.3852  0.0286  0.1225
10803TIP3   OH253899   4.889   1.544   2.359  0.0766 -0.0105 -0.1566
10803TIP3    H153900   4.929   1.459   2.341  0.2176  0.1143 -0.4468
10803TIP3    H253901   4.879   1.584   2.272  2.0507  1.2038  0.1114
10804TIP3   OH253902   3.659   2.715   2.242 -0.0122 -0.2616  0.3305
10804TIP3    H153903   3.699   2.802   2.236 -0.2951 -0.1533 -0.0003
10804TIP3    H253904   3.723   2.663   2.291  0.6555 -0.1614 -0.4121
10805TIP3   OH253905   1.545   2.818   5.253  0.3274  0.6510 -0.0934
10805TIP3    H153906   1.507   2.808   5.341  0.1157 -1.6282 -0.3925
10805TIP3    H253907   1.635   2.846   5.269 -0.0663  1.4848  0.7906
10806TIP3   OH253908   5.167   5.089  13.307  0.7304 -0.2115 -0.4840
10806TIP3    H153909   5.102   5.140  13.355 -0.2031 -1.1297 -0.7235
10806TIP3    H253910   5.152   5.112  13.215  1.3403  0.2260 -0.4816
10807TIP3   OH253911   1.619   0.583   3.074 -0.2736  0.3250  0.4015
10807TIP3    H153912   1.670   0.525   3.130 -1.1484  0.3364  1.2272
10807TIP3    H253913   1.534   0.540   3.066 -0.5041  0.8575 -0.0382
10808TIP3   OH253914   3.784   4.216   5.765  0.0088 -0.5541 -0.0644
10808TIP3    H153915   3.720   4.179   5.703  1.4368 -0.9483 -1.3548
10808TIP3    H253916   3.833   4.140   5.796  2.4409  0.0414 -2.1232
10809TIP3   OH253917   3.423   1.717   3.479  0.2464  0.5052 -0.3895
10809TIP3    H153918   3.399   1.716   3.387 -1.2315  0.0111 -0.0246
10809TIP3    H253919   3.389   1.634   3.514  0.0813  1.0339  0.7592
10810TIP3   OH253920   1.901   1.427  14.202 -0.1144 -0.1422  0.3787
10810TIP3    H153921   1.957   1.417  14.125 -1.3936 -0.0797 -0.5935
10810TIP3    H253922   1.870   1.338  14.220  1.7699 -0.5146  2.1124
10811TIP3   OH253923   2.857   0.050  12.368 -0.1142  0.4177 -0.3117
10811TIP3    H153924   2.946   0.018  12.351  0.1721  0.4832  0.9787
10811TIP3    H253925   2.850   0.130  12.316  0.2603 -0.0356 -1.0966
10812TIP3   OH253926   6.381   5.530  16.882  0.8794 -0.4370  0.4753
10812TIP3    H153927   6.364   5.473  16.957 -2.6675  1.5531  1.4471
10812TIP3    H253928   6.416   5.610  16.920  1.1539 -0.1930 -0.2656
10813TIP3   OH253929   5.716   4.356   4.806 -0.4471 -0.2053 -0.1463
10813TIP3    H153930   5.740   4.448   4.797 -0.7699  0.0922  1.5530
10813TIP3    H253931   5.621   4.356   4.813 -0.4571 -0.6680 -0.2134
10814TIP3   OH253932   2.882   6.205  15.572  0.3512 -0.7740 -0.1111
10814TIP3    H153933   2.957   6.216  15.629 -0.1570 -0.2661  0.4704
10814TIP3    H253934   2.825   6.280  15.592  0.6334  0.0082 -2.0189
10815TIP3   OH253935   6.057   5.160  12.175  0.3353  0.0582  0.4634
10815TIP3    H153936   6.101   5.244  12.185  0.8841 -0.3181  1.4273
10815TIP3    H253937   6.118   5.107  12.124  0.6659 -0.2096  1.1181
10816TIP3   OH253938   1.750   2.263   0.806 -0.7473  0.3165 -0.3875
10816TIP3    H153939   1.702   2.316   0.743 -0.7398 -0.3597 -0.9704
10816TIP3    H253940   1.820   2.321   0.837  0.2402  0.1596 -2.1928
10817TIP3   OH253941   5.112   0.779   3.529  0.5284 -0.4015 -0.3690
10817TIP3    H153942   5.078   0.772   3.618  0.4547  0.6679 -0.3014
10817TIP3    H253943   5.128   0.872   3.516  0.0681 -0.4751 -1.6600
10818TIP3   OH253944   5.675   0.539  12.391 -0.0245  0.2922  0.0061
10818TIP3    H153945   5.693   0.611  12.451 -0.1660  0.0252  0.3689
10818TIP3    H253946   5.649   0.582  12.310  1.0617  0.6654 -0.1593
10819TIP3   OH253947   4.730   5.621  10.978 -0.6015  0.6205 -0.3233
10819TIP3    H153948   4.678   5.555  10.933  1.0582 -0.1891 -1.1439
10819TIP3    H253949   4.784   5.659  10.910 -0.1661  1.4792  0.4870
10820TIP3   OH253950   0.960   6.499   7.008 -0.1784 -0.0137 -0.3305
10820TIP3    H153951   0.923   6.550   7.080  0.3456 -0.5305  0.3226
10820TIP3    H253952   1.013   6.562   6.959  0.4998  0.0764  0.4943
10821TIP3   OH253953   3.264   0.952  13.540  0.2377  0.0803  0.5561
10821TIP3    H153954   3.356   0.975  13.549  0.1693  1.6185 -1.8445
10821TIP3    H253955   3.260   0.859  13.563  2.3084  0.0672  1.0084
10822TIP3   OH253956   1.522   2.584   0.884  0.2332  0.0303 -0.4633
10822TIP3    H153957   1.521   2.495   0.918 -1.0981  0.1519 -0.1013
10822TIP3    H253958   1.613   2.612   0.891  0.2268 -0.3192  2.1221
10823TIP3   OH253959   5.959   2.571   2.968 -0.0376 -0.5914  0.4787
10823TIP3    H153960   5.865   2.571   2.987 -0.6256  0.3269 -2.0089
10823TIP3    H253961   5.974   2.655   2.925  1.9073 -0.8135  0.6580
10824TIP3   OH253962   3.355   3.047  15.601 -0.0171  0.2760  1.4030
10824TIP3    H153963   3.294   3.071  15.670 -1.9916  0.0959 -0.1790
10824TIP3    H253964   3.308   2.981  15.550  0.6806  1.5229 -1.0096
10825TIP3   OH253965   1.319   6.530   4.441 -0.0446  0.4117 -0.3635
10825TIP3    H153966   1.312   6.608   4.387 -0.5902  0.5478 -0.1004
10825TIP3    H253967   1.263   6.547   4.516  0.5442  0.1406  0.1485
10826TIP3   OH253968   4.391   0.504   1.099 -0.7178 -0.3004 -0.1123
10826TIP3    H153969   4.436   0.511   1.183  0.8484 -0.5484 -0.8969
10826TIP3    H253970   4.455   0.534   1.035 -1.2554 -1.7727 -1.3886
10827TIP3   OH253971   5.712   5.907   3.418 -0.0200 -0.1291  0.1123
10827TIP3    H153972   5.691   5.818   3.390  0.5104 -0.8760  1.9522
10827TIP3    H253973   5.628   5.943   3.446 -0.2631  0.0277 -0.7804
10828TIP3   OH253974   4.585   3.041  17.392  0.3583  0.3821  0.8071
10828TIP3    H153975   4.630   3.058  17.309 -1.2850  0.5285 -0.0913
10828TIP3    H253976   4.603   3.119  17.445  0.7955  0.6279  0.3106
10829TIP3   OH253977   0.448   4.662  14.332  0.4934 -0.4953 -0.3375
10829TIP3    H153978   0.459   4.757  14.326  0.0015 -0.2592  1.7518
10829TIP3    H253979   0.494   4.627  14.255 -0.7700  1.4979 -2.0946
10830TIP3   OH253980   3.742   4.634  13.621 -0.3595  0.3778 -0.2662
10830TIP3    H153981   3.772   4.694  13.552 -2.0602  0.8993 -0.5941
10830TIP3    H253982   3.680   4.576  13.577 -0.4925 -0.1308  0.5715
10831TIP3   OH253983   6.462   2.799   5.761 -0.1867  0.1216  0.1241
10831TIP3    H153984   6.377   2.839   5.776 -0.4010 -0.7307  1.3798
10831TIP3    H253985   6.496   2.781   5.849  1.4521  0.7608 -0.3409
10832TIP3   OH253986   6.318   6.504   3.782  0.5901 -0.1413 -0.1201
10832TIP3    H153987   6.390   6.519   3.844 -0.5139 -0.8106  1.3957
10832TIP3    H253988   6.272   6.587   3.777  0.2755 -0.2766  0.5082
10833TIP3   OH253989   0.909   2.421  12.869 -0.0303  0.4884 -0.0844
10833TIP3    H153990   0.861   2.466  12.799  0.8056  0.8678 -0.4301
10833TIP3    H253991   0.875   2.332  12.868 -1.3514  0.9640  0.2690
10834TIP3   OH253992   6.203   5.959   1.067  0.5014  0.2557 -0.3653
10834TIP3    H153993   6.274   5.912   1.109  0.6769  1.6179  0.9266
10834TIP3    H253994   6.136   5.969   1.135 -0.4450  0.0015 -1.2259
10835TIP3   OH253995   1.444   4.105   0.894 -0.7835 -0.1171  0.1432
10835TIP3    H153996   1.367   4.047   0.888 -0.5072 -0.4673 -0.0747
10835TIP3    H253997   1.488   4.076   0.974 -1.5720  0.9600  1.0022
10836TIP3   OH253998   1.185   3.184  12.027  0.7028 -0.1576  0.2211
10836TIP3    H153999   1.208   3.113  12.087  0.0092 -0.7820 -0.2386
10836TIP3    H254000   1.110   3.151  11.978  1.0125  0.4890 -0.7230
10837TIP3   OH254001   5.785   3.345   5.342  0.3864 -0.2669  0.1193
10837TIP3    H154002   5.786   3.257   5.380 -0.2698 -0.0119  0.7444
10837TIP3    H254003   5.698   3.379   5.363  0.4604  0.3499 -0.5428
10838TIP3   OH254004   5.254   3.490   4.901 -0.0480  0.0617 -0.2132
10838TIP3    H154005   5.271   3.396   4.898 -1.1433 -0.1230 -1.0053
10838TIP3    H254006   5.298   3.520   4.981 -0.1798 -1.2224  0.3503
10839TIP3   OH254007   0.159   3.010   4.943  0.3604  0.5086  0.5728
10839TIP3    H154008   0.068   2.985   4.928  0.9722 -1.0992 -0.6911
10839TIP3    H254009   0.175   2.988   5.035 -0.5401  0.9223  0.8444
10840TIP3   OH254010   6.739   6.334  16.046  0.4791  0.5842 -0.3681
10840TIP3    H154011   6.805   6.360  15.983  0.8605 -0.5731 -0.4630
10840TIP3    H254012   6.737   6.239  16.041 -1.6052  0.5986 -0.7918
10841TIP3   OH254013   5.119   5.764   3.728 -0.5115  0.9692 -0.4183
10841TIP3    H154014   5.118   5.672   3.699  2.0107  0.1375  1.6944
10841TIP3    H254015   5.198   5.800   3.688 -2.2718  2.7819 -2.4739
10842TIP3   OH254016   2.534   6.449   1.338  0.5722 -0.7312 -0.4397
10842TIP3    H154017   2.582   6.532   1.338  0.3210 -0.5829 -0.6790
10842TIP3    H254018   2.505   6.438   1.248  2.4439 -2.1746 -0.9245
10843TIP3   OH254019   6.579   1.902   6.146  0.5908  0.8291 -1.1954
10843TIP3    H154020   6.537   1.967   6.203  1.5326  0.0715  0.4209
10843TIP3    H254021   6.640   1.855   6.204  0.9016 -0.6034 -2.6277
10844TIP3   OH254022   5.306   0.151   4.788 -0.6213 -0.1624 -0.8131
10844TIP3    H154023   5.399   0.130   4.797 -0.1521  2.3786  1.5191
10844TIP3    H254024   5.305   0.238   4.749 -2.0699 -0.2752 -1.0811
10845TIP3   OH254025   5.539   0.993  16.658  0.3760  0.2262  0.6069
10845TIP3    H154026   5.604   0.952  16.601  1.0646  1.7119  0.2780
10845TIP3    H254027   5.558   0.959  16.745  2.5673  1.7127  0.7783
10846TIP3   OH254028   1.797   3.805  13.191 -0.1898 -0.1745 -0.0115
10846TIP3    H154029   1.871   3.827  13.135 -0.9504  0.4227 -0.7949
10846TIP3    H254030   1.823   3.836  13.278  0.6090 -0.2737 -0.2047
10847TIP3   OH254031   3.566   4.226  14.263 -0.2355  0.0696 -0.0955
10847TIP3    H154032   3.503   4.239  14.334  0.3772  2.8233  0.0226
10847TIP3    H254033   3.527   4.271  14.188  0.2210 -0.8058 -0.8791
10848TIP3   OH254034   3.008   0.445  15.443 -0.5753  0.6310 -0.7164
10848TIP3    H154035   2.995   0.444  15.538 -0.6733 -1.8974 -0.6970
10848TIP3    H254036   3.101   0.462  15.432  0.1942 -2.4538  0.0623
10849TIP3   OH254037   4.810   1.454   3.828 -0.2211 -0.1020  0.0393
10849TIP3    H154038   4.787   1.399   3.903  0.1894 -1.3736 -0.7329
10849TIP3    H254039   4.851   1.393   3.766 -0.0737  1.0225 -0.9934
10850TIP3   OH254040   2.925   5.531   5.471  0.0411  0.1968 -0.0443
10850TIP3    H154041   2.949   5.459   5.413  1.6773  0.5471  0.1567
10850TIP3    H254042   3.007   5.576   5.489 -0.5100  0.4302  2.1078
10851TIP3   OH254043   4.046   2.312  13.846 -0.1283  0.3321 -0.1811
10851TIP3    H154044   3.967   2.366  13.841 -0.1960  0.2993  0.4703
10851TIP3    H254045   4.091   2.342  13.925  0.2401 -0.0167 -0.2550
10852TIP3   OH254046   5.932   5.271   2.157 -0.3072 -0.4162 -0.6166
10852TIP3    H154047   6.000   5.324   2.199  0.2319 -1.7575  0.2491
10852TIP3    H254048   5.927   5.305   2.068  0.0349  1.0618 -0.0986
10853TIP3   OH254049   4.221   5.977   2.147 -0.1457  0.3604 -0.3399
10853TIP3    H154050   4.299   5.926   2.172  0.3001  1.0340 -0.3390
10853TIP3    H254051   4.239   6.006   2.058 -0.7742 -0.1852 -0.6542
10854TIP3   OH254052   5.864   2.384  16.676  0.9384 -0.4072 -0.1773
10854TIP3    H154053   5.908   2.350  16.754 -0.5381 -1.2919  0.3196
10854TIP3    H254054   5.903   2.337  16.603  1.7605 -0.1757  0.1065
10855TIP3   OH254055   4.019   4.548   1.592  0.6077 -0.0994  0.0299
10855TIP3    H154056   4.049   4.636   1.614  2.0050 -0.6303  0.3340
10855TIP3    H254057   4.079   4.489   1.638  0.5460 -1.2244 -1.2454
10856TIP3   OH254058   4.466   2.689   5.404  0.4040  0.4386 -0.2690
10856TIP3    H154059   4.385   2.661   5.362 -1.1189  2.0327  1.4056
10856TIP3    H254060   4.451   2.781   5.427  2.1967  0.4246  1.2382
10857TIP3   OH254061   1.564   0.571   1.659  0.4712  0.2408  0.5682
10857TIP3    H154062   1.555   0.666   1.651  0.4011  0.3243  1.5265
10857TIP3    H254063   1.498   0.535   1.600  0.8540  0.7785 -0.2031
10858TIP3   OH254064   1.489   3.112  13.870 -0.3159 -0.1225  0.2218
10858TIP3    H154065   1.542   3.117  13.790 -1.2016 -2.7660 -0.6325
10858TIP3    H254066   1.552   3.125  13.941  0.7539  0.7558 -0.8439
10859TIP3   OH254067   1.828   6.468   1.224 -0.3823 -1.0138  0.7627
10859TIP3    H154068   1.848   6.432   1.311  1.7988 -1.0904  0.3022
10859TIP3    H254069   1.889   6.423   1.165 -0.4770  0.4174 -0.4853
10860TIP3   OH254070   2.389   1.471  16.045  0.3120 -0.1634  0.3105
10860TIP3    H154071   2.367   1.511  16.129  0.9727 -1.6565  1.2417
10860TIP3    H254072   2.485   1.472  16.042  0.2861  1.4925 -1.2714
10861TIP3   OH254073   1.273   0.767   3.870 -0.0611  0.1539 -0.2186
10861TIP3    H154074   1.182   0.789   3.890 -0.1049 -0.3802  0.2115
10861TIP3    H254075   1.281   0.779   3.776 -0.7039 -0.2271 -0.3282
10862TIP3   OH254076   0.798   4.090  16.212  0.3435  0.1803  0.0849
10862TIP3    H154077   0.760   4.031  16.277  1.2327 -0.0353  0.4268
10862TIP3    H254078   0.862   4.036  16.166  0.1664  0.5050 -0.5460
10863TIP3   OH254079   4.663   1.972   2.054 -1.1167 -1.0638  0.9981
10863TIP3    H154080   4.689   1.920   1.978  2.7377  0.7709  0.7928
10863TIP3    H254081   4.613   2.045   2.018  0.1398 -0.5480  0.2162
10864TIP3   OH254082   2.869   4.861   0.141  0.2153  0.3884  0.2060
10864TIP3    H154083   2.791   4.818   0.176 -0.6765  1.2320 -0.6855
10864TIP3    H254084   2.858   4.859   0.046  0.7275  1.5034  0.0993
10865TIP3   OH254085   3.012   1.199  11.913 -0.3641  0.6786 -0.0396
10865TIP3    H154086   3.078   1.139  11.878  0.2389  0.1254  1.9472
10865TIP3    H254087   2.952   1.213  11.840  0.0680 -1.4939 -0.8913
10866TIP3   OH254088   1.797   1.948  16.982 -0.0677 -0.0890  0.2039
10866TIP3    H154089   1.720   1.982  17.029  1.4585  1.7301  1.5623
10866TIP3    H254090   1.765   1.871  16.935 -2.1499 -0.9032  2.7309
10867TIP3   OH254091   1.121   0.009  17.035  0.3959 -0.7209 -0.5986
10867TIP3    H154092   1.054   0.033  17.099 -0.0902 -0.2022 -1.2761
10867TIP3    H254093   1.092   0.050  16.954  1.2772 -0.9163 -1.0302
10868TIP3   OH254094   1.217   4.015   0.362 -0.3300 -0.2733  0.0729
10868TIP3    H154095   1.211   3.983   0.273  0.2187  0.9327 -0.4288
10868TIP3    H254096   1.132   3.997   0.401 -0.4026 -1.2661 -0.5266
10869TIP3   OH254097   1.149   1.399  15.469 -0.1283 -0.2898  0.4749
10869TIP3    H154098   1.136   1.324  15.527  0.3002 -1.7386 -1.2278
10869TIP3    H254099   1.237   1.431  15.491 -0.9423  0.8192  2.3587
10870TIP3   OH254100   4.793   3.470  12.369  0.4133  0.2382 -0.1482
10870TIP3    H154101   4.800   3.540  12.433  2.7006  0.5809 -0.6608
10870TIP3    H254102   4.745   3.400  12.413 -1.4140  1.8590  0.5683
10871TIP3   OH254103   0.157   5.080  13.845 -0.2866  0.2370  0.5029
10871TIP3    H154104   0.200   5.165  13.846  1.4755 -0.6111  2.1533
10871TIP3    H254105   0.093   5.085  13.916  0.0195  0.0987  0.7903
10872TIP3   OH254106   2.082   6.699   4.764 -0.2982 -0.3336 -0.1288
10872TIP3    H154107   2.098   6.663   4.851  0.8827  0.1764 -0.1084
10872TIP3    H254108   2.169   6.718   4.730 -0.8134  1.4884 -0.5489
10873TIP3   OH254109   6.550   1.365  15.915  0.2682 -0.4190  0.4772
10873TIP3    H154110   6.609   1.335  15.985  2.0589 -0.1166 -0.8334
10873TIP3    H254111   6.573   1.457  15.902  1.7178 -1.0314 -2.0584
10874TIP3   OH254112   6.017   3.024   5.094  0.3215  0.9210 -0.0528
10874TIP3    H154113   5.942   3.083   5.088  0.7975  1.3973 -1.7991
10874TIP3    H254114   5.980   2.943   5.129 -0.8890  1.3483 -0.2814
10875TIP3   OH254115   0.805   4.646   0.738  0.2668 -0.7513 -0.4697
10875TIP3    H154116   0.891   4.606   0.755  0.8990  0.5995 -0.3428
10875TIP3    H254117   0.805   4.726   0.791  0.3582  1.0788 -3.0543
10876TIP3   OH254118   1.799   4.251  14.117 -0.0443 -0.2228  0.2997
10876TIP3    H154119   1.849   4.176  14.086 -0.4396 -1.1897  1.8858
10876TIP3    H254120   1.834   4.269  14.205 -1.0434  0.4143  0.5904
10877TIP3   OH254121   4.185   2.094   3.501 -0.0299 -0.4610  0.3251
10877TIP3    H154122   4.246   2.164   3.524 -0.8005  0.3463 -0.0277
10877TIP3    H254123   4.206   2.022   3.561 -1.5282  1.3190  3.1991
10878TIP3   OH254124   6.726   3.032   2.768  0.0754  0.6820  0.3973
10878TIP3    H154125   6.677   3.104   2.729  1.0992  0.7121 -0.9052
10878TIP3    H254126   6.815   3.044   2.736  0.1197 -1.5915 -0.4912
10879TIP3   OH254127   4.247   1.268  13.768 -0.6746 -0.4372  0.5211
10879TIP3    H154128   4.280   1.257  13.679 -0.9603 -0.7645  0.4520
10879TIP3    H254129   4.269   1.187  13.812 -0.5098 -0.2640  0.7590
10880TIP3   OH254130   2.102   6.564  14.158  0.2675 -0.2098  0.4778
10880TIP3    H154131   2.168   6.545  14.091 -0.2971  0.7676 -0.3986
10880TIP3    H254132   2.034   6.498  14.144  0.4080 -0.3489  0.4469
10881TIP3   OH254133   3.189   6.567  16.012 -0.3798  0.0613  0.0486
10881TIP3    H154134   3.186   6.616  16.094 -0.4901  0.9608 -0.4890
10881TIP3    H254135   3.166   6.630  15.945 -1.2383 -0.8925 -0.5882
10882TIP3   OH254136   6.128   3.886   3.517  0.0699  0.8750 -0.5496
10882TIP3    H154137   6.215   3.916   3.542 -0.2066  0.7872  0.5622
10882TIP3    H254138   6.141   3.794   3.492  0.3799  1.0065 -0.8814
10883TIP3   OH254139   2.385   4.524  15.800  0.1365  0.3050 -0.6493
10883TIP3    H154140   2.328   4.460  15.842  0.1172  0.7739  0.0613
10883TIP3    H254141   2.466   4.522  15.852  0.0984  0.9200 -0.5589
10884TIP3   OH254142   6.085   0.724  11.004 -0.0077 -0.0785  0.1069
10884TIP3    H154143   6.054   0.642  11.041 -0.7822  1.3306  2.7896
10884TIP3    H254144   6.012   0.754  10.949 -1.3276  0.5782  2.1036
10885TIP3   OH254145   3.899   3.241  11.760  0.0437 -0.2849  0.4941
10885TIP3    H154146   3.960   3.181  11.717  1.7350  1.2540  0.6253
10885TIP3    H254147   3.949   3.322  11.770 -0.9739  0.0797  3.4792
10886TIP3   OH254148   3.622   6.551  12.884 -0.2453  0.2056  0.0123
10886TIP3    H154149   3.586   6.474  12.840  0.5162 -1.1926  1.7201
10886TIP3    H254150   3.710   6.525  12.909  0.4498  2.0674 -0.3506
10887TIP3   OH254151   5.743   6.003  17.516 -0.4698  0.3643  0.0347
10887TIP3    H154152   5.718   5.956  17.437 -0.7401  0.6221 -0.0322
10887TIP3    H254153   5.765   5.934  17.579 -0.2094  0.1586 -0.2747
10888TIP3   OH254154   6.526   1.488   2.450 -0.2073 -0.1725 -0.4029
10888TIP3    H154155   6.476   1.429   2.506 -2.1947  2.1298  0.4380
10888TIP3    H254156   6.567   1.550   2.511 -1.4257  1.6503 -1.3270
10889TIP3   OH254157   0.980   4.856   0.775 -0.0179  0.0704 -0.4805
10889TIP3    H154158   1.045   4.923   0.796 -1.2974  0.8539  1.1288
10889TIP3    H254159   0.997   4.835   0.683  1.8939  0.9164 -0.3646
10890TIP3   OH254160   3.595   1.559   0.658 -0.2195  0.0517  0.2985
10890TIP3    H154161   3.666   1.519   0.708  1.3610  1.5585 -0.5867
10890TIP3    H254162   3.605   1.653   0.675  0.3345  0.6313 -2.6250
10891TIP3   OH254163   2.529   6.745  10.899  0.4614 -0.4499  0.0118
10891TIP3    H154164   2.531   6.834  10.935  1.8574 -0.3140 -0.3332
10891TIP3    H254165   2.621   6.720  10.893  0.0802 -2.6574  1.9000
10892TIP3   OH254166   1.923   4.944   5.787  0.2257  0.2176  0.0817
10892TIP3    H154167   1.870   5.005   5.737 -0.2189  1.2147  1.6997
10892TIP3    H254168   1.973   4.999   5.848 -1.3912 -1.0460  2.7368
10893TIP3   OH254169   4.448   0.883   5.036 -0.3025  0.1215 -0.1955
10893TIP3    H154170   4.373   0.886   5.095 -1.2832 -0.8020 -1.3476
10893TIP3    H254171   4.469   0.790   5.028 -1.4357  0.0218 -2.7789
10894TIP3   OH254172   2.526   0.301  16.621  0.2640  0.1723 -0.4826
10894TIP3    H154173   2.471   0.274  16.694 -0.1586 -0.3917 -1.0029
10894TIP3    H254174   2.504   0.393  16.606 -1.4963 -0.3712 -1.5044
10895TIP3   OH254175   2.333   6.502   0.986 -0.1332  0.5361 -0.3015
10895TIP3    H154176   2.278   6.579   0.971 -0.8218  0.0653 -0.2447
10895TIP3    H254177   2.421   6.537   0.997 -0.6204  1.4130  0.9451
10896TIP3   OH254178   1.697   4.244  13.131  0.1234  0.6117  0.6887
10896TIP3    H154179   1.628   4.295  13.173 -0.4928 -0.7598  1.4182
10896TIP3    H254180   1.686   4.262  13.038 -1.1983  0.4682  0.7901
10897TIP3   OH254181   0.884   4.200  14.985  0.2226 -0.4222  0.4771
10897TIP3    H154182   0.838   4.278  15.014  1.0670  0.5555 -0.6900
10897TIP3    H254183   0.940   4.176  15.059  1.2017  1.1023  0.2789
10898TIP3   OH254184   4.639   5.162   4.516 -0.0330  0.0959  0.2537
10898TIP3    H154185   4.637   5.142   4.422 -0.3783  2.2188 -0.2482
10898TIP3    H254186   4.547   5.158   4.542  0.0214 -0.0867  0.4196
10899TIP3   OH254187   6.595   2.998  11.445 -0.1588 -0.0246 -0.3137
10899TIP3    H154188   6.678   3.044  11.433  1.0456 -1.2224  2.5014
10899TIP3    H254189   6.612   2.908  11.417 -0.6230 -0.1951 -0.0660
10900TIP3   OH254190   3.599   5.375  15.398 -0.1302 -0.3129 -0.3285
10900TIP3    H154191   3.586   5.286  15.430 -1.3982  0.2170  0.7553
10900TIP3    H254192   3.688   5.398  15.425  0.4096 -1.4267 -1.1083
10901TIP3   OH254193   0.556   6.420  13.623  0.1183 -0.0612 -0.2444
10901TIP3    H154194   0.621   6.456  13.562  0.5250  1.1715  0.8737
10901TIP3    H254195   0.496   6.493  13.641  0.8471  0.0847  1.9223
10902TIP3   OH254196   1.800   5.782   5.270  0.0302  0.1235  1.0817
10902TIP3    H154197   1.830   5.834   5.196  1.8403 -0.0990  1.6301
10902TIP3    H254198   1.803   5.692   5.239 -0.0170  0.0911  1.1710
10903TIP3   OH254199   0.364   0.882  14.596  0.1570 -0.3460 -0.0332
10903TIP3    H154200   0.453   0.917  14.585 -0.6701  1.8705 -0.1009
10903TIP3    H254201   0.352   0.876  14.690 -0.2604  1.2076  0.0372
10904TIP3   OH254202   4.782   2.677   2.641  0.4594  0.1925  0.1115
10904TIP3    H154203   4.766   2.605   2.580 -0.1963 -0.6645  1.2545
10904TIP3    H254204   4.782   2.756   2.587  0.8897 -0.6381 -1.1215
10905TIP3   OH254205   2.414   5.646  16.955  0.4890 -0.0478 -0.1644
10905TIP3    H154206   2.470   5.693  17.016 -0.1347  0.5987 -0.0842
10905TIP3    H254207   2.329   5.642  16.998  0.7652 -2.1473  0.2823
10906TIP3   OH254208   3.555   1.101   4.940 -0.0861  0.0185  0.0459
10906TIP3    H154209   3.466   1.104   4.906  0.1722 -0.0312 -0.6589
10906TIP3    H254210   3.600   1.173   4.896  0.3319 -0.2188  0.0730
10907TIP3   OH254211   3.761   3.176  17.452  0.7202 -0.1502  0.1500
10907TIP3    H154212   3.713   3.122  17.515  1.1529  1.0721  1.5857
10907TIP3    H254213   3.693   3.224  17.405  0.4416  1.1261  1.7572
10908TIP3   OH254214   4.942   4.536   5.873 -0.1138 -0.0781 -0.3429
10908TIP3    H154215   5.023   4.586   5.863  0.5502 -1.0424  0.0612
10908TIP3    H254216   4.891   4.556   5.794  0.5090  0.5428 -0.5981
10909TIP3   OH254217   0.169   1.072   5.767  0.6086  0.7901 -0.0280
10909TIP3    H154218   0.199   1.020   5.841 -0.7612  0.2279  0.1595
10909TIP3    H254219   0.248   1.116   5.735  1.1541  1.4669  2.0874
10910TIP3   OH254220   1.821   4.541  15.807  0.4787  0.7316  0.2166
10910TIP3    H154221   1.843   4.548  15.900  1.4747 -0.0309  0.0537
10910TIP3    H254222   1.900   4.568  15.762  0.9465 -1.4721 -0.3902
10911TIP3   OH254223   2.010   0.526   0.886  0.2689 -0.3863 -0.0412
10911TIP3    H154224   2.015   0.523   0.791 -0.3248 -0.0228 -0.0885
10911TIP3    H254225   2.062   0.602   0.911  2.0952 -1.5952  0.0813
10912TIP3   OH254226   5.536   5.053  12.586  0.5805  0.3112  0.2720
10912TIP3    H154227   5.581   5.000  12.520 -2.9657 -0.8165 -1.4921
10912TIP3    H254228   5.530   5.140  12.548 -1.5393 -0.3584 -1.0960
10913TIP3   OH254229   1.014   0.055  11.957  0.1571 -0.1796  0.2191
10913TIP3    H154230   0.992   0.139  11.995 -1.1227  0.3828 -1.6470
10913TIP3    H254231   0.930   0.014  11.938  0.7352 -2.2231  1.7077
10914TIP3   OH254232   5.750   3.580   4.404 -0.0405  0.4712  0.9877
10914TIP3    H154233   5.670   3.620   4.439 -0.7931 -2.1792  2.5668
10914TIP3    H254234   5.819   3.607   4.464  0.2970  2.5716 -0.2464
10915TIP3   OH254235   3.049   6.069  12.266  0.5886 -0.0287 -0.5097
10915TIP3    H154236   3.082   6.150  12.229 -1.0403  1.6943  1.5698
10915TIP3    H254237   2.954   6.076  12.259  0.3388 -0.8967  1.3161
10916TIP3   OH254238   3.862   1.699  13.164  0.4624  0.4487  0.5330
10916TIP3    H154239   3.780   1.741  13.193  0.3353 -0.2724  1.2334
10916TIP3    H254240   3.842   1.606  13.164  1.8342  0.1056  2.5462
10917TIP3   OH254241   3.848   4.388   2.057  0.8148 -0.2935  0.1166
10917TIP3    H154242   3.894   4.449   2.116  1.2906 -1.0381  0.5312
10917TIP3    H254243   3.758   4.421   2.055  0.9725  0.2040  0.6350
10918TIP3   OH254244   4.344   3.307  11.285 -0.4125  0.1629 -0.5840
10918TIP3    H154245   4.290   3.377  11.321 -0.1274  0.6057 -0.9970
10918TIP3    H254246   4.433   3.329  11.312 -0.5359 -1.2515  1.2020
10919TIP3   OH254247   4.585   3.478  13.249 -0.0053 -0.4363 -0.2056
10919TIP3    H154248   4.547   3.414  13.189  0.5418 -0.3514 -0.6603
10919TIP3    H254249   4.605   3.429  13.328  0.7116 -0.9135 -0.6704
10920TIP3   OH254250   2.111   5.816  13.402  0.1304  0.4833  0.4962
10920TIP3    H154251   2.073   5.731  13.383  2.5752 -0.6044  0.1763
10920TIP3    H254252   2.037   5.877  13.395 -1.2648 -1.2898 -1.4536
10921TIP3   OH254253   4.932   6.688  11.588 -0.0998  0.3791  0.4217
10921TIP3    H154254   4.897   6.762  11.538  0.4069  1.3928  1.5127
10921TIP3    H254255   4.882   6.612  11.558 -2.1733  1.5229  0.8651
10922TIP3   OH254256   1.721   1.543   5.496  0.1184  0.1890  0.2013
10922TIP3    H154257   1.785   1.576   5.433  1.5573  0.7346  1.8649
10922TIP3    H254258   1.690   1.622   5.542 -0.8006 -0.2106  0.2979
10923TIP3   OH254259   0.335   0.465  14.682  0.7369  0.6374 -0.2029
10923TIP3    H154260   0.282   0.530  14.636  0.9780  0.4053 -0.8255
10923TIP3    H254261   0.425   0.483  14.655  0.9921  1.0318  0.8501
10924TIP3   OH254262   1.867   6.118   0.622 -0.2155 -0.0784 -0.3045
10924TIP3    H154263   1.810   6.051   0.584  1.4434 -1.4106 -0.5649
10924TIP3    H254264   1.862   6.103   0.716 -0.5522  0.0269 -0.3056
10925TIP3   OH254265   0.706   5.139   4.818  0.3939  0.4069 -0.0005
10925TIP3    H154266   0.681   5.230   4.835 -1.9886 -0.4444  1.5637
10925TIP3    H254267   0.796   5.132   4.852 -0.2778  1.5922  2.2493
10926TIP3   OH254268   0.821   0.535   5.386 -0.2617  0.1471 -0.2146
10926TIP3    H154269   0.878   0.604   5.352  0.4982 -1.5170 -2.5886
10926TIP3    H254270   0.843   0.458   5.334 -2.2253 -1.4847  1.2131
10927TIP3   OH254271   5.567   1.862   4.789 -0.3549 -0.2028 -0.5177
10927TIP3    H154272   5.553   1.791   4.851  1.0921 -2.1299 -2.2567
10927TIP3    H254273   5.481   1.874   4.747 -0.8632 -0.1846  0.4925
10928TIP3   OH254274   3.043   1.885   2.171  0.5356  0.3159 -0.1161
10928TIP3    H154275   3.093   1.898   2.090 -2.0501  0.5864 -1.7895
10928TIP3    H254276   3.035   1.790   2.178  2.1073  0.2152  0.7664
10929TIP3   OH254277   2.515   5.910   0.256  0.3907 -0.1201 -0.3168
10929TIP3    H154278   2.435   5.937   0.301  0.0917  1.5721 -1.7815
10929TIP3    H254279   2.497   5.821   0.227 -1.2827  0.4784 -1.2476
10930TIP3   OH254280   6.200   1.268  13.289 -0.1719  0.0358  0.4828
10930TIP3    H154281   6.177   1.341  13.233 -3.6067 -1.3575 -0.1287
10930TIP3    H254282   6.225   1.198  13.229  1.4111  0.1260  0.9926
10931TIP3   OH254283   3.502   6.033  14.074 -0.2435 -0.0109 -0.0186
10931TIP3    H154284   3.579   6.083  14.101 -0.3609 -0.4420  1.1610
10931TIP3    H254285   3.436   6.100  14.053  0.3580  0.3548 -0.8101
10932TIP3   OH254286   4.964   2.460  12.811  0.3775 -0.2477  0.2533
10932TIP3    H154287   4.938   2.385  12.865  0.7704 -1.9874 -1.8655
10932TIP3    H254288   4.882   2.493  12.775  0.3233 -0.5567  0.0861
10933TIP3   OH254289   2.853   1.481   0.798 -0.2795 -0.5148  0.7311
10933TIP3    H154290   2.851   1.385   0.807 -1.0183 -0.8477 -2.0533
10933TIP3    H254291   2.945   1.504   0.809  0.1154 -1.7124  0.1719
10934TIP3   OH254292   6.721   4.615   0.226  0.1049 -0.1814  0.6249
10934TIP3    H154293   6.649   4.555   0.246 -1.2224  1.2993  0.5427
10934TIP3    H254294   6.770   4.623   0.308  0.6979 -1.8335  0.4647
10935TIP3   OH254295   4.126   4.651   3.989  0.2900 -0.4249  0.1804
10935TIP3    H154296   4.097   4.643   4.080  0.5521  0.8010  0.3905
10935TIP3    H254297   4.220   4.631   3.992  1.3294  3.6724  0.9858
10936TIP3   OH254298   5.606   1.170   5.093  0.4107 -0.4101 -0.3238
10936TIP3    H154299   5.607   1.214   5.178  1.3647 -0.8614 -0.0844
10936TIP3    H254300   5.614   1.077   5.114  0.1462 -0.5663 -0.8948
10937TIP3   OH254301   0.867   2.149  15.751 -0.3185 -0.8325 -0.1379
10937TIP3    H154302   0.926   2.076  15.734 -2.8964 -2.7564 -1.6413
10937TIP3    H254303   0.831   2.131  15.838  2.2109  1.1762  1.4929
10938TIP3   OH254304   6.533   0.064  14.146 -0.7129  0.0129  0.3915
10938TIP3    H154305   6.466   0.109  14.095 -0.1950  0.8706  0.4557
10938TIP3    H254306   6.596   0.033  14.082  0.0688  1.3100  0.5103
10939TIP3   OH254307   5.079   5.273   3.390  0.3854 -0.1962  0.4202
10939TIP3    H154308   5.168   5.306   3.382  0.5913 -0.9434 -0.5792
10939TIP3    H254309   5.089   5.186   3.428  0.1935 -0.7349 -0.7091
10940TIP3   OH254310   4.872   3.203  14.435 -0.3174  0.1620  0.0799
10940TIP3    H154311   4.923   3.277  14.469  0.9885  0.1978 -1.8240
10940TIP3    H254312   4.898   3.129  14.490  0.1690  0.6188  0.4862
10941TIP3   OH254313   3.617   4.613   0.728 -0.1746 -0.6205  0.3153
10941TIP3    H154314   3.559   4.563   0.670 -0.0334  0.5110 -0.8488
10941TIP3    H254315   3.704   4.603   0.689 -0.1821  0.7008 -0.0736
10942TIP3   OH254316   1.325   4.358  12.854 -0.2800  0.3122  0.4072
10942TIP3    H154317   1.365   4.379  12.938 -1.4825 -1.3231  1.4491
10942TIP3    H254318   1.241   4.317  12.877 -0.1768 -1.1259 -1.5486
10943TIP3   OH254319   3.799   0.609  12.788 -0.1641 -0.1141  0.2999
10943TIP3    H154320   3.784   0.518  12.812  0.7735 -0.5008 -0.5158
10943TIP3    H254321   3.728   0.630  12.728 -1.6731  0.4085  2.1873
10944TIP3   OH254322   3.148   0.826  15.563  0.1596 -0.2046 -0.3202
10944TIP3    H154323   3.115   0.903  15.517  0.9636  1.0642  1.1187
10944TIP3    H254324   3.075   0.798  15.618  0.0444 -0.1494 -0.4431
10945TIP3   OH254325   0.309   0.738  15.062  0.2571  0.4016 -0.4619
10945TIP3    H154326   0.405   0.733  15.064  0.2009 -0.7389  0.5489
10945TIP3    H254327   0.290   0.791  14.985  1.6597 -1.2685 -2.0585
10946TIP3   OH254328   6.430   1.647   6.158 -0.2401  0.0982  0.1608
10946TIP3    H154329   6.433   1.636   6.253  2.0788  0.5251  0.2116
10946TIP3    H254330   6.480   1.728   6.142 -2.6969  1.4720 -1.2860
10947TIP3   OH254331   0.727   1.986  13.140  0.2774  0.5695  0.1078
10947TIP3    H154332   0.743   1.931  13.063 -0.0714  0.8337 -0.1598
10947TIP3    H254333   0.638   1.964  13.167 -0.8678  2.7492 -1.5183
10948TIP3   OH254334   5.408   0.997   2.546  0.5884 -0.2801  0.1981
10948TIP3    H154335   5.469   1.062   2.582  1.1356 -0.9036  0.4122
10948TIP3    H254336   5.400   0.931   2.615 -0.2243 -0.2860  0.1143
10949TIP3   OH254337   5.488   5.842   2.355  0.3351 -0.0887 -0.3159
10949TIP3    H154338   5.406   5.883   2.329 -0.7764 -2.6616 -1.2475
10949TIP3    H254339   5.482   5.835   2.450 -0.7146 -0.5459 -0.4028
10950TIP3   OH254340   3.055   2.068   3.954 -0.0249 -0.9464  0.1163
10950TIP3    H154341   2.974   2.110   3.924  1.2193  1.0404 -0.6388
10950TIP3    H254342   3.047   2.065   4.049 -1.1076 -1.0623  0.0294
10951TIP3   OH254343   3.319   1.432   4.031 -0.2031 -0.1525  0.3178
10951TIP3    H154344   3.362   1.353   3.997 -1.0161 -0.2149 -0.6186
10951TIP3    H254345   3.377   1.504   4.008  0.5208 -0.4487  1.1340
10952TIP3   OH254346   6.251   0.051  14.677  0.0108  0.1030 -0.5583
10952TIP3    H154347   6.319   0.024  14.738  1.1657 -0.0117 -1.8346
10952TIP3    H254348   6.218   0.133  14.712 -1.2129 -1.2405  1.5994
10953TIP3   OH254349   0.539   1.993  15.250  0.6664  0.2084  0.0145
10953TIP3    H154350   0.633   2.011  15.252  0.6032  0.5187  0.3498
10953TIP3    H254351   0.504   2.056  15.188  0.7618 -0.3212 -0.5839
10954TIP3   OH254352   4.004   2.780   4.835 -0.2062  0.5744  0.3919
10954TIP3    H154353   4.029   2.814   4.749 -2.2484  0.4184 -0.3151
10954TIP3    H254354   3.999   2.857   4.891  0.9720  0.6963  0.3537
10955TIP3   OH254355   0.801   1.823  14.462  0.1153  0.3538  0.3228
10955TIP3    H154356   0.859   1.806  14.389 -0.2476  1.1064 -0.1525
10955TIP3    H254357   0.791   1.918  14.464 -2.4488  0.1768 -0.7002
10956TIP3   OH254358   4.298   4.844   5.243  0.6539  0.0340 -0.2482
10956TIP3    H154359   4.209   4.809   5.236  0.1085  1.4667 -0.8900
10956TIP3    H254360   4.289   4.938   5.226  2.4917 -0.0172 -1.9127
10957TIP3   OH254361   4.199   2.143  16.694 -0.3972  0.0161  0.4573
10957TIP3    H154362   4.260   2.089  16.744 -0.6185 -0.7836 -0.1166
10957TIP3    H254363   4.196   2.102  16.608 -1.0259  0.6066  0.1912
10958TIP3   OH254364   2.833   2.256   3.005  0.1235  0.4020  0.0495
10958TIP3    H154365   2.851   2.222   2.917  1.7551 -3.4298  1.6365
10958TIP3    H254366   2.739   2.274   3.006 -0.1110 -0.3984 -2.1777
10959TIP3   OH254367   3.519   1.216   0.425  0.2457  0.1351  0.2830
10959TIP3    H154368   3.582   1.214   0.353 -1.8215 -0.4173 -1.6183
10959TIP3    H254369   3.499   1.309   0.438 -0.5939  0.1669 -1.0539
10960TIP3   OH254370   3.996   4.984   4.093  0.6150 -0.1172  0.6200
10960TIP3    H154371   4.009   5.045   4.021 -3.2549  1.4860  1.0518
10960TIP3    H254372   3.903   4.960   4.088  0.4613 -0.8659  4.3574
10961TIP3   OH254373   2.024   4.626  12.259  0.4614  0.2458  0.1799
10961TIP3    H154374   2.053   4.552  12.312  1.9477  0.8547  0.2496
10961TIP3    H254375   1.979   4.585  12.185  1.6165 -0.7531 -0.0019
10962TIP3   OH254376   5.875   3.140  12.541  0.5547 -0.5170 -0.4681
10962TIP3    H154377   5.967   3.121  12.558  0.2299  0.9562  4.6162
10962TIP3    H254378   5.827   3.085  12.603 -1.7285  1.2552 -0.5210
10963TIP3   OH254379   3.424   3.173  16.367 -0.6712 -0.2487 -0.2266
10963TIP3    H154380   3.492   3.237  16.387 -0.3755  0.2500 -2.4986
10963TIP3    H254381   3.471   3.102  16.323 -1.0526 -1.9075  1.8935
10964TIP3   OH254382   1.373   4.088   5.946  0.8040  0.0968  0.2696
10964TIP3    H154383   1.368   4.137   6.028  2.8281  0.5415  0.1762
10964TIP3    H254384   1.462   4.054   5.943  1.2796  1.2660 -2.3801
10965TIP3   OH254385   1.229   3.889   4.966 -0.0329 -0.1687  0.8799
10965TIP3    H154386   1.208   3.855   5.053  1.4807  0.3240  1.4816
10965TIP3    H254387   1.224   3.984   4.976  3.4907  0.0984  1.4639
10966TIP3   OH254388   0.552   6.519   0.275 -0.2993 -0.2296  0.3120
10966TIP3    H154389   0.487   6.492   0.209  1.1238 -0.3981 -1.0764
10966TIP3    H254390   0.576   6.608   0.250 -1.2391  0.5083  1.8757
10967TIP3   OH254391   0.305   0.925   5.213  0.0343  0.1684 -0.0833
10967TIP3    H154392   0.345   0.883   5.289  0.9831 -0.2555 -0.7872
10967TIP3    H254393   0.309   1.019   5.233  0.9459  0.1034  0.0868
10968TIP3   OH254394   4.252   3.011   4.157  0.2135 -0.1820  0.1821
10968TIP3    H154395   4.319   2.981   4.219  2.0325  0.4129 -1.3871
10968TIP3    H254396   4.259   2.950   4.084  1.4467  1.8384 -1.4699
10969TIP3   OH254397   2.938   5.944  11.930 -0.7194 -0.5537  0.0428
10969TIP3    H154398   2.868   5.902  11.981  0.7663 -1.6164  1.3129
10969TIP3    H254399   2.958   5.882  11.861  0.2353 -1.1436  0.8264
10970TIP3   OH254400   0.347   2.121   5.326  0.6318 -0.4367  0.2708
10970TIP3    H154401   0.265   2.123   5.276  1.3219 -1.3863 -0.9728
10970TIP3    H254402   0.372   2.213   5.335  0.1768 -0.2106 -0.6326
10971TIP3   OH254403   6.216   5.568   4.317  0.2479  0.4781  0.1727
10971TIP3    H154404   6.226   5.661   4.294 -0.0719  0.8832  1.5986
10971TIP3    H254405   6.123   5.556   4.332  0.2472 -0.1575 -0.2964
10972TIP3   OH254406   1.822   6.188   2.345 -0.2898  0.0739  0.3032
10972TIP3    H154407   1.898   6.132   2.359  0.0700  0.2752 -0.7676
10972TIP3    H254408   1.785   6.200   2.433  0.2232 -0.9828  0.6830
10973TIP3   OH254409   5.190   2.958   2.118 -0.1780 -0.3054 -0.2973
10973TIP3    H154410   5.264   2.902   2.098 -1.3043 -1.1307 -2.3955
10973TIP3    H254411   5.205   2.986   2.209  2.5341 -0.6249 -0.5648
10974TIP3   OH254412   3.622   0.238  14.545  0.0608 -0.2535  0.6598
10974TIP3    H154413   3.541   0.239  14.495 -0.2993  1.2008  1.2105
10974TIP3    H254414   3.633   0.147  14.571 -1.0800 -0.5811  0.0705
10975TIP3   OH254415   0.619   2.627   0.817  0.0803  0.5858  0.3539
10975TIP3    H154416   0.673   2.642   0.740  1.6838  1.7763  1.6235
10975TIP3    H254417   0.529   2.646   0.788  0.4337 -0.4110 -1.5455
10976TIP3   OH254418   1.733   5.134  16.151  0.2040 -0.5702 -0.3298
10976TIP3    H154419   1.641   5.128  16.127  0.2805  2.0000 -1.6158
10976TIP3    H254420   1.732   5.151  16.246 -0.4945 -2.2751  0.0173
10977TIP3   OH254421   5.268   5.069   0.522 -0.1827 -0.0089 -0.1420
10977TIP3    H154422   5.357   5.050   0.553 -0.1005  0.7369  0.1068
10977TIP3    H254423   5.254   5.008   0.450  0.1040 -0.9076  0.5567
10978TIP3   OH254424   6.272   2.629  14.849 -0.2069 -0.7579 -0.1382
10978TIP3    H154425   6.193   2.600  14.894  0.6419 -0.9276  1.2877
10978TIP3    H254426   6.306   2.550  14.806 -0.6791 -0.7298 -0.5746
10979TIP3   OH254427   2.113   2.105   1.238  0.2202  0.0332  0.0529
10979TIP3    H154428   2.204   2.098   1.207  0.3036  2.8648 -0.6725
10979TIP3    H254429   2.061   2.106   1.157 -0.3155 -0.0836  0.3933
10980TIP3   OH254430   6.562   0.727   0.513  0.4002 -0.0068 -0.2761
10980TIP3    H154431   6.511   0.701   0.590 -0.2776  0.1525 -0.6593
10980TIP3    H254432   6.559   0.651   0.455  2.1556 -0.6818  0.4483
10981TIP3   OH254433   0.423   1.838   1.451 -0.2867  0.5239  0.2794
10981TIP3    H154434   0.381   1.764   1.408  0.5750 -1.1652  2.2168
10981TIP3    H254435   0.378   1.915   1.415 -2.1082 -0.9685 -0.8163
10982TIP3   OH254436   4.704   3.470  12.890 -0.0178 -0.1825 -0.2004
10982TIP3    H154437   4.769   3.430  12.948  0.8058  1.3365 -0.0449
10982TIP3    H254438   4.647   3.520  12.948  0.3602  0.7402 -0.6195
10983TIP3   OH254439   6.020   5.877  11.060 -0.5709 -0.4711  0.3882
10983TIP3    H154440   6.020   5.936  11.135  0.9460 -1.2825  1.0711
10983TIP3    H254441   6.078   5.805  11.086 -0.4349 -1.0371 -1.3484
10984TIP3   OH254442   4.559   3.028  15.611  0.8252 -0.3095  0.3608
10984TIP3    H154443   4.567   2.960  15.545  2.5064  0.2461 -0.0473
10984TIP3    H254444   4.584   2.985  15.693  1.7310 -0.2349  0.1280
10985TIP3   OH254445   1.775   3.022   1.467  0.3132  0.6297 -0.4496
10985TIP3    H154446   1.727   2.967   1.404 -0.2788 -0.1670  0.6599
10985TIP3    H254447   1.707   3.054   1.526  1.1003 -0.2797  0.9859
10986TIP3   OH254448   5.733   1.158   4.483 -0.0363  0.0281  0.0781
10986TIP3    H154449   5.796   1.215   4.439 -0.7022  2.1647  1.6825
10986TIP3    H254450   5.658   1.154   4.424  0.0330  0.8448 -0.0779
10987TIP3   OH254451   3.362   4.575  16.646  0.4769 -0.1221  0.1093
10987TIP3    H154452   3.374   4.486  16.680 -0.9139 -0.5453 -0.4322
10987TIP3    H254453   3.282   4.606  16.688  0.6552  0.6701 -0.1232
10988TIP3   OH254454   0.721   2.361   1.616 -0.3176  0.4984 -0.4187
10988TIP3    H154455   0.646   2.362   1.557 -0.5844  0.9763 -0.0812
10988TIP3    H254456   0.723   2.449   1.654 -0.6297 -0.0217  0.8685
10989TIP3   OH254457   2.728   2.781  13.436  0.4442 -0.1200  0.3078
10989TIP3    H154458   2.759   2.851  13.380 -1.7858  1.1266  0.5217
10989TIP3    H254459   2.741   2.814  13.525 -1.7507  0.6425  0.4043
10990TIP3   OH254460   3.573   2.828   0.176 -0.1780 -0.0217 -0.2771
10990TIP3    H154461   3.591   2.892   0.108  0.8069  0.5382  0.4733
10990TIP3    H254462   3.593   2.874   0.258  1.8573 -1.6769  0.2329
10991TIP3   OH254463   4.198   1.169  12.107  0.3146  0.4591  0.0077
10991TIP3    H154464   4.200   1.205  12.195 -1.6189  2.5584 -0.7232
10991TIP3    H254465   4.131   1.101  12.111  0.9572 -0.1709  0.3644
10992TIP3   OH254466   2.760   1.071  11.457 -0.4578 -0.0695  0.2421
10992TIP3    H154467   2.773   1.133  11.386  0.6284 -2.8396 -2.1906
10992TIP3    H254468   2.666   1.073  11.475 -0.6699  1.0382 -0.8903
10993TIP3   OH254469   3.290   6.727   0.048  0.0170 -0.1685 -0.3548
10993TIP3    H154470   3.235   6.746   0.125  2.0718  4.1674  0.3394
10993TIP3    H254471   3.378   6.715   0.084  1.1806  2.7894 -1.8970
10994TIP3   OH254472   2.138   2.795  13.248 -0.4716 -0.4479  0.2156
10994TIP3    H154473   2.144   2.839  13.164 -1.5020  0.6569  0.6902
10994TIP3    H254474   2.058   2.741  13.241 -1.1844  0.4925  0.8388
10995TIP3   OH254475   4.411   0.545  14.528  0.1269  0.2166  0.4922
10995TIP3    H154476   4.333   0.582  14.571  0.2596  0.5232  0.4739
10995TIP3    H254477   4.404   0.576  14.438 -0.3509 -0.7382  0.1902
10996TIP3   OH254478   3.105   1.685  14.052  0.0794 -0.1644  0.4754
10996TIP3    H154479   3.066   1.617  13.997 -2.3802  0.6583  1.0713
10996TIP3    H254480   3.030   1.732  14.089  1.6607  2.6796  0.3477
10997TIP3   OH254481   0.529   2.062  11.400  0.3355  0.4040 -0.5174
10997TIP3    H154482   0.596   2.075  11.333  0.4299 -0.8183 -0.6832
10997TIP3    H254483   0.466   2.132  11.385 -0.1317 -0.3795 -2.4892
10998TIP3   OH254484   2.589   0.719   3.511 -0.1583 -0.7637 -0.0224
10998TIP3    H154485   2.682   0.696   3.505 -0.3377 -1.5123 -0.0363
10998TIP3    H254486   2.573   0.728   3.605 -0.2671 -1.5016  0.0380
10999TIP3   OH254487   0.070   4.353  15.781  0.2907 -0.1386  0.2794
10999TIP3    H154488   0.057   4.283  15.844  0.7818 -0.2139  0.2987
10999TIP3    H254489   0.080   4.308  15.697 -0.0517 -0.0552  0.1918
11000TIP3   OH254490   1.096   5.898  15.852  0.2058 -0.1030 -0.0545
11000TIP3    H154491   1.187   5.870  15.843  0.4788 -0.0114  1.9409
11000TIP3    H254492   1.099   5.993  15.841  0.3755 -0.0918  0.0774
11001TIP3   OH254493   0.732   5.264  17.522  0.3236 -0.3195 -0.5192
11001TIP3    H154494   0.643   5.250  17.491  1.0250 -1.7198 -2.0951
11001TIP3    H254495   0.780   5.294  17.445  0.8181  2.4825  0.7787
11002TIP3   OH254496   1.723   6.605  14.847 -0.2457 -0.2604 -0.6066
11002TIP3    H154497   1.689   6.595  14.758  0.8303  0.5819 -1.1360
11002TIP3    H254498   1.740   6.516  14.877  0.5689 -0.4988 -1.7258
11003TIP3   OH254499   0.665   4.864   6.680  0.4571  0.7814  0.2018
11003TIP3    H154500   0.572   4.852   6.665  0.1282  2.0630  1.0247
11003TIP3    H254501   0.670   4.935   6.744  1.8722 -1.7733  3.2067
11004TIP3   OH254502   5.133   4.919  16.771 -0.7750  0.4068  0.7911
11004TIP3    H154503   5.114   4.835  16.812 -2.5796 -0.0344 -0.7903
11004TIP3    H254504   5.051   4.943  16.728 -0.0770  2.6364  0.6012
11005TIP3   OH254505   3.214   0.155  15.312  0.2496 -0.2240  0.0304
11005TIP3    H154506   3.201   0.163  15.218  1.5417  0.5507 -0.0999
11005TIP3    H254507   3.175   0.070  15.335  0.1642 -0.5398 -1.2378
11006TIP3   OH254508   5.912   1.532  15.431 -0.0712 -0.6253  0.3074
11006TIP3    H154509   5.952   1.571  15.509  0.0510  0.2612 -0.1893
11006TIP3    H254510   5.828   1.576  15.422 -0.0537 -0.6724 -0.1070
11007TIP3   OH254511   6.679   1.874   0.107 -0.1667  0.3920 -0.3045
11007TIP3    H154512   6.740   1.806   0.137 -0.7261  0.3054  0.6844
11007TIP3    H254513   6.707   1.953   0.152 -0.9433  0.2897  0.3799
11008TIP3   OH254514   0.353   0.674  14.153  0.7492 -0.1640  0.2778
11008TIP3    H154515   0.417   0.613  14.117  2.7331  2.3813 -0.9195
11008TIP3    H254516   0.369   0.756  14.105 -0.8593  1.6610  2.5936
11009TIP3   OH254517   1.267   0.223  15.788  0.3535 -0.5243 -0.2096
11009TIP3    H154518   1.308   0.309  15.781 -0.7701  0.1663  1.1968
11009TIP3    H254519   1.174   0.242  15.796 -0.1155 -1.9822 -1.6663
11010TIP3   OH254520   2.455   6.655   2.581 -0.5722 -0.4481  0.2590
11010TIP3    H154521   2.468   6.649   2.487  0.9262 -1.2307  0.4815
11010TIP3    H254522   2.409   6.738   2.594  0.2093  0.2262 -1.0653
11011TIP3   OH254523   5.589   6.059   1.326  0.1850 -0.4395 -0.3285
11011TIP3    H154524   5.663   6.109   1.360 -0.8961 -0.0344  1.5560
11011TIP3    H254525   5.628   6.003   1.259  2.4504 -1.1231  1.4080
11012TIP3   OH254526   2.402   3.458  16.250 -0.4206 -0.1060  0.4907
11012TIP3    H154527   2.456   3.517  16.198 -0.7321  0.6517  1.0167
11012TIP3    H254528   2.458   3.383  16.267  0.7819  1.0246  1.7607
11013TIP3   OH254529   1.379   4.559  17.005  0.4896 -0.1163 -0.0990
11013TIP3    H154530   1.336   4.642  17.025  0.3583 -0.5451  1.4942
11013TIP3    H254531   1.473   4.578  17.012  0.5709  0.4050 -1.9368
11014TIP3   OH254532   4.459   2.852  16.986 -0.2528 -0.0672 -0.2495
11014TIP3    H154533   4.417   2.797  16.920 -1.5026  1.1540 -0.5197
11014TIP3    H254534   4.522   2.794  17.029  0.4670 -0.9395 -2.3667
11015TIP3   OH254535   3.465   1.392   4.680 -0.2274 -0.1687  0.2461
11015TIP3    H154536   3.467   1.326   4.611 -1.5097 -1.8542  1.7250
11015TIP3    H254537   3.531   1.363   4.743  1.0022  1.4025 -0.2361
11016TIP3   OH254538   3.261   6.168  13.744 -0.3973  0.0341 -0.3463
11016TIP3    H154539   3.229   6.248  13.703 -0.0560  0.1964 -0.2982
11016TIP3    H254540   3.316   6.127  13.678 -1.7704 -0.9427 -0.9291
11017TIP3   OH254541   6.184   2.145  12.641 -0.3172 -0.1105 -0.0070
11017TIP3    H154542   6.170   2.165  12.734  0.8960  1.1318 -0.0554
11017TIP3    H254543   6.164   2.227  12.596  2.2879  0.3453 -0.4959
11018TIP3   OH254544   0.704   0.709   5.563  0.4666 -0.0171 -0.5733
11018TIP3    H154545   0.777   0.746   5.612 -0.0257 -2.5516  2.4628
11018TIP3    H254546   0.739   0.627   5.528 -0.2961 -0.1432 -1.0506
11019TIP3   OH254547   0.317   2.296  16.316 -0.0467  0.2885 -0.1836
11019TIP3    H154548   0.287   2.348  16.390  0.2125 -0.0902  0.1990
11019TIP3    H254549   0.240   2.283  16.262 -0.9788 -1.9195  1.5323
11020TIP3   OH254550   1.848   3.655   2.462 -0.6187 -0.4978  0.2131
11020TIP3    H154551   1.823   3.648   2.369  1.4962 -0.5479 -0.3987
11020TIP3    H254552   1.782   3.603   2.508 -0.7942 -1.8323 -1.4358
11021TIP3   OH254553   3.157   1.970   1.912  0.8317  0.6090  0.3244
11021TIP3    H154554   3.241   2.016   1.912  0.5474  1.1869  1.6277
11021TIP3    H254555   3.101   2.022   1.854  1.1698  0.5984 -0.0183
11022TIP3   OH254556   3.114   4.459   1.165 -0.2272 -0.4987  0.0158
11022TIP3    H154557   3.027   4.498   1.155  0.5681  1.1934 -0.6801
11022TIP3    H254558   3.134   4.470   1.258 -0.5297 -0.4233  0.0731
11023TIP3   OH254559   3.741   5.759  14.905 -0.3815  0.1642  0.6722
11023TIP3    H154560   3.764   5.670  14.930 -1.3121 -0.2019  0.2659
11023TIP3    H254561   3.652   5.752  14.869  0.2720  0.9105 -1.2383
11024TIP3   OH254562   5.952   1.419   5.617 -0.4897  0.6284  0.3180
11024TIP3    H154563   5.904   1.381   5.543  0.1830  2.0524 -0.9113
11024TIP3    H254564   6.003   1.346   5.652 -3.3218 -0.8990  1.5729
11025TIP3   OH254565   0.328   1.091   4.194 -0.5142 -0.5512  0.2334
11025TIP3    H154566   0.370   1.167   4.154 -1.8760  1.8081  2.8948
11025TIP3    H254567   0.397   1.050   4.247 -0.6741  1.4023  2.0716
11026TIP3   OH254568   3.357   5.363   5.550 -0.2532 -0.4452 -0.0319
11026TIP3    H154569   3.403   5.344   5.632 -0.5072  1.3312  0.5739
11026TIP3    H254570   3.414   5.328   5.482  1.0834  0.0178  0.8065
11027TIP3   OH254571   3.530   4.883   3.833  0.0980 -0.1397 -0.1358
11027TIP3    H154572   3.538   4.816   3.764 -0.5344 -0.2374 -0.1262
11027TIP3    H254573   3.490   4.836   3.906 -0.6303  0.3104 -0.2306
11028TIP3   OH254574   4.281   3.854   1.213  0.1604 -0.2121  0.8239
11028TIP3    H154575   4.342   3.928   1.217  0.4755 -0.5392  2.6139
11028TIP3    H254576   4.333   3.777   1.235  0.0326 -1.1832 -1.8036
11029TIP3   OH254577   5.244   6.037   2.024  0.0986  0.2871 -0.2078
11029TIP3    H154578   5.329   6.076   2.001 -0.1345  0.5185 -0.6764
11029TIP3    H254579   5.210   6.004   1.941  0.7685 -1.8671  0.3178
11030TIP3   OH254580   4.254   1.721   1.723 -0.3696  0.0608 -0.1057
11030TIP3    H154581   4.334   1.668   1.724  0.5021  1.3236  1.0882
11030TIP3    H254582   4.275   1.796   1.778 -1.7706  1.3413 -1.2483
11031TIP3   OH254583   4.216   3.237  13.279 -0.1663  0.3866  0.2007
11031TIP3    H154584   4.208   3.214  13.372  0.4440 -0.0969  0.1388
11031TIP3    H254585   4.175   3.323  13.273 -2.0994 -0.4439  0.5353
11032TIP3   OH254586   6.111   5.533  13.093  0.4141  0.5414  0.3101
11032TIP3    H154587   6.102   5.441  13.119 -0.2270  0.1749 -1.1113
11032TIP3    H254588   6.197   5.559  13.126  1.9378 -1.4783 -1.7197
11033TIP3   OH254589   1.560   1.149  15.692  0.1676 -1.2298 -0.1240
11033TIP3    H154590   1.488   1.145  15.754  0.2535 -0.9479 -0.0080
11033TIP3    H254591   1.606   1.230  15.712 -1.0553 -0.0198 -1.9273
11034TIP3   OH254592   6.155   0.708   2.305  0.1403  0.0897  0.2021
11034TIP3    H154593   6.156   0.794   2.347  1.5837  0.9560 -1.4842
11034TIP3    H254594   6.143   0.727   2.212 -0.4551 -1.6110 -0.1042
11035TIP3   OH254595   4.921   0.378  13.142  0.3427  0.2489  0.3867
11035TIP3    H154596   4.852   0.438  13.115 -2.0082 -2.3577  0.0934
11035TIP3    H254597   4.999   0.432  13.150 -1.4756  3.1814 -0.3223
11036TIP3   OH254598   3.778   3.410  11.138  0.4733 -0.2299  0.1067
11036TIP3    H154599   3.869   3.404  11.110 -0.1407 -0.1618 -2.0750
11036TIP3    H254600   3.736   3.467  11.074 -1.1336 -0.3028  1.0189
11037TIP3   OH254601   0.285   4.045   2.780 -0.7363 -0.0212  0.2056
11037TIP3    H154602   0.362   4.024   2.833 -1.0016  0.0415  0.6231
11037TIP3    H254603   0.320   4.085   2.701 -0.3348 -0.0596  0.3628
11038TIP3   OH254604   4.584   2.216  12.962 -0.1680 -0.1742  0.2635
11038TIP3    H154605   4.529   2.252  12.893 -1.1069  0.6638  1.3984
11038TIP3    H254606   4.638   2.289  12.991  0.5433 -0.6364  0.1137
11039TIP3   OH254607   4.092   0.288   6.298 -0.4645 -0.2861 -0.3129
11039TIP3    H154608   4.025   0.283   6.229 -1.4949  1.2196  0.5259
11039TIP3    H254609   4.070   0.368   6.346  1.2685 -0.3899  0.7058
11040TIP3   OH254610   4.398   1.448   5.514  0.5176  0.2349  0.0218
11040TIP3    H154611   4.332   1.480   5.452  0.2492  0.9405  0.6539
11040TIP3    H254612   4.468   1.412   5.458  0.0741  0.4357 -0.6771
11041TIP3   OH254613   3.001   2.890  10.978  0.1176  0.3077 -0.0501
11041TIP3    H154614   2.936   2.823  10.997 -0.5145  0.8442 -0.2868
11041TIP3    H254615   2.952   2.960  10.934  0.4958  1.4740  1.3016
11042TIP3   OH254616   5.441   1.749   2.093  0.1412  0.3585 -0.2985
11042TIP3    H154617   5.499   1.731   2.019 -0.0871  0.2047 -0.4413
11042TIP3    H254618   5.427   1.663   2.134 -0.3961  0.3098 -0.5706
11043TIP3   OH254619   1.465   0.966  11.309 -0.4879  0.4844  0.1177
11043TIP3    H154620   1.424   1.012  11.236  3.5231  1.9279 -1.5080
11043TIP3    H254621   1.485   1.035  11.372 -0.3962 -0.1501  0.7939
11044TIP3   OH254622   6.751   0.282  17.014 -0.0793 -0.5069 -0.1950
11044TIP3    H154623   6.828   0.293  16.958  0.6121 -2.7738  0.2055
11044TIP3    H254624   6.687   0.237  16.958 -1.7984  2.5789 -0.9894
11045TIP3   OH254625   0.243   1.368  11.711  0.4554 -0.1139  0.0419
11045TIP3    H154626   0.330   1.402  11.692  0.3618  0.4519  0.5778
11045TIP3    H254627   0.208   1.428  11.778  0.1538 -1.0651  0.7659
11046TIP3   OH254628   3.123   2.556   0.031  0.8833  0.0901  0.0036
11046TIP3    H154629   3.206   2.552   0.078  1.1625 -0.8716 -0.5547
11046TIP3    H254630   3.064   2.604   0.089  2.3394  2.5318 -0.3839
11047TIP3   OH254631   6.505   4.382  11.871 -0.9543  0.5454  0.6293
11047TIP3    H154632   6.481   4.432  11.949 -1.8041  1.7723 -0.3644
11047TIP3    H254633   6.578   4.431  11.834 -1.3601  0.6813 -0.0018
11048TIP3   OH254634   0.820   4.360  14.153  0.0129 -0.5112 -0.2712
11048TIP3    H154635   0.741   4.310  14.131 -0.9217  1.2043 -0.9457
11048TIP3    H254636   0.816   4.371  14.248  0.7119 -2.4448  0.0242
11049TIP3   OH254637   6.409   3.359  13.168  0.0417  0.4620 -0.4350
11049TIP3    H154638   6.418   3.439  13.116 -0.3853  0.6167 -0.2713
11049TIP3    H254639   6.492   3.352  13.215  0.2541  0.5684 -0.7867
11050TIP3   OH254640   5.837   1.968  15.534  0.4325  0.3555  0.2888
11050TIP3    H154641   5.791   1.912  15.472  1.6726 -1.6944  1.0802
11050TIP3    H254642   5.920   1.989  15.491  0.6565  0.1982  0.6311
11051TIP3   OH254643   5.414   2.092  17.373  0.3243  0.4042 -0.2906
11051TIP3    H154644   5.403   2.071  17.280  0.9552  0.3358 -0.3549
11051TIP3    H254645   5.502   2.059  17.395 -0.3752 -0.9378  0.7039
11052TIP3   OH254646   3.595   1.855   0.693 -0.0329  0.0391 -0.2910
11052TIP3    H154647   3.600   1.901   0.777  0.7184  0.1737 -0.4030
11052TIP3    H254648   3.503   1.831   0.685 -0.2031  0.4343  0.3536
11053TIP3   OH254649   4.720   1.399   4.594 -0.2494 -0.1833 -0.1015
11053TIP3    H154650   4.701   1.319   4.544 -2.8805  0.7721 -0.7762
11053TIP3    H254651   4.781   1.448   4.538 -0.2518 -0.7772 -0.6450
11054TIP3   OH254652   1.501   0.281  16.013 -0.0461  0.1037  0.3316
11054TIP3    H154653   1.565   0.287  16.084 -0.2368  2.3480  0.3755
11054TIP3    H254654   1.416   0.284  16.058 -0.1815 -0.3231  0.1077
11055TIP3   OH254655   0.161   5.342   4.981  0.4511  0.0213 -0.5979
11055TIP3    H154656   0.218   5.371   5.052 -0.6467  0.6221  0.0589
11055TIP3    H254657   0.193   5.390   4.904  1.1018  0.0159 -0.3366
11056TIP3   OH254658   2.732   3.518   1.153  0.0527  0.0883 -0.2448
11056TIP3    H154659   2.732   3.428   1.185 -0.0127  0.0386 -0.3813
11056TIP3    H254660   2.820   3.532   1.119  0.6922  0.7383  1.5990
11057TIP3   OH254661   3.398   2.184   4.277  0.5144 -0.0135  0.4497
11057TIP3    H154662   3.315   2.223   4.249 -0.1155 -1.4649  0.2454
11057TIP3    H254663   3.386   2.090   4.267  1.9423 -0.2978  1.1036
11058TIP3   OH254664   4.846   5.638  14.406  0.2364 -0.0620  0.4867
11058TIP3    H154665   4.870   5.595  14.488 -0.9202  1.0790  1.4571
11058TIP3    H254666   4.880   5.727  14.414  0.4456 -0.0410 -0.4526
11059TIP3   OH254667   3.402   0.326   3.957 -0.2529  0.5072  0.0627
11059TIP3    H154668   3.428   0.297   4.045 -0.3999 -0.2242 -0.1311
11059TIP3    H254669   3.382   0.245   3.910 -2.2630  0.9782  0.0045
11060TIP3   OH254670   3.458   5.397  16.194  0.0267 -0.0507  0.6233
11060TIP3    H154671   3.513   5.470  16.166  0.0484  0.4695  1.9208
11060TIP3    H254672   3.407   5.433  16.267 -0.9185 -0.9663  0.4450
11061TIP3   OH254673   3.222   6.101   2.178  0.1847 -0.0666 -0.1329
11061TIP3    H154674   3.211   6.169   2.245  3.3746  1.0216 -0.5262
11061TIP3    H254675   3.156   6.120   2.112 -0.1390  1.5560  0.6238
11062TIP3   OH254676   5.021   0.714   3.794  0.4894 -0.4613  0.1167
11062TIP3    H154677   4.988   0.752   3.875 -0.0101  0.0476 -0.3128
11062TIP3    H254678   4.947   0.665   3.759  0.9931 -1.4814  0.4383
11063TIP3   OH254679   4.686   5.764   4.359 -0.4303  0.2591  0.4222
11063TIP3    H154680   4.762   5.705   4.363 -1.2348 -1.0457 -1.7091
11063TIP3    H254681   4.628   5.734   4.429  0.2162  0.0885  0.8959
11064TIP3   OH254682   6.668   1.690   0.846  0.0249  0.1399 -0.0087
11064TIP3    H154683   6.572   1.686   0.851  0.0643 -1.3822 -0.0300
11064TIP3    H254684   6.697   1.635   0.919  0.8854  0.1047 -0.3758
11065TIP3   OH254685   5.118   1.333   5.983  0.2923 -0.0392 -0.2128
11065TIP3    H154686   5.117   1.427   5.962 -2.6951  0.0644  0.0656
11065TIP3    H254687   5.201   1.320   6.029  0.7259  2.4752 -0.1405
11066TIP3   OH254688   6.080   3.025  13.085  0.2775  0.5658  0.8992
11066TIP3    H154689   6.086   2.930  13.091  1.9867  0.6916  1.9626
11066TIP3    H254690   5.989   3.042  13.060  0.1939 -1.3655 -0.3337
11067TIP3   OH254691   4.932   1.637  16.320  0.2293  0.5192 -0.2259
11067TIP3    H154692   4.855   1.636  16.263  1.2909 -1.6577 -1.7332
11067TIP3    H254693   4.900   1.602  16.403 -0.7959  1.4737 -0.1847
11068TIP3   OH254694   4.364   1.100  14.025  0.3823  0.1645  0.3558
11068TIP3    H154695   4.416   1.175  13.994 -0.2480  1.1048  1.4601
11068TIP3    H254696   4.321   1.133  14.105  1.9046 -2.0820  2.2352
11069TIP3   OH254697   0.056   4.952  13.587  0.7944 -0.3924 -0.3491
11069TIP3    H154698   0.095   4.998  13.661  1.2064 -0.9622 -0.2046
11069TIP3    H254699  -0.017   4.903  13.624  0.1529  0.3780 -0.5563
11070TIP3   OH254700   5.206   2.228   2.238  0.1953  0.1961 -0.6334
11070TIP3    H154701   5.290   2.264   2.266  0.9310 -2.0486  0.2983
11070TIP3    H254702   5.222   2.134   2.228 -1.8713 -0.0985 -1.7988
11071TIP3   OH254703   0.364   2.226  12.964 -0.0386 -0.1893 -0.0253
11071TIP3    H154704   0.274   2.215  12.995 -0.0973 -0.5291 -0.3090
11071TIP3    H254705   0.361   2.299  12.903  0.4074  1.7305  2.1096
11072TIP3   OH254706   0.391   2.435   4.112 -0.3921 -0.3951 -0.2525
11072TIP3    H154707   0.376   2.528   4.129 -0.1462 -0.2258 -0.9339
11072TIP3    H254708   0.476   2.432   4.069 -0.8179 -0.8356 -1.0910
11073TIP3   OH254709   2.288   4.263   3.588 -0.6961  0.1095  0.1392
11073TIP3    H154710   2.272   4.169   3.592 -1.0919  0.1662 -0.0309
11073TIP3    H254711   2.259   4.297   3.672  1.7974 -0.2394  1.2472
11074TIP3   OH254712   6.024   2.078  13.865  0.3299 -0.1956 -0.3184
11074TIP3    H154713   5.995   2.161  13.826  0.6625  0.9064  1.6357
11074TIP3    H254714   6.113   2.066  13.830  2.0305  2.5861  2.5013
11075TIP3   OH254715   0.004   0.032   4.666  0.8679  0.5785 -0.1516
11075TIP3    H154716   0.004  -0.026   4.589  0.3796  0.1111  0.1906
11075TIP3    H254717  -0.056  -0.011   4.727  2.5071  0.0570  1.1522
11076TIP3   OH254718   5.173   2.631  15.264 -0.2506 -0.2612 -0.3255
11076TIP3    H154719   5.162   2.725  15.271  0.2469 -0.2536  0.3915
11076TIP3    H254720   5.244   2.610  15.324 -0.7034 -1.1619 -0.0827
11077TIP3   OH254721   0.812   0.363   4.412  0.2872  0.0183 -0.0668
11077TIP3    H154722   0.737   0.316   4.446  0.7573  0.2943  1.4500
11077TIP3    H254723   0.804   0.358   4.317 -2.1448  0.8571  0.0436
11078TIP3   OH254724   4.067   2.519   1.565  0.0579 -0.6129 -0.2684
11078TIP3    H154725   4.075   2.510   1.660  2.1332  0.6278 -0.2596
11078TIP3    H254726   4.041   2.432   1.535 -0.3455 -1.1147  1.4045
11079TIP3   OH254727   4.950   6.507  16.502  0.3123 -0.0539  0.0094
11079TIP3    H154728   4.913   6.522  16.415 -0.3029  2.7036  0.6681
11079TIP3    H254729   5.026   6.565  16.506 -1.2208  1.9837  2.1791
11080TIP3   OH254730   1.604   2.028   3.393  0.4033 -0.3059 -0.1327
11080TIP3    H154731   1.648   1.987   3.468 -0.6456 -0.8390  0.2077
11080TIP3    H254732   1.545   2.092   3.432  0.3950 -0.0499 -0.5554
11081TIP3   OH254733   1.757   0.857   3.026 -1.0397 -0.0237  0.1828
11081TIP3    H154734   1.745   0.910   2.947 -2.0609  0.3955  0.5991
11081TIP3    H254735   1.791   0.919   3.091  1.4773 -0.7299 -0.3635
11082TIP3   OH254736   1.930   2.380   0.443 -0.5045  0.1373  0.1684
11082TIP3    H154737   1.888   2.448   0.496 -0.9337  0.0599 -0.0650
11082TIP3    H254738   1.864   2.310   0.438 -0.0451 -0.3251  0.4622
11083TIP3   OH254739   6.667   4.510  14.158 -0.3594 -0.1416  0.1736
11083TIP3    H154740   6.716   4.591  14.171 -1.3806  0.2384  2.0978
11083TIP3    H254741   6.598   4.532  14.096  0.0428  0.1387 -0.1775
11084TIP3   OH254742   2.716   4.889  12.369 -0.5378  0.1289 -0.0827
11084TIP3    H154743   2.769   4.814  12.339  0.2961  1.2850 -1.6897
11084TIP3    H254744   2.779   4.960  12.377 -0.8744  0.2207  3.7008
11085TIP3   OH254745   3.527   5.447  15.134 -0.0467 -0.1415  0.0461
11085TIP3    H154746   3.549   5.441  15.227  2.5135  1.1870 -0.3701
11085TIP3    H254747   3.528   5.357  15.103  1.6765 -0.4445  0.8378
11086TIP3   OH254748   0.171   6.115  14.456 -0.0764 -0.0089 -0.5962
11086TIP3    H154749   0.087   6.153  14.430 -0.8348 -0.8269  0.5832
11086TIP3    H254750   0.224   6.190  14.481 -0.3547  0.5359 -1.5614
11087TIP3   OH254751   0.924   2.071  14.520 -0.3329  0.1127  0.1329
11087TIP3    H154752   0.903   2.100  14.609 -0.4108 -1.7280  0.7568
11087TIP3    H254753   1.009   2.111  14.502 -0.4362  0.7224  0.9379
11088TIP3   OH254754   3.433   4.683   1.996  0.3879  0.3390  0.2057
11088TIP3    H154755   3.441   4.590   1.973 -1.7261 -0.0864  0.9263
11088TIP3    H254756   3.368   4.717   1.935  0.1215  0.9803  0.8397
11089TIP3   OH254757   4.000   0.925   1.716 -0.4986 -0.3962  0.1056
11089TIP3    H154758   4.058   0.971   1.655 -3.0448  0.4152 -1.8430
11089TIP3    H254759   4.020   0.832   1.704  0.8395 -0.1112 -0.0044
11090TIP3   OH254760   0.419   2.674   0.621 -0.7361  0.4920  0.3875
11090TIP3    H154761   0.403   2.768   0.627 -0.4848  0.6598 -1.1031
11090TIP3    H254762   0.488   2.666   0.554 -0.0547 -0.6911  1.1968
11091TIP3   OH254763   5.422   0.357  17.121 -0.3385 -0.1002  0.6298
11091TIP3    H154764   5.511   0.334  17.146  0.1945  0.8964 -0.2815
11091TIP3    H254765   5.423   0.452  17.113 -1.2453 -0.1446 -0.2670
11092TIP3   OH254766   4.234   6.462   6.347 -0.3218 -0.1296 -0.5391
11092TIP3    H154767   4.170   6.532   6.338  0.6456  0.8316 -0.0587
11092TIP3    H254768   4.241   6.424   6.259 -1.8372 -0.5349 -0.5191
11093TIP3   OH254769   4.298   4.329   5.881  0.2472  0.4645  0.3061
11093TIP3    H154770   4.218   4.365   5.919  0.0959 -0.2741  0.7053
11093TIP3    H254771   4.299   4.237   5.909  0.8892  0.2895 -0.2564
11094TIP3   OH254772   2.077   4.651   1.663  0.1341 -0.3793 -0.5101
11094TIP3    H154773   2.018   4.665   1.737  0.1384 -0.0889 -0.5627
11094TIP3    H254774   2.109   4.561   1.675 -0.5086 -0.6314 -0.6173
11095TIP3   OH254775   5.388   5.871  13.776  0.3142 -0.1465 -0.2942
11095TIP3    H154776   5.385   5.793  13.831 -0.4731  0.4875  0.5978
11095TIP3    H254777   5.429   5.841  13.695  1.4991 -1.1117  0.6138
11096TIP3   OH254778   1.477   6.431  13.101 -0.3784 -0.7366 -0.4957
11096TIP3    H154779   1.530   6.444  13.022 -0.7582 -2.4361 -1.0727
11096TIP3    H254780   1.497   6.341  13.129 -0.1133 -0.1054  1.4607
11097TIP3   OH254781   3.686   2.299   4.151 -0.9784 -0.1470  0.3236
11097TIP3    H154782   3.650   2.220   4.191  0.1484  0.6762  3.2099
11097TIP3    H254783   3.620   2.367   4.168 -0.7246  0.1011  0.3282
11098TIP3   OH254784   3.631   3.987   0.178 -0.5455  0.0932 -0.0086
11098TIP3    H154785   3.695   4.055   0.200 -1.5186  0.6478  1.1942
11098TIP3    H254786   3.613   4.002   0.085  1.1858 -0.2060 -0.4382
11099TIP3   OH254787   2.185   5.306  14.762 -0.1669  0.1509 -0.0786
11099TIP3    H154788   2.162   5.398  14.750  0.1763  0.0750 -1.4203
11099TIP3    H254789   2.103   5.259  14.752 -0.4139  0.3141  0.9907
11100TIP3   OH254790   1.646   1.568   2.412 -0.2334 -0.1593 -0.1468
11100TIP3    H154791   1.669   1.490   2.361 -0.3096 -0.7483  0.6872
11100TIP3    H254792   1.695   1.558   2.494 -1.6703 -0.2984  0.7408
11101TIP3   OH254793   4.290   1.248   0.728 -0.2883  0.2852 -0.5768
11101TIP3    H154794   4.225   1.240   0.797  0.8376 -1.0501  0.3896
11101TIP3    H254795   4.370   1.274   0.772  0.2040  0.4230 -1.5193
11102TIP3   OH254796   1.842   1.716  16.485 -0.2322  0.9670 -0.2623
11102TIP3    H154797   1.774   1.756  16.431 -0.1270 -0.0117 -1.1519
11102TIP3    H254798   1.809   1.628  16.505  0.8641  0.3787 -0.9324
11103TIP3   OH254799   5.649   6.440   3.508 -0.4544  0.2583 -0.1698
11103TIP3    H154800   5.613   6.416   3.422 -1.2623  2.5415 -0.5206
11103TIP3    H254801   5.576   6.484   3.553  0.2396 -0.0872  1.3466
11104TIP3   OH254802   6.023   5.817  17.340 -0.1761  0.1382 -0.0047
11104TIP3    H154803   5.984   5.780  17.419  0.2675 -0.1260  0.0943
11104TIP3    H254804   6.053   5.904  17.367  0.5433 -0.1999  0.2874
11105TIP3   OH254805   2.592   3.340  14.101  0.5915  0.1213  0.3798
11105TIP3    H154806   2.675   3.298  14.080  1.3679  2.4380 -1.6254
11105TIP3    H254807   2.586   3.414  14.040 -1.2907  2.1029  2.7545
11106TIP3   OH254808   4.413   0.663  14.242  0.4833 -0.1905 -0.0841
11106TIP3    H154809   4.480   0.690  14.179  0.3877  1.5636  0.5146
11106TIP3    H254810   4.399   0.740  14.297  0.7401 -1.7094  2.2829
11107TIP3   OH254811   6.176   2.010  14.361  0.3171  0.7246 -0.4052
11107TIP3    H154812   6.112   2.058  14.309  1.0599  2.7369  0.4316
11107TIP3    H254813   6.256   2.062  14.353  0.9892 -0.0362  1.0812
11108TIP3   OH254814   6.125   5.922  13.502 -0.2757 -0.5017  0.3546
11108TIP3    H154815   6.140   5.919  13.408 -1.0790  0.2891  0.1843
11108TIP3    H254816   6.204   5.962  13.538 -0.1688 -0.3526 -0.0446
11109TIP3   OH254817   1.468   5.865   2.913  0.1759  0.6689 -0.3501
11109TIP3    H154818   1.474   5.843   3.006  1.0983 -0.9524 -0.7429
11109TIP3    H254819   1.415   5.795   2.876 -0.2092  1.3207 -1.0413
11110TIP3   OH254820   4.394   0.423  13.138  0.6791  0.2162 -0.0823
11110TIP3    H154821   4.466   0.372  13.102  1.0023 -0.3779  1.3045
11110TIP3    H254822   4.323   0.414  13.075  0.4862 -2.5733  0.4106
11111TIP3   OH254823   6.128   2.364   2.184 -0.8521  0.2006 -0.0676
11111TIP3    H154824   6.088   2.432   2.238 -0.0738  1.3699 -0.9181
11111TIP3    H254825   6.215   2.352   2.222 -1.2173 -0.8187  0.4831
11112TIP3   OH254826   2.441   5.677  14.584  0.1964  0.5952  0.4859
11112TIP3    H154827   2.504   5.749  14.583  1.3554 -0.3994  0.3504
11112TIP3    H254828   2.489   5.602  14.549 -1.7927  0.3808 -2.0694
11113TIP3   OH254829   5.412   6.212  11.114  0.6810  0.4978 -0.1641
11113TIP3    H154830   5.502   6.189  11.138  0.8819  1.9661  0.5657
11113TIP3    H254831   5.421   6.284  11.052 -0.0060  1.1981  0.5319
11114TIP3   OH254832   1.586   3.821   0.232 -0.1134  0.6875  0.3766
11114TIP3    H154833   1.572   3.767   0.154 -1.8030  0.7196  0.6300
11114TIP3    H254834   1.679   3.845   0.228  0.2258 -0.7021 -0.7121
11115TIP3   OH254835   3.083   1.270   4.395  0.0776  0.1764  0.4288
11115TIP3    H154836   3.047   1.295   4.310  0.8890  0.8543  0.2751
11115TIP3    H254837   3.105   1.178   4.386  0.7231  0.3962 -0.3035
11116TIP3   OH254838   0.973   4.920  13.605  0.3066 -0.1358  0.0699
11116TIP3    H154839   0.892   4.952  13.644 -0.6094  0.3824 -2.1202
11116TIP3    H254840   0.945   4.875  13.525  2.0989 -0.9765 -0.1394
11117TIP3   OH254841   1.869   4.032  15.726  0.5773  0.3043 -0.0375
11117TIP3    H154842   1.838   3.942  15.720 -0.0649  0.4155  1.2357
11117TIP3    H254843   1.831   4.075  15.649  1.7695 -0.7304 -1.2473
11118TIP3   OH254844   1.783   3.694  17.178  0.1532 -0.1867 -0.0616
11118TIP3    H154845   1.737   3.628  17.125 -2.2342  0.1723  1.4024
11118TIP3    H254846   1.730   3.702  17.257  0.6864  3.0393  0.0899
11119TIP3   OH254847   0.808   1.087  13.567  0.2283 -0.6043  0.1343
11119TIP3    H154848   0.748   1.113  13.496 -1.2845 -0.5254  1.3839
11119TIP3    H254849   0.795   0.993  13.575  1.6603 -0.9050 -0.7808
11120TIP3   OH254850   3.062   1.294  15.653 -0.0053 -0.0248  0.2433
11120TIP3    H154851   3.103   1.378  15.633 -0.8987  0.5170  0.6163
11120TIP3    H254852   3.033   1.261  15.568  1.2424 -0.4565 -0.0353
11121TIP3   OH254853   3.586   4.143   2.923  0.4335  0.0265 -0.3990
11121TIP3    H154854   3.606   4.072   2.984 -2.2519  0.5031  1.1825
11121TIP3    H254855   3.664   4.200   2.925  0.8115 -0.5048  1.8099
11122TIP3   OH254856   4.158   3.789   5.339  0.8194  0.7721  0.0752
11122TIP3    H154857   4.073   3.773   5.379  2.0331 -0.4105  2.3845
11122TIP3    H254858   4.147   3.870   5.289 -1.8159  0.2516 -0.3008
11123TIP3   OH254859   5.639   2.138  11.020  0.3477 -0.1221 -0.3475
11123TIP3    H154860   5.549   2.120  11.049  0.4239  0.0704  0.0128
11123TIP3    H254861   5.630   2.156  10.927  0.1666 -1.2611 -0.5738
11124TIP3   OH254862   6.558   3.103  16.556  0.3935  0.1459 -0.3969
11124TIP3    H154863   6.506   3.142  16.485 -0.4080 -0.4243 -0.1396
11124TIP3    H254864   6.610   3.035  16.513  0.8583  0.6459 -0.6383
11125TIP3   OH254865   3.594   6.354  14.929 -0.6271 -0.4022 -0.2984
11125TIP3    H154866   3.627   6.334  14.841  0.3433 -2.3501  0.4432
11125TIP3    H254867   3.508   6.314  14.932 -1.3361  0.9910 -0.8132
11126TIP3   OH254868   4.904   6.116  16.068  0.3158 -0.0213 -0.6990
11126TIP3    H154869   4.814   6.146  16.051 -0.2445 -0.7629  0.7921
11126TIP3    H254870   4.895   6.022  16.081  1.0843  0.1002  0.8801
11127TIP3   OH254871   1.539   6.219   6.100  0.3754 -0.1600  0.4641
11127TIP3    H154872   1.531   6.142   6.043 -0.6077 -1.6470  2.4721
11127TIP3    H254873   1.547   6.182   6.188  0.7492  2.0534  1.4103
11128TIP3   OH254874   5.204   0.073   6.534  0.5705  0.1222 -0.5881
11128TIP3    H154875   5.273   0.006   6.537  0.4906  0.0437  1.9298
11128TIP3    H254876   5.248   0.154   6.561 -0.3076  0.0155  1.3233
11129TIP3   OH254877   0.791   2.344   2.529 -0.4151  0.2287 -0.2199
11129TIP3    H154878   0.786   2.351   2.433 -0.4166 -0.5030 -0.2822
11129TIP3    H254879   0.714   2.292   2.553 -0.5558  0.6265  0.2082
11130TIP3   OH254880   4.722   2.733  13.360  0.3490 -0.9479  0.0713
11130TIP3    H154881   4.671   2.751  13.439 -0.5005  0.9085 -0.8190
11130TIP3    H254882   4.811   2.720  13.391  0.4652  1.8330  1.2651
11131TIP3   OH254883   3.363   2.472   6.599 -0.9094  0.1706  0.0569
11131TIP3    H154884   3.457   2.456   6.589 -1.3188 -1.3829 -1.8192
11131TIP3    H254885   3.355   2.567   6.594  0.3917  0.2392 -1.9643
11132TIP3   OH254886   5.966   6.745   6.051 -0.5041 -0.3695  0.2849
11132TIP3    H154887   5.948   6.735   6.145  1.1978  1.2812  0.8430
11132TIP3    H254888   6.053   6.707   6.040 -0.0384  0.8477 -0.3148
11133TIP3   OH254889   3.896   5.833  11.550  0.1270  0.2276  0.9102
11133TIP3    H154890   3.865   5.802  11.635 -1.6142 -0.7829 -0.0290
11133TIP3    H254891   3.888   5.757  11.492  2.8703  0.3913  0.1478
11134TIP3   OH254892   1.664   3.425   1.921  0.0294 -0.1310 -0.7461
11134TIP3    H154893   1.576   3.421   1.883 -0.9824  1.0604  1.2874
11134TIP3    H254894   1.650   3.413   2.015  1.9370  0.9763 -0.2700
11135TIP3   OH254895   1.371   3.405   1.875  0.1965  0.8335  0.2815
11135TIP3    H154896   1.379   3.500   1.883 -3.3224  1.4469 -1.5501
11135TIP3    H254897   1.302   3.392   1.810 -0.2526 -2.9924  1.2780
11136TIP3   OH254898   0.043   1.887   2.845  0.2726 -0.1986  0.1902
11136TIP3    H154899  -0.031   1.871   2.904  0.9024  0.7336  1.2828
11136TIP3    H254900   0.004   1.934   2.771 -0.1236  1.1732  1.2144
11137TIP3   OH254901   1.861   3.188   3.331  0.4860  0.3651  0.5775
11137TIP3    H154902   1.865   3.138   3.412  2.4470 -1.3358 -0.4804
11137TIP3    H254903   1.768   3.209   3.321 -0.1147 -1.2406  2.1728
11138TIP3   OH254904   2.128   0.939  13.683 -0.2692  0.5346  0.0750
11138TIP3    H154905   2.062   0.975  13.623 -0.4262  2.1202  1.1223
11138TIP3    H254906   2.086   0.944  13.769  0.3071 -0.7973  0.4454
11139TIP3   OH254907   2.737   5.908  16.248 -0.1728  0.5025  0.0844
11139TIP3    H154908   2.759   5.951  16.166  1.5149  0.9450  0.7434
11139TIP3    H254909   2.743   5.814  16.228 -0.8351  0.5834 -0.5484
11140TIP3   OH254910   3.188   4.262  12.462  0.0083  0.7767  0.0755
11140TIP3    H154911   3.184   4.167  12.476 -0.6347  0.4855 -1.8622
11140TIP3    H254912   3.166   4.274  12.370  1.8198  2.6843 -0.1812
11141TIP3   OH254913   2.823   1.315   3.970 -0.2052  0.2262 -0.2180
11141TIP3    H154914   2.845   1.229   3.934  1.4141 -0.2539  1.7251
11141TIP3    H254915   2.729   1.312   3.985 -0.0008 -1.7602  1.0183
11142TIP3   OH254916   4.924   1.987   4.094 -0.6268  0.0397  0.7981
11142TIP3    H154917   4.923   1.900   4.055 -0.3012  0.5179 -0.3161
11142TIP3    H254918   4.908   1.972   4.187 -0.2631 -1.2310  0.6719
11143TIP3   OH254919   3.756   3.406  13.828 -0.4739 -0.0381  0.1212
11143TIP3    H154920   3.795   3.493  13.816  2.7356 -1.3729  0.0999
11143TIP3    H254921   3.671   3.412  13.783  0.0116  2.8065 -0.6146
11144TIP3   OH254922   4.108   4.986   4.911 -0.1432  0.0840  0.3045
11144TIP3    H154923   4.125   5.003   5.004  1.4829 -0.0597  0.0674
11144TIP3    H254924   4.015   4.966   4.907 -0.1268 -0.5080  1.9978
11145TIP3   OH254925   1.857   0.069  14.764  0.5614 -0.7224 -0.1989
11145TIP3    H154926   1.831  -0.007  14.817 -0.6963  0.1402  0.4728
11145TIP3    H254927   1.874   0.033  14.677 -0.5382 -1.6942 -0.0318
11146TIP3   OH254928   3.737   5.009  17.009 -0.4492 -0.4783  0.0463
11146TIP3    H154929   3.765   5.081  17.065 -0.2165  0.3091 -1.0658
11146TIP3    H254930   3.717   5.049  16.925 -0.8200 -1.6388 -0.4470
11147TIP3   OH254931   5.393   4.637  14.715  0.1403 -0.0614  0.2957
11147TIP3    H154932   5.360   4.638  14.625  3.3036  1.1846 -1.0323
11147TIP3    H254933   5.405   4.544  14.735 -2.9654 -0.5055  0.5035
11148TIP3   OH254934   6.423   4.524  12.077  0.0114  0.4080  0.0784
11148TIP3    H154935   6.336   4.524  12.116 -1.0449 -0.4669 -2.1071
11148TIP3    H254936   6.433   4.611  12.040  0.1845  0.5772  0.5092
11149TIP3   OH254937   0.235   4.557   0.187  0.3010  0.6454  0.8528
11149TIP3    H154938   0.144   4.526   0.180  0.3510  0.1504  2.1087
11149TIP3    H254939   0.234   4.643   0.144 -0.2344 -0.3175 -1.1766
11150TIP3   OH254940   0.519   3.348  11.753  0.0586 -0.0475 -0.0815
11150TIP3    H154941   0.477   3.335  11.838  0.5538  0.1347  0.1962
11150TIP3    H254942   0.577   3.423  11.766  0.8522 -0.6048 -0.3165
11151TIP3   OH254943   3.856   0.851  12.451  0.2435 -0.6787  0.3357
11151TIP3    H154944   3.842   0.877  12.542  0.2871 -0.0282  0.1612
11151TIP3    H254945   3.794   0.903  12.401 -1.2845 -2.5733  0.1724
11152TIP3   OH254946   6.415   4.557  10.747 -0.2484  0.6225 -0.0974
11152TIP3    H154947   6.492   4.500  10.735 -0.5292 -0.4714  2.5919
11152TIP3    H254948   6.347   4.517  10.692  0.3215 -0.0322 -0.3480
11153TIP3   OH254949   6.422   0.605  14.100 -0.4529  0.0196 -0.2033
11153TIP3    H154950   6.488   0.539  14.120 -0.6041  0.2164  1.0625
11153TIP3    H254951   6.467   0.668  14.044 -0.5650 -1.5776 -2.1919
11154TIP3   OH254952   6.324   5.437  13.928  0.0279  0.0582 -0.0695
11154TIP3    H154953   6.383   5.494  13.878  0.4300 -0.5706 -0.3175
11154TIP3    H254954   6.278   5.386  13.861  0.8233 -1.0401  0.1890
11155TIP3   OH254955   4.461   5.308  15.796  0.5256 -0.7544  0.5898
11155TIP3    H154956   4.449   5.269  15.882  2.1004 -1.1790  0.6522
11155TIP3    H254957   4.373   5.312  15.758 -0.2059 -0.3990  2.2724
11156TIP3   OH254958   0.798   1.718  12.937 -0.1359 -0.4462  0.4353
11156TIP3    H154959   0.854   1.642  12.953  1.9556  0.3335 -2.2798
11156TIP3    H254960   0.765   1.705  12.848  0.0027  1.6068  0.0359
11157TIP3   OH254961   4.932   4.763  11.314  0.0559  0.1945  0.0038
11157TIP3    H154962   5.005   4.751  11.375  0.9701 -1.2023 -1.3076
11157TIP3    H254963   4.973   4.779  11.229 -1.1971  1.8598 -0.3483
11158TIP3   OH254964   2.469   4.164  13.557 -0.5599  0.3215 -0.2527
11158TIP3    H154965   2.552   4.173  13.603 -1.3360  0.7816  1.1565
11158TIP3    H254966   2.464   4.071  13.533  0.0081  0.1255  0.3600
11159TIP3   OH254967   4.003   0.426   4.718  0.1768  0.1669 -0.3552
11159TIP3    H154968   4.074   0.362   4.729 -0.6609 -1.3144 -2.7962
11159TIP3    H254969   3.931   0.376   4.679 -1.2119  2.2247 -0.6225
11160TIP3   OH254970   4.237   2.192  16.225 -0.1592 -0.0525 -0.7193
11160TIP3    H154971   4.253   2.136  16.149 -1.0065 -0.4792 -0.5941
11160TIP3    H254972   4.186   2.265  16.191  0.9857  0.6852 -0.8925
11161TIP3   OH254973   5.003   4.284   2.233  0.0313  0.3632  0.3549
11161TIP3    H154974   5.044   4.277   2.147 -0.8430 -0.6284  0.0041
11161TIP3    H254975   4.988   4.378   2.245  1.0592  0.6065 -0.1307
11162TIP3   OH254976   3.774   4.168  17.427 -0.3511  0.4049  0.1211
11162TIP3    H154977   3.806   4.203  17.510 -1.9470  1.7783  0.2071
11162TIP3    H254978   3.851   4.165  17.370  1.1035 -2.0106  2.0594
11163TIP3   OH254979   5.003   4.320   0.169  0.7865 -0.0378 -0.3660
11163TIP3    H154980   4.983   4.351   0.081  0.0427 -0.9773 -0.5492
11163TIP3    H254981   5.042   4.233   0.155 -0.0605 -0.5349  0.2492
11164TIP3   OH254982   2.016   6.046  13.173  0.4060 -0.1095  0.3827
11164TIP3    H154983   2.021   5.988  13.097  0.3351  0.7661 -0.3171
11164TIP3    H254984   2.103   6.087  13.177  0.8611 -1.1466  1.6071
11165TIP3   OH254985   4.896   2.613   0.396 -1.0727 -0.3010 -0.4890
11165TIP3    H154986   4.811   2.658   0.390 -0.7980  0.4614  0.8373
11165TIP3    H254987   4.939   2.653   0.472 -0.2276 -1.8559 -0.0951
11166TIP3   OH254988   4.514   3.988   5.749  0.2153  0.3408 -0.7185
11166TIP3    H154989   4.461   3.949   5.818  2.4878 -1.8976 -0.0732
11166TIP3    H254990   4.527   4.079   5.777 -3.4403  1.1551 -1.1361
11167TIP3   OH254991   6.766   0.936   2.514  0.3463  0.4868 -0.0089
11167TIP3    H154992   6.761   1.025   2.547  0.7210  0.7215 -0.5729
11167TIP3    H254993   6.706   0.934   2.439 -0.5755 -0.0699  0.7080
11168TIP3   OH254994   1.429   3.063   5.198 -0.3541 -0.0616 -0.6841
11168TIP3    H154995   1.407   3.109   5.280 -0.2451  1.5483 -1.5104
11168TIP3    H254996   1.449   2.974   5.225 -2.7123 -0.2244  0.7367
11169TIP3   OH254997   3.057   6.131  17.490 -0.2995 -0.3219 -0.0526
11169TIP3    H154998   3.109   6.197  17.536 -0.8074 -0.0341  0.1166
11169TIP3    H254999   3.121   6.066  17.462  0.4603  1.0040 -1.5808
11170TIP3   OH255000   0.370   1.343   0.013  0.0932  0.0989  0.0701
11170TIP3    H155001   0.453   1.366   0.054  0.3460  0.4571 -0.6260
11170TIP3    H255002   0.364   1.248   0.022  1.2410 -0.1116 -1.0658
11171TIP3   OH255003   5.099   0.938   5.530 -0.0420  0.2327 -0.2557
11171TIP3    H155004   5.117   0.950   5.623  2.9239  0.5655 -0.7932
11171TIP3    H255005   5.118   1.023   5.490  0.8227 -0.4866 -1.4291
11172TIP3   OH255006   2.654   5.247  16.930  0.7216 -0.6797  0.0611
11172TIP3    H155007   2.595   5.246  17.005  0.9649 -0.0185  0.2660
11172TIP3    H255008   2.598   5.226  16.855  0.5154 -1.5382  0.4419
11173TIP3   OH255009   0.183   6.679  13.878 -0.1507 -0.1536  0.1595
11173TIP3    H155010   0.230   6.647  13.955  1.3983  1.5303 -0.0281
11173TIP3    H255011   0.235   6.752  13.847 -2.2477  0.9904 -0.8511
11174TIP3   OH255012   1.440   5.447   1.520  0.3952  0.4426 -0.0653
11174TIP3    H155013   1.531   5.466   1.543  0.1908 -0.0025  1.1819
11174TIP3    H255014   1.415   5.376   1.579 -1.5801  2.2863  1.4757
11175TIP3   OH255015   1.496   5.789   4.809  0.2321 -0.6227 -0.4311
11175TIP3    H155016   1.420   5.804   4.866  0.2119  0.3496 -0.7045
11175TIP3    H255017   1.549   5.725   4.857 -0.2956 -0.6010  0.1987
11176TIP3   OH255018   2.355   2.801   2.711 -0.3276 -0.1401 -0.2387
11176TIP3    H155019   2.320   2.713   2.723  0.3255 -0.2264  1.1785
11176TIP3    H255020   2.445   2.796   2.742  0.5036  0.4760 -2.3462
11177TIP3   OH255021   3.636   4.047  15.090 -0.2080  0.2520  0.3511
11177TIP3    H155022   3.612   4.081  15.004 -2.1276 -2.3895 -0.2889
11177TIP3    H255023   3.731   4.033  15.085 -0.5623 -2.0747 -2.3071
11178TIP3   OH255024   2.959   2.079   3.185  0.3089 -0.6112 -0.5961
11178TIP3    H155025   2.901   2.133   3.132  0.1351  0.2928  0.4879
11178TIP3    H255026   3.030   2.138   3.210  1.2617 -1.4715 -1.1776
11179TIP3   OH255027   4.604   1.408  15.762  0.6644 -0.7309 -0.0810
11179TIP3    H155028   4.554   1.392  15.682  0.6425 -0.3285 -0.1507
11179TIP3    H255029   4.666   1.478  15.738 -0.2323  0.3365  0.6057
11180TIP3   OH255030   3.040   4.015   3.479  0.1604  0.0140  0.3439
11180TIP3    H155031   2.957   3.977   3.509  0.2014  1.2565  2.2003
11180TIP3    H255032   3.014   4.099   3.440  0.6588  1.3525  2.7447
11181TIP3   OH255033   5.020   6.057  12.725  0.1017  0.0136 -0.0319
11181TIP3    H155034   5.063   6.087  12.805  2.1416  0.8546 -1.3625
11181TIP3    H255035   5.023   5.962  12.731 -0.8566  0.0503  1.4141
11182TIP3   OH255036   2.797   3.832   3.061 -0.0611 -0.6238  0.2174
11182TIP3    H155037   2.812   3.923   3.087 -0.4635 -0.6369  0.4934
11182TIP3    H255038   2.805   3.781   3.142  0.8477 -0.9243 -0.0435
11183TIP3   OH255039   1.143   6.764  12.572  0.4660  0.0196  0.5302
11183TIP3    H155040   1.210   6.821  12.533  0.6793 -0.7173 -0.1867
11183TIP3    H255041   1.148   6.683  12.522 -1.1573  0.0425  0.2906
11184TIP3   OH255042   5.493   4.350   2.756 -0.0037  0.2731 -0.7885
11184TIP3    H155043   5.528   4.272   2.799 -1.1130  0.0110 -0.3385
11184TIP3    H255044   5.570   4.392   2.717  0.7012 -0.6782 -0.4608
11185TIP3   OH255045   0.400   1.920  14.183  0.3913  0.0436  0.9161
11185TIP3    H155046   0.378   1.880  14.099  2.5914  0.7492 -0.0638
11185TIP3    H255047   0.484   1.882  14.207  0.4862  0.9311  2.1044
11186TIP3   OH255048   1.498   3.821  14.210 -0.7512 -0.2373 -0.5053
11186TIP3    H155049   1.534   3.875  14.281 -3.5385  1.5754 -0.3523
11186TIP3    H255050   1.576   3.790  14.163  1.2593 -1.3584  3.0973
11187TIP3   OH255051   3.895   5.208  13.552  0.4242 -0.1453  0.2810
11187TIP3    H155052   3.916   5.301  13.549 -0.9684  0.1873  0.2278
11187TIP3    H255053   3.978   5.165  13.572  1.5632  0.9238 -1.7793
11188TIP3   OH255054   6.520   0.441   1.518  0.0928  0.0947  0.1329
11188TIP3    H155055   6.537   0.346   1.514  0.4668  0.1464  0.4891
11188TIP3    H255056   6.505   0.459   1.610 -0.4031  0.3165  0.0123
11189TIP3   OH255057   5.603   0.981   5.980 -0.2521 -0.1407  0.8240
11189TIP3    H155058   5.529   0.935   6.018 -0.1420 -0.5368  0.5576
11189TIP3    H255059   5.566   1.032   5.908 -0.2618 -0.3467  0.6845
11190TIP3   OH255060   4.206   4.428   2.745 -0.6263 -0.1041 -0.1285
11190TIP3    H155061   4.259   4.481   2.685  0.4167 -1.3751 -0.3629
11190TIP3    H255062   4.227   4.463   2.832 -0.5359  0.3578 -0.3295
11191TIP3   OH255063   3.819   0.153  11.081 -0.3828 -0.1586  0.0402
11191TIP3    H155064   3.798   0.060  11.091  0.9972 -0.4251  0.8228
11191TIP3    H255065   3.901   0.164  11.131 -0.9346  1.6405  0.6244
11192TIP3   OH255066   2.123   0.284   0.687 -0.3034  0.0433  0.0844
11192TIP3    H155067   2.113   0.273   0.593 -1.6455 -0.4638  0.2541
11192TIP3    H255068   2.205   0.332   0.698  0.2180 -0.4775 -1.2987
11193TIP3   OH255069   6.395   1.467  16.987 -0.4656  0.2765  0.1377
11193TIP3    H155070   6.483   1.504  16.995 -0.1646  0.6094 -3.2238
11193TIP3    H255071   6.337   1.542  16.977 -0.3739  0.0703 -2.7152
11194TIP3   OH255072   0.509   1.480  17.059 -0.4247  0.6620 -0.1229
11194TIP3    H155073   0.585   1.490  17.002 -0.6616 -2.4094 -1.1316
11194TIP3    H255074   0.541   1.432  17.135 -0.8556  1.6756  0.7324
11195TIP3   OH255075   2.425   0.308   5.486 -0.8371 -0.0531  0.0225
11195TIP3    H155076   2.346   0.276   5.529 -0.5615 -0.8051 -0.0321
11195TIP3    H255077   2.481   0.232   5.477  0.2346  0.6154  0.7686
11196TIP3   OH255078   6.715   1.189   2.612 -0.0001 -0.1693 -0.3173
11196TIP3    H155079   6.756   1.259   2.664 -1.2088  0.8550 -0.6870
11196TIP3    H255080   6.622   1.207   2.618 -0.1916  0.4772 -3.4447
11197TIP3   OH255081   4.550   3.665  15.687 -0.2628  0.9431 -0.0512
11197TIP3    H155082   4.489   3.592  15.700  0.2397  0.4963 -0.1956
11197TIP3    H255083   4.615   3.655  15.757 -0.6149  1.6954  0.3957
11198TIP3   OH255084   4.779   4.456   0.577  0.0972  0.1639  0.0454
11198TIP3    H155085   4.760   4.503   0.658 -0.1744 -2.7828  1.8294
11198TIP3    H255086   4.711   4.485   0.516  0.0503  2.1233  0.9502
11199TIP3   OH255087   1.469   2.688   1.314  0.1736 -0.2498 -0.1765
11199TIP3    H155088   1.386   2.706   1.271 -0.7605  1.0528  2.0394
11199TIP3    H255089   1.498   2.605   1.275 -0.6948  0.6509 -3.0342
11200TIP3   OH255090   1.463   1.114  14.896 -0.2401 -0.0074 -0.5230
11200TIP3    H155091   1.471   1.058  14.973  0.2024 -0.6693 -1.0356
11200TIP3    H255092   1.465   1.053  14.822 -3.0503  0.3780 -1.0031
11201TIP3   OH255093   5.688   0.261  17.208 -0.0019 -0.0995  0.2901
11201TIP3    H155094   5.655   0.295  17.292 -1.2320  0.2376 -0.2951
11201TIP3    H255095   5.767   0.312  17.192 -0.3116  0.5607  0.7671
11202TIP3   OH255096   3.362   1.395  11.387  0.2514  0.5106  0.5625
11202TIP3    H155097   3.373   1.461  11.318 -1.4136 -0.2688 -0.5109
11202TIP3    H255098   3.269   1.401  11.410 -0.5969 -2.9420 -1.2233
11203TIP3   OH255099   6.068   6.741   1.504 -0.9455 -0.1393 -0.0453
11203TIP3    H155100   6.068   6.662   1.559 -2.1715 -0.3132 -0.2582
11203TIP3    H255101   6.048   6.812   1.565 -1.2646 -0.1952 -0.0796
11204TIP3   OH255102   5.839   6.045  15.112 -0.4192  0.1925 -0.1704
11204TIP3    H155103   5.750   6.031  15.146 -0.2231 -0.7476 -0.0196
11204TIP3    H255104   5.887   5.967  15.139  0.2463  0.3180 -0.9702
11205TIP3   OH255105   0.946   4.229   4.884  0.1573 -0.0077 -0.3895
11205TIP3    H155106   0.879   4.258   4.945 -0.2853  1.4441 -1.4972
11205TIP3    H255107   0.911   4.251   4.797  1.2170 -1.0286 -1.1120
11206TIP3   OH255108   1.195   0.469   2.088  0.9224 -0.1724 -0.7196
11206TIP3    H155109   1.211   0.457   1.995  1.3251  1.2372 -0.8584
11206TIP3    H255110   1.260   0.413   2.131 -0.4142 -2.2326 -1.2296
11207TIP3   OH255111   1.357   1.309   5.946  0.1294  0.0746  0.1040
11207TIP3    H155112   1.365   1.376   5.878 -0.9157  0.1598  0.0491
11207TIP3    H255113   1.375   1.226   5.901 -1.2529  0.0573 -0.4664
11208TIP3   OH255114   2.360   5.172   1.421 -0.5436 -0.4410 -0.0879
11208TIP3    H155115   2.434   5.211   1.467 -0.2116  0.1717 -1.1127
11208TIP3    H255116   2.363   5.079   1.445 -0.5327 -0.1049  1.3006
11209TIP3   OH255117   0.854   1.416  12.876 -0.1727 -0.8044  0.9988
11209TIP3    H155118   0.766   1.381  12.892 -0.8975  0.8776  0.9023
11209TIP3    H255119   0.891   1.428  12.964  0.3012 -2.2479  1.0261
11210TIP3   OH255120   0.471   0.346   1.425  0.1899  0.4938 -0.5775
11210TIP3    H155121   0.540   0.393   1.473  0.5703 -1.2434  0.6801
11210TIP3    H255122   0.513   0.266   1.395 -0.9099  0.0852 -1.0867
11211TIP3   OH255123   4.863   6.676  11.247 -0.1080  0.3350  0.2527
11211TIP3    H155124   4.865   6.771  11.241  1.1228  0.2387 -1.2114
11211TIP3    H255125   4.943   6.653  11.295  0.4426 -0.0364 -0.8292
11212TIP3   OH255126   0.120   6.472  11.401 -0.4662 -0.1238  0.2858
11212TIP3    H155127   0.117   6.547  11.341 -3.4921 -0.5755 -0.2897
11212TIP3    H255128   0.203   6.428  11.380  0.9838  2.5180  0.0498
11213TIP3   OH255129   4.531   0.251  12.988  0.3469  0.3041 -0.7691
11213TIP3    H155130   4.445   0.212  12.969  0.3086  0.0217 -0.0481
11213TIP3    H255131   4.558   0.211  13.071  0.8187  0.9833 -0.5843
11214TIP3   OH255132   4.168   0.302  15.477 -0.4840 -0.4348  0.3877
11214TIP3    H155133   4.113   0.363  15.429  0.9839  0.8281  0.2069
11214TIP3    H255134   4.188   0.347  15.559  0.7906 -0.5421  0.1683
11215TIP3   OH255135   2.354   0.364   1.444  0.1292  0.7159  0.2695
11215TIP3    H155136   2.266   0.340   1.416  0.4888 -1.8032  1.0151
11215TIP3    H255137   2.392   0.282   1.477  2.7101  1.7366  0.0992
11216TIP3   OH255138   4.423   6.696   3.164  0.1601 -0.4344  0.4045
11216TIP3    H155139   4.483   6.712   3.237 -0.7332  4.1240  0.4253
11216TIP3    H255140   4.471   6.725   3.087 -0.1286 -2.0274 -0.4232
11217TIP3   OH255141   6.330   4.433  13.779  0.2740  0.3952  0.0932
11217TIP3    H155142   6.422   4.455  13.763  0.3738 -0.3361 -0.3758
11217TIP3    H255143   6.284   4.468  13.702  0.4862 -1.3324 -0.8607
11218TIP3   OH255144   2.036   2.774   2.624 -0.2593  0.1941  0.1215
11218TIP3    H155145   2.004   2.862   2.643 -0.2812  0.2419 -0.1354
11218TIP3    H255146   2.058   2.738   2.710  2.1754  1.3602  0.0726
11219TIP3   OH255147   2.837   2.828  13.665 -0.3339  0.1746  0.4981
11219TIP3    H155148   2.867   2.801  13.752 -0.0100 -1.2841 -0.0533
11219TIP3    H255149   2.835   2.924  13.670  0.0548  0.1324  1.9832
11220TIP3   OH255150   5.664   6.112  13.560  0.0873  0.5812 -0.1815
11220TIP3    H155151   5.675   6.071  13.646 -0.0332  0.9901  0.0327
11220TIP3    H255152   5.750   6.104  13.518 -0.1689 -0.6669 -0.4949
11221TIP3   OH255153   1.764   6.394  15.168 -0.7423 -0.0258  0.0696
11221TIP3    H155154   1.803   6.374  15.083  0.3147  1.9939  0.0038
11221TIP3    H255155   1.831   6.372  15.232 -0.7644  0.3117  0.2152
11222TIP3   OH255156   3.340   3.181  10.483  0.2144  0.0659  0.2540
11222TIP3    H155157   3.250   3.165  10.512  0.2295  0.8415  0.7569
11222TIP3    H255158   3.373   3.248  10.544 -0.2176  2.9034 -2.3927
11223TIP3   OH255159   0.764   3.829  11.864 -0.3433  0.0787  0.9234
11223TIP3    H155160   0.765   3.910  11.813  0.0654  1.1802  2.5881
11223TIP3    H255161   0.814   3.767  11.811 -1.3113  0.6485 -0.7426
11224TIP3   OH255162   0.835   3.107   0.991 -0.1736 -0.6602 -0.1905
11224TIP3    H155163   0.893   3.031   0.991  0.1939 -0.3953 -0.9911
11224TIP3    H255164   0.803   3.112   0.901 -0.5148 -0.1112 -0.0403
11225TIP3   OH255165   5.445   3.155  10.511 -0.3561 -0.0794 -0.6124
11225TIP3    H155166   5.378   3.224  10.517 -1.3441 -0.6760 -3.1515
11225TIP3    H255167   5.499   3.167  10.588 -1.0940  2.9037 -0.4260
11226TIP3   OH255168   0.200   3.332   0.603 -0.5946 -0.0025 -0.9565
11226TIP3    H155169   0.153   3.407   0.567  0.5180  1.2142  0.0347
11226TIP3    H255170   0.156   3.313   0.685  0.1121  0.6494 -0.4040
11227TIP3   OH255171   6.062   2.592   1.788 -0.0749  0.1034  0.1908
11227TIP3    H155172   6.122   2.539   1.840 -0.0633 -0.4152 -0.3365
11227TIP3    H255173   6.026   2.655   1.849  0.1041 -0.3547  0.7738
11228TIP3   OH255174   3.413   3.433  12.240  0.3249  0.0649 -0.0831
11228TIP3    H155175   3.332   3.389  12.214 -1.3236  1.3253  2.5448
11228TIP3    H255176   3.475   3.361  12.254 -0.9158 -1.0924 -0.3006
11229TIP3   OH255177   4.225   5.784  16.901 -0.2694  0.1210 -0.2376
11229TIP3    H155178   4.304   5.730  16.908  1.3855  2.2439 -1.4930
11229TIP3    H255179   4.240   5.857  16.962 -0.9652  0.8822 -0.9520
11230TIP3   OH255180   1.567   1.462  13.162 -0.0632 -0.5379  0.1043
11230TIP3    H155181   1.633   1.494  13.101  0.0118  1.6031  1.2105
11230TIP3    H255182   1.576   1.518  13.239 -1.9964 -1.3380  0.9865
11231TIP3   OH255183   2.943   1.689  14.374 -0.0068 -0.1363 -0.2395
11231TIP3    H155184   2.892   1.648  14.444 -2.0247  0.9118 -1.0137
11231TIP3    H255185   2.934   1.630  14.299  0.3526 -0.1975 -0.2357
11232TIP3   OH255186   0.889   5.278   4.577 -0.3235  0.0097 -0.2322
11232TIP3    H155187   0.916   5.193   4.541  2.2612  0.9314 -0.6699
11232TIP3    H255188   0.802   5.293   4.539 -0.2432 -1.8082 -1.2543
11233TIP3   OH255189   2.108   6.204  17.211  0.2177  0.3941  0.5660
11233TIP3    H155190   2.171   6.150  17.260  0.3862 -0.8630 -0.9371
11233TIP3    H255191   2.161   6.277  17.178  1.0744 -0.8764 -1.0465
11234TIP3   OH255192   0.217   6.760  13.405 -0.1207  0.3124  0.0904
11234TIP3    H155193   0.244   6.840  13.450 -2.0307  0.8419  0.3714
11234TIP3    H255194   0.298   6.726  13.367  0.7220  2.4818 -0.2104
11235TIP3   OH255195   6.639   2.564   0.772 -0.1194  0.4297 -0.7429
11235TIP3    H155196   6.649   2.504   0.846 -1.5806  0.2800 -0.6231
11235TIP3    H255197   6.646   2.507   0.695 -0.1204  0.3216 -0.6638
11236TIP3   OH255198   6.693   2.956  14.709 -0.0399 -0.5651 -0.0617
11236TIP3    H155199   6.608   2.923  14.679 -0.2135  0.7807 -1.1629
11236TIP3    H255200   6.747   2.959  14.630  1.1451 -1.6177  0.6604
11237TIP3   OH255201   4.944   6.475   1.624 -0.1607  0.2723  0.7529
11237TIP3    H155202   4.987   6.549   1.583 -2.6638  0.7970 -1.1739
11237TIP3    H255203   4.869   6.456   1.567 -1.0243 -2.1665  2.5174
11238TIP3   OH255204   2.914   2.533   2.917 -0.0922  0.2460 -0.6635
11238TIP3    H155205   2.853   2.487   2.975  0.1551  1.6155  0.7427
11238TIP3    H255206   2.996   2.535   2.966 -0.3434  2.9717 -0.2099
11239TIP3   OH255207   2.584   2.594   4.880 -0.0477  0.4637 -0.3047
11239TIP3    H155208   2.573   2.684   4.910  0.5475  0.5509 -0.3362
11239TIP3    H255209   2.651   2.600   4.811  1.4847 -0.2522  1.0555
11240TIP3   OH255210   1.051   5.387  15.685  0.0001  0.3881 -0.9339
11240TIP3    H155211   1.085   5.299  15.669  2.9879  1.1006  0.8654
11240TIP3    H255212   1.067   5.434  15.603  1.9256  0.2239 -0.6937
11241TIP3   OH255213   4.015   3.750   6.166  0.2822  0.4935 -0.6732
11241TIP3    H155214   4.012   3.835   6.124  1.8418  0.3740 -1.0819
11241TIP3    H255215   3.939   3.749   6.224  0.6294  2.4438 -0.1155
11242TIP3   OH255216   1.019   0.733  15.005 -0.0998 -0.3137 -0.0539
11242TIP3    H155217   1.055   0.788  14.937  0.8766 -0.3636  0.4003
11242TIP3    H255218   0.933   0.769  15.023  0.5902  1.1778  0.3618
11243TIP3   OH255219   2.160   6.474  12.933  0.0824  0.5263  0.1763
11243TIP3    H155220   2.110   6.514  13.004  0.4395  2.1195 -0.4218
11243TIP3    H255221   2.241   6.444  12.975  0.0593  0.9532  0.5324
11244TIP3   OH255222   2.868   1.197  13.902 -0.7044  0.0602 -0.5900
11244TIP3    H155223   2.828   1.278  13.871  0.6569  0.6565 -0.8706
11244TIP3    H255224   2.796   1.133  13.902 -1.8241  1.2844 -0.2342
11245TIP3   OH255225   5.523   1.866   0.940 -0.1188  0.0789 -0.5522
11245TIP3    H155226   5.569   1.915   0.871  0.2683  0.5589  0.0261
11245TIP3    H255227   5.526   1.775   0.911  0.9262  0.1419 -0.6879
11246TIP3   OH255228   0.116   5.331  14.145  0.2364 -0.0681  0.2291
11246TIP3    H155229   0.195   5.279  14.154  0.7750  0.4657 -1.1611
11246TIP3    H255230   0.140   5.401  14.084 -1.0419  0.6347  0.4989
11247TIP3   OH255231   2.326   5.022  16.570  0.2811  0.5197 -0.0315
11247TIP3    H155232   2.251   5.026  16.629  0.3255 -0.0623  0.0727
11247TIP3    H255233   2.391   4.969  16.618  0.2799 -0.0489 -0.6436
11248TIP3   OH255234   5.878   2.742  13.845 -0.2608 -0.3416  0.1215
11248TIP3    H155235   5.799   2.701  13.880 -1.8091  2.8457  0.7042
11248TIP3    H255236   5.914   2.792  13.918  1.3465 -0.3595 -0.6083
11249TIP3   OH255237   3.501   6.231   0.692  0.1829  0.3374  0.0021
11249TIP3    H155238   3.547   6.277   0.762 -0.5149  2.1792 -0.6981
11249TIP3    H255239   3.558   6.157   0.671  1.1980  0.6774  1.3927
11250TIP3   OH255240   4.925   1.363   5.641 -0.0483 -0.0506 -0.0741
11250TIP3    H155241   4.941   1.286   5.696  1.3045  0.7178  0.6740
11250TIP3    H255242   4.854   1.410   5.685 -0.5554 -0.6189 -0.2736
11251TIP3   OH255243   3.812   0.694  13.230  0.4135 -0.0211 -0.3657
11251TIP3    H155244   3.896   0.739  13.236  0.3647  0.1506 -0.8822
11251TIP3    H255245   3.832   0.603  13.254  0.4447  0.3277  1.0349
11252TIP3   OH255246   3.704   3.261   5.674  0.0299  0.3480  0.5074
11252TIP3    H155247   3.749   3.332   5.629 -0.9525  0.1527 -0.8314
11252TIP3    H255248   3.772   3.193   5.684 -0.1005 -0.3139 -2.3182
11253TIP3   OH255249   5.229   4.104  16.695  0.1868  0.5501  0.6545
11253TIP3    H155250   5.293   4.154  16.645  0.5393  1.2452  1.7641
11253TIP3    H255251   5.228   4.145  16.781 -0.9026 -0.1858  1.0189
11254TIP3   OH255252   2.205   4.973  12.802 -0.0075 -0.3046 -0.7627
11254TIP3    H155253   2.237   5.061  12.784  0.1162 -0.3448 -0.7409
11254TIP3    H255254   2.275   4.915  12.770  1.1654 -0.3529  1.6697
11255TIP3   OH255255   1.680   2.943   4.300  0.5711  0.3438 -0.3936
11255TIP3    H155256   1.743   2.933   4.371 -0.8914 -1.6090  0.7507
11255TIP3    H255257   1.653   3.035   4.304  1.0443  0.4380  1.1171
11256TIP3   OH255258   4.863   1.780   1.810 -0.0707 -0.1536  0.9226
11256TIP3    H155259   4.888   1.696   1.850  0.0567 -0.8583 -0.5587
11256TIP3    H255260   4.772   1.767   1.783  0.5246 -0.5801 -1.0861
11257TIP3   OH255261   6.293   0.207   1.744 -0.4984 -0.5031 -0.6093
11257TIP3    H155262   6.199   0.222   1.740 -0.8598 -1.1937  2.7210
11257TIP3    H255263   6.301   0.113   1.760  0.8574 -0.6558 -1.9558
11258TIP3   OH255264   1.433   5.749  11.991  0.1310 -0.3086  0.4661
11258TIP3    H155265   1.381   5.671  11.969 -0.8969  0.2395  0.8517
11258TIP3    H255266   1.488   5.763  11.915 -1.1353 -0.2412 -0.4808
11259TIP3   OH255267   1.615   3.495  17.103  0.3575 -0.0533  0.1231
11259TIP3    H155268   1.633   3.415  17.152 -0.0409 -0.0142  0.3390
11259TIP3    H255269   1.653   3.479  17.017 -0.0683 -0.6411  0.0357
11260TIP3   OH255270   5.428   2.126  17.081  0.3149  0.4544  0.6217
11260TIP3    H155271   5.422   2.163  16.993  0.0231 -0.0263  0.4398
11260TIP3    H255272   5.483   2.188  17.129 -0.2411  1.1772  0.3434
11261TIP3   OH255273   5.849   1.707  17.374 -0.0860  0.2891  0.7958
11261TIP3    H155274   5.823   1.619  17.400 -0.9600 -0.1671 -1.4063
11261TIP3    H255275   5.918   1.731  17.436  0.2177 -1.9592  1.4136
11262TIP3   OH255276   6.392   2.814   5.010  0.3213 -0.7608 -0.4182
11262TIP3    H155277   6.344   2.896   5.022  1.1454 -0.3318  0.0288
11262TIP3    H255278   6.346   2.751   5.065 -0.0972 -0.5100 -0.4790
11263TIP3   OH255279   6.152   2.735  16.640  0.4402 -0.3247 -0.4490
11263TIP3    H155280   6.158   2.769  16.550 -0.6327 -0.2324 -0.4961
11263TIP3    H255281   6.069   2.769  16.673  0.0323 -1.7102  0.0100
11264TIP3   OH255282   3.400   0.520   4.298 -0.1589  0.1130  0.1289
11264TIP3    H155283   3.361   0.563   4.222 -4.2857 -1.2743  1.1628
11264TIP3    H255284   3.414   0.429   4.270 -0.5418 -0.1034  0.6085
11265TIP3   OH255285   2.944   3.287   2.456  0.1532  0.3322 -0.2167
11265TIP3    H155286   3.017   3.231   2.482 -1.0324 -0.3244  1.9038
11265TIP3    H255287   2.982   3.375   2.453  0.5651  0.4637  3.7208
11266TIP3   OH255288   3.728   0.437  17.025  0.1166 -0.3111  0.2537
11266TIP3    H155289   3.661   0.395  16.970  0.7993  1.1181 -1.8012
11266TIP3    H255290   3.678   0.493  17.084 -0.5843  1.4770 -1.8964
11267TIP3   OH255291   3.067   3.711   5.929  0.0645  0.1802 -0.3170
11267TIP3    H155292   2.974   3.691   5.914 -0.7459  1.3902  2.5316
11267TIP3    H255293   3.072   3.733   6.022  3.2361  0.1986 -0.4004
11268TIP3   OH255294   0.191   4.970   3.178 -0.6543 -0.0109  0.5337
11268TIP3    H155295   0.283   4.961   3.153 -0.4154  2.1751  0.4306
11268TIP3    H255296   0.142   4.936   3.103  0.0581 -0.5254  0.2965
11269TIP3   OH255297   5.687   1.954   1.795 -0.1316 -0.1250  0.4074
11269TIP3    H155298   5.750   1.882   1.797  2.3300  1.8435 -0.9307
11269TIP3    H255299   5.688   1.988   1.885  0.1575 -0.5640  0.5783
11270TIP3   OH255300   4.522   0.773  15.930  0.3262 -0.2913 -0.1746
11270TIP3    H155301   4.451   0.729  15.883  0.8961 -1.1341 -0.2695
11270TIP3    H255302   4.545   0.712  16.001  0.0883  0.5559  0.6398
11271TIP3   OH255303   3.579   2.123   3.700 -0.0076 -0.6763 -0.0781
11271TIP3    H155304   3.547   2.161   3.781  1.6595 -0.7722  0.6629
11271TIP3    H255305   3.553   2.032   3.704 -1.7681 -0.2298 -0.6609
11272TIP3   OH255306   4.387   4.445  14.555 -0.5242 -0.0423  0.1480
11272TIP3    H155307   4.299   4.477  14.577 -0.8915  0.4032 -1.8142
11272TIP3    H255308   4.401   4.372  14.616 -1.5824  0.8771  1.5598
11273TIP3   OH255309   3.117   1.606   2.237  0.1923 -0.0196 -0.1726
11273TIP3    H155310   3.157   1.546   2.300 -0.1444 -1.0433 -0.9265
11273TIP3    H255311   3.149   1.577   2.152  1.9159  2.3143 -0.4433
11274TIP3   OH255312   0.289   3.937   5.881 -0.0784  0.5085 -0.7153
11274TIP3    H155313   0.353   3.903   5.944 -2.1653  3.2011  3.3820
11274TIP3    H255314   0.214   3.878   5.889  0.1386  0.0705 -1.8173
11275TIP3   OH255315   1.669   0.826   6.425  0.0516  0.4809 -0.1208
11275TIP3    H155316   1.602   0.784   6.479  0.5695  0.7192  0.7342
11275TIP3    H255317   1.660   0.920   6.445 -1.0655  0.8068 -1.9647
11276TIP3   OH255318   0.039   1.887   4.939 -0.2733 -0.4376 -0.0804
11276TIP3    H155319   0.002   1.920   4.856 -0.8671  0.4079  0.4997
11276TIP3    H255320   0.032   1.792   4.932  0.8244 -0.4467 -1.5109
11277TIP3   OH255321   4.636   6.085   3.346 -0.2997 -0.1820 -0.0645
11277TIP3    H155322   4.661   5.993   3.351  0.4230 -0.0824 -1.4403
11277TIP3    H255323   4.542   6.082   3.327 -0.1915 -0.6449 -0.5620
11278TIP3   OH255324   1.542   5.380  16.682 -0.0458  0.4514 -0.1500
11278TIP3    H155325   1.487   5.458  16.688  0.2511  0.6701 -0.2074
11278TIP3    H255326   1.610   5.404  16.618 -0.5526 -0.2213 -0.9570
11279TIP3   OH255327   2.821   2.403  11.839  0.2893  0.3317  0.2730
11279TIP3    H155328   2.804   2.357  11.757 -1.9659  0.9426  0.3288
11279TIP3    H255329   2.837   2.334  11.903 -1.2657 -0.3469 -0.0207
11280TIP3   OH255330   5.647   2.698   5.778 -0.2844 -0.5161  0.4505
11280TIP3    H155331   5.711   2.628   5.793 -0.5701 -1.1870 -1.2015
11280TIP3    H255332   5.571   2.672   5.830 -1.5225 -3.1356 -2.3468
11281TIP3   OH255333   5.994   2.871  14.083 -0.1008  0.0281 -0.5878
11281TIP3    H155334   5.939   2.853  14.160  0.3160 -0.9970 -0.5220
11281TIP3    H255335   5.974   2.962  14.061  0.9240  0.9083  1.7085
11282TIP3   OH255336   3.021   5.094   4.756  0.0197 -0.3200  0.6041
11282TIP3    H155337   2.942   5.048   4.784 -0.7793 -0.0857 -1.0889
11282TIP3    H255338   3.013   5.098   4.660  0.8514  1.9087  0.5630
11283TIP3   OH255339   4.189   3.584   1.002 -0.2758  0.2808  0.0635
11283TIP3    H155340   4.182   3.615   0.911 -0.3883 -0.9282 -0.3619
11283TIP3    H255341   4.137   3.504   1.003  2.6554 -1.7823  0.2201
11284TIP3   OH255342   6.638   0.421  16.676 -0.1262  0.1512 -0.1600
11284TIP3    H155343   6.595   0.347  16.633 -0.0224 -0.3620  0.6019
11284TIP3    H255344   6.620   0.495  16.619 -0.4531 -0.4099 -0.8044
11285TIP3   OH255345   0.555   0.560  12.268  0.3269 -0.4763  0.4554
11285TIP3    H155346   0.594   0.646  12.281 -1.7323  0.5736  0.1847
11285TIP3    H255347   0.503   0.544  12.347 -2.8640  0.6474 -1.2158
11286TIP3   OH255348   1.746   3.430   1.470  0.5158  0.5325  0.1513
11286TIP3    H155349   1.693   3.385   1.536  2.2304 -1.1500  0.4771
11286TIP3    H255350   1.687   3.440   1.395 -0.9170  0.8119  1.2648
11287TIP3   OH255351   6.362   4.400  16.419 -0.0472  0.1856 -0.1257
11287TIP3    H155352   6.292   4.343  16.385 -1.5500  2.1761 -0.5420
11287TIP3    H255353   6.439   4.343  16.423 -0.7465 -1.2074 -3.1828
11288TIP3   OH255354   1.521   4.375   4.750 -0.4796 -0.9157 -0.0247
11288TIP3    H155355   1.531   4.321   4.672 -0.7026  1.1953 -1.6271
11288TIP3    H255356   1.605   4.420   4.758 -0.4971 -1.0378  0.9130
11289TIP3   OH255357   4.959   5.446   3.102 -0.1286  0.4192  0.1532
11289TIP3    H155358   4.908   5.420   3.026 -1.3382  3.3974 -0.1955
11289TIP3    H255359   4.895   5.456   3.173  0.0690  2.8809  0.0713
11290TIP3   OH255360   5.937   2.674   6.814 -0.8600  0.6930  0.3235
11290TIP3    H155361   6.030   2.686   6.830 -0.4651  2.0018 -2.2739
11290TIP3    H255362   5.923   2.580   6.822  1.9067 -0.4090 -4.0130
11291TIP3   OH255363   2.358   3.236   4.384  0.3563 -0.2129 -0.7165
11291TIP3    H155364   2.265   3.254   4.395  0.5207 -0.0544  0.6401
11291TIP3    H255365   2.402   3.308   4.428  1.0758 -1.4909  0.7780
11292TIP3   OH255366   6.205   1.463  12.260 -0.5884 -0.1039 -0.4644
11292TIP3    H155367   6.232   1.435  12.348  2.0541  0.7688 -0.9221
11292TIP3    H255368   6.173   1.383  12.219 -2.5725 -0.3979  1.4728
11293TIP3   OH255369   2.370   0.175   4.351 -0.3897 -0.1566  0.0234
11293TIP3    H155370   2.420   0.235   4.407  1.4912  0.7725 -2.4594
11293TIP3    H255371   2.383   0.089   4.391  0.6785  0.4921  1.1512
11294TIP3   OH255372   3.782   0.055  16.005  0.2461  0.1796 -0.4948
11294TIP3    H155373   3.712   0.047  15.941  1.2058 -0.5843 -1.4867
11294TIP3    H255374   3.828  -0.030  16.002  1.7132  0.9326 -0.4863
11295TIP3   OH255375   2.422   1.437   4.293 -0.0426  0.4580  0.3183
11295TIP3    H155376   2.371   1.500   4.242 -0.7916 -0.0256  0.4717
11295TIP3    H255377   2.413   1.467   4.384 -0.6272 -0.0277  0.4220
11296TIP3   OH255378   1.814   1.438   4.338 -1.1196 -0.6795 -0.0438
11296TIP3    H155379   1.768   1.363   4.377  0.0547 -0.6109  1.6030
11296TIP3    H255380   1.899   1.402   4.312 -0.7675 -0.0629  0.2285
11297TIP3   OH255381   5.701   1.345  15.262 -0.3503  0.0517 -0.1998
11297TIP3    H155382   5.780   1.292  15.248 -0.6856 -0.8598  1.2286
11297TIP3    H255383   5.659   1.348  15.176  0.4618 -0.7127 -0.6409
11298TIP3   OH255384   5.522   1.964  16.069  0.0666  0.1375 -0.0225
11298TIP3    H155385   5.471   2.019  16.010  0.8704 -0.4096 -1.2734
11298TIP3    H255386   5.612   1.974  16.039  0.0454 -3.9478 -2.2228
11299TIP3   OH255387   1.026   0.532   6.115  0.0791 -0.0224  0.1656
11299TIP3    H155388   1.001   0.539   6.023  2.1510  1.8417 -0.3375
11299TIP3    H255389   1.119   0.554   6.116  0.2480 -0.5932  2.6468
11300TIP3   OH255390   2.865   3.449  12.288  0.0183 -0.4077 -0.3949
11300TIP3    H155391   2.959   3.443  12.273  0.3736 -2.3090  1.8877
11300TIP3    H255392   2.826   3.395  12.220  0.3126  1.9246 -2.5695
11301TIP3   OH255393   2.505   3.504  13.646 -0.6775 -0.0890  0.4012
11301TIP3    H155394   2.562   3.482  13.572  1.2562  0.3680  1.6708
11301TIP3    H255395   2.475   3.420  13.680  0.3070 -0.4173  0.4780
11302TIP3   OH255396   2.135   5.052  16.757  0.4345 -0.4489  0.9060
11302TIP3    H155397   2.069   4.998  16.799  0.3658 -0.0118  1.3690
11302TIP3    H255398   2.091   5.135  16.739  1.0976  0.2180  2.1368
11303TIP3   OH255399   4.513   2.628   0.183 -0.0529 -0.0424 -0.1133
11303TIP3    H155400   4.511   2.575   0.104  1.1353  0.4923 -0.5236
11303TIP3    H255401   4.429   2.673   0.184 -0.4313 -0.7333 -0.5975
11304TIP3   OH255402   1.506   1.837  13.249 -0.3156  0.0116  0.0730
11304TIP3    H155403   1.593   1.805  13.227  0.1045  0.8206  0.5281
11304TIP3    H255404   1.467   1.767  13.301  0.5716  0.2089  1.0251
11305TIP3   OH255405   0.292   5.958   2.555  0.6311 -0.1244  0.2805
11305TIP3    H155406   0.278   5.953   2.460 -1.2085  0.8733  0.4470
11305TIP3    H255407   0.345   5.881   2.575 -0.6694 -1.5179 -1.2777
11306TIP3   OH255408   5.565   0.058   2.220 -0.3125 -0.0828  0.5563
11306TIP3    H155409   5.657   0.043   2.241 -0.1220 -0.5694 -0.5540
11306TIP3    H255410   5.544   0.141   2.263  0.7337  0.1926  0.5676
11307TIP3   OH255411   5.429   5.114  11.268 -0.4602 -0.6273 -0.3804
11307TIP3    H155412   5.435   5.198  11.313 -1.4163  0.2135 -1.7624
11307TIP3    H255413   5.357   5.125  11.206 -2.4228 -3.3431  1.1956
11308TIP3   OH255414   3.200   0.518   4.035 -0.5348 -0.3283  0.2516
11308TIP3    H155415   3.135   0.568   3.986  1.6726  1.1152 -1.4216
11308TIP3    H255416   3.228   0.449   3.975  0.2210 -0.2741  0.5326
11309TIP3   OH255417   2.876   6.615  14.903 -0.1704 -0.0347 -0.4595
11309TIP3    H155418   2.944   6.578  14.959 -0.4862 -0.6927 -0.4948
11309TIP3    H255419   2.924   6.660  14.833  0.2737 -2.0135 -1.4914
11310TIP3   OH255420   2.599   0.569  11.201 -0.0050 -0.1658 -0.3688
11310TIP3    H155421   2.641   0.498  11.249 -0.5505 -0.5739 -0.4838
11310TIP3    H255422   2.615   0.549  11.109  2.1668  1.2995 -0.3955
11311TIP3   OH255423   2.631   1.855  16.703  0.1840  0.1096 -0.1989
11311TIP3    H155424   2.633   1.820  16.792 -0.9055  0.8798  0.1519
11311TIP3    H255425   2.581   1.790  16.653  2.0600 -1.0822 -0.6402
11312TIP3   OH255426   0.255   3.321   0.897  0.5140  0.3086 -0.0861
11312TIP3    H155427   0.330   3.276   0.857  0.9553  0.2993  0.7151
11312TIP3    H255428   0.271   3.313   0.991 -1.4003 -1.2487  0.1789
11313TIP3   OH255429   2.108   3.300   2.810 -0.2141  0.0610  0.4814
11313TIP3    H155430   2.147   3.214   2.799 -1.5201 -0.4903 -0.1152
11313TIP3    H255431   2.179   3.362   2.795  0.5660 -0.8987  0.1555
11314TIP3   OH255432   2.539   0.855  11.600  0.3109 -0.4689  0.2073
11314TIP3    H155433   2.469   0.878  11.539 -0.1325 -1.2125  0.4165
11314TIP3    H255434   2.527   0.913  11.675  0.8700  0.4621 -0.4067
11315TIP3   OH255435   0.679   6.272   3.606 -0.5795  0.0283  0.4048
11315TIP3    H155436   0.584   6.258   3.598 -0.5840  0.0866  0.3491
11315TIP3    H255437   0.691   6.307   3.693 -0.8025  1.6007 -0.1686
11316TIP3   OH255438   1.206   6.517   1.196  0.6312  0.5035  0.1114
11316TIP3    H155439   1.218   6.533   1.102  0.9549  2.3592  0.4295
11316TIP3    H255440   1.141   6.447   1.200  0.0500  0.9040 -1.4805
11317TIP3   OH255441   4.200   6.412  17.091 -0.2094  0.1219  0.4924
11317TIP3    H155442   4.236   6.420  17.002 -3.0655 -1.4740 -0.9430
11317TIP3    H255443   4.191   6.502  17.121  0.0857  0.7447 -1.1596
11318TIP3   OH255444   5.430   0.166  13.251 -0.4274 -0.6798  0.4003
11318TIP3    H155445   5.382   0.248  13.255 -0.1093 -0.4265 -0.5907
11318TIP3    H255446   5.390   0.119  13.177  0.9071 -0.4121 -0.5224
11319TIP3   OH255447   0.534   5.794  13.964  0.2539  0.2027  0.0544
11319TIP3    H155448   0.581   5.868  13.925  1.7311 -0.1966  0.9993
11319TIP3    H255449   0.584   5.717  13.937 -1.2569 -0.4941 -0.9012
11320TIP3   OH255450   3.271   3.392   0.548  0.4500  0.2013  0.0635
11320TIP3    H155451   3.244   3.360   0.634 -0.9289 -0.8595 -0.7189
11320TIP3    H255452   3.197   3.443   0.517  1.1464  1.0111 -0.2890
11321TIP3   OH255453   4.563   2.548   2.958  0.2384  0.4485  0.5676
11321TIP3    H155454   4.561   2.498   2.876 -0.2010 -1.6623  1.7879
11321TIP3    H255455   4.477   2.534   2.996  1.2540 -0.7698  2.5752
11322TIP3   OH255456   1.226   0.418   5.480  0.3250  0.0892 -0.1746
11322TIP3    H155457   1.288   0.366   5.532 -0.9385  0.0010  1.3319
11322TIP3    H255458   1.274   0.441   5.401  1.2447 -2.6006 -0.5084
11323TIP3   OH255459   0.312   6.580  15.993  0.1885  0.7405  0.5223
11323TIP3    H155460   0.403   6.576  16.021  0.7313 -1.1156 -1.2483
11323TIP3    H255461   0.316   6.591  15.898 -1.4600  1.3209  0.4787
11324TIP3   OH255462   5.141   3.026  12.328 -0.1838  0.9787  0.6067
11324TIP3    H155463   5.090   2.952  12.297  1.4571  0.3075 -0.6870
11324TIP3    H255464   5.077   3.089  12.360 -1.8035  0.1651 -0.8864
11325TIP3   OH255465   5.981   1.835  12.707  0.0741  0.0685  0.1035
11325TIP3    H155466   5.916   1.778  12.747  0.3046 -0.2810 -0.0187
11325TIP3    H255467   5.932   1.915  12.685  0.3102  1.0882  2.8124
11326TIP3   OH255468   4.422   3.696  14.631  0.0602  0.2453 -0.1968
11326TIP3    H155469   4.489   3.638  14.596  0.1614  1.1272 -1.5362
11326TIP3    H255470   4.470   3.769  14.668 -0.1290  0.4697 -0.3910
11327TIP3   OH255471   5.878   1.651  15.023 -0.4737 -0.0077  0.0504
11327TIP3    H155472   5.836   1.737  15.023 -0.9724 -0.2437 -0.1967
11327TIP3    H255473   5.810   1.592  15.057  0.6327  0.0531  2.5584
11328TIP3   OH255474   0.810   6.370   0.306  0.0641  0.5816  0.6879
11328TIP3    H155475   0.737   6.425   0.278 -0.1966  0.1197  0.4323
11328TIP3    H255476   0.771   6.282   0.314  0.6827  0.2606  0.1738
11329TIP3   OH255477   2.301   1.536  11.826  0.0194 -0.1685 -0.1400
11329TIP3    H155478   2.261   1.472  11.767  0.9700 -1.0437  0.1271
11329TIP3    H255479   2.233   1.602  11.840 -0.8691 -0.9346 -0.7151
11330TIP3   OH255480   4.806   6.100   0.003 -0.0359  0.0321 -0.3075
11330TIP3    H155481   4.896   6.093  -0.030 -0.4830  0.3685 -1.6717
11330TIP3    H255482   4.791   6.194   0.013  0.2883 -0.0882  1.4957
11331TIP3   OH255483   0.345   0.856  12.322 -0.6360 -0.6924  0.4776
11331TIP3    H155484   0.354   0.949  12.338  1.7323 -0.9812  1.0877
11331TIP3    H255485   0.264   0.849  12.271 -0.2149  1.8120 -0.6954
11332TIP3   OH255486   1.180   1.596   2.092  0.4706  0.2081  0.0584
11332TIP3    H155487   1.209   1.544   2.017  1.6433 -1.3629  1.5228
11332TIP3    H255488   1.111   1.543   2.132  0.4639  0.6125  0.5957
11333TIP3   OH255489   3.009   3.475  11.572  0.1377  0.8184  0.0818
11333TIP3    H155490   3.095   3.482  11.531  0.4913 -1.4749  0.3016
11333TIP3    H255491   3.026   3.483  11.666  0.2162 -0.1934  0.1646
11334TIP3   OH255492   5.226   2.765   4.504 -0.0135 -0.4295  0.2856
11334TIP3    H155493   5.185   2.828   4.563  0.4129 -0.8679  1.0699
11334TIP3    H255494   5.241   2.687   4.558  2.2609 -0.1283  0.1928
11335TIP3   OH255495   1.372   0.550   4.327 -0.3937 -0.0193  0.2919
11335TIP3    H155496   1.433   0.477   4.339 -1.2801 -0.7844  0.3023
11335TIP3    H255497   1.343   0.573   4.415 -0.9240 -0.3897  0.2260
11336TIP3   OH255498   4.397   5.169  12.832 -0.2505 -0.5096 -0.3243
11336TIP3    H155499   4.466   5.177  12.767 -0.7448 -3.2964 -1.2866
11336TIP3    H255500   4.440   5.130  12.909 -0.2145  0.3786  0.1261
11337TIP3   OH255501   5.829   5.076   1.527 -0.5755  0.4245 -0.2955
11337TIP3    H155502   5.743   5.034   1.530 -0.5997  0.5304  0.6183
11337TIP3    H255503   5.892   5.003   1.533 -0.6132  0.4479  0.4446
11338TIP3   OH255504   4.153   5.771  12.845  0.2409  0.2090  0.3014
11338TIP3    H155505   4.217   5.823  12.893 -0.2489  0.4583  0.6947
11338TIP3    H255506   4.151   5.810  12.757  1.4942 -0.5550 -0.0883
11339TIP3   OH255507   1.712   4.294   1.538  0.2387 -0.4635  0.3577
11339TIP3    H155508   1.777   4.243   1.587  1.0421  1.5849  1.5342
11339TIP3    H255509   1.628   4.268   1.576  0.5646 -1.4297  0.4429
11340TIP3   OH255510   6.100   2.176   5.760  0.3123 -0.8395 -0.0918
11340TIP3    H155511   6.026   2.140   5.809  0.2681  0.6349  0.9769
11340TIP3    H255512   6.069   2.181   5.670 -0.8143 -0.4668  0.3000
11341TIP3   OH255513   0.443   0.645   0.324  0.0768  0.1411 -0.4687
11341TIP3    H155514   0.393   0.668   0.402 -0.2793 -0.4412 -0.5170
11341TIP3    H255515   0.502   0.719   0.310  1.0758 -0.3023  1.1382
11342TIP3   OH255516   5.134   0.637   7.021  0.1769  0.3592  0.0461
11342TIP3    H155517   5.192   0.562   7.012 -2.0397 -1.5693  0.8915
11342TIP3    H255518   5.186   0.702   7.068  2.6420  0.0069 -1.9934
11343TIP3   OH255519   2.829   6.429   0.955 -0.6937  0.5222  0.1763
11343TIP3    H155520   2.789   6.364   1.013 -0.5430  0.7696  0.5630
11343TIP3    H255521   2.821   6.391   0.867  1.5704 -1.1481  0.6114
11344TIP3   OH255522   2.269   0.683   4.493 -0.1335 -0.1287 -0.0275
11344TIP3    H155523   2.179   0.714   4.496 -0.0329  0.2617 -0.7991
11344TIP3    H255524   2.298   0.701   4.404  0.4201 -1.0746 -0.0523
11345TIP3   OH255525   2.486   3.989   1.466  0.2226  0.3439  0.4915
11345TIP3    H155526   2.441   3.956   1.544  0.1288 -0.3307  0.1548
11345TIP3    H255527   2.568   3.940   1.463 -0.1626 -0.2683 -0.3206
11346TIP3   OH255528   5.926   5.931   2.114  0.7120  0.0405  0.3274
11346TIP3    H155529   5.923   5.965   2.025 -1.1208 -1.4512 -0.2500
11346TIP3    H255530   5.933   6.009   2.169 -0.2032  1.1577 -1.0560
11347TIP3   OH255531   6.043   6.535  13.327  0.6505  0.0373  0.0512
11347TIP3    H155532   5.983   6.594  13.282 -0.1411 -0.9543 -0.2203
11347TIP3    H255533   6.026   6.449  13.289  1.3333 -0.4869  0.8901
11348TIP3   OH255534   6.014   2.708   5.818  0.1530 -0.4677  0.3483
11348TIP3    H155535   5.998   2.649   5.892 -2.0891 -0.0326  0.2691
11348TIP3    H255536   6.008   2.795   5.856  0.7755 -0.2436 -0.0502
11349TIP3   OH255537   1.477   0.277   2.794  0.1666  0.2340 -0.0628
11349TIP3    H155538   1.508   0.314   2.711 -2.1012  0.6686 -0.8179
11349TIP3    H255539   1.508   0.187   2.793 -0.7680 -0.1404 -2.0109
11350TIP3   OH255540   5.665   5.830  13.310  0.2314  0.4224  0.2986
11350TIP3    H155541   5.654   5.924  13.322 -0.9427  0.2704  0.5681
11350TIP3    H255542   5.749   5.820  13.265  0.6389  1.5561  0.7957
11351TIP3   OH255543   0.580   0.644  11.639 -0.3913  0.3799  0.3743
11351TIP3    H155544   0.563   0.728  11.681  1.4984  1.5134 -0.9912
11351TIP3    H255545   0.550   0.579  11.703 -1.2664  2.0536  1.7524
11352TIP3   OH255546   5.222   2.437  13.232 -0.8875  0.0381 -0.4311
11352TIP3    H155547   5.245   2.364  13.174  0.1440 -1.5418  1.8105
11352TIP3    H255548   5.301   2.491  13.236 -1.3191  0.7613 -1.2986
11353TIP3   OH255549   1.495   4.693  12.206 -0.6545  0.2690 -0.6238
11353TIP3    H155550   1.467   4.700  12.115 -0.2992 -2.2417 -0.9862
11353TIP3    H255551   1.572   4.635  12.203  0.6452  1.7747  1.0619
11354TIP3   OH255552   5.603   6.472  11.623  0.3775  0.2648  0.0636
11354TIP3    H155553   5.565   6.559  11.608 -0.1919 -0.0370 -0.2790
11354TIP3    H255554   5.647   6.451  11.540  1.2991  0.6072  0.4534
11355TIP3   OH255555   1.243   4.678   0.410  0.2214  0.2240  0.3151
11355TIP3    H155556   1.150   4.653   0.411 -0.1116  1.3238 -0.8032
11355TIP3    H255557   1.287   4.607   0.456 -1.1933 -0.2417  1.0071
11356TIP3   OH255558   2.833   0.213  12.803  0.8231 -0.2014  0.1508
11356TIP3    H155559   2.815   0.277  12.733  0.6484  0.6022  0.9171
11356TIP3    H255560   2.875   0.140  12.758  2.4039  1.0814 -0.5356
11357TIP3   OH255561   4.243   3.402  17.331 -0.2748  0.1364  0.3307
11357TIP3    H155562   4.242   3.372  17.240  0.5671 -1.1145  0.7072
11357TIP3    H255563   4.329   3.442  17.342  0.8302 -2.3247  1.3266
11358TIP3   OH255564   0.831   5.497  16.893 -0.2862 -0.3718  0.2645
11358TIP3    H155565   0.857   5.405  16.886  0.3606 -0.1074 -0.8927
11358TIP3    H255566   0.798   5.505  16.983  0.4817 -1.5129  0.6681
11359TIP3   OH255567   3.596   4.125   2.037 -0.2604 -0.0315 -0.6073
11359TIP3    H155568   3.675   4.081   2.067 -1.0177 -0.0580  1.5549
11359TIP3    H255569   3.579   4.192   2.104 -0.5792  1.8511 -2.4479
11360TIP3   OH255570   4.469   5.603  13.716  0.0761  0.5460  0.4596
11360TIP3    H155571   4.468   5.643  13.803  1.7522  1.5324  0.0830
11360TIP3    H255572   4.548   5.549  13.716 -0.6514 -0.5587 -0.0121
11361TIP3   OH255573   2.285   4.727   3.457 -0.5971 -0.2015  0.5463
11361TIP3    H155574   2.195   4.695   3.451 -1.8307  2.8819  0.5183
11361TIP3    H255575   2.276   4.823   3.458  2.5787  0.2236  2.1818
11362TIP3   OH255576   2.149   6.537  15.667 -0.1337  0.4108  0.1647
11362TIP3    H155577   2.100   6.581  15.736  0.9795  1.6102  0.2329
11362TIP3    H255578   2.192   6.464  15.712 -0.3286  0.5015  0.5035
11363TIP3   OH255579   1.520   0.481  14.701 -0.5092 -0.0847  0.0515
11363TIP3    H155580   1.579   0.481  14.776 -0.5566  0.6866  0.0945
11363TIP3    H255581   1.470   0.400  14.709 -0.5412  0.0156  0.8659
11364TIP3   OH255582   1.339   1.207  16.799  0.0105 -0.3163 -0.0970
11364TIP3    H155583   1.405   1.187  16.866 -0.2247 -1.2346 -0.1236
11364TIP3    H255584   1.348   1.301  16.784  1.0668 -0.3588  0.1628
11365TIP3   OH255585   3.682   4.144  14.820  0.6018 -0.2284 -0.4348
11365TIP3    H155586   3.670   4.224  14.768  0.5360 -0.0814 -0.1941
11365TIP3    H255587   3.692   4.074  14.755  0.7806 -0.0074 -0.6459
11366TIP3   OH255588   4.467   0.862  17.438 -0.2404 -0.2704  0.0980
11366TIP3    H155589   4.477   0.767  17.436 -1.5294 -0.4083 -0.1982
11366TIP3    H255590   4.446   0.887  17.348  1.4188  0.4854 -0.1397
11367TIP3   OH255591   2.429   2.582  11.932 -0.1302 -0.2748  0.6073
11367TIP3    H155592   2.522   2.606  11.930 -0.0844 -0.3487  1.5194
11367TIP3    H255593   2.427   2.492  11.901 -0.3494  0.8892 -3.3442
11368TIP3   OH255594   4.007   4.600   6.378  0.3126 -0.0655 -0.7152
11368TIP3    H155595   4.091   4.618   6.422 -1.2383  0.3247  2.3910
11368TIP3    H255596   3.956   4.679   6.392 -1.5049 -1.2982 -0.0887
11369TIP3   OH255597   0.077   4.821  16.091  0.3579 -0.5913 -0.1927
11369TIP3    H155598   0.051   4.836  16.182 -1.6109  0.7032 -0.8932
11369TIP3    H255599   0.096   4.909  16.057 -3.6356 -0.3008 -2.2586
11370TIP3   OH255600   2.090   1.463  13.997  0.3970  0.0468  0.4537
11370TIP3    H155601   2.105   1.394  13.932 -1.5438  0.0715 -0.0779
11370TIP3    H255602   2.122   1.543  13.954 -0.9641  0.0770 -0.5464
11371TIP3   OH255603   6.388   0.044  14.922 -1.0991 -0.5364  0.3166
11371TIP3    H155604   6.311   0.067  14.974 -1.0409 -0.3921  0.3374
11371TIP3    H255605   6.441   0.124  14.919 -0.8361 -0.7010  0.4975
11372TIP3   OH255606   4.184   1.420  13.981  0.5207  0.5257 -0.4730
11372TIP3    H155607   4.151   1.355  14.044  1.3871  0.2951 -0.2404
11372TIP3    H255608   4.210   1.368  13.905  1.7366  0.5041 -0.0777
11373TIP3   OH255609   4.374   0.134   0.408  0.3294 -0.0436  0.3415
11373TIP3    H155610   4.356   0.178   0.324  1.5286 -0.2866 -0.0732
11373TIP3    H255611   4.289   0.107   0.440 -0.5479  2.8408  0.7682
11374TIP3   OH255612   0.876   0.865  16.673 -0.6585  0.0036  0.4387
11374TIP3    H155613   0.853   0.958  16.676  2.3163  0.8501  0.6705
11374TIP3    H255614   0.913   0.853  16.585 -2.6537 -1.4860 -0.2666
11375TIP3   OH255615   2.613   1.242   5.249 -0.0139  0.4554 -0.2264
11375TIP3    H155616   2.633   1.160   5.204  1.3514 -0.0083  1.1279
11375TIP3    H255617   2.659   1.235   5.333 -1.8041  1.6080  0.9207
11376TIP3   OH255618   5.471   6.191  13.940  0.0454  0.5153 -0.0164
11376TIP3    H155619   5.399   6.219  13.997  0.0095  1.3126 -0.4365
11376TIP3    H255620   5.457   6.239  13.859  1.5947  1.4296  0.2151
11377TIP3   OH255621   0.256   3.801  16.457  0.4668  0.2016 -0.0142
11377TIP3    H155622   0.265   3.716  16.414  3.5745  1.0859 -1.3977
11377TIP3    H255623   0.297   3.789  16.542  0.3443  0.1647  0.0397
11378TIP3   OH255624   5.590   5.283   2.748 -0.4740 -0.0854 -0.0136
11378TIP3    H155625   5.542   5.358   2.781 -0.4939 -0.2449  0.3211
11378TIP3    H255626   5.537   5.207   2.773  0.5831 -0.3688  1.5515
11379TIP3   OH255627   0.644   5.196   3.058 -0.1954  0.3575  0.0671
11379TIP3    H155628   0.625   5.289   3.068  0.9861  0.6874 -0.5633
11379TIP3    H255629   0.720   5.181   3.114 -0.4682 -0.2653  0.2814
11380TIP3   OH255630   2.737   5.857  16.953 -0.6929  0.5282 -0.2884
11380TIP3    H155631   2.697   5.876  16.868  0.4870  2.2612 -0.5116
11380TIP3    H255632   2.674   5.890  17.017  0.0570  2.7941 -0.6285
11381TIP3   OH255633   0.514   2.999  17.443 -0.8960  0.0658  0.0427
11381TIP3    H155634   0.475   2.913  17.457 -1.7257  0.0084 -2.1627
11381TIP3    H255635   0.509   3.013  17.348 -0.1650  2.2544  0.2533
11382TIP3   OH255636   6.120   6.632   5.393  0.2629 -0.0842 -0.0685
11382TIP3    H155637   6.147   6.724   5.397  0.2972 -0.1296  1.6983
11382TIP3    H255638   6.115   6.612   5.300 -1.1485  2.1056 -0.5311
11383TIP3   OH255639   0.181   1.876  13.655  0.1570 -0.3323 -0.2282
11383TIP3    H155640   0.272   1.893  13.632  0.5099 -1.0687  0.5497
11383TIP3    H255641   0.182   1.787  13.693 -1.1298 -0.9779 -1.5956
11384TIP3   OH255642   6.751   3.845   1.104 -0.0995 -0.3690  0.0197
11384TIP3    H155643   6.825   3.900   1.129  0.5150 -1.3558  0.4287
11384TIP3    H255644   6.791   3.762   1.077 -1.0913 -1.3511  1.3957
11385TIP3   OH255645   1.953   1.553   6.070 -0.3504 -0.2825 -0.4016
11385TIP3    H155646   1.963   1.625   6.132  3.7566  0.5736 -1.7330
11385TIP3    H255647   1.919   1.595   5.991 -0.0460 -0.1939 -0.4897
11386TIP3   OH255648   1.463   0.657  13.576  0.0100 -0.0929 -0.1114
11386TIP3    H155649   1.479   0.565  13.595  0.1217  0.3468  2.2281
11386TIP3    H255650   1.525   0.678  13.506  2.0270 -1.1183  1.2843
11387TIP3   OH255651   2.765   0.090   0.578  0.0127  0.0068 -0.5593
11387TIP3    H155652   2.744   0.004   0.613 -1.1954  0.8741  1.0008
11387TIP3    H255653   2.682   0.122   0.543  0.0592  1.1107  0.2685
11388TIP3   OH255654   0.099   4.375   0.867 -0.5036  0.5701 -0.0165
11388TIP3    H155655   0.122   4.305   0.806 -0.1788 -0.7042  1.4892
11388TIP3    H255656   0.023   4.418   0.828 -0.8098 -0.7342 -0.9044
11389TIP3   OH255657   0.593   6.505  15.379 -0.1441 -0.0622  0.4600
11389TIP3    H155658   0.648   6.513  15.300  1.9420 -0.8827  1.7396
11389TIP3    H255659   0.529   6.438  15.356 -0.0255  0.2083 -0.7630
11390TIP3   OH255660   2.130   2.629  11.408 -0.4883 -0.7979 -0.2909
11390TIP3    H155661   2.199   2.565  11.395 -0.3856 -0.8874  0.6101
11390TIP3    H255662   2.129   2.644  11.502  2.4379  3.7093 -0.6633
11391TIP3   OH255663   6.553   2.418   2.967 -0.7057 -0.3506 -0.0887
11391TIP3    H155664   6.594   2.504   2.958  1.3446 -0.8875  2.6779
11391TIP3    H255665   6.609   2.360   2.915 -0.1181 -0.4797  0.6629
11392TIP3   OH255666   2.101   4.024   0.777 -0.1143  0.5310  0.2558
11392TIP3    H155667   2.188   3.990   0.755 -0.2339 -0.1710  0.8277
11392TIP3    H255668   2.096   4.108   0.731  0.8012  0.5072  0.0859
11393TIP3   OH255669   6.725   0.116   2.698 -0.2012 -0.2775  0.2600
11393TIP3    H155670   6.720   0.055   2.772  0.7269  0.3350  0.8448
11393TIP3    H255671   6.706   0.202   2.736  0.6505  0.0937 -0.1146
11394TIP3   OH255672   5.070   5.779  12.762  0.3764 -0.4150  0.1353
11394TIP3    H155673   5.056   5.689  12.792  1.6160 -0.6601  0.0211
11394TIP3    H255674   5.003   5.792  12.694 -0.0794 -1.0993  0.4403
11395TIP3   OH255675   2.783   1.722  12.019 -0.1774 -0.0952  0.2308
11395TIP3    H155676   2.876   1.719  12.038 -0.2383 -0.3685  0.4819
11395TIP3    H255677   2.761   1.816  12.022  0.0800 -0.0333  0.1949
11396TIP3   OH255678   3.773   5.717  14.428 -0.3419  0.2781 -0.1260
11396TIP3    H155679   3.799   5.639  14.378 -0.0769  0.3905 -0.1635
11396TIP3    H255680   3.699   5.752  14.379 -2.8117 -1.9183  1.7608
11397TIP3   OH255681   6.487   3.086  14.456  0.3645 -0.1681  0.1872
11397TIP3    H155682   6.519   3.168  14.417  0.6657  1.2183  3.1066
11397TIP3    H255683   6.464   3.109  14.545 -0.4217 -3.1193  0.8503
11398TIP3   OH255684   2.844   3.009  16.704  1.1769  0.0423 -0.7747
11398TIP3    H155685   2.902   2.946  16.661 -1.5050 -2.6784 -0.7632
11398TIP3    H255686   2.813   2.963  16.782 -0.8309  1.4456 -0.6779
11399TIP3   OH255687   1.677   3.372  15.897 -0.2988 -0.5114  0.0740
11399TIP3    H155688   1.582   3.383  15.895 -0.0120  2.6607 -1.3479
11399TIP3    H255689   1.693   3.320  15.976 -2.9915  1.9609  2.4725
11400TIP3   OH255690   0.884   3.778   3.846  0.0841  0.8218  0.3020
11400TIP3    H155691   0.878   3.855   3.789 -0.2291  0.2810 -0.4037
11400TIP3    H255692   0.811   3.723   3.819  0.3088  0.2680  0.8082
11401TIP3   OH255693   4.290   5.223  16.332  0.2745 -0.1331  0.2490
11401TIP3    H155694   4.285   5.280  16.408  0.4267 -2.5510  2.1941
11401TIP3    H255695   4.254   5.139  16.362  1.1573 -1.4448 -2.0821
11402TIP3   OH255696   0.250   1.027  13.220 -0.1215  0.3493 -0.4703
11402TIP3    H155697   0.285   1.059  13.303 -1.9871  1.3088 -0.0059
11402TIP3    H255698   0.212   0.941  13.241  1.2947 -0.4115 -0.8463
11403TIP3   OH255699   0.111   3.824  10.371  0.4367 -0.1840 -0.1427
11403TIP3    H155700   0.134   3.758  10.437 -1.0179  1.7749  2.4979
11403TIP3    H255701   0.031   3.791  10.330 -1.1345  0.5055  2.2064
11404TIP3   OH255702   2.611   3.274   5.898 -0.3359 -0.3226  0.3240
11404TIP3    H155703   2.687   3.230   5.936  0.1635  0.2074 -0.0360
11404TIP3    H255704   2.603   3.355   5.948  1.0893  0.9799 -1.4453
11405TIP3   OH255705   1.824   2.571   0.874  0.0887  0.1909  0.4327
11405TIP3    H155706   1.866   2.644   0.919 -0.0528 -0.2218  1.2691
11405TIP3    H255707   1.821   2.501   0.940 -2.0600  0.2615  0.4739
11406TIP3   OH255708   4.045   4.338   0.594 -0.2159  0.3430  0.2884
11406TIP3    H155709   4.036   4.272   0.662  0.4763  0.1129  0.1623
11406TIP3    H255710   4.139   4.349   0.583 -0.3041 -0.0501 -1.0372
11407TIP3   OH255711   4.209   4.489   3.048  0.3585 -0.6448 -0.6966
11407TIP3    H155712   4.158   4.409   3.037  0.0230 -0.1135 -4.1022
11407TIP3    H255713   4.143   4.557   3.064  0.4502 -0.6873 -0.1156
11408TIP3   OH255714   1.258   1.721   1.301  0.1839 -0.0460  0.4845
11408TIP3    H155715   1.214   1.805   1.312 -1.8677 -1.2388  2.0744
11408TIP3    H255716   1.305   1.707   1.384  1.3689 -0.0526 -0.1564
11409TIP3   OH255717   5.151   1.113   5.000  0.9431 -0.0295  0.2498
11409TIP3    H155718   5.207   1.057   5.055  1.8417  0.7005  0.0921
11409TIP3    H255719   5.191   1.108   4.913 -0.3046 -0.9454 -0.3061
11410TIP3   OH255720   4.658   1.106   6.757 -0.2809 -0.3516 -0.1011
11410TIP3    H155721   4.698   1.125   6.673  0.3066 -0.0805  0.2308
11410TIP3    H255722   4.567   1.086   6.737 -0.1725 -0.1733 -0.7834
11411TIP3   OH255723   0.157   0.315  13.028 -0.5261  0.1240 -0.0220
11411TIP3    H155724   0.246   0.279  13.033 -0.5884 -0.2247 -1.1503
11411TIP3    H255725   0.125   0.288  12.942 -1.7303  0.2466  0.3701
11412TIP3   OH255726   1.571   3.835   3.891  0.7121  0.1971 -0.6760
11412TIP3    H155727   1.654   3.795   3.863 -0.3326 -0.4065 -3.2564
11412TIP3    H255728   1.566   3.916   3.840  0.8374  1.5673  1.3707
11413TIP3   OH255729   5.493   3.178   3.328  0.2399  0.0218 -0.3128
11413TIP3    H155730   5.540   3.142   3.403 -0.2346 -2.2732 -1.0400
11413TIP3    H255731   5.407   3.202   3.362  0.2564 -0.3875  0.0245
11414TIP3   OH255732   2.551   3.769   3.542 -0.5829  0.0810 -0.4531
11414TIP3    H155733   2.571   3.732   3.456 -0.6698  2.9226 -1.8401
11414TIP3    H255734   2.466   3.733   3.565 -0.2523 -1.2592 -1.2081
11415TIP3   OH255735   2.414   4.697   5.385 -0.1278 -0.4032 -0.2482
11415TIP3    H155736   2.366   4.738   5.313 -0.2805  1.3422  0.7989
11415TIP3    H255737   2.489   4.655   5.343 -0.7521 -0.2902 -1.5266
11416TIP3   OH255738   5.007   3.375   1.190 -0.2437  0.2985 -0.4003
11416TIP3    H155739   5.075   3.340   1.132  0.4997  0.6394  0.2472
11416TIP3    H255740   4.959   3.298   1.220 -0.9662  0.1568 -1.8588
11417TIP3   OH255741   3.433   1.221  17.114 -0.4107  0.3304  0.1339
11417TIP3    H155742   3.490   1.199  17.187 -0.4524  0.1911  0.1260
11417TIP3    H255743   3.417   1.137  17.070 -0.9428  0.3047  0.3726
11418TIP3   OH255744   6.499   6.266  15.626  0.6969 -0.3434  0.3355
11418TIP3    H155745   6.504   6.199  15.694 -0.5149 -0.2330  0.5626
11418TIP3    H255746   6.465   6.219  15.549 -0.2409  0.0034  0.5190
11419TIP3   OH255747   1.062   0.204  13.836 -0.0328 -0.4338  0.2099
11419TIP3    H155748   1.150   0.181  13.868  0.7200  0.9345 -0.7798
11419TIP3    H255749   1.060   0.300  13.837 -1.1712 -0.4244 -0.6789
11420TIP3   OH255750   0.542   6.600  16.125 -0.4545 -0.1222 -0.4302
11420TIP3    H155751   0.480   6.658  16.169 -0.8088 -0.2898 -0.7065
11420TIP3    H255752   0.628   6.637  16.145 -0.5920 -0.3755  0.6731
11421TIP3   OH255753   4.216   6.485  16.573 -0.1109 -0.0283  0.5304
11421TIP3    H155754   4.181   6.396  16.580  1.5513 -0.6139  2.4748
11421TIP3    H255755   4.150   6.540  16.615 -0.1240 -0.6841  1.4141
11422TIP3   OH255756   6.086   0.655   2.963 -0.1336  0.5379 -0.0212
11422TIP3    H155757   5.998   0.682   2.935  0.1824  1.0488 -0.5440
11422TIP3    H255758   6.118   0.601   2.891  0.0155  0.4266  0.1298
11423TIP3   OH255759   3.004   1.644  13.201 -0.6253 -0.0480  0.8910
11423TIP3    H155760   3.052   1.679  13.126  1.0558 -1.0046  1.4882
11423TIP3    H255761   2.914   1.673  13.186 -1.2439 -3.0725 -3.4432
11424TIP3   OH255762   1.825   0.147   6.227  0.5937 -0.1535  0.0635
11424TIP3    H155763   1.790   0.226   6.187  2.9735  1.0391  0.1630
11424TIP3    H255764   1.813   0.079   6.160 -2.0151  0.0632  0.2034
11425TIP3   OH255765   1.309   4.434  17.285  0.4416 -0.8856  0.2411
11425TIP3    H155766   1.320   4.357  17.229 -0.9600 -0.0473 -1.2826
11425TIP3    H255767   1.252   4.403  17.356  1.4259 -1.7071  0.7005
11426TIP3   OH255768   1.988   4.253  15.820  0.0061  0.4267  0.0466
11426TIP3    H155769   1.922   4.213  15.763 -0.2164  1.3735 -0.3906
11426TIP3    H255770   1.945   4.260  15.906  0.1888 -0.6101  0.2281
11427TIP3   OH255771   4.604   3.282  12.475  0.7746 -0.2302 -0.0496
11427TIP3    H155772   4.560   3.331  12.544  0.8432 -0.9030  0.4718
11427TIP3    H255773   4.651   3.212  12.520 -0.0896 -1.3671 -0.8572
11428TIP3   OH255774   6.622   1.766  12.753 -0.4076 -0.6852  0.5689
11428TIP3    H155775   6.534   1.758  12.790 -0.5483  0.5493  0.5342
11428TIP3    H255776   6.632   1.860  12.735  0.1796 -1.0597 -1.2350
11429TIP3   OH255777   5.096   1.228   3.442 -0.4626 -0.7267 -0.9033
11429TIP3    H155778   5.102   1.313   3.399  0.7615 -0.5717 -0.4819
11429TIP3    H255779   5.149   1.170   3.388  0.5178 -0.6921 -0.0176
11430TIP3   OH255780   6.488   3.348  16.784 -0.0408 -0.0482  0.0775
11430TIP3    H155781   6.480   3.307  16.698 -1.0138 -0.1034  0.1787
11430TIP3    H255782   6.467   3.440  16.769  0.7448  0.1385  0.0936
11431TIP3   OH255783   0.514   5.245  13.140 -0.0419 -0.4094  0.6674
11431TIP3    H155784   0.555   5.159  13.142 -0.7743 -0.7805  0.0408
11431TIP3    H255785   0.570   5.299  13.196  0.9197 -1.0625  0.3666
11432TIP3   OH255786   4.084   2.362   2.248 -0.0363  0.6359 -0.3145
11432TIP3    H155787   4.159   2.310   2.218  0.1090  0.2098  0.7470
11432TIP3    H255788   4.080   2.436   2.187 -0.0832 -0.4674 -1.7051
11433TIP3   OH255789   6.733   3.813  16.400  0.2926 -0.3784  0.2186
11433TIP3    H155790   6.716   3.772  16.485  0.0762 -0.9193 -0.0814
11433TIP3    H255791   6.828   3.813  16.392  0.4247  1.2439  1.2147
11434TIP3   OH255792   5.874   0.845   2.205 -0.0012 -0.1089 -0.2761
11434TIP3    H155793   5.900   0.934   2.228 -0.6278  0.0212 -0.0492
11434TIP3    H255794   5.924   0.825   2.125 -1.7248  1.4169 -1.8345
11435TIP3   OH255795   2.382   2.203  12.365 -0.5783  0.3584  0.3281
11435TIP3    H155796   2.433   2.131  12.402 -0.1969 -0.0551 -0.9500
11435TIP3    H255797   2.366   2.261  12.439  0.5547 -0.1978  1.0479
11436TIP3   OH255798   4.340   0.006  16.820  0.5584 -0.2346 -0.4203
11436TIP3    H155799   4.331   0.059  16.741 -0.4221  1.4690  0.7664
11436TIP3    H255800   4.250  -0.017  16.844  0.6467  0.9087  1.2025
11437TIP3   OH255801   2.888   3.099  13.495  0.1310  0.3956  0.0789
11437TIP3    H155802   2.971   3.052  13.488  0.4761  1.1543 -1.3037
11437TIP3    H255803   2.893   3.144  13.579  0.7103 -0.3172  0.4355
11438TIP3   OH255804   0.763   5.098   3.854 -0.5114  0.7533 -0.0814
11438TIP3    H155805   0.769   5.176   3.908  0.0098 -0.1670  1.2198
11438TIP3    H255806   0.809   5.121   3.773 -0.1304  1.6936  0.3936
11439TIP3   OH255807   5.181   3.011   1.383 -0.1575  0.5016 -0.5564
11439TIP3    H155808   5.134   3.043   1.460 -0.0875 -0.0394 -0.2859
11439TIP3    H255809   5.260   3.065   1.379  0.3371 -0.1251  0.3415
11440TIP3   OH255810   4.237   2.753   0.080  0.1264  0.0735 -0.5012
11440TIP3    H155811   4.146   2.778   0.065 -0.3058 -1.7941 -1.2231
11440TIP3    H255812   4.274   2.739  -0.007  1.2821  1.2692 -0.2446
11441TIP3   OH255813   0.974   1.426  13.106 -0.3208  0.0899 -0.4555
11441TIP3    H155814   1.030   1.481  13.162 -1.4914  0.9809 -0.0971
11441TIP3    H255815   0.979   1.339  13.145  1.5338 -0.0796 -0.9960
11442TIP3   OH255816   0.801   6.352  11.507  0.3240  0.3516  0.2234
11442TIP3    H155817   0.884   6.369  11.551  1.0722  0.1651 -1.0653
11442TIP3    H255818   0.740   6.416  11.543  1.5365  1.7839 -0.1925
11443TIP3   OH255819   2.780   5.183  15.112 -0.4921 -0.1925  0.5223
11443TIP3    H155820   2.764   5.177  15.206  0.0307  0.8155  0.6897
11443TIP3    H255821   2.726   5.257  15.084  2.9272  2.7480  0.9544
11444TIP3   OH255822   1.264   3.871   3.109  0.5968 -0.1846 -0.2330
11444TIP3    H155823   1.210   3.944   3.078  0.3501 -0.4151 -0.3424
11444TIP3    H255824   1.296   3.828   3.030 -1.9411 -2.2176 -0.2726
11445TIP3   OH255825   0.202   3.828   3.430 -0.2033  0.0167 -0.0571
11445TIP3    H155826   0.162   3.756   3.382 -2.1122  1.0901 -0.1939
11445TIP3    H255827   0.138   3.900   3.423  1.6246  1.7416  0.0363
11446TIP3   OH255828   3.069   5.269  12.535 -0.1884  0.6233 -0.4691
11446TIP3    H155829   3.071   5.181  12.574 -0.3156 -0.1876 -2.1906
11446TIP3    H255830   3.124   5.322  12.592 -1.9807  0.0420  1.9667
11447TIP3   OH255831   2.079   0.369  11.732 -0.7895 -0.3321 -0.3722
11447TIP3    H155832   2.076   0.300  11.799 -0.6909 -2.0634 -2.0663
11447TIP3    H255833   1.998   0.418  11.745 -1.0140 -0.9311  0.6843
11448TIP3   OH255834   6.095   6.333   0.537 -0.2785 -0.1905 -0.8753
11448TIP3    H155835   6.086   6.344   0.442  0.6265  0.6597 -0.8772
11448TIP3    H255836   6.167   6.270   0.547  0.2721  0.4582 -0.7411
11449TIP3   OH255837   4.705   0.394  11.278 -0.3755  0.1399  0.2944
11449TIP3    H155838   4.683   0.379  11.370 -0.4857  0.1099  0.2629
11449TIP3    H255839   4.669   0.318  11.231 -1.4917  0.7994  0.0469
11450TIP3   OH255840   2.909   6.537   4.370 -0.3080 -0.4227  0.3464
11450TIP3    H155841   2.910   6.633   4.369  0.3301 -0.4330 -0.7714
11450TIP3    H255842   2.977   6.511   4.308 -0.9461 -1.6027  0.1156
11451TIP3   OH255843   1.497   2.602  16.546 -0.2775 -0.8129  0.0753
11451TIP3    H155844   1.446   2.568  16.473  0.8533 -0.0062 -1.1288
11451TIP3    H255845   1.581   2.557  16.540  0.0597 -0.2494  0.4655
11452TIP3   OH255846   0.933   2.167  14.777  0.0204  0.3420 -0.1219
11452TIP3    H155847   0.865   2.100  14.781 -1.4102  1.7420 -0.2064
11452TIP3    H255848   0.915   2.223  14.853  1.4984  0.3736  0.2302
11453TIP3   OH255849   6.095   1.985  12.920  0.4017  0.1442 -0.3153
11453TIP3    H155850   6.050   1.921  12.866 -0.6297  0.9635 -0.4665
11453TIP3    H255851   6.035   2.060  12.923  1.7320  1.2513 -0.4684
11454TIP3   OH255852   3.856   0.995   6.495  0.2007  0.6291 -0.5999
11454TIP3    H155853   3.768   0.990   6.534 -0.0882 -0.0241 -1.3064
11454TIP3    H255854   3.913   1.021   6.567 -0.4082 -0.0059  0.1210
11455TIP3   OH255855   3.532   5.885   2.014  0.6018  0.5987  0.4500
11455TIP3    H155856   3.613   5.866   2.060  0.0506 -0.0108  1.2024
11455TIP3    H255857   3.538   5.978   1.991  0.3085  1.2968  2.9789
11456TIP3   OH255858   3.748   1.577   3.249  0.4643 -0.3081 -0.1672
11456TIP3    H155859   3.787   1.526   3.320 -0.4020  2.1170  2.2026
11456TIP3    H255860   3.821   1.622   3.209  0.6262  2.1497  2.5394
11457TIP3   OH255861   5.646   3.670  17.017  0.2884  0.5026 -0.6859
11457TIP3    H155862   5.580   3.685  16.949  1.3122  1.8281 -1.4127
11457TIP3    H255863   5.648   3.751  17.067  0.2281 -0.1227  0.3668
11458TIP3   OH255864   0.721   1.869   5.846 -0.2066 -0.2049  0.2378
11458TIP3    H155865   0.763   1.953   5.826 -0.6762  0.2586  1.1791
11458TIP3    H255866   0.638   1.872   5.798  0.5246 -0.8757 -1.1401
11459TIP3   OH255867   5.114   3.116   1.662 -0.9813 -0.5068 -0.0749
11459TIP3    H155868   5.095   3.179   1.592  0.0308 -0.9160 -0.7427
11459TIP3    H255869   5.110   3.168   1.742  2.7116  1.2305 -0.7743
11460TIP3   OH255870   2.588   2.204   0.059  0.2061  0.2306  0.1902
11460TIP3    H155871   2.599   2.155   0.140  0.2321 -1.4376 -0.7699
11460TIP3    H255872   2.562   2.138  -0.006 -0.8276  1.6718 -0.9437
11461TIP3   OH255873   5.339   3.431   3.879 -0.3917  0.8304 -0.2327
11461TIP3    H155874   5.320   3.481   3.958  0.8008  1.9477 -0.6110
11461TIP3    H255875   5.318   3.491   3.807 -0.2623  0.2825 -0.7417
11462TIP3   OH255876   2.259   1.495   6.108  0.2105 -0.6076  0.3567
11462TIP3    H155877   2.343   1.448   6.112  0.6905 -0.3526 -3.4890
11462TIP3    H255878   2.282   1.587   6.118  0.3279 -0.5920 -0.0345
11463TIP3   OH255879   6.507   4.022   1.723 -0.2914  0.5286  0.1381
11463TIP3    H155880   6.571   3.964   1.682  0.0667  2.0611 -1.5915
11463TIP3    H255881   6.422   3.989   1.696 -0.1798 -0.2211  0.6574
11464TIP3   OH255882   6.027   4.330   2.654  0.7247 -0.1159  0.1275
11464TIP3    H155883   5.962   4.300   2.590  0.4808  0.8619 -0.1025
11464TIP3    H255884   6.031   4.260   2.719  1.0993 -1.2094 -1.0394
11465TIP3   OH255885   0.443   6.453   3.768 -0.0068  0.8183 -0.1209
11465TIP3    H155886   0.477   6.520   3.709 -1.3256  2.0526  0.4601
11465TIP3    H255887   0.376   6.498   3.820  0.3861 -0.4777  1.6166
11466TIP3   OH255888   2.908   1.402  15.867  0.2318 -0.1095  0.7265
11466TIP3    H155889   2.982   1.459  15.886  0.1182  0.3406 -0.1300
11466TIP3    H255890   2.949   1.320  15.838  0.3999  0.0589  0.4789
11467TIP3   OH255891   3.371   4.284   0.933  0.0834 -0.3101  0.2317
11467TIP3    H155892   3.454   4.264   0.976 -0.1937 -0.7694  0.5538
11467TIP3    H255893   3.304   4.251   0.992 -0.3123 -0.6180 -0.3712
11468TIP3   OH255894   1.071   1.230  16.972 -0.6965 -0.5655 -0.5612
11468TIP3    H155895   1.072   1.297  16.903  0.3061 -0.0266 -0.0365
11468TIP3    H255896   1.100   1.150  16.929  2.1790  0.2493 -0.3332
11469TIP3   OH255897   3.228   1.020   0.574 -0.0073 -0.4224  0.2857
11469TIP3    H155898   3.177   1.046   0.651 -1.4667 -2.5290  0.1307
11469TIP3    H255899   3.204   1.083   0.506 -1.8378 -0.8957  0.4550
11470TIP3   OH255900   6.050   3.769  11.589  0.2727 -1.0605 -0.0913
11470TIP3    H155901   6.039   3.701  11.523  0.6395 -0.0661 -1.2353
11470TIP3    H255902   6.054   3.851  11.538 -1.4563 -0.0346  1.3163
11471TIP3   OH255903   6.337   0.453  13.114 -0.1519  0.1916 -0.6608
11471TIP3    H155904   6.430   0.455  13.092  0.3440 -1.0191  1.1301
11471TIP3    H255905   6.304   0.374  13.070 -0.0431 -0.0757 -0.2647
11472TIP3   OH255906   4.755   6.108   1.876  0.5874  0.2823  0.1223
11472TIP3    H155907   4.814   6.044   1.914  0.5306 -1.0069 -1.8164
11472TIP3    H255908   4.744   6.080   1.785 -0.7845  2.0898 -0.3391
11473TIP3   OH255909   0.657   4.987  11.845 -0.4657  0.4743 -0.1989
11473TIP3    H155910   0.592   5.013  11.779 -2.3303 -1.8596  0.5722
11473TIP3    H255911   0.696   4.907  11.809 -0.5460 -0.0718  0.9082
11474TIP3   OH255912   6.761   2.871  15.701 -0.0329 -0.4898  0.3681
11474TIP3    H155913   6.733   2.904  15.616 -0.3337 -1.3044  0.1360
11474TIP3    H255914   6.850   2.841  15.687  1.2736  2.6039  1.2409
11475TIP3   OH255915   0.737   0.931  15.551  1.0708  0.1667  0.3349
11475TIP3    H155916   0.772   0.846  15.524 -0.1187  0.3374 -1.9981
11475TIP3    H255917   0.657   0.910  15.600  0.8617 -0.0814 -0.1045
11476TIP3   OH255918   5.826   2.930  11.683 -0.1254 -0.3658  0.2806
11476TIP3    H155919   5.831   2.840  11.649  1.5722  0.4071 -1.7972
11476TIP3    H255920   5.741   2.962  11.653 -0.4499 -1.0655  0.4331
11477TIP3   OH255921   1.370   5.191  17.070 -0.3522 -0.3920  0.2671
11477TIP3    H155922   1.345   5.142  17.148  0.0916  1.2987  1.5392
11477TIP3    H255923   1.305   5.261  17.064  1.8758  2.0087  1.6375
11478TIP3   OH255924   4.212   5.798  16.564 -0.1887 -0.4419  0.4416
11478TIP3    H155925   4.199   5.740  16.489  0.5863 -1.4565  1.0719
11478TIP3    H255926   4.302   5.781  16.592  0.4407  1.8124  0.0212
11479TIP3   OH255927   1.903   1.167  12.571 -0.5768 -0.6389  0.2864
11479TIP3    H155928   1.956   1.090  12.552  2.4392  0.7741  2.1416
11479TIP3    H255929   1.962   1.241  12.559 -2.4635  1.1747  1.3867
11480TIP3   OH255930   3.120   2.459  11.975 -0.5215  0.4027  0.2482
11480TIP3    H155931   3.045   2.406  11.947  0.8757 -1.6042  0.1038
11480TIP3    H255932   3.189   2.437  11.913  0.8628  0.4497  1.7158
11481TIP3   OH255933   5.007   2.443  12.064  0.3128  0.0075  0.7365
11481TIP3    H155934   4.998   2.373  12.000 -1.0664 -0.1564  1.0742
11481TIP3    H255935   4.957   2.413  12.140  1.1497  0.6044  1.5444
11482TIP3   OH255936   6.072   0.268  17.172  0.0095 -0.2074  0.3597
11482TIP3    H155937   6.046   0.351  17.212 -0.1132 -0.4716  0.8414
11482TIP3    H255938   6.085   0.209  17.246 -0.6838 -0.8455 -0.0075
11483TIP3   OH255939   1.986   3.142  13.221  0.0005 -0.4536  0.1969
11483TIP3    H155940   2.033   3.108  13.297 -0.3557 -1.1392  0.1214
11483TIP3    H255941   2.046   3.204  13.181  0.8825 -1.3945  0.0367
11484TIP3   OH255942   3.222   3.486  16.975  0.0588 -0.2272 -0.0044
11484TIP3    H155943   3.187   3.564  16.932 -0.0094 -0.4912 -0.4341
11484TIP3    H255944   3.301   3.517  17.019  1.1368 -0.2906 -1.7887
11485TIP3   OH255945   4.502   2.449   2.406 -0.1490 -0.1571  0.0450
11485TIP3    H155946   4.463   2.469   2.321  0.7781 -1.4588 -0.7217
11485TIP3    H255947   4.590   2.419   2.385  0.4508  0.4492  1.5596
11486TIP3   OH255948   1.167   0.345   6.442 -0.5798  0.2395 -0.1817
11486TIP3    H155949   1.182   0.362   6.535  0.8288  1.0993 -0.5381
11486TIP3    H255950   1.080   0.306   6.439 -0.2993 -0.6177  1.5771
11487TIP3   OH255951   0.957   3.801   2.524 -0.0163 -0.6209 -0.2418
11487TIP3    H155952   1.008   3.759   2.593 -0.4001 -0.7472 -0.0330
11487TIP3    H255953   0.910   3.730   2.481 -2.2631 -0.2479  1.4204
11488TIP3   OH255954   1.220   2.959  14.685 -0.1145 -0.2280 -0.1078
11488TIP3    H155955   1.204   2.935  14.594  1.1654 -0.1187 -0.3858
11488TIP3    H255956   1.299   3.013  14.682  0.3550 -0.8002  1.1315
11489TIP3   OH255957   3.001   3.152  13.967 -0.2467 -0.5540 -0.0428
11489TIP3    H155958   2.981   3.059  13.954 -0.9262 -0.5526  0.9099
11489TIP3    H255959   2.990   3.166  14.061  1.5096  0.1145  0.1033
11490TIP3   OH255960   4.600   2.128  14.046  0.5724 -0.0996 -0.1035
11490TIP3    H155961   4.518   2.106  14.001  0.5870 -0.2887 -0.0386
11490TIP3    H255962   4.657   2.161  13.976  0.4634 -0.0306 -0.1596
11491TIP3   OH255963   3.659   0.673  13.875  0.5465  0.2708 -0.0197
11491TIP3    H155964   3.578   0.688  13.924  0.5562  1.3206 -0.3162
11491TIP3    H255965   3.689   0.760  13.849  2.3466  0.0048  0.9877
11492TIP3   OH255966   1.102   4.400  16.418 -0.5660  0.3438 -0.3202
11492TIP3    H155967   1.092   4.415  16.512  0.1186 -1.5655  0.1135
11492TIP3    H255968   1.078   4.308  16.407  0.7525  0.1443 -1.7670
11493TIP3   OH255969   0.582   4.453  12.582 -0.3151  0.0658 -0.5579
11493TIP3    H155970   0.513   4.390  12.563  0.0696 -0.5698  0.1268
11493TIP3    H255971   0.659   4.400  12.601  0.1259  0.7466 -0.4182
11494TIP3   OH255972   1.603   6.582  16.888 -0.0469 -0.2059 -0.2153
11494TIP3    H155973   1.660   6.582  16.811  0.5364 -1.2857  0.1924
11494TIP3    H255974   1.526   6.631  16.861 -0.3784 -1.5721 -1.8886
11495TIP3   OH255975   1.281   2.610   5.850 -0.0237  0.3537 -0.2745
11495TIP3    H155976   1.332   2.675   5.898 -2.5675  0.8276  2.0546
11495TIP3    H255977   1.255   2.654   5.770  1.1220  0.9542 -0.3286
11496TIP3   OH255978   1.718   4.332  15.271  0.1049 -0.0398 -0.0269
11496TIP3    H155979   1.809   4.305  15.258  0.3820  1.3099 -1.2443
11496TIP3    H255980   1.668   4.251  15.270  1.1213 -0.6883 -1.3100
11497TIP3   OH255981   3.386   1.059   4.248  0.0624  0.2655  0.4126
11497TIP3    H155982   3.380   1.050   4.153 -0.7440  0.4864  0.4353
11497TIP3    H255983   3.479   1.046   4.268  0.2870  0.5217 -0.4365
11498TIP3   OH255984   5.463   5.972   5.123  0.2170  0.1451 -0.0251
11498TIP3    H155985   5.518   6.019   5.186  0.7798  1.4985 -1.4630
11498TIP3    H255986   5.519   5.961   5.046 -0.2682 -1.9651 -0.1395
11499TIP3   OH255987   5.246   5.601  12.226  0.5256 -0.3204  0.9152
11499TIP3    H155988   5.179   5.644  12.280  0.9534  0.5613  0.7654
11499TIP3    H255989   5.320   5.662  12.227  0.9953 -0.8711  0.3509
11500TIP3   OH255990   5.240   0.773  12.302 -0.3761  0.2114  0.0258
11500TIP3    H155991   5.169   0.830  12.275  0.1771  0.5716 -0.7229
11500TIP3    H255992   5.255   0.794  12.394 -1.9327 -0.6404  0.5220
11501TIP3   OH255993   0.371   6.316  14.114 -0.2704  0.0974 -0.5924
11501TIP3    H155994   0.447   6.308  14.172  0.3033  2.8516 -0.8296
11501TIP3    H255995   0.374   6.238  14.059  2.3460  0.0646 -0.5076
11502TIP3   OH255996   5.681   1.579  14.031 -0.4990 -0.4177  1.0806
11502TIP3    H155997   5.633   1.659  14.051  0.2862  0.2293  0.4068
11502TIP3    H255998   5.629   1.509  14.073 -0.2285  0.6052  3.2268
11503TIP3   OH255999   3.014   3.289  15.977  0.1606  0.0666  0.1373
11503TIP3    H156000   3.078   3.245  16.033  1.8041  0.2059 -1.5290
11503TIP3    H256001   3.010   3.379  16.010  0.5316 -0.0478  0.5030
11504TIP3   OH256002   5.657   3.153  14.033 -0.1330  0.3866 -0.1339
11504TIP3    H156003   5.589   3.175  13.970 -1.4909 -0.7065  0.8837
11504TIP3    H256004   5.707   3.083  13.992 -1.0737 -0.3887  0.0259
11505TIP3   OH256005   4.876   0.226   3.948 -0.4501  0.5859 -0.7396
11505TIP3    H156006   4.942   0.169   3.908 -0.2963  0.0603  0.2335
11505TIP3    H256007   4.915   0.252   4.032 -0.3785  2.3883 -1.2915
11506TIP3   OH256008   3.382   3.176  11.096  0.0048 -0.3141  0.0079
11506TIP3    H156009   3.457   3.170  11.155 -0.6294  0.2223  0.9106
11506TIP3    H256010   3.401   3.115  11.026  0.0611 -2.2249  1.6020
11507TIP3   OH256011   3.990   4.238   2.782 -0.2019 -0.1909 -0.0044
11507TIP3    H156012   4.018   4.207   2.868 -1.4742 -1.8709 -0.1410
11507TIP3    H256013   4.046   4.314   2.764 -1.2647  1.5665  3.1929
11508TIP3   OH256014   2.915   5.654  12.802 -0.3541  0.1763 -0.1331
11508TIP3    H156015   2.838   5.601  12.825 -0.8008  1.7025  2.2389
11508TIP3    H256016   2.988   5.593  12.809 -1.1163 -0.8007 -0.2995
11509TIP3   OH256017   0.118   6.610  13.163 -0.2675 -0.3794 -0.2058
11509TIP3    H156018   0.201   6.564  13.181 -0.0129  0.0667 -0.2172
11509TIP3    H256019   0.091   6.643  13.248  0.0359  0.2428 -0.3432
11510TIP3   OH256020   0.584   4.137   1.720  0.1329 -0.2219 -0.0389
11510TIP3    H156021   0.602   4.121   1.813  0.2825 -1.0465 -0.1964
11510TIP3    H256022   0.488   4.135   1.714  0.0041  2.2029  0.4744
11511TIP3   OH256023   0.207   3.881  14.046  0.3185 -0.1461  0.2151
11511TIP3    H156024   0.144   3.879  14.119 -0.0441  1.9840  0.0229
11511TIP3    H256025   0.155   3.858  13.969 -0.1728  1.1377  0.1320
11512TIP3   OH256026   3.674   1.540  14.666  0.6845  0.3585 -0.1719
11512TIP3    H156027   3.738   1.472  14.644 -0.0727 -0.7974  1.0550
11512TIP3    H256028   3.721   1.597  14.728  0.9118  0.2461 -0.2376
11513TIP3   OH256029   5.686   0.558  16.938 -0.2670  0.1393  0.4137
11513TIP3    H156030   5.615   0.567  17.002  0.0625 -2.4485  1.2639
11513TIP3    H256031   5.678   0.467  16.907  1.4030  0.4390 -1.0365
11514TIP3   OH256032   1.753   6.664   6.123  0.4717  0.0741 -0.1574
11514TIP3    H156033   1.797   6.627   6.199  0.5638  0.9914  0.2522
11514TIP3    H256034   1.718   6.589   6.076 -2.8864 -0.4652  2.7413
11515TIP3   OH256035   1.174   5.032   4.011  0.0556 -0.1272  0.2531
11515TIP3    H156036   1.124   5.104   4.048  1.7125  2.2438 -1.7725
11515TIP3    H256037   1.242   5.013   4.076  0.5693  1.2838  0.1546
11516TIP3   OH256038   0.679   2.609   3.537  0.5069  0.1968  0.1323
11516TIP3    H156039   0.673   2.653   3.622 -0.1471  0.7757 -0.2053
11516TIP3    H256040   0.690   2.680   3.474  0.3224 -0.1817 -0.3304
11517TIP3   OH256041   0.708   6.700   2.155 -0.2818  0.1707 -0.5803
11517TIP3    H156042   0.643   6.717   2.222 -0.8362  2.2245 -1.5793
11517TIP3    H256043   0.751   6.784   2.141  1.0170 -0.6240 -1.5660
11518TIP3   OH256044   5.123   5.488  11.640 -0.6625  0.1236  0.5840
11518TIP3    H156045   5.189   5.549  11.673 -1.2362  0.8000  0.4981
11518TIP3    H256046   5.135   5.409  11.693  1.3001 -0.3729 -0.5319
11519TIP3   OH256047   5.299   5.138   3.683 -0.2175 -0.4274  0.3297
11519TIP3    H156048   5.386   5.138   3.643 -1.2577  1.5927 -2.3557
11519TIP3    H256049   5.305   5.202   3.754  0.5426 -0.4484  0.2902
11520TIP3   OH256050   0.712   4.821   5.357  0.2541 -0.4994 -0.3234
11520TIP3    H156051   0.695   4.890   5.420  0.3944  0.7049 -1.5641
11520TIP3    H256052   0.647   4.753   5.378  0.1353 -0.0204  0.9249
11521TIP3   OH256053   2.324   6.144  11.243  0.1597  0.1666  0.2941
11521TIP3    H156054   2.416   6.126  11.223 -0.1749 -2.1779  0.5399
11521TIP3    H256055   2.289   6.183  11.163  1.0812 -0.0918 -0.2471
11522TIP3   OH256056   4.442   4.143   5.487 -0.9641  0.4095  0.5409
11522TIP3    H156057   4.465   4.104   5.572 -1.7368 -0.2010  0.4827
11522TIP3    H256058   4.506   4.107   5.426  1.2020  2.7649  1.2409
11523TIP3   OH256059   5.263   2.224  11.340  0.2638  0.1934  0.1636
11523TIP3    H156060   5.217   2.234  11.257  1.5367  2.6091 -0.3440
11523TIP3    H256061   5.325   2.152  11.325 -0.2774 -0.1280 -0.5948
11524TIP3   OH256062   4.471   3.845   4.965 -0.4163  0.0233  0.1705
11524TIP3    H156063   4.553   3.801   4.944 -0.4785  0.1271 -0.3041
11524TIP3    H256064   4.435   3.796   5.038 -0.1900 -0.3463  0.0339
11525TIP3   OH256065   0.330   5.944  12.005 -0.7980  0.3977  0.0881
11525TIP3    H156066   0.262   5.957  12.071  1.3124 -0.6376  2.6242
11525TIP3    H256067   0.372   6.030  11.997 -0.9359  0.4787  0.2322
11526TIP3   OH256068   1.781   4.736  12.409 -0.0798 -0.0626  0.3521
11526TIP3    H156069   1.788   4.810  12.349 -1.3719 -1.5071 -1.7153
11526TIP3    H256070   1.848   4.675  12.380 -0.9148 -0.9060  0.1200
11527TIP3   OH256071   2.976   2.102   0.433  0.0041  0.3078  0.5100
11527TIP3    H156072   3.050   2.145   0.390 -1.5252  0.9455 -1.6384
11527TIP3    H256073   3.000   2.010   0.437  0.8454  0.4818 -0.3146
11528TIP3   OH256074   5.546   0.431   1.540 -0.0338  0.2009  0.3466
11528TIP3    H156075   5.579   0.394   1.458  2.6892  0.5842  1.1699
11528TIP3    H256076   5.513   0.356   1.589 -3.0109  0.1170 -1.5426
11529TIP3   OH256077   1.502   1.875  14.638 -0.0559 -0.1539 -0.4557
11529TIP3    H156078   1.546   1.823  14.571  1.2518 -0.9177  0.9322
11529TIP3    H256079   1.481   1.958  14.595  0.9103 -0.5597 -1.7452
11530TIP3   OH256080   1.639   3.484  15.067 -0.5054  0.2257  0.5496
11530TIP3    H156081   1.646   3.528  14.982  0.2423 -1.2249 -0.1767
11530TIP3    H256082   1.549   3.501  15.095 -0.6154  1.1517 -0.2884
11531TIP3   OH256083   1.521   6.093   5.751 -1.0466 -0.3991  0.9347
11531TIP3    H156084   1.442   6.128   5.708 -0.5792 -1.1095 -0.5937
11531TIP3    H256085   1.593   6.123   5.696 -0.4079 -1.3145  1.2482
11532TIP3   OH256086   1.953   2.114  11.551 -0.3022 -0.7013  0.5753
11532TIP3    H156087   1.971   2.207  11.568 -0.4094 -0.7892  1.2008
11532TIP3    H256088   1.857   2.109  11.547 -0.2786 -0.3953 -1.8156
11533TIP3   OH256089   1.943   2.880   6.001  0.0010  0.2940 -0.3210
11533TIP3    H156090   1.850   2.856   5.999  0.1018 -0.1596 -2.4066
11533TIP3    H256091   1.965   2.885   6.094 -1.4837 -1.9982  0.2347
11534TIP3   OH256092   3.667   4.213  16.219  0.3001 -0.1510 -0.1682
11534TIP3    H156093   3.694   4.201  16.128 -0.7207  0.7952 -0.6220
11534TIP3    H256094   3.582   4.169  16.224 -0.7378  1.7414 -0.3151
11535TIP3   OH256095   2.119   0.510  16.264 -0.1432 -0.2511 -0.6034
11535TIP3    H156096   2.172   0.538  16.190  3.5904 -0.5217  1.7006
11535TIP3    H256097   2.109   0.590  16.317  2.9850 -1.1254  1.6479
11536TIP3   OH256098   4.469   1.781  11.678 -0.3882 -0.3133 -0.2658
11536TIP3    H156099   4.558   1.810  11.661 -0.6361  0.2847 -0.5875
11536TIP3    H256100   4.436   1.841  11.744 -0.6177 -0.3988 -0.3004
11537TIP3   OH256101   2.018   3.029  11.859 -0.2258  0.2614 -0.4538
11537TIP3    H156102   2.025   3.050  11.952  0.0939 -3.1728  0.4157
11537TIP3    H256103   2.093   3.073  11.819  0.1002  1.1245  1.0186
11538TIP3   OH256104   3.909   0.096  15.160 -0.7709  0.0646  0.1286
11538TIP3    H156105   3.826   0.139  15.139 -1.2227 -0.3759  0.9674
11538TIP3    H256106   3.884   0.008  15.186  0.0302 -0.2878 -0.2857
11539TIP3   OH256107   2.370   3.150  15.387 -0.3095  0.0269 -0.7146
11539TIP3    H156108   2.455   3.122  15.421 -0.2735 -1.0661 -1.6404
11539TIP3    H256109   2.391   3.205  15.312 -0.4104 -0.7179 -1.2996
11540TIP3   OH256110   5.449   3.963   4.843  0.4430 -0.2923  0.0430
11540TIP3    H156111   5.490   3.990   4.761  0.5027  1.5664  0.6550
11540TIP3    H256112   5.368   4.013   4.848  1.8154  1.9613  2.4612
11541TIP3   OH256113   5.272   1.171   1.502  0.3480  0.3058 -0.1532
11541TIP3    H156114   5.194   1.165   1.558 -0.3430 -1.4312 -1.2285
11541TIP3    H256115   5.304   1.082   1.496  0.6190  0.5010 -2.1945
11542TIP3   OH256116   3.775   1.176   4.495  0.3399 -0.1129 -0.4579
11542TIP3    H156117   3.848   1.208   4.548  0.6781 -0.8603 -0.4663
11542TIP3    H256118   3.722   1.125   4.556 -0.8078  1.3313 -0.1711
11543TIP3   OH256119   1.190   5.616  13.364  0.1934  0.3126 -0.6958
11543TIP3    H156120   1.144   5.537  13.334  0.7876 -0.4928  0.4622
11543TIP3    H256121   1.276   5.610  13.324  1.0131 -0.8003  1.1213
11544TIP3   OH256122   2.444   1.144   2.578  0.4016 -0.4521 -0.1519
11544TIP3    H156123   2.397   1.213   2.530  0.2582 -0.3068  0.1909
11544TIP3    H256124   2.533   1.179   2.589 -0.0249  0.2986  1.2198
11545TIP3   OH256125   5.971   5.014  13.785  0.3152 -0.6768  0.2253
11545TIP3    H156126   5.931   5.078  13.726 -1.7069 -2.0880 -0.0393
11545TIP3    H256127   5.935   5.035  13.872  0.7308 -0.6151  0.3863
11546TIP3   OH256128   3.698   5.151  10.986 -0.2733  0.8123 -0.4282
11546TIP3    H156129   3.760   5.092  10.943 -0.3028 -0.2690  0.9851
11546TIP3    H256130   3.661   5.100  11.057 -1.7835  1.9030 -0.3971
11547TIP3   OH256131   1.848   4.498  16.319 -0.0302 -0.0433  0.1651
11547TIP3    H156132   1.757   4.524  16.309 -0.2903 -1.2748 -0.9929
11547TIP3    H256133   1.861   4.491  16.414 -0.3659  2.5827  0.4699
11548TIP3   OH256134   1.421   6.103   0.142 -0.2016  0.3560 -0.8007
11548TIP3    H156135   1.362   6.103   0.066  1.2018  2.0905 -1.9956
11548TIP3    H256136   1.508   6.112   0.104  1.0619 -3.0771  0.8335
11549TIP3   OH256137   3.263   3.158  15.840  0.2472 -0.7197 -0.6058
11549TIP3    H156138   3.208   3.111  15.902  2.2944 -1.2945  0.8661
11549TIP3    H256139   3.208   3.231  15.810 -0.7954 -0.3622  1.9403
11550TIP3   OH256140   5.743   2.343   4.368 -0.4262  0.3435  0.9825
11550TIP3    H156141   5.763   2.408   4.436  0.8267  0.8289  0.1783
11550TIP3    H256142   5.720   2.395   4.291  2.5383 -0.0147 -0.2796
11551TIP3   OH256143   2.263   3.878  14.135 -0.5856  0.8578 -0.3820
11551TIP3    H156144   2.239   3.788  14.158  0.6229  0.9042  1.2099
11551TIP3    H256145   2.349   3.891  14.175  0.5559  1.8197 -2.9312
11552TIP3   OH256146   0.115   4.396   4.996  0.0039  0.0580 -0.3485
11552TIP3    H156147   0.202   4.366   4.967 -0.3167 -0.0561 -1.2076
11552TIP3    H256148   0.088   4.459   4.930 -1.0357 -0.7203 -0.6801
11553TIP3   OH256149   4.838   2.825  15.925 -0.2498 -0.5161 -0.1918
11553TIP3    H156150   4.904   2.869  15.978  0.2454 -1.3898 -0.0709
11553TIP3    H256151   4.784   2.778  15.989 -2.2874  1.7626 -0.0586
11554TIP3   OH256152   1.955   1.818   4.220 -0.4512 -0.3038 -0.3816
11554TIP3    H156153   1.887   1.811   4.287  0.2587  0.7645  0.5013
11554TIP3    H256154   1.953   1.734   4.175 -0.4637 -1.3554  1.4726
11555TIP3   OH256155   4.051   4.147  14.537 -0.2907  0.2063  0.7897
11555TIP3    H156156   4.086   4.110  14.456  0.3890  3.3958 -0.5002
11555TIP3    H256157   3.957   4.132  14.532  0.0377 -2.5274  1.0919
11556TIP3   OH256158   1.706   4.940  15.004  0.1812 -0.3490  0.0127
11556TIP3    H156159   1.648   5.007  14.969  0.3163 -1.3330 -2.2826
11556TIP3    H256160   1.738   4.976  15.086 -0.8760  1.7563 -0.4435
11557TIP3   OH256161   4.280   0.276   3.907 -0.3483 -0.0994 -0.9809
11557TIP3    H156162   4.263   0.191   3.866  0.2044 -0.7405  0.0469
11557TIP3    H256163   4.197   0.301   3.947 -0.1571 -0.8601 -0.0824
11558TIP3   OH256164   4.360   6.639  14.937  0.0100  0.2940 -0.0052
11558TIP3    H156165   4.303   6.576  14.982 -0.0866  0.7080  0.4550
11558TIP3    H256166   4.302   6.685  14.878  0.2047 -0.5024 -0.8396
11559TIP3   OH256167   2.158   6.052   3.089  0.5495 -0.2209 -0.1507
11559TIP3    H156168   2.207   5.977   3.055 -0.8329 -0.3034 -2.0743
11559TIP3    H256169   2.190   6.062   3.179  3.3559 -0.8517 -0.9917
11560TIP3   OH256170   2.821   2.127  12.985  0.4813  0.6866 -0.0340
11560TIP3    H156171   2.841   2.111  13.077  1.4895  1.1802 -0.1497
11560TIP3    H256172   2.904   2.110  12.940 -0.3131 -0.7554 -1.0136
11561TIP3   OH256173   6.550   0.916  16.598 -0.3809  0.2498 -0.6034
11561TIP3    H156174   6.525   0.920  16.506 -1.4823 -0.3219 -0.3452
11561TIP3    H256175   6.627   0.858  16.599  0.6864  1.5836 -1.3360
11562TIP3   OH256176   5.579   1.836   5.220 -0.4114  0.8240 -0.4388
11562TIP3    H156177   5.554   1.890   5.146  0.0660  0.0441 -1.1926
11562TIP3    H256178   5.522   1.864   5.291  0.0849  2.5692 -0.6931
11563TIP3   OH256179   1.732   3.170  11.131  0.1616  0.4626  0.4781
11563TIP3    H156180   1.729   3.255  11.175 -2.0621  0.6857  0.0393
11563TIP3    H256181   1.659   3.173  11.069  0.6005 -1.4359 -0.2004
11564TIP3   OH256182   6.503   4.907  16.626 -0.2850  0.0767 -0.3759
11564TIP3    H156183   6.424   4.961  16.629 -0.2173  0.1440  0.3809
11564TIP3    H256184   6.470   4.819  16.606 -0.8946 -0.4626  2.5543
11565TIP3   OH256185   0.796   2.952  17.173 -0.4863 -0.1639 -0.1029
11565TIP3    H156186   0.851   3.001  17.235 -1.3556  0.0034  0.5578
11565TIP3    H256187   0.856   2.922  17.105  0.8299 -1.7506  1.6460
11566TIP3   OH256188   1.864   4.749   2.458  0.0737  0.2612  0.6251
11566TIP3    H156189   1.793   4.715   2.403 -1.5902  2.0041  1.5756
11566TIP3    H256190   1.943   4.733   2.407 -1.2301  0.3166 -1.5656
11567TIP3   OH256191   0.687   0.295  12.279  0.0784 -0.3277  0.1741
11567TIP3    H156192   0.605   0.265  12.318 -0.2063  0.5107  0.2449
11567TIP3    H256193   0.671   0.387  12.259  1.0037 -0.1635  0.1763
11568TIP3   OH256194   6.679   0.884   1.894  0.0353  0.7609 -0.6414
11568TIP3    H156195   6.758   0.908   1.845 -1.0387  2.0518 -1.8340
11568TIP3    H256196   6.617   0.954   1.873 -1.3822 -0.1609  0.3726
11569TIP3   OH256197   2.926   5.386  14.116  0.1313 -0.1174  0.0531
11569TIP3    H156198   2.939   5.294  14.140  2.4324 -0.1337 -0.9073
11569TIP3    H256199   2.854   5.385  14.053 -0.2477 -1.1859  0.4930
11570TIP3   OH256200   2.329   0.553  12.975  0.8216 -0.2775 -0.2688
11570TIP3    H156201   2.418   0.533  13.003  0.7494  0.8002  0.7631
11570TIP3    H256202   2.283   0.469  12.981  1.5808 -0.6854 -0.0921
11571TIP3   OH256203   4.033   4.476  15.652 -0.7229  0.2407  0.0575
11571TIP3    H156204   3.976   4.402  15.629 -1.5502  0.9686 -0.3108
11571TIP3    H256205   4.120   4.448  15.625 -1.2234 -0.0764 -1.3506
11572TIP3   OH256206   2.376   1.402   2.454 -0.1152 -0.4859  0.0479
11572TIP3    H156207   2.451   1.419   2.510 -2.7053  1.4105  3.2911
11572TIP3    H256208   2.394   1.452   2.374  1.9255  0.0636  0.7859
11573TIP3   OH256209   4.320   0.316  14.818  0.5929 -0.1955  0.3742
11573TIP3    H156210   4.258   0.387  14.835 -0.9528 -0.5388 -2.9463
11573TIP3    H256211   4.276   0.237  14.850  1.5272  0.0702  2.4301
11574TIP3   OH256212   5.100   1.284   3.899  0.2809  0.1810  0.1174
11574TIP3    H156213   5.074   1.226   3.828 -0.8776  1.0402 -0.1909
11574TIP3    H256214   5.168   1.339   3.861  1.0780 -0.6633  0.2844
11575TIP3   OH256215   3.167   2.100  11.561  0.4891 -0.8475 -0.2806
11575TIP3    H156216   3.191   2.191  11.546  0.6045 -0.8731 -0.2458
11575TIP3    H256217   3.144   2.066  11.474 -1.2241 -0.2995 -0.0821
11576TIP3   OH256218   0.911   3.026  13.614  0.5449  0.3664 -0.1627
11576TIP3    H156219   0.978   3.069  13.562  0.8041  0.3127  0.1205
11576TIP3    H256220   0.956   2.953  13.656  1.0347  1.9431  2.2644
11577TIP3   OH256221   0.782   6.413  12.582 -0.1806 -0.0255 -0.3428
11577TIP3    H156222   0.798   6.481  12.517 -0.8940 -0.2823 -0.7961
11577TIP3    H256223   0.744   6.460  12.657 -0.3604  0.1283 -0.5277
11578TIP3   OH256224   4.203   2.422   4.344  0.0821 -0.4443 -0.3430
11578TIP3    H156225   4.121   2.418   4.394  0.8561  2.5172  1.4437
11578TIP3    H256226   4.257   2.353   4.382 -0.9327 -1.2251 -0.2628
11579TIP3   OH256227   4.959   2.733  13.466 -0.0061  0.2365  0.4167
11579TIP3    H156228   5.008   2.653  13.446  0.0837  1.1518 -3.8239
11579TIP3    H256229   5.024   2.803  13.458 -0.9397  1.0540 -0.2363
11580TIP3   OH256230   2.233   1.537  16.257  0.1538  0.0400 -0.2331
11580TIP3    H156231   2.298   1.575  16.316 -1.0852  2.0562 -0.0939
11580TIP3    H256232   2.164   1.504  16.315 -0.5839  1.1060 -0.4741
11581TIP3   OH256233   0.042   3.282   4.390 -0.2710  0.6041 -0.3313
11581TIP3    H156234   0.064   3.287   4.483 -0.4611  2.9684 -0.3611
11581TIP3    H256235   0.080   3.199   4.361  0.1797  0.0321  1.7405
11582TIP3   OH256236   0.963   6.380   1.233  0.5461 -0.0784 -0.1010
11582TIP3    H156237   0.935   6.328   1.308  1.2746  1.0916  1.0204
11582TIP3    H256238   0.922   6.465   1.245  1.2122  0.3421 -0.6696
11583TIP3   OH256239   5.289   2.746   3.164  0.1554 -0.0057 -0.0295
11583TIP3    H156240   5.316   2.838   3.154 -0.8833  0.6893  2.6338
11583TIP3    H256241   5.345   2.698   3.104  2.5963  2.1063  0.3711
11584TIP3   OH256242   0.055   3.843   0.397  0.2723 -0.1824 -0.3445
11584TIP3    H156243   0.036   3.906   0.327  2.9832  1.5290  0.3113
11584TIP3    H256244  -0.030   3.825   0.436 -0.7226  2.9019 -0.7719
11585TIP3   OH256245   4.020   3.485  11.723  0.0358 -0.0158 -0.7995
11585TIP3    H156246   4.012   3.532  11.805  3.3212 -2.2274  1.0218
11585TIP3    H256247   4.052   3.550  11.661  0.8456  0.9761  0.6082
11586TIP3   OH256248   3.385   1.071  14.191 -0.0447 -0.2295  0.2086
11586TIP3    H156249   3.400   1.136  14.122 -1.5219  2.0542  1.8715
11586TIP3    H256250   3.472   1.055  14.228  0.6650 -0.9964 -1.6844
11587TIP3   OH256251   3.594   5.095  15.329 -0.2387 -0.1769 -0.6459
11587TIP3    H156252   3.575   5.127  15.241 -1.6933 -1.7746 -0.9690
11587TIP3    H256253   3.614   5.002  15.317 -0.3580 -0.3913  0.6934
11588TIP3   OH256254   5.491   2.437   3.355 -0.5901  0.5155 -0.4248
11588TIP3    H156255   5.449   2.429   3.440 -1.1751  0.5585 -0.7031
11588TIP3    H256256   5.494   2.347   3.321 -1.9783  0.6889 -1.1064
11589TIP3   OH256257   3.623   6.749   2.706  0.2267  0.1897 -0.0507
11589TIP3    H156258   3.621   6.655   2.692 -1.1736  0.1288  0.4265
11589TIP3    H256259   3.580   6.785   2.628  2.4440  0.6027 -1.1772
11590TIP3   OH256260   6.043   5.084   5.816  0.1575  0.1874 -0.5349
11590TIP3    H156261   6.114   5.123   5.866 -0.1621  1.6776 -1.1836
11590TIP3    H256262   5.963   5.113   5.861 -0.0756  0.0629 -0.8629
11591TIP3   OH256263   2.825   3.576  11.984  0.0144 -0.7308 -0.0140
11591TIP3    H156264   2.900   3.564  12.041  0.9597  0.8438 -0.8589
11591TIP3    H256265   2.749   3.569  12.042  0.9680  2.5065  1.8643
11592TIP3   OH256266   3.722   2.690  14.482  0.3963  0.0128  0.2988
11592TIP3    H156267   3.728   2.777  14.522 -1.5420 -0.5732  2.0165
11592TIP3    H256268   3.673   2.705  14.401  3.0477  0.9602 -1.3034
11593TIP3   OH256269   5.017   1.496  14.498  0.1564 -0.4053  0.4841
11593TIP3    H156270   4.935   1.543  14.481  0.1921 -0.4569  0.1750
11593TIP3    H256271   5.085   1.556  14.469  0.1943 -0.7383 -0.1277
11594TIP3   OH256272   0.367   1.653   2.184  0.1624 -0.2768  0.3289
11594TIP3    H156273   0.446   1.601   2.193 -0.5932 -1.3230  1.2488
11594TIP3    H256274   0.315   1.632   2.263 -0.4778  1.3357  0.3778
11595TIP3   OH256275   5.755   5.342  16.455  0.0176  0.0968  0.6363
11595TIP3    H156276   5.831   5.301  16.414 -0.6662 -0.4380 -0.1303
11595TIP3    H256277   5.774   5.436  16.450  0.2037  0.0185 -0.4239
11596TIP3   OH256278   5.359   0.083   5.918 -0.4127 -0.5599 -0.2231
11596TIP3    H156279   5.453   0.092   5.900 -0.2026 -1.9028  0.0661
11596TIP3    H256280   5.320   0.065   5.833 -0.0565 -2.2779 -0.0764
11597TIP3   OH256281   1.700   6.219   5.600 -0.4934 -0.3005  0.5566
11597TIP3    H156282   1.703   6.241   5.507  2.0172  0.2525  0.7099
11597TIP3    H256283   1.663   6.297   5.642 -1.6596 -0.5641  0.0724
11598TIP3   OH256284   2.239   3.737   3.495  0.0648 -0.4682 -0.1488
11598TIP3    H156285   2.195   3.673   3.551  1.0985 -0.8734  0.2047
11598TIP3    H256286   2.205   3.718   3.407  0.7221 -1.8315 -0.1292
11599TIP3   OH256287   0.486   3.893  11.751  0.3333 -0.2951  0.2909
11599TIP3    H156288   0.412   3.954  11.748  0.3350 -0.1749  1.8076
11599TIP3    H256289   0.517   3.898  11.841  1.7868 -0.8437 -0.1583
11600TIP3   OH256290   1.598   5.539  15.222 -0.4809  0.0463  0.6485
11600TIP3    H156291   1.689   5.551  15.250 -0.2275 -2.4698  1.1519
11600TIP3    H256292   1.604   5.474  15.152 -1.7714  1.1214 -0.5103
11601TIP3   OH256293   0.032   1.150   6.760 -0.0747  1.1069 -0.2177
11601TIP3    H156294   0.049   1.059   6.733 -1.8387  0.7096 -0.1406
11601TIP3    H256295   0.004   1.194   6.680 -0.8731  1.1238  0.0623
11602TIP3   OH256296   1.404   3.898  16.736  0.3498 -0.2008 -0.3304
11602TIP3    H156297   1.398   3.984  16.777 -0.2542 -0.0741 -0.6646
11602TIP3    H256298   1.364   3.839  16.799  0.3462 -0.1641 -0.2987
11603TIP3   OH256299   4.115   0.031  16.161 -0.2364  0.0946 -0.0471
11603TIP3    H156300   4.103   0.054  16.253 -2.5428  0.6763 -0.4149
11603TIP3    H256301   4.036  -0.018  16.138 -0.1341  0.7204 -1.9156
11604TIP3   OH256302   0.405   0.041  16.263  0.3181  0.2088  0.1920
11604TIP3    H156303   0.351   0.013  16.337  0.2766  0.7489  0.3671
11604TIP3    H256304   0.343   0.078  16.201  0.5323  1.3586  0.6384
11605TIP3   OH256305   6.573   2.777   4.252 -0.1489 -0.6276  0.3054
11605TIP3    H156306   6.636   2.771   4.325  0.7481  0.4934 -0.3417
11605TIP3    H256307   6.543   2.868   4.254  0.4339 -0.3720 -1.1320
11606TIP3   OH256308   0.364   4.838  12.525 -0.5637 -0.1191 -0.8233
11606TIP3    H156309   0.417   4.861  12.449 -0.1826  2.6035  0.1369
11606TIP3    H256310   0.275   4.863  12.500 -0.4924  0.4558 -0.5180
11607TIP3   OH256311   3.441   6.118   6.082 -0.1706 -0.0982 -0.3843
11607TIP3    H156312   3.359   6.069   6.088 -0.4885  0.5174  0.4475
11607TIP3    H256313   3.485   6.101   6.165 -1.2222  2.6295  0.8443
11608TIP3   OH256314   5.174   0.939   3.847  0.2320 -0.1003  0.0455
11608TIP3    H156315   5.187   0.979   3.761  0.1267  1.9691  0.9459
11608TIP3    H256316   5.145   0.850   3.828  3.8173 -1.0471 -2.0912
11609TIP3   OH256317   4.225   5.280   0.175  0.5420 -0.4844 -0.0405
11609TIP3    H156318   4.162   5.238   0.233  2.5513 -1.9886  1.1890
11609TIP3    H256319   4.245   5.214   0.109  0.4221  0.1656 -0.7292
11610TIP3   OH256320   5.349   1.894   2.679 -0.5636  0.0101 -0.6480
11610TIP3    H156321   5.417   1.959   2.696  0.1337 -0.5244 -1.2803
11610TIP3    H256322   5.394   1.809   2.687 -1.2582 -0.3681 -0.6462
11611TIP3   OH256323   6.507   1.650   4.060  0.1159 -0.4609  0.1733
11611TIP3    H156324   6.463   1.708   3.998 -0.5076  1.1522  2.0144
11611TIP3    H256325   6.435   1.604   4.104  0.5411 -1.5175 -0.2233
11612TIP3   OH256326   1.852   6.355  14.918 -0.0072 -0.2718  0.2140
11612TIP3    H156327   1.927   6.414  14.926 -0.4868  0.6309 -1.3029
11612TIP3    H256328   1.883   6.283  14.863 -0.2434  0.1454 -0.4855
11613TIP3   OH256329   3.195   2.090  13.385  0.2211  0.3015  0.0071
11613TIP3    H156330   3.136   2.101  13.310  0.5902 -0.7117 -0.4611
11613TIP3    H256331   3.253   2.019  13.358 -0.6181 -1.1640  1.8808
11614TIP3   OH256332   6.686   0.159  12.068  0.1967  0.3249  0.4733
11614TIP3    H156333   6.661   0.068  12.049  1.2687  0.4549 -1.8670
11614TIP3    H256334   6.776   0.152  12.101  0.6112  0.5902 -0.5838
11615TIP3   OH256335   1.281   2.006   2.986  0.3826 -0.7214  0.1112
11615TIP3    H156336   1.232   1.946   2.930  1.0215 -1.6560  0.5208
11615TIP3    H256337   1.216   2.068   3.019 -0.2310 -0.9823 -0.5944
11616TIP3   OH256338   5.566   5.995  14.113  0.1221  0.6523  0.1093
11616TIP3    H156339   5.543   6.045  14.035 -0.5314 -2.1070 -1.6137
11616TIP3    H256340   5.487   5.996  14.167 -1.1627 -1.3312 -1.5807
11617TIP3   OH256341   6.419   3.201   4.570  0.2700 -0.0518  0.8537
11617TIP3    H156342   6.333   3.243   4.571  0.6510  0.7444  0.9090
11617TIP3    H256343   6.477   3.267   4.531  0.8993 -0.4972  1.0250
11618TIP3   OH256344   3.907   0.182   5.059 -0.1432 -0.3758  0.4416
11618TIP3    H156345   3.870   0.253   5.111  0.0600  0.5790 -0.6750
11618TIP3    H256346   3.832   0.137   5.021 -0.2500  0.9025 -0.9645
11619TIP3   OH256347   2.819   5.081  13.653  0.1495  0.4091 -0.6571
11619TIP3    H156348   2.828   4.999  13.701  0.1545  0.7724 -0.0158
11619TIP3    H256349   2.797   5.055  13.564 -0.8926 -0.2595 -0.2150
11620TIP3   OH256350   4.638   5.795   1.083 -0.3206  0.0422  0.0617
11620TIP3    H156351   4.622   5.715   1.133  0.5490  0.9485  1.8908
11620TIP3    H256352   4.733   5.794   1.066 -0.4982  0.0883 -0.9934
11621TIP3   OH256353   0.774   2.589  13.204  0.2933 -0.6441 -0.5024
11621TIP3    H156354   0.830   2.640  13.145 -0.8491  0.5961 -0.5766
11621TIP3    H256355   0.724   2.532  13.146 -0.7966  0.5421 -0.7812
11622TIP3   OH256356   1.707   6.318  17.161 -0.3564  0.2225 -0.0312
11622TIP3    H156357   1.617   6.289  17.174 -0.5708  0.8079 -0.2063
11622TIP3    H256358   1.704   6.413  17.167  0.4760  0.1966  1.3567
11623TIP3   OH256359   5.790   0.958  15.355 -0.1082  0.0476 -0.5289
11623TIP3    H156360   5.725   0.928  15.292  0.0422  0.4952 -0.9033
11623TIP3    H256361   5.874   0.933  15.317 -0.0437 -0.2608 -0.1911
11624TIP3   OH256362   3.113   2.435   5.476 -0.0612  0.4186 -0.3167
11624TIP3    H156363   3.092   2.494   5.548  2.4408  0.1775  0.6908
11624TIP3    H256364   3.174   2.485   5.421  1.0134 -0.7117 -0.1848
11625TIP3   OH256365   1.086   5.687   2.704 -0.0489 -0.6084  0.1036
11625TIP3    H156366   1.169   5.699   2.750 -0.5447  1.4398  0.5571
11625TIP3    H256367   1.022   5.670   2.773 -0.2048 -1.0496 -0.1445
11626TIP3   OH256368   1.209   2.511   3.879 -0.4070 -0.5018  0.8173
11626TIP3    H156369   1.298   2.542   3.860 -0.7979 -1.1896 -2.7082
11626TIP3    H256370   1.161   2.590   3.904  0.6536  0.2460  0.5666
11627TIP3   OH256371   2.286   6.359  16.312  0.0300 -0.3535  0.1179
11627TIP3    H156372   2.324   6.343  16.399  0.5582 -1.7699 -0.3509
11627TIP3    H256373   2.271   6.453  16.310 -0.0745 -0.2973  1.7876
11628TIP3   OH256374   4.938   4.772   1.797 -0.0581 -0.7527 -0.1335
11628TIP3    H156375   5.000   4.703   1.773  1.1229  0.2505 -0.1065
11628TIP3    H256376   4.901   4.801   1.714 -2.0420 -2.6687 -0.0156
11629TIP3   OH256377   5.414   0.264   6.508  0.2378 -0.5910  0.5146
11629TIP3    H156378   5.462   0.340   6.475 -0.4887 -0.1809  0.3809
11629TIP3    H256379   5.396   0.285   6.599 -1.8964  0.4407 -0.0657
11630TIP3   OH256380   6.288   2.991  15.263 -0.4680 -0.3596 -0.0265
11630TIP3    H156381   6.280   2.984  15.359 -0.7075 -2.0983 -0.1416
11630TIP3    H256382   6.245   2.912  15.230  0.2436 -0.1360 -1.5371
11631TIP3   OH256383   6.696   0.074   1.291 -0.3034 -0.1155 -0.2915
11631TIP3    H156384   6.708   0.132   1.366 -2.3884  0.0569 -0.0558
11631TIP3    H256385   6.783   0.071   1.250  0.8999 -0.1654  2.0414
11632TIP3   OH256386   0.062   4.450  13.788 -0.2587 -0.1177 -0.7962
11632TIP3    H156387   0.100   4.511  13.724  1.1990  0.0362  0.1847
11632TIP3    H256388  -0.005   4.403  13.738 -0.6698  1.4988 -1.8731
11633TIP3   OH256389   5.230   1.901   5.146  0.1238  0.1939  0.4093
11633TIP3    H156390   5.259   1.868   5.230  3.2456 -0.4646 -0.7862
11633TIP3    H256391   5.263   1.991   5.143  0.2490  0.1335 -0.1927
11634TIP3   OH256392   0.724   6.198   4.318  0.2643 -0.2589  0.1965
11634TIP3    H156393   0.731   6.121   4.261 -0.4747 -1.3925  1.5392
11634TIP3    H256394   0.689   6.267   4.262 -0.6856 -1.4008 -0.6711
11635TIP3   OH256395   1.772   2.887  13.380 -0.2409 -0.2527  0.3383
11635TIP3    H156396   1.690   2.891  13.330 -0.2089 -0.7134  0.2412
11635TIP3    H256397   1.839   2.868  13.314 -0.1611 -0.6023  0.5176
11636TIP3   OH256398   5.748   0.801  17.186 -0.1722  0.5096 -0.7359
11636TIP3    H156399   5.664   0.757  17.172  0.4857 -0.7491 -0.8912
11636TIP3    H256400   5.724   0.890  17.210 -1.6580 -0.4073  1.5972
11637TIP3   OH256401   6.089   3.918   4.691 -0.5736 -0.5872 -0.0094
11637TIP3    H156402   6.083   3.871   4.774 -0.7200 -0.1378  0.2389
11637TIP3    H256403   6.169   3.969   4.699 -0.7817 -0.2582  0.0106
11638TIP3   OH256404   3.345   2.132   2.423  0.1339 -0.6283 -0.1238
11638TIP3    H156405   3.352   2.059   2.486  0.4758 -1.3974 -1.0245
11638TIP3    H256406   3.297   2.095   2.349 -1.1759  0.5678  0.0959
11639TIP3   OH256407   4.912   0.211  11.507  0.6384  0.0946  0.2690
11639TIP3    H156408   4.819   0.190  11.515  0.5249  1.0666  2.1138
11639TIP3    H256409   4.937   0.242  11.595  2.9294 -1.0274  0.0771
11640TIP3   OH256410   0.521   4.358  13.811 -0.2307  0.0298 -0.5879
11640TIP3    H156411   0.462   4.344  13.737 -2.3794  2.5966  0.5011
11640TIP3    H256412   0.464   4.369  13.887  1.7550  0.3342  0.9664
11641TIP3   OH256413   6.596   1.595   5.680 -0.7263  0.0336 -0.5141
11641TIP3    H156414   6.570   1.557   5.764  1.6744  0.3329  0.4286
11641TIP3    H256415   6.614   1.687   5.700  0.5020 -0.0388 -1.1830
11642TIP3   OH256416   2.350   5.909  12.976 -0.2368 -0.1300 -0.1723
11642TIP3    H156417   2.339   5.872  13.063 -0.1387 -2.0403 -0.9144
11642TIP3    H256418   2.265   5.946  12.954 -0.9515 -1.6987 -0.1468
11643TIP3   OH256419   2.293   4.569  13.464  0.2462 -0.3650  0.2806
11643TIP3    H156420   2.224   4.516  13.424  0.9769 -0.3313 -1.0642
11643TIP3    H256421   2.257   4.658  13.466 -0.3970 -0.6309  1.1637
11644TIP3   OH256422   5.649   5.368   6.536 -0.0476  0.6809 -0.3039
11644TIP3    H156423   5.637   5.274   6.549 -1.4421  1.1251  2.3468
11644TIP3    H256424   5.743   5.382   6.551  0.4255 -0.3817 -1.9636
11645TIP3   OH256425   1.635   6.279  16.659 -0.4445  0.3734 -0.0958
11645TIP3    H156426   1.659   6.369  16.638 -0.7255  0.3546 -0.5205
11645TIP3    H256427   1.704   6.249  16.718 -0.2162  0.7880 -0.1465
11646TIP3   OH256428   2.128   2.820   3.582  0.2368 -0.1025  0.6140
11646TIP3    H156429   2.040   2.781   3.582 -0.7825  2.0807  0.9989
11646TIP3    H256430   2.130   2.875   3.504  1.5708 -0.6827  0.2062
11647TIP3   OH256431   4.253   2.831  11.548  0.2569  0.2250 -0.2244
11647TIP3    H156432   4.315   2.899  11.524  1.1401 -0.7964 -0.9781
11647TIP3    H256433   4.287   2.752  11.506 -0.8794 -0.6262  0.3869
11648TIP3   OH256434   6.562   0.775   4.808 -0.3916 -0.4082 -0.2630
11648TIP3    H156435   6.499   0.769   4.737 -0.4901 -0.3061 -0.1861
11648TIP3    H256436   6.518   0.829   4.874  0.6881  1.7963 -1.2126
11649TIP3   OH256437   4.031   1.254  14.132  0.1847 -0.2683  0.1431
11649TIP3    H156438   3.960   1.311  14.163  0.9865  0.1974  1.2127
11649TIP3    H256439   3.987   1.174  14.104 -0.9368  0.7282 -1.0863
11650TIP3   OH256440   4.870   0.302  12.142  0.3255 -0.3542  0.4234
11650TIP3    H156441   4.962   0.329  12.137  0.2184  0.0943  0.8116
11650TIP3    H256442   4.831   0.362  12.206 -0.2226 -0.5859  0.3087
11651TIP3   OH256443   0.091   5.743  16.657 -0.0582  0.0751  0.2552
11651TIP3    H156444   0.150   5.771  16.586  0.2918 -2.2586 -0.4670
11651TIP3    H256445   0.077   5.822  16.709  1.4658  1.3558 -1.1539
11652TIP3   OH256446   3.590   4.854   4.684 -0.0105 -0.2470 -0.5092
11652TIP3    H156447   3.677   4.824   4.708  0.3356  0.7111 -0.5241
11652TIP3    H256448   3.559   4.789   4.621  0.4721 -0.8873 -0.0900
11653TIP3   OH256449   0.050   4.228  11.504  0.1406  0.1050 -0.0014
11653TIP3    H156450   0.145   4.239  11.507  0.0872  1.5339 -1.8372
11653TIP3    H256451   0.016   4.297  11.561  0.1751  0.8301 -0.8409
11654TIP3   OH256452   2.685   1.001  12.416  0.3444  0.6515 -0.6287
11654TIP3    H156453   2.648   1.007  12.328  0.5404  0.6999 -0.7091
11654TIP3    H256454   2.718   1.089  12.434 -0.4700  0.8651 -0.1585
11655TIP3   OH256455   1.581   3.406   6.142  0.2186  0.4035  0.3835
11655TIP3    H156456   1.561   3.491   6.181  1.0536  0.1485  1.4065
11655TIP3    H256457   1.672   3.389   6.166  0.2065 -0.5730 -0.1992
11656TIP3   OH256458   2.502   5.459   2.714 -0.2159 -0.5258  0.7398
11656TIP3    H156459   2.420   5.461   2.764  0.3368 -2.1182  1.7884
11656TIP3    H256460   2.564   5.508   2.768  0.1229 -1.3853  1.1444
11657TIP3   OH256461   3.872   3.109   4.555 -0.4828  0.0334 -0.0714
11657TIP3    H156462   3.852   3.200   4.578  1.6708  0.5574 -0.0997
11657TIP3    H256463   3.919   3.115   4.472  1.1709 -0.9088  0.7385
11658TIP3   OH256464   0.569   2.554   5.174  0.2174  0.4999 -0.0088
11658TIP3    H156465   0.566   2.521   5.085  1.4335  0.9327 -0.2239
11658TIP3    H256466   0.642   2.616   5.175  0.9475 -0.3064  1.5420
11659TIP3   OH256467   2.875   1.327   0.490 -0.0609  0.5802 -0.6633
11659TIP3    H156468   2.855   1.357   0.579  0.1544  1.3601 -0.8793
11659TIP3    H256469   2.938   1.390   0.456 -2.4806  2.2006 -2.5290
11660TIP3   OH256470   4.060   4.797  11.882  0.5546  0.0397  0.2721
11660TIP3    H156471   4.007   4.719  11.866  0.3208  0.5821 -1.9168
11660TIP3    H256472   4.144   4.778  11.841  1.2262  0.1804  1.5231
11661TIP3   OH256473   3.758   1.056  14.524  0.3622  0.0675  0.2447
11661TIP3    H156474   3.805   0.980  14.558  0.0871  0.2288  0.9923
11661TIP3    H256475   3.666   1.027  14.520  0.0699  0.7417  1.6739
11662TIP3   OH256476   5.398   5.917   0.545  0.6180  0.5071 -0.2085
11662TIP3    H156477   5.437   5.852   0.487  0.3135  0.6268 -0.5473
11662TIP3    H256478   5.450   5.996   0.531 -0.8309  1.2042 -2.0087
11663TIP3   OH256479   2.314   2.920   2.140 -0.0120 -0.1809  0.5308
11663TIP3    H156480   2.312   3.011   2.168  2.6876  0.0718  0.0883
11663TIP3    H256481   2.252   2.876   2.199  1.0495  1.3540  2.9368
11664TIP3   OH256482   3.609   1.691  10.778 -0.2795 -0.3169 -0.5143
11664TIP3    H156483   3.573   1.768  10.822  1.0117  0.2031 -0.3229
11664TIP3    H256484   3.684   1.666  10.831 -0.4575 -1.4884 -0.7887
11665TIP3   OH256485   1.090   1.615   5.165 -0.6939 -0.1761 -0.3931
11665TIP3    H156486   1.099   1.679   5.235 -0.0887  0.2430 -0.8320
11665TIP3    H256487   1.107   1.530   5.207 -1.5554 -0.0587  0.2034
11666TIP3   OH256488   6.717   3.654   1.775 -0.1305  0.2049 -0.2580
11666TIP3    H156489   6.811   3.639   1.772 -0.3802 -1.4022 -1.6100
11666TIP3    H256490   6.680   3.589   1.715 -2.1714  0.1887  0.9049
11667TIP3   OH256491   5.139   4.273   1.973 -0.2134  0.2427  0.0339
11667TIP3    H156492   5.224   4.301   1.940 -0.1994 -0.2490 -0.3563
11667TIP3    H256493   5.077   4.295   1.903 -0.0719 -1.5349 -0.7053
11668TIP3   OH256494   6.366   4.008   5.089  0.1237  0.4401 -0.1678
11668TIP3    H156495   6.323   3.968   5.165 -0.1735  0.9586 -0.0609
11668TIP3    H256496   6.315   4.087   5.072 -0.6041 -0.3135 -1.6907
11669TIP3   OH256497   5.304   1.802  14.992 -0.0038  0.2088  0.2580
11669TIP3    H156498   5.333   1.859  15.064 -1.2774 -0.5325  1.4074
11669TIP3    H256499   5.220   1.839  14.965  1.7085  2.1995 -2.8748
11670TIP3   OH256500   3.047   2.639   1.258 -0.2761  0.3127  0.5306
11670TIP3    H156501   2.980   2.579   1.224 -0.2303 -0.2632  1.4323
11670TIP3    H256502   3.077   2.687   1.181  0.8639 -1.9839 -0.5664
11671TIP3   OH256503   0.256   0.381  11.079 -0.4205 -0.3443  0.4091
11671TIP3    H156504   0.237   0.289  11.061 -0.2414 -0.1408 -0.9182
11671TIP3    H256505   0.232   0.427  10.998  3.2738  0.2546 -0.5480
11672TIP3   OH256506   2.250   1.183  17.402 -0.1982  0.2070  0.1332
11672TIP3    H156507   2.202   1.229  17.471 -0.1179  1.2387 -0.4784
11672TIP3    H256508   2.297   1.252  17.356  0.1262 -0.5334 -0.6593
11673TIP3   OH256509   5.268   0.826  16.606  0.0562 -0.0055 -0.1505
11673TIP3    H156510   5.349   0.873  16.589 -1.3415  1.8539 -2.1661
11673TIP3    H256511   5.240   0.857  16.692  1.8301 -1.3256  0.9758
11674TIP3   OH256512   3.984   3.976   1.105 -0.3613 -0.8718 -0.5336
11674TIP3    H156513   3.989   3.965   1.010 -1.9392 -4.3295 -0.3810
11674TIP3    H256514   4.069   4.012   1.130 -0.5967  2.0700 -3.3498
11675TIP3   OH256515   3.444   2.347  17.213  0.2728  0.2886  0.3381
11675TIP3    H156516   3.494   2.285  17.160  0.9573 -0.1556  1.4704
11675TIP3    H256517   3.471   2.329  17.303 -0.9963  0.8957  0.8675
11676TIP3   OH256518   2.108   0.426   3.705  0.0376  0.0574  0.6989
11676TIP3    H156519   2.164   0.402   3.778 -0.0403  0.0769  0.7652
11676TIP3    H256520   2.123   0.358   3.640  0.5764  0.3710  0.4833
11677TIP3   OH256521   0.515   3.304   0.765  0.2791  0.4823  0.7575
11677TIP3    H156522   0.588   3.366   0.765 -0.6443  1.6265 -0.5717
11677TIP3    H256523   0.556   3.219   0.780  1.9479  1.0427 -0.3307
11678TIP3   OH256524   3.811   4.655  16.731  0.0120  0.3245  0.0128
11678TIP3    H156525   3.727   4.641  16.776 -0.2876 -0.7389 -0.8460
11678TIP3    H256526   3.830   4.748  16.746 -0.5677  0.2409  1.4722
11679TIP3   OH256527   6.297   5.935   4.515 -0.5692 -0.4575 -0.5760
11679TIP3    H156528   6.340   5.915   4.598 -1.6087 -2.2256 -0.4283
11679TIP3    H256529   6.261   6.023   4.528  0.6610 -0.0345  0.2318
11680TIP3   OH256530   2.396   5.369   1.792  1.0153 -0.0213  0.1657
11680TIP3    H156531   2.413   5.313   1.867  1.9141 -0.1493 -0.1200
11680TIP3    H256532   2.369   5.452   1.829  1.1653 -0.1736  0.6191
11681TIP3   OH256533   4.259   5.050   2.055 -0.1901 -0.2067  0.0695
11681TIP3    H156534   4.320   5.106   2.104 -0.7941 -0.0884  0.6975
11681TIP3    H256535   4.175   5.060   2.100 -0.2322 -1.9193  0.4265
11682TIP3   OH256536   3.554   5.640   2.508  0.6676 -0.1018  0.6421
11682TIP3    H156537   3.530   5.584   2.582 -2.1336  0.0651 -0.0255
11682TIP3    H256538   3.547   5.584   2.431  2.1053  0.1022  0.3358
11683TIP3   OH256539   3.749   2.320   5.848  0.1807  0.2461 -0.5531
11683TIP3    H156540   3.838   2.353   5.837  0.4920 -0.1567  0.6110
11683TIP3    H256541   3.727   2.282   5.763 -0.4196  3.8436 -2.2014
11684TIP3   OH256542   1.063   0.237  12.783 -0.1878  0.4826 -0.2759
11684TIP3    H156543   1.105   0.166  12.735 -0.6892  0.3951 -0.5915
11684TIP3    H256544   1.078   0.315  12.730  0.8658  0.7329  0.3572
11685TIP3   OH256545   5.501   6.530  15.520 -0.2835 -0.3045  0.2644
11685TIP3    H156546   5.489   6.571  15.606  0.6425  1.8979 -0.5688
11685TIP3    H256547   5.580   6.477  15.529 -0.1204  0.0142  0.7459
11686TIP3   OH256548   2.750   1.457  11.840 -0.5254 -0.3902  0.1651
11686TIP3    H156549   2.821   1.519  11.822 -0.5820  0.1910  1.7928
11686TIP3    H256550   2.671   1.502  11.811 -0.3399 -0.7314 -0.9393
11687TIP3   OH256551   4.818   0.157  10.972  0.3468 -0.5389 -0.2637
11687TIP3    H156552   4.874   0.148  11.049 -1.5636 -1.0079  1.1491
11687TIP3    H256553   4.737   0.196  11.005 -0.9952 -1.8654 -1.7913
11688TIP3   OH256554   1.430   5.728   0.960 -0.2903  0.1240 -0.2459
11688TIP3    H156555   1.435   5.821   0.940 -1.5077 -0.0653 -1.6659
11688TIP3    H256556   1.340   5.714   0.989 -0.4072 -0.7438 -0.9593
11689TIP3   OH256557   5.026   6.679  11.847 -0.7635  0.0462 -0.5143
11689TIP3    H156558   5.006   6.699  11.756 -0.2386  1.4366 -0.3540
11689TIP3    H256559   4.965   6.609  11.871  0.0071 -1.3222 -2.3086
11690TIP3   OH256560   0.616   5.832   3.151  0.1819  0.2999  0.5997
11690TIP3    H156561   0.666   5.913   3.155  0.8523 -0.0947  0.2687
11690TIP3    H256562   0.625   5.802   3.060  1.0961 -0.8630  1.0465
11691TIP3   OH256563   5.880   5.573   6.793  0.1001  0.0054 -0.5358
11691TIP3    H156564   5.942   5.646   6.792 -1.3863  1.4335  1.7419
11691TIP3    H256565   5.801   5.609   6.753 -0.7485 -0.2225  0.8688
11692TIP3   OH256566   5.287   4.368  12.135  0.6153  0.2087  0.1025
11692TIP3    H156567   5.247   4.439  12.084  0.4879  1.1961  1.4813
11692TIP3    H256568   5.249   4.288  12.100 -0.7642  0.9661 -0.2113
11693TIP3   OH256569   0.250   6.017  15.302  0.2966 -0.1954  0.0393
11693TIP3    H156570   0.166   5.972  15.299 -0.9971  2.0937 -0.8332
11693TIP3    H256571   0.241   6.080  15.373  1.2597  0.1308 -0.1044
11694TIP3   OH256572   2.950   0.434  16.593 -0.0431  0.6571  0.2225
11694TIP3    H156573   2.996   0.482  16.524  1.2058 -0.9031 -0.0905
11694TIP3    H256574   2.876   0.392  16.548  0.3359  0.2488 -0.0268
11695TIP3   OH256575   4.526   1.377  16.253  0.6300 -0.0840  0.2958
11695TIP3    H156576   4.439   1.389  16.291  1.1560  1.4777  1.0933
11695TIP3    H256577   4.509   1.358  16.161 -0.5662 -0.3615  0.5503
11696TIP3   OH256578   5.932   2.543  12.678  0.1368  0.6383 -0.0789
11696TIP3    H156579   5.844   2.515  12.703 -0.0912  0.1575 -1.3253
11696TIP3    H256580   5.938   2.634  12.707 -0.6443  0.5650  0.3213
11697TIP3   OH256581   2.781   1.712  16.417 -0.3844  0.1344 -0.1904
11697TIP3    H156582   2.762   1.742  16.328  2.2698  0.2100 -0.8253
11697TIP3    H256583   2.828   1.785  16.457  1.2761 -1.0396  0.1318
11698TIP3   OH256584   1.370   3.520  12.829 -0.2121 -0.2303 -0.0134
11698TIP3    H156585   1.376   3.540  12.736 -1.5941 -0.2994 -0.1377
11698TIP3    H256586   1.306   3.583  12.863 -1.3686 -1.6063  0.4431
11699TIP3   OH256587   6.123   6.508  12.980 -0.1481  0.0619 -0.2245
11699TIP3    H156588   6.050   6.570  12.977 -1.1965 -1.1178  0.1069
11699TIP3    H256589   6.089   6.429  12.937  1.5323  0.0673 -1.6427
11700TIP3   OH256590   2.254   1.675  11.525  0.5626 -0.0113  0.4421
11700TIP3    H156591   2.247   1.604  11.461 -2.1041  1.4862 -1.0701
11700TIP3    H256592   2.314   1.738  11.485 -2.8022  1.9957 -1.8994
11701TIP3   OH256593   5.198   2.824  13.695 -0.6279  0.1023 -0.4710
11701TIP3    H156594   5.105   2.824  13.715 -0.5116 -0.9609  0.1252
11701TIP3    H256595   5.220   2.733  13.676  0.2693  0.3512 -0.7214
11702TIP3   OH256596   6.135   2.744  11.276 -0.4348 -0.5209  0.0752
11702TIP3    H156597   6.213   2.731  11.330 -0.0689  0.3466 -0.2270
11702TIP3    H256598   6.093   2.823  11.312  0.2017  0.5040 -1.3164
11703TIP3   OH256599   0.952   0.271   5.412  0.1848  0.4364 -0.1798
11703TIP3    H156600   0.966   0.190   5.362  0.4440 -2.1329  3.6436
11703TIP3    H256601   1.024   0.272   5.476 -1.1081  2.4625  1.3606
11704TIP3   OH256602   1.012   2.787   0.863  0.0644  0.2731  0.4493
11704TIP3    H156603   0.995   2.869   0.817  1.8263  0.7169  0.5167
11704TIP3    H256604   1.093   2.754   0.824 -0.0529 -0.8933  1.1546
11705TIP3   OH256605   5.504   4.987  17.508 -0.2019 -0.1773  0.0126
11705TIP3    H156606   5.415   4.957  17.490  0.0494 -0.3791 -0.9809
11705TIP3    H256607   5.536   5.019  17.423  0.6132  0.0344  0.3922
11706TIP3   OH256608   3.058   1.124   4.766 -0.4573  0.4591  0.2813
11706TIP3    H156609   3.021   1.197   4.717  0.4617  0.3253 -0.6447
11706TIP3    H256610   3.127   1.164   4.820  0.4076  0.2134 -0.6246
11707TIP3   OH256611   4.159   3.671  17.061 -0.3908 -0.0776 -0.5267
11707TIP3    H156612   4.155   3.685  17.155 -0.9003  0.5953 -0.6437
11707TIP3    H256613   4.161   3.576  17.051  0.0570 -0.1500  0.1734
11708TIP3   OH256614   2.411   0.671  13.290 -0.6722  0.1643 -0.2789
11708TIP3    H156615   2.458   0.625  13.220 -1.7602  0.5767 -1.3181
11708TIP3    H256616   2.324   0.630  13.291 -0.7308  0.2919  0.7188
11709TIP3   OH256617   3.307   3.680  13.863  0.5322  0.1761  0.6609
11709TIP3    H156618   3.234   3.693  13.923 -0.7818 -1.5162 -0.4821
11709TIP3    H256619   3.371   3.747  13.888 -2.7055  4.1341 -0.4308
11710TIP3   OH256620   4.828   1.045  14.785  0.6248 -0.1598  0.9067
11710TIP3    H156621   4.875   1.013  14.863 -0.3790 -1.0314  1.1858
11710TIP3    H256622   4.885   1.113  14.749  1.1514  0.2168  2.3646
11711TIP3   OH256623   6.072   6.317  11.904 -0.5076 -0.2795  0.4983
11711TIP3    H156624   5.996   6.375  11.904 -1.8644 -1.9512 -0.1866
11711TIP3    H256625   6.051   6.250  11.969  0.7263 -0.3759  0.8251
11712TIP3   OH256626   3.640   1.186   2.230 -0.2260  0.7006  0.0767
11712TIP3    H156627   3.602   1.148   2.150 -0.3639 -0.7082  0.7814
11712TIP3    H256628   3.733   1.164   2.225 -0.3384  0.0653  0.5769
11713TIP3   OH256629   0.954   5.822   2.518  0.4739  0.4098 -0.0657
11713TIP3    H156630   0.909   5.759   2.462  0.7319 -0.3026  0.5030
11713TIP3    H256631   0.985   5.770   2.593  1.5628  1.0202 -0.0632
11714TIP3   OH256632   0.828   4.588  11.978 -0.4185  0.4583 -0.3323
11714TIP3    H156633   0.876   4.519  11.933 -0.7321 -0.2853  0.4675
11714TIP3    H256634   0.739   4.554  11.989 -0.8035  1.3124 -0.6514
11715TIP3   OH256635   1.259   1.823  13.953 -0.0576 -0.2976  0.0399
11715TIP3    H156636   1.348   1.789  13.946  0.2012  0.4906 -0.6698
11715TIP3    H256637   1.248   1.843  14.046  0.2931 -0.9474  0.2265
11716TIP3   OH256638   2.259   0.928   3.444 -0.0943  0.1036 -0.1791
11716TIP3    H156639   2.252   0.875   3.364 -0.1342  0.5353 -0.4674
11716TIP3    H256640   2.176   0.976   3.449 -0.0964  0.0701  0.1288
11717TIP3   OH256641   4.168   2.285   1.341  0.5770 -0.1329 -0.0768
11717TIP3    H156642   4.249   2.236   1.341  0.8288  0.1065  2.6091
11717TIP3    H256643   4.193   2.374   1.367 -0.2375  0.6827 -1.8898
11718TIP3   OH256644   6.015   4.392   6.278  0.5971  0.0339 -0.9418
11718TIP3    H156645   5.922   4.397   6.255  0.1198 -2.1558  0.1624
11718TIP3    H256646   6.024   4.446   6.356 -0.5523 -2.2065  0.8734
11719TIP3   OH256647   6.342   0.233   3.385  0.5101  0.2365 -0.1479
11719TIP3    H156648   6.402   0.165   3.415  0.9748 -0.0647 -1.6954
11719TIP3    H256649   6.282   0.189   3.325 -0.5237  0.7818  0.4462
11720TIP3   OH256650   1.401   5.442   5.768  0.0180  0.5480  0.1727
11720TIP3    H156651   1.402   5.504   5.695 -2.6701  1.7667  1.0223
11720TIP3    H256652   1.492   5.437   5.797  0.7960  1.7253 -1.8364
11721TIP3   OH256653   5.568   0.249   3.934  0.0528 -0.3392 -0.2179
11721TIP3    H156654   5.550   0.309   4.007 -0.2457  0.5279 -0.9973
11721TIP3    H256655   5.598   0.305   3.863  2.2507 -1.3734 -0.1676
11722TIP3   OH256656   4.692   1.938   6.094  0.1913  0.1701  0.6619
11722TIP3    H156657   4.787   1.929   6.102  0.2813 -0.0247 -0.4069
11722TIP3    H256658   4.656   1.885   6.165  0.8783 -0.0542  0.8427
11723TIP3   OH256659   6.662   4.222   2.623 -0.4336 -0.2276  0.5712
11723TIP3    H156660   6.711   4.303   2.637 -0.9867  0.2748 -0.2620
11723TIP3    H256661   6.727   4.153   2.631  0.3944  0.4117 -0.3213
11724TIP3   OH256662   3.492   0.612   1.686  0.4773  0.4145  0.1324
11724TIP3    H156663   3.451   0.555   1.621 -0.7946  1.6086 -0.1702
11724TIP3    H256664   3.556   0.557   1.730 -0.8238 -1.2989 -0.0121
11725TIP3   OH256665   5.959   6.530  15.260  0.4108  0.1355 -0.1537
11725TIP3    H156666   6.038   6.484  15.231  1.9923  0.5237  3.1192
11725TIP3    H256667   5.990   6.596  15.321 -2.4543  0.4128  1.1858
11726TIP3   OH256668   0.758   1.796  11.189  0.1579  0.3023  0.3167
11726TIP3    H156669   0.791   1.858  11.124  1.1513 -1.0087 -0.4710
11726TIP3    H256670   0.836   1.762  11.232 -0.3049 -0.9060  0.2417
11727TIP3   OH256671   2.098   2.277   0.882 -0.3777 -0.0940  0.1803
11727TIP3    H156672   2.151   2.198   0.870 -0.6771 -0.2441 -0.1712
11727TIP3    H256673   2.113   2.329   0.803  0.5668  0.6485  0.8345
11728TIP3   OH256674   6.377   4.815  11.666 -0.5414  0.3274  0.3163
11728TIP3    H156675   6.443   4.871  11.625  0.6314 -1.0985  0.1534
11728TIP3    H256676   6.349   4.756  11.597 -1.1833  0.2098  0.6701
11729TIP3   OH256677   2.527   6.627  13.305  0.4364 -0.1151 -0.4281
11729TIP3    H156678   2.574   6.553  13.267  1.0655  0.0255  0.0607
11729TIP3    H256679   2.475   6.662  13.233 -2.2573 -2.8601 -0.0145
11730TIP3   OH256680   6.348   3.806  12.850  0.3957  0.0880  0.0941
11730TIP3    H156681   6.320   3.806  12.758  2.6757  0.0350 -0.6438
11730TIP3    H256682   6.274   3.844  12.897 -0.0184  2.1064 -2.0281
11731TIP3   OH256683   5.506   5.811  11.401 -0.7648 -0.5940 -0.1008
11731TIP3    H156684   5.457   5.875  11.453 -2.5878 -1.5227 -0.5929
11731TIP3    H256685   5.595   5.846  11.398 -1.1907  0.7563  1.5180
11732TIP3   OH256686   5.477   4.785   2.072  0.1681 -0.2218 -1.1633
11732TIP3    H156687   5.475   4.843   2.148 -0.5968 -0.8895 -0.6540
11732TIP3    H256688   5.555   4.811   2.023  0.3132  0.6416 -0.4832
11733TIP3   OH256689   4.684   1.296  11.296  0.0904 -0.0471  0.3737
11733TIP3    H156690   4.705   1.374  11.244  0.7180 -0.6971 -0.3639
11733TIP3    H256691   4.594   1.276  11.273  0.1192  0.1151  0.1123
11734TIP3   OH256692   4.862   2.439  13.657 -0.5351 -0.0391  0.2689
11734TIP3    H156693   4.787   2.497  13.665 -0.1382  0.6743 -0.9204
11734TIP3    H256694   4.895   2.454  13.568 -0.3976 -2.0604 -0.0802
11735TIP3   OH256695   1.165   0.833   4.875  0.3717  0.1102  0.3991
11735TIP3    H156696   1.191   0.746   4.844 -0.1033  0.0383  0.1934
11735TIP3    H256697   1.201   0.893   4.810  1.9953  0.2007  1.3169
11736TIP3   OH256698   0.971   4.492   4.216 -0.6092 -0.1368 -0.5396
11736TIP3    H156699   0.904   4.505   4.149 -2.2304 -0.1247  1.0065
11736TIP3    H256700   0.926   4.511   4.299  0.9033 -1.5957  0.6803
11737TIP3   OH256701   2.854   3.774   3.863 -0.3968 -0.3275  0.3097
11737TIP3    H156702   2.764   3.804   3.851 -0.5189 -1.0644 -0.8202
11737TIP3    H256703   2.861   3.754   3.956 -1.5057 -0.5951  0.3472
11738TIP3   OH256704   2.978   1.027   0.367  0.0926 -0.1436 -0.3911
11738TIP3    H156705   3.057   1.026   0.314  0.5353 -0.9066  0.2643
11738TIP3    H256706   2.968   1.118   0.395  0.5800  0.0075 -0.7109
11739TIP3   OH256707   6.379   4.855   2.389 -0.4791  0.1122  0.0510
11739TIP3    H156708   6.419   4.867   2.476  0.5264 -0.4733 -0.3145
11739TIP3    H256709   6.343   4.941   2.367  2.1758  1.2090 -0.3797
11740TIP3   OH256710   3.380   4.352   2.807 -0.3703 -1.2261  0.1580
11740TIP3    H156711   3.463   4.317   2.839 -0.0977 -0.4429  0.3285
11740TIP3    H256712   3.405   4.410   2.734 -0.8400 -1.6498 -0.3469
11741TIP3   OH256713   0.516   3.241   2.381  0.4007  0.1496  0.4187
11741TIP3    H156714   0.506   3.295   2.458 -1.0819  0.9084 -0.2734
11741TIP3    H256715   0.601   3.198   2.392  1.0714  1.7069  1.5322
11742TIP3   OH256716   1.036   3.210  13.465 -0.3334  0.5440  0.2138
11742TIP3    H156717   1.126   3.243  13.475  0.1014 -0.3375 -0.5663
11742TIP3    H256718   0.998   3.266  13.398  0.1003  0.0710 -0.4451
11743TIP3   OH256719   4.662   5.493  15.831 -0.9940 -0.2335  0.0415
11743TIP3    H156720   4.665   5.470  15.924  1.4488 -1.8631 -0.3322
11743TIP3    H256721   4.582   5.451  15.799 -1.2937 -0.6049  1.2043
11744TIP3   OH256722   0.790   2.953  11.583 -0.4157  0.1325 -0.5553
11744TIP3    H156723   0.786   2.975  11.490  0.8973  2.0191 -0.2242
11744TIP3    H256724   0.823   2.863  11.585 -0.0811  0.2090 -1.9225
11745TIP3   OH256725   4.299   6.120  16.409 -0.0946  0.6243 -0.0193
11745TIP3    H156726   4.387   6.157  16.415  0.4362 -0.3828 -1.1944
11745TIP3    H256727   4.273   6.104  16.500  1.0799  0.6001  0.3249
11746TIP3   OH256728   3.695   6.584   4.122 -0.0296  1.2600  0.1683
11746TIP3    H156729   3.722   6.493   4.139  0.1363  1.4431  0.8969
11746TIP3    H256730   3.741   6.635   4.188 -0.8265  1.7821  0.3281
11747TIP3   OH256731   0.068   4.672   0.465 -0.1250 -0.1699  0.3162
11747TIP3    H156732  -0.010   4.688   0.517  0.3817  0.6125  0.8694
11747TIP3    H256733   0.108   4.759   0.455 -0.3163 -0.2487 -1.5676
11748TIP3   OH256734   4.611   1.547  13.885  1.0495  0.2607 -0.3523
11748TIP3    H156735   4.620   1.641  13.868 -0.3295  0.4916  0.0887
11748TIP3    H256736   4.686   1.508  13.840  1.0977  1.4748 -1.3951
11749TIP3   OH256737   6.244   1.982   2.868  0.1441  0.0546 -0.2312
11749TIP3    H156738   6.227   1.891   2.844  0.5324 -0.1271  0.1675
11749TIP3    H256739   6.188   2.033   2.809  1.8646 -0.3048 -2.3523
11750TIP3   OH256740   2.862   5.255  17.127  0.1769  0.1821  0.3364
11750TIP3    H156741   2.927   5.299  17.072  1.1715 -0.2093  1.1757
11750TIP3    H256742   2.789   5.236  17.067 -0.9960  4.2265  0.1635
11751TIP3   OH256743   6.732   3.892   1.638 -0.4009  0.6027 -0.4602
11751TIP3    H156744   6.741   3.810   1.688 -3.6355  1.3335  1.5962
11751TIP3    H256745   6.713   3.863   1.549 -0.0590 -0.8673 -0.0850
11752TIP3   OH256746   5.739   2.146   1.604 -0.1722 -0.1273 -0.3197
11752TIP3    H156747   5.787   2.063   1.601 -0.7428 -0.4969  0.2455
11752TIP3    H256748   5.656   2.123   1.647 -1.3738  0.2398 -2.3436
11753TIP3   OH256749   1.070   3.547   0.352  0.2195  0.2218 -0.3239
11753TIP3    H156750   1.136   3.613   0.332  0.4242  1.1409  2.9549
11753TIP3    H256751   0.986   3.593   0.345  0.0656 -0.2215 -1.7324
11754TIP3   OH256752   6.449   1.207  11.349  0.0528 -0.7320 -0.1591
11754TIP3    H156753   6.471   1.229  11.440  2.2863 -1.7628 -0.3760
11754TIP3    H256754   6.522   1.242  11.298 -0.2412 -1.7874 -1.3376
11755TIP3   OH256755   0.034   6.384   6.055 -0.0059  0.2239 -0.1438
11755TIP3    H156756  -0.018   6.383   5.975  0.2956 -1.0274 -0.3473
11755TIP3    H256757  -0.020   6.339   6.119 -0.2348  1.1990  0.3588
11756TIP3   OH256758   4.870   2.060  11.636 -0.4148 -0.0308  0.0360
11756TIP3    H156759   4.871   2.128  11.703  5.3708 -0.7116  1.1186
11756TIP3    H256760   4.929   2.091  11.567 -1.2282 -2.0359 -1.7035
11757TIP3   OH256761   1.069   0.038   3.969  0.0585 -0.8049 -0.0560
11757TIP3    H156762   1.107  -0.045   3.998  1.9040 -0.5679 -1.5730
11757TIP3    H256763   1.097   0.102   4.034 -1.6104 -1.3514  1.2763
11758TIP3   OH256764   1.472   2.923  17.362  0.6847  0.6423  0.5585
11758TIP3    H156765   1.527   2.870  17.305  1.3953  0.7599  1.1209
11758TIP3    H256766   1.410   2.861  17.401  2.5914 -0.1519  2.5303
11759TIP3   OH256767   5.023   5.944  11.944  0.4590 -0.2666  0.4879
11759TIP3    H156768   5.094   5.982  11.995 -0.3111 -0.5017  1.7960
11759TIP3    H256769   5.027   5.850  11.964 -0.5875 -0.2014  1.1045
11760TIP3   OH256770   6.656   0.154  15.107 -0.8188 -0.3945  0.8129
11760TIP3    H156771   6.707   0.235  15.101 -2.1593  0.4355  0.0374
11760TIP3    H256772   6.612   0.147  15.022 -0.3852 -2.2076  0.6855
11761TIP3   OH256773   0.499   1.503   5.864 -0.0434  0.3540  0.1211
11761TIP3    H156774   0.501   1.508   5.769 -0.7829 -1.6567 -0.0451
11761TIP3    H256775   0.591   1.501   5.891  0.1700  1.2055 -0.5078
11762TIP3   OH256776   3.490   0.921   4.548  0.3438 -0.5352 -0.3122
11762TIP3    H156777   3.552   0.966   4.606  0.5934 -0.5486 -0.5672
11762TIP3    H256778   3.532   0.838   4.528 -0.4524 -1.2270  0.7787
11763TIP3   OH256779   4.248   4.261  13.284 -0.0608  0.4369  0.2344
11763TIP3    H156780   4.297   4.184  13.254 -1.1210 -0.0700 -0.2231
11763TIP3    H256781   4.308   4.334  13.268 -0.2642  0.1176 -2.4794
11764TIP3   OH256782   6.157   2.622  14.016  0.0427  0.0807 -0.2660
11764TIP3    H156783   6.238   2.627  14.067 -0.2158  0.5611  0.1082
11764TIP3    H256784   6.160   2.699  13.958  1.0167 -1.2159 -2.0423
11765TIP3   OH256785   0.761   1.953  14.816 -0.3465 -0.5068 -0.6226
11765TIP3    H156786   0.759   1.915  14.904  1.4287 -0.9521 -0.7246
11765TIP3    H256787   0.710   1.893  14.762  0.5240 -1.5311 -0.3324
11766TIP3   OH256788   6.233   3.060   1.249  0.2164  0.2915  0.2920
11766TIP3    H156789   6.219   3.142   1.296 -2.6308 -0.0213  0.1830
11766TIP3    H256790   6.217   3.082   1.157  1.8344  0.0767 -0.0639
11767TIP3   OH256791   0.142   0.892   1.737  0.2773  0.1700  0.2597
11767TIP3    H156792   0.182   0.956   1.795  1.2646 -0.7213  0.6068
11767TIP3    H256793   0.144   0.933   1.651  0.7934  0.6482  0.4913
11768TIP3   OH256794   2.444   3.610   0.078  0.1876 -0.4569  0.0640
11768TIP3    H156795   2.390   3.636   0.003 -0.4938 -1.7525  0.0967
11768TIP3    H256796   2.532   3.603   0.041 -0.1841 -1.3408 -0.6864
11769TIP3   OH256797   6.100   3.903   2.924 -0.2937 -0.2517  0.2695
11769TIP3    H156798   6.128   3.907   3.016  2.3114  0.9868 -0.4973
11769TIP3    H256799   6.098   3.810   2.904  1.4092 -0.4909  0.9937
11770TIP3   OH256800   1.156   0.655   4.489  0.6290 -0.3847  0.1226
11770TIP3    H156801   1.063   0.665   4.510  0.7994 -1.1243  1.3360
11770TIP3    H256802   1.177   0.733   4.437 -0.7170 -0.3283 -0.3740
11771TIP3   OH256803   0.652   4.845   2.942 -0.9109 -0.3312 -0.4276
11771TIP3    H156804   0.695   4.830   2.858 -1.3856  1.2803 -0.9800
11771TIP3    H256805   0.723   4.866   3.002 -0.7157  0.0330 -0.7843
11772TIP3   OH256806   3.008   1.392  14.428  0.3316  0.8662 -0.9100
11772TIP3    H156807   3.008   1.299  14.451  0.3816  1.0863 -0.0084
11772TIP3    H256808   2.926   1.425  14.464  0.6624  1.3319 -0.5863
11773TIP3   OH256809   1.088   1.076   5.656  0.5414 -0.0127  0.2837
11773TIP3    H156810   1.140   1.096   5.579  0.7425  2.3071  0.9552
11773TIP3    H256811   1.153   1.050   5.722  0.4539 -1.0240 -0.0095
11774TIP3   OH256812   1.075   1.613   4.254  0.2233 -0.0546  0.2559
11774TIP3    H156813   1.072   1.537   4.197  1.2988 -1.3211  1.8015
11774TIP3    H256814   1.114   1.682   4.200 -0.2784 -0.7161 -1.0056
11775TIP3   OH256815   2.865   3.268   6.496  0.0752  0.8298 -0.4308
11775TIP3    H156816   2.939   3.328   6.497 -0.4686  1.5198 -0.7785
11775TIP3    H256817   2.791   3.321   6.465 -0.6216  0.2270  0.1581
11776TIP3   OH256818   5.641   4.637  16.638 -0.1906  0.4397  0.2544
11776TIP3    H156819   5.561   4.591  16.613 -0.4287  1.2435 -0.5124
11776TIP3    H256820   5.618   4.730  16.635  0.2388  0.6297  1.9368
11777TIP3   OH256821   5.915   0.966   5.160 -0.1522 -0.7950  0.2423
11777TIP3    H156822   5.991   1.001   5.114 -1.1821 -0.4851 -1.3173
11777TIP3    H256823   5.943   0.960   5.251  1.5463 -0.1770 -0.1918
11778TIP3   OH256824   6.601   4.079   5.218  0.4331  0.0457 -0.1586
11778TIP3    H156825   6.614   4.030   5.299 -0.7274  0.7294  0.4609
11778TIP3    H256826   6.528   4.034   5.174 -2.7072  2.8026  1.8153
11779TIP3   OH256827   0.946   4.065   4.579 -0.3391  0.6223 -0.1302
11779TIP3    H156828   0.908   4.110   4.504 -0.3392  1.3230  0.2791
11779TIP3    H256829   1.016   4.123   4.609 -0.4243  0.4201  0.4859
11780TIP3   OH256830   1.826   6.079   0.925  0.5926  0.3524  0.5940
11780TIP3    H156831   1.899   6.098   0.983  1.0589  0.6793 -0.0917
11780TIP3    H256832   1.784   6.002   0.965 -0.1086  1.5485  2.2706
11781TIP3   OH256833   3.486   3.375  16.081 -0.0329  0.3768 -0.7254
11781TIP3    H156834   3.498   3.395  15.988  1.7795  0.4273 -0.5201
11781TIP3    H256835   3.556   3.422  16.125 -2.0748  2.0313  0.9437
11782TIP3   OH256836   5.520   4.732  11.582 -0.3634 -0.3372 -0.3135
11782TIP3    H156837   5.549   4.748  11.492  0.8709 -0.9287 -0.0508
11782TIP3    H256838   5.447   4.671  11.574 -0.5901  0.0046 -0.9308
11783TIP3   OH256839   1.650   0.221  14.454 -0.0429 -0.1268 -0.2704
11783TIP3    H156840   1.636   0.183  14.541  0.3967  1.9510  0.7747
11783TIP3    H256841   1.591   0.172  14.397 -2.6683  0.4218  1.7559
11784TIP3   OH256842   1.236   1.804   4.854 -0.1336 -0.0115  1.0679
11784TIP3    H156843   1.173   1.851   4.909  0.5773  0.7842  1.2085
11784TIP3    H256844   1.274   1.871   4.797  1.7035 -0.1847  2.0368
11785TIP3   OH256845   6.620   0.859  12.312  0.4800  0.7380 -0.8401
11785TIP3    H156846   6.603   0.933  12.371 -0.8799  1.0477 -1.5843
11785TIP3    H256847   6.570   0.879  12.233  0.3310 -0.8444 -1.1822
11786TIP3   OH256848   2.189   1.283  13.802 -0.3068  0.9692  0.0857
11786TIP3    H156849   2.271   1.247  13.833 -0.0753  0.7306 -0.7763
11786TIP3    H256850   2.213   1.369  13.766 -0.6274  1.3984  0.8860
11787TIP3   OH256851   3.870   6.432  12.111 -0.0796  0.0147  0.3287
11787TIP3    H156852   3.901   6.391  12.029  0.2309  0.8227  0.0352
11787TIP3    H256853   3.774   6.428  12.105 -0.0719  0.6654 -0.3934
11788TIP3   OH256854   0.639   2.097   5.402  0.2218 -1.2296 -0.6396
11788TIP3    H156855   0.626   2.164   5.335 -0.6185 -1.1117 -0.3709
11788TIP3    H256856   0.551   2.060   5.416  0.5139 -1.7371 -0.1084
11789TIP3   OH256857   0.146   2.932   2.442 -0.1717  0.0591  0.0065
11789TIP3    H156858   0.215   2.962   2.382  0.2776 -1.3551 -0.2182
11789TIP3    H256859   0.099   3.012   2.466  2.2805  1.2711  1.1222
11790TIP3   OH256860   3.484   1.991  11.442  0.4115  0.4788  0.1169
11790TIP3    H156861   3.453   2.076  11.471 -0.3912  0.0930  0.4254
11790TIP3    H256862   3.537   1.958  11.514  0.7050  0.7042  0.0058
11791TIP3   OH256863   2.538   4.755  14.277 -0.2879  0.0245  0.2455
11791TIP3    H156864   2.481   4.828  14.301 -1.7071 -0.8271 -0.4071
11791TIP3    H256865   2.581   4.783  14.196 -0.0218  0.5543  0.5704
11792TIP3   OH256866   6.045   1.921  17.432 -0.0002  0.4468 -0.4103
11792TIP3    H156867   6.050   1.840  17.483  0.1431 -0.3419 -1.6295
11792TIP3    H256868   6.123   1.971  17.458  0.4536 -0.2642 -0.3631
11793TIP3   OH256869   5.537   5.736  14.539  0.3313 -0.0450 -0.4816
11793TIP3    H156870   5.512   5.701  14.453 -1.5449 -2.8416  1.0795
11793TIP3    H256871   5.455   5.743  14.587  1.5389 -0.6344  1.7917
11794TIP3   OH256872   3.140   4.825   0.166  0.2520  0.1290  0.3873
11794TIP3    H156873   3.045   4.830   0.156  0.3212  0.6687 -0.0835
11794TIP3    H256874   3.169   4.916   0.156  0.7157  0.1514  1.6702
11795TIP3   OH256875   3.571   0.033   4.044  0.1809  0.2070  0.3605
11795TIP3    H156876   3.619  -0.049   4.055 -1.4065 -0.7243  0.6286
11795TIP3    H256877   3.559   0.041   3.949  0.4080  0.1898  0.3282
11796TIP3   OH256878   1.348   2.778  11.424  0.6633 -0.3485 -0.5219
11796TIP3    H156879   1.287   2.852  11.426  0.0974 -0.7723 -1.4621
11796TIP3    H256880   1.312   2.716  11.487 -0.5250 -1.0708 -1.8641
11797TIP3   OH256881   0.476   2.673   2.448 -0.1248 -0.4993 -0.5178
11797TIP3    H156882   0.525   2.747   2.485 -1.0465 -0.6040  1.0002
11797TIP3    H256883   0.448   2.703   2.362  1.7837 -0.0933 -1.0467
11798TIP3   OH256884   1.926   0.696   5.461 -0.0012  0.8353  0.1666
11798TIP3    H156885   1.959   0.676   5.548  3.3730  1.5543 -0.7771
11798TIP3    H256886   1.900   0.611   5.424 -2.5451  0.6454  2.1262
11799TIP3   OH256887   5.437   6.546  13.905 -0.3471 -0.7246 -0.3731
11799TIP3    H156888   5.474   6.530  13.818  0.9085  0.8546 -0.1758
11799TIP3    H256889   5.513   6.547  13.963 -0.2087  4.3314 -0.1777
11800TIP3   OH256890   6.574   1.212   5.594 -0.1149 -0.0083 -0.1696
11800TIP3    H156891   6.642   1.170   5.646 -0.2547  1.9580  1.7490
11800TIP3    H256892   6.620   1.243   5.515  1.5293  2.0147  1.4503
11801TIP3   OH256893   6.642   2.131  12.887  0.1586 -0.1010  0.3079
11801TIP3    H156894   6.651   2.199  12.821  0.6314 -0.1044  0.3645
11801TIP3    H256895   6.549   2.107  12.885 -0.5494  2.2181  1.9340
11802TIP3   OH256896   4.652   4.358  16.955  0.9287 -0.1185 -0.5781
11802TIP3    H156897   4.571   4.396  16.922  0.2775  0.0555  1.1450
11802TIP3    H256898   4.705   4.344  16.876 -1.0943 -1.0976 -1.8509
11803TIP3   OH256899   6.306   1.913   3.722  0.5075 -0.2667 -0.2432
11803TIP3    H156900   6.212   1.933   3.722  0.4737 -0.1840  1.7994
11803TIP3    H256901   6.347   1.993   3.692 -0.0456 -0.0724 -0.5064
11804TIP3   OH256902   5.630   0.652   4.434  0.3795  0.0126 -0.8633
11804TIP3    H156903   5.586   0.567   4.426 -0.0188  0.2069 -0.7640
11804TIP3    H256904   5.682   0.644   4.514  0.8880 -0.3761 -1.2260
11805TIP3   OH256905   6.088   1.015   4.492  0.2666 -0.0727  0.4233
11805TIP3    H156906   6.035   1.039   4.569  1.8956  1.2437  1.2067
11805TIP3    H256907   6.047   1.063   4.420  0.5981  1.3060  1.1024
11806TIP3   OH256908   0.491   4.302   2.879 -0.4724 -0.1471  0.1865
11806TIP3    H156909   0.496   4.376   2.941 -0.9048 -0.4184  0.5485
11806TIP3    H256910   0.447   4.338   2.802 -1.0445 -0.1255  0.5182
11807TIP3   OH256911   4.401   5.192   1.486 -0.1181 -0.4013  0.1276
11807TIP3    H156912   4.479   5.187   1.541 -1.4302  0.6918  2.2243
11807TIP3    H256913   4.376   5.101   1.471 -0.4651 -0.7664  2.5650
11808TIP3   OH256914   1.691   2.119  13.255  0.1411  0.1446 -0.1871
11808TIP3    H156915   1.644   2.202  13.269 -1.8870 -0.7956 -1.0100
11808TIP3    H256916   1.687   2.074  13.339 -0.3599  0.1133 -0.2272
11809TIP3   OH256917   2.707   2.473   4.650 -0.2044  0.2461 -0.0403
11809TIP3    H156918   2.704   2.399   4.589 -1.5592 -2.0070  2.5355
11809TIP3    H256919   2.622   2.516   4.640 -0.1096  0.3773 -0.2898
11810TIP3   OH256920   4.220   3.602   1.304 -0.0485 -0.2012  0.1524
11810TIP3    H156921   4.173   3.644   1.232 -0.0333 -0.4732 -0.0202
11810TIP3    H256922   4.159   3.536   1.337  0.0350 -0.2403  0.2290
11811TIP3   OH256923   4.502   0.161   0.073 -0.7318  0.4474 -0.2336
11811TIP3    H156924   4.468   0.248   0.094  0.5784  0.6047  1.3960
11811TIP3    H256925   4.503   0.158  -0.023 -3.2087  1.2253 -0.3518
11812TIP3   OH256926   4.546   4.079   3.561  0.3640  0.6387  0.2384
11812TIP3    H156927   4.496   4.009   3.518  1.1142  1.1453 -1.5039
11812TIP3    H256928   4.483   4.150   3.572  0.0523  0.3409  0.4068
11813TIP3   OH256929   4.434   4.069  14.896 -0.5925  0.4614 -0.2147
11813TIP3    H156930   4.508   4.014  14.870  0.2013  1.0678  0.7032
11813TIP3    H256931   4.400   4.104  14.814  0.0342  0.0474 -0.6615
11814TIP3   OH256932   3.389   1.862  17.135 -0.1918  0.3548 -0.3953
11814TIP3    H156933   3.401   1.948  17.176 -0.3735  0.5522 -0.7593
11814TIP3    H256934   3.297   1.859  17.112 -0.0605  0.3010 -0.9205
11815TIP3   OH256935   3.250   5.890  14.211 -0.0152  0.0912 -0.3709
11815TIP3    H156936   3.340   5.919  14.226  0.4179 -1.2410 -0.2568
11815TIP3    H256937   3.259   5.815  14.151 -1.2022  1.1337 -1.9270
11816TIP3   OH256938   0.989   4.069  17.252  0.2410 -0.3301 -0.1170
11816TIP3    H156939   0.982   4.087  17.346  0.7022 -0.5394 -0.0408
11816TIP3    H256940   1.061   4.007  17.244  1.6164  1.2585 -0.7915
11817TIP3   OH256941   6.403   6.347  13.720  0.0570  0.0493 -0.0116
11817TIP3    H156942   6.475   6.410  13.710  0.7415 -0.1696  2.6961
11817TIP3    H256943   6.341   6.391  13.778 -2.9599  0.8843 -3.4792
11818TIP3   OH256944   3.438   0.272  12.371  0.3873 -0.0977  0.1293
11818TIP3    H156945   3.344   0.280  12.386  0.2000  1.4676 -1.5742
11818TIP3    H256946   3.473   0.242  12.455 -1.4430  0.6882  1.2329
11819TIP3   OH256947   6.038   5.215  14.452  0.0239 -0.0202  0.4488
11819TIP3    H156948   6.123   5.259  14.455 -0.3201  0.6536  0.4107
11819TIP3    H256949   5.978   5.279  14.415 -0.8382  0.0826  1.9087
11820TIP3   OH256950   5.929   3.001  14.952 -0.5143 -0.2876  0.1968
11820TIP3    H156951   5.969   3.069  15.007 -0.7265 -0.0227  0.0320
11820TIP3    H256952   5.985   2.997  14.875 -2.6820  2.7383 -1.8324
11821TIP3   OH256953   0.924   4.141  15.320  0.0532  0.0309  0.5426
11821TIP3    H156954   1.006   4.187  15.307 -0.9793  1.6322 -0.7250
11821TIP3    H256955   0.946   4.048  15.314  1.9534  0.3652  1.6097
11822TIP3   OH256956   5.084   2.637  13.057  0.7073 -0.1597 -0.2547
11822TIP3    H156957   5.043   2.612  12.974 -0.2929 -0.8191  0.4191
11822TIP3    H256958   5.110   2.554  13.097  1.1328  0.1530  0.1265
11823TIP3   OH256959   3.199   3.493   1.197 -0.2822  0.1033  0.5528
11823TIP3    H156960   3.172   3.558   1.262  1.1382  1.1901  0.1181
11823TIP3    H256961   3.194   3.410   1.243  1.9841  0.9592  2.5853
11824TIP3   OH256962   1.977   4.120  17.126 -0.0857  0.0491  0.1689
11824TIP3    H156963   1.926   4.091  17.202 -1.2720 -2.5003 -1.4756
11824TIP3    H256964   2.060   4.073  17.135  0.2396  0.6681  0.4691
11825TIP3   OH256965   3.620   2.475  12.733 -0.6222 -0.7923  0.2334
11825TIP3    H156966   3.610   2.425  12.814  3.4328 -0.1250  1.4113
11825TIP3    H256967   3.642   2.564  12.762 -0.6343 -0.1126 -1.6549
11826TIP3   OH256968   6.614   3.724  11.582 -0.0749 -0.0236  0.6230
11826TIP3    H156969   6.533   3.742  11.535 -0.4280 -2.0217  0.3655
11826TIP3    H256970   6.653   3.810  11.597 -1.7834  0.9183 -0.0431
11827TIP3   OH256971   0.125   0.625  12.380  0.6201 -0.0533  0.3726
11827TIP3    H156972   0.198   0.572  12.412  1.1849  1.2744  1.3743
11827TIP3    H256973   0.096   0.674  12.456 -0.7350  0.1189 -0.2315
11828TIP3   OH256974   0.251   1.451  12.605  0.3604 -0.2715 -0.6346
11828TIP3    H156975   0.344   1.444  12.623 -0.1162 -0.5160  2.2241
11828TIP3    H256976   0.215   1.365  12.630 -0.5305 -0.6048 -2.8111
11829TIP3   OH256977   0.090   2.922   5.205 -0.1543  0.0061  0.2316
11829TIP3    H156978   0.101   2.946   5.297  0.0650 -0.7976  0.4202
11829TIP3    H256979  -0.004   2.924   5.191 -0.1103  2.7211 -0.2516
11830TIP3   OH256980   1.261   6.298   0.676  0.1301  0.4874  0.4501
11830TIP3    H156981   1.330   6.311   0.611 -0.4054 -1.2605 -0.5387
11830TIP3    H256982   1.201   6.236   0.635 -1.2858  0.8590  1.8524
11831TIP3   OH256983   5.758   6.745  12.272  0.3234 -0.4468  0.4932
11831TIP3    H156984   5.726   6.822  12.225  0.2781 -0.8046 -0.0722
11831TIP3    H256985   5.840   6.773  12.312  0.4551 -0.1965  0.0409
11832TIP3   OH256986   2.490   6.700   1.576 -0.0742  0.3694  0.2099
11832TIP3    H156987   2.475   6.643   1.651 -0.7789  0.1388 -0.0931
11832TIP3    H256988   2.556   6.655   1.524 -0.1931  0.1142  0.2762
11833TIP3   OH256989   0.143   3.637  10.562  0.1476  0.7221 -0.3876
11833TIP3    H156990   0.191   3.561  10.529  1.0027  1.3908 -0.7039
11833TIP3    H256991   0.171   3.646  10.653  0.4537  0.9725 -0.5047
11834TIP3   OH256992   6.648   5.962  13.601  0.5749 -0.4249  0.0648
11834TIP3    H156993   6.666   5.905  13.526 -0.9542 -0.7544 -0.0731
11834TIP3    H256994   6.735   5.989  13.631  1.2852 -1.7498 -0.6951
11835TIP3   OH256995   1.415   3.846  11.022  0.4189  0.3188 -0.0117
11835TIP3    H156996   1.330   3.890  11.017  1.2277  2.8304  3.6891
11835TIP3    H256997   1.394   3.756  11.047 -1.1344 -0.3453 -3.1404
11836TIP3   OH256998   0.949   1.040   6.059  0.1255 -0.4360 -0.1588
11836TIP3    H156999   0.914   0.974   6.000 -2.7254  0.5678  0.2691
11836TIP3    H257000   0.901   1.028   6.141 -1.0951  2.5414 -0.2915
11837TIP3   OH257001   3.364   6.227  14.477 -0.3914  0.0975 -0.6725
11837TIP3    H157002   3.437   6.280  14.446  0.8017  0.3407  2.2382
11837TIP3    H257003   3.287   6.281  14.460  0.6269  2.1156  0.7032
11838TIP3   OH257004   3.864   1.302  12.519 -0.6535  0.2837  0.6560
11838TIP3    H157005   3.772   1.280  12.537 -1.7230  2.8489 -1.0425
11838TIP3    H257006   3.914   1.251  12.583 -3.0090 -3.1604  0.0762
11839TIP3   OH257007   4.403   3.892   4.605 -1.5390  0.4063 -0.1336
11839TIP3    H157008   4.405   3.897   4.509 -1.9132 -0.6630 -0.2101
11839TIP3    H257009   4.315   3.920   4.629 -2.3221 -1.6980 -0.3047
11840TIP3   OH257010   4.088   3.610   3.545 -0.0248  0.7396  0.1054
11840TIP3    H157011   4.157   3.617   3.612  0.2968  1.4971 -0.2917
11840TIP3    H257012   4.048   3.525   3.562  2.2333 -0.6126 -0.8104
11841TIP3   OH257013   4.561   3.934  16.244  0.1208  0.4553  0.0269
11841TIP3    H157014   4.582   3.884  16.323 -0.9700  1.0489  0.7190
11841TIP3    H257015   4.581   3.875  16.172  2.9336  0.5552  0.6313
11842TIP3   OH257016   2.562   6.152   3.938 -0.5528 -0.1780 -0.0828
11842TIP3    H157017   2.657   6.139   3.936 -0.8781 -3.1224 -0.8940
11842TIP3    H257018   2.551   6.237   3.981  2.4251  0.2134  0.1453
11843TIP3   OH257019   2.296   3.814  16.206  0.3625  0.5464 -0.3241
11843TIP3    H157020   2.204   3.810  16.183  1.0165  0.3839 -3.3952
11843TIP3    H257021   2.309   3.742  16.268 -1.8008  1.5812  1.4533
11844TIP3   OH257022   3.695   2.111  10.942  0.5265  0.6487 -0.1570
11844TIP3    H157023   3.646   2.136  11.021 -1.0127 -0.2728 -0.7832
11844TIP3    H257024   3.759   2.181  10.932 -2.0820  3.2037 -0.5208
11845TIP3   OH257025   4.385   4.334   0.279  0.2799  0.1363  0.5197
11845TIP3    H157026   4.412   4.286   0.358  1.4392 -0.2435 -0.0782
11845TIP3    H257027   4.290   4.338   0.284  0.3070 -0.3944  1.6486
11846TIP3   OH257028   4.102   1.737   1.981 -0.3574 -0.5893 -0.0950
11846TIP3    H157029   4.139   1.818   2.017 -0.7127 -0.3564 -0.2471
11846TIP3    H257030   4.149   1.723   1.899  0.7805 -1.3686  0.6554
11847TIP3   OH257031   1.232   3.136   2.599  0.4087 -0.3541 -0.2153
11847TIP3    H157032   1.197   3.049   2.615 -0.3924 -0.3507 -1.7152
11847TIP3    H257033   1.260   3.168   2.685 -0.2979 -1.6408  0.5166
11848TIP3   OH257034   2.017   5.542  13.288 -0.1535 -0.0594 -0.0112
11848TIP3    H157035   1.976   5.515  13.206  1.3740 -2.2742 -0.1416
11848TIP3    H257036   2.111   5.534  13.272  0.4621  3.9164  0.5767
11849TIP3   OH257037   1.024   1.825  14.931  0.1095 -0.4090 -0.0716
11849TIP3    H157038   0.929   1.836  14.917  0.3627  1.6575 -0.4281
11849TIP3    H257039   1.052   1.772  14.856 -0.8453 -1.7199  0.4388
11850TIP3   OH257040   0.041   4.935  11.091  0.6535 -0.1237 -0.1027
11850TIP3    H157041   0.097   4.997  11.045  1.9580 -0.5960  0.7969
11850TIP3    H257042   0.080   4.850  11.074 -1.2028 -0.7689 -1.4409
11851TIP3   OH257043   3.901   3.104  12.134  0.1188 -0.1479  0.0897
11851TIP3    H157044   3.879   3.068  12.048 -0.6215 -0.2243  0.3043
11851TIP3    H257045   3.968   3.045  12.168 -1.4814 -1.7326  0.6841
11852TIP3   OH257046   5.437   3.944  15.207  0.1981  0.2516 -0.0546
11852TIP3    H157047   5.463   3.975  15.121 -0.6057 -0.4224 -0.5575
11852TIP3    H257048   5.364   4.000  15.232 -1.6941 -1.5456 -1.2540
11853TIP3   OH257049   2.026   5.217  11.800 -0.0318 -0.1017  0.1120
11853TIP3    H157050   2.042   5.305  11.835 -1.1835 -0.2877  1.1790
11853TIP3    H257051   2.111   5.173  11.806  0.1551  0.3723  1.2979
11854TIP3   OH257052   1.441   4.087   3.531  0.6412 -0.0722  0.5524
11854TIP3    H157053   1.425   4.127   3.446  1.2404 -1.4074 -0.2170
11854TIP3    H257054   1.376   4.017   3.538 -1.2192  1.7151  2.4249
11855TIP3   OH257055   3.830   3.714  11.777  0.0141  1.2281 -0.2093
11855TIP3    H157056   3.738   3.688  11.772  0.4487 -0.3687 -0.6377
11855TIP3    H257057   3.861   3.676  11.859  1.5600 -3.0091 -2.4666
11856TIP3   OH257058   0.613   5.015   5.556 -0.2865  0.1998  0.0441
11856TIP3    H157059   0.529   5.060   5.560 -0.7012 -0.6212  0.7792
11856TIP3    H257060   0.678   5.085   5.562 -0.8974  0.9071 -1.2429
11857TIP3   OH257061   2.302   6.601  15.284 -0.6461 -0.0928  0.3021
11857TIP3    H157062   2.297   6.615  15.189 -2.3849 -0.1981  0.3341
11857TIP3    H257063   2.216   6.629  15.316  0.0021  0.1726  1.8902
11858TIP3   OH257064   2.593   4.848  14.924  0.1287 -0.0168  0.6256
11858TIP3    H157065   2.624   4.801  14.847  1.0028 -0.9526  1.5300
11858TIP3    H257066   2.671   4.867  14.976 -0.3117  1.5735  0.7867
11859TIP3   OH257067   5.876   4.602  16.768  0.0002  0.3917  0.1880
11859TIP3    H157068   5.906   4.665  16.834 -0.1039 -0.3931  1.0094
11859TIP3    H257069   5.782   4.620  16.760 -1.0854 -2.4809  3.7737
11860TIP3   OH257070   2.790   2.022  17.240 -0.2765  0.4603  0.0156
11860TIP3    H157071   2.814   1.938  17.200  1.6362  0.2229  1.5456
11860TIP3    H257072   2.866   2.078  17.227 -1.1973  1.7252 -0.2153
11861TIP3   OH257073   4.504   5.026   5.139 -0.8534  0.4931 -0.2476
11861TIP3    H157074   4.494   4.977   5.221  1.3966  0.3386  0.0116
11861TIP3    H257075   4.441   5.097   5.145 -0.6686  0.5451  1.6886
11862TIP3   OH257076   3.689   0.304  16.748 -0.2605 -0.3904 -0.0477
11862TIP3    H157077   3.724   0.390  16.725  0.0755 -0.7925 -1.0754
11862TIP3    H257078   3.606   0.324  16.793 -0.6610  0.4585 -1.0993
11863TIP3   OH257079   4.625   5.782   6.795 -0.3062  0.4335 -0.5586
11863TIP3    H157080   4.607   5.823   6.880 -0.5079 -1.0446  0.1413
11863TIP3    H257081   4.539   5.772   6.755 -0.0683  3.2548 -2.0392
11864TIP3   OH257082   5.755   3.415  14.756 -0.6216 -0.3720  0.2101
11864TIP3    H157083   5.702   3.391  14.680 -0.0491  0.6309 -0.5222
11864TIP3    H257084   5.831   3.357  14.752 -1.7105 -1.9672  1.3861
11865TIP3   OH257085   2.165   1.503   0.002  1.0378 -0.1838  0.3505
11865TIP3    H157086   2.204   1.434   0.056  0.3902 -1.6251 -0.9607
11865TIP3    H257087   2.219   1.506  -0.076  0.8626  0.5816  0.2510
11866TIP3   OH257088   5.007   0.008   2.875 -0.0282  0.2610 -0.0984
11866TIP3    H157089   5.021  -0.037   2.792  0.8587  1.0559 -0.3966
11866TIP3    H257090   5.071  -0.030   2.935 -1.0835 -0.7582  0.4307
11867TIP3   OH257091   6.583   6.351   6.303  0.7998 -0.0261  0.4148
11867TIP3    H157092   6.516   6.354   6.372  0.7035  1.6908  0.2972
11867TIP3    H257093   6.547   6.406   6.233  1.7313 -0.2073 -0.2214
11868TIP3   OH257094   0.985   4.828   5.644  0.0734 -0.3864  0.2523
11868TIP3    H157095   0.947   4.874   5.719  1.7948  1.0747  0.3093
11868TIP3    H257096   0.964   4.883   5.569  0.2137 -0.6927 -0.0134
11869TIP3   OH257097   5.757   0.802   1.874 -0.3961  0.1697 -0.2768
11869TIP3    H157098   5.768   0.764   1.786  0.2809 -1.3366  0.4174
11869TIP3    H257099   5.663   0.804   1.888 -0.5137  0.5284 -1.0739
11870TIP3   OH257100   0.877   3.015  12.695 -0.0778  0.1245  0.1353
11870TIP3    H157101   0.964   3.057  12.697 -0.0218  0.1323 -1.2469
11870TIP3    H257102   0.889   2.939  12.638 -1.0323  0.2555 -0.2489
11871TIP3   OH257103   2.601   1.688   1.240  0.0058  0.1116 -0.3774
11871TIP3    H157104   2.654   1.713   1.316 -0.7052 -0.6358  0.3823
11871TIP3    H257105   2.556   1.768   1.214 -2.5037 -0.3030  2.2199
11872TIP3   OH257106   6.045   3.298   4.102 -0.6250  0.3391 -0.0668
11872TIP3    H157107   6.063   3.204   4.114 -0.4774  0.3287 -0.3577
11872TIP3    H257108   6.018   3.328   4.189 -1.3462 -0.1236 -0.1143
11873TIP3   OH257109   4.692   1.562  14.643 -0.0755  0.3204 -0.0089
11873TIP3    H157110   4.697   1.467  14.645  0.9975  0.3147 -1.6904
11873TIP3    H257111   4.728   1.589  14.728 -0.6327 -0.7547  0.5912
11874TIP3   OH257112   1.380   5.089   3.484  0.2845  0.6597  0.0514
11874TIP3    H157113   1.425   5.038   3.417 -0.3568  0.3539 -0.1484
11874TIP3    H257114   1.345   5.024   3.545 -1.8328  0.7531 -1.0080
11875TIP3   OH257115   0.323   5.628  14.139 -0.7548 -0.3484  0.1733
11875TIP3    H157116   0.350   5.719  14.126 -1.3798 -0.3800 -1.6606
11875TIP3    H257117   0.257   5.633  14.208 -1.6386  0.7866 -0.7013
11876TIP3   OH257118   1.402   3.313  15.349 -0.0070 -0.3354 -0.0407
11876TIP3    H157119   1.317   3.298  15.390  2.0165  1.3215  5.6917
11876TIP3    H257120   1.401   3.405  15.325  0.4680 -0.0108  1.1200
11877TIP3   OH257121   4.637   6.185   5.241  0.3837  0.1622 -0.3047
11877TIP3    H157122   4.723   6.163   5.205 -0.0004 -1.9414 -0.0751
11877TIP3    H257123   4.611   6.107   5.291 -0.6636  1.6105  1.5761
11878TIP3   OH257124   1.161   4.069  16.827 -0.8329  0.0794  0.3816
11878TIP3    H157125   1.116   4.123  16.762 -0.2303  0.7129  0.4728
11878TIP3    H257126   1.175   4.128  16.901  1.7843  0.5120 -0.3398
11879TIP3   OH257127   6.383   5.894  14.732  0.7692 -0.2342  0.4422
11879TIP3    H157128   6.314   5.855  14.678  0.5668 -1.7518  1.7073
11879TIP3    H257129   6.464   5.877  14.684  0.5043 -0.7406  0.1649
11880TIP3   OH257130   5.509   6.223   1.836 -0.0477 -0.2659  0.3731
11880TIP3    H157131   5.457   6.239   1.758 -0.5704  1.6677  1.0745
11880TIP3    H257132   5.544   6.308   1.860 -1.3911 -0.4160  3.2619
11881TIP3   OH257133   4.768   4.345   0.291 -0.4165  0.2559  0.6632
11881TIP3    H157134   4.719   4.389   0.222  1.5704  1.5514 -0.0274
11881TIP3    H257135   4.850   4.318   0.249  0.2848 -0.1154  2.1894
11882TIP3   OH257136   1.919   1.001  13.885  0.0038 -0.7358 -0.4198
11882TIP3    H157137   1.933   0.970  13.974 -0.6322 -2.8409 -0.9770
11882TIP3    H257138   1.855   1.071  13.893 -0.4844 -1.2920  0.7298
11883TIP3   OH257139   5.984   4.236   1.113  0.1448  0.0032  0.1573
11883TIP3    H157140   6.040   4.159   1.106  0.2017  0.1057 -0.6464
11883TIP3    H257141   6.005   4.274   1.198  0.8186 -0.3238  0.1417
11884TIP3   OH257142   0.693   6.603   3.240  0.4343  0.0613  0.2367
11884TIP3    H157143   0.723   6.551   3.314  2.0943  0.0879 -0.3790
11884TIP3    H257144   0.597   6.601   3.246  0.5323 -0.4072  2.0259
11885TIP3   OH257145   5.289   6.767  16.021  0.1311 -0.1241  1.0975
11885TIP3    H157146   5.292   6.675  15.996  0.8139  0.4958 -1.4144
11885TIP3    H257147   5.240   6.768  16.103 -0.5484 -2.6309  0.8129
11886TIP3   OH257148   5.820   2.972  11.355  0.1966  0.0638  0.2185
11886TIP3    H157149   5.814   3.065  11.377 -0.0809  0.0034  0.4022
11886TIP3    H257150   5.913   2.958  11.336  0.6098 -0.0466  2.1419
11887TIP3   OH257151   2.925   5.050   3.353  0.0379  0.4628 -0.0411
11887TIP3    H157152   2.874   4.970   3.357 -0.7273  0.9435  0.0883
11887TIP3    H257153   3.003   5.032   3.405  0.7889 -0.8170 -1.5108
11888TIP3   OH257154   0.525   5.265  16.749 -0.0954 -0.2052 -0.6915
11888TIP3    H157155   0.548   5.192  16.806 -2.0432 -0.1528  0.2324
11888TIP3    H257156   0.609   5.305  16.727  0.8832 -1.7052  0.1398
11889TIP3   OH257157   0.117   0.699   6.165  0.6968  0.0512 -0.0305
11889TIP3    H157158   0.211   0.685   6.158  0.7700  1.0736 -1.3792
11889TIP3    H257159   0.105   0.744   6.249  1.8043  2.7291 -1.1920
11890TIP3   OH257160   3.813   2.207   3.927 -0.4553 -0.3665 -0.4640
11890TIP3    H157161   3.828   2.122   3.969  1.5904 -0.0863 -0.4839
11890TIP3    H257162   3.760   2.256   3.989  0.2662 -0.8938  0.5975
11891TIP3   OH257163   5.566   4.334   5.437 -0.3552 -0.0067  0.5039
11891TIP3    H157164   5.479   4.297   5.452 -0.1568  0.0661  2.0716
11891TIP3    H257165   5.553   4.429   5.438 -0.1064  0.0411  2.1049
11892TIP3   OH257166   3.656   3.311  16.425 -0.6315 -0.0561 -0.6021
11892TIP3    H157167   3.694   3.336  16.341  1.2458  0.3328  0.3068
11892TIP3    H257168   3.731   3.294  16.482 -1.8453 -0.7408  0.8905
11893TIP3   OH257169   1.998   4.433  11.303 -0.4344 -0.0949  0.0311
11893TIP3    H157170   2.004   4.411  11.210 -0.0758 -2.3503  0.5395
11893TIP3    H257171   1.917   4.392  11.332 -1.2723  1.7608  0.4733
11894TIP3   OH257172   1.497   2.199  16.120 -0.5518 -0.1051  0.1468
11894TIP3    H157173   1.438   2.274  16.112 -1.5956 -0.7842  1.0828
11894TIP3    H257174   1.537   2.208  16.207  1.8506  1.0888 -0.9977
11895TIP3   OH257175   6.493   2.868  11.677 -0.5395 -0.4557 -0.2144
11895TIP3    H157176   6.518   2.930  11.608 -1.3658 -0.3826 -0.4570
11895TIP3    H257177   6.500   2.782  11.635 -0.5601 -0.4452 -0.2394
11896TIP3   OH257178   0.188   6.331  16.588  0.4788 -0.4931  0.4937
11896TIP3    H157179   0.228   6.360  16.506  1.1147 -0.9693  0.6270
11896TIP3    H257180   0.245   6.261  16.619 -0.1110 -0.7509  1.0212
11897TIP3   OH257181   1.013   5.060   3.505 -0.0943 -0.6083 -0.1385
11897TIP3    H157182   1.017   4.973   3.466  1.6107 -0.8491  0.4524
11897TIP3    H257183   1.074   5.055   3.580 -1.6156  0.4447  1.2459
11898TIP3   OH257184   3.654   4.475   5.850  0.2181 -0.5452  0.1219
11898TIP3    H157185   3.699   4.391   5.846 -0.0581 -0.6877  0.0154
11898TIP3    H257186   3.696   4.521   5.923 -0.5918 -1.3306  1.1106
11899TIP3   OH257187   6.163   2.058  13.160 -0.7995 -0.1074 -0.1651
11899TIP3    H157188   6.120   2.141  13.141 -1.0204  0.0895  1.0915
11899TIP3    H257189   6.145   2.004  13.083 -0.5825  1.0229 -1.0291
11900TIP3   OH257190   4.030   4.273   1.389  0.5928  0.4198 -0.0898
11900TIP3    H157191   4.106   4.328   1.372  0.8730  0.5202  1.3636
11900TIP3    H257192   4.066   4.193   1.426 -0.0059  0.4720  0.6212
11901TIP3   OH257193   3.883   3.276   1.585  0.5431 -0.2034 -0.0322
11901TIP3    H157194   3.804   3.280   1.532  1.0417 -2.0979 -0.9788
11901TIP3    H257195   3.938   3.210   1.543  1.9137 -0.1652  1.5790
11902TIP3   OH257196   6.059   2.271  16.849  0.4209 -0.1905  0.3975
11902TIP3    H157197   6.145   2.311  16.843 -0.2837  1.1607 -1.8182
11902TIP3    H257198   6.070   2.185  16.808  0.3703  0.6941 -1.5711
11903TIP3   OH257199   1.243   2.923   2.996  0.6818  0.1791 -0.0763
11903TIP3    H157200   1.201   2.844   2.962 -0.8063  1.1086 -0.5031
11903TIP3    H257201   1.246   2.910   3.090  1.2344 -0.7492 -0.2164
11904TIP3   OH257202   1.599   0.532  15.528  0.4472 -0.0612 -0.2167
11904TIP3    H157203   1.526   0.587  15.499  1.6189  0.3491 -2.6818
11904TIP3    H257204   1.560   0.474  15.593 -1.2477  2.4290  1.1851
11905TIP3   OH257205   1.141   3.206  15.696 -0.2358 -0.3099 -0.2734
11905TIP3    H157206   1.155   3.226  15.603 -1.9730 -3.4771 -1.3752
11905TIP3    H257207   1.215   3.151  15.721 -0.4656 -0.6048 -0.2278
11906TIP3   OH257208   0.168   2.948  10.744  0.1149  0.3426 -0.1959
11906TIP3    H157209   0.209   2.932  10.829  1.2980 -4.3625 -1.3308
11906TIP3    H257210   0.227   3.008  10.699  2.0915 -0.8417  0.6784
11907TIP3   OH257211   2.057   1.434  16.728  0.6219 -0.1152 -0.4676
11907TIP3    H157212   2.090   1.511  16.774  1.3508 -0.7529  0.0983
11907TIP3    H257213   1.970   1.418  16.766 -0.5678  1.7663 -2.1937
11908TIP3   OH257214   4.728   4.168   6.480  0.2013 -0.5042  0.0806
11908TIP3    H157215   4.788   4.100   6.449 -0.3124 -0.9351  0.0295
11908TIP3    H257216   4.653   4.163   6.421  0.6509  0.9011 -0.6671
11909TIP3   OH257217   4.491   0.469   5.261 -0.2422  0.7657 -0.1694
11909TIP3    H157218   4.534   0.551   5.286  0.9243 -0.3047  1.5265
11909TIP3    H257219   4.399   0.492   5.254  0.1151  2.3217 -0.1637
11910TIP3   OH257220   4.350   0.276   5.570 -0.2805  0.2816 -0.3381
11910TIP3    H157221   4.392   0.353   5.609  2.3134 -0.6069 -1.1784
11910TIP3    H257222   4.406   0.203   5.595 -0.1188 -0.7115 -3.2241
11911TIP3   OH257223   2.920   0.652   6.221 -0.1932 -0.6840 -0.0553
11911TIP3    H157224   2.960   0.568   6.198  0.3853 -0.5243  0.3565
11911TIP3    H257225   2.837   0.628   6.262  0.4171 -1.0994  0.9597
11912TIP3   OH257226   6.566   4.628  16.982 -0.4884  0.0381 -0.2788
11912TIP3    H157227   6.548   4.609  16.890 -1.0386 -1.7928  0.1597
11912TIP3    H257228   6.574   4.723  16.986  2.3330  0.0318 -2.6847
11913TIP3   OH257229   3.772   0.762   0.265 -0.4315 -0.0605  0.0654
11913TIP3    H157230   3.823   0.841   0.252  0.0721 -0.5315 -0.9001
11913TIP3    H257231   3.715   0.757   0.188 -0.1656 -0.8443 -0.0929
11914TIP3   OH257232   4.479   4.061  13.950 -0.0117 -0.1946 -0.2920
11914TIP3    H157233   4.485   4.023  14.038  1.4708 -0.4911 -0.4793
11914TIP3    H257234   4.386   4.062  13.930 -0.3748 -0.1245  1.2819
11915TIP3   OH257235   5.124   6.682  16.973 -0.2076  0.0742 -0.0761
11915TIP3    H157236   5.131   6.623  17.048  2.2866  0.9531  0.4661
11915TIP3    H257237   5.054   6.743  16.997 -1.4010 -1.3707  0.2444
11916TIP3   OH257238   6.252   2.777  14.218 -0.1943 -0.0437 -0.2591
11916TIP3    H157239   6.175   2.792  14.163 -1.0809 -0.7195  0.7730
11916TIP3    H257240   6.228   2.811  14.304  1.6169  2.1178 -0.5197
11917TIP3   OH257241   1.277   1.846  17.470 -0.3556 -0.3573 -0.4067
11917TIP3    H157242   1.191   1.809  17.491 -0.7403  0.9896  0.5603
11917TIP3    H257243   1.261   1.904  17.396 -0.5449  0.7974  0.5109
11918TIP3   OH257244   3.855   6.167  13.252  0.3557  0.6102 -0.4195
11918TIP3    H157245   3.901   6.149  13.170 -0.5552  0.0551 -0.8153
11918TIP3    H257246   3.918   6.143  13.320  0.2560 -1.3188 -0.9489
11919TIP3   OH257247   0.004   1.612  15.422 -0.1585 -0.9542  0.0093
11919TIP3    H157248   0.005   1.528  15.377  0.2355 -1.0951  0.2766
11919TIP3    H257249  -0.086   1.622  15.453  0.2099 -2.1330  1.5655
11920TIP3   OH257250   5.833   0.726  10.881 -0.2199 -0.4451  0.0613
11920TIP3    H157251   5.803   0.728  10.972  0.3699  0.9038  0.2585
11920TIP3    H257252   5.753   0.719  10.829 -0.7468  1.0984  0.6253
11921TIP3   OH257253   6.113   3.587  17.278  0.2158 -0.1634 -0.7100
11921TIP3    H157254   6.150   3.504  17.248  2.1644  0.8007 -1.1129
11921TIP3    H257255   6.162   3.608  17.358 -0.7895  0.2412 -0.1793
11922TIP3   OH257256   4.864   0.400  11.748 -0.8635 -0.4469 -0.3494
11922TIP3    H157257   4.815   0.324  11.778  0.0270 -1.6403 -1.7456
11922TIP3    H257258   4.885   0.448  11.827 -1.8016 -1.4294  0.5374
11923TIP3   OH257259   1.597   5.169  13.764 -0.6080 -0.2870 -0.2449
11923TIP3    H157260   1.576   5.084  13.803 -1.7068  0.2526  0.3838
11923TIP3    H257261   1.685   5.189  13.795 -0.9272 -0.5193  0.8466
11924TIP3   OH257262   2.693   6.538   3.919 -0.5621  0.0425 -0.0431
11924TIP3    H157263   2.780   6.506   3.944 -0.2749  2.5265  2.6348
11924TIP3    H257264   2.701   6.556   3.825  2.0251  0.6980  0.2147
11925TIP3   OH257265   2.038   4.721  16.887  0.2046 -0.1841  0.5139
11925TIP3    H157266   2.030   4.698  16.979 -0.5816 -0.6026  0.3535
11925TIP3    H257267   2.038   4.637  16.841 -0.6882  0.0470  0.0554
11926TIP3   OH257268   5.306   1.508   0.319  0.2061 -0.0117 -0.1942
11926TIP3    H157269   5.340   1.573   0.381  0.8526 -0.3789 -0.1554
11926TIP3    H257270   5.368   1.509   0.247  0.2813 -0.6561 -0.1465
11927TIP3   OH257271   2.874   4.520   0.243  0.1707 -0.3279  0.4102
11927TIP3    H157272   2.852   4.466   0.319 -0.8169 -0.5922 -0.0496
11927TIP3    H257273   2.797   4.515   0.187  0.1727  1.3361  0.2180
11928TIP3   OH257274   5.879   4.874  14.607  0.4216  0.3025 -0.0786
11928TIP3    H157275   5.807   4.811  14.612 -0.8181  1.7428  1.4871
11928TIP3    H257276   5.906   4.874  14.515  0.4890 -2.4709 -0.1389
11929TIP3   OH257277   1.460   3.903   4.810  0.2584  0.1853 -0.4523
11929TIP3    H157278   1.368   3.880   4.806  0.4076 -0.2717 -1.4057
11929TIP3    H257279   1.506   3.820   4.799  0.7894  0.6323 -1.8009
11930TIP3   OH257280   4.801   0.938   3.521 -0.6316  0.4693  0.4027
11930TIP3    H157281   4.826   0.939   3.613 -1.3433  0.2093  0.6040
11930TIP3    H257282   4.707   0.918   3.521 -0.6407  0.4574 -0.3769
11931TIP3   OH257283   1.259   0.707  17.319  0.1592  0.3806  0.0625
11931TIP3    H157284   1.321   0.727  17.388  1.3083 -1.4479 -0.3814
11931TIP3    H257285   1.301   0.736  17.239 -0.3783  0.8379 -0.0603
11932TIP3   OH257286   5.005   4.683   4.073  0.1607 -0.0116  0.5488
11932TIP3    H157287   5.031   4.717   3.988  2.5308  1.6093  1.8229
11932TIP3    H257288   4.916   4.717   4.086  0.4877  1.3226 -0.4797
11933TIP3   OH257289   1.920   2.737  12.629 -0.3547 -0.1565 -0.3159
11933TIP3    H157290   1.927   2.722  12.535 -0.1393  2.0881 -0.7202
11933TIP3    H257291   1.827   2.757  12.644 -0.3949 -0.5387 -0.0469
11934TIP3   OH257292   5.556   5.825   5.691 -0.8868 -0.3022 -0.3360
11934TIP3    H157293   5.592   5.738   5.708  0.9485  0.4491 -0.1917
11934TIP3    H257294   5.598   5.882   5.756 -1.9011  0.7336 -0.5567
11935TIP3   OH257295   3.323   2.428  12.191 -0.0113 -0.4649 -0.1405
11935TIP3    H157296   3.355   2.349  12.147 -0.6150 -0.3346 -0.8308
11935TIP3    H257297   3.247   2.455  12.140  0.0659  0.4560  0.2066
11936TIP3   OH257298   1.903   5.620   0.539 -1.0837 -0.3749  0.2457
11936TIP3    H157299   1.916   5.687   0.606  0.7047 -1.2897  0.8666
11936TIP3    H257300   1.964   5.643   0.469 -0.0542 -1.6241  0.7020
11937TIP3   OH257301   4.546   0.082  13.455 -0.1298 -0.3768 -0.3064
11937TIP3    H157302   4.478   0.132  13.498 -0.4503 -0.6620 -0.4804
11937TIP3    H257303   4.504  -0.001  13.431 -0.0599 -0.0867 -1.4904
11938TIP3   OH257304   5.374   4.121  10.989 -0.2780  0.0468  0.2608
11938TIP3    H157305   5.354   4.204  11.031 -0.5439  1.0692 -1.7947
11938TIP3    H257306   5.403   4.144  10.901  0.2959 -2.0012 -0.1506
11939TIP3   OH257307   4.786   1.723  15.941  0.6085  0.1290  0.1314
11939TIP3    H157308   4.840   1.653  15.977 -0.5468 -0.5874  0.5420
11939TIP3    H257309   4.789   1.708  15.846  1.6962  0.5428  0.0857
11940TIP3   OH257310   6.633   0.282   5.636  0.8374 -0.3837  0.1038
11940TIP3    H157311   6.679   0.365   5.649 -0.1692 -0.0061  1.5073
11940TIP3    H257312   6.578   0.273   5.714  0.3527 -2.0004 -0.3906
11941TIP3   OH257313   1.955   4.069   0.459 -0.0354  0.1904 -0.1002
11941TIP3    H157314   1.983   4.110   0.378  0.5021  0.8689  0.4180
11941TIP3    H257315   2.003   4.115   0.528 -1.4744  0.5499  0.7109
11942TIP3   OH257316   3.278   1.497  14.358  0.3960  0.0294 -0.2987
11942TIP3    H157317   3.269   1.589  14.336 -1.9876  0.3627  1.6569
11942TIP3    H257318   3.188   1.466  14.372  1.1915 -2.3341  0.1036
11943TIP3   OH257319   5.057   1.510  16.613 -0.2471 -0.3643  0.1747
11943TIP3    H157320   5.039   1.604  16.609 -0.6030 -0.4656 -0.9846
11943TIP3    H257321   5.091   1.495  16.701  2.6798  1.3725 -0.5134
11944TIP3   OH257322   2.592   0.491  14.959  0.0466 -0.5479 -0.0937
11944TIP3    H157323   2.586   0.413  15.015 -0.4110 -1.0784 -0.8513
11944TIP3    H257324   2.508   0.535  14.971  0.9143  0.7422  1.5907
11945TIP3   OH257325   5.389   6.387   1.100  0.0032  0.0496  0.2533
11945TIP3    H157326   5.310   6.369   1.049  0.5011  0.0299 -0.5329
11945TIP3    H257327   5.373   6.345   1.184 -0.7315 -0.1489  0.0247
11946TIP3   OH257328   2.835   6.321   3.174  0.1818 -0.0032 -0.3134
11946TIP3    H157329   2.849   6.253   3.240 -2.7234 -0.7359 -0.2970
11946TIP3    H257330   2.830   6.273   3.091  0.6557  0.5269 -0.6565
11947TIP3   OH257331   0.142   3.230   1.434 -0.5924 -0.1445  0.5560
11947TIP3    H157332   0.149   3.157   1.372 -0.1252 -0.1582  0.6210
11947TIP3    H257333   0.173   3.194   1.517  0.4627  0.3599  0.3964
11948TIP3   OH257334   1.207   5.308   1.623 -0.0293  0.1420  0.5493
11948TIP3    H157335   1.172   5.260   1.697  1.2864 -0.8304  0.5775
11948TIP3    H257336   1.196   5.249   1.548  2.3016 -0.6213  0.7220
11949TIP3   OH257337   4.141   6.580   4.521  0.4558  0.0745 -0.1627
11949TIP3    H157338   4.075   6.518   4.493  0.0415  0.0916  0.7516
11949TIP3    H257339   4.178   6.614   4.439  0.2686 -0.9117 -0.6738
11950TIP3   OH257340   2.065   0.120   1.963 -0.1129 -0.4724  0.3546
11950TIP3    H157341   2.061   0.163   2.048 -2.4849  0.7295 -0.2739
11950TIP3    H257342   2.147   0.150   1.925 -0.9456  2.4073  0.5867
11951TIP3   OH257343   1.056   2.949   4.574 -0.2313 -0.7980  0.3631
11951TIP3    H157344   1.146   2.969   4.549 -0.0265 -2.2660 -0.1679
11951TIP3    H257345   1.002   2.993   4.508  0.1342 -0.7281  0.1080
11952TIP3   OH257346   5.838   2.923  13.546  0.3048 -0.5251  0.1973
11952TIP3    H157347   5.925   2.883  13.542  2.2510  3.1366  1.5340
11952TIP3    H257348   5.837   2.984  13.472 -0.1636  1.1482  1.5460
11953TIP3   OH257349   0.053   2.290   3.052 -0.2394 -0.1317  0.4669
11953TIP3    H157350   0.071   2.372   3.098  0.0456 -0.5585  1.1275
11953TIP3    H257351   0.097   2.223   3.104  2.9576 -0.3096 -2.1446
11954TIP3   OH257352   5.800   2.811   0.743 -0.0509 -0.4146 -0.0594
11954TIP3    H157353   5.721   2.757   0.747  0.2374 -0.9199 -1.0196
11954TIP3    H257354   5.767   2.901   0.732 -0.5422 -0.2830  2.0565
11955TIP3   OH257355   3.466   6.061  11.888 -0.0448 -0.4929  0.0939
11955TIP3    H157356   3.469   6.047  11.793 -1.6091  2.0609 -0.4208
11955TIP3    H257357   3.376   6.039  11.912  0.2378 -0.7424  0.9559
11956TIP3   OH257358   2.418   5.446   4.648 -0.2080 -0.2620 -0.9309
11956TIP3    H157359   2.344   5.387   4.667 -0.4809  0.1314 -0.7491
11956TIP3    H257360   2.456   5.465   4.734  0.5800 -1.0622 -1.0897
11957TIP3   OH257361   2.951   1.112  16.553  0.5736 -0.4737  0.4075
11957TIP3    H157362   2.976   1.022  16.534 -0.1722 -0.6633  0.2981
11957TIP3    H257363   3.013   1.166  16.505  0.7765 -0.9342  0.1591
11958TIP3   OH257364   3.014   1.974  14.728  0.8643 -0.2903  0.1699
11958TIP3    H157365   2.950   2.044  14.719  0.6761 -0.4947 -0.0914
11958TIP3    H257366   3.083   1.996  14.666 -0.4153 -1.6796 -1.8786
11959TIP3   OH257367   0.036   2.315  13.511  0.0175 -0.2938  0.0707
11959TIP3    H157368   0.127   2.337  13.489 -0.6878  1.1682 -1.6816
11959TIP3    H257369   0.017   2.236  13.460  0.0977 -0.2027 -0.0986
11960TIP3   OH257370   6.017   1.424   2.734  0.6797 -0.4944 -0.3038
11960TIP3    H157371   5.945   1.425   2.797  0.0077 -3.1118 -0.8942
11960TIP3    H257372   6.094   1.401   2.786  0.7114  0.3262  0.0183
11961TIP3   OH257373   2.848   3.733   2.800  0.4297  0.4330  0.2137
11961TIP3    H157374   2.821   3.758   2.889  0.2088  1.5326 -0.1444
11961TIP3    H257375   2.916   3.667   2.813  1.1946  1.3893  1.2271
11962TIP3   OH257376   3.290   1.178  16.231 -0.7757  0.3922 -0.2467
11962TIP3    H157377   3.321   1.089  16.248 -1.3947  0.3110  0.4716
11962TIP3    H257378   3.368   1.226  16.203 -0.5556 -0.5322 -1.2695
11963TIP3   OH257379   0.515   3.614   4.092  0.8072  0.3673 -0.2226
11963TIP3    H157380   0.534   3.698   4.050 -2.5233  1.6290  0.4649
11963TIP3    H257381   0.530   3.629   4.185  0.6832  0.0297 -0.1455
11964TIP3   OH257382   3.036   5.757   3.574  0.0174 -0.4015 -0.4021
11964TIP3    H157383   2.970   5.730   3.510 -0.0313  1.3572 -1.1402
11964TIP3    H257384   3.112   5.781   3.522  1.6177 -3.1322  0.4752
11965TIP3   OH257385   2.574   2.858  15.569 -0.5718  0.2225 -0.1987
11965TIP3    H157386   2.660   2.817  15.570 -0.1538  0.7532 -3.4045
11965TIP3    H257387   2.515   2.791  15.604  0.7901 -1.1230 -0.3788
11966TIP3   OH257388   4.462   5.302  15.027  0.3011 -0.3776 -0.0443
11966TIP3    H157389   4.400   5.229  15.028 -1.9596  1.4451  0.7261
11966TIP3    H257390   4.464   5.333  15.117  3.2874 -1.0379  0.2170
11967TIP3   OH257391   1.861   1.919  14.327 -0.1233  0.3262 -0.1622
11967TIP3    H157392   1.772   1.954  14.322 -0.6921 -0.8804  0.8778
11967TIP3    H257393   1.869   1.887  14.417 -0.3513 -3.7776 -1.3824
11968TIP3   OH257394   0.910   3.679  13.573  0.4833 -0.2582  0.1117
11968TIP3    H157395   0.938   3.680  13.481  0.4483  0.1186  0.1048
11968TIP3    H257396   0.966   3.613  13.614  0.9297  0.0144 -0.0473
11969TIP3   OH257397   4.869   3.894   5.569  0.2434  0.4959 -0.6487
11969TIP3    H157398   4.925   3.944   5.628  0.7819 -0.5511 -0.2591
11969TIP3    H257399   4.888   3.930   5.482  0.5248  1.0424 -0.3685
11970TIP3   OH257400   1.868   4.695   1.840 -0.7023 -0.2314 -0.5786
11970TIP3    H157401   1.775   4.698   1.864 -1.0125 -0.7694 -1.6637
11970TIP3    H257402   1.914   4.682   1.923 -1.2719  3.7944  0.6014
11971TIP3   OH257403   5.005   5.420  10.700  0.0532  0.3163  0.6787
11971TIP3    H157404   5.096   5.446  10.688  0.4400 -0.7441  1.2693
11971TIP3    H257405   4.984   5.370  10.621 -0.7114  2.3626 -0.4889
11972TIP3   OH257406   1.167   2.752  11.793  0.2653 -0.1596 -0.1675
11972TIP3    H157407   1.122   2.824  11.749  0.3890  1.8890  2.7751
11972TIP3    H257408   1.255   2.752  11.756  1.0001  2.8294  1.3180
11973TIP3   OH257409   2.835   6.725  15.924  0.6740 -0.3235  0.4458
11973TIP3    H157410   2.916   6.755  15.965  0.4403  1.7216 -0.4461
11973TIP3    H257411   2.766   6.776  15.966  0.1694 -0.0263 -0.6987
11974TIP3   OH257412   0.723   4.167   3.552  0.1352  0.8699  0.2677
11974TIP3    H157413   0.704   4.162   3.458  0.3278 -1.0821  0.2870
11974TIP3    H257414   0.720   4.260   3.572  1.4273  1.4872 -1.9628
11975TIP3   OH257415   0.858   2.412  11.026 -0.5552  0.1110 -0.0306
11975TIP3    H157416   0.773   2.406  11.069 -1.2121  0.6533 -1.1817
11975TIP3    H257417   0.877   2.506  11.024  1.3718 -0.1149  2.5504
11976TIP3   OH257418   3.261   4.596   6.924 -0.8024  0.2518 -0.4395
11976TIP3    H157419   3.308   4.622   7.004 -2.2304 -0.6079  0.7271
11976TIP3    H257420   3.316   4.629   6.853 -0.5506  3.0013  0.8807
11977TIP3   OH257421   6.356   0.758   3.119  0.0351 -0.1501  0.2796
11977TIP3    H157422   6.315   0.844   3.113  1.1096  0.5070  1.5496
11977TIP3    H257423   6.288   0.696   3.094 -1.5077  0.9310  1.6046
11978TIP3   OH257424   3.673   5.545   5.573 -0.4603 -0.1138  0.5894
11978TIP3    H157425   3.645   5.508   5.490 -0.1487  1.5254 -0.2858
11978TIP3    H257426   3.648   5.480   5.638 -2.0385 -0.7753 -0.6255
11979TIP3   OH257427   1.069   4.142  15.812 -1.1301  0.3078  0.5076
11979TIP3    H157428   1.099   4.151  15.903 -0.0949 -0.1388  0.2365
11979TIP3    H257429   0.981   4.179  15.812 -0.7259  1.3376  1.4537
11980TIP3   OH257430   3.571   5.053  16.551  0.4723 -0.1069 -0.4788
11980TIP3    H157431   3.512   4.979  16.567  0.8377 -0.0369  1.4503
11980TIP3    H257432   3.524   5.129  16.584  0.9237  0.2280 -0.5998
11981TIP3   OH257433   3.608   2.962  16.284 -0.5220 -0.4589  0.3831
11981TIP3    H157434   3.647   2.984  16.369 -0.1557 -2.8126  0.8892
11981TIP3    H257435   3.679   2.920  16.235 -1.0494 -0.1704 -0.6468
11982TIP3   OH257436   5.200   1.017   4.416  0.6451 -0.0002  0.4069
11982TIP3    H157437   5.264   1.066   4.468  2.1055  0.5210 -1.7315
11982TIP3    H257438   5.115   1.036   4.458  1.8214 -0.9945  3.5307
11983TIP3   OH257439   5.652   5.647   6.681 -0.2652  0.5791  0.1853
11983TIP3    H157440   5.576   5.705   6.672  0.0060  1.3054  2.0431
11983TIP3    H257441   5.617   5.559   6.666 -1.0611  1.0462 -0.8438
11984TIP3   OH257442   0.577   5.452  13.325 -0.4488  0.0652  0.4609
11984TIP3    H157443   0.663   5.478  13.358 -0.9085  1.1104  0.8862
11984TIP3    H257444   0.520   5.527  13.345 -1.2805 -0.2766 -0.5404
11985TIP3   OH257445   1.971   3.265   0.361  0.2495  0.5953  0.5255
11985TIP3    H157446   1.963   3.351   0.320 -1.7361  0.5639  0.7266
11985TIP3    H257447   1.925   3.205   0.302  1.4981 -0.3344  0.4471
11986TIP3   OH257448   3.810   4.905   5.304 -0.3666 -0.2215 -0.3384
11986TIP3    H157449   3.743   4.901   5.236 -0.8396  0.4647  0.0788
11986TIP3    H257450   3.762   4.928   5.384  0.5500  2.0307 -0.3586
11987TIP3   OH257451   3.978   1.482  16.792 -0.2561  0.0618  0.1311
11987TIP3    H157452   3.890   1.511  16.814  0.0911  1.2154  0.0437
11987TIP3    H257453   3.986   1.498  16.698  0.5705  1.4534  0.4068
11988TIP3   OH257454   4.878   3.972   1.800  0.2057  0.5181 -0.4273
11988TIP3    H157455   4.879   3.876   1.808 -1.6569  0.5503  0.9862
11988TIP3    H257456   4.858   4.002   1.889 -3.2900  2.0036 -1.5392
11989TIP3   OH257457   0.898   5.023   2.460 -0.1544  0.0384 -0.2995
11989TIP3    H157458   0.839   5.094   2.433 -0.1455 -0.4552 -1.6692
11989TIP3    H257459   0.864   4.945   2.416  1.5835 -0.2363 -1.2363
11990TIP3   OH257460   0.898   5.711  16.723 -0.4608 -0.2159  0.2138
11990TIP3    H157461   0.875   5.652  16.795 -1.0652  0.8523  0.9388
11990TIP3    H257462   0.825   5.773  16.719 -0.0529  0.2203 -0.8076
11991TIP3   OH257463   5.955   2.276   3.610 -0.3823  0.0577  0.5012
11991TIP3    H157464   5.990   2.333   3.542  0.4242 -1.6778 -0.6340
11991TIP3    H257465   5.869   2.250   3.577 -0.2989 -0.1972  0.4752
11992TIP3   OH257466   3.933   3.668   2.308  0.1968  0.0827 -0.1757
11992TIP3    H157467   3.905   3.724   2.380 -0.4639 -0.8295  0.3097
11992TIP3    H257468   3.916   3.579   2.340  0.9073 -0.3810 -1.0434
11993TIP3   OH257469   1.119   0.389   0.051 -0.0502 -0.1957  0.0711
11993TIP3    H157470   1.202   0.347   0.027 -0.8414 -0.3163 -2.8069
11993TIP3    H257471   1.144   0.471   0.092  1.4841 -1.0004  0.8250
11994TIP3   OH257472   1.162   2.805   3.705 -0.1245 -0.0540  0.0012
11994TIP3    H157473   1.139   2.716   3.677 -1.3755  0.2343  0.0181
11994TIP3    H257474   1.110   2.818   3.784 -0.5813  0.9690 -0.4486
11995TIP3   OH257475   5.867   5.331  13.885  0.3983 -0.3839 -0.1796
11995TIP3    H157476   5.877   5.346  13.791  1.8525 -1.9706 -0.3206
11995TIP3    H257477   5.772   5.337  13.900  0.2577  1.3754 -1.4358
11996TIP3   OH257478   0.371   6.370  15.271 -0.3132  0.2053  0.7639
11996TIP3    H157479   0.349   6.324  15.190  0.0795 -0.3083  0.9402
11996TIP3    H257480   0.328   6.319  15.340  2.0981 -1.3740  1.2160
11997TIP3   OH257481   1.761   4.468  17.209 -0.4270 -0.8141 -0.2733
11997TIP3    H157482   1.752   4.457  17.304 -0.8874  3.0099  0.2792
11997TIP3    H257483   1.718   4.391  17.172 -2.4610 -1.2267  2.6056
11998TIP3   OH257484   2.097   3.375   1.060 -0.2619 -0.3334  0.3875
11998TIP3    H157485   2.168   3.367   1.124  0.7028 -0.2508 -0.6267
11998TIP3    H257486   2.141   3.405   0.980 -1.8417  2.6685  0.5119
11999TIP3   OH257487   0.151   4.368   1.564 -0.0647  0.0612  0.1441
11999TIP3    H157488   0.122   4.279   1.584 -0.1342 -0.4028 -1.7552
11999TIP3    H257489   0.098   4.394   1.488  1.5258  0.8146 -0.7711
12000TIP3   OH257490   1.352   1.368   2.264 -0.6664  0.8168 -0.1197
12000TIP3    H157491   1.407   1.290   2.264 -2.2554 -0.3641 -0.8994
12000TIP3    H257492   1.399   1.431   2.209  0.2177  0.0883 -0.2118
12001TIP3   OH257493   3.124   3.403  14.542 -0.1810  0.3967  0.4198
12001TIP3    H157494   3.208   3.434  14.509 -0.6985 -0.0364 -1.4213
12001TIP3    H257495   3.144   3.318  14.581  0.1040 -0.2303 -1.0137
12002TIP3   OH257496   6.763   6.340  11.708 -0.2168 -0.1808 -0.8846
12002TIP3    H157497   6.785   6.270  11.648 -0.1173 -0.8262 -0.1186
12002TIP3    H257498   6.717   6.296  11.780  0.1999  0.4643 -0.2024
12003TIP3   OH257499   2.316   2.036  10.837 -0.1012  0.2990  0.7461
12003TIP3    H157500   2.363   2.119  10.832  0.1412  0.0901 -1.3277
12003TIP3    H257501   2.270   2.029  10.753 -1.0095 -1.1511  1.3231
12004TIP3   OH257502   5.031   4.958   1.429 -0.0566  0.4421 -0.0175
12004TIP3    H157503   5.069   4.881   1.386  1.2678  1.8391 -1.4456
12004TIP3    H257504   5.105   5.002   1.470 -1.0895 -0.0865  2.6341
12005TIP3   OH257505   5.378   4.929  13.261 -0.1482 -0.0216 -0.6038
12005TIP3    H157506   5.429   4.937  13.342  0.4027 -1.4426 -0.7689
12005TIP3    H257507   5.294   4.969  13.282  0.2437  0.3009  0.4329
12006TIP3   OH257508   5.260   6.391   5.039 -0.6362 -0.2731  0.0698
12006TIP3    H157509   5.318   6.358   4.970  0.6132  0.3319  0.8008
12006TIP3    H257510   5.192   6.323   5.047  0.1252 -1.1470 -0.5991
12007TIP3   OH257511   5.433   2.251   1.858  0.0763 -0.0872 -0.0581
12007TIP3    H157512   5.484   2.330   1.837  1.8541 -1.4891 -1.3395
12007TIP3    H257513   5.480   2.212   1.931 -0.2712 -0.4427 -0.0240
12008TIP3   OH257514   5.407   0.950   5.580  0.1050  0.0669  0.1490
12008TIP3    H157515   5.375   0.898   5.654 -1.1754  0.5543 -0.0381
12008TIP3    H257516   5.405   0.888   5.506  0.3652 -0.1283  0.3044
12009TIP3   OH257517   4.134   1.030   5.464  0.2501  0.0027  0.1139
12009TIP3    H157518   4.194   1.074   5.524 -0.6643 -0.4425  1.3956
12009TIP3    H257519   4.094   0.960   5.516 -0.5785 -0.3995 -1.0118
12010TIP3   OH257520   1.958   0.043   4.527 -0.3908 -0.1124 -0.5831
12010TIP3    H157521   1.996  -0.039   4.495  2.1211  0.6633  0.1830
12010TIP3    H257522   1.949   0.029   4.621  0.2298  0.5342 -0.4212
12011TIP3   OH257523   2.054   6.736  16.572 -0.1362  0.8991 -0.3007
12011TIP3    H157524   1.975   6.784  16.597 -0.9636  1.3767 -3.4074
12011TIP3    H257525   2.038   6.646  16.601 -1.2465  1.2600  0.2659
12012TIP3   OH257526   2.840   3.551  16.054 -0.2357 -0.8507  0.2242
12012TIP3    H157527   2.910   3.616  16.045 -0.7375 -0.1983  0.8501
12012TIP3    H257528   2.806   3.541  15.965 -0.5185  0.1827  0.1978
12013TIP3   OH257529   4.510   3.302   5.393 -0.2151  0.1730 -0.5895
12013TIP3    H157530   4.415   3.312   5.399 -0.3039 -0.4265 -0.8914
12013TIP3    H257531   4.537   3.272   5.480  0.0187  2.5671  0.2383
12014TIP3   OH257532   2.774   3.973   4.181  0.1311 -0.1847 -0.0123
12014TIP3    H157533   2.747   3.986   4.272 -1.4790 -1.7538 -0.2101
12014TIP3    H257534   2.712   4.025   4.130 -1.3527 -2.1866 -0.3599
12015TIP3   OH257535   0.813   0.163   4.166 -0.5931  0.3761  0.3996
12015TIP3    H157536   0.794   0.071   4.182  0.0204  0.0214 -0.7519
12015TIP3    H257537   0.909   0.168   4.165 -0.6154  1.1540  1.0705
12016TIP3   OH257538   1.027   2.400   4.500 -0.0385  0.0457  0.2041
12016TIP3    H157539   1.086   2.472   4.478  1.9737 -1.5558 -0.0244
12016TIP3    H257540   0.951   2.412   4.443  0.7313  1.3730 -0.5850
12017TIP3   OH257541   5.286   3.796   5.699 -0.2368 -0.7728  0.3046
12017TIP3    H157542   5.325   3.883   5.703  0.1180 -0.8687 -0.7419
12017TIP3    H257543   5.194   3.812   5.675 -0.1584 -0.6798  0.0567
12018TIP3   OH257544   2.314   4.314   1.854 -0.5959  0.0253 -0.6437
12018TIP3    H157545   2.408   4.331   1.864 -0.4369 -0.5938 -1.0033
12018TIP3    H257546   2.297   4.241   1.913 -1.6151  2.3560  2.1783
12019TIP3   OH257547   0.379   2.238   2.274  0.2321  0.0525  0.2312
12019TIP3    H157548   0.448   2.239   2.208 -0.8035  0.0377 -0.8858
12019TIP3    H257549   0.411   2.296   2.343  1.2529  0.2386 -0.3792
12020TIP3   OH257550   5.186   5.831  16.266 -0.3246  0.2372 -0.0170
12020TIP3    H157551   5.125   5.828  16.340  0.0767 -0.8877  0.2959
12020TIP3    H257552   5.191   5.740  16.235  1.0908  0.3121 -0.0968
12021TIP3   OH257553   6.678   6.536   0.968  0.0561 -0.0852 -0.2122
12021TIP3    H157554   6.718   6.449   0.960 -2.1782 -1.1797 -0.3861
12021TIP3    H257555   6.677   6.553   1.062  0.5746 -0.2300 -0.1803
12022TIP3   OH257556   2.914   5.493  13.560 -0.2273 -0.2449 -0.4969
12022TIP3    H157557   2.999   5.528  13.532  0.6784 -1.0303  1.1078
12022TIP3    H257558   2.887   5.552  13.631 -0.6973 -0.4055 -0.5400
12023TIP3   OH257559   4.394   3.317  16.402  0.5000  0.0083 -0.2754
12023TIP3    H157560   4.371   3.224  16.410  2.9164 -0.6704 -0.3366
12023TIP3    H257561   4.371   3.339  16.311 -2.3456  0.2387  0.3996
12024TIP3   OH257562   1.979   3.502  16.455  0.3168 -0.3193 -0.1547
12024TIP3    H157563   2.009   3.487  16.544 -1.4490  0.3831  0.5960
12024TIP3    H257564   2.055   3.483  16.400  2.0924  1.2841  1.6123
12025TIP3   OH257565   2.201   5.800  15.481 -0.2921 -0.1970  0.6949
12025TIP3    H157566   2.187   5.705  15.483  1.1182 -0.4522 -0.4138
12025TIP3    H257567   2.283   5.813  15.528  0.3784  0.2733 -0.5630
12026TIP3   OH257568   1.801   5.467  11.237  0.0400  0.0541  0.0546
12026TIP3    H157569   1.771   5.379  11.260  0.4566  0.1168  0.8624
12026TIP3    H257570   1.835   5.458  11.148 -2.5635  0.0334 -1.0325
12027TIP3   OH257571   4.282   5.494   4.591  0.0425  0.1226 -0.3188
12027TIP3    H157572   4.255   5.586   4.580  0.9383  0.5086  0.5487
12027TIP3    H257573   4.366   5.489   4.546  0.7673  0.1559  0.9848
12028TIP3   OH257574   0.837   1.030   4.350 -0.0248  0.0249  0.2560
12028TIP3    H157575   0.767   0.966   4.338 -0.0163 -0.2039  1.3123
12028TIP3    H257576   0.857   1.028   4.444 -0.3197  1.8806  0.4132
12029TIP3   OH257577   1.237   6.522  17.078 -0.1021  0.5693 -0.0133
12029TIP3    H157578   1.193   6.601  17.048  0.6100  0.7197 -0.6819
12029TIP3    H257579   1.292   6.495  17.004 -2.4088 -2.1506 -0.9244
12030TIP3   OH257580   4.022   6.332  16.041 -0.0935  0.3205 -0.5479
12030TIP3    H157581   3.986   6.326  15.953 -0.4940  1.9878 -0.5229
12030TIP3    H257582   4.037   6.241  16.067 -0.3618 -0.2104 -2.1636
12031TIP3   OH257583   4.087   2.487   3.655  0.2349 -0.5145  0.0898
12031TIP3    H157584   4.121   2.555   3.714 -1.5512  1.6981 -1.2710
12031TIP3    H257585   4.158   2.474   3.591  0.3721  0.5232  0.0195
12032TIP3   OH257586   4.453   2.420  17.216  0.1634 -0.3848 -0.2724
12032TIP3    H157587   4.431   2.389  17.128 -0.5490 -1.2281  0.1848
12032TIP3    H257588   4.419   2.352  17.275  3.1443 -1.3200  0.5489
12033TIP3   OH257589   6.046   5.085  14.702  1.0720 -0.1452  0.0136
12033TIP3    H157590   6.046   5.128  14.616  0.3418 -1.4538 -0.6634
12033TIP3    H257591   5.971   5.026  14.699  1.3134 -0.5465  1.3956
12034TIP3   OH257592   5.295   5.541   6.477 -0.0883  0.0162 -0.0892
12034TIP3    H157593   5.307   5.572   6.567  0.3984 -0.4505  0.0102
12034TIP3    H257594   5.245   5.460   6.486 -2.8399  1.5483 -0.4487
12035TIP3   OH257595   2.711   5.522  13.909 -0.3086 -0.3450  0.3995
12035TIP3    H157596   2.688   5.575  13.985 -0.5251 -0.2709  0.2845
12035TIP3    H257597   2.668   5.566  13.835  1.9730  1.0615 -0.1775
12036TIP3   OH257598   6.188   4.584  16.174  0.1247 -0.1526 -0.3924
12036TIP3    H157599   6.257   4.617  16.117  0.3618  0.6531  0.3409
12036TIP3    H257600   6.186   4.644  16.248  0.0778 -1.3732  0.6473
12037TIP3   OH257601   6.342   6.417  11.166 -0.0386 -0.0719  0.8887
12037TIP3    H157602   6.275   6.426  11.098  1.9398 -2.0611 -1.5779
12037TIP3    H257603   6.303   6.356  11.229 -1.7669  1.4805  1.4225
12038TIP3   OH257604   3.148   2.200  14.165 -0.7454 -0.0710  0.5844
12038TIP3    H157605   3.214   2.135  14.186 -1.6502 -1.2465 -0.1051
12038TIP3    H257606   3.129   2.187  14.072  0.1724  2.2411  0.0048
12039TIP3   OH257607   0.629   4.627  13.711 -0.0309 -0.2996  0.0717
12039TIP3    H157608   0.685   4.552  13.732  1.4188  0.9954  1.0967
12039TIP3    H257609   0.647   4.645  13.618 -0.1109 -0.9920 -0.0814
12040TIP3   OH257610   1.487   2.384  11.387  0.1068  0.6660 -0.6283
12040TIP3    H157611   1.449   2.403  11.301 -1.0538 -1.0007 -0.5349
12040TIP3    H257612   1.431   2.314  11.423  0.9650  0.8626  1.1979
12041TIP3   OH257613   3.895   4.518  12.496 -0.4291  0.4962  0.3569
12041TIP3    H157614   3.979   4.472  12.500  0.9987  2.9758  1.1353
12041TIP3    H257615   3.856   4.505  12.582 -0.7979 -0.4852  0.0614
12042TIP3   OH257616   1.707   4.195   0.474  0.2600  0.5320  0.2644
12042TIP3    H157617   1.643   4.150   0.420  1.5975 -0.8104 -0.2787
12042TIP3    H257618   1.792   4.164   0.441  1.1619  1.3328  1.7251
12043TIP3   OH257619   4.287   0.318   3.025  0.7071 -0.1566 -0.3731
12043TIP3    H157620   4.269   0.409   2.998  0.8513 -0.5996 -2.1230
12043TIP3    H257621   4.362   0.325   3.084 -0.0260  0.9536  0.4792
12044TIP3   OH257622   2.320   4.590   0.571  0.2473 -0.5915  0.8661
12044TIP3    H157623   2.402   4.637   0.585 -0.5814  1.4523 -0.4453
12044TIP3    H257624   2.268   4.608   0.649  0.8090 -1.3963  1.4369
12045TIP3   OH257625   2.023   0.869  12.474  0.6921  0.2276 -0.2632
12045TIP3    H157626   2.027   0.824  12.558  1.8328  0.7293 -0.0334
12045TIP3    H257627   2.114   0.884  12.449  0.3730  1.9086 -0.5981
12046TIP3   OH257628   2.026   3.574   4.351 -0.4239  0.0699  0.1495
12046TIP3    H157629   1.964   3.644   4.330  0.0672  0.1838 -0.9535
12046TIP3    H257630   2.032   3.521   4.272  0.8951  0.0735  0.2208
12047TIP3   OH257631   1.664   3.064  12.595  0.3253  0.3799  0.0053
12047TIP3    H157632   1.664   3.047  12.689 -0.3359 -0.6819 -0.1726
12047TIP3    H257633   1.601   3.136  12.584 -0.2153 -0.0366  0.2996
12048TIP3   OH257634   0.592   3.219  13.950  0.2250  0.5549  0.3412
12048TIP3    H157635   0.583   3.302  13.904  1.9377  0.4248 -0.2950
12048TIP3    H257636   0.659   3.172  13.901  0.9382 -0.2632  2.0379
12049TIP3   OH257637   2.615   3.462  12.412  0.3172  1.0591 -0.0166
12049TIP3    H157638   2.696   3.442  12.366  0.3253  2.1300 -0.5155
12049TIP3    H257639   2.638   3.458  12.505  1.0325  1.6723 -0.1592
12050TIP3   OH257640   2.873   0.661   3.615 -0.3005  0.1763 -0.6170
12050TIP3    H157641   2.950   0.675   3.560 -0.3348 -1.0540 -1.0158
12050TIP3    H257642   2.849   0.749   3.646  0.8710  0.6501 -0.9982
12051TIP3   OH257643   1.652   6.456  15.462 -0.0619  0.2496  0.2752
12051TIP3    H157644   1.607   6.531  15.500  2.5766  0.8917  2.4712
12051TIP3    H257645   1.736   6.453  15.508  1.5057 -1.7638 -2.4320
12052TIP3   OH257646   2.177   3.209   5.191 -0.3290  0.1694  0.5887
12052TIP3    H157647   2.212   3.178   5.107 -4.6594  2.2037 -2.3679
12052TIP3    H257648   2.107   3.147   5.211  2.3408 -1.9753  4.5800
12053TIP3   OH257649   2.717   3.860  14.401 -0.1270 -0.6502 -0.0534
12053TIP3    H157650   2.734   3.951  14.427 -1.0523 -0.9893  1.8278
12053TIP3    H257651   2.804   3.823  14.387  0.2928  0.2767  0.0199
12054TIP3   OH257652   1.895   3.389  12.113  0.0728 -0.5113 -0.4001
12054TIP3    H157653   1.862   3.356  12.030  1.2470 -2.3774 -0.1951
12054TIP3    H257654   1.989   3.369  12.110  0.2510 -0.0039  1.0927
12055TIP3   OH257655   6.692   4.582   0.918  0.3690 -0.3542  0.6931
12055TIP3    H157656   6.709   4.622   1.003  0.6974 -0.8694  0.8793
12055TIP3    H257657   6.601   4.553   0.923 -0.6906  2.5347 -0.3537
12056TIP3   OH257658   4.213   2.024  16.461 -0.3695 -0.3289  1.0063
12056TIP3    H157659   4.196   1.938  16.422 -0.2404 -0.6350  1.6251
12056TIP3    H257660   4.196   2.085  16.389  0.0430 -0.8993  0.4009
12057TIP3   OH257661   5.452   3.016   0.140  0.1675  0.0249 -0.0201
12057TIP3    H157662   5.376   3.000   0.197  0.8020 -3.0259  0.1558
12057TIP3    H257663   5.415   3.018   0.052 -0.2794 -0.4210  0.1467
12058TIP3   OH257664   3.410   0.691  14.019 -0.1766  0.8939 -0.1781
12058TIP3    H157665   3.441   0.738  14.097 -1.4232  2.4312 -0.5515
12058TIP3    H257666   3.374   0.609  14.054 -0.0019  1.2059  0.7732
12059TIP3   OH257667   3.235   5.398   4.605 -0.4867 -0.6851  0.4749
12059TIP3    H157668   3.139   5.392   4.609 -0.7995  0.0268 -2.7081
12059TIP3    H257669   3.260   5.327   4.546  0.4044  1.4917 -1.9981
12060TIP3   OH257670   0.080   6.692  15.814  0.2466 -0.5965  0.6722
12060TIP3    H157671   0.077   6.600  15.790 -0.0792 -0.5185  0.4075
12060TIP3    H257672  -0.012   6.715  15.831 -0.0234  0.3274 -1.7330
12061TIP3   OH257673   3.300   3.104   4.715  0.2960  0.3224 -0.4824
12061TIP3    H157674   3.262   3.141   4.795  0.2705  1.2568 -0.9157
12061TIP3    H257675   3.374   3.051   4.745 -1.0596 -1.1869  0.3463
12062TIP3   OH257676   6.391   4.260  13.365  0.5207  0.3362 -0.0218
12062TIP3    H157677   6.331   4.232  13.433 -0.6958  1.2063 -0.7134
12062TIP3    H257678   6.423   4.178  13.326  1.3351 -0.1667  1.6371
12063TIP3   OH257679   1.101   0.276   6.733  0.0171 -0.0432 -0.3250
12063TIP3    H157680   1.131   0.319   6.812  0.4767 -1.0275  0.0548
12063TIP3    H257681   1.007   0.263   6.747 -0.1815  1.0260 -0.5540
12064TIP3   OH257682   2.549   0.245  11.579  0.2333  0.1535 -0.5578
12064TIP3    H157683   2.494   0.221  11.505 -1.5187  1.7185  0.1705
12064TIP3    H257684   2.524   0.334  11.601  0.9675 -0.1217  1.6803
12065TIP3   OH257685   6.682   1.738   3.308  0.0280  0.5719 -0.0187
12065TIP3    H157686   6.627   1.663   3.329 -1.4333  2.1195  1.9931
12065TIP3    H257687   6.745   1.703   3.245 -0.4285 -2.4003  0.9761
12066TIP3   OH257688   2.907   5.351   0.168 -0.3827  0.0363 -0.1079
12066TIP3    H157689   2.876   5.284   0.228  0.4535  0.2034  0.5224
12066TIP3    H257690   2.974   5.398   0.216 -0.1198  0.5674 -0.9608
12067TIP3   OH257691   4.487   5.657  17.033 -0.9896  0.1102  0.3934
12067TIP3    H157692   4.545   5.601  17.085 -0.6183 -0.0571 -0.1932
12067TIP3    H257693   4.431   5.700  17.098 -1.3338 -0.9935  0.8613
12068TIP3   OH257694   1.495   6.441   1.109  0.4788 -0.2209 -0.1488
12068TIP3    H157695   1.412   6.411   1.071  1.1052 -1.8037 -0.3094
12068TIP3    H257696   1.468   6.498   1.181 -0.7373  1.4645 -1.8361
12069TIP3   OH257697   2.596   6.295  13.577 -0.0878 -0.1680 -1.1539
12069TIP3    H157698   2.557   6.216  13.615  0.1104  0.3305  0.1163
12069TIP3    H257699   2.673   6.263  13.530  1.3225 -0.5564  1.2368
12070TIP3   OH257700   0.851   4.644   5.167  0.1466  0.0005  0.2667
12070TIP3    H157701   0.825   4.703   5.239  2.2159 -0.5356  1.5292
12070TIP3    H257702   0.811   4.560   5.189 -0.2527  0.1494  0.1154
12071TIP3   OH257703   6.233   2.712   3.566  0.7451 -0.2870 -0.5698
12071TIP3    H157704   6.286   2.704   3.645 -0.5542 -0.4057  0.3228
12071TIP3    H257705   6.260   2.795   3.527  0.2810  0.5934  0.8970
12072TIP3   OH257706   3.602   2.175   3.385 -0.5985  0.4618  0.3888
12072TIP3    H157707   3.625   2.144   3.472  1.9732 -3.5069 -1.3963
12072TIP3    H257708   3.529   2.120   3.358  0.5137 -0.4517 -0.9185
12073TIP3   OH257709   4.174   5.151   5.869  0.0946  0.0175 -0.3192
12073TIP3    H157710   4.202   5.103   5.791 -0.1358  2.2033 -1.8435
12073TIP3    H257711   4.142   5.084   5.928 -0.0979 -1.7114 -2.2605
12074TIP3   OH257712   3.799   4.044  15.634 -0.1904 -0.3055  0.3736
12074TIP3    H157713   3.704   4.036  15.630 -0.0310 -2.2941 -0.8258
12074TIP3    H257714   3.816   4.138  15.623 -1.9597 -0.1889 -2.4185
12075TIP3   OH257715   5.423   4.376  11.837 -0.8531  0.0440  0.9355
12075TIP3    H157716   5.463   4.296  11.804  0.2439  0.6764  0.6562
12075TIP3    H257717   5.395   4.355  11.926  0.9381 -0.2038  1.4783
12076TIP3   OH257718   2.963   4.879   6.410 -0.0487 -0.1408 -0.4749
12076TIP3    H157719   2.901   4.809   6.393  0.5164 -0.7165 -0.1847
12076TIP3    H257720   2.971   4.882   6.505  0.6834 -0.3589 -0.5229
12077TIP3   OH257721   0.168   2.886   0.068  0.1190  0.5667  0.7184
12077TIP3    H157722   0.258   2.873   0.037 -0.7159 -1.5513 -1.0564
12077TIP3    H257723   0.114   2.870  -0.009 -1.8303  1.2495  1.8841
12078TIP3   OH257724   2.790   3.737  17.211  0.6895  0.1571 -0.0991
12078TIP3    H157725   2.709   3.786  17.201  0.6427  0.2667  0.7343
12078TIP3    H257726   2.858   3.804  17.220  1.1169  0.0886 -2.3558
12079TIP3   OH257727   5.894   1.584   1.455  0.3488 -0.3533 -0.2909
12079TIP3    H157728   5.820   1.639   1.428 -0.6185 -2.0421 -1.2552
12079TIP3    H257729   5.971   1.628   1.418 -0.4324  0.1516 -1.3708
12080TIP3   OH257730   1.844   0.074  12.523  0.4671 -0.0583 -0.0573
12080TIP3    H157731   1.780   0.003  12.524  0.3871  0.0164  0.6404
12080TIP3    H257732   1.803   0.144  12.574  0.4569  0.5797 -0.9120
12081TIP3   OH257733   4.153   0.535   2.677 -0.5137 -0.2517 -0.4050
12081TIP3    H157734   4.064   0.567   2.695  0.7521  1.9282  3.0582
12081TIP3    H257735   4.190   0.599   2.617 -0.0978  1.2295  1.3369
12082TIP3   OH257736   3.914   4.514   3.831  0.3970  0.2749  0.3365
12082TIP3    H157737   3.985   4.550   3.884 -1.8791  1.2644  2.9979
12082TIP3    H257738   3.872   4.591   3.791  0.2034 -0.1853 -0.3628
12083TIP3   OH257739   5.411   5.068   2.802 -0.0073  0.5263  0.2711
12083TIP3    H157740   5.372   5.077   2.716 -1.0856 -3.3858  0.1843
12083TIP3    H257741   5.477   5.000   2.792 -0.6602 -0.5636  2.6132
12084TIP3   OH257742   5.683   5.438   4.940  0.0682 -0.1745 -0.1345
12084TIP3    H157743   5.675   5.396   4.855 -1.6701 -0.0619 -0.0549
12084TIP3    H257744   5.691   5.366   5.002 -1.7742 -0.3919 -0.1119
12085TIP3   OH257745   6.385   2.093   6.692  0.0198  0.6906 -0.2131
12085TIP3    H157746   6.472   2.106   6.655  0.6118  1.6367  1.3979
12085TIP3    H257747   6.374   2.166   6.753 -1.0852 -0.5213  1.1062
12086TIP3   OH257748   1.411   3.099  15.887 -0.2484 -0.0383 -0.2976
12086TIP3    H157749   1.408   3.164  15.957 -1.4898  1.3173 -1.5517
12086TIP3    H257750   1.424   3.150  15.807 -0.9185 -1.3567 -1.2888
12087TIP3   OH257751   0.093   5.837   5.901  0.1718 -0.0935  0.0501
12087TIP3    H157752   0.131   5.899   5.964 -1.6387  0.0201  1.0860
12087TIP3    H257753   0.149   5.759   5.908  1.8305  0.9953 -0.4867
12088TIP3   OH257754   1.131   2.130  12.894  0.4123 -0.3596  0.7129
12088TIP3    H157755   1.096   2.189  12.961 -0.1302  0.2975 -0.1224
12088TIP3    H257756   1.078   2.051  12.902  0.0402 -0.1089  0.7474
12089TIP3   OH257757   5.649   3.827  12.378  0.4955  0.2113 -0.1778
12089TIP3    H157758   5.561   3.859  12.396  0.5327 -0.3728  1.2009
12089TIP3    H257759   5.668   3.767  12.451  1.2253 -1.3046 -1.5614
12090TIP3   OH257760   1.921   0.425   1.132 -0.2001 -0.9266 -0.9875
12090TIP3    H157761   1.926   0.470   1.048  0.2758  0.7067 -0.1315
12090TIP3    H257762   1.839   0.454   1.171  0.2443 -0.5610 -0.3007
12091TIP3   OH257763   6.120   1.794   3.049  0.2009 -0.0101 -0.3117
12091TIP3    H157764   6.204   1.840   3.048 -1.9814  4.4573  0.8920
12091TIP3    H257765   6.093   1.795   3.141 -1.7218 -0.2520 -0.8446
12092TIP3   OH257766   6.450   3.273   0.094  0.0226 -0.3741  0.6665
12092TIP3    H157767   6.509   3.343   0.063 -0.8050 -0.1182 -0.3961
12092TIP3    H257768   6.509   3.207   0.131  1.0327 -0.3194 -0.7548
12093TIP3   OH257769   0.145   0.627  13.975 -0.4759 -0.2147 -0.4321
12093TIP3    H157770   0.187   0.711  13.957  1.1635 -0.7750  0.5873
12093TIP3    H257771   0.193   0.591  14.050 -0.3015 -2.6112 -1.5766
12094TIP3   OH257772   3.195   4.201   2.644 -0.1798  0.2121  0.6210
12094TIP3    H157773   3.219   4.260   2.573 -0.4458  0.6777  0.9063
12094TIP3    H257774   3.251   4.227   2.717 -0.5296  0.3382  0.8496
12095TIP3   OH257775   1.721   0.436   0.925  0.0110 -0.0248  0.2042
12095TIP3    H157776   1.801   0.480   0.895 -0.7356  0.5896 -0.9674
12095TIP3    H257777   1.658   0.451   0.854 -1.4137  0.2805  1.4885
12096TIP3   OH257778   0.975   3.948   0.455 -0.0535  0.2033  0.9606
12096TIP3    H157779   0.908   4.013   0.477 -1.3415  0.1627 -2.2036
12096TIP3    H257780   0.976   3.888   0.529 -3.3563  0.4073  1.3109
12097TIP3   OH257781   2.994   6.114   0.230  0.0335  0.0835 -0.1043
12097TIP3    H157782   2.902   6.092   0.244  0.2832 -0.6088  0.5416
12097TIP3    H257783   3.006   6.112   0.135 -0.9749  1.7145 -0.2880
12098TIP3   OH257784   0.990   1.122  12.321  0.5237  0.4813 -0.7238
12098TIP3    H157785   0.974   1.216  12.328 -1.9351  0.0061  1.1867
12098TIP3    H257786   0.907   1.085  12.291  0.3030 -1.3449  1.7615
12099TIP3   OH257787   3.253   3.336   0.100  0.4039  0.1082  0.1470
12099TIP3    H157788   3.302   3.259   0.130  3.1741  1.9663  0.7692
12099TIP3    H257789   3.237   3.319   0.007 -0.3625 -1.8154  0.5836
12100TIP3   OH257790   5.519   1.437  16.965  0.4869 -0.2719  0.0186
12100TIP3    H157791   5.479   1.431  16.879  1.3482 -0.1529 -0.3980
12100TIP3    H257792   5.598   1.384  16.959  0.4213 -0.4723  0.8161
12101TIP3   OH257793   0.513   4.032   2.931  0.8176 -0.2018 -0.3977
12101TIP3    H157794   0.507   4.003   3.022  0.1849 -2.8589 -1.2210
12101TIP3    H257795   0.547   4.122   2.937  0.5012 -0.1846  2.4446
12102TIP3   OH257796   4.367   6.175  11.956 -0.1102  0.0620  0.1037
12102TIP3    H157797   4.291   6.233  11.952  0.0183  0.1941 -0.4321
12102TIP3    H257798   4.430   6.213  11.896 -0.4483 -1.2398 -1.1512
12103TIP3   OH257799   1.716   3.133  13.650 -0.0132  0.4648  0.1653
12103TIP3    H157800   1.798   3.088  13.632  0.3680  1.3793 -0.4456
12103TIP3    H257801   1.724   3.217  13.604 -1.3481  0.5049 -0.0377
12104TIP3   OH257802   1.923   6.086  16.165 -0.1581  0.0232  0.2841
12104TIP3    H157803   2.008   6.058  16.130 -0.1314  0.5008 -0.0558
12104TIP3    H257804   1.858   6.040  16.112 -0.1108 -0.5972  0.7628
12105TIP3   OH257805   6.755   0.757   5.914 -0.3904 -0.2781  0.2828
12105TIP3    H157806   6.715   0.842   5.893 -1.7821 -1.1470 -0.7418
12105TIP3    H257807   6.784   0.766   6.005 -0.6447  1.2438  0.2349
12106TIP3   OH257808   3.090   0.211  14.626 -0.4765 -0.3884 -0.8427
12106TIP3    H157809   3.126   0.298  14.609  2.3231 -0.9033  1.6275
12106TIP3    H257810   2.995   0.223  14.620 -0.2789  3.1368  0.4971
12107TIP3   OH257811   2.443   1.768   0.511  0.2061  0.3831 -0.1063
12107TIP3    H157812   2.468   1.860   0.503  0.2753  0.2744 -1.3009
12107TIP3    H257813   2.523   1.725   0.541  0.1901  0.7007  0.3984
12108TIP3   OH257814   5.575   0.588  15.114 -0.1344  0.6104 -0.4369
12108TIP3    H157815   5.600   0.557  15.201  0.1390 -1.8023 -1.2975
12108TIP3    H257816   5.498   0.535  15.091 -0.7189  1.8002 -1.3443
12109TIP3   OH257817   3.807   4.891  13.256  0.6682  0.5193  0.1232
12109TIP3    H157818   3.836   4.907  13.166 -1.1668 -0.3279 -0.6699
12109TIP3    H257819   3.796   4.979  13.293  2.2331  0.8728 -0.1603
12110TIP3   OH257820   1.405   4.454   3.988  0.2809  0.3430 -0.2211
12110TIP3    H157821   1.339   4.516   3.957  0.4637  1.7195  1.9298
12110TIP3    H257822   1.488   4.493   3.960  0.3072  0.1276 -0.4377
12111TIP3   OH257823   5.885   0.351   3.657 -0.1271 -0.0695  0.4714
12111TIP3    H157824   5.812   0.299   3.624 -2.1398  2.4502  0.5697
12111TIP3    H257825   5.934   0.376   3.579  0.1483 -1.1169  0.3064
12112TIP3   OH257826   0.210   3.501   1.431  0.2864 -0.2508 -0.0814
12112TIP3    H157827   0.300   3.522   1.410  1.0039 -1.4545  1.5163
12112TIP3    H257828   0.209   3.406   1.438 -1.1864 -0.2779 -0.3498
12113TIP3   OH257829   6.289   1.200   1.739 -0.4997  0.3269  0.3643
12113TIP3    H157830   6.304   1.197   1.644 -2.2969 -3.0734  0.0359
12113TIP3    H257831   6.197   1.224   1.748 -0.9534 -1.5125  1.0577
12114TIP3   OH257832   2.883   4.231  11.663  0.0166  0.0055 -0.0693
12114TIP3    H157833   2.821   4.288  11.708 -0.5193  1.2796 -2.2726
12114TIP3    H257834   2.832   4.154  11.640 -0.6443  0.7877 -1.3378
12115TIP3   OH257835   0.578   6.718  15.768 -0.2869  0.9971  0.3157
12115TIP3    H157836   0.512   6.652  15.750  0.9746 -0.4741  0.8397
12115TIP3    H257837   0.539   6.774  15.834 -1.0715  0.2520  0.4952
12116TIP3   OH257838   4.451   4.294  15.366  0.4125  0.2803  0.3434
12116TIP3    H157839   4.490   4.242  15.296 -0.6084  1.7375 -1.3784
12116TIP3    H257840   4.419   4.229  15.429  0.1181 -1.1358 -1.2007
12117TIP3   OH257841   0.283   3.425  14.032 -0.3997 -0.2786 -0.0790
12117TIP3    H157842   0.201   3.444  14.078 -0.0789  1.8558 -0.2877
12117TIP3    H257843   0.320   3.350  14.079 -2.4954 -1.3648 -0.0655
12118TIP3   OH257844   6.692   5.567   5.921  0.2045  0.0266 -0.2553
12118TIP3    H157845   6.646   5.639   5.963 -0.9723 -0.7882 -0.0858
12118TIP3    H257846   6.785   5.586   5.935 -0.0427  1.9118 -0.9240
12119TIP3   OH257847   2.126   0.286  14.571 -0.0150  0.4119 -0.5818
12119TIP3    H157848   2.050   0.250  14.525 -0.3736  1.3783 -0.7807
12119TIP3    H257849   2.154   0.360  14.516 -1.0294  2.2105  1.1701
12120TIP3   OH257850   5.620   2.315  15.618  0.3170  0.7189  0.0488
12120TIP3    H157851   5.581   2.287  15.702 -0.8358 -2.1910 -1.2875
12120TIP3    H257852   5.708   2.277  15.619 -0.3898 -1.0972 -0.7580
12121TIP3   OH257853   4.121   6.346  15.468 -0.0477 -0.5685  0.1504
12121TIP3    H157854   4.084   6.429  15.437  2.2113  1.1182  1.7031
12121TIP3    H257855   4.084   6.336  15.556  0.0716 -0.9535  0.1547
12122TIP3   OH257856   1.114   1.504   1.563  0.1384 -0.0648 -0.5187
12122TIP3    H157857   1.076   1.525   1.478  0.3418  0.4161 -0.4942
12122TIP3    H257858   1.061   1.553   1.626  0.0086 -0.3935 -0.3696
12123TIP3   OH257859   6.023   6.122  10.872 -0.5173  0.1110 -0.0271
12123TIP3    H157860   6.016   6.094  10.781  0.8536 -0.6533  0.0743
12123TIP3    H257861   6.026   6.041  10.922  1.0198  0.4527  0.4847
12124TIP3   OH257862   0.805   2.680   0.591 -0.1054 -0.2837  0.3062
12124TIP3    H157863   0.862   2.748   0.627 -0.4582 -0.4124  1.1394
12124TIP3    H257864   0.794   2.704   0.499  1.1634 -0.1691  0.1592
12125TIP3   OH257865   6.686   3.239   6.649 -0.4170 -0.1724  0.1922
12125TIP3    H157866   6.656   3.320   6.690  0.2750 -0.6525  1.7465
12125TIP3    H257867   6.776   3.258   6.621 -1.5650  0.8537 -3.2653
12126TIP3   OH257868   5.112   5.200  11.697  0.5799  0.3556 -0.0245
12126TIP3    H157869   5.202   5.201  11.730  0.6911 -1.0541 -0.1796
12126TIP3    H257870   5.120   5.161  11.610 -0.2899 -0.8388  0.4067
12127TIP3   OH257871   1.712   3.502  17.443  0.1422  0.0450  0.0560
12127TIP3    H157872   1.709   3.436  17.374 -0.2141  2.4892 -2.4565
12127TIP3    H257873   1.623   3.506  17.477  0.1984 -0.8248  0.3191
12128TIP3   OH257874   0.206   0.778  13.325 -0.0674  0.1254 -0.2910
12128TIP3    H157875   0.278   0.750  13.382 -1.6800 -0.7922  1.4105
12128TIP3    H257876   0.219   0.727  13.245  1.6147  0.5880 -0.3551
12129TIP3   OH257877   0.704   5.652  12.917  0.2262  1.1490 -0.6151
12129TIP3    H157878   0.642   5.699  12.973 -0.3619 -1.5628  1.1681
12129TIP3    H257879   0.784   5.646  12.969 -0.6076 -2.1946  0.5245
12130TIP3   OH257880   1.833   5.219  13.919 -0.5644 -0.6142  0.4347
12130TIP3    H157881   1.883   5.298  13.938 -0.2692 -0.2699 -1.5631
12130TIP3    H257882   1.899   5.154  13.893 -1.0581 -0.3793 -1.5110
12131TIP3   OH257883   6.224   2.687   1.595  0.3656  0.0552 -0.0148
12131TIP3    H157884   6.161   2.624   1.629 -0.7965  1.2224  0.0584
12131TIP3    H257885   6.298   2.681   1.656  0.1441 -0.9907  0.1790
12132TIP3   OH257886   1.055   2.896  16.165 -0.2592 -0.2091 -0.3017
12132TIP3    H157887   1.028   2.988  16.169  3.8159  1.2651 -1.1771
12132TIP3    H257888   1.022   2.865  16.081 -0.8354  0.7876 -0.4665
12133TIP3   OH257889   4.918   1.072  14.385 -0.2762  0.1453  0.4502
12133TIP3    H157890   4.937   1.148  14.440  0.6471  0.8714 -0.8279
12133TIP3    H257891   5.004   1.033  14.368 -0.6222 -0.4793  0.0932
12134TIP3   OH257892   3.733   4.172  11.059  0.3459  0.0125 -0.0832
12134TIP3    H157893   3.662   4.108  11.061 -0.3575  0.7060 -1.2447
12134TIP3    H257894   3.694   4.253  11.093  0.1504  0.7500 -1.9210
12135TIP3   OH257895   6.097   4.087   0.425 -0.0512 -0.0845 -0.0690
12135TIP3    H157896   6.021   4.085   0.367  0.1237 -2.9260 -0.3317
12135TIP3    H257897   6.067   4.044   0.505  0.9056  0.0598  0.3853
12136TIP3   OH257898   5.331   0.917   1.585 -0.0619 -0.1720 -0.4452
12136TIP3    H157899   5.253   0.938   1.636 -2.1715 -0.3768 -3.2985
12136TIP3    H257900   5.350   0.826   1.607 -0.8262 -0.2187  0.0626
12137TIP3   OH257901   4.439   1.193  11.233 -0.4485  0.4886 -0.4276
12137TIP3    H157902   4.361   1.237  11.199 -0.6761  0.3087 -0.1397
12137TIP3    H257903   4.419   1.100  11.226  0.8987  0.3051 -3.1500
12138TIP3   OH257904   4.383   5.764  14.789  0.2902  0.3995 -0.1131
12138TIP3    H157905   4.382   5.739  14.881  0.7605  2.5649  0.5372
12138TIP3    H257906   4.312   5.828  14.780  0.5950  0.6221 -1.1278
12139TIP3   OH257907   0.818   4.904   2.013  0.3048  0.1040  0.7000
12139TIP3    H157908   0.792   4.825   2.062 -1.1709  0.5372  0.6786
12139TIP3    H257909   0.843   4.872   1.927 -2.4721 -0.2053 -0.0784
12140TIP3   OH257910   5.415   0.925  13.689 -0.3253  1.1306  0.2644
12140TIP3    H157911   5.450   1.014  13.691  0.0587  0.9859  0.1249
12140TIP3    H257912   5.429   0.891  13.777 -0.5402  1.2369  0.3372
12141TIP3   OH257913   1.804   3.744   4.762 -0.4080  0.2014 -0.2904
12141TIP3    H157914   1.870   3.679   4.786 -0.2369  0.8903  1.2648
12141TIP3    H257915   1.721   3.704   4.785 -0.3425  0.2843  0.1056
12142TIP3   OH257916   5.460   6.672   1.344  0.1042 -0.2698  0.0630
12142TIP3    H157917   5.427   6.761   1.352  1.0453  0.1426 -0.4462
12142TIP3    H257918   5.555   6.681   1.350  0.2825 -1.0961 -1.1301
12143TIP3   OH257919   4.162   3.875  15.299  0.1473  0.5347  0.1455
12143TIP3    H157920   4.217   3.916  15.232 -1.2365  1.0695 -0.6909
12143TIP3    H257921   4.224   3.825  15.352  1.3103  0.2793 -1.3756
12144TIP3   OH257922   4.596   3.799  16.483 -0.4151 -0.1786 -0.0787
12144TIP3    H157923   4.582   3.705  16.476  2.7928 -0.7067 -1.0437
12144TIP3    H257924   4.580   3.819  16.575 -0.1211 -1.8812  0.3747
12145TIP3   OH257925   5.433   5.593  13.128  0.1822  0.2768  0.0194
12145TIP3    H157926   5.521   5.623  13.154 -1.0325  2.6389  1.8323
12145TIP3    H257927   5.406   5.656  13.060 -0.0202 -0.6082 -0.7317
12146TIP3   OH257928   3.252   3.449   4.624 -0.3018  0.0855  0.0351
12146TIP3    H157929   3.169   3.471   4.666 -0.2288 -1.7235  1.2609
12146TIP3    H257930   3.239   3.361   4.590  0.8120  0.1639 -0.6496
12147TIP3   OH257931   0.197   3.353  12.954 -0.1509  0.0368  0.5580
12147TIP3    H157932   0.178   3.419  13.021  2.4036  1.3269  0.1216
12147TIP3    H257933   0.195   3.401  12.872  1.5712 -0.4528  0.2069
12148TIP3   OH257934   3.328   4.233  16.037  0.3176 -0.3176  0.2708
12148TIP3    H157935   3.252   4.276  16.077  0.7842  2.0366 -1.1595
12148TIP3    H257936   3.379   4.200  16.112 -1.7281 -1.3805  1.2854
12149TIP3   OH257937   4.015   6.573  14.427 -0.2588  0.1021  0.1985
12149TIP3    H157938   4.092   6.573  14.371 -0.4422 -0.3667 -0.0570
12149TIP3    H257939   4.049   6.559  14.515 -0.1016 -0.7319  0.0106
12150TIP3   OH257940   4.970   1.334  15.623 -0.4943 -0.2880 -0.2376
12150TIP3    H157941   5.054   1.295  15.644 -0.9939 -1.7551 -0.8485
12150TIP3    H257942   4.950   1.391  15.698  1.4514  0.8336 -0.5222
12151TIP3   OH257943   2.322   3.326  11.498  0.0810 -0.6841  0.2333
12151TIP3    H157944   2.257   3.258  11.512  1.4807 -2.6122 -1.8751
12151TIP3    H257945   2.288   3.376  11.424 -0.2737  0.0547  0.8832
12152TIP3   OH257946   2.104   2.351  14.398  0.2782 -0.1492  0.5798
12152TIP3    H157947   2.125   2.281  14.461 -0.1078 -0.5979  0.2147
12152TIP3    H257948   2.014   2.334  14.372  0.2492  0.3681  0.3253
12153TIP3   OH257949   4.667   6.415  14.306  0.2145 -0.3653 -0.0032
12153TIP3    H157950   4.662   6.430  14.400 -0.4467  1.7792 -0.3243
12153TIP3    H257951   4.575   6.406  14.278  0.4411 -1.9517 -0.3459
12154TIP3   OH257952   2.153   0.323  13.148 -0.3615 -0.6946 -0.3715
12154TIP3    H157953   2.107   0.398  13.187  0.3156  0.6051 -1.9180
12154TIP3    H257954   2.129   0.249  13.202  0.3389  0.9263  2.3497
12155TIP3   OH257955   0.517   0.032   5.630 -0.3093 -0.4307  0.1136
12155TIP3    H157956   0.493  -0.057   5.602  0.3668 -0.5091 -0.2358
12155TIP3    H257957   0.604   0.046   5.593  0.0427 -0.0230  1.0586
12156TIP3   OH257958   0.453   4.571   3.892  0.0631  0.5721 -0.0501
12156TIP3    H157959   0.392   4.643   3.911  2.0005  1.8267  1.9332
12156TIP3    H257960   0.535   4.598   3.935  1.0045 -2.6332  0.3823
12157TIP3   OH257961   0.526   0.149   0.445 -0.2011  0.5271 -0.3985
12157TIP3    H157962   0.594   0.195   0.493 -1.7369  1.1230  1.3315
12157TIP3    H257963   0.472   0.218   0.406 -1.1022  0.1592  0.1575
12158TIP3   OH257964   4.004   5.075  11.262 -0.2893 -0.3850 -0.1728
12158TIP3    H157965   3.992   5.167  11.238  0.3623 -0.6855 -1.7900
12158TIP3    H257966   4.042   5.078  11.350  0.3171  0.9243 -0.4553
12159TIP3   OH257967   1.058   1.160   0.527 -0.0850 -0.7850 -0.5519
12159TIP3    H157968   1.019   1.146   0.441 -1.9147 -1.0051  0.2659
12159TIP3    H257969   1.068   1.255   0.533 -0.8706 -0.6934 -0.6283
12160TIP3   OH257970   4.316   1.692  12.009  0.0823 -0.0038 -0.1503
12160TIP3    H157971   4.245   1.652  12.058  0.8601 -0.9588  0.2498
12160TIP3    H257972   4.274   1.735  11.934 -1.2070  2.0095  1.6186
12161TIP3   OH257973   6.455   1.586   0.176 -0.0500  0.0493  0.1581
12161TIP3    H157974   6.540   1.572   0.218  1.9094  1.8120 -2.8554
12161TIP3    H257975   6.403   1.632   0.242  1.6967 -0.0993  1.7246
12162TIP3   OH257976   1.474   0.486   5.815  0.5879  0.2034  0.2965
12162TIP3    H157977   1.462   0.392   5.802 -1.4692  0.4554  0.0838
12162TIP3    H257978   1.545   0.510   5.756  0.4795 -1.0515 -0.3662
12163TIP3   OH257979   3.505   2.978  16.666  0.2734  0.4602 -0.6324
12163TIP3    H157980   3.500   3.056  16.720  0.8689 -0.6853  1.1646
12163TIP3    H257981   3.572   2.998  16.600 -0.4786  1.8803 -1.0040
12164TIP3   OH257982   1.494   6.051  16.529 -0.3600 -0.2568 -0.0843
12164TIP3    H157983   1.445   6.129  16.503 -0.8373 -0.3062  0.6244
12164TIP3    H257984   1.536   6.076  16.611  1.3049 -0.0219 -0.9798
12165TIP3   OH257985   5.477   0.330   0.631  0.2110 -0.0181  0.1633
12165TIP3    H157986   5.399   0.332   0.686 -0.2803 -0.0132 -0.5239
12165TIP3    H257987   5.546   0.366   0.687  0.1159 -1.5889  1.3861
12166TIP3   OH257988   4.198   2.144  17.031  0.0944 -0.4110 -0.0072
12166TIP3    H157989   4.120   2.140  16.975 -1.3942  0.4448  1.8674
12166TIP3    H257990   4.177   2.085  17.104 -0.0849  1.9585  1.9574
12167TIP3   OH257991   5.709   4.414   6.102  0.3323  0.1678 -0.1091
12167TIP3    H157992   5.727   4.492   6.155  2.5179 -0.6454  0.4380
12167TIP3    H257993   5.769   4.422   6.028 -1.4638  0.4023 -1.6233
12168TIP3   OH257994   5.583   2.457  15.069  0.1577  0.5019 -0.0367
12168TIP3    H157995   5.585   2.436  15.163 -0.5299  0.5321 -0.0079
12168TIP3    H257996   5.551   2.548  15.067  0.3575  0.5654 -0.2929
12169TIP3   OH257997   4.913   5.982   0.583 -0.5565  0.1711 -0.1808
12169TIP3    H157998   4.900   6.060   0.529 -0.9751  0.8533  0.8667
12169TIP3    H257999   4.891   6.010   0.671 -1.2632 -1.2882  0.1436
12170TIP3   OH258000   3.047   1.605   4.212  0.3168  0.2936  0.3066
12170TIP3    H158001   3.134   1.577   4.241  1.0596 -1.3555 -3.0208
12170TIP3    H258002   2.994   1.526   4.216  0.0723  0.3415 -1.2587
12171TIP3   OH258003   3.270   5.881  13.552  0.2132 -0.4204  0.1142
12171TIP3    H158004   3.229   5.941  13.489  2.4794 -1.6273 -2.7364
12171TIP3    H258005   3.361   5.911  13.558  0.2770 -0.8876  2.2269
12172TIP3   OH258006   2.998   1.832   5.751 -0.5379 -0.1520 -0.0777
12172TIP3    H158007   3.067   1.830   5.684 -0.3508  1.7276  0.0117
12172TIP3    H258008   3.044   1.854   5.832 -0.3879 -4.5759  1.2976
12173TIP3   OH258009   2.324   0.067  13.922  0.2867  0.7475 -0.1802
12173TIP3    H158010   2.236   0.080  13.955  0.1800  1.1742 -0.6213
12173TIP3    H258011   2.366   0.011  13.987 -1.0070 -1.3846 -1.0877
12174TIP3   OH258012   4.441   2.920  11.013 -0.6923  0.2663 -0.2958
12174TIP3    H158013   4.372   2.980  10.985 -0.8238  0.7896  1.0537
12174TIP3    H258014   4.518   2.945  10.963 -1.0245  0.8540 -0.5188
12175TIP3   OH258015   0.224   3.146  15.317 -0.2084  0.2131 -0.9574
12175TIP3    H158016   0.275   3.100  15.383 -2.3128  1.7652  1.9771
12175TIP3    H258017   0.284   3.212  15.282  1.0548 -0.8714 -0.9268
12176TIP3   OH258018   2.277   1.763  14.442 -0.1969 -0.0622  0.3722
12176TIP3    H158019   2.234   1.720  14.367  0.5618  0.8733 -0.6412
12176TIP3    H258020   2.370   1.741  14.431  0.0606  0.9721  0.4126
12177TIP3   OH258021   4.018   6.628  12.261 -0.1180 -0.6369  0.1943
12177TIP3    H158022   3.979   6.551  12.218 -1.0263 -0.0014 -0.1561
12177TIP3    H258023   4.016   6.696  12.194  0.7354 -0.3171  0.4866
12178TIP3   OH258024   6.089   4.143  13.875  0.1671  0.1097 -0.3426
12178TIP3    H158025   6.180   4.152  13.847  0.2044  0.3723 -0.1362
12178TIP3    H258026   6.066   4.227  13.913  0.6818 -0.7527  2.0458
12179TIP3   OH258027   3.678   1.230   0.196 -0.3053 -0.2673  0.1028
12179TIP3    H158028   3.759   1.278   0.178 -0.9863  1.1344  0.6083
12179TIP3    H258029   3.681   1.155   0.137  0.3962  0.8641 -1.3629
12180TIP3   OH258030   3.308   3.111  14.016  0.4868 -0.8212  0.3631
12180TIP3    H158031   3.221   3.078  14.038 -0.0832  0.9083  0.7722
12180TIP3    H258032   3.366   3.036  14.033 -0.9092 -2.0843 -0.1343
12181TIP3   OH258033   1.457   4.833  11.974  0.3535 -0.1102 -0.1922
12181TIP3    H158034   1.551   4.840  11.963  0.3981  3.1021  1.1926
12181TIP3    H258035   1.422   4.837  11.884  1.4692 -0.5942 -0.6640
12182TIP3   OH258036   3.834   5.642  11.340 -0.1496 -0.1052 -0.3508
12182TIP3    H158037   3.764   5.703  11.316 -0.8506 -1.2862 -1.3873
12182TIP3    H258038   3.851   5.591  11.261  0.8691 -0.8415  0.3084
12183TIP3   OH258039   6.602   2.814  15.367  0.0497  0.5032  0.1622
12183TIP3    H158040   6.652   2.757  15.309  0.5850  0.8061  0.3086
12183TIP3    H258041   6.511   2.801  15.343  0.2532  0.5257 -0.6522
12184TIP3   OH258042   3.931   2.553  12.561 -0.4691  0.5105  0.2043
12184TIP3    H158043   3.977   2.563  12.478 -1.6050 -1.6875 -0.7538
12184TIP3    H258044   3.895   2.640  12.579  0.7746  1.3040 -0.9837
12185TIP3   OH258045   0.239   6.697  12.385 -0.2207 -0.4474 -0.0377
12185TIP3    H158046   0.162   6.726  12.337 -0.4442 -0.6103  0.2176
12185TIP3    H258047   0.203   6.653  12.463  0.1208 -0.9191 -0.1454
12186TIP3   OH258048   4.025   1.130   0.882 -0.4208 -0.0261  0.9711
12186TIP3    H158049   4.075   1.048   0.882 -0.5565 -0.1225  1.7381
12186TIP3    H258050   4.052   1.174   0.963 -1.4533 -0.0135  1.3235
12187TIP3   OH258051   5.163   1.169  12.298  0.0953 -0.1494 -0.1051
12187TIP3    H158052   5.154   1.191  12.391  1.1851  1.7639 -0.3878
12187TIP3    H258053   5.111   1.236  12.253 -3.5974 -3.1610 -0.8797
12188TIP3   OH258054   6.110   4.762  11.754  0.1070 -0.0362 -0.2734
12188TIP3    H158055   6.195   4.801  11.732  0.7573 -0.1391  1.8241
12188TIP3    H258056   6.114   4.748  11.848 -2.4050  0.2920 -0.0531
12189TIP3   OH258057   6.218   3.585   1.340  0.2269  0.0591  0.3897
12189TIP3    H158058   6.183   3.655   1.395 -0.0001  0.9520 -0.8486
12189TIP3    H258059   6.156   3.578   1.268  1.6175  0.3910 -0.8728
12190TIP3   OH258060   0.543   5.256   0.533 -0.2478 -0.0921  0.0235
12190TIP3    H158061   0.584   5.279   0.450  0.5497  0.5100  0.5710
12190TIP3    H258062   0.616   5.245   0.593 -0.8310 -0.2949  0.7099
12191TIP3   OH258063   0.937   6.251  14.587  0.5597 -0.1879 -0.2332
12191TIP3    H158064   0.899   6.192  14.652  1.2363 -1.4790 -0.9623
12191TIP3    H258065   0.897   6.336  14.605 -1.0027 -1.0131  0.4110
12192TIP3   OH258066   1.956   5.004   2.795  0.4201 -0.3447  0.1398
12192TIP3    H158067   2.032   5.027   2.847  0.5795  1.4394 -0.8223
12192TIP3    H258068   1.881   5.033   2.847  0.5186  0.2313 -0.0377
12193TIP3   OH258069   5.107   1.032   1.735 -0.2524 -0.7662  0.2682
12193TIP3    H158070   5.055   0.953   1.746 -1.1943 -0.2671 -0.4493
12193TIP3    H258071   5.043   1.102   1.723  0.5691 -0.2376 -1.4121
12194TIP3   OH258072   2.409   2.490   3.120  0.3628 -0.2161 -0.3400
12194TIP3    H158073   2.480   2.435   3.154 -0.0098 -0.1811  0.5171
12194TIP3    H258074   2.329   2.449   3.154 -0.1412 -1.0807 -2.4399
12195TIP3   OH258075   0.404   0.954  12.985 -0.4412 -0.7790 -0.2760
12195TIP3    H158076   0.345   0.964  13.060  0.8275  0.5634  0.6130
12195TIP3    H258077   0.348   0.922  12.914 -2.3316  0.8260  0.3924
12196TIP3   OH258078   3.098   1.201   6.236  0.4353  0.3645  0.2835
12196TIP3    H158079   3.003   1.213   6.233  0.1592 -1.7338 -1.7297
12196TIP3    H258080   3.128   1.265   6.301 -2.3403  0.9894  1.0727
12197TIP3   OH258081   2.193   2.343   3.868 -0.8389 -0.7196 -0.0399
12197TIP3    H158082   2.188   2.410   3.800 -0.9881 -1.2993 -0.6141
12197TIP3    H258083   2.169   2.388   3.948 -2.0091 -0.3357 -0.5948
12198TIP3   OH258084   2.457   5.510  13.509  0.0829  0.0646 -0.5602
12198TIP3    H158085   2.441   5.423  13.546 -1.7458  0.4411 -0.3993
12198TIP3    H258086   2.430   5.502  13.417  1.0917  0.1410 -0.8728
12199TIP3   OH258087   4.013   2.065  13.730 -0.4364 -0.3618  0.1236
12199TIP3    H158088   3.941   2.030  13.784 -0.9628 -0.0412 -0.3536
12199TIP3    H258089   4.031   2.151  13.769  0.4680 -0.9031  0.9401
12200TIP3   OH258090   2.441   1.047  11.805 -0.5365  0.1745  0.0633
12200TIP3    H158091   2.460   1.123  11.861 -1.1089  0.9690 -0.7958
12200TIP3    H258092   2.464   0.971  11.860  0.2448  0.9561  0.8650
12201TIP3   OH258093   5.076   3.378  11.297  0.7657  0.1309  0.1550
12201TIP3    H158094   5.137   3.384  11.223  2.3629 -0.5702  1.3489
12201TIP3    H258095   5.131   3.352  11.371 -0.7947  0.7510  1.5880
12202TIP3   OH258096   5.435   2.827   2.123 -0.4394  0.1876 -0.1830
12202TIP3    H158097   5.527   2.801   2.119 -0.2510  0.6469  0.8392
12202TIP3    H258098   5.388   2.745   2.142 -0.1346  0.1141  0.2832
12203TIP3   OH258099   1.690   3.713  14.045  0.2101  0.3212 -0.3106
12203TIP3    H158100   1.650   3.737  13.961  1.3689 -0.1349 -1.0188
12203TIP3    H258101   1.782   3.738  14.036  0.4327 -0.0832  0.6892
12204TIP3   OH258102   6.648   0.245   4.536 -0.7007 -0.1439  0.1135
12204TIP3    H158103   6.662   0.328   4.582 -3.9853 -0.4801  2.0204
12204TIP3    H258104   6.687   0.179   4.593  0.4863 -0.1003 -0.6138
12205TIP3   OH258105   5.254   1.838  12.638  0.1361 -0.4136 -0.1496
12205TIP3    H158106   5.184   1.849  12.703  1.0478 -0.1427  0.8027
12205TIP3    H258107   5.207   1.831  12.555 -1.1503 -2.1548  0.6465
12206TIP3   OH258108   0.758   4.324  13.450  0.4889 -0.2006 -0.1322
12206TIP3    H158109   0.726   4.253  13.396  0.3744 -0.5264  0.3582
12206TIP3    H258110   0.821   4.370  13.395 -2.1006  1.5892 -1.8290
12207TIP3   OH258111   5.545   0.784  14.288 -0.4028 -0.0450 -0.2573
12207TIP3    H158112   5.518   0.696  14.260 -1.1063 -0.7729  2.4493
12207TIP3    H258113   5.599   0.769  14.365  2.3011  1.8052 -1.6440
12208TIP3   OH258114   1.788   1.169  14.212 -0.2065 -0.1036 -0.0733
12208TIP3    H158115   1.794   1.158  14.307  2.2206  1.9809  0.1317
12208TIP3    H258116   1.839   1.096  14.176  0.8915  0.4233  0.3764
12209TIP3   OH258117   6.032   5.201   3.767 -0.4624 -0.1335 -0.1179
12209TIP3    H158118   6.076   5.247   3.696 -0.4821 -2.4600 -1.7687
12209TIP3    H258119   6.103   5.163   3.819 -0.4303 -1.5869 -1.1692
12210TIP3   OH258120   0.370   6.125   6.776  0.6650 -0.2246 -0.4284
12210TIP3    H158121   0.314   6.048   6.769  0.3643 -0.1623  1.0785
12210TIP3    H258122   0.443   6.097   6.831  1.4199  0.1007 -1.2358
12211TIP3   OH258123   6.685   1.561  11.116  0.3786  0.5019 -0.5892
12211TIP3    H158124   6.778   1.585  11.122  0.3635  0.2343  1.7628
12211TIP3    H258125   6.639   1.645  11.123  0.4127  0.6075 -1.4871
12212TIP3   OH258126   0.767   5.051  13.706 -0.0009 -0.3483 -0.0856
12212TIP3    H158127   0.791   5.082  13.793  0.8810 -2.8674  0.6796
12212TIP3    H258128   0.690   4.995  13.721  0.1133 -0.7471 -0.9101
12213TIP3   OH258129   4.706   1.093  14.003  0.0242  0.4700  0.6015
12213TIP3    H158130   4.797   1.112  13.982  0.7072 -1.5697  1.4248
12213TIP3    H258131   4.656   1.159  13.956  1.8204  0.4243 -1.5408
12214TIP3   OH258132   3.103   0.151   5.513 -0.0955  0.0832  0.1254
12214TIP3    H158133   3.121   0.075   5.457 -1.9714  0.1037 -0.5826
12214TIP3    H258134   3.150   0.223   5.471  0.3868 -0.3630 -0.1117
12215TIP3   OH258135   0.915   1.250   3.570 -0.1749  0.4657  0.6725
12215TIP3    H158136   0.892   1.280   3.482 -1.5737 -3.0867 -0.3444
12215TIP3    H258137   1.003   1.213   3.561 -1.5684 -3.0506 -0.3212
12216TIP3   OH258138   0.277   2.756   6.605  0.5648  0.0352 -0.3810
12216TIP3    H158139   0.318   2.738   6.690  0.3437  0.0764 -0.2649
12216TIP3    H258140   0.343   2.804   6.556 -0.0700  1.9046  0.5258
12217TIP3   OH258141   6.144   0.305  16.514  0.1078 -0.0693 -0.0627
12217TIP3    H158142   6.147   0.214  16.543 -0.1736  0.2000  0.8196
12217TIP3    H258143   6.188   0.304  16.429 -2.0438 -1.4606 -1.2512
12218TIP3   OH258144   5.509   4.343   0.833 -0.2891 -0.0433  0.1293
12218TIP3    H158145   5.580   4.376   0.777 -1.1819  0.2510 -0.8609
12218TIP3    H258146   5.522   4.248   0.834 -0.3196 -0.0656 -0.6822
12219TIP3   OH258147   0.869   3.364  13.316  0.3319 -0.1041 -0.1076
12219TIP3    H158148   0.813   3.379  13.392  1.3636 -0.5048  0.7615
12219TIP3    H258149   0.855   3.440  13.260  0.2735  0.6705  0.9367
12220TIP3   OH258150   1.502   3.732   0.481  0.0157  0.2608  0.0038
12220TIP3    H158151   1.562   3.728   0.556 -1.1017 -0.8009  0.8837
12220TIP3    H258152   1.549   3.783   0.416  1.3826  0.4824  1.1083
12221TIP3   OH258153   4.261   1.668   4.894 -0.1586  0.1105  0.7155
12221TIP3    H158154   4.194   1.736   4.896  0.3333  0.5956  1.0885
12221TIP3    H258155   4.341   1.712   4.925 -0.6948 -1.5359  5.1599
12222TIP3   OH258156   2.474   1.950   5.379 -1.0636  0.0163 -0.1928
12222TIP3    H158157   2.458   1.857   5.360 -1.3417  0.5523 -2.9867
12222TIP3    H258158   2.513   1.984   5.299 -0.7541  2.2840  0.8633
12223TIP3   OH258159   0.081   0.683   0.082 -0.3550  0.4114 -0.2577
12223TIP3    H158160   0.133   0.751   0.126 -0.4035  0.1304  0.2425
12223TIP3    H258161   0.134   0.604   0.089  0.2560  0.6338 -1.9008
12224TIP3   OH258162   6.059   1.260   5.023  0.3361  0.4010  0.2229
12224TIP3    H158163   6.064   1.323   4.951 -0.7292 -0.9036 -1.0719
12224TIP3    H258164   6.113   1.187   4.994  0.0070 -0.0868  0.8243
12225TIP3   OH258165   4.635   2.123  17.490 -0.0132  0.2209 -0.0358
12225TIP3    H158166   4.626   2.214  17.520  1.6576  0.1427  0.8419
12225TIP3    H258167   4.726   2.101  17.508  0.8823 -0.2703 -4.0765
12226TIP3   OH258168   4.930   6.649   5.028 -0.0739  0.4272  0.6375
12226TIP3    H158169   5.016   6.685   5.004 -0.4693  0.8811 -0.0970
12226TIP3    H258170   4.903   6.702   5.103 -0.5490  1.5520 -0.2902
12227TIP3   OH258171   4.984   2.755  14.790 -0.2169 -0.4937  0.4158
12227TIP3    H158172   4.942   2.833  14.829 -0.4483 -0.6172  0.4153
12227TIP3    H258173   5.077   2.764  14.813 -0.1535  0.0603 -0.0448
12228TIP3   OH258174   4.145   1.303  14.476  0.0322 -0.1870 -0.2820
12228TIP3    H158175   4.152   1.261  14.562  1.2792 -0.8687 -0.6918
12228TIP3    H258176   4.212   1.371  14.478  0.5281 -0.6550 -0.9590
12229TIP3   OH258177   3.624   0.170  15.368 -0.1814  0.8877 -0.3201
12229TIP3    H158178   3.542   0.218  15.379 -0.7974 -0.2207  0.1342
12229TIP3    H258179   3.596   0.082  15.341  0.9063  0.7644 -1.0905
12230TIP3   OH258180   5.576   4.154  13.143 -0.5153 -0.2306  0.6791
12230TIP3    H158181   5.612   4.070  13.113 -0.2874  0.2744 -0.5046
12230TIP3    H258182   5.634   4.220  13.105 -2.9211  0.6604 -1.8091
12231TIP3   OH258183   5.238   3.633   2.516 -0.6352 -0.0205  0.0146
12231TIP3    H158184   5.173   3.663   2.452 -2.4020 -0.0750  1.6862
12231TIP3    H258185   5.320   3.675   2.489 -1.8418  1.8624 -0.9020
12232TIP3   OH258186   2.764   3.029  14.679  0.1947 -0.0454 -0.3037
12232TIP3    H158187   2.758   3.062  14.769  0.4049 -0.0534 -0.2876
12232TIP3    H258188   2.836   3.078  14.639  1.5634 -1.5598  0.1962
12233TIP3   OH258189   1.890   1.604   4.981  0.0306 -0.9256  0.8375
12233TIP3    H158190   1.826   1.666   4.945  1.4013 -0.9641 -1.9313
12233TIP3    H258191   1.872   1.522   4.935  1.5044 -1.1365  0.5837
12234TIP3   OH258192   5.397   5.099  10.940  0.5106 -0.4173  0.7594
12234TIP3    H158193   5.362   5.182  10.970 -1.0646 -1.8258  3.0802
12234TIP3    H258194   5.362   5.089  10.851  0.4890  1.2159  0.5486
12235TIP3   OH258195   0.529   3.153  14.382  0.4559  0.1297 -0.1624
12235TIP3    H158196   0.526   3.163  14.477  0.0422 -1.0762 -0.0241
12235TIP3    H258197   0.551   3.240  14.349  0.3575  0.6243  1.0206
12236TIP3   OH258198   5.136   1.478   0.083 -0.0048  0.4343  0.3716
12236TIP3    H158199   5.186   1.460   0.162  0.3354  2.2574  0.6113
12236TIP3    H258200   5.084   1.555   0.104  0.8714  1.6120 -1.4921
12237TIP3   OH258201   2.560   1.396   5.807  0.4403 -0.1476 -0.6812
12237TIP3    H158202   2.481   1.435   5.769  0.5462  2.2648  1.2617
12237TIP3    H258203   2.631   1.452   5.777  1.1842 -1.1734 -0.8848
12238TIP3   OH258204   5.200   5.306  15.983 -0.6614 -0.2251  0.0670
12238TIP3    H158205   5.240   5.375  15.930 -0.7769 -0.5304 -0.4142
12238TIP3    H258206   5.224   5.224  15.940  0.5796 -0.5735  1.3715
12239TIP3   OH258207   3.694   3.614  15.612 -0.6820  0.8077  0.4941
12239TIP3    H158208   3.711   3.537  15.666 -1.0293 -1.0845 -1.8914
12239TIP3    H258209   3.774   3.666  15.617  0.3046 -0.6687  0.7111
12240TIP3   OH258210   4.508   6.569  12.641  0.0328 -0.0087  0.1162
12240TIP3    H158211   4.508   6.484  12.686 -1.7720 -0.2888 -0.3164
12240TIP3    H258212   4.576   6.620  12.685 -0.0822 -1.0673  1.5975
12241TIP3   OH258213   5.377   2.705   2.655  0.1047  0.5026 -0.0395
12241TIP3    H158214   5.354   2.633   2.597 -1.3663 -0.8441  2.0761
12241TIP3    H258215   5.296   2.727   2.700  1.0652  1.7990  1.1698
12242TIP3   OH258216   4.196   4.411   6.126  0.5396 -0.0121  0.4508
12242TIP3    H158217   4.240   4.493   6.104  0.4654 -0.8445 -3.6888
12242TIP3    H258218   4.257   4.365   6.185  1.5859  2.0341  1.0350
12243TIP3   OH258219   6.360   0.372  16.347  0.3704 -0.0961 -0.5924
12243TIP3    H158220   6.430   0.391  16.284  0.3365  0.0045 -0.5998
12243TIP3    H258221   6.404   0.322  16.416 -0.1499 -2.8259 -2.0970
12244TIP3   OH258222   4.528   5.715  13.431  0.1613 -1.2481 -0.4344
12244TIP3    H158223   4.485   5.659  13.496 -1.9714  1.7504  0.9609
12244TIP3    H258224   4.570   5.784  13.483 -0.2950  0.3952 -2.1562
12245TIP3   OH258225   0.890   5.130  11.783  0.2732  0.3513  0.3248
12245TIP3    H158226   0.844   5.077  11.848 -1.3149 -0.4789 -1.3512
12245TIP3    H258227   0.856   5.218  11.796  0.3823  0.2995  0.9673
12246TIP3   OH258228   2.937   4.488   1.803  0.3172 -0.3101  0.3610
12246TIP3    H158229   3.026   4.520   1.818 -0.4920  1.7265  1.2624
12246TIP3    H258230   2.946   4.418   1.738  2.3458  1.2517 -1.1546
12247TIP3   OH258231   2.987   3.217   0.961  0.3357 -0.3671 -1.0817
12247TIP3    H158232   2.893   3.203   0.953 -0.4908  2.8636  1.1660
12247TIP3    H258233   3.016   3.149   1.022 -1.3610  0.8202  1.2009
12248TIP3   OH258234   5.390   0.866   0.045 -0.7018  0.6536 -0.1852
12248TIP3    H158235   5.359   0.938  -0.010 -1.5384  0.4604  0.0253
12248TIP3    H258236   5.481   0.853   0.018 -0.6774  1.4902 -0.5378
12249TIP3   OH258237   6.116   2.816  15.154  0.5068 -0.2292  0.0154
12249TIP3    H158238   6.049   2.855  15.099  2.0285  0.9415 -1.1184
12249TIP3    H258239   6.093   2.723  15.159  0.5385 -0.5101 -3.0842
12250TIP3   OH258240   0.189   1.257  15.517  0.2688  0.3214  0.1008
12250TIP3    H158241   0.139   1.292  15.590  1.0082  0.2271  0.6680
12250TIP3    H258242   0.215   1.169  15.546 -0.2538 -0.0931 -0.6721
12251TIP3   OH258243   1.377   5.148  12.069 -0.3174  0.1795  0.5130
12251TIP3    H158244   1.442   5.079  12.082 -0.3588  0.3011  1.3695
12251TIP3    H258245   1.305   5.104  12.023  0.4444  0.0973 -0.6615
12252TIP3   OH258246   3.743   0.855   0.618 -0.5901  0.3229 -0.3158
12252TIP3    H158247   3.701   0.794   0.557 -1.0997 -1.1445  1.3985
12252TIP3    H258248   3.757   0.935   0.567 -2.7313 -0.1681 -1.8003
12253TIP3   OH258249   5.105   3.799  13.691 -0.1519  0.9184 -0.5556
12253TIP3    H158250   5.065   3.886  13.685 -1.5599  0.2968 -0.6597
12253TIP3    H258251   5.127   3.789  13.783 -1.2977  0.8507 -0.2734
12254TIP3   OH258252   1.983   5.315   3.318 -0.2515  0.4942  0.1204
12254TIP3    H158253   1.905   5.359   3.350 -0.8124  0.5063 -1.2078
12254TIP3    H258254   1.971   5.223   3.343 -1.6806  0.1044 -1.7758
12255TIP3   OH258255   1.483   4.319  12.585 -0.0420 -0.0335 -0.5095
12255TIP3    H158256   1.403   4.326  12.638 -0.1625 -1.5345 -0.4503
12255TIP3    H258257   1.471   4.239  12.535  0.8797  0.4141 -1.4779
12256TIP3   OH258258   6.533   6.285  12.590 -0.0793 -0.1997 -0.1840
12256TIP3    H158259   6.487   6.274  12.506  2.0796 -0.2324 -1.4246
12256TIP3    H258260   6.524   6.201  12.633  0.5755 -0.9001 -1.3589
12257TIP3   OH258261   6.057   6.625  14.605 -0.0282  0.2949  0.2614
12257TIP3    H158262   6.115   6.701  14.607 -0.6855  0.8487 -0.7033
12257TIP3    H258263   5.974   6.659  14.573 -0.0746 -0.9701 -1.0924
12258TIP3   OH258264   2.951   6.446  12.095 -0.7480  0.0809 -0.5604
12258TIP3    H158265   2.898   6.448  12.175 -0.4770 -0.9749 -0.3476
12258TIP3    H258266   2.952   6.354  12.069 -0.1426  0.2949 -1.3209
12259TIP3   OH258267   0.584   4.308   5.223  0.1284 -0.6029  0.1424
12259TIP3    H158268   0.580   4.225   5.269 -0.8954 -2.4238 -2.9221
12259TIP3    H258269   0.495   4.343   5.228  0.1074 -0.6198 -0.0811
12260TIP3   OH258270   5.960   0.568  11.475 -0.3053 -0.2294 -0.1326
12260TIP3    H158271   6.024   0.576  11.404  1.6639  0.5910  1.6192
12260TIP3    H258272   5.883   0.615  11.443  1.5899  2.8020 -0.6143
12261TIP3   OH258273   2.333   3.050   3.129  0.5671  0.5424  0.3490
12261TIP3    H158274   2.371   3.018   3.211  0.0039  1.4449  0.9941
12261TIP3    H258275   2.403   3.100   3.087  0.8538  0.0875  0.2759
12262TIP3   OH258276   3.764   6.275   2.982 -0.0041  0.3731 -0.0434
12262TIP3    H158277   3.772   6.180   2.991 -0.8156  0.1521 -1.3920
12262TIP3    H258278   3.674   6.290   2.954 -0.2587  1.6633  1.3305
12263TIP3   OH258279   1.482   1.232  14.304 -0.0932  0.1537 -0.3238
12263TIP3    H158280   1.558   1.229  14.246 -0.5753  0.8913 -1.0045
12263TIP3    H258281   1.407   1.215  14.247 -0.4589 -0.4483  0.3203
12264TIP3   OH258282   1.188   4.624   5.603  0.0628 -0.4253 -0.5587
12264TIP3    H158283   1.131   4.693   5.637 -0.6057 -1.6165  0.8560
12264TIP3    H258284   1.137   4.582   5.534  0.2657  0.1260 -1.0575
12265TIP3   OH258285   1.968   3.841  16.991 -0.1574 -0.3099  0.4664
12265TIP3    H158286   1.911   3.819  17.066  0.8313 -2.4993  0.6624
12265TIP3    H258287   1.978   3.758  16.944  2.3447  0.1194  0.0956
12266TIP3   OH258288   5.850   4.339  17.512  0.2032  0.9157  0.3974
12266TIP3    H158289   5.772   4.393  17.503  0.3111  1.0632  0.3341
12266TIP3    H258290   5.866   4.303  17.425 -0.2712  0.2147  0.5962
12267TIP3   OH258291   4.473   1.415  17.398 -0.1342  0.5462  0.6012
12267TIP3    H158292   4.526   1.409  17.318 -0.0783  1.0348  0.5996
12267TIP3    H258293   4.475   1.507  17.421  0.6244  0.2747  1.6978
12268TIP3   OH258294   5.846   3.488  17.320 -0.0334 -0.0720  0.1524
12268TIP3    H158295   5.842   3.479  17.225  0.5889  0.0385  0.1103
12268TIP3    H258296   5.935   3.462  17.343  0.0615  0.6259  0.6194
12269TIP3   OH258297   1.810   5.519   5.176  0.8138 -0.1980  0.0805
12269TIP3    H158298   1.726   5.491   5.213  0.2701 -1.1891 -1.7758
12269TIP3    H258299   1.865   5.441   5.179  0.7875 -0.2765 -1.0620
12270TIP3   OH258300   0.741   1.178   4.813 -0.8017 -0.5354 -0.3033
12270TIP3    H158301   0.701   1.265   4.814  0.8717  0.2899 -0.6182
12270TIP3    H258302   0.810   1.185   4.747 -0.6378 -2.1191 -0.3229
12271TIP3   OH258303   3.797   1.054  11.972 -0.1186 -0.2193 -0.2097
12271TIP3    H158304   3.853   0.980  11.995 -0.3948  0.3147  2.5895
12271TIP3    H258305   3.851   1.110  11.917  0.7066 -1.6078 -0.8597
12272TIP3   OH258306   6.556   3.911  12.964 -0.3321  0.4434 -0.1714
12272TIP3    H158307   6.481   3.865  12.927  1.1770 -1.2549 -1.2937
12272TIP3    H258308   6.596   3.955  12.889  0.7442 -0.1182  0.0478
12273TIP3   OH258309   3.867   6.176   0.266  0.1971  0.5022 -0.9954
12273TIP3    H158310   3.836   6.236   0.198  0.1768  0.6833 -0.8284
12273TIP3    H258311   3.814   6.198   0.343 -0.5851 -0.4785 -1.2343
12274TIP3   OH258312   6.157   5.625  15.240  0.0281  0.1843 -0.7706
12274TIP3    H158313   6.250   5.626  15.217  0.3418 -0.6979  0.3491
12274TIP3    H258314   6.125   5.543  15.203  0.0048 -0.1284 -0.0753
12275TIP3   OH258315   3.575   3.401  15.828 -0.3537  0.0095 -0.9931
12275TIP3    H158316   3.587   3.340  15.755 -0.1720 -0.8749 -0.2389
12275TIP3    H258317   3.501   3.456  15.801 -2.3773 -2.3168 -0.5671
12276TIP3   OH258318   3.450   3.160   3.452 -0.1309  0.6001  0.1594
12276TIP3    H158319   3.412   3.197   3.532 -1.8552  0.9821 -0.7771
12276TIP3    H258320   3.543   3.180   3.458 -0.2957  1.0234  1.8501
12277TIP3   OH258321   4.955   3.946  15.899 -0.2672 -0.3667 -0.1730
12277TIP3    H158322   4.976   3.919  15.809 -2.1459 -0.0919 -0.7331
12277TIP3    H258323   4.868   3.984  15.893 -0.0500  0.5197  1.6288
12278TIP3   OH258324   1.989   0.918   0.652  0.0354  0.1272 -0.2658
12278TIP3    H158325   1.948   0.987   0.704  0.2771  0.3362 -0.3531
12278TIP3    H258326   1.960   0.936   0.563 -0.1711 -0.0806 -0.2411
12279TIP3   OH258327   2.160   1.397   3.215 -0.0026  0.2181  0.4101
12279TIP3    H158328   2.205   1.426   3.294 -0.5549 -0.6086  1.0414
12279TIP3    H258329   2.123   1.477   3.178  0.2495  0.6137  0.9949
12280TIP3   OH258330   5.860   2.863  14.639 -0.3806  0.3176 -0.0930
12280TIP3    H158331   5.907   2.846  14.721 -1.0088 -0.1740  0.1730
12280TIP3    H258332   5.839   2.957  14.643 -1.8757 -0.0242  1.1247
12281TIP3   OH258333   6.356   4.386   5.885  0.1559 -0.5673  0.0799
12281TIP3    H158334   6.312   4.423   5.962  2.3834  0.0719  1.1278
12281TIP3    H258335   6.296   4.404   5.812 -1.3040  0.2070  1.4016
12282TIP3   OH258336   0.667   1.857   2.566  0.4416  0.4981 -0.5096
12282TIP3    H158337   0.641   1.949   2.560  1.4063  0.9033  0.9464
12282TIP3    H258338   0.584   1.809   2.564 -0.3250  1.5894  1.4545
12283TIP3   OH258339   0.135   4.999  11.664 -0.1723  0.1054 -0.1170
12283TIP3    H158340   0.146   5.087  11.699  3.4574 -0.0977 -0.3233
12283TIP3    H258341   0.105   5.013  11.574 -2.0587  0.9387  0.5823
12284TIP3   OH258342   3.758   2.078   5.369 -0.9291 -0.0994  0.3414
12284TIP3    H158343   3.676   2.113   5.334  0.0619  0.4706 -1.5404
12284TIP3    H258344   3.741   1.985   5.383 -1.7086 -0.1161 -0.6399
12285TIP3   OH258345   6.686   0.933  12.818 -0.3026 -0.2816  0.3738
12285TIP3    H158346   6.640   0.940  12.902  0.2523  2.4253  0.5315
12285TIP3    H258347   6.623   0.892  12.759 -0.9498 -1.5820  1.8889
12286TIP3   OH258348   1.651   2.680  12.720 -0.6387  0.3672 -0.4692
12286TIP3    H158349   1.615   2.766  12.739 -1.2860 -0.4289  2.3494
12286TIP3    H258350   1.575   2.626  12.696 -0.7123 -0.1545  0.8638
12287TIP3   OH258351   2.522   0.781   4.803 -0.7453  0.2338  0.4570
12287TIP3    H158352   2.448   0.740   4.848 -1.0809  1.1405  0.7717
12287TIP3    H258353   2.514   0.874   4.825 -1.1932  0.7968 -1.8440
12288TIP3   OH258354   5.744   2.368  11.198  0.2441 -0.3554  0.5812
12288TIP3    H158355   5.762   2.275  11.182  1.6355 -0.0766  0.4248
12288TIP3    H258356   5.709   2.400  11.115 -1.2214 -0.9438  0.9366
12289TIP3   OH258357   0.515   0.273   4.394  0.2252  0.1541  0.3728
12289TIP3    H158358   0.541   0.297   4.305 -0.7295 -1.8384 -0.4967
12289TIP3    H258359   0.459   0.345   4.423  1.6675  1.5086 -0.0438
12290TIP3   OH258360   2.108   1.677  12.549 -0.3377 -0.8129 -0.1282
12290TIP3    H158361   2.165   1.748  12.520  0.4911 -1.3280  0.1781
12290TIP3    H258362   2.063   1.647  12.470 -0.8764  0.1996 -0.2132
12291TIP3   OH258363   2.392   5.497   5.530  0.1050 -0.0182 -0.1033
12291TIP3    H158364   2.297   5.490   5.526 -0.1740  1.2548  2.3249
12291TIP3    H258365   2.408   5.582   5.571  2.3339  0.1582 -1.1964
12292TIP3   OH258366   0.090   2.248  15.913 -0.0836 -0.2471 -0.2503
12292TIP3    H158367   0.108   2.236  15.820  0.7785 -0.5285 -0.0622
12292TIP3    H258368   0.038   2.172  15.938 -0.3271 -0.1648 -0.5002
12293TIP3   OH258369   6.737   4.421   3.036  0.1704 -0.9814 -0.1139
12293TIP3    H158370   6.802   4.381   2.979  0.9819  1.4948 -1.0649
12293TIP3    H258371   6.653   4.403   2.993  0.5074 -1.6026 -0.5249
12294TIP3   OH258372   2.024   1.624   2.290 -0.0938  0.1605  0.9063
12294TIP3    H158373   2.115   1.621   2.262 -0.4705  2.8629 -0.9918
12294TIP3    H258374   1.977   1.659   2.215 -2.7085 -0.9103  1.9194
12295TIP3   OH258375   3.797   3.792  12.440  0.2464 -0.0943  0.3538
12295TIP3    H158376   3.874   3.766  12.391 -0.1621 -1.5775  0.4568
12295TIP3    H258377   3.729   3.730  12.413 -0.3950  0.0080  1.6447
12296TIP3   OH258378   3.456   5.048   0.230 -0.1490  0.6803 -0.4498
12296TIP3    H158379   3.523   5.052   0.298 -1.3297 -2.4790  1.1263
12296TIP3    H258380   3.376   5.075   0.273 -0.3747  1.9959 -1.6172
12297TIP3   OH258381   1.739   2.678   4.190 -0.4035  0.1126 -0.0358
12297TIP3    H158382   1.668   2.703   4.249 -0.2234 -0.4738  0.4391
12297TIP3    H258383   1.698   2.676   4.104 -0.8597  0.2063  0.1726
12298TIP3   OH258384   2.391   1.410   3.007  0.1489 -0.1290  0.9352
12298TIP3    H158385   2.319   1.472   3.020  0.4600  0.8468 -1.5721
12298TIP3    H258386   2.347   1.328   2.986 -0.2437  0.0590  0.9979
12299TIP3   OH258387   4.516   3.412  15.840  0.3103 -0.1434 -0.1898
12299TIP3    H158388   4.431   3.369  15.854  0.2462  0.1690  0.4375
12299TIP3    H258389   4.511   3.491  15.894  0.5790  0.4557 -1.0209
12300TIP3   OH258390   4.690   3.139  17.133 -0.2188 -0.2290 -0.3394
12300TIP3    H158391   4.664   3.226  17.102  0.5448  0.5860  1.1875
12300TIP3    H258392   4.666   3.080  17.061 -0.3507  1.2823 -1.6015
12301TIP3   OH258393   6.214   6.235  11.326 -0.6711 -0.0186  0.1315
12301TIP3    H158394   6.144   6.170  11.314  0.0064 -1.0205  1.3388
12301TIP3    H258395   6.187   6.286  11.402 -1.2748  1.2647 -0.9062
12302TIP3   OH258396   3.184   2.157  12.448 -0.0739 -0.0332  0.1003
12302TIP3    H158397   3.129   2.175  12.524 -0.6283 -1.5727  0.0891
12302TIP3    H258398   3.131   2.186  12.373 -1.8152 -3.2041 -0.0789
12303TIP3   OH258399   0.471   4.014   2.107 -0.5787  0.0905 -0.3990
12303TIP3    H158400   0.482   4.107   2.086 -0.7651  0.0899 -0.4978
12303TIP3    H258401   0.381   4.007   2.139 -0.4848 -0.0106 -0.1504
12304TIP3   OH258402   2.980   0.355   1.193  0.6325  0.4419  0.4245
12304TIP3    H158403   3.040   0.331   1.264 -0.0780 -2.6819  0.0953
12304TIP3    H258404   3.003   0.297   1.121 -0.4450  1.7008 -0.9988
12305TIP3   OH258405   6.519   5.217  11.774  0.4898 -0.3390 -0.2586
12305TIP3    H158406   6.493   5.177  11.691 -2.1047 -0.1287  0.3653
12305TIP3    H258407   6.522   5.144  11.836 -0.8473 -0.0789  0.1392
12306TIP3   OH258408   5.699   2.839   2.850  0.2905  0.1548 -0.1560
12306TIP3    H158409   5.780   2.852   2.800 -0.4141  0.5843 -1.2117
12306TIP3    H258410   5.645   2.915   2.829 -0.6437 -0.4345  0.0435
12307TIP3   OH258411   0.221   5.719   0.075  0.2226  0.1500  0.4388
12307TIP3    H158412   0.265   5.635   0.089  2.2747  1.0336 -0.3348
12307TIP3    H258413   0.153   5.722   0.143  0.0809 -2.1146  0.4740
12308TIP3   OH258414   0.951   1.103  12.815 -0.0117 -0.5894  0.0176
12308TIP3    H158415   1.021   1.055  12.771 -0.0290 -0.8895  0.3181
12308TIP3    H258416   0.977   1.195  12.806  0.2997 -0.6831 -0.0778
12309TIP3   OH258417   0.960   6.511  11.266  0.4585 -0.2859 -0.1550
12309TIP3    H158418   1.050   6.533  11.242  0.9962 -1.9894  0.1889
12309TIP3    H258419   0.934   6.445  11.203 -0.9069  0.8404 -0.8139
12310TIP3   OH258420   0.442   0.710  17.295 -0.1379 -0.0113  0.2042
12310TIP3    H158421   0.520   0.730  17.346  0.8531  0.5137 -1.4527
12310TIP3    H258422   0.461   0.627  17.252 -0.1875  0.4378 -0.7236
12311TIP3   OH258423   0.939   3.512   4.616 -0.1658  0.1360  0.3932
12311TIP3    H158424   0.998   3.441   4.592  0.2741  0.1898  1.2497
12311TIP3    H258425   0.852   3.474   4.612  0.0464 -0.3765  0.5549
12312TIP3   OH258426   1.128   6.328   5.008  0.4106  0.0033 -0.5234
12312TIP3    H158427   1.175   6.408   5.030 -1.3439  0.7352  0.8597
12312TIP3    H258428   1.107   6.336   4.915 -0.5680  1.6339 -0.1919
12313TIP3   OH258429   4.211   3.084   2.232  0.1496 -0.2769 -0.0984
12313TIP3    H158430   4.224   3.150   2.164  0.0500  0.8783  0.9548
12313TIP3    H258431   4.127   3.108   2.272  0.6806 -0.3188  1.0778
12314TIP3   OH258432   0.941   5.186  13.152  0.7508  0.5055  0.0520
12314TIP3    H158433   0.881   5.179  13.225 -2.5737 -1.0456 -2.5695
12314TIP3    H258434   0.952   5.096  13.120  0.1952  1.3104 -2.6836
12315TIP3   OH258435   0.092   5.226  16.796  0.3124  0.8194  0.2187
12315TIP3    H158436   0.097   5.320  16.812  2.0482  0.7407  0.3020
12315TIP3    H258437   0.074   5.219  16.702  1.1824  1.2351  0.0148
12316TIP3   OH258438   3.364   3.530   4.156 -0.5922 -0.5556 -0.3731
12316TIP3    H158439   3.347   3.624   4.160 -0.2565 -0.4152 -1.7171
12316TIP3    H258440   3.448   3.518   4.200  0.5518  0.1439 -2.2316
12317TIP3   OH258441   2.622   5.198   2.628 -0.4060 -0.4403 -0.2982
12317TIP3    H158442   2.568   5.272   2.655  1.5538  0.5068  1.3145
12317TIP3    H258443   2.571   5.121   2.654 -1.2368  0.4036  0.6785
12318TIP3   OH258444   6.147   4.722  16.399 -0.8097 -0.2549 -0.4525
12318TIP3    H158445   6.091   4.649  16.423 -0.3476 -0.4142  0.1503
12318TIP3    H258446   6.216   4.723  16.465 -0.8209  0.7374 -0.4446
12319TIP3   OH258447   0.437   3.926   3.185 -0.6610  0.1669  0.1749
12319TIP3    H158448   0.482   3.940   3.268 -2.5998 -0.3887  1.3914
12319TIP3    H258449   0.349   3.961   3.198 -1.1231 -0.2259 -1.5319
12320TIP3   OH258450   5.180   0.316  11.245 -0.6182  0.4888 -0.1179
12320TIP3    H158451   5.241   0.326  11.172 -0.3809  0.4382  0.0710
12320TIP3    H258452   5.124   0.393  11.241  0.1298  1.0713  0.3280
12321TIP3   OH258453   1.343   1.858   4.319  0.3789 -0.0937  0.1551
12321TIP3    H158454   1.259   1.895   4.348 -0.1811 -0.0282 -1.4392
12321TIP3    H258455   1.403   1.933   4.321  0.4568 -0.1712  1.4428
12322TIP3   OH258456   5.787   6.571  16.983 -0.2691 -0.2730  0.3327
12322TIP3    H158457   5.849   6.574  17.055  0.9797 -0.4027 -0.7033
12322TIP3    H258458   5.730   6.646  16.997  0.6528  0.3443  0.8420
12323TIP3   OH258459   3.539   6.014  15.152 -0.4775  0.0745 -0.4963
12323TIP3    H158460   3.610   6.021  15.216  0.6479 -2.6805 -1.2953
12323TIP3    H258461   3.574   6.052  15.072 -1.2103  1.7858 -0.0660
12324TIP3   OH258462   1.860   0.514  12.658  0.8857  0.0217  0.0953
12324TIP3    H158463   1.939   0.557  12.628  0.7346  0.3835  0.2093
12324TIP3    H258464   1.868   0.513  12.754  0.8819 -0.1937  0.0944
12325TIP3   OH258465   0.010   5.851  17.438  0.2627  0.0046 -0.3251
12325TIP3    H158466  -0.032   5.907  17.503  0.9525 -0.6396  0.7287
12325TIP3    H258467   0.100   5.842  17.470  0.8649  0.3438 -1.8456
12326TIP3   OH258468   4.302   6.716   0.705 -0.0572  0.8215  0.4543
12326TIP3    H158469   4.346   6.638   0.672  0.5656  1.5475 -0.4909
12326TIP3    H258470   4.256   6.686   0.784  0.7193 -0.3383  0.4939
12327TIP3   OH258471   4.174   3.897   0.483  0.0853 -0.1163 -0.1852
12327TIP3    H158472   4.099   3.934   0.435  0.9961  0.2950 -1.3580
12327TIP3    H258473   4.139   3.876   0.569 -1.1833  0.8301 -0.4275
12328TIP3   OH258474   3.392   4.837   6.272  0.3432 -0.1065  0.4834
12328TIP3    H158475   3.337   4.761   6.251  1.3203 -0.4916 -0.7809
12328TIP3    H258476   3.333   4.912   6.266 -0.0957 -0.5262 -0.7175
12329TIP3   OH258477   4.722   4.890  13.309 -0.8952 -0.0375  0.5974
12329TIP3    H158478   4.776   4.849  13.241  1.0493 -0.7298  2.4355
12329TIP3    H258479   4.731   4.984  13.293 -0.4370 -0.1815 -0.0581
12330TIP3   OH258480   0.799   5.896  11.208  0.0113 -0.6170 -0.0545
12330TIP3    H158481   0.809   5.909  11.302  1.4466  1.3668 -0.4166
12330TIP3    H258482   0.820   5.981  11.169 -1.4463 -1.1273 -2.1340
12331TIP3   OH258483   2.954   0.565   5.610 -0.8131 -0.1650 -0.3176
12331TIP3    H158484   3.005   0.642   5.586  0.6838 -0.5919  1.2222
12331TIP3    H258485   2.945   0.571   5.705  1.6698 -3.1069  0.2724
12332TIP3   OH258486   0.364   0.892   1.156 -0.6748 -0.2722  0.2059
12332TIP3    H158487   0.435   0.840   1.119  0.1492  0.1782  1.1312
12332TIP3    H258488   0.315   0.830   1.210 -1.0095 -0.5839 -0.4375
12333TIP3   OH258489   5.773   2.452  14.603 -0.5031 -0.1628 -0.2220
12333TIP3    H158490   5.827   2.516  14.556  1.4136 -1.7250 -0.2597
12333TIP3    H258491   5.769   2.486  14.692  0.0440  0.3071 -0.3645
12334TIP3   OH258492   4.007   1.911   2.998  0.6665  0.4536 -0.1380
12334TIP3    H158493   4.080   1.905   3.059  1.6619 -0.3344 -1.3554
12334TIP3    H258494   3.999   2.005   2.979 -0.5190  0.8715  2.1473
12335TIP3   OH258495   4.354   6.416   3.541  0.1646  0.7382  0.0461
12335TIP3    H158496   4.350   6.500   3.496  0.2273 -0.7864 -3.1005
12335TIP3    H258497   4.278   6.368   3.509  0.7568 -0.8253  0.8499
12336TIP3   OH258498   6.486   3.126  12.733 -0.7719  0.4074 -0.4165
12336TIP3    H158499   6.496   3.041  12.690  1.3063  0.5754 -0.3680
12336TIP3    H258500   6.561   3.177  12.703 -1.1133  1.6915  0.8022
12337TIP3   OH258501   2.364   2.832  15.000 -0.0762 -0.5644  0.4412
12337TIP3    H158502   2.453   2.850  14.972  0.3541 -2.0515  0.7576
12337TIP3    H258503   2.309   2.863  14.928  0.9480 -3.3722 -1.7363
12338TIP3   OH258504   5.771   0.853   6.674 -0.5330 -0.1009 -0.2597
12338TIP3    H158505   5.795   0.898   6.755  0.6388  0.5963 -0.9707
12338TIP3    H258506   5.741   0.922   6.615  1.9283 -0.0493 -1.5962
12339TIP3   OH258507   0.858   4.567   3.740 -0.2689  0.3721 -0.4506
12339TIP3    H158508   0.816   4.653   3.745  0.8911  1.0438 -1.5419
12339TIP3    H258509   0.833   4.534   3.654 -0.0155 -0.0086 -0.3767
12340TIP3   OH258510   3.641   2.453   5.540 -0.5976  0.2114  0.2657
12340TIP3    H158511   3.627   2.365   5.573 -0.2183 -0.3421 -0.9860
12340TIP3    H258512   3.726   2.479   5.576 -0.5125 -0.1046  0.2959
12341TIP3   OH258513   1.909   4.962   6.109  0.0405 -0.5405 -0.4851
12341TIP3    H158514   1.928   5.034   6.048  1.1198  1.0165  1.5555
12341TIP3    H258515   1.995   4.933   6.139 -0.4514 -1.4020  0.1361
12342TIP3   OH258516   5.602   1.578   0.270 -0.0012  0.5980 -0.4870
12342TIP3    H158517   5.622   1.670   0.251  2.2915  0.2296 -0.1277
12342TIP3    H258518   5.684   1.532   0.252 -0.3728 -1.0329  1.6638
12343TIP3   OH258519   5.738   1.494   2.100  0.2594  0.7731 -0.0205
12343TIP3    H158520   5.721   1.548   2.023 -0.4006 -0.2212 -0.5869
12343TIP3    H258521   5.747   1.405   2.066  3.6478  0.7755  0.6131
12344TIP3   OH258522   3.632   4.337   0.257 -0.0789 -0.6254 -0.2035
12344TIP3    H158523   3.565   4.366   0.196 -1.5897  2.0586  2.4737
12344TIP3    H258524   3.706   4.396   0.242 -0.6976  0.4730  0.8950
12345TIP3   OH258525   3.930   5.927   0.349 -0.4152  0.4293  0.1863
12345TIP3    H158526   3.901   6.007   0.305  0.1357  0.9617  0.7733
12345TIP3    H258527   3.986   5.958   0.421  1.6804 -0.5450 -0.9261
12346TIP3   OH258528   4.898   5.866  11.130 -0.0092 -0.3998  0.5685
12346TIP3    H158529   4.803   5.868  11.118 -0.1323  0.5226  1.5340
12346TIP3    H258530   4.911   5.886  11.222  1.1519  0.1054  0.3110
12347TIP3   OH258531   2.543   5.426   3.151 -0.0253 -0.1551  0.4537
12347TIP3    H158532   2.525   5.360   3.218 -0.4585 -0.4116  0.0875
12347TIP3    H258533   2.584   5.377   3.080 -1.2129 -0.2085 -0.2160
12348TIP3   OH258534   3.150   4.867   4.834  0.4717  0.5607 -0.2831
12348TIP3    H158535   3.140   4.962   4.823  2.0472  0.7399 -0.3866
12348TIP3    H258536   3.075   4.841   4.887 -0.9198  1.5780 -1.6770
12349TIP3   OH258537   3.743   5.609  13.634 -0.5611  0.3200 -0.0784
12349TIP3    H158538   3.823   5.641  13.593 -0.3164 -0.9516 -0.6611
12349TIP3    H258539   3.696   5.565  13.564 -2.6828  2.5494 -0.1802
12350TIP3   OH258540   2.636   5.010  15.764  0.2111 -0.6170  0.3444
12350TIP3    H158541   2.594   4.926  15.746 -1.1846  0.0317  0.4791
12350TIP3    H258542   2.571   5.076  15.739  0.8641  0.4127  1.2440
12351TIP3   OH258543   6.150   1.019   5.990  0.6822  0.3496 -0.3836
12351TIP3    H158544   6.073   1.071   6.013  0.9036  0.3825  0.2947
12351TIP3    H258545   6.200   1.012   6.071  1.5833  0.6414 -0.9024
12352TIP3   OH258546   3.030   5.241   6.535 -0.1889 -0.0441  0.0066
12352TIP3    H158547   2.953   5.228   6.591  0.5671  2.0469  1.7004
12352TIP3    H258548   3.075   5.316   6.575  1.3715  0.4066 -2.4238
12353TIP3   OH258549   3.021   2.828   4.524  0.6322 -0.2178  0.2636
12353TIP3    H158550   3.067   2.905   4.556  1.1759  0.1621 -1.3070
12353TIP3    H258551   3.084   2.756   4.533  0.4205 -0.3237  0.9554
12354TIP3   OH258552   3.973   5.719  16.843  0.0473 -0.0278 -0.0810
12354TIP3    H158553   4.066   5.741  16.848  0.3127 -1.2553  0.8636
12354TIP3    H258554   3.930   5.785  16.897  0.5658 -0.4111  0.8199
12355TIP3   OH258555   2.815   3.820  13.998 -0.8551 -0.0562  0.2440
12355TIP3    H158556   2.759   3.836  13.922 -1.3135  1.4278  0.8509
12355TIP3    H258557   2.812   3.902  14.047  0.3769 -0.5851  1.2567
12356TIP3   OH258558   1.648   4.646  16.721  0.2470 -0.1235  0.2217
12356TIP3    H158559   1.724   4.704  16.711  1.4445 -1.7144 -0.6094
12356TIP3    H258560   1.663   4.602  16.805 -0.0379 -0.0505  0.3089
12357TIP3   OH258561   1.838   6.609  16.210 -0.1971 -0.0816 -0.4859
12357TIP3    H158562   1.784   6.577  16.137 -1.6873 -1.4241  1.1145
12357TIP3    H258563   1.880   6.531  16.245  1.2514  0.6835 -0.4556
12358TIP3   OH258564   3.736   0.329  13.935 -0.7736 -0.1911  0.3085
12358TIP3    H158565   3.761   0.411  13.978 -1.9910  0.0588  0.5698
12358TIP3    H258566   3.702   0.356  13.850  1.5909 -0.6788 -0.8706
12359TIP3   OH258567   6.478   4.462  15.884  0.6643 -1.0846 -0.6629
12359TIP3    H158568   6.478   4.546  15.838  2.1284 -0.6943  0.0174
12359TIP3    H258569   6.565   4.426  15.868  0.3279 -2.0943 -0.2534
12360TIP3   OH258570   3.149   1.765   4.009 -0.4952 -0.3760  0.0659
12360TIP3    H158571   3.104   1.707   4.070 -1.0893  0.6677  0.6476
12360TIP3    H258572   3.094   1.843   4.005 -0.3628 -0.3336 -1.6541
12361TIP3   OH258573   2.396   6.299   6.539 -0.2258 -0.0462 -0.0747
12361TIP3    H158574   2.334   6.324   6.608  0.6345  0.3523  0.5706
12361TIP3    H258575   2.376   6.359   6.467  1.2898  2.0896  1.1759
12362TIP3   OH258576   1.188   0.464  16.655  0.6218  0.1456 -0.1017
12362TIP3    H158577   1.120   0.517  16.615 -0.1429 -0.6023  0.1859
12362TIP3    H258578   1.236   0.427  16.581 -0.5019 -0.8623 -0.3515
12363TIP3   OH258579   3.889   3.043  14.177  0.3382  0.0518 -0.3696
12363TIP3    H158580   3.830   3.083  14.241  0.3990  1.1625 -0.9856
12363TIP3    H258581   3.938   3.117  14.140  0.5169 -0.6023 -1.4718
12364TIP3   OH258582   2.480   3.723   0.382 -0.1302  0.3120  0.1223
12364TIP3    H158583   2.454   3.808   0.346 -2.2848  0.3167  1.4917
12364TIP3    H258584   2.475   3.664   0.307  1.0423  1.2997 -0.7741
12365TIP3   OH258585   0.760   1.839  17.464 -0.6063 -0.3979  0.0480
12365TIP3    H158586   0.747   1.747  17.441 -3.8021  0.3302 -1.6035
12365TIP3    H258587   0.784   1.882  17.382  0.3566  0.3759  0.7047
12366TIP3   OH258588   2.979   3.479   1.048 -0.7553  0.5336  0.0362
12366TIP3    H158589   3.046   3.457   1.113 -0.0076  1.0177 -0.5634
12366TIP3    H258590   3.002   3.428   0.971 -1.0754  0.7083 -0.1766
12367TIP3   OH258591   6.715   0.662   2.593 -0.3885  1.0219  0.3799
12367TIP3    H158592   6.709   0.618   2.509 -0.4159  0.6329  0.5819
12367TIP3    H258593   6.756   0.746   2.573  0.6182  0.4876  0.1267
12368TIP3   OH258594   6.718   1.938   0.758 -0.2037  0.1377 -0.6907
12368TIP3    H158595   6.630   1.958   0.728 -0.4893  1.6628  0.9660
12368TIP3    H258596   6.710   1.853   0.801 -1.5153  1.3480  1.6545
12369TIP3   OH258597   2.966   1.911  12.676 -0.0428 -0.5935 -0.3399
12369TIP3    H158598   2.941   1.984  12.620  2.0075  2.1837  2.0813
12369TIP3    H258599   3.060   1.899  12.662  0.7688  0.8294  2.9276
12370TIP3   OH258600   3.250   4.034  11.203  0.4362 -0.3693  0.0843
12370TIP3    H158601   3.175   3.997  11.156  1.8357  0.0223 -2.6553
12370TIP3    H258602   3.238   4.128  11.198  1.1133 -0.3012 -0.3991
12371TIP3   OH258603   2.796   6.328  17.334  0.0332 -0.2270  0.2840
12371TIP3    H158604   2.742   6.312  17.256  0.6684  1.4736 -0.5676
12371TIP3    H258605   2.874   6.276  17.320  0.5130  0.6957 -0.6758
12372TIP3   OH258606   3.822   1.205  14.793  0.1098  0.5063  0.0248
12372TIP3    H158607   3.748   1.152  14.825  1.2208 -0.5887  0.8977
12372TIP3    H258608   3.825   1.188  14.699 -1.5192  1.5950 -0.2764
12373TIP3   OH258609   2.486   0.376   0.218  0.3194 -0.4834  0.6574
12373TIP3    H158610   2.559   0.384   0.279  0.6360 -3.4011  0.7915
12373TIP3    H258611   2.422   0.320   0.264 -1.5986  1.1556  0.1426
12374TIP3   OH258612   6.237   1.143  13.877 -0.9194 -0.6794 -0.5285
12374TIP3    H158613   6.218   1.232  13.907  0.2677 -0.3112 -0.8220
12374TIP3    H258614   6.203   1.140  13.788 -0.5158 -0.3365 -0.7024
12375TIP3   OH258615   2.944   5.534  14.954  0.1897  0.2321  0.0174
12375TIP3    H158616   2.887   5.463  14.926 -2.2029  1.2683  1.9758
12375TIP3    H258617   2.896   5.614  14.933  2.2430  1.2999 -0.9377
12376TIP3   OH258618   5.733   5.569  11.537 -0.1837  0.3066 -0.3225
12376TIP3    H158619   5.815   5.535  11.500 -0.7095 -1.5219  0.0843
12376TIP3    H258620   5.666   5.545  11.472 -0.8739 -1.4688  0.9583
12377TIP3   OH258621   0.304   1.010  15.891 -0.9148  0.0013 -0.2851
12377TIP3    H158622   0.262   0.982  15.809 -0.3851 -2.0829  0.0910
12377TIP3    H258623   0.274   1.100  15.903 -0.6657  0.5353 -2.9740
12378TIP3   OH258624   4.266   5.590  15.625 -0.0415  0.7419 -0.5998
12378TIP3    H158625   4.256   5.678  15.661 -0.6347  0.9142 -1.1764
12378TIP3    H258626   4.334   5.598  15.559  0.4945  0.5849 -0.0821
12379TIP3   OH258627   3.818   2.974  11.904 -0.3189 -0.1176  0.1893
12379TIP3    H158628   3.808   2.982  11.809  0.2540  2.3373  0.2637
12379TIP3    H258629   3.741   3.019  11.940  0.9380  1.6690  0.8128
12380TIP3   OH258630   0.845   0.550   1.103 -0.0511  0.5160  0.0024
12380TIP3    H158631   0.771   0.553   1.043  0.0167  1.3585 -0.0584
12380TIP3    H258632   0.832   0.470   1.154  0.5472 -0.8737 -1.9269
12381TIP3   OH258633   3.924   3.423  14.791  0.0897  0.4642  0.1090
12381TIP3    H158634   3.942   3.482  14.718 -0.3505 -0.2915 -0.6284
12381TIP3    H258635   3.895   3.341  14.750 -0.9665  0.2927  1.1432
12382TIP3   OH258636   6.464   4.295  14.919  0.0456  0.2907  0.5966
12382TIP3    H158637   6.466   4.292  15.015 -1.0504  0.1808  0.6244
12382TIP3    H258638   6.417   4.216  14.893  1.3987 -0.3261 -0.1030
12383TIP3   OH258639   4.580   0.619  11.166 -0.0971  0.1682  0.0164
12383TIP3    H158640   4.539   0.652  11.246 -2.4541 -1.6297 -0.3393
12383TIP3    H258641   4.640   0.551  11.196 -0.9670 -0.4938  0.2896
12384TIP3   OH258642   1.296   0.292  17.355 -0.5002 -0.1708 -0.6265
12384TIP3    H158643   1.317   0.282  17.263  0.5252 -0.8342 -0.3324
12384TIP3    H258644   1.242   0.215  17.376  0.0066 -0.4825 -0.4633
12385TIP3   OH258645   4.526   5.979  12.802 -0.2580 -0.2374 -0.3489
12385TIP3    H158646   4.616   5.981  12.834  0.7595  3.1058 -2.9067
12385TIP3    H258647   4.535   5.973  12.707 -2.7224  0.3433 -0.6719
12386TIP3   OH258648   3.728   2.602  17.001 -0.5055 -0.4684  0.0065
12386TIP3    H158649   3.794   2.656  16.958 -1.4970 -0.4935 -1.6425
12386TIP3    H258650   3.750   2.512  16.976 -0.7247 -0.5411  0.0656
12387TIP3   OH258651   3.478   5.171   2.124  0.0936  0.0206  0.0643
12387TIP3    H158652   3.515   5.114   2.056 -1.4352  1.5552 -2.1701
12387TIP3    H258653   3.461   5.112   2.198  1.0627 -1.8837 -1.1614
12388TIP3   OH258654   0.681   5.139  12.705 -0.4139 -0.2817  0.3163
12388TIP3    H158655   0.774   5.139  12.680 -0.3718 -1.8935  0.3763
12388TIP3    H258656   0.682   5.156  12.799 -0.2669  0.8545  0.1241
12389TIP3   OH258657   5.986   1.195   1.747  0.0460 -0.5511 -0.4206
12389TIP3    H158658   5.903   1.197   1.794  0.4327 -0.9542  0.2914
12389TIP3    H258659   6.003   1.287   1.725  0.5406 -0.1605  1.4507
12390TIP3   OH258660   1.741   0.316  13.179 -0.2077 -0.4537  0.1210
12390TIP3    H158661   1.766   0.290  13.091 -0.1463 -1.4790  0.4189
12390TIP3    H258662   1.645   0.311  13.179 -0.1677 -1.5920  0.4161
12391TIP3   OH258663   2.349   1.684   0.787  0.1877  0.5414 -0.0390
12391TIP3    H158664   2.354   1.592   0.813 -1.8144  0.4540  0.1625
12391TIP3    H258665   2.408   1.691   0.712  1.5105 -0.5407  0.8532
12392TIP3   OH258666   0.725   4.059  13.712  0.2707 -0.4348  0.2280
12392TIP3    H158667   0.651   4.000  13.699 -0.5158  0.2572  1.3014
12392TIP3    H258668   0.759   4.076  13.624 -0.0152 -1.7893 -0.1656
12393TIP3   OH258669   4.922   5.666   2.803 -0.1488  0.5691 -0.5684
12393TIP3    H158670   4.959   5.618   2.729 -0.2394  0.9343 -0.8539
12393TIP3    H258671   4.874   5.600   2.853  4.3477 -0.9869  2.3167
12394TIP3   OH258672   5.222   1.809   1.147  0.0711  0.1132  0.1134
12394TIP3    H158673   5.263   1.804   1.060 -1.9686  0.1886 -0.9057
12394TIP3    H258674   5.274   1.749   1.201  1.0430 -0.3779 -1.3004
12395TIP3   OH258675   1.459   1.692   4.142  0.1840 -0.1113  0.6459
12395TIP3    H158676   1.392   1.662   4.081 -0.2188 -0.6074  1.3141
12395TIP3    H258677   1.412   1.741   4.209  0.8442  2.1581 -0.4571
12396TIP3   OH258678   4.048   6.405  12.684 -0.2961 -0.3566 -0.4039
12396TIP3    H158679   4.051   6.498  12.658  0.5176  0.5596  2.5728
12396TIP3    H258680   4.109   6.362  12.624 -0.0257  1.1790 -1.3057
12397TIP3   OH258681   4.634   4.238   2.954 -0.2771 -0.3853 -0.1099
12397TIP3    H158682   4.668   4.280   3.033  0.1526 -2.3824  0.8390
12397TIP3    H258683   4.705   4.245   2.891  0.3857 -1.0286  0.5504
12398TIP3   OH258684   1.144   0.197   5.682 -0.1305 -0.0452 -0.1854
12398TIP3    H158685   1.235   0.226   5.680 -0.1110  0.1085  1.4952
12398TIP3    H258686   1.142   0.119   5.626  1.3768 -0.9441  0.9532
12399TIP3   OH258687   4.175   2.686   3.827 -0.4426  0.1086 -0.5663
12399TIP3    H158688   4.188   2.660   3.918 -1.2812 -1.5849 -0.8799
12399TIP3    H258689   4.089   2.728   3.826 -1.0362 -1.0696 -0.7689
12400TIP3   OH258690   6.391   0.610   3.801 -0.0887 -0.3447 -0.6366
12400TIP3    H158691   6.328   0.599   3.730 -0.0673  2.3278 -1.1581
12400TIP3    H258692   6.341   0.591   3.881 -0.7326 -1.0748 -1.1931
12401TIP3   OH258693   2.984   5.425   4.660  0.3593 -0.3382  0.5238
12401TIP3    H158694   2.913   5.405   4.721  0.1721  0.5555  0.6111
12401TIP3    H258695   2.951   5.397   4.574 -0.9280  1.8679  0.2357
12402TIP3   OH258696   4.407   2.895   0.501 -0.0886 -0.7746  0.1945
12402TIP3    H158697   4.357   2.870   0.423  2.0922 -1.3200 -1.1110
12402TIP3    H258698   4.412   2.991   0.496 -0.8753 -0.7189  0.2898
12403TIP3   OH258699   4.725   4.020   0.581 -0.1190 -0.4428 -0.0069
12403TIP3    H158700   4.700   3.933   0.614 -0.0834  0.3619  2.2769
12403TIP3    H258701   4.732   4.075   0.659  0.2591  1.5432 -1.3598
12404TIP3   OH258702   3.634   5.396   3.906  0.2819 -0.0005 -0.5506
12404TIP3    H158703   3.557   5.382   3.962  0.6938 -0.5127 -0.0873
12404TIP3    H258704   3.689   5.458   3.955 -0.4380  1.4184 -1.5004
12405TIP3   OH258705   0.884   1.898   4.717 -0.2793  0.1903  0.6677
12405TIP3    H158706   0.885   1.992   4.701 -0.4617 -0.0559 -1.0696
12405TIP3    H258707   0.911   1.860   4.633 -0.3354 -1.3102  1.3018
12406TIP3   OH258708   6.647   0.393   2.928  0.8144  0.2080  0.2051
12406TIP3    H158709   6.639   0.463   2.993  0.0220  0.4702 -0.1652
12406TIP3    H258710   6.698   0.431   2.857  0.4475  0.3914  0.0375
12407TIP3   OH258711   6.343   4.017   4.679 -0.0856  0.5929 -0.1262
12407TIP3    H158712   6.381   4.090   4.729 -0.9999  0.0034  1.5261
12407TIP3    H258713   6.378   4.027   4.591 -0.4530  3.2433 -0.0504
12408TIP3   OH258714   6.101   4.012  13.280  0.3631  0.6089  0.3711
12408TIP3    H158715   6.121   3.993  13.188  2.5053  1.6688  0.5571
12408TIP3    H258716   6.175   3.975  13.328  0.7232  2.5284  1.3900
12409TIP3   OH258717   5.264   1.772   3.354  0.0264  0.2974  0.7947
12409TIP3    H158718   5.340   1.829   3.342  0.8655 -1.2228 -2.1654
12409TIP3    H258719   5.213   1.783   3.273 -1.3007 -0.9927  1.4060
12410TIP3   OH258720   5.330   3.750   1.883  0.0387 -0.9434  0.2713
12410TIP3    H158721   5.356   3.707   1.965 -0.4566 -0.7489  0.5367
12410TIP3    H258722   5.236   3.766   1.893  0.2051  0.2045  0.1891
12411TIP3   OH258723   2.969   1.597  12.636  0.1111 -0.4541  0.2641
12411TIP3    H158724   2.911   1.540  12.687  0.0392 -0.5984  0.0240
12411TIP3    H258725   2.914   1.629  12.564  0.5780 -1.3728 -0.5372
12412TIP3   OH258726   5.069   0.332  15.296 -0.3194 -0.2487  0.2283
12412TIP3    H158727   4.976   0.318  15.280 -0.2525 -0.0462 -0.3666
12412TIP3    H258728   5.075   0.351  15.390 -0.9923  0.7409  0.0825
12413TIP3   OH258729   4.308   4.931   4.749 -0.5963 -0.0132 -0.1353
12413TIP3    H158730   4.236   4.972   4.799 -1.9986 -5.3871  3.1119
12413TIP3    H258731   4.374   4.910   4.815  1.6015  0.0884 -2.1781
12414TIP3   OH258732   0.606   0.271  13.284  0.4173  0.0548 -0.1706
12414TIP3    H158733   0.678   0.317  13.328  1.7645 -1.5796 -0.5621
12414TIP3    H258734   0.537   0.337  13.276  1.6474  1.5253  0.7335
12415TIP3   OH258735   4.359   1.269   2.874  0.2113 -0.0039  0.3409
12415TIP3    H158736   4.310   1.210   2.931  2.0002 -0.5445  1.3930
12415TIP3    H258737   4.292   1.325   2.834 -1.2447 -0.7089  1.6826
12416TIP3   OH258738   6.264   2.625  13.569 -0.3135  0.2016  0.0005
12416TIP3    H158739   6.258   2.530  13.561 -1.9046  0.1776  1.0152
12416TIP3    H258740   6.358   2.644  13.564  0.0016 -1.3769 -0.5418
12417TIP3   OH258741   5.125   3.666  14.891 -0.1898  0.4198 -0.6818
12417TIP3    H158742   5.079   3.627  14.965  1.8341  0.9165  0.9523
12417TIP3    H258743   5.140   3.757  14.918  0.7376  0.5585 -1.6097
12418TIP3   OH258744   2.664   1.436  13.090 -0.6533  0.1468 -0.3480
12418TIP3    H158745   2.579   1.480  13.095 -1.1289 -0.9044  1.9238
12418TIP3    H258746   2.691   1.424  13.181  0.6964 -1.9137 -0.9500
12419TIP3   OH258747   5.201   0.744  12.900  0.1511  0.5651 -0.5910
12419TIP3    H158748   5.248   0.755  12.983  1.7187 -1.3083 -1.1712
12419TIP3    H258749   5.138   0.674  12.916  1.7528 -1.1550 -1.4153
12420TIP3   OH258750   6.411   1.490   5.488 -0.0864  0.3861 -0.7933
12420TIP3    H158751   6.425   1.399   5.514  1.9322  0.1388 -2.4980
12420TIP3    H258752   6.462   1.541   5.551  0.3434  0.1861 -0.9741
12421TIP3   OH258753   1.705   3.366   0.794 -0.4447  0.2697 -0.5496
12421TIP3    H158754   1.624   3.402   0.828 -0.6923 -0.1509 -0.6853
12421TIP3    H258755   1.734   3.428   0.727  0.5823  1.6424  1.0927
12422TIP3   OH258756   3.894   1.811   1.279 -0.1155 -0.0818 -0.3791
12422TIP3    H158757   3.869   1.840   1.191 -1.5638 -0.2920 -0.0618
12422TIP3    H258758   3.824   1.752   1.305  0.9902 -1.0954  0.4006
12423TIP3   OH258759   0.906   4.884  12.007  0.0269 -0.1326 -0.2675
12423TIP3    H158760   0.893   4.795  12.041  0.7182 -0.4573 -0.8255
12423TIP3    H258761   0.878   4.878  11.916 -1.4044  0.6267  0.0831
12424TIP3   OH258762   4.796   2.556   4.529 -0.0157 -1.2460  0.2571
12424TIP3    H158763   4.788   2.593   4.617 -2.4262 -0.9932 -0.0069
12424TIP3    H258764   4.859   2.613   4.485  0.4324 -0.7490  1.4886
12425TIP3   OH258765   5.733   6.056   3.692  0.1811 -0.3705 -0.7833
12425TIP3    H158766   5.687   6.109   3.627  0.2579 -0.8340 -1.2274
12425TIP3    H258767   5.824   6.057   3.663  0.2919 -0.2134 -0.4292
12426TIP3   OH258768   6.567   1.184  12.970  0.2578 -0.2535  0.3142
12426TIP3    H158769   6.648   1.234  12.959  0.3424 -0.4730 -0.0494
12426TIP3    H258770   6.552   1.143  12.885  0.2210 -0.9023  0.6333
12427TIP3   OH258771   3.802   1.276   0.821  0.7040 -0.3194 -0.8642
12427TIP3    H158772   3.800   1.337   0.895  0.6200 -0.4527 -0.7575
12427TIP3    H258773   3.853   1.202   0.852 -0.5319 -1.0202 -0.4332
12428TIP3   OH258774   1.864   2.290  16.929 -0.1216  0.1664  0.1247
12428TIP3    H158775   1.929   2.259  16.866 -2.5432 -0.5963 -2.1671
12428TIP3    H258776   1.871   2.385  16.924  0.1996  0.1099 -0.7836
12429TIP3   OH258777   1.482   2.199   3.071 -0.0952  0.1039 -0.2634
12429TIP3    H158778   1.418   2.135   3.040 -0.1005 -0.3966  0.7160
12429TIP3    H258779   1.565   2.172   3.033  0.2445 -1.5762  1.5083
12430TIP3   OH258780   1.506   5.034  16.401 -0.5303 -0.0677  0.4519
12430TIP3    H158781   1.435   5.068  16.454 -0.2355  0.1342  0.7214
12430TIP3    H258782   1.542   4.962  16.453 -0.3744 -0.0043  0.4324
12431TIP3   OH258783   2.738   0.866   2.540  0.2208 -0.3558  0.2931
12431TIP3    H158784   2.744   0.861   2.444  2.6252 -1.0978  0.4173
12431TIP3    H258785   2.671   0.801   2.563  0.5411 -1.1065 -0.8200
12432TIP3   OH258786   4.224   5.296   3.454  0.6187 -0.0874 -0.2822
12432TIP3    H158787   4.263   5.212   3.430  0.3501 -0.0472 -0.8821
12432TIP3    H258788   4.193   5.284   3.544 -1.7047 -1.4767 -1.1745
12433TIP3   OH258789   1.760   5.166  12.715  0.1791  0.1818 -0.2536
12433TIP3    H158790   1.719   5.189  12.632  0.8432  0.3153 -0.5446
12433TIP3    H258791   1.686   5.140  12.771 -0.1259 -1.6646 -1.4282
12434TIP3   OH258792   3.024   5.550   3.182 -0.2838  0.1858 -0.1388
12434TIP3    H158793   3.011   5.483   3.249  0.6128  1.1633  1.0617
12434TIP3    H258794   2.940   5.596   3.176 -0.5142 -0.2211 -0.0592
12435TIP3   OH258795   5.599   5.704   2.157  0.1922  0.0927  0.1268
12435TIP3    H158796   5.564   5.752   2.231 -0.5035 -1.1678  0.6453
12435TIP3    H258797   5.689   5.682   2.183 -0.0062 -0.2345  0.5505
12436TIP3   OH258798   5.014   1.944  14.454  0.5573 -0.0110 -0.2167
12436TIP3    H158799   5.008   1.891  14.374 -0.2312 -1.9259  1.0393
12436TIP3    H258800   4.948   2.012  14.441  1.3667  0.5275 -1.7442
12437TIP3   OH258801   1.873   0.597   4.310  0.7881 -0.6070  0.6277
12437TIP3    H158802   1.877   0.503   4.327 -0.1783 -0.4953  1.6562
12437TIP3    H258803   1.779   0.617   4.311  0.9078  0.1605 -0.8866
12438TIP3   OH258804   1.624   3.671   2.728  0.0881  0.7259  0.1490
12438TIP3    H158805   1.629   3.610   2.654  2.4333  0.5364  0.3924
12438TIP3    H258806   1.677   3.630   2.796  0.3148  2.2442  0.9205
12439TIP3   OH258807   6.565   1.933   3.650 -0.0327 -0.0350 -0.2182
12439TIP3    H158808   6.630   1.974   3.707 -1.3091 -0.7564  1.8608
12439TIP3    H258809   6.497   1.999   3.638 -0.9055 -0.6661  1.1006
12440TIP3   OH258810   4.584   6.218  15.960 -0.4931  0.4365 -0.0334
12440TIP3    H158811   4.592   6.264  15.876 -1.8844  2.0777  0.6798
12440TIP3    H258812   4.503   6.251  15.998 -0.3315 -0.9171  1.5902
12441TIP3   OH258813   3.439   4.752  14.958  0.1926  0.3429 -0.2188
12441TIP3    H158814   3.526   4.713  14.952  0.3872  0.8182 -0.6415
12441TIP3    H258815   3.418   4.777  14.868  0.5854  2.2692  0.1876
12442TIP3   OH258816   5.415   4.248   1.289  0.4383  0.4129  0.4463
12442TIP3    H158817   5.503   4.246   1.251  0.4399 -0.6364  0.4910
12442TIP3    H258818   5.387   4.339   1.278  1.3383  0.6513  0.0044
12443TIP3   OH258819   0.599   0.743  15.072  0.0987  0.1068 -0.6679
12443TIP3    H158820   0.642   0.678  15.016  0.7865  0.3534 -0.4372
12443TIP3    H258821   0.670   0.801  15.099 -0.1204 -0.3244  0.9006
12444TIP3   OH258822   4.740   2.313   4.869  0.4047  0.2563 -0.0242
12444TIP3    H158823   4.835   2.313   4.880  0.3995 -0.7315  0.1799
12444TIP3    H258824   4.708   2.261   4.943 -0.4403  2.0277  0.8983
12445TIP3   OH258825   1.599   3.535   0.295  0.4776  0.0900 -0.4692
12445TIP3    H158826   1.579   3.452   0.339 -1.3879  0.9468  0.3916
12445TIP3    H258827   1.586   3.602   0.363 -1.3861  1.3584 -1.9778
12446TIP3   OH258828   4.624   3.332   1.329  0.1292 -0.2760 -0.2505
12446TIP3    H158829   4.608   3.347   1.422  0.4764  0.1257 -0.2532
12446TIP3    H258830   4.540   3.303   1.295 -0.0327 -0.3083  0.1628
12447TIP3   OH258831   1.518   0.798   0.872 -0.3863  0.3563 -0.1331
12447TIP3    H158832   1.470   0.873   0.836  0.6817  1.2716  0.2912
12447TIP3    H258833   1.565   0.762   0.797  0.7669  1.4335  0.0379
12448TIP3   OH258834   3.965   1.192  11.782  0.1162  0.2655  0.5082
12448TIP3    H158835   4.059   1.175  11.783 -0.0327 -0.6591  0.1443
12448TIP3    H258836   3.927   1.111  11.748 -0.8894  0.2773  1.5542
12449TIP3   OH258837   2.753   4.810   3.343  0.0229 -0.2847 -0.0239
12449TIP3    H158838   2.832   4.759   3.326  0.8607  0.3950  1.5615
12449TIP3    H258839   2.694   4.749   3.387  0.2146 -0.4335  0.0277
12450TIP3   OH258840   1.421   1.482   1.197 -0.0742  0.0095 -0.0199
12450TIP3    H158841   1.382   1.552   1.249 -0.2602 -1.2653  1.6497
12450TIP3    H258842   1.346   1.433   1.162 -0.0889 -1.6690  2.1255
12451TIP3   OH258843   3.307   2.325   1.281 -0.2229 -0.5679 -0.2377
12451TIP3    H158844   3.214   2.305   1.292 -0.2386 -0.1261  0.4744
12451TIP3    H258845   3.313   2.418   1.303  0.1760 -0.2731 -1.5239
12452TIP3   OH258846   2.220   3.933   0.128 -0.0599  0.2141 -0.5249
12452TIP3    H158847   2.309   3.961   0.146 -1.1050  1.9642  2.6453
12452TIP3    H258848   2.194   3.881   0.204 -1.6841 -0.4799 -1.4822
12453TIP3   OH258849   0.102   4.655  13.968  0.2186  0.1910  0.1905
12453TIP3    H158850   0.195   4.675  13.981  0.1422  0.9434 -0.3630
12453TIP3    H258851   0.103   4.577  13.913  0.5158 -0.6327  1.3224
12454TIP3   OH258852   2.956   2.318   2.142  0.0566  0.2020 -0.2164
12454TIP3    H158853   2.935   2.228   2.115 -2.7202  0.5938  0.3882
12454TIP3    H258854   2.901   2.373   2.087  2.2188  1.6666 -1.0713
12455TIP3   OH258855   1.545   0.833   5.920  0.3991  0.7807 -0.1057
12455TIP3    H158856   1.623   0.846   5.865  1.1455 -0.5399  0.5709
12455TIP3    H258857   1.576   0.850   6.009 -0.6640  2.3779 -0.0053
12456TIP3   OH258858   5.066   1.958  15.033  0.3463  0.5547 -0.1296
12456TIP3    H158859   5.121   2.036  15.034 -0.1643  0.9572 -1.2424
12456TIP3    H258860   4.978   1.990  15.054  0.5378 -0.1277  1.9242
12457TIP3   OH258861   0.771   3.587  17.035  0.0788  0.5848  0.3868
12457TIP3    H158862   0.796   3.510  17.087 -0.4729  1.0041  1.2860
12457TIP3    H258863   0.685   3.565  17.000  0.8027 -0.0382 -1.0625
12458TIP3   OH258864   2.700   5.540   5.659 -0.6109 -0.5612  0.0487
12458TIP3    H158865   2.761   5.523   5.731 -0.4217  1.3128  0.3855
12458TIP3    H258866   2.749   5.517   5.580  0.0173 -0.4788  0.4046
12459TIP3   OH258867   2.294   0.311   5.859 -0.0761  0.4675 -0.1691
12459TIP3    H158868   2.332   0.399   5.861  1.6070 -0.1900 -0.6007
12459TIP3    H258869   2.365   0.256   5.824 -0.5415 -1.3143  1.5279
12460TIP3   OH258870   4.825   0.628  12.828  0.3244 -0.1532 -0.2562
12460TIP3    H158871   4.783   0.602  12.910 -0.0669 -0.2171 -0.4717
12460TIP3    H258872   4.805   0.556  12.767  2.1276 -0.9907  0.0659
12461TIP3   OH258873   1.089   3.790  14.470  0.0673  0.1962  1.1007
12461TIP3    H158874   1.153   3.830  14.529  0.8477  0.5641  0.0329
12461TIP3    H258875   1.084   3.699  14.497  0.2468  0.4060  1.8682
12462TIP3   OH258876   5.309   3.141  17.478  1.1756  0.6144 -0.1165
12462TIP3    H158877   5.288   3.142  17.384 -0.2675  0.1523  0.1734
12462TIP3    H258878   5.227   3.162  17.521  1.4125 -0.7628  1.1006
12463TIP3   OH258879   4.902   0.531  15.934 -0.1283  0.3760  0.0164
12463TIP3    H158880   4.974   0.493  15.985 -1.8314 -3.3372 -0.0933
12463TIP3    H258881   4.826   0.524  15.991 -1.6209 -1.7200 -2.0778
12464TIP3   OH258882   5.531   2.551   4.201 -0.5988 -0.3367 -0.6445
12464TIP3    H158883   5.621   2.553   4.169 -0.1057  0.5863  0.6739
12464TIP3    H258884   5.533   2.604   4.281 -1.6257 -2.8687  1.2125
12465TIP3   OH258885   0.857   3.396  10.631  0.7254 -1.1569 -0.1661
12465TIP3    H158886   0.935   3.439  10.597  1.2893 -2.9521 -1.2661
12465TIP3    H258887   0.785   3.435  10.583  1.0055 -0.0261  0.3106
12466TIP3   OH258888   3.721   4.753   0.964 -0.0406 -0.1615 -0.2916
12466TIP3    H158889   3.680   4.762   0.878 -0.6333  0.7102  0.0620
12466TIP3    H258890   3.769   4.671   0.960 -1.1796 -0.8118 -0.9976
12467TIP3   OH258891   3.587   0.295  10.953  0.2304  0.5186 -0.1925
12467TIP3    H158892   3.525   0.228  10.925 -0.2416  0.0691  1.8010
12467TIP3    H258893   3.660   0.246  10.989  0.7428  1.0814 -0.4459
12468TIP3   OH258894   6.666   5.347   2.078 -0.7153  0.1867  0.5831
12468TIP3    H158895   6.637   5.256   2.076  2.1969 -0.8877  1.8578
12468TIP3    H258896   6.656   5.374   2.169  1.7094 -0.1193  1.0022
12469TIP3   OH258897   1.691   1.584  12.464  0.2120 -0.1750 -0.3390
12469TIP3    H158898   1.730   1.664  12.500 -0.1201 -0.3472  0.4040
12469TIP3    H258899   1.764   1.541  12.419  0.8863 -0.4540  0.9703
12470TIP3   OH258900   5.364   0.427   3.000  0.5237 -0.1329 -0.0042
12470TIP3    H158901   5.356   0.369   2.925 -3.5205 -0.4066  0.3808
12470TIP3    H258902   5.312   0.504   2.976  1.9647  1.2988  1.2602
12471TIP3   OH258903   1.606   2.328  14.872 -0.1645  0.1325 -0.2941
12471TIP3    H158904   1.602   2.335  14.967 -4.0478 -1.8169 -0.1011
12471TIP3    H258905   1.661   2.251  14.856  0.8794  0.7360  0.3236
12472TIP3   OH258906   3.845   1.618  17.238  0.6428  0.0071  0.0288
12472TIP3    H158907   3.817   1.621  17.330  0.8276  0.1399  0.0812
12472TIP3    H258908   3.765   1.595  17.190  1.3288 -4.4138  0.5781
12473TIP3   OH258909   3.991   3.406   4.349 -0.2501 -1.0485  0.2742
12473TIP3    H158910   3.899   3.398   4.322 -0.0510 -1.5632 -0.2855
12473TIP3    H258911   4.028   3.320   4.332  0.3728 -0.8026  0.3639
12474TIP3   OH258912   4.354   6.134   4.929 -0.2602  0.0345  0.2943
12474TIP3    H158913   4.354   6.216   4.881  1.6474 -1.2257 -2.1194
12474TIP3    H258914   4.430   6.140   4.987 -1.8575  1.0740  2.3829
12475TIP3   OH258915   3.160   2.926  16.452 -0.1586 -0.1885 -0.2651
12475TIP3    H158916   3.111   3.006  16.431  1.3800  1.2320  1.2570
12475TIP3    H258917   3.245   2.939  16.410  1.5849  0.9512  3.2242
12476TIP3   OH258918   2.635   2.551  14.331  1.3269 -0.5914 -0.4642
12476TIP3    H158919   2.577   2.626  14.319  1.7014  0.1246  1.6709
12476TIP3    H258920   2.590   2.478  14.288 -0.5304  0.2265 -0.0088
12477TIP3   OH258921   6.349   5.673  13.223 -0.7105  0.2027  0.4766
12477TIP3    H158922   6.288   5.743  13.247  0.3012  0.9831  0.8452
12477TIP3    H258923   6.434   5.715  13.219 -0.2375 -0.7812 -0.4588
12478TIP3   OH258924   2.410   6.026   2.869  0.3138  0.5999 -0.0947
12478TIP3    H158925   2.360   5.947   2.890 -0.9155  1.3762 -0.0406
12478TIP3    H258926   2.475   6.032   2.940 -1.3177  1.0881  1.4086
12479TIP3   OH258927   2.598   4.999  10.827 -0.6838  0.4503  0.3435
12479TIP3    H158928   2.550   4.918  10.813  0.2308 -0.1433  0.5126
12479TIP3    H258929   2.554   5.041  10.900 -0.5828 -0.3808  0.8962
12480TIP3   OH258930   5.684   3.327   4.907  0.1784  0.1409 -0.4145
12480TIP3    H158931   5.687   3.289   4.819 -2.8897  2.3474 -1.6501
12480TIP3    H258932   5.743   3.401   4.904 -0.4703  0.6477 -0.8974
12481TIP3   OH258933   1.199   1.413   5.757  0.3065 -0.3571  0.3038
12481TIP3    H158934   1.219   1.357   5.682 -0.4407  0.0871 -0.2394
12481TIP3    H258935   1.161   1.353   5.821 -0.3359 -0.5146 -0.2090
12482TIP3   OH258936   2.053   3.877   2.567  0.2194  0.3379  0.4875
12482TIP3    H158937   2.091   3.855   2.653  1.2372 -0.3551 -0.1037
12482TIP3    H258938   2.016   3.794   2.537 -0.4820  0.6752  0.4220
12483TIP3   OH258939   6.197   0.341  12.796  0.4877  0.1140  0.7014
12483TIP3    H158940   6.162   0.429  12.804 -0.1121 -0.1891  1.5463
12483TIP3    H258941   6.119   0.285  12.789  0.8121 -0.5004  1.8698
12484TIP3   OH258942   2.645   0.126  15.762  0.1122  0.0305  0.3248
12484TIP3    H158943   2.647   0.031  15.752 -2.2622 -0.3317  2.1937
12484TIP3    H258944   2.665   0.141  15.854  1.2918  1.4610 -0.1189
12485TIP3   OH258945   5.632   4.528  11.951  0.2919 -0.0485  0.4209
12485TIP3    H158946   5.572   4.514  11.877  0.7616 -1.6774  0.3038
12485TIP3    H258947   5.579   4.574  12.016 -1.6691 -2.7854  0.9544
12486TIP3   OH258948   6.471   5.801  11.906 -0.3009 -0.3334  0.8532
12486TIP3    H158949   6.451   5.750  11.828  0.2734 -1.8005  1.6131
12486TIP3    H258950   6.396   5.859  11.917 -1.6678 -1.9972  0.7029
12487TIP3   OH258951   1.692   4.569  13.276 -0.1027 -0.0438  0.0614
12487TIP3    H158952   1.618   4.525  13.235  0.9727 -1.9588  0.0733
12487TIP3    H258953   1.708   4.646  13.220 -1.9907  0.3499  0.0113
12488TIP3   OH258954   6.652   1.298   3.203  0.3501  0.1330 -0.0666
12488TIP3    H158955   6.562   1.283   3.234 -1.4761  1.5315 -4.0152
12488TIP3    H258956   6.700   1.220   3.230 -3.0123 -2.4535 -0.8620
12489TIP3   OH258957   3.996   1.271   0.461 -0.1592  0.0250  0.3124
12489TIP3    H158958   4.051   1.193   0.457 -0.0417  0.1630 -1.7893
12489TIP3    H258959   3.912   1.239   0.493  0.6311 -0.4704  2.0064
12490TIP3   OH258960   1.294   3.094  10.969  0.4771  0.3297 -0.0331
12490TIP3    H158961   1.294   3.060  10.880 -0.5601 -1.6436  0.6815
12490TIP3    H258962   1.204   3.122  10.985  0.6193  0.5194  0.4722
12491TIP3   OH258963   5.479   2.499  12.877  0.3681 -0.2698  0.0776
12491TIP3    H158964   5.402   2.462  12.833  1.0463 -0.5038 -0.9472
12491TIP3    H258965   5.443   2.556  12.945 -0.7123 -1.3469  0.4490
12492TIP3   OH258966   3.938   4.562   5.558  0.0682 -0.0974  0.3543
12492TIP3    H158967   3.881   4.519   5.494 -1.2772 -0.1154  1.5209
12492TIP3    H258968   3.971   4.491   5.613 -0.5255  0.1121  1.0065
12493TIP3   OH258969   1.147   3.545   5.563  0.8437 -0.6326 -0.0602
12493TIP3    H158970   1.069   3.600   5.554  1.2550  0.0202  0.2850
12493TIP3    H258971   1.132   3.472   5.504 -1.1396 -1.8027  1.7327
12494TIP3   OH258972   5.554   6.725  11.545  0.9606 -0.2209 -0.0944
12494TIP3    H158973   5.610   6.800  11.525  0.9249 -0.2446 -0.2861
12494TIP3    H258974   5.475   6.739  11.493  1.4825 -1.0392 -1.1394
12495TIP3   OH258975   3.930   2.763   5.367  0.1031  0.5865 -0.1961
12495TIP3    H158976   3.858   2.734   5.311 -0.1033 -0.6303  0.6518
12495TIP3    H258977   3.907   2.853   5.392  0.3117  1.2264 -2.1905
12496TIP3   OH258978   0.517   2.164  16.448  0.5434 -0.1257 -0.0360
12496TIP3    H158979   0.456   2.151  16.521  0.3801 -0.5746 -0.2499
12496TIP3    H258980   0.462   2.197  16.376  0.7053  0.3239  0.0427
12497TIP3   OH258981   5.848   4.102  13.222 -0.0681  0.3379 -0.0607
12497TIP3    H158982   5.914   4.034  13.236  0.4668  0.9677  0.5488
12497TIP3    H258983   5.898   4.184  13.222 -0.7108  0.7418 -0.7377
12498TIP3   OH258984   2.905   1.331  17.385  0.5893 -0.1044  0.2873
12498TIP3    H158985   2.892   1.318  17.479 -1.1410  0.7599  0.1973
12498TIP3    H258986   2.931   1.423  17.377 -0.6795  0.2322 -0.1686
12499TIP3   OH258987   4.492   0.615   0.409 -0.4134 -0.5641  0.9835
12499TIP3    H158988   4.574   0.582   0.371 -0.1820  2.1096 -1.1743
12499TIP3    H258989   4.437   0.537   0.417  1.1340 -1.9512 -0.7859
12500TIP3   OH258990   3.512   5.078  11.447 -0.0721  0.3126  0.0643
12500TIP3    H158991   3.428   5.043  11.477 -0.6470 -1.9029 -3.5576
12500TIP3    H258992   3.495   5.170  11.429 -0.7209  0.7406  2.4869
12501TIP3   OH258993   4.352   5.893  16.250  0.0016  0.4912 -0.3848
12501TIP3    H158994   4.436   5.873  16.292 -0.4316  0.1145  0.3210
12501TIP3    H258995   4.313   5.959  16.307 -0.4568  0.2070 -0.3711
12502TIP3   OH258996   6.272   4.418   2.708 -0.3984 -0.1651 -0.1693
12502TIP3    H158997   6.179   4.401   2.694 -0.6491  0.0638  1.0697
12502TIP3    H258998   6.285   4.507   2.675 -0.8608  0.1958  0.5899
12503TIP3   OH258999   3.163   4.014   4.337 -0.5235  0.5089  0.0099
12503TIP3    H159000   3.147   3.932   4.292  0.2193 -0.4463  1.4062
12503TIP3    H259001   3.100   4.015   4.409 -0.7213  1.3154 -0.1603
12504TIP3   OH259002   1.676   4.031   3.312 -0.2233  0.0431  0.2663
12504TIP3    H159003   1.651   4.005   3.401  0.6855  1.7127  1.0560
12504TIP3    H259004   1.597   4.068   3.274 -0.6053 -0.6409  0.3653
12505TIP3   OH259005   6.397   3.079   4.169  0.1950  0.1751  0.3699
12505TIP3    H159006   6.357   3.026   4.237 -1.9046 -0.0644 -0.9754
12505TIP3    H259007   6.357   3.165   4.178  0.8359  0.4939  0.2249
12506TIP3   OH259008   1.883   6.286  11.965 -0.0767 -0.5163 -0.4656
12506TIP3    H159009   1.972   6.318  11.978 -0.6129  0.6855  0.4722
12506TIP3    H259010   1.853   6.332  11.887 -1.0906  2.0124  1.2727
12507TIP3   OH259011   1.375   0.199   0.073 -0.0387  0.0519  0.5318
12507TIP3    H159012   1.431   0.126   0.101  1.4957  1.4874  1.4097
12507TIP3    H259013   1.409   0.222  -0.014 -0.0842  0.1611  0.5441
12508TIP3   OH259014   5.231   3.845   5.362 -0.5251 -0.9015  0.4158
12508TIP3    H159015   5.297   3.900   5.319 -0.4209 -0.4202  1.1688
12508TIP3    H259016   5.149   3.891   5.349 -0.6419 -1.2567 -0.1096
12509TIP3   OH259017   3.261   5.949   1.694 -0.4616  0.0511 -0.8517
12509TIP3    H159018   3.288   5.914   1.608  1.5006  2.4190 -1.3381
12509TIP3    H259019   3.264   5.874   1.752  3.4170 -0.8065 -1.8201
12510TIP3   OH259020   2.267   5.502   5.939  0.3558 -0.4281 -0.4854
12510TIP3    H159021   2.333   5.572   5.929  0.1127  0.8176  4.2151
12510TIP3    H259022   2.191   5.535   5.891  0.3013  2.6970  1.3995
12511TIP3   OH259023   6.735   6.603   4.489  0.7028  0.5856 -0.2911
12511TIP3    H159024   6.785   6.536   4.536 -0.2229 -0.3794 -0.6555
12511TIP3    H259025   6.644   6.576   4.497  0.2678  1.9763 -0.1918
12512TIP3   OH259026   5.506   5.952  15.726 -0.1127 -0.0343 -0.1557
12512TIP3    H159027   5.432   6.002  15.759  0.0540 -0.2924  0.6226
12512TIP3    H259028   5.501   5.962  15.631  0.9829  3.0543 -0.0230
12513TIP3   OH259029   1.925   1.334   4.904 -0.3196 -0.5175 -0.3827
12513TIP3    H159030   1.905   1.268   4.970  1.0117  0.1392  0.7346
12513TIP3    H259031   2.020   1.329   4.894  0.0456  2.2157  0.8662
12514TIP3   OH259032   2.900   0.333   5.484  0.1026 -0.2224 -0.2942
12514TIP3    H159033   2.966   0.263   5.484  0.7495  0.3456 -1.9222
12514TIP3    H259034   2.942   0.405   5.530 -0.5460 -0.8417  1.3420
12515TIP3   OH259035   2.011   1.628  15.306  0.0130  0.9945  0.2966
12515TIP3    H159036   2.015   1.665  15.395  0.0954 -1.0521  1.1937
12515TIP3    H259037   2.102   1.607  15.285  0.1954  2.7344 -0.9028
12516TIP3   OH259038   5.162   4.730  15.850 -0.3546  0.5272 -0.7888
12516TIP3    H159039   5.127   4.713  15.763 -0.5445  0.2701 -0.6629
12516TIP3    H259040   5.180   4.824  15.851  1.6604  0.2000 -1.8392
12517TIP3   OH259041   1.494   0.786  15.728 -0.2400 -0.0109  0.4774
12517TIP3    H159042   1.402   0.762  15.713 -0.0575 -1.6335  1.6547
12517TIP3    H259043   1.517   0.742  15.810  1.7744 -0.1881 -0.1230
12518TIP3   OH259044   4.491   1.772   4.999  0.3626  0.0849 -0.0165
12518TIP3    H159045   4.579   1.801   5.023  0.4215 -1.3597  1.7540
12518TIP3    H259046   4.442   1.774   5.081 -1.2295  0.6845 -0.9441
12519TIP3   OH259047   0.092   3.846  13.028  0.2677 -0.0240  0.0942
12519TIP3    H159048   0.035   3.910  12.987  0.4495  1.3278  1.8258
12519TIP3    H259049   0.058   3.761  13.000 -1.6023  0.7863 -0.1820
12520TIP3   OH259050   3.026   2.858   0.404 -0.3732  0.5689  0.7861
12520TIP3    H159051   2.947   2.904   0.374 -0.0136  0.9970  0.4846
12520TIP3    H259052   3.017   2.855   0.499 -2.3791 -2.3306  0.6198
12521TIP3   OH259053   5.947   1.723  16.984  0.2199 -0.1197 -0.1024
12521TIP3    H159054   5.876   1.774  17.023 -1.0058 -2.3069  0.7186
12521TIP3    H259055   6.013   1.718  17.053  1.2000  1.8065 -0.8211
12522TIP3   OH259056   5.479   1.069  12.591 -0.1086  0.2830  0.1542
12522TIP3    H159057   5.491   1.092  12.499 -1.0043  1.5686  0.3386
12522TIP3    H259058   5.421   0.993  12.590  0.6391 -0.2964 -0.3610
12523TIP3   OH259059   0.025   4.396   3.334 -0.0746 -0.2682  0.1825
12523TIP3    H159060  -0.029   4.324   3.366 -2.2399  1.2180  0.0835
12523TIP3    H259061  -0.007   4.413   3.245 -1.2726  2.2478  1.0025
12524TIP3   OH259062   1.881   1.410  14.578 -0.0638  0.5060  0.7246
12524TIP3    H159063   1.830   1.352  14.634  0.0032  0.5200  0.8006
12524TIP3    H259064   1.949   1.444  14.636  1.5558 -1.3949  0.0438
12525TIP3   OH259065   4.389   4.741   1.405 -0.3142  0.1064 -0.0707
12525TIP3    H159066   4.465   4.706   1.452  0.2256  3.1140  1.5481
12525TIP3    H259067   4.336   4.663   1.384  1.2330 -1.7440  2.3033
12526TIP3   OH259068   6.588   5.295   0.713 -0.4942 -1.0693 -0.0036
12526TIP3    H159069   6.571   5.215   0.763  1.3217 -0.9984  0.8290
12526TIP3    H259070   6.659   5.338   0.761  0.1226 -0.1055 -1.6948
12527TIP3   OH259071   3.268   6.466   0.296 -0.2788 -0.0643 -0.2055
12527TIP3    H159072   3.248   6.555   0.265 -1.3332 -0.2934 -0.2329
12527TIP3    H259073   3.352   6.474   0.341 -1.2390  1.3593  1.4740
12528TIP3   OH259074   2.861   3.573   5.356 -0.0549  0.0398  0.2129
12528TIP3    H159075   2.823   3.583   5.443 -2.0395 -0.7008 -0.5010
12528TIP3    H259076   2.953   3.597   5.367 -0.2112 -0.1728  2.5261
12529TIP3   OH259077   0.765   1.607   5.952  0.2542 -0.1189  0.0010
12529TIP3    H159078   0.849   1.579   5.917  0.3394 -0.5845  0.5689
12529TIP3    H259079   0.753   1.696   5.919  1.2704  0.1903  0.4562
12530TIP3   OH259080   5.488   5.088   1.749  0.0146 -0.0905 -0.0556
12530TIP3    H159081   5.428   5.097   1.823 -0.8953 -1.6239 -0.5687
12530TIP3    H259082   5.575   5.104   1.787 -0.3922 -1.1355  1.4199
12531TIP3   OH259083   5.824   1.860   0.750  0.2055  0.1282  0.8482
12531TIP3    H159084   5.880   1.889   0.822 -0.7172 -0.2499  1.7516
12531TIP3    H259085   5.751   1.922   0.750  0.1823  0.1027  0.2606
12532TIP3   OH259086   2.887   4.320  14.495 -0.0171  0.0353  0.5251
12532TIP3    H159087   2.961   4.314  14.435 -0.7460  0.0780 -0.3921
12532TIP3    H259088   2.855   4.410  14.484 -1.3161 -0.5220 -0.4432
12533TIP3   OH259089   3.797   1.791  12.308  0.3552  0.2019 -0.4350
12533TIP3    H159090   3.884   1.830  12.302  1.0598 -1.0849  0.7096
12533TIP3    H259091   3.814   1.698  12.324 -1.2337 -0.1567 -0.6613
12534TIP3   OH259092   2.302   2.503  13.229  0.1112 -0.2838  0.5567
12534TIP3    H159093   2.386   2.528  13.269  1.0463 -1.6535 -0.4745
12534TIP3    H259094   2.237   2.520  13.297  1.1461  1.2601  1.2185
12535TIP3   OH259095   4.553   5.017  12.067  0.3044  0.1248  0.0226
12535TIP3    H159096   4.481   4.977  12.018  0.1250 -0.3063  0.6315
12535TIP3    H259097   4.511   5.080  12.124  0.5325  0.7600 -0.4936
12536TIP3   OH259098   1.475   5.989  12.510  0.1036 -0.2971 -0.1026
12536TIP3    H159099   1.415   6.023  12.443 -0.4740  1.6583  1.3094
12536TIP3    H259100   1.429   6.005  12.592  1.7007 -0.6952  0.8943
12537TIP3   OH259101   2.081   3.459   5.442  0.1649 -0.3297  0.1943
12537TIP3    H159102   2.123   3.514   5.508  0.0936  0.3195 -0.2933
12537TIP3    H259103   2.141   3.385   5.430  1.9503  1.3160 -1.5685
12538TIP3   OH259104   6.560   4.847  12.370 -0.2513  0.0860 -0.0605
12538TIP3    H159105   6.533   4.896  12.292  0.8938  0.4655 -0.2362
12538TIP3    H259106   6.531   4.900  12.444  0.5825  0.8274 -0.2473
12539TIP3   OH259107   4.097   3.487  14.215 -0.4692 -0.6903  0.0284
12539TIP3    H159108   4.126   3.446  14.133 -0.3838 -0.9350  0.1780
12539TIP3    H259109   4.005   3.509  14.199 -0.0917  0.4967 -0.6091
12540TIP3   OH259110   1.536   1.572   1.499  0.1964  0.0145 -0.2870
12540TIP3    H159111   1.509   1.659   1.530  0.1260  0.0627 -0.4857
12540TIP3    H259112   1.467   1.513   1.529  0.6831 -0.1131  0.6255
12541TIP3   OH259113   5.712   1.930   1.150 -0.3997 -0.0490 -0.5800
12541TIP3    H159114   5.655   1.913   1.075 -1.0624  1.2641 -0.4020
12541TIP3    H259115   5.735   2.023   1.141 -2.8024  0.9821  2.3253
12542TIP3   OH259116   5.826   4.370   4.232  0.7048 -0.3171  0.2304
12542TIP3    H159117   5.856   4.298   4.176  0.1265 -1.2334  1.0623
12542TIP3    H259118   5.735   4.348   4.251  0.6125  0.4973  0.7316
12543TIP3   OH259119   6.550   3.851   1.956  0.5959  0.1096  0.3957
12543TIP3    H159120   6.464   3.864   1.916  1.1845  0.8413 -0.6580
12543TIP3    H259121   6.593   3.785   1.902  0.3553 -1.0031  1.5023
12544TIP3   OH259122   1.344   3.028  11.744 -0.5823  0.1557  0.1490
12544TIP3    H159123   1.277   3.096  11.754  0.3304  1.3058 -1.2166
12544TIP3    H259124   1.375   3.011  11.833 -1.7368  0.5751  0.6476
12545TIP3   OH259125   0.130   6.291  12.996 -0.1813  0.2555  0.5756
12545TIP3    H159126   0.104   6.379  12.970  2.0153  0.4973 -1.0904
12545TIP3    H259127   0.090   6.234  12.930 -0.3148  0.1439  0.7505
12546TIP3   OH259128   5.427   2.928  14.140  0.0306 -0.3439 -0.0488
12546TIP3    H159129   5.360   2.885  14.087  0.4074  0.6322 -1.3536
12546TIP3    H259130   5.507   2.920  14.089 -0.0509  2.6223 -0.7810
12547TIP3   OH259131   2.244   5.824   2.992  0.4867 -0.1828  0.0312
12547TIP3    H159132   2.158   5.789   2.966  0.8985 -0.3127 -1.2105
12547TIP3    H259133   2.292   5.748   3.025 -0.0310 -0.0216  1.2126
12548TIP3   OH259134   3.271   0.615  17.422  0.1424  0.2599 -0.4645
12548TIP3    H159135   3.223   0.621  17.340 -2.3059 -1.4988  0.7042
12548TIP3    H259136   3.275   0.521  17.441  0.2901  0.6269  1.5950
12549TIP3   OH259137   2.617   6.166  16.106 -0.1018 -0.3278 -0.0531
12549TIP3    H159138   2.555   6.093  16.116 -0.7726  0.2797  0.2760
12549TIP3    H259139   2.670   6.164  16.186 -0.6377  0.0251  0.3152
12550TIP3   OH259140   4.225   5.740   2.436 -0.1895  0.0664 -0.6969
12550TIP3    H159141   4.298   5.798   2.457  0.1381  0.1513 -1.9633
12550TIP3    H259142   4.227   5.673   2.504  0.9403  0.1887 -0.5873
12551TIP3   OH259143   0.312   1.353   2.648 -0.0072 -0.6315 -0.1037
12551TIP3    H159144   0.369   1.294   2.598 -0.0828 -0.0779 -0.8548
12551TIP3    H259145   0.347   1.441   2.631  0.4734 -0.4768  1.4807
12552TIP3   OH259146   0.235   5.020  12.967  0.9673 -0.4129  0.2124
12552TIP3    H159147   0.202   5.070  12.893  0.6189 -1.2467 -0.2154
12552TIP3    H259148   0.225   5.079  13.042  0.9351  0.2891 -0.3343
12553TIP3   OH259149   2.673   4.683  13.541  0.4269 -0.2531 -0.0852
12553TIP3    H159150   2.596   4.630  13.562  0.0966 -0.2697 -1.2278
12553TIP3    H259151   2.708   4.643  13.461  1.2775  0.1133  0.0967
12554TIP3   OH259152   6.423   0.819  17.068 -0.1113 -0.7806 -0.1393
12554TIP3    H159153   6.428   0.906  17.106 -1.4062  0.3623 -2.3757
12554TIP3    H259154   6.471   0.763  17.129  1.7981  1.6707  0.7603
12555TIP3   OH259155   6.322   5.818   1.293  0.0893 -0.9694  0.9060
12555TIP3    H159156   6.247   5.810   1.353  0.2811  1.8620  1.6615
12555TIP3    H259157   6.398   5.799   1.348  0.1397 -0.3002  1.0726
12556TIP3   OH259158   2.945   4.240  13.412 -0.2258 -0.3722 -0.0019
12556TIP3    H159159   2.856   4.249  13.378 -0.2036 -1.2845 -0.3464
12556TIP3    H259160   2.963   4.323  13.456 -0.3497  0.7609 -1.9708
12557TIP3   OH259161   2.196   2.064  11.071  0.0205  0.6878 -0.0103
12557TIP3    H159162   2.243   2.037  10.993 -1.1515 -0.1121 -0.4759
12557TIP3    H259163   2.118   2.008  11.072  0.7164 -0.3882  2.5115
12558TIP3   OH259164   6.328   5.170  16.401  0.2543 -0.6001  0.2595
12558TIP3    H159165   6.380   5.208  16.472  0.7623  0.7729 -0.7817
12558TIP3    H259166   6.251   5.133  16.444  0.7592 -0.2003  1.5575
12559TIP3   OH259167   5.254   2.815  17.140  0.0501  0.4729  0.1688
12559TIP3    H159168   5.173   2.864  17.126  0.1871  0.6696  0.0503
12559TIP3    H259169   5.279   2.784  17.053  0.0379  0.3127  0.2224
12560TIP3   OH259170   6.712   5.136   4.890  0.1253  0.2584  0.2856
12560TIP3    H159171   6.717   5.232   4.885  0.4238  0.2488  0.3756
12560TIP3    H259172   6.685   5.118   4.980 -0.7262  0.2802  0.0451
12561TIP3   OH259173   6.563   2.547  11.679 -0.1204 -0.1022 -0.4954
12561TIP3    H159174   6.647   2.567  11.719  0.3875 -2.0967 -0.4363
12561TIP3    H259175   6.504   2.534  11.753  0.2095 -1.3391 -0.4251
12562TIP3   OH259176   1.894   6.081   4.013 -0.4303 -0.3169 -0.2086
12562TIP3    H159177   1.918   5.993   4.042  0.1058 -0.0919  0.0431
12562TIP3    H259178   1.936   6.139   4.076 -1.7089  0.0915  0.3047
12563TIP3   OH259179   2.009   4.357  11.043  0.4548 -0.8568  0.2264
12563TIP3    H159180   2.024   4.358  10.948 -0.0486  0.2118  0.1469
12563TIP3    H259181   2.038   4.270  11.070  0.4904 -1.2268 -0.9255
12564TIP3   OH259182   5.497   3.728   2.483 -0.4660  0.0979 -0.3002
12564TIP3    H159183   5.521   3.714   2.575  2.6137  2.2821 -0.6264
12564TIP3    H259184   5.487   3.823   2.476 -3.0976 -0.1970 -1.7813
12565TIP3   OH259185   3.187   3.203  13.346 -0.2275 -0.5059  0.7501
12565TIP3    H159186   3.129   3.144  13.394 -0.1903 -0.3723  0.9627
12565TIP3    H259187   3.258   3.147  13.313 -0.1821 -0.5750  0.9666
12566TIP3   OH259188   0.758   0.277  12.676 -0.2727  0.2891  0.1197
12566TIP3    H159189   0.810   0.287  12.755 -0.7753 -1.0387  0.6358
12566TIP3    H259190   0.820   0.245  12.610 -0.0730  0.4128  0.2476
12567TIP3   OH259191   3.519   1.808  15.081  0.2170  0.6080  0.4016
12567TIP3    H159192   3.439   1.823  15.130  0.3962 -1.2413  1.3606
12567TIP3    H259193   3.578   1.765  15.143  1.8153  1.5189 -0.4001
12568TIP3   OH259194   1.047   5.180  13.500 -0.5095  0.6585 -0.6371
12568TIP3    H159195   0.957   5.210  13.488 -0.4992  2.4755  2.6806
12568TIP3    H259196   1.040   5.107  13.560  0.1752 -0.0469 -1.3953
12569TIP3   OH259197   0.424   4.250   0.177  0.1160  0.4856 -0.0230
12569TIP3    H159198   0.439   4.275   0.268 -1.5155  0.7798  0.2075
12569TIP3    H259199   0.464   4.320   0.126 -2.2552  2.4391  0.5802
12570TIP3   OH259200   0.831   6.143   1.584  0.4929 -0.5691 -0.0557
12570TIP3    H159201   0.828   6.220   1.529  0.6985 -0.5627 -0.0605
12570TIP3    H259202   0.740   6.123   1.605  0.4774  0.1169  0.5637
12571TIP3   OH259203   1.972   6.220   5.347 -0.7012 -0.2403  0.0165
12571TIP3    H159204   1.904   6.214   5.280 -0.7254 -3.1880  0.1568
12571TIP3    H259205   1.962   6.308   5.384 -1.6016  0.9777 -2.8336
12572TIP3   OH259206   5.077   3.929  16.304 -0.0758 -0.1332 -0.2957
12572TIP3    H159207   5.012   3.859  16.289  1.0920 -1.1641 -0.7312
12572TIP3    H259208   5.157   3.895  16.265  1.4187 -0.0208  2.4800
12573TIP3   OH259209   3.165   6.737   0.291 -0.0521  0.0698  0.2362
12573TIP3    H159210   3.070   6.746   0.279 -0.0144 -0.8459 -0.9591
12573TIP3    H259211   3.180   6.763   0.381 -1.8964 -2.6822  1.4915
12574TIP3   OH259212   1.885   6.297  13.794 -0.8567  0.0646 -0.2884
12574TIP3    H159213   1.790   6.282  13.794 -0.6500 -1.4570  0.3997
12574TIP3    H259214   1.922   6.217  13.830  0.7255  0.5388 -0.7572
12575TIP3   OH259215   3.489   5.562  16.526  0.2576  0.2485 -0.1283
12575TIP3    H159216   3.486   5.629  16.594  0.4595  0.8710 -0.7108
12575TIP3    H259217   3.566   5.585  16.474 -0.6283  0.5815 -1.3435
12576TIP3   OH259218   3.274   2.283   2.103 -0.5578  0.0798  0.5091
12576TIP3    H159219   3.326   2.336   2.164  1.0706  0.0244 -0.7734
12576TIP3    H259220   3.204   2.342   2.074  0.4043  1.1082  0.1718
12577TIP3   OH259221   6.081   2.252   4.509  0.6721 -0.2263  0.4400
12577TIP3    H159222   6.065   2.172   4.560 -1.9666 -0.2667 -0.3130
12577TIP3    H259223   6.031   2.239   4.429  1.5675  1.5106 -0.4546
12578TIP3   OH259224   6.035   5.201  16.551 -0.1338  0.0592  0.0840
12578TIP3    H159225   5.953   5.195  16.601 -0.8889 -2.2860 -1.3075
12578TIP3    H259226   6.007   5.214  16.460  1.0282 -1.0004 -0.4440
12579TIP3   OH259227   5.265   4.785  14.898  0.7063  0.1560  0.3625
12579TIP3    H159228   5.235   4.713  14.953 -1.2113 -0.7926 -1.7590
12579TIP3    H259229   5.332   4.747  14.841  0.4873  0.3152 -0.0101
12580TIP3   OH259230   1.842   0.962   5.396 -0.3945 -0.2108  0.4510
12580TIP3    H159231   1.868   1.015   5.472 -0.9834 -0.0670  0.5586
12580TIP3    H259232   1.878   0.875   5.415  3.4496  0.8155 -1.2487
12581TIP3   OH259233   2.432   4.205   5.821 -0.1016  0.3014  0.4476
12581TIP3    H159234   2.376   4.143   5.868 -1.0052  1.1744  0.5852
12581TIP3    H259235   2.488   4.151   5.766 -2.0099 -0.6049 -0.7132
12582TIP3   OH259236   1.286   5.390  14.851  0.0543  0.1198  0.1632
12582TIP3    H159237   1.253   5.327  14.787  0.4212  1.0196 -0.9524
12582TIP3    H259238   1.210   5.411  14.906 -0.4171 -0.2407 -0.3425
12583TIP3   OH259239   0.915   6.689   0.742 -0.2716 -0.3979 -0.1495
12583TIP3    H159240   0.982   6.672   0.808 -0.3552 -1.1569 -0.2471
12583TIP3    H259241   0.937   6.630   0.670 -2.1917 -2.2416  0.6474
12584TIP3   OH259242   3.281   0.928  12.580 -0.2333  0.1231 -0.3961
12584TIP3    H159243   3.370   0.920  12.615  0.4215 -0.0524 -1.9931
12584TIP3    H259244   3.244   1.005  12.624  0.4959 -0.1504  0.7174
12585TIP3   OH259245   0.222   5.622   0.414  0.4746  0.0565 -0.1023
12585TIP3    H159246   0.214   5.686   0.484  0.3537 -0.0522 -0.0163
12585TIP3    H259247   0.159   5.650   0.348  0.5824  0.1541 -0.1646
12586TIP3   OH259248   0.120   4.782   5.196 -0.1796  0.1769  0.3606
12586TIP3    H159249   0.145   4.847   5.261 -2.0928  1.6896 -0.3101
12586TIP3    H259250   0.183   4.792   5.126  0.0594  0.7169  0.6460
12587TIP3   OH259251   5.467   1.543  13.598 -0.1335  0.2610  0.1405
12587TIP3    H159252   5.499   1.628  13.627 -0.9171  0.9989 -1.1075
12587TIP3    H259253   5.497   1.535  13.508  0.7639 -1.2311  0.5280
12588TIP3   OH259254   6.322   3.237  13.972  0.2110  0.3743 -0.3332
12588TIP3    H159255   6.386   3.293  14.017 -0.5494  0.4709  0.6819
12588TIP3    H259256   6.338   3.149  14.007 -2.2826  0.8796  2.5367
12589TIP3   OH259257   3.420   0.560   2.744  0.1278 -0.3655  0.0484
12589TIP3    H159258   3.436   0.647   2.706  0.7257  1.3940  3.8604
12589TIP3    H259259   3.484   0.503   2.702 -0.0292  1.0532 -2.3011
12590TIP3   OH259260   5.161   2.129   4.253  0.4975  0.2274 -0.2789
12590TIP3    H159261   5.078   2.082   4.248  1.3086 -1.3696  0.4394
12590TIP3    H259262   5.182   2.150   4.163  1.4103 -3.2790 -1.0284
12591TIP3   OH259263   1.745   0.561  16.243 -0.0974 -0.3194 -0.2809
12591TIP3    H159264   1.753   0.619  16.167  0.6387  1.0371  0.7895
12591TIP3    H259265   1.783   0.611  16.315 -0.6465 -1.6333  0.9578
12592TIP3   OH259266   5.652   0.412  16.161 -0.1434 -0.0326 -0.1828
12592TIP3    H159267   5.661   0.317  16.172  0.7231  0.1600  1.0485
12592TIP3    H259268   5.732   0.438  16.116  0.6710  0.3508  1.3853
12593TIP3   OH259269   1.285   6.447  15.073  0.1636 -0.5013 -0.1886
12593TIP3    H159270   1.340   6.404  15.139  0.2816 -0.1514 -0.0517
12593TIP3    H259271   1.276   6.383  15.003 -1.2104 -1.4505  0.8169
12594TIP3   OH259272   2.692   2.615  11.773 -0.4542 -0.5687  0.3240
12594TIP3    H159273   2.629   2.612  11.701  2.7478  1.2401 -2.9186
12594TIP3    H259274   2.741   2.533  11.766  1.4956  0.6237 -1.4513
12595TIP3   OH259275   0.189   2.530   5.431  0.3551 -0.0185 -0.1846
12595TIP3    H159276   0.117   2.557   5.488 -0.4228 -1.0900 -0.6275
12595TIP3    H259277   0.156   2.544   5.342  0.5975 -0.6960 -0.3914
12596TIP3   OH259278   5.953   3.594   3.737  0.4689 -0.4327  0.0313
12596TIP3    H159279   5.951   3.689   3.752  0.0069 -0.4441  0.0809
12596TIP3    H259280   5.917   3.557   3.818 -0.4343 -0.5861 -0.4248
12597TIP3   OH259281   0.041   4.683   5.811  0.3990  0.3576 -0.2320
12597TIP3    H159282   0.017   4.640   5.893 -0.2517  0.5921 -0.2873
12597TIP3    H259283   0.062   4.611   5.751 -0.3472  0.1172 -0.2204
12598TIP3   OH259284   3.458   0.630   3.893  0.4345  0.2906  0.2212
12598TIP3    H159285   3.421   0.652   3.807 -0.6767  1.7296  1.0122
12598TIP3    H259286   3.416   0.548   3.917  0.1599  0.2781 -0.2845
12599TIP3   OH259287   6.499   2.802   5.490  0.0581  0.3575 -0.3603
12599TIP3    H159288   6.486   2.797   5.585 -0.3688  1.3779 -0.3551
12599TIP3    H259289   6.411   2.813   5.454  0.1033 -1.0043 -0.9704
12600TIP3   OH259290   6.185   3.170   3.014 -0.1631 -0.6260 -0.0201
12600TIP3    H159291   6.107   3.195   3.064 -1.1609 -2.4834 -0.5416
12600TIP3    H259292   6.182   3.074   3.013  0.2192 -0.6964 -2.9702
12601TIP3   OH259293   4.329   5.570  11.337 -0.0477 -0.7709  0.1133
12601TIP3    H159294   4.267   5.637  11.310  2.5979  3.0077  2.4176
12601TIP3    H259295   4.290   5.530  11.414 -0.7628 -0.3606 -0.0298
12602TIP3   OH259296   1.938   6.620  13.553 -0.2618  0.3844  0.0238
12602TIP3    H159297   1.983   6.542  13.521  2.6775  1.5263  1.1037
12602TIP3    H259298   1.928   6.605  13.647 -0.9307  0.7599  0.0171
12603TIP3   OH259299   0.517   0.198  11.751  0.1753 -0.2798 -0.2895
12603TIP3    H159300   0.594   0.142  11.746  0.5126  0.0982  0.4955
12603TIP3    H259301   0.445   0.138  11.769  0.5154 -0.4868  0.4321
12604TIP3   OH259302   4.015   2.833   6.458 -0.4545 -0.4658  1.1392
12604TIP3    H159303   4.107   2.840   6.432 -0.4830 -3.2846 -0.0538
12604TIP3    H259304   3.984   2.924   6.460  1.5183  0.4105 -1.5028
12605TIP3   OH259305   4.494   0.676  13.134  0.3865 -0.3023  0.1095
12605TIP3    H159306   4.478   0.586  13.163 -0.7677  0.4422  2.0075
12605TIP3    H259307   4.424   0.694  13.071  1.4429 -1.1305 -1.3732
12606TIP3   OH259308   2.816   2.583   6.279  0.1810 -0.0281  0.3430
12606TIP3    H159309   2.724   2.608   6.282  0.7260  2.1110  1.1768
12606TIP3    H259310   2.844   2.583   6.371  0.9912 -0.8357  0.1181
12607TIP3   OH259311   2.310   6.621  10.832  0.5917  0.5263 -0.3317
12607TIP3    H159312   2.384   6.674  10.862 -0.0135  2.2872 -1.7640
12607TIP3    H259313   2.234   6.660  10.876  0.4329 -1.1612  0.9989
12608TIP3   OH259314   3.814   5.509   3.126  0.0700 -0.3480  0.8093
12608TIP3    H159315   3.909   5.515   3.127  0.2201 -2.1287  1.4405
12608TIP3    H259316   3.795   5.429   3.078 -1.1785  0.5347 -0.2505
12609TIP3   OH259317   1.900   3.636   5.360  0.1888 -0.0851 -0.1886
12609TIP3    H159318   1.971   3.580   5.391  0.1821 -0.7471 -1.3201
12609TIP3    H259319   1.893   3.704   5.427  2.1785  0.2620 -0.2545
12610TIP3   OH259320   2.620   4.489   0.119  0.5752 -0.1572 -0.1453
12610TIP3    H159321   2.573   4.480   0.202 -0.9608  0.9594 -0.8556
12610TIP3    H259322   2.552   4.489   0.052  1.6941  0.1590 -1.3258
12611TIP3   OH259323   4.285   0.711   5.555 -0.3989  0.6260 -0.3312
12611TIP3    H159324   4.240   0.672   5.480 -0.4817  0.7301 -0.3369
12611TIP3    H259325   4.324   0.791   5.521 -1.5973  1.3963  0.0364
12612TIP3   OH259326   4.778   6.619   0.678  0.2650 -0.3681  0.0432
12612TIP3    H159327   4.736   6.604   0.593  0.0775 -0.0403  0.0777
12612TIP3    H259328   4.817   6.705   0.671  1.3666 -0.8667 -0.1594
12613TIP3   OH259329   5.544   4.980  14.579 -0.2851 -0.0169  0.1171
12613TIP3    H159330   5.630   4.961  14.616 -0.3345 -1.4424 -0.4010
12613TIP3    H259331   5.536   4.918  14.506 -1.1819  1.0465 -0.7268
12614TIP3   OH259332   2.074   4.129  14.645 -0.1247  0.1319 -0.4537
12614TIP3    H159333   2.068   4.206  14.702 -0.3436  0.9503 -1.5400
12614TIP3    H259334   2.156   4.086  14.670 -0.1289  0.5677  0.3439
12615TIP3   OH259335   2.779   1.093  12.844 -0.0816  0.3608  0.2170
12615TIP3    H159336   2.815   1.115  12.930  0.2094  1.2248 -0.1099
12615TIP3    H259337   2.840   1.028  12.809 -0.2886 -0.1132  0.7212
12616TIP3   OH259338   5.835   2.515  13.086 -0.0526  0.2475  0.8131
12616TIP3    H159339   5.912   2.568  13.065 -0.2008  0.4858  0.8737
12616TIP3    H259340   5.846   2.494  13.179  1.2334 -1.8230  0.2670
12617TIP3   OH259341   5.644   1.044   0.721 -0.4824  0.2020 -0.5742
12617TIP3    H159342   5.629   1.091   0.640  0.0045 -0.2265 -0.9189
12617TIP3    H259343   5.709   1.096   0.768  1.2964 -0.9014 -1.6699
12618TIP3   OH259344   0.828   3.395  12.720 -0.1535  0.2591 -0.2386
12618TIP3    H159345   0.767   3.468  12.709 -1.0915  0.4155  4.2502
12618TIP3    H259346   0.774   3.317  12.708 -0.3989  0.3758  0.0883
12619TIP3   OH259347   6.427   2.637  12.821 -0.7013 -0.0377  0.3499
12619TIP3    H159348   6.509   2.678  12.797 -0.2569 -0.3281  1.3292
12619TIP3    H259349   6.379   2.629  12.738 -0.0126  0.6941 -0.1323
12620TIP3   OH259350   0.064   1.509  10.735  0.3549 -0.0395 -0.3264
12620TIP3    H159351   0.007   1.585  10.745 -0.0306 -0.1043 -1.7996
12620TIP3    H259352   0.152   1.544  10.744  0.1834  0.5933 -1.0372
12621TIP3   OH259353   5.993   6.718  15.448  0.5826  0.5294  0.2481
12621TIP3    H159354   6.017   6.727  15.541  0.7382 -1.3320  0.4276
12621TIP3    H259355   5.930   6.787  15.433 -0.7475 -0.1624  2.2207
12622TIP3   OH259356   3.805   6.237  13.823 -0.4408  0.8272  0.3550
12622TIP3    H159357   3.749   6.189  13.883  0.6331 -2.1550 -0.8484
12622TIP3    H259358   3.883   6.258  13.874 -0.0756 -0.5437  0.3900
12623TIP3   OH259359   1.908   4.370  14.963  0.4379 -0.0645 -0.1254
12623TIP3    H159360   1.984   4.382  14.905  0.0163 -0.8619 -0.8707
12623TIP3    H259361   1.947   4.342  15.046  0.9249 -2.6137 -1.1048
12624TIP3   OH259362   3.380   5.661  14.091 -0.2204 -0.5055 -0.3195
12624TIP3    H159363   3.330   5.641  14.011 -1.7654 -1.9209  0.9207
12624TIP3    H259364   3.363   5.586  14.149  3.6848 -1.2705  0.0973
12625TIP3   OH259365   4.284   1.933  12.925  0.0394  0.3589  0.9479
12625TIP3    H159366   4.279   2.012  12.979 -0.2711  1.6757 -0.9056
12625TIP3    H259367   4.229   1.869  12.970 -1.5540  1.9352  1.3351
12626TIP3   OH259368   1.061   1.109   1.599  0.2048  0.1813 -0.2924
12626TIP3    H159369   0.966   1.104   1.588  0.1732 -0.0167  0.0430
12626TIP3    H259370   1.073   1.166   1.675  0.3954  1.0652 -0.9777
12627TIP3   OH259371   2.257   0.813   5.777 -0.0700 -0.3687 -0.0725
12627TIP3    H159372   2.327   0.811   5.711  0.0186  0.0351  0.0056
12627TIP3    H259373   2.260   0.902   5.812 -1.9587  0.3352 -1.5040
12628TIP3   OH259374   3.936   4.935  13.720 -0.3452 -0.1399 -0.2894
12628TIP3    H159375   4.029   4.952  13.703 -0.7944  1.4575 -1.4182
12628TIP3    H259376   3.894   4.947  13.635 -1.7139  0.1951  0.4072
12629TIP3   OH259377   4.722   0.448   0.418  0.2427  0.3015  0.5366
12629TIP3    H159378   4.817   0.444   0.421  0.2657 -0.0006 -0.2242
12629TIP3    H259379   4.697   0.370   0.369 -0.2705  1.4406 -1.1083
12630TIP3   OH259380   2.882   4.603  12.283  0.3580  0.7300  0.1389
12630TIP3    H159381   2.821   4.579  12.353  0.5904 -0.3560 -0.0074
12630TIP3    H259382   2.964   4.621  12.328 -0.2222  2.9993  0.4230
12631TIP3   OH259383   3.639   0.749  11.662  0.1159  0.1114  0.0626
12631TIP3    H159384   3.547   0.773  11.671  0.3665  1.3164 -0.4487
12631TIP3    H259385   3.642   0.696  11.582 -0.5501 -2.3889  1.5622
12632TIP3   OH259386   0.339   0.731  15.504 -0.1416  0.0194 -0.7201
12632TIP3    H159387   0.248   0.729  15.530 -0.4357 -1.0634 -1.7446
12632TIP3    H259388   0.345   0.804  15.442 -0.1695  0.4753 -0.1899
12633TIP3   OH259389   6.665   4.219   4.980 -0.0628 -0.5655  0.2175
12633TIP3    H159390   6.642   4.177   5.064  0.9891  0.9624  1.3280
12633TIP3    H259391   6.743   4.271   5.001  0.3452 -0.3179 -1.7896
12634TIP3   OH259392   2.353   0.232   3.569 -0.0429  0.4787 -0.2073
12634TIP3    H159393   2.372   0.185   3.487 -0.6099  0.9436 -0.6116
12634TIP3    H259394   2.354   0.324   3.544 -0.6349  0.6062  0.2212
12635TIP3   OH259395   3.833   0.064  13.832 -0.1206  0.4860  0.1941
12635TIP3    H159396   3.788  -0.016  13.859 -1.7910  1.0688 -0.7289
12635TIP3    H259397   3.781   0.135  13.871 -0.2476  1.1961 -1.2128
12636TIP3   OH259398   3.902   5.582  16.129 -0.0775 -0.3658 -0.8499
12636TIP3    H159399   3.982   5.563  16.178 -0.2238  1.6600  0.2732
12636TIP3    H259400   3.930   5.639  16.057 -0.5788  1.2202  0.1487
12637TIP3   OH259401   1.594   1.194   3.685  0.4417  0.3710 -0.4377
12637TIP3    H159402   1.573   1.229   3.598  1.5862  2.3475  0.0216
12637TIP3    H259403   1.620   1.271   3.736  0.0490 -0.7776  1.5986
12638TIP3   OH259404   2.329   5.521   0.679 -0.8405 -0.5846  1.0441
12638TIP3    H159405   2.329   5.569   0.762 -0.7103  0.1920  0.6084
12638TIP3    H259406   2.253   5.463   0.685 -0.5193 -0.9402  1.9230
12639TIP3   OH259407   0.293   4.474  15.431  0.7689 -0.3086  0.8973
12639TIP3    H159408   0.320   4.565  15.429 -4.7378  1.6839  1.5258
12639TIP3    H259409   0.255   4.457  15.345 -0.3798 -1.1983  1.5421
12640TIP3   OH259410   4.415   2.399  12.150  0.0730 -0.8189  0.1167
12640TIP3    H159411   4.413   2.478  12.096 -1.9413 -0.2275  0.9496
12640TIP3    H259412   4.491   2.412  12.208  1.3066 -0.7378 -1.4483
12641TIP3   OH259413   0.008   0.705   5.351 -0.1659 -0.7847 -0.3423
12641TIP3    H159414   0.024   0.793   5.385  0.3460 -0.0569 -2.3511
12641TIP3    H259415  -0.087   0.693   5.356 -0.2781  0.0531 -0.4719
12642TIP3   OH259416   4.833   5.115   6.378  0.0550 -0.1642 -0.1847
12642TIP3    H159417   4.884   5.180   6.426  0.8171 -0.0333 -1.1506
12642TIP3    H259418   4.846   5.033   6.427 -1.5509  0.5085  1.5067
12643TIP3   OH259419   3.803   5.548  11.976  0.8029  0.3618  0.1972
12643TIP3    H159420   3.878   5.607  11.975  0.5274  0.8154  2.4033
12643TIP3    H259421   3.828   5.479  12.037 -0.1192 -0.1453  0.0132
12644TIP3   OH259422   2.897   2.207  14.639 -0.1818  0.1032 -0.5652
12644TIP3    H159423   2.947   2.178  14.562 -0.5513  0.6973 -1.0423
12644TIP3    H259424   2.820   2.251  14.602  0.2242  1.4492  0.1083
12645TIP3   OH259425   6.720   4.750  16.351  0.1183  0.2555  0.0132
12645TIP3    H159426   6.658   4.822  16.340 -3.2367 -2.1251  1.2981
12645TIP3    H259427   6.685   4.680  16.296 -0.1301 -2.1416  2.9108
12646TIP3   OH259428   6.683   3.994   0.693 -0.0182 -0.0569 -0.2293
12646TIP3    H159429   6.679   3.954   0.606 -0.6325 -2.8296  0.9725
12646TIP3    H259430   6.592   4.008   0.718  0.0930 -0.4353  0.4332
12647TIP3   OH259431   2.989   3.249   3.328 -0.5521 -0.5289 -0.1807
12647TIP3    H159432   3.046   3.314   3.370 -1.0790 -0.2961  0.1768
12647TIP3    H259433   3.050   3.182   3.295  0.0776  0.5598 -1.3215
12648TIP3   OH259434   5.465   5.348  11.437 -0.0639 -0.4049 -0.3294
12648TIP3    H159435   5.491   5.425  11.386 -0.9575 -0.4770 -0.9316
12648TIP3    H259436   5.443   5.383  11.523 -0.2236 -0.0112 -0.5249
12649TIP3   OH259437   4.889   0.108   0.846  0.4606 -0.2187  0.4363
12649TIP3    H159438   4.877   0.197   0.813  0.8231 -1.0735 -2.3100
12649TIP3    H259439   4.952   0.068   0.786  2.2351 -1.6418  3.0510
12650TIP3   OH259440   4.299   3.325  12.827  0.5179 -0.1167  0.0900
12650TIP3    H159441   4.280   3.407  12.871  0.8383 -0.6861  1.3511
12650TIP3    H259442   4.280   3.258  12.892  2.0631 -0.9454 -0.2601
12651TIP3   OH259443   6.564   3.299   3.201  0.2189  0.2982 -0.1132
12651TIP3    H159444   6.485   3.279   3.251  0.3880  1.1793  0.5190
12651TIP3    H259445   6.571   3.394   3.203  0.4899  0.3209 -1.4293
12652TIP3   OH259446   5.383   3.840  10.964  0.5688  0.1818  0.7434
12652TIP3    H159447   5.434   3.871  11.039 -1.3156  0.7736  1.8611
12652TIP3    H259448   5.330   3.916  10.939  0.5903 -0.2543 -0.7022
12653TIP3   OH259449   2.506   4.921  12.213 -0.3715  0.1054  0.9303
12653TIP3    H159450   2.543   4.982  12.149 -1.8936  0.3268  0.2245
12653TIP3    H259451   2.578   4.903  12.273  0.6721  1.0466  0.0035
12654TIP3   OH259452   0.513   4.455  13.455  0.0646 -0.5250 -0.0034
12654TIP3    H159453   0.607   4.438  13.460 -0.0022 -0.7260  0.6672
12654TIP3    H259454   0.477   4.415  13.534 -0.5127  0.0386  0.0309
12655TIP3   OH259455   3.416   2.624  14.892  0.4331  0.1985  0.1652
12655TIP3    H159456   3.412   2.715  14.921 -1.1973 -0.5244  2.5323
12655TIP3    H259457   3.329   2.607  14.855  1.5317  0.2331 -2.6754
12656TIP3   OH259458   5.459   1.813   1.515  0.0275 -0.2359  0.3698
12656TIP3    H159459   5.437   1.901   1.548  0.1476 -0.1894  0.3278
12656TIP3    H259460   5.375   1.777   1.485  0.2407  0.5984 -1.3669
12657TIP3   OH259461   2.294   4.966  13.086  0.9238  0.4607 -0.3962
12657TIP3    H159462   2.260   4.910  13.016  2.2662  1.6065 -2.0500
12657TIP3    H259463   2.252   5.051  13.071  1.4568  0.7978 -0.0008
12658TIP3   OH259464   2.022   6.466   3.188  0.0907 -0.1780 -0.1916
12658TIP3    H159465   1.961   6.501   3.123 -0.6788 -0.3090  0.4420
12658TIP3    H259466   2.100   6.443   3.138 -1.2690 -2.3558 -1.4627
12659TIP3   OH259467   0.688   6.014  15.228 -0.7858  0.1888  0.1771
12659TIP3    H159468   0.757   5.951  15.249 -0.0329  1.0628  0.4121
12659TIP3    H259469   0.707   6.089  15.284 -2.2604  0.2413  0.6555
12660TIP3   OH259470   1.613   6.240  14.275  0.0388  0.2403 -0.2345
12660TIP3    H159471   1.549   6.236  14.347  0.0542 -0.7023 -0.2658
12660TIP3    H259472   1.697   6.252  14.319 -0.1201  1.3255 -0.1865
12661TIP3   OH259473   5.723   4.417   5.169  0.0535  0.7092 -0.6356
12661TIP3    H159474   5.687   4.335   5.202 -0.0144 -0.0429 -2.4879
12661TIP3    H259475   5.655   4.482   5.187 -0.6050  0.0367 -0.6616
12662TIP3   OH259476   0.545   5.972  14.660 -0.4685 -0.1985  0.0093
12662TIP3    H159477   0.614   5.919  14.699 -0.3512  0.5710  0.8882
12662TIP3    H259478   0.484   5.909  14.621 -0.4725 -0.9906  1.2460
12663TIP3   OH259479   3.726   1.202  12.828 -0.1113 -0.1496  0.3599
12663TIP3    H159480   3.716   1.156  12.745 -0.7761 -0.1180  0.4197
12663TIP3    H259481   3.753   1.134  12.890 -0.4466 -0.3362  0.3033
12664TIP3   OH259482   2.923   3.514   0.727  0.6720 -0.1624 -0.3382
12664TIP3    H159483   2.943   3.528   0.634  0.7047 -2.5479 -0.7362
12664TIP3    H259484   3.008   3.503   0.768  0.5880 -1.6998 -0.5199
12665TIP3   OH259485   5.097   1.889   1.889 -0.0467 -0.0795  0.0652
12665TIP3    H159486   5.006   1.876   1.863  0.2553 -0.5249 -0.8001
12665TIP3    H259487   5.147   1.834   1.830  0.8412  0.6731  0.0988
12666TIP3   OH259488   4.947   4.435  17.451 -0.2133 -0.3208  0.3052
12666TIP3    H159489   4.874   4.492  17.474  1.2685  1.1562  1.6243
12666TIP3    H259490   5.017   4.495  17.424  0.9555 -1.5885  0.3919
12667TIP3   OH259491   2.774   0.023   1.111 -0.0266  0.4944 -0.0182
12667TIP3    H159492   2.808  -0.060   1.145  0.7576  0.8586  0.1025
12667TIP3    H259493   2.746   0.071   1.189  0.1523  0.6248 -0.0358
12668TIP3   OH259494   6.112   3.413   2.068  0.4747 -0.2957 -0.6206
12668TIP3    H159495   6.187   3.368   2.106 -0.7717  0.1400  2.6683
12668TIP3    H259496   6.039   3.391   2.126 -1.3212  1.7235 -1.9579
12669TIP3   OH259497   5.498   6.056   3.942  0.1835  0.1337  0.2957
12669TIP3    H159498   5.422   6.106   3.912  0.1002 -0.4371 -0.4786
12669TIP3    H259499   5.533   6.107   4.014 -0.7951  0.5350  0.5072
12670TIP3   OH259500   3.176   3.322  16.665  0.0428 -0.0615  0.3895
12670TIP3    H159501   3.159   3.327  16.759 -0.6049 -0.9740  0.3382
12670TIP3    H259502   3.270   3.306  16.659  0.3526  1.4674  0.8185
12671TIP3   OH259503   0.004   6.118  11.525  0.1777 -0.7513 -0.3205
12671TIP3    H159504  -0.078   6.071  11.544  0.4000 -0.8982  0.3126
12671TIP3    H259505   0.013   6.114  11.430 -1.4596  0.7805 -0.5816
12672TIP3   OH259506   1.960   0.702   2.916 -0.1980  0.2634  0.2050
12672TIP3    H159507   1.920   0.638   2.858 -0.0978 -0.3677  0.8250
12672TIP3    H259508   1.886   0.750   2.953 -0.2284  1.5989 -1.4448
12673TIP3   OH259509   3.734   3.898   1.675 -0.5078  0.3390  0.2951
12673TIP3    H159510   3.796   3.876   1.745 -0.3780 -0.5388 -0.0721
12673TIP3    H259511   3.789   3.937   1.607  0.2716 -3.0962 -1.2887
12674TIP3   OH259512   4.655   0.040   4.065  0.0026  0.1151 -0.3647
12674TIP3    H159513   4.688   0.130   4.056 -1.4220  0.5576 -1.6995
12674TIP3    H259514   4.609   0.024   3.982 -1.0455 -1.3125  0.4596
12675TIP3   OH259515   4.487   3.292  13.087 -0.5175 -0.0626  0.3816
12675TIP3    H159516   4.412   3.234  13.097  0.5976 -1.4613  1.1083
12675TIP3    H259517   4.540   3.252  13.018 -0.4914  0.9776 -0.2215
12676TIP3   OH259518   3.095   0.384  12.577  0.3838  0.9444 -0.3570
12676TIP3    H159519   3.094   0.413  12.485  1.4971 -0.2839 -0.7951
12676TIP3    H259520   3.126   0.461  12.626  0.8926  1.2723 -1.1648
12677TIP3   OH259521   5.007   3.762   3.580  0.2004  0.2208 -0.2117
12677TIP3    H159522   5.002   3.829   3.647 -1.3565  0.4937 -0.5600
12677TIP3    H259523   4.973   3.804   3.501 -2.4738 -1.4052 -0.0345
12678TIP3   OH259524   4.383   4.594  13.882  0.4768 -0.1419 -0.2967
12678TIP3    H159525   4.416   4.638  13.960  1.4633 -0.8500 -0.2938
12678TIP3    H259526   4.460   4.586  13.825  0.0405 -0.7312 -0.8178
12679TIP3   OH259527   0.688   6.532   1.708  0.2268  0.0219  0.5867
12679TIP3    H159528   0.623   6.472   1.747 -2.1333  1.4394 -0.9385
12679TIP3    H259529   0.670   6.617   1.749  0.7412  0.5761 -0.3140
12680TIP3   OH259530   2.698   2.385  13.309  0.2061  0.1025  0.1026
12680TIP3    H159531   2.705   2.381  13.213  3.6681  1.8547  0.1172
12680TIP3    H259532   2.677   2.477  13.327 -4.0969 -0.8724  1.1031
12681TIP3   OH259533   5.482   6.544  16.505  0.4306  0.0936 -0.2322
12681TIP3    H159534   5.577   6.537  16.501  0.3380 -0.7109 -1.6306
12681TIP3    H259535   5.461   6.537  16.598  1.6523 -1.0556 -0.0165
12682TIP3   OH259536   2.345   3.455   5.167  0.1119 -0.0372 -0.7114
12682TIP3    H159537   2.324   3.527   5.226  0.8375  0.5421 -1.1342
12682TIP3    H259538   2.292   3.382   5.197 -1.8128  1.0910 -1.1978
12683TIP3   OH259539   5.026   0.542  14.845 -0.3622  1.0991 -0.0115
12683TIP3    H159540   5.040   0.559  14.752  1.5027 -1.8795 -0.4298
12683TIP3    H259541   4.970   0.465  14.847 -1.0528  1.6051  1.3866
12684TIP3   OH259542   3.168   0.895  14.181 -1.1569  0.1531 -0.1068
12684TIP3    H159543   3.121   0.931  14.106  1.4662  0.6994 -1.6210
12684TIP3    H259544   3.247   0.949  14.188 -0.4620 -1.0069  1.9615
12685TIP3   OH259545   1.913   3.186  14.722  0.1901 -0.1757  0.3033
12685TIP3    H159546   1.859   3.258  14.690  1.7742  1.3348  0.8902
12685TIP3    H259547   1.982   3.177  14.656  0.7568 -0.2734  0.9055
12686TIP3   OH259548   6.741   3.563   2.626  0.3129 -0.3210 -0.0899
12686TIP3    H159549   6.811   3.546   2.690  2.1742  0.5431 -1.7850
12686TIP3    H259550   6.782   3.550   2.541 -1.2597  1.3858 -1.2002
12687TIP3   OH259551   1.337   1.403  13.295  0.3029  0.1003  0.0006
12687TIP3    H159552   1.416   1.401  13.242  0.2827  0.4912 -0.0451
12687TIP3    H259553   1.267   1.423  13.232  0.1983 -0.0345  0.0752
12688TIP3   OH259554   1.297   0.235  16.175 -0.2050  0.4571 -0.1156
12688TIP3    H159555   1.298   0.225  16.270 -1.3103  1.0014 -0.0347
12688TIP3    H259556   1.206   0.251  16.153  0.1099  0.8483 -1.2174
12689TIP3   OH259557   4.229   1.700  12.325  0.1534  0.0357  0.3176
12689TIP3    H159558   4.280   1.621  12.307 -0.6717 -0.6257  0.8198
12689TIP3    H259559   4.195   1.687  12.414 -0.8311  0.4780  0.0246
12690TIP3   OH259560   4.637   2.485   3.209 -0.5496 -0.2421 -0.4408
12690TIP3    H159561   4.642   2.493   3.114  0.8389 -0.8947 -0.4563
12690TIP3    H259562   4.717   2.438   3.233  0.3139  1.9240  1.2803
12691TIP3   OH259563   6.004   2.342  15.361  0.0513  0.0010  0.1880
12691TIP3    H159564   6.041   2.430  15.368 -0.7679  0.7328 -2.9025
12691TIP3    H259565   6.078   2.283  15.375  1.2039  1.2709 -0.4085
12692TIP3   OH259566   5.692   2.601   0.363 -0.1482  0.0979  0.0773
12692TIP3    H159567   5.712   2.541   0.434 -0.9376  1.4887  1.5389
12692TIP3    H259568   5.596   2.608   0.363 -0.1051  0.9234 -0.4280
12693TIP3   OH259569   0.800   3.788   4.555 -0.0994  0.1087 -0.2728
12693TIP3    H159570   0.851   3.707   4.554 -1.5293 -0.8863  1.0875
12693TIP3    H259571   0.865   3.858   4.548  1.2222 -1.1366 -0.9358
12694TIP3   OH259572   0.306   4.707  12.146 -0.6215 -0.3846  0.1072
12694TIP3    H159573   0.325   4.774  12.081  1.0340  0.7448  1.6470
12694TIP3    H259574   0.219   4.731  12.180  0.6953  2.2615  1.9616
12695TIP3   OH259575   4.152   3.464  15.494 -0.8510 -0.1266  0.0482
12695TIP3    H159576   4.219   3.511  15.444 -0.8996  1.2953  1.2286
12695TIP3    H259577   4.153   3.375  15.460  1.3317 -0.0182 -0.2786
12696TIP3   OH259578   1.214   5.899  14.009 -0.1375 -0.2956  0.6227
12696TIP3    H159579   1.296   5.934  14.044  0.0643  0.8802 -0.9453
12696TIP3    H259580   1.170   5.974  13.969 -1.1000 -1.2621 -0.2145
12697TIP3   OH259581   3.563   6.452  15.382  0.0323  0.1420  0.4188
12697TIP3    H159582   3.597   6.407  15.459  1.2098 -0.9547 -0.6868
12697TIP3    H259583   3.593   6.399  15.308 -1.8329  0.6312 -0.7767
12698TIP3   OH259584   6.519   3.707  14.156  0.1920 -0.1956  0.1192
12698TIP3    H159585   6.439   3.725  14.107  0.4297 -0.0095 -0.2042
12698TIP3    H259586   6.527   3.612  14.153  0.3401 -0.1710 -0.4274
12699TIP3   OH259587   3.851   4.913   4.933 -0.2289 -0.0605 -0.5352
12699TIP3    H159588   3.799   4.862   4.871  0.5516 -0.5183 -0.8344
12699TIP3    H259589   3.787   4.958   4.988 -0.9392 -0.9210 -0.6433
12700TIP3   OH259590   3.503   2.135   5.311  0.5831 -0.0245 -0.1755
12700TIP3    H159591   3.428   2.076   5.299  1.0595 -0.3647 -1.7144
12700TIP3    H259592   3.464   2.219   5.332 -0.1089 -0.9058  2.4434
12701TIP3   OH259593   4.983   6.082  14.672 -0.0445  0.0012 -0.2453
12701TIP3    H159594   5.030   6.106  14.592  1.5752  0.3337  0.7539
12701TIP3    H259595   4.967   6.165  14.717 -2.0135 -0.0552 -0.7312
12702TIP3   OH259596   2.259   6.254  15.643  0.4812 -0.2172 -0.0121
12702TIP3    H159597   2.279   6.264  15.737  0.6206 -1.7465  0.1434
12702TIP3    H259598   2.341   6.226  15.604 -0.1467 -1.9386 -0.1709
12703TIP3   OH259599   4.823   4.753  13.582 -0.4817  0.5975  0.2808
12703TIP3    H159600   4.740   4.800  13.577  0.1629  1.8474  0.8749
12703TIP3    H259601   4.889   4.821  13.570  0.4914 -0.1727  1.1547
12704TIP3   OH259602   0.997   4.442   6.665  0.3261  0.0082  0.0636
12704TIP3    H159603   1.067   4.496   6.628  0.5612 -0.2817  0.0873
12704TIP3    H259604   0.924   4.503   6.677  0.4029  0.2063 -0.4405
12705TIP3   OH259605   5.254   3.521   1.242  0.3167 -0.5548 -0.1395
12705TIP3    H159606   5.268   3.580   1.316  0.4286 -1.0324  0.2246
12705TIP3    H259607   5.160   3.507   1.239  0.4766 -2.2793  1.3062
12706TIP3   OH259608   3.976   3.951   3.932  0.8315 -0.3207  0.2418
12706TIP3    H159609   3.972   3.857   3.951  2.3149 -0.4623 -0.0116
12706TIP3    H259610   4.060   3.963   3.888 -0.0589  0.8851 -1.2281
12707TIP3   OH259611   4.703   3.904   3.712 -0.2348  0.7407 -0.3783
12707TIP3    H159612   4.612   3.933   3.711 -0.0123  1.6730  1.2668
12707TIP3    H259613   4.746   3.957   3.645 -0.6233  1.3544 -0.1512
12708TIP3   OH259614   2.660   6.438  14.919  0.5836  0.0247 -0.1003
12708TIP3    H159615   2.727   6.380  14.957  1.7401  0.5615 -1.2690
12708TIP3    H259616   2.709   6.512  14.884 -0.8194  1.4307  0.7864
12709TIP3   OH259617   0.517   6.228  17.428  0.3946 -0.1375 -0.2095
12709TIP3    H159618   0.573   6.151  17.419  1.5702  0.4473  1.6993
12709TIP3    H259619   0.551   6.290  17.363  0.1507 -0.7966 -0.9809
12710TIP3   OH259620   1.049   5.817   0.496  0.7591  0.0268 -0.0265
12710TIP3    H159621   1.073   5.879   0.427 -1.9532  0.6120 -0.5480
12710TIP3    H259622   1.122   5.820   0.557  1.3877  2.6465 -0.7801
12711TIP3   OH259623   1.380   0.380   0.369 -0.5436 -0.0598  0.3172
12711TIP3    H159624   1.434   0.302   0.355  1.8262  1.4982  0.3037
12711TIP3    H259625   1.367   0.416   0.281  1.1206  1.2635  0.5732
12712TIP3   OH259626   2.613   3.146  12.951  0.5540  0.2054 -0.1322
12712TIP3    H159627   2.569   3.070  12.988  0.4086 -0.5472 -1.7589
12712TIP3    H259628   2.706   3.132  12.970  0.6495 -0.9452 -1.3210
12713TIP3   OH259629   2.651   6.015   4.428 -0.1291  0.0781 -0.3659
12713TIP3    H159630   2.633   6.061   4.346 -1.6907  3.0235  1.4586
12713TIP3    H259631   2.634   5.923   4.408 -1.5627  0.8272 -3.0701
12714TIP3   OH259632   6.424   0.233   6.783 -0.9167 -0.2841 -0.5802
12714TIP3    H159633   6.451   0.164   6.844 -3.2530  0.1247  1.0381
12714TIP3    H259634   6.492   0.232   6.715 -0.1861 -3.2921  0.0273
12715TIP3   OH259635   4.050   5.419   0.439 -0.2610  0.0522 -0.0288
12715TIP3    H159636   3.994   5.416   0.516  1.5231  1.7394  1.4679
12715TIP3    H259637   4.000   5.470   0.375 -1.0705  0.1937  0.6904
12716TIP3   OH259638   1.004   2.225  15.452 -0.4728 -0.1087 -0.0003
12716TIP3    H159639   1.098   2.237  15.448 -0.8368  3.7328 -0.7410
12716TIP3    H259640   0.991   2.130  15.446  3.2220 -0.6432 -2.4394
12717TIP3   OH259641   3.349   1.134   3.496 -0.6176  0.1660  0.1572
12717TIP3    H159642   3.370   1.147   3.588  0.7949  0.9214 -0.2327
12717TIP3    H259643   3.421   1.081   3.463  1.5535  3.7062 -1.4779
12718TIP3   OH259644   4.277   1.689  14.516  0.4029 -0.4748 -0.2466
12718TIP3    H159645   4.305   1.632  14.444 -1.3322 -0.8531 -0.6705
12718TIP3    H259646   4.303   1.642  14.595  0.5822 -0.9955 -0.6077
12719TIP3   OH259647   0.154   0.020  15.269  0.3568  0.2124  0.3400
12719TIP3    H159648   0.138   0.088  15.335 -0.9442 -0.9280  1.2500
12719TIP3    H259649   0.078   0.024  15.212  0.7465  0.1576 -0.1890
12720TIP3   OH259650   4.706   6.590   2.915 -0.1620 -0.2001 -0.1096
12720TIP3    H159651   4.709   6.559   3.005  0.0506  0.1802  0.0163
12720TIP3    H259652   4.798   6.590   2.887 -0.2639 -0.6830 -0.4506
12721TIP3   OH259653   5.483   5.810   6.546 -0.5174  0.1164  0.5122
12721TIP3    H159654   5.523   5.892   6.518  0.2095  0.4069  2.2800
12721TIP3    H259655   5.393   5.834   6.568 -0.6490  0.1867 -0.0861
12722TIP3   OH259656   3.647   4.471   4.688 -0.6509  0.2551 -0.0211
12722TIP3    H159657   3.583   4.504   4.625  0.6973  0.8649 -1.1136
12722TIP3    H259658   3.729   4.469   4.640 -0.2297 -2.6567  0.6585
12723TIP3   OH259659   2.662   5.005   3.513  0.0410 -0.1009 -0.0264
12723TIP3    H159660   2.749   5.044   3.520 -0.5036  1.3861 -1.1912
12723TIP3    H259661   2.663   4.958   3.430 -0.2593 -0.1389 -0.0092
12724TIP3   OH259662   3.830   1.164  13.233  0.2672  0.1913 -0.0494
12724TIP3    H159663   3.851   1.109  13.309  0.6537  0.1151 -0.2084
12724TIP3    H259664   3.795   1.103  13.168 -0.7202  0.3588  0.3160
12725TIP3   OH259665   3.864   5.994  12.541 -0.6107 -0.0315  0.6135
12725TIP3    H159666   3.920   5.932  12.493 -1.0178 -2.2128  2.7587
12725TIP3    H259667   3.784   5.997  12.490  0.2420  0.5721 -0.7521
12726TIP3   OH259668   1.268   5.132   3.000 -0.3805 -0.5616 -0.7180
12726TIP3    H159669   1.189   5.153   3.050  0.5409  1.2249  0.0705
12726TIP3    H259670   1.246   5.155   2.909 -0.7067  0.1298 -0.4699
12727TIP3   OH259671   4.892   0.070  16.994 -0.3131  0.4602  0.2978
12727TIP3    H159672   4.882   0.165  16.983  0.8593  0.5781  0.1800
12727TIP3    H259673   4.809   0.034  16.963 -0.6787  1.4326  0.1085
12728TIP3   OH259674   1.550   4.166  14.147 -0.3801 -0.0208 -0.1881
12728TIP3    H159675   1.641   4.195  14.140 -0.3415 -0.5346 -3.1027
12728TIP3    H259676   1.554   4.081  14.190  0.5430 -0.0854 -0.3918
12729TIP3   OH259677   5.700   4.972  12.767  0.0751  0.2977 -0.3214
12729TIP3    H159678   5.643   4.918  12.821  0.7086 -1.2242 -1.1190
12729TIP3    H259679   5.644   5.004  12.697  0.0562 -0.7415 -0.7956
12730TIP3   OH259680   0.497   1.149  16.831  0.3010 -0.1332 -0.2229
12730TIP3    H159681   0.407   1.181  16.834 -0.2389 -1.5621 -0.4221
12730TIP3    H259682   0.518   1.127  16.922 -0.3418 -1.8387 -0.4627
12731TIP3   OH259683   3.998   6.675  13.652  0.2256  0.2209 -0.3176
12731TIP3    H159684   3.989   6.760  13.608  2.3806  1.4250  1.3399
12731TIP3    H259685   3.967   6.692  13.741 -1.9891 -1.5666 -0.6657
12732TIP3   OH259686   4.304   5.210   1.011  0.6210 -0.4804 -0.2352
12732TIP3    H159687   4.279   5.120   0.992 -1.0369  0.3542 -2.5065
12732TIP3    H259688   4.225   5.261   0.993  1.6988  1.5008  0.3599
12733TIP3   OH259689   2.383   4.324   4.616  0.1556  0.2351  0.3726
12733TIP3    H159690   2.322   4.270   4.566 -1.7682  1.9241  0.8059
12733TIP3    H259691   2.412   4.267   4.688  1.9967 -1.8026 -1.8188
12734TIP3   OH259692   0.958   5.414  13.988 -0.3165 -0.6380  0.3141
12734TIP3    H159693   1.017   5.486  14.011  1.5885 -1.9247 -0.2739
12734TIP3    H259694   0.886   5.421  14.051  1.6047 -0.3293  2.6435
12735TIP3   OH259695   6.317   2.894   2.860  0.4460 -0.4158 -0.2348
12735TIP3    H159696   6.315   2.932   2.773  0.8517 -0.7652 -0.4004
12735TIP3    H259697   6.225   2.888   2.886  0.3872  1.9482  0.3806
12736TIP3   OH259698   1.879   3.514   3.885  0.8164 -0.0664 -0.1605
12736TIP3    H159699   1.838   3.429   3.868 -0.3270 -0.1251  2.3504
12736TIP3    H259700   1.844   3.571   3.817 -2.2428 -0.5399  0.8359
12737TIP3   OH259701   6.005   3.574   0.427 -0.5078 -0.0081  0.0935
12737TIP3    H159702   6.075   3.529   0.380 -0.3253 -1.4630  1.6588
12737TIP3    H259703   6.029   3.667   0.423  0.6941 -0.3278 -0.6818
12738TIP3   OH259704   4.345   5.224   5.157 -0.1223  0.2865  0.2315
12738TIP3    H159705   4.292   5.214   5.236 -2.6927  2.5565 -1.0401
12738TIP3    H259706   4.390   5.307   5.169  0.8390 -0.1918  0.0094
12739TIP3   OH259707   1.628   3.307   3.305  0.4993 -0.3692 -0.0589
12739TIP3    H159708   1.696   3.365   3.272  0.3771 -0.0737  0.2032
12739TIP3    H259709   1.555   3.366   3.327 -0.0973 -0.7418 -0.9742
12740TIP3   OH259710   5.419   5.462   3.669  0.1422 -0.1959 -0.0221
12740TIP3    H159711   5.329   5.431   3.676 -0.1162  0.4005 -0.5631
12740TIP3    H259712   5.414   5.555   3.691  0.8799 -0.4856  1.4348
12741TIP3   OH259713   6.362   4.149   1.414  0.1158 -0.3409 -0.2523
12741TIP3    H159714   6.274   4.118   1.436 -0.2464 -2.0603 -3.5629
12741TIP3    H259715   6.413   4.070   1.400  2.1696  0.6275  1.1122
12742TIP3   OH259716   4.555   2.709  14.221  0.3474 -0.1936  0.0285
12742TIP3    H159717   4.644   2.675  14.214 -0.1179 -1.8769  1.4597
12742TIP3    H259718   4.544   2.764  14.144  2.8079  0.5500  0.1165
12743TIP3   OH259719   2.366   4.661   1.092  0.7461 -0.7645  0.2575
12743TIP3    H159720   2.273   4.656   1.071  0.5666  1.1152  0.4051
12743TIP3    H259721   2.371   4.636   1.185  0.0237  1.3796  0.9209
12744TIP3   OH259722   5.004   4.076   5.744  0.0753  0.2015  0.2228
12744TIP3    H159723   4.940   4.121   5.799  1.6557 -0.2138  2.6092
12744TIP3    H259724   5.060   4.147   5.710  1.5805  0.3104  2.6552
12745TIP3   OH259725   0.693   4.961   0.650 -0.3768  0.0021  0.0358
12745TIP3    H159726   0.664   5.027   0.713  1.4519 -0.9280  1.9811
12745TIP3    H259727   0.781   4.990   0.624 -0.0287 -1.0427  0.0162
12746TIP3   OH259728   1.820   2.918  11.081  0.3767 -0.1035  0.6280
12746TIP3    H159729   1.783   3.005  11.096  1.1820 -0.1216  3.1269
12746TIP3    H259730   1.893   2.932  11.022 -0.2356  0.7145  0.0426
12747TIP3   OH259731   3.329   5.103   2.545 -0.3010  0.1106  0.4705
12747TIP3    H159732   3.258   5.112   2.482 -0.0576  0.0421  0.1880
12747TIP3    H259733   3.302   5.158   2.619 -0.0417  1.1300 -0.1724
12748TIP3   OH259734   6.365   5.469   5.876 -0.0357  0.1045  0.3727
12748TIP3    H159735   6.335   5.536   5.937 -3.0394 -1.3474  0.6703
12748TIP3    H259736   6.336   5.499   5.790  0.3904  0.0986  0.2203
12749TIP3   OH259737   1.749   5.040  16.658  0.4166 -0.6077 -0.4658
12749TIP3    H159738   1.795   4.964  16.622  2.3873 -0.4447  1.4648
12749TIP3    H259739   1.705   5.006  16.736 -0.1143 -0.1152 -0.5525
12750TIP3   OH259740   0.963   6.067  13.486 -0.2422 -0.0107 -0.2054
12750TIP3    H159741   0.978   6.080  13.393 -2.2187  0.4121 -0.5120
12750TIP3    H259742   0.884   6.117  13.505 -1.0626 -1.7298  1.2330
12751TIP3   OH259743   3.132   0.097   1.778  0.0222  0.0492  0.8057
12751TIP3    H159744   3.185   0.156   1.725  0.4300 -0.5305  0.5586
12751TIP3    H259745   3.084   0.155   1.838 -0.2018  0.6842  0.0267
12752TIP3   OH259746   1.608   5.744   0.701 -0.2503  0.0165  0.1386
12752TIP3    H159747   1.557   5.666   0.679 -1.2262  0.8496 -0.6253
12752TIP3    H259748   1.560   5.784   0.773  0.0292  0.1299  0.2611
12753TIP3   OH259749   1.864   3.189   3.861 -0.3869  0.3610 -0.0229
12753TIP3    H159750   1.833   3.107   3.823 -0.4835  1.4448 -2.4962
12753TIP3    H259751   1.785   3.228   3.900 -0.0830 -1.2475  2.4543
12754TIP3   OH259752   3.960   0.168  17.117 -0.1305  0.7865 -0.2231
12754TIP3    H159753   3.900   0.216  17.174 -0.6480 -1.2290  1.0103
12754TIP3    H259754   3.907   0.098  17.080  1.1944 -0.4346  0.1017
12755TIP3   OH259755   0.864   5.783   4.441 -0.2002 -0.1907 -0.4549
12755TIP3    H159756   0.903   5.731   4.511  0.5835  1.0291  0.0535
12755TIP3    H259757   0.819   5.855   4.486 -1.1926 -0.3607 -1.1361
12756TIP3   OH259758   1.602   6.087  14.686  0.3268  0.0611 -0.4896
12756TIP3    H159759   1.658   6.031  14.740 -0.5074  0.6730  1.0908
12756TIP3    H259760   1.534   6.029  14.653  0.0594 -0.0776  0.2800
12757TIP3   OH259761   5.371   4.222   0.099 -0.0785 -0.2421  0.2222
12757TIP3    H159762   5.281   4.190   0.108 -0.4991  1.0330  0.8353
12757TIP3    H259763   5.423   4.164   0.154 -0.8863  0.3316  1.6611
12758TIP3   OH259764   5.793   2.985   1.132  0.3490 -1.0951  0.0378
12758TIP3    H159765   5.711   2.989   1.083  0.0635 -0.6684  0.5324
12758TIP3    H259766   5.766   2.962   1.221  0.2991  2.5628  1.1279
12759TIP3   OH259767   3.389   1.957  13.167 -0.3618 -0.6220  0.0566
12759TIP3    H159768   3.346   1.884  13.123 -1.6991  0.4828 -0.5381
12759TIP3    H259769   3.426   2.010  13.097  0.8596 -0.8480  0.4990
12760TIP3   OH259770   0.465   5.462   6.916  0.0920 -0.1653  0.9768
12760TIP3    H159771   0.539   5.491   6.969 -1.2183 -0.4574  3.0712
12760TIP3    H259772   0.454   5.369   6.938  1.5114 -1.2974 -2.3611
12761TIP3   OH259773   3.718   3.481   2.702 -1.0174 -0.1935  0.3800
12761TIP3    H159774   3.645   3.499   2.761 -1.8056  0.3094 -0.7131
12761TIP3    H259775   3.685   3.504   2.615  1.2782  2.6387  0.1014
12762TIP3   OH259776   3.280   6.592  14.115  0.6225 -0.7560 -0.2662
12762TIP3    H159777   3.190   6.579  14.145  0.3491 -0.3118 -0.8720
12762TIP3    H259778   3.322   6.639  14.187  0.8745 -2.4794  0.7801
12763TIP3   OH259779   0.208   5.222  12.436  0.3674  0.5926 -0.2313
12763TIP3    H159780   0.203   5.303  12.385  0.4718  1.2334  0.7413
12763TIP3    H259781   0.155   5.240  12.514  2.2670  0.6213  1.1400
12764TIP3   OH259782   2.820   6.373   6.446 -0.0197 -0.5154 -0.0159
12764TIP3    H159783   2.730   6.400   6.425 -0.6348 -1.8898  0.7523
12764TIP3    H259784   2.846   6.429   6.519  0.4078  1.0595 -1.3209
12765TIP3   OH259785   5.616   3.108   2.786  0.1982 -0.5896  0.3137
12765TIP3    H159786   5.674   3.096   2.711  1.4807 -0.3095  1.2263
12765TIP3    H259787   5.564   3.185   2.763  2.4064  1.1293  0.7719
12766TIP3   OH259788   0.279   1.183   2.327 -0.1591 -0.3154  0.7733
12766TIP3    H159789   0.325   1.208   2.246 -0.9045 -1.7406 -0.1353
12766TIP3    H259790   0.346   1.188   2.395  0.7526 -0.0587 -0.1148
12767TIP3   OH259791   5.117   4.414  14.167  0.2465 -0.5184 -0.2242
12767TIP3    H159792   5.025   4.390  14.176 -0.3300  1.3469 -0.7927
12767TIP3    H259793   5.142   4.448  14.253 -0.1616  0.7084 -0.5672
12768TIP3   OH259794   1.463   0.190   3.573 -0.2131 -0.4374  0.6999
12768TIP3    H159795   1.393   0.255   3.585 -0.9346 -0.5765 -2.0410
12768TIP3    H259796   1.448   0.126   3.642 -2.4900 -0.1756  0.5305
12769TIP3   OH259797   3.343   5.788   0.316 -0.2700  0.3067  0.2919
12769TIP3    H159798   3.256   5.818   0.342 -0.8583 -0.5908 -0.5664
12769TIP3    H259799   3.376   5.740   0.391 -0.1365  1.3959  0.9504
12770TIP3   OH259800   6.444   4.652  12.825 -0.4356 -0.2650 -0.2515
12770TIP3    H159801   6.408   4.588  12.886 -1.7762  1.1774  0.5575
12770TIP3    H259802   6.429   4.737  12.868 -1.7002  0.8456 -2.7070
12771TIP3   OH259803   1.624   6.181   1.104  0.6081 -0.2666 -0.0865
12771TIP3    H159804   1.677   6.141   1.035 -0.2967  1.0960 -1.6474
12771TIP3    H259805   1.607   6.270   1.072 -2.7585 -0.6875  0.1927
12772TIP3   OH259806   5.770   2.501   4.594  0.1928  0.3768 -0.4020
12772TIP3    H159807   5.812   2.466   4.673  1.3442 -2.2439 -2.0461
12772TIP3    H259808   5.791   2.594   4.596  2.3021 -0.0404  1.1844
12773TIP3   OH259809   4.714   6.077   1.122  0.5244  0.2940  0.8030
12773TIP3    H159810   4.764   6.082   1.203  0.7840 -0.5270  0.7018
12773TIP3    H259811   4.678   5.988   1.121 -0.1031  0.5424  0.3868
12774TIP3   OH259812   4.703   1.159   1.656 -0.2330 -0.1115 -0.2536
12774TIP3    H159813   4.674   1.194   1.741  0.9880 -0.5557  0.3664
12774TIP3    H259814   4.714   1.236   1.601  2.4428  0.5831  1.0976
12775TIP3   OH259815   0.627   1.398  11.286 -0.3193  0.3783 -0.4320
12775TIP3    H159816   0.714   1.396  11.246 -0.3931  1.2327 -0.6511
12775TIP3    H259817   0.638   1.452  11.365 -0.5542  0.1220 -0.2221
12776TIP3   OH259818   5.517   3.886  17.178 -0.3107 -0.1878 -0.3684
12776TIP3    H159819   5.525   3.966  17.229  0.4484 -1.0030  0.8518
12776TIP3    H259820   5.438   3.844  17.212 -0.3341 -0.2783 -0.5324
12777TIP3   OH259821   5.530   0.880  12.125 -0.0240 -0.1241 -0.3878
12777TIP3    H159822   5.459   0.911  12.181  0.9573  1.7618 -0.0897
12777TIP3    H259823   5.549   0.955  12.068  1.0493 -0.9452 -1.1464
12778TIP3   OH259824   2.289   3.747   5.313 -0.0957  0.6762 -0.0264
12778TIP3    H159825   2.265   3.761   5.222 -2.0902  0.6072  0.4306
12778TIP3    H259826   2.318   3.832   5.344 -1.2044  1.1638 -0.2636
12779TIP3   OH259827   2.601   2.626  12.943 -0.3869  0.0053 -0.0191
12779TIP3    H159828   2.660   2.571  12.995  0.3930 -1.4620 -2.2754
12779TIP3    H259829   2.659   2.679  12.888 -1.1758  1.7089  0.7257
12780TIP3   OH259830   0.561   3.928   4.457 -0.5520  0.6684  0.2582
12780TIP3    H159831   0.594   4.012   4.487  0.2873  0.4167  0.0645
12780TIP3    H259832   0.637   3.870   4.460 -1.1466 -0.1139  0.5040
12781TIP3   OH259833   0.560   3.571   5.159 -0.1443  0.4806 -0.2881
12781TIP3    H159834   0.594   3.505   5.099  1.1269 -1.4722  2.3325
12781TIP3    H259835   0.636   3.598   5.211 -1.2603  1.5602  0.8769
12782TIP3   OH259836   1.905   3.349   5.225  0.0645  0.6747  0.2373
12782TIP3    H159837   2.000   3.364   5.223 -0.2383  3.0659  0.9047
12782TIP3    H259838   1.888   3.315   5.312  0.3797 -0.6767 -0.1991
12783TIP3   OH259839   0.970   0.164   1.069 -0.5110 -0.1948 -0.0771
12783TIP3    H159840   0.966   0.231   1.001  1.1263  0.9277  0.8900
12783TIP3    H259841   0.986   0.083   1.020 -0.9027  0.3363 -1.1347
12784TIP3   OH259842   5.150   4.036   6.030  0.1611  0.1810  0.1256
12784TIP3    H159843   5.121   4.072   5.947  0.8963 -0.0624 -0.2421
12784TIP3    H259844   5.241   4.010   6.015 -0.4444 -2.2841  0.1842
12785TIP3   OH259845   2.500   1.879  15.898 -0.6862  0.1478  0.6735
12785TIP3    H159846   2.533   1.797  15.862 -2.0057  0.4193 -1.3141
12785TIP3    H259847   2.557   1.946  15.860 -0.0371  0.2323  1.7540
12786TIP3   OH259848   0.715   3.375   6.557 -0.0585 -0.0432  0.0472
12786TIP3    H159849   0.753   3.287   6.559  2.3956  0.9314  1.8164
12786TIP3    H259850   0.685   3.386   6.467 -0.7075 -2.7580 -0.1491
12787TIP3   OH259851   2.405   0.147  13.515 -0.2099 -0.2594  0.3496
12787TIP3    H159852   2.404   0.084  13.587  1.7188  1.7900  2.3400
12787TIP3    H259853   2.423   0.231  13.558 -0.7372  1.3542 -2.3828
12788TIP3   OH259854   4.494   2.317   2.790  0.3687 -0.1609 -0.3166
12788TIP3    H159855   4.470   2.233   2.828  1.0807 -0.4487 -0.4780
12788TIP3    H259856   4.563   2.295   2.726  0.8375  0.5893 -0.0768
12789TIP3   OH259857   1.489   1.944   0.290 -0.1677 -0.1511 -0.2328
12789TIP3    H159858   1.437   2.018   0.260 -1.0261 -0.3927  0.6203
12789TIP3    H259859   1.524   1.905   0.209  1.2748  1.8383 -0.6413
12790TIP3   OH259860   2.869   0.046  10.844  0.7920 -0.0332 -0.2285
12790TIP3    H159861   2.960   0.032  10.817  1.2636 -0.7563  1.5369
12790TIP3    H259862   2.825   0.079  10.766  2.7157  0.9884 -0.9618
12791TIP3   OH259863   5.157   0.845  14.961  0.2104 -0.0785 -0.2552
12791TIP3    H159864   5.231   0.906  14.961  0.4074 -0.3113 -1.0229
12791TIP3    H259865   5.196   0.760  14.938 -0.6785  0.3248 -3.7254
12792TIP3   OH259866   5.945   3.237  13.696 -0.0961  0.0648 -0.5918
12792TIP3    H159867   6.014   3.212  13.634 -0.0829  1.1604 -1.0456
12792TIP3    H259868   5.992   3.258  13.777 -0.1852 -2.1918  0.0924
12793TIP3   OH259869   4.915   0.909  15.810  0.2450  0.0440 -0.2101
12793TIP3    H159870   4.890   0.824  15.772 -0.9636 -0.5023  1.6797
12793TIP3    H259871   4.997   0.891  15.856  0.6536  0.2250 -0.8543
12794TIP3   OH259872   4.434   6.534   1.203  0.1487 -0.4290 -0.1284
12794TIP3    H159873   4.347   6.496   1.189  0.2811  0.2701 -3.6763
12794TIP3    H259874   4.494   6.472   1.161  0.7320  1.6315 -2.5674
12795TIP3   OH259875   2.008   1.955   4.934 -0.1582  0.3106 -0.6315
12795TIP3    H159876   2.037   1.949   5.025 -0.7207  0.5654 -0.4323
12795TIP3    H259877   1.922   1.997   4.938 -0.0104  0.7058 -1.3139
12796TIP3   OH259878   4.405   4.884  14.725 -0.3373  0.2235  0.0792
12796TIP3    H159879   4.473   4.907  14.661  0.6941  3.5641  2.1094
12796TIP3    H259880   4.450   4.828  14.788 -0.4168 -0.2505 -0.2753
12797TIP3   OH259881   2.109   6.613   2.218  0.0845  0.0661 -0.1854
12797TIP3    H159882   2.075   6.533   2.259  0.4898  0.7017  1.4462
12797TIP3    H259883   2.181   6.582   2.162  0.2001 -0.7116  0.3779
12798TIP3   OH259884   2.139   2.951   3.348 -0.1155 -0.5112 -0.1320
12798TIP3    H159885   2.205   2.896   3.307 -0.8182 -1.9830  0.6265
12798TIP3    H259886   2.078   2.972   3.278  0.3954 -0.3069 -0.5217
12799TIP3   OH259887   6.169   3.110   0.425  0.3586 -0.4909 -0.5236
12799TIP3    H159888   6.261   3.085   0.426  0.3430 -0.5710 -1.0030
12799TIP3    H259889   6.122   3.027   0.419  0.1592 -0.6547  2.1403
12800TIP3   OH259890   2.191   5.622  15.813  0.3752  0.2334 -0.1088
12800TIP3    H159891   2.190   5.626  15.908  0.5499  1.8126 -0.1541
12800TIP3    H259892   2.279   5.651  15.789  0.2735  0.0164 -0.7577
12801TIP3   OH259893   0.134   6.702  14.927 -0.2640  0.0458  0.1616
12801TIP3    H159894   0.164   6.659  14.847  0.0436  1.4325 -0.5035
12801TIP3    H259895   0.210   6.702  14.985  0.1019  0.7667 -0.3089
12802TIP3   OH259896   3.419   1.041  17.482  0.5900  0.2282 -0.0485
12802TIP3    H159897   3.464   0.984  17.545 -0.3794 -1.6978 -1.0283
12802TIP3    H259898   3.487   1.064  17.418  1.5735  2.1664  1.5748
12803TIP3   OH259899   0.192   1.659   3.262 -0.1856 -0.2703 -0.5140
12803TIP3    H159900   0.270   1.686   3.214  1.3443 -1.9583  0.8225
12803TIP3    H259901   0.169   1.734   3.316  0.6815  0.1762 -0.7526
12804TIP3   OH259902   1.062   5.601   0.758 -0.3743  0.0511  0.2232
12804TIP3    H159903   1.129   5.557   0.811 -0.7913 -1.3104 -0.3440
12804TIP3    H259904   1.066   5.693   0.786  0.0941 -0.4432  1.8869
12805TIP3   OH259905   3.418   4.212  13.211  0.8098  0.1300 -0.1501
12805TIP3    H159906   3.341   4.251  13.252  1.4138 -1.1706  2.3958
12805TIP3    H259907   3.406   4.117  13.222  2.3949 -0.1291 -0.3829
12806TIP3   OH259908   6.188   0.769   0.851  0.2864 -0.7686  0.5187
12806TIP3    H159909   6.103   0.769   0.896 -0.2931 -0.6543 -0.5488
12806TIP3    H259910   6.239   0.837   0.897 -0.2694 -0.6918  1.0339
12807TIP3   OH259911   4.410   3.415   3.776  0.1691  0.0355  0.2350
12807TIP3    H159912   4.449   3.471   3.842  0.0137  0.9623 -0.4239
12807TIP3    H259913   4.483   3.389   3.720 -0.2512  3.6106 -2.3530
12808TIP3   OH259914   3.283   1.770  11.471  0.4203 -0.8936 -0.5931
12808TIP3    H159915   3.300   1.864  11.472 -0.9904 -0.6090  0.5439
12808TIP3    H259916   3.342   1.735  11.538 -1.2948 -0.3086  1.3406
12809TIP3   OH259917   6.307   5.644   0.886 -0.2025 -0.0797 -0.2318
12809TIP3    H159918   6.329   5.723   0.836 -1.9024  0.8750  0.4802
12809TIP3    H259919   6.372   5.641   0.956  0.5303  0.0711 -0.8871
12810TIP3   OH259920   1.371   3.334  16.614 -0.4149 -0.3343  0.1241
12810TIP3    H159921   1.444   3.276  16.591  1.2522  1.9551 -0.7594
12810TIP3    H259922   1.356   3.319  16.707  1.8355 -0.2248  0.5459
12811TIP3   OH259923   2.164   5.671   0.992  0.1043 -0.2470 -0.1611
12811TIP3    H159924   2.147   5.673   0.898  0.6329 -0.7746 -0.2768
12811TIP3    H259925   2.226   5.599   1.003 -0.8343 -0.9393  0.7380
12812TIP3   OH259926   2.792   4.920  15.103  0.6453  0.6100 -0.0146
12812TIP3    H159927   2.802   5.014  15.089  2.1547  0.3330 -0.9953
12812TIP3    H259928   2.724   4.913  15.170  2.0729  2.4930  1.7685
12813TIP3   OH259929   4.659   5.984  15.643  0.2553  0.1179 -0.1809
12813TIP3    H159930   4.604   6.027  15.709 -1.2249 -0.0399 -1.2718
12813TIP3    H259931   4.605   5.982  15.564  1.1043 -1.7994 -0.7707
12814TIP3   OH259932   5.265   2.364  16.568 -0.6708  0.0042  0.2398
12814TIP3    H159933   5.182   2.367  16.617 -0.3645 -0.9019  0.8207
12814TIP3    H259934   5.247   2.308  16.493 -0.3675 -0.8386  0.7886
12815TIP3   OH259935   5.741   5.353  13.622 -0.2604  0.2991  0.3344
12815TIP3    H159936   5.745   5.448  13.620 -2.5024  0.4324 -1.9101
12815TIP3    H259937   5.657   5.333  13.662 -0.2202 -0.7284 -0.0686
12816TIP3   OH259938   6.286   3.698  11.428  0.5262 -0.3549  0.6815
12816TIP3    H159939   6.339   3.772  11.454  2.2068 -1.1972 -0.1986
12816TIP3    H259940   6.239   3.728  11.350  0.0382  0.2461  1.1974
12817TIP3   OH259941   3.715   5.470  12.822  0.6505  0.2641 -0.2474
12817TIP3    H159942   3.668   5.506  12.897 -0.1288 -0.4239 -0.3976
12817TIP3    H259943   3.807   5.484  12.843  0.4614 -0.2892  1.0442
12818TIP3   OH259944   2.197   3.254   5.951 -0.3000 -0.0561 -0.2277
12818TIP3    H159945   2.254   3.300   5.889 -1.5859  0.8743 -0.7713
12818TIP3    H259946   2.149   3.324   5.996 -0.6002 -0.7899  0.6338
12819TIP3   OH259947   5.712   2.764  12.926 -0.5812  0.1132 -0.1088
12819TIP3    H159948   5.735   2.684  12.973  1.2197  0.7192  0.1150
12819TIP3    H259949   5.644   2.805  12.979 -0.9658 -0.8736  0.1783
12820TIP3   OH259950   1.667   0.720   0.046 -0.2436 -0.2648 -0.3864
12820TIP3    H159951   1.719   0.772   0.108 -2.3495 -0.2400  1.4477
12820TIP3    H259952   1.730   0.695  -0.022  1.7318  1.3087  0.7447
12821TIP3   OH259953   5.796   0.422   0.108 -0.1139 -0.3227  0.4324
12821TIP3    H159954   5.799   0.328   0.088  0.0645  0.1637 -2.0262
12821TIP3    H259955   5.869   0.460   0.061  0.5771  0.9537  2.3951
12822TIP3   OH259956   1.805   3.707   1.529 -0.0027 -0.1329  0.3580
12822TIP3    H159957   1.787   3.632   1.473  0.8965 -1.5273  1.8419
12822TIP3    H259958   1.886   3.744   1.494 -0.0614 -0.2863  0.0542
12823TIP3   OH259959   2.024   0.761  12.750 -0.0208 -0.0763 -0.3620
12823TIP3    H159960   2.102   0.800  12.790  2.0619 -2.3519 -1.9332
12823TIP3    H259961   1.953   0.818  12.777  2.1681  2.1850  1.0957
12824TIP3   OH259962   1.348   0.032   3.104 -0.3564 -0.5994  0.1561
12824TIP3    H159963   1.270   0.034   3.160 -1.7799  0.9239 -1.7072
12824TIP3    H259964   1.416   0.074   3.156 -0.8873 -1.5247  1.6590
12825TIP3   OH259965   3.117   4.224  15.119  0.1565 -0.0035 -0.0294
12825TIP3    H159966   3.121   4.251  15.028 -1.0073 -1.1188 -0.4273
12825TIP3    H259967   3.049   4.279  15.158  0.3637  0.1836  0.0721
12826TIP3   OH259968   1.245   4.453  14.985  0.2250 -0.0395  0.1415
12826TIP3    H159969   1.298   4.475  15.062  1.6800 -1.5264 -0.3902
12826TIP3    H259970   1.178   4.522  14.982  2.7596  2.6024  0.2238
12827TIP3   OH259971   5.806   4.326  11.498 -0.1611  0.4057  0.5042
12827TIP3    H159972   5.866   4.255  11.524  0.7826  0.5355 -1.2191
12827TIP3    H259973   5.773   4.360  11.581  1.9161  0.1252  1.5039
12828TIP3   OH259974   2.220   1.571  12.105 -0.5033  0.2501 -0.6012
12828TIP3    H159975   2.270   1.545  12.028  0.0014 -0.7519  0.0479
12828TIP3    H259976   2.246   1.662  12.121  1.3314 -0.3147 -0.1398
12829TIP3   OH259977   0.921   5.871  15.205  0.2851  0.2887 -0.5694
12829TIP3    H159978   0.896   5.780  15.192  0.1999 -0.1392  2.1260
12829TIP3    H259979   0.972   5.893  15.127  1.6010 -2.5402 -0.6269
12830TIP3   OH259980   5.054   5.302   0.029  0.1062  0.2851 -0.0518
12830TIP3    H159981   4.987   5.338  -0.029  0.3328  0.4361 -0.2226
12830TIP3    H259982   5.137   5.325  -0.013  0.3097  1.2575  0.8275
12831TIP3   OH259983   5.014   2.475  12.535 -0.0266  0.0884  0.0579
12831TIP3    H159984   5.075   2.401  12.531 -1.1864 -0.8996 -0.2161
12831TIP3    H259985   5.003   2.492  12.628 -0.1625 -0.4702  0.1532
12832TIP3   OH259986   0.065   3.773  13.849 -0.0224  0.3745  0.4155
12832TIP3    H159987  -0.017   3.725  13.863  0.2244 -0.0111  0.5580
12832TIP3    H259988   0.127   3.707  13.819  0.3935  0.5499  0.8698
12833TIP3   OH259989   0.114   2.619  16.518 -0.4486 -0.3434 -0.7601
12833TIP3    H159990   0.096   2.625  16.424 -0.7825  0.0434 -0.6763
12833TIP3    H259991   0.171   2.693  16.536  0.7004 -1.1820 -0.8974
12834TIP3   OH259992   5.583   2.735  11.890 -0.1245  0.2654  0.3833
12834TIP3    H159993   5.658   2.676  11.886 -0.7886 -0.5965  0.3238
12834TIP3    H259994   5.516   2.685  11.938 -1.4971  0.0661 -1.6363
12835TIP3   OH259995   3.203   3.918   6.638 -0.1578 -0.7692  0.5618
12835TIP3    H159996   3.223   3.997   6.689 -1.4211 -1.7625  2.7250
12835TIP3    H259997   3.253   3.929   6.557  1.8927  0.9497  1.9456
12836TIP3   OH259998   4.792   1.491  16.965 -0.0677 -0.3677  0.2160
12836TIP3    H159999   4.881   1.505  16.995  1.0351  0.4819 -3.0050
12836TIP3    H260000   4.784   1.395  16.958  0.7188 -0.4436  0.2526
12837TIP3   OH260001   3.467   5.652   0.569  0.4159  0.2815  0.1661
12837TIP3    H160002   3.532   5.583   0.557  0.7267  0.7161 -0.7154
12837TIP3    H260003   3.485   5.687   0.656  0.1935 -0.8048  0.6639
12838TIP3   OH260004   4.953   6.461   2.760  0.5131 -0.2139 -0.7389
12838TIP3    H160005   4.986   6.465   2.850  0.3509 -0.2973 -0.6760
12838TIP3    H260006   4.982   6.375   2.728 -3.0655 -2.1816  0.6636
12839TIP3   OH260007   0.795   3.807   4.102 -0.2360  0.1486 -0.3322
12839TIP3    H160008   0.733   3.877   4.123 -0.3376 -0.2188  0.6548
12839TIP3    H260009   0.821   3.824   4.012 -1.9123  0.2027 -0.8374
12840TIP3   OH260010   5.801   2.595  11.322  0.0275 -0.2826  0.2763
12840TIP3    H160011   5.849   2.635  11.250 -1.3849  1.9894  0.4749
12840TIP3    H260012   5.784   2.505  11.294  0.8925  0.0665 -1.4890
12841TIP3   OH260013   2.983   1.482   3.560 -0.6737 -0.2073  0.2668
12841TIP3    H160014   2.985   1.407   3.501  1.0515 -0.0195  0.0117
12841TIP3    H260015   2.915   1.539   3.524 -0.9499 -0.9517 -0.4267
12842TIP3   OH260016   3.864   0.974  15.408  0.8344 -0.3901  0.1150
12842TIP3    H160017   3.857   0.892  15.457 -1.0266 -0.6179 -0.4534
12842TIP3    H260018   3.781   0.980  15.360  1.3093  1.3883 -0.5486
12843TIP3   OH260019   1.389   4.743  14.148  0.2800  0.5194 -0.5549
12843TIP3    H160020   1.303   4.776  14.123 -0.3951 -1.3866 -0.9460
12843TIP3    H260021   1.388   4.745  14.244  0.0522  1.1009 -0.5669
12844TIP3   OH260022   5.657   5.307   0.668  0.0828  0.3979 -0.4940
12844TIP3    H160023   5.585   5.303   0.731 -0.2468 -1.5730 -0.9248
12844TIP3    H260024   5.677   5.400   0.660 -2.0498  0.9498  0.0432
12845TIP3   OH260025   0.964   2.930  14.774  0.8352  0.3013  0.0588
12845TIP3    H160026   1.003   2.843  14.770 -0.5595 -0.3107 -2.4571
12845TIP3    H260027   1.034   2.990  14.748  1.1605 -0.3640 -0.6298
12846TIP3   OH260028   0.606   1.580   4.025 -0.6956  0.5432  0.1834
12846TIP3    H160029   0.568   1.645   4.084  0.9433  1.0426  0.7280
12846TIP3    H260030   0.672   1.628   3.975  0.5816 -0.6649  0.6284
12847TIP3   OH260031   4.740   0.619   3.365  0.1283 -0.4671 -0.5360
12847TIP3    H160032   4.720   0.657   3.280 -1.8499 -0.9770 -0.3611
12847TIP3    H260033   4.670   0.651   3.422  1.3031 -0.2992  0.8667
12848TIP3   OH260034   3.112   2.608   5.058  0.4551 -0.2486  0.2336
12848TIP3    H160035   3.034   2.554   5.072 -0.0430  0.5939  0.7411
12848TIP3    H260036   3.164   2.558   4.994 -0.0473 -1.2646  0.5989
12849TIP3   OH260037   2.984   1.184   2.504  0.0700 -0.1571  0.6998
12849TIP3    H160038   2.915   1.129   2.541 -0.3028 -0.8758 -0.9529
12849TIP3    H260039   3.044   1.123   2.461 -0.0607  0.6541 -0.7156
12850TIP3   OH260040   1.963   1.718   3.264  0.3756 -0.1439 -0.5820
12850TIP3    H160041   1.886   1.703   3.208  0.4590 -0.4556 -0.6133
12850TIP3    H260042   1.985   1.810   3.250 -1.6777  0.7872  1.5053
12851TIP3   OH260043   5.221   6.335   5.955  0.0302  0.0227 -0.3273
12851TIP3    H160044   5.168   6.413   5.972  0.9140  0.0814  2.8254
12851TIP3    H260045   5.293   6.367   5.899 -0.3204  1.1674 -0.1498
12852TIP3   OH260046   0.209   6.362  11.884 -0.7555  0.5278 -0.2274
12852TIP3    H160047   0.131   6.356  11.828 -0.8179  2.7799 -0.4669
12852TIP3    H260048   0.178   6.401  11.965 -1.0026 -4.1681  2.3094
12853TIP3   OH260049   6.239   4.578   0.816  0.5711 -0.2770  0.4850
12853TIP3    H160050   6.197   4.505   0.862 -0.2658  0.6981  1.3357
12853TIP3    H260051   6.316   4.540   0.774 -0.5394 -1.9102 -0.1770
12854TIP3   OH260052   2.132   1.634   5.872 -0.4595  0.6073 -0.6378
12854TIP3    H160053   2.215   1.681   5.887  0.3321 -0.6704 -0.8763
12854TIP3    H260054   2.068   1.704   5.857  0.2571  1.6901  1.0228
12855TIP3   OH260055   3.469   2.812   2.670 -0.3514  0.5949  0.1259
12855TIP3    H160056   3.399   2.868   2.704 -1.0948  0.4231 -1.0384
12855TIP3    H260057   3.422   2.744   2.620  0.5809 -0.4201  0.5884
12856TIP3   OH260058   2.354   2.931   4.491  0.2705 -0.6832  0.1472
12856TIP3    H160059   2.303   2.857   4.526 -0.5886  0.3559  1.1640
12856TIP3    H260060   2.441   2.919   4.528 -0.0836 -0.7350  0.9891
12857TIP3   OH260061   3.692   6.557   3.589 -0.5196  0.1700 -0.2800
12857TIP3    H160062   3.656   6.511   3.664 -2.4453 -0.9398 -1.7876
12857TIP3    H260063   3.763   6.500   3.558  0.6670  0.9151  0.9791
12858TIP3   OH260064   3.154   1.749   3.670 -0.7446 -0.6574 -0.2243
12858TIP3    H160065   3.171   1.842   3.685 -0.9259 -0.9886  2.4222
12858TIP3    H260066   3.058   1.743   3.663 -0.6547 -0.4638 -2.2716
12859TIP3   OH260067   1.589   3.187  11.721  0.0306  0.3583 -0.1449
12859TIP3    H160068   1.519   3.235  11.766  0.4528 -0.4046  1.3663
12859TIP3    H260069   1.560   3.096  11.722 -0.0775  0.3532 -1.7056
12860TIP3   OH260070   4.206   4.950  14.886  0.6195 -0.1602  0.7005
12860TIP3    H160071   4.268   4.927  14.817 -0.6904  0.3411 -0.7026
12860TIP3    H260072   4.240   5.032  14.923  0.7131  0.1899 -0.1516
12861TIP3   OH260073   4.329   5.920   4.773 -0.3122 -0.0343  0.8984
12861TIP3    H160074   4.356   5.845   4.827 -0.4496  0.2482  1.3646
12861TIP3    H260075   4.323   5.992   4.835 -0.8815  0.2006  0.5702
12862TIP3   OH260076   0.799   1.117   3.260 -0.4326  0.5258 -0.3841
12862TIP3    H160077   0.861   1.190   3.264 -0.5321  0.5816  3.0954
12862TIP3    H260078   0.854   1.039   3.267 -0.5917  0.4234 -0.2789
12863TIP3   OH260079   3.542   0.964   0.829 -0.2260  0.7097 -0.0591
12863TIP3    H160080   3.489   0.886   0.847 -0.3650  0.6310 -0.7676
12863TIP3    H260081   3.625   0.929   0.795  0.3092  0.8306  1.0807
12864TIP3   OH260082   6.746   2.824  12.165 -0.4996  0.2312  0.0763
12864TIP3    H160083   6.652   2.828  12.180 -0.7111 -0.4877 -0.9615
12864TIP3    H260084   6.757   2.846  12.072  0.1143 -1.9143 -0.4085
12865TIP3   OH260085   1.744   2.745  13.011  0.1525 -0.5717  0.4134
12865TIP3    H160086   1.677   2.772  12.948  2.4522 -0.0548 -2.0064
12865TIP3    H260087   1.789   2.826  13.034 -0.7087 -0.7281  2.9717
12866TIP3   OH260088   3.304   4.694  11.689  0.0171 -0.1658  0.3290
12866TIP3    H160089   3.305   4.787  11.710  0.4021  0.0182 -0.4886
12866TIP3    H260090   3.395   4.666  11.698 -0.0807 -0.4491  0.4838
12867TIP3   OH260091   0.702   6.374  16.070  0.2259 -0.2722 -0.1835
12867TIP3    H160092   0.664   6.460  16.086  1.6749  0.9928 -2.9014
12867TIP3    H260093   0.786   6.376  16.114 -0.1023 -0.6497  0.4740
12868TIP3   OH260094   1.185   3.194   2.930 -0.4521 -0.1325  0.1590
12868TIP3    H160095   1.175   3.224   3.020 -0.9101 -0.9406  0.3906
12868TIP3    H260096   1.175   3.099   2.935 -0.9211 -0.1479 -0.8090
12869TIP3   OH260097   5.536   5.205   6.167 -0.1049  0.1824  0.2604
12869TIP3    H160098   5.620   5.242   6.195  0.5474  0.3311 -1.7461
12869TIP3    H260099   5.548   5.110   6.174  1.2838  0.0377 -2.5156
12870TIP3   OH260100   5.954   0.623   6.311 -0.5589  0.3106  0.1240
12870TIP3    H160101   5.865   0.643   6.282 -0.9121 -0.1630  0.8589
12870TIP3    H260102   5.990   0.707   6.338 -0.4207  0.6749 -1.1090
12871TIP3   OH260103   0.078   1.201  14.905 -0.1128 -0.1858 -0.5480
12871TIP3    H160104   0.057   1.237  14.819  2.0279 -0.1942 -1.1527
12871TIP3    H260105   0.162   1.242  14.928 -0.1743 -0.9076  1.0915
12872TIP3   OH260106   0.803   6.329   0.767 -0.3434 -0.7016  0.0467
12872TIP3    H160107   0.788   6.416   0.730 -0.9240 -0.6702  0.3442
12872TIP3    H260108   0.737   6.273   0.726  1.8047 -1.6896 -2.3816
12873TIP3   OH260109   1.709   3.795  12.048  0.1502  0.3686 -0.0522
12873TIP3    H160110   1.650   3.731  12.008  0.4342 -0.6623  1.1073
12873TIP3    H260111   1.651   3.853  12.098  0.0641 -0.5784  0.9994
12874TIP3   OH260112   0.992   0.627   2.157  0.1665 -0.2694  0.9317
12874TIP3    H160113   0.959   0.615   2.246  0.6950  2.1394  1.5273
12874TIP3    H260114   1.065   0.566   2.150  0.9520  0.4006  2.6403
12875TIP3   OH260115   4.984   5.544   2.551  0.8366  0.3571 -0.0129
12875TIP3    H160116   5.005   5.632   2.521 -0.6533  0.3784 -1.0615
12875TIP3    H260117   4.922   5.510   2.487  0.6589 -1.1139  0.8804
12876TIP3   OH260118   5.243   2.931  15.830  0.1154  0.1352 -0.5035
12876TIP3    H160119   5.170   2.937  15.892  0.5598  2.9514 -0.1371
12876TIP3    H260120   5.304   2.870  15.870  0.6612  2.2685  2.2484
12877TIP3   OH260121   0.773   3.010  12.949 -0.4602  0.2086 -0.2745
12877TIP3    H160122   0.679   2.992  12.938 -0.3988 -0.5895  0.3801
12877TIP3    H260123   0.804   3.031  12.861 -0.9858 -0.8644 -0.7356
12878TIP3   OH260124   1.415   4.815   2.182  0.5016 -1.1304  0.3130
12878TIP3    H160125   1.368   4.768   2.113 -0.0407 -1.0286  0.6153
12878TIP3    H260126   1.371   4.899   2.189  1.6474 -0.4450 -0.4182
12879TIP3   OH260127   6.397   3.149  14.702 -0.0092 -0.0470  0.5097
12879TIP3    H160128   6.350   3.232  14.708  0.3273  0.0570  2.1967
12879TIP3    H260129   6.473   3.160  14.760  0.5618 -1.2023  0.0216
12880TIP3   OH260130   1.513   1.043   0.717  0.1383 -0.5262 -0.2584
12880TIP3    H160131   1.584   1.045   0.654 -0.2517 -0.0641 -0.6867
12880TIP3    H260132   1.447   1.102   0.681 -0.5210 -1.0595  0.0620
12881TIP3   OH260133   6.646   5.028  15.968  0.1693  0.5461 -0.6502
12881TIP3    H160134   6.558   5.030  15.930 -0.7093  1.3328  1.2945
12881TIP3    H260135   6.644   5.095  16.036  1.9761 -0.1235  0.1223
12882TIP3   OH260136   5.368   6.070  12.759  0.1572  0.1734 -0.3942
12882TIP3    H160137   5.302   6.041  12.823 -0.3714  0.1774 -0.9297
12882TIP3    H260138   5.439   6.105  12.813  0.2412 -0.9162  0.2236
12883TIP3   OH260139   3.247   4.795  13.831  0.3004  0.2140  0.0882
12883TIP3    H160140   3.255   4.777  13.925  0.9554  0.3701  0.0640
12883TIP3    H260141   3.334   4.778  13.795 -0.1372 -0.6007 -0.6293
12884TIP3   OH260142   5.982   2.917   1.362 -0.0744  0.1017 -0.1597
12884TIP3    H160143   6.016   2.978   1.297 -1.6149 -0.4503 -1.5355
12884TIP3    H260144   5.889   2.940   1.370  0.1236  0.3450  2.0902
12885TIP3   OH260145   1.771   1.167  14.485  0.1699  0.0075  0.4940
12885TIP3    H160146   1.848   1.166  14.541 -1.0962 -0.0456  2.3252
12885TIP3    H260147   1.721   1.090  14.511 -1.1835  0.8117  0.3879
12886TIP3   OH260148   6.266   5.402  14.421  0.3916  0.5861 -0.0535
12886TIP3    H160149   6.303   5.435  14.339  3.2342 -0.1169  0.8337
12886TIP3    H260150   6.219   5.477  14.457 -0.4477  1.0777 -2.0140
12887TIP3   OH260151   6.035   5.572   2.660  0.1309  0.1322  0.0614
12887TIP3    H160152   5.975   5.639   2.693  0.7634  1.0602 -0.6181
12887TIP3    H260153   5.990   5.489   2.678 -1.6676  0.8107 -1.0366
12888TIP3   OH260154   5.800   0.336   4.182  0.1281 -0.4903  0.3949
12888TIP3    H160155   5.724   0.394   4.181  1.3667  1.2684  1.8811
12888TIP3    H260156   5.814   0.313   4.090 -0.7297  1.1182 -0.1767
12889TIP3   OH260157   3.501   2.005   0.142  0.1314  0.1976  0.0896
12889TIP3    H160158   3.442   2.036   0.210 -0.7112  0.2883 -0.6751
12889TIP3    H260159   3.483   1.911   0.135  0.1978  0.1941 -0.0359
12890TIP3   OH260160   2.561   5.265  15.779 -0.0638  0.4546  0.3004
12890TIP3    H160161   2.617   5.251  15.855  1.5828  0.5018 -0.8703
12890TIP3    H260162   2.478   5.224  15.803  1.4782 -2.6420  0.8196
12891TIP3   OH260163   5.133   1.796  16.959  0.0547  0.2910  0.1700
12891TIP3    H160164   5.068   1.839  16.903 -0.3348  0.3705  0.6755
12891TIP3    H260165   5.215   1.802  16.910 -0.5449 -0.8522 -1.0072
12892TIP3   OH260166   2.398   4.268   5.204  0.2761  0.0067 -0.2910
12892TIP3    H160167   2.469   4.210   5.178 -0.6112 -1.5580  0.6265
12892TIP3    H260168   2.385   4.249   5.297  0.0797  1.8295  0.0904
12893TIP3   OH260169   0.224   3.409  13.401 -0.3996 -0.1832  0.2890
12893TIP3    H160170   0.220   3.496  13.443 -0.9890 -0.5245  0.9622
12893TIP3    H260171   0.315   3.384  13.408 -0.1239  0.5877 -0.3419
12894TIP3   OH260172   3.742   3.780  14.015 -0.4469  0.3513 -0.2195
12894TIP3    H160173   3.780   3.766  13.929 -1.2698  3.4153 -1.2245
12894TIP3    H260174   3.775   3.866  14.042 -1.2575  0.0484  1.9402
12895TIP3   OH260175   5.540   3.969   3.042  0.4987  0.2916  0.3710
12895TIP3    H160176   5.584   3.936   3.121  1.4409 -2.8818 -1.3281
12895TIP3    H260177   5.483   3.898   3.015 -0.0300  1.4309 -1.6506
12896TIP3   OH260178   0.183   4.463  12.395  0.4349 -0.2721  0.4969
12896TIP3    H160179   0.167   4.389  12.454 -0.9079 -1.0419 -0.7481
12896TIP3    H260180   0.095   4.490  12.367  1.0226  0.3208 -0.8493
12897TIP3   OH260181   1.052   0.566   4.839  0.5340 -0.4574  0.3765
12897TIP3    H160182   1.031   0.586   4.748  3.4853  1.0671 -0.1043
12897TIP3    H260183   1.081   0.475   4.838  2.1919  0.0440 -0.6044
12898TIP3   OH260184   3.094   4.270  16.941  0.5265 -0.1814 -0.0672
12898TIP3    H160185   3.046   4.319  17.007 -0.1182  1.3730 -1.6305
12898TIP3    H260186   3.076   4.315  16.859  3.0754 -0.7108 -1.0165
12899TIP3   OH260187   6.343   2.626   4.162  0.1664  0.6938 -0.1735
12899TIP3    H160188   6.426   2.649   4.203 -0.1186 -0.3190  1.0471
12899TIP3    H260189   6.302   2.566   4.224 -0.2232 -1.0799 -2.0576
12900TIP3   OH260190   4.468   2.027  12.190  0.0005 -0.2559  0.0077
12900TIP3    H160191   4.530   2.087  12.148  0.9009 -0.9634  0.2963
12900TIP3    H260192   4.444   2.071  12.272 -2.1674  1.3723 -1.4170
12901TIP3   OH260193   1.404   1.741   2.125 -0.3055 -0.0377  0.4076
12901TIP3    H160194   1.317   1.711   2.097 -0.9050  1.1966  0.8655
12901TIP3    H260195   1.456   1.741   2.045 -1.0195  0.1718 -0.0691
12902TIP3   OH260196   5.968   1.499  15.973 -0.4359  0.0944  0.4018
12902TIP3    H160197   6.062   1.510  15.992 -0.1710 -1.2813 -0.0122
12902TIP3    H260198   5.924   1.523  16.054  0.3884 -0.7894  1.1391
12903TIP3   OH260199   1.511   2.774   5.601 -0.3106 -0.3120  0.1891
12903TIP3    H160200   1.560   2.847   5.563  0.5955 -1.2073 -0.4139
12903TIP3    H260201   1.435   2.815   5.642  1.2277  1.2208  1.7059
12904TIP3   OH260202   5.816   3.796  16.009  0.3750 -0.2440  0.6621
12904TIP3    H160203   5.855   3.728  15.954 -0.4028  0.2902 -0.5900
12904TIP3    H260204   5.891   3.850  16.037  0.8108 -0.7090  0.4123
12905TIP3   OH260205   3.774   2.406  15.216  0.5676  0.4854  0.0930
12905TIP3    H160206   3.752   2.451  15.134  0.0880  1.2040  0.6094
12905TIP3    H260207   3.713   2.333  15.221  0.3369  0.6729  0.0052
12906TIP3   OH260208   1.162   5.388  17.133 -0.2820 -0.7563  0.2835
12906TIP3    H160209   1.104   5.459  17.160 -0.1025 -0.5609  0.1543
12906TIP3    H260210   1.220   5.375  17.208  1.5766  1.1789 -0.7209
12907TIP3   OH260211   2.818   5.822   5.462 -0.2830  0.0893  0.0805
12907TIP3    H160212   2.748   5.757   5.459 -1.0574  0.4883  3.9601
12907TIP3    H260213   2.885   5.783   5.518  1.9503  0.4034 -2.2115
12908TIP3   OH260214   4.356   2.203   2.156  0.1553 -0.0723  0.2240
12908TIP3    H160215   4.415   2.234   2.224  0.6684  0.8560 -0.6210
12908TIP3    H260216   4.381   2.252   2.078 -1.3329 -0.0947 -0.3023
12909TIP3   OH260217   4.003   3.982   5.692 -0.1423 -0.2367 -0.2259
12909TIP3    H160218   4.001   4.073   5.661 -0.8161 -0.4894 -0.9792
12909TIP3    H260219   4.068   3.939   5.636 -0.2556 -0.3469 -0.2738
12910TIP3   OH260220   1.389   2.611  15.056 -0.5132 -0.3416 -0.1800
12910TIP3    H160221   1.347   2.694  15.033  0.8100  0.7838  1.3328
12910TIP3    H260222   1.344   2.582  15.135 -0.3396 -0.5950 -0.1732
12911TIP3   OH260223   5.175   0.814   4.214  0.2318 -0.7595  0.2628
12911TIP3    H160224   5.122   0.754   4.266  0.6584 -0.8979  0.5380
12911TIP3    H260225   5.222   0.867   4.279  2.8736 -2.7320  0.0930
12912TIP3   OH260226   5.390   4.155   5.716  0.1427  0.1445 -0.5607
12912TIP3    H160227   5.478   4.194   5.715 -0.5826  1.8740 -0.6502
12912TIP3    H260228   5.350   4.184   5.634 -1.3772  1.5925  0.6102
12913TIP3   OH260229   6.018   1.798  16.144 -0.2025 -0.4854 -0.3495
12913TIP3    H160230   5.927   1.786  16.172 -0.2027 -0.9569 -0.5436
12913TIP3    H260231   6.011   1.844  16.060 -0.1720  1.9951  0.9077
12914TIP3   OH260232   2.474   6.159   4.265 -0.6367  0.3720  0.6413
12914TIP3    H160233   2.419   6.223   4.310  0.1909  2.0966 -0.6551
12914TIP3    H260234   2.528   6.212   4.206 -0.8593 -1.6609 -1.5075
12915TIP3   OH260235   1.576   6.281   1.387  0.5556  0.4163 -0.5671
12915TIP3    H160236   1.489   6.316   1.402  1.0850  2.2726 -1.5473
12915TIP3    H260237   1.576   6.255   1.294 -0.1614 -3.4014  0.3175
12916TIP3   OH260238   4.145   1.039   1.529  0.1233  0.5089  0.3979
12916TIP3    H160239   4.139   1.117   1.473  0.6249  0.3500  0.1165
12916TIP3    H260240   4.235   1.008   1.518 -0.5244 -1.0986 -0.8413
12917TIP3   OH260241   0.911   2.271  17.301 -0.0054 -0.3059  0.3509
12917TIP3    H160242   0.849   2.339  17.272  1.0825 -0.1048 -1.6899
12917TIP3    H260243   0.870   2.234  17.379 -1.9314  0.8854 -0.0053
12918TIP3   OH260244   0.517   1.069   4.609 -0.2034  0.1325 -0.1609
12918TIP3    H160245   0.439   1.119   4.636  1.1177  1.3554  1.6114
12918TIP3    H260246   0.580   1.084   4.679  1.1882 -1.9341 -0.8970
12919TIP3   OH260247   3.272   0.327  17.426  0.2347  0.4220 -0.1898
12919TIP3    H160248   3.222   0.324  17.507  1.3476  0.4264  0.5238
12919TIP3    H260249   3.229   0.263  17.369 -0.2116 -0.0099  0.6118
12920TIP3   OH260250   2.096   0.131  11.915 -0.3277  0.0801  0.4402
12920TIP3    H160251   2.075   0.038  11.920  1.4184 -0.3443  0.4715
12920TIP3    H260252   2.177   0.141  11.967 -0.8036  1.7244  0.9494
12921TIP3   OH260253   4.711   5.281  14.882 -0.1506  0.2906 -0.4551
12921TIP3    H160254   4.726   5.259  14.974  2.1507  0.7978 -0.6497
12921TIP3    H260255   4.643   5.349  14.885 -1.0554 -0.6179  0.7457
12922TIP3   OH260256   4.604   1.048  11.495  0.6001 -0.3273  0.4997
12922TIP3    H160257   4.557   1.131  11.500 -0.4490 -0.7803 -1.1247
12922TIP3    H260258   4.602   1.014  11.585 -0.1332  0.7620  0.9150
12923TIP3   OH260259   4.495   3.989  17.135 -0.1695 -0.4888 -1.0491
12923TIP3    H160260   4.440   3.973  17.059  1.4602 -0.0247 -2.4005
12923TIP3    H260261   4.447   4.054  17.186 -0.5814  0.4288 -2.5434
12924TIP3   OH260262   0.906   3.095  11.991 -0.0174 -0.1669 -0.1195
12924TIP3    H160263   0.883   3.004  11.972 -0.4623  0.1355 -1.0824
12924TIP3    H260264   0.828   3.145  11.965  1.0143  0.6984 -1.6878
12925TIP3   OH260265   3.330   6.041  14.866  0.4291  0.7995 -0.6428
12925TIP3    H160266   3.235   6.040  14.873  0.3305  3.1277 -0.6371
12925TIP3    H260267   3.361   6.059  14.954  0.8871  0.0291 -0.6390
12926TIP3   OH260268   3.478   0.111  13.317 -0.2042  0.3771 -0.1991
12926TIP3    H160269   3.449   0.052  13.386 -0.6335  1.2366  0.3750
12926TIP3    H260270   3.530   0.056  13.258 -2.4564 -1.1101 -0.9300
12927TIP3   OH260271   0.622   5.952  10.919 -0.2925 -0.3738 -0.3063
12927TIP3    H160272   0.528   5.943  10.905 -0.3974 -1.2838  0.7806
12927TIP3    H260273   0.638   6.046  10.917 -1.4628 -0.1160  0.7942
12928TIP3   OH260274   4.276   6.494   2.586  0.3886 -0.0718  0.0927
12928TIP3    H160275   4.336   6.510   2.513  1.7200 -2.3759  0.5630
12928TIP3    H260276   4.193   6.472   2.545  0.6913  0.1827 -0.6692
12929TIP3   OH260277   0.073   1.124  14.023 -0.7141 -0.3434 -0.8378
12929TIP3    H160278   0.007   1.184  14.057  0.6984  0.0930  1.3948
12929TIP3    H260279   0.025   1.045  14.000 -1.9859 -0.2868  1.3446
12930TIP3   OH260280   5.402   4.319  12.808  0.4687  0.0643  0.3554
12930TIP3    H160281   5.375   4.232  12.779  0.6143  0.0068  0.3936
12930TIP3    H260282   5.487   4.333  12.767 -0.4928  1.0685 -1.4116
12931TIP3   OH260283   5.994   2.410   0.104  0.7482 -0.4993  0.0531
12931TIP3    H160284   6.063   2.452   0.053 -1.2890  0.5335 -2.0224
12931TIP3    H260285   5.984   2.324   0.063  0.4962 -0.4716  0.0578
12932TIP3   OH260286   2.681   4.154   6.841 -0.6424 -0.5689  0.0323
12932TIP3    H160287   2.602   4.144   6.787 -0.5715 -0.4665 -0.0893
12932TIP3    H260288   2.733   4.075   6.821 -0.5651 -0.4772 -0.1346
12933TIP3   OH260289   5.246   2.439  12.750 -0.3234 -0.0963 -0.0771
12933TIP3    H160290   5.256   2.368  12.686  0.8331 -0.3054  0.3155
12933TIP3    H260291   5.157   2.429  12.784 -0.8141 -0.2379 -1.3362
12934TIP3   OH260292   6.086   6.252  12.322  0.2302 -0.4328  0.1270
12934TIP3    H160293   6.031   6.215  12.391  0.7926 -1.4509  0.0505
12934TIP3    H260294   6.036   6.327  12.289 -0.5293 -0.5825  0.9065
12935TIP3   OH260295   5.885   1.435   4.357 -0.3461  0.0343  0.6763
12935TIP3    H160296   5.843   1.492   4.421  1.1786  1.1434  0.7611
12935TIP3    H260297   5.881   1.483   4.275 -1.3676 -0.9255  0.1431
12936TIP3   OH260298   4.596   1.249   6.018  0.7690 -0.0735  0.5274
12936TIP3    H160299   4.660   1.242   6.089  0.4275 -1.0013  0.7546
12936TIP3    H260300   4.535   1.177   6.034  0.8281 -0.4468 -0.8480
12937TIP3   OH260301   3.403   3.468  11.830  0.2804 -0.0916  0.1176
12937TIP3    H160302   3.497   3.448  11.822  1.1185  3.4526 -0.9289
12937TIP3    H260303   3.399   3.533  11.900 -1.0728  1.1313 -1.0325
12938TIP3   OH260304   6.422   3.313  15.406  0.4293  0.1674  0.0875
12938TIP3    H160305   6.465   3.396  15.386 -1.0177  1.1474  0.8668
12938TIP3    H260306   6.398   3.277  15.320  2.5687 -0.3136 -0.3483
12939TIP3   OH260307   0.501   3.738  15.743 -0.3720  0.1397  0.1211
12939TIP3    H160308   0.443   3.758  15.669  0.3640  3.5847  0.3032
12939TIP3    H260309   0.589   3.747  15.707  0.0357 -0.9711  0.8010
12940TIP3   OH260310   6.257   2.086   0.717 -0.9735 -0.2614  0.2566
12940TIP3    H160311   6.248   2.059   0.808 -0.5004 -1.5203 -0.0547
12940TIP3    H260312   6.171   2.072   0.678 -1.0092 -0.3097  0.3542
12941TIP3   OH260313   1.590   6.544  13.572 -0.0067  0.4496 -0.4772
12941TIP3    H160314   1.652   6.615  13.559  0.2637 -0.1766 -3.2848
12941TIP3    H260315   1.554   6.527  13.485 -2.9122 -0.3372  0.7605
12942TIP3   OH260316   5.261   6.539  14.201 -0.3167  0.0359  0.1767
12942TIP3    H160317   5.356   6.527  14.199 -0.2953  0.3208 -0.4694
12942TIP3    H260318   5.237   6.520  14.292  0.1108 -1.9080 -0.0625
12943TIP3   OH260319   1.504   0.922  15.098 -0.3433  0.2354 -0.4550
12943TIP3    H160320   1.568   0.945  15.165 -0.0945 -0.4793 -0.4346
12943TIP3    H260321   1.434   0.878  15.147 -0.0105 -0.5807 -0.6849
12944TIP3   OH260322   6.446   5.153  13.575  0.3044 -0.1215  0.2617
12944TIP3    H160323   6.388   5.081  13.598  1.0030 -0.7054  0.2145
12944TIP3    H260324   6.388   5.228  13.563 -0.5097 -0.8466 -0.4425
12945TIP3   OH260325   6.028   1.251   3.983 -0.6358  0.8577  0.0234
12945TIP3    H160326   6.062   1.340   3.996 -0.6054  0.7665  0.5731
12945TIP3    H260327   5.960   1.262   3.916  1.0804  0.8890 -1.8072
12946TIP3   OH260328   0.736   5.672  16.358  0.6303 -0.2542 -0.0818
12946TIP3    H160329   0.731   5.740  16.425 -0.0205 -1.1490  0.7999
12946TIP3    H260330   0.667   5.610  16.381  1.0765 -1.1172 -0.9842
12947TIP3   OH260331   0.880   6.294   3.889  0.7609  0.2793 -0.5310
12947TIP3    H160332   0.923   6.300   3.974  1.7972  1.3548 -1.1087
12947TIP3    H260333   0.806   6.355   3.896  0.9702  0.5294 -0.4606
12948TIP3   OH260334   2.246   5.025   3.857  0.5605 -0.5968  0.1438
12948TIP3    H160335   2.281   4.989   3.939  0.0173 -1.5004  0.0005
12948TIP3    H260336   2.161   4.981   3.847 -0.2780  0.9632  0.1036
12949TIP3   OH260337   4.422   2.581  14.791 -0.1610  0.5840  0.3649
12949TIP3    H160338   4.424   2.640  14.867 -0.6813  0.3787  0.5404
12949TIP3    H260339   4.429   2.639  14.715  0.8509  0.7611  0.5710
12950TIP3   OH260340   4.314   1.676  15.777  0.7024  0.0974 -0.2779
12950TIP3    H160341   4.383   1.659  15.713  0.0421  0.8633 -1.2319
12950TIP3    H260342   4.233   1.675  15.725  0.0041 -0.6515  0.7932
12951TIP3   OH260343   6.098   4.963   4.094 -0.9734  0.2944  0.1429
12951TIP3    H160344   6.111   4.913   4.013  0.4200  2.2833 -0.9726
12951TIP3    H260345   6.028   4.917   4.140 -0.9868 -1.6048 -1.6188
12952TIP3   OH260346   5.507   4.415  13.573  0.3439  0.7532 -0.0182
12952TIP3    H160347   5.563   4.480  13.530  0.5696 -0.5196 -1.7703
12952TIP3    H260348   5.523   4.428  13.666  1.1048  2.5555 -0.3422
12953TIP3   OH260349   5.657   1.158  12.793  0.2056 -0.3097  0.1942
12953TIP3    H160350   5.635   1.116  12.710 -1.6149 -2.6908  1.7521
12953TIP3    H260351   5.752   1.153  12.798  0.6032  1.7712 -2.5862
12954TIP3   OH260352   1.431   3.685   1.841  0.0797  0.1887  0.5975
12954TIP3    H160353   1.402   3.748   1.906  1.9726 -0.0196  1.7049
12954TIP3    H260354   1.513   3.721   1.806 -0.3685 -0.1965 -0.9628
12955TIP3   OH260355   0.493   2.359  17.197  0.3841  0.4396 -0.2507
12955TIP3    H160356   0.427   2.290  17.187  0.3620  0.4462 -0.1520
12955TIP3    H260357   0.529   2.344  17.285 -0.2912  1.1472  0.1536
12956TIP3   OH260358   0.227   0.685   1.329  1.1185  0.2981  0.4133
12956TIP3    H160359   0.224   0.623   1.402  0.8262 -0.7308 -0.4532
12956TIP3    H260360   0.194   0.636   1.254  1.5805  1.2832 -0.4616
12957TIP3   OH260361   6.001   2.769  13.077  0.6822  0.3092 -0.3146
12957TIP3    H160362   6.054   2.733  13.148  0.8134  0.4133 -0.3609
12957TIP3    H260363   5.929   2.815  13.121 -1.2938 -2.5955 -0.1943
12958TIP3   OH260364   4.266   1.117  13.123 -0.1634  0.4065 -0.0379
12958TIP3    H160365   4.262   1.082  13.213 -0.4681  1.4057  0.3512
12958TIP3    H260366   4.218   1.054  13.071 -0.1293 -0.1061  0.5353
12959TIP3   OH260367   0.732   3.325   2.104  0.4000  0.3950 -0.4795
12959TIP3    H160368   0.818   3.317   2.062  0.7902  1.5631  0.0617
12959TIP3    H260369   0.744   3.283   2.189  0.6085  1.0600 -0.1760
12960TIP3   OH260370   6.347   2.356   1.609  0.4038  0.2914  0.1849
12960TIP3    H160371   6.306   2.359   1.696  1.3985  2.4373  0.6474
12960TIP3    H260372   6.293   2.295   1.559 -0.3955 -0.7444  2.2021
12961TIP3   OH260373   5.781   5.145   3.993 -0.1927 -0.0700 -0.0095
12961TIP3    H160374   5.852   5.142   4.056 -1.2612  1.0784  1.3005
12961TIP3    H260375   5.712   5.091   4.032 -0.3977 -0.4318 -0.8427
12962TIP3   OH260376   4.152   6.749  11.130 -0.3988  0.0010 -0.2803
12962TIP3    H160377   4.113   6.671  11.091  2.3331 -1.8705  0.4566
12962TIP3    H260378   4.246   6.736  11.119  0.2083  2.4738  1.2991
12963TIP3   OH260379   1.490   4.042   0.376  0.6043  0.4876 -0.3625
12963TIP3    H160380   1.520   3.981   0.309 -0.4259 -0.4375 -0.0058
12963TIP3    H260381   1.395   4.033   0.376  0.5605  0.7834  0.9209
12964TIP3   OH260382   0.879   0.890  11.971  0.0868  0.6294  0.2554
12964TIP3    H160383   0.854   0.806  11.933  0.6466  1.2794 -1.6369
12964TIP3    H260384   0.946   0.867  12.036  0.5068 -0.3536 -0.4995
12965TIP3   OH260385   0.960   4.492  14.634 -0.1983 -0.1807 -0.0924
12965TIP3    H160386   0.894   4.442  14.586  1.9620 -1.7575 -1.6207
12965TIP3    H260387   1.017   4.425  14.671  1.2048  1.1323  0.1859
12966TIP3   OH260388   1.424   1.065   2.830 -0.4453  0.0878  0.1399
12966TIP3    H160389   1.345   1.056   2.883 -0.2069 -2.4755  0.1830
12966TIP3    H260390   1.490   1.097   2.891 -1.1983  1.3359  0.3276
12967TIP3   OH260391   1.020   4.365  13.314 -0.3387 -0.6078  0.3904
12967TIP3    H160392   1.026   4.285  13.262 -1.1703 -0.5463  0.1711
12967TIP3    H260393   1.034   4.436  13.251  1.0376 -0.5832  0.6994
12968TIP3   OH260394   4.457   3.524  12.302 -0.3408 -0.2718 -0.0267
12968TIP3    H160395   4.403   3.571  12.239  0.7526  0.4288 -0.4801
12968TIP3    H260396   4.533   3.495  12.251  0.4404  0.0890  0.9032
12969TIP3   OH260397   4.928   4.039  15.505  0.0690 -0.1729  0.1984
12969TIP3    H160398   4.968   4.126  15.511  0.3754 -0.2374 -0.7712
12969TIP3    H260399   4.835   4.054  15.521 -0.0183  0.4678 -0.8369
12970TIP3   OH260400   0.861   0.829  13.550 -0.2433  0.5558  0.4156
12970TIP3    H160401   0.914   0.858  13.624  1.6993  1.2598 -1.1532
12970TIP3    H260402   0.913   0.760  13.508 -1.4708 -0.1003 -0.0969
12971TIP3   OH260403   3.688   4.587   2.396  0.0623  0.1778  0.4340
12971TIP3    H160404   3.645   4.650   2.453 -1.9713 -2.3364  1.8859
12971TIP3    H260405   3.772   4.570   2.438  0.3734  1.4190  0.3452
12972TIP3   OH260406   2.669   0.996  17.052 -0.4554 -0.3234  0.4589
12972TIP3    H160407   2.582   1.035  17.043 -0.5503 -0.5151  0.5265
12972TIP3    H260408   2.729   1.070  17.052 -0.6225 -0.1877  0.4455
12973TIP3   OH260409   3.060   0.402   1.469 -0.2474 -0.0512 -0.3821
12973TIP3    H160410   3.103   0.416   1.553 -0.9619  1.2028 -0.2138
12973TIP3    H260411   2.977   0.450   1.476  0.4836  1.6395 -2.4548
12974TIP3   OH260412   5.659   1.414   2.753 -0.1345 -0.3301 -0.6756
12974TIP3    H160413   5.604   1.483   2.715 -0.4917 -0.7443 -0.9299
12974TIP3    H260414   5.639   1.416   2.847 -0.5872 -0.4657 -0.7628
12975TIP3   OH260415   4.340   3.902  12.799  0.4399  0.7062 -0.7418
12975TIP3    H160416   4.432   3.899  12.823  0.1219  0.8951  0.5826
12975TIP3    H260417   4.297   3.946  12.873 -1.1020 -1.8454  0.0088
12976TIP3   OH260418   2.522   3.866  13.515 -0.4879  0.2807  0.2741
12976TIP3    H160419   2.476   3.847  13.434 -2.0161 -0.1227  1.1900
12976TIP3    H260420   2.611   3.889  13.488 -1.6632  2.9977 -1.7595
12977TIP3   OH260421   1.858   2.086  17.457 -0.1426  0.0901 -0.1723
12977TIP3    H160422   1.883   2.059  17.546 -0.3832  0.6842  0.0817
12977TIP3    H260423   1.838   2.004  17.412  3.2871 -0.6011 -0.7550
12978TIP3   OH260424   4.066   5.498   5.322  0.3377 -0.3454  0.3451
12978TIP3    H160425   4.156   5.532   5.320  1.8596 -3.9427 -1.1540
12978TIP3    H260426   4.043   5.495   5.415  1.6324  0.8411  0.7438
12979TIP3   OH260427   4.930   2.615  16.727  0.1496 -0.1569  0.1572
12979TIP3    H160428   4.968   2.551  16.788  2.2443  0.6657 -0.1980
12979TIP3    H260429   4.893   2.562  16.657 -1.3980 -1.0826  1.5909
12980TIP3   OH260430   0.506   0.448  15.496 -0.8187  0.0338  0.3122
12980TIP3    H160431   0.598   0.443  15.524 -0.1458 -0.1111 -1.7310
12980TIP3    H260432   0.480   0.538  15.517 -0.4775 -0.1529  1.6232
12981TIP3   OH260433   6.463   2.843  14.560  0.7292  0.3691  0.0143
12981TIP3    H160434   6.381   2.800  14.536  1.5046 -1.4990  0.5338
12981TIP3    H260435   6.469   2.919  14.501 -0.4306 -0.5467 -1.3419
12982TIP3   OH260436   5.990   2.332  13.721  0.1487 -0.4341  1.0507
12982TIP3    H160437   6.048   2.352  13.795  0.2096  1.3733  0.5790
12982TIP3    H260438   6.050   2.305  13.651  0.4320  1.0166  0.6945
12983TIP3   OH260439   1.466   4.587   4.517 -0.3728  0.4162  0.4290
12983TIP3    H160440   1.491   4.675   4.544 -0.8308  0.4430  0.7837
12983TIP3    H260441   1.475   4.534   4.595  0.2949  0.0593  0.1127
12984TIP3   OH260442   5.230   6.301   1.428  0.7631 -0.2570  0.3335
12984TIP3    H160443   5.275   6.270   1.507  1.0991 -1.0149 -0.1500
12984TIP3    H260444   5.288   6.276   1.356  0.4961  0.4990 -0.1582
12985TIP3   OH260445   0.010   1.616   3.597 -0.1897  0.1291 -0.1042
12985TIP3    H160446   0.062   1.542   3.566  0.5710  1.0222 -1.0634
12985TIP3    H260447  -0.079   1.597   3.568 -0.2366 -0.9486  0.6904
12986TIP3   OH260448   0.704   3.321  11.230 -0.1608 -0.2380 -0.1180
12986TIP3    H160449   0.630   3.376  11.202  2.0384  2.9102 -0.3488
12986TIP3    H260450   0.705   3.249  11.168 -0.0060  2.4673 -3.5616
12987TIP3   OH260451   1.090   1.199  14.355  0.1737  0.3952  0.1492
12987TIP3    H160452   1.070   1.171  14.444 -1.3444  2.3256  0.4886
12987TIP3    H260453   1.163   1.143  14.328 -0.9360 -1.9532  1.6647
12988TIP3   OH260454   5.615   2.882   0.379  0.3592 -0.0169  0.1350
12988TIP3    H160455   5.677   2.809   0.390 -1.5920 -1.8248 -0.1788
12988TIP3    H260456   5.546   2.845   0.324 -0.7610  2.0841  0.0684
12989TIP3   OH260457   3.023   4.140  17.513 -0.3916 -0.1923  0.3462
12989TIP3    H160458   3.079   4.107  17.583  0.3694  0.5947  0.1288
12989TIP3    H260459   3.075   4.209  17.471 -1.5516  0.6064  0.1714
12990TIP3   OH260460   6.480   2.319   5.038 -0.3988  0.3116  0.3398
12990TIP3    H160461   6.465   2.238   4.989  3.3502  0.1691 -0.8818
12990TIP3    H260462   6.465   2.389   4.975  2.4295  0.2014 -0.5949
12991TIP3   OH260463   5.135   0.947  14.627  0.5888  0.4883 -0.4582
12991TIP3    H160464   5.115   1.040  14.616  0.4698  0.4489 -0.5851
12991TIP3    H260465   5.176   0.941  14.713 -0.2680  0.5184 -0.0345
12992TIP3   OH260466   1.100   3.122   1.921  0.2225 -0.2088  0.2097
12992TIP3    H160467   1.097   3.091   1.831 -0.0721 -0.2864  0.2461
12992TIP3    H260468   1.162   3.064   1.964 -0.2261 -0.6693  0.2445
12993TIP3   OH260469   4.851   1.287   0.892  0.3091  0.0889  0.0578
12993TIP3    H160470   4.760   1.317   0.897  1.0116  2.4398 -0.0281
12993TIP3    H260471   4.853   1.231   0.814 -1.4268 -1.6028  1.1432
12994TIP3   OH260472   4.684   0.860   5.644  0.3714  0.3507  0.0152
12994TIP3    H160473   4.602   0.877   5.690 -0.3947  0.2657 -1.2674
12994TIP3    H260474   4.678   0.914   5.565  1.3778  0.0436 -0.2830
12995TIP3   OH260475   0.902   2.224   4.192 -0.1789 -0.7847 -0.0191
12995TIP3    H160476   0.852   2.265   4.263  1.0532  0.6401  0.0712
12995TIP3    H260477   0.928   2.296   4.135  1.2320 -1.5401 -0.3966
12996TIP3   OH260478   3.075   4.750   4.493  0.0513 -0.7116 -0.1560
12996TIP3    H160479   3.005   4.688   4.510 -1.8490  1.4388  0.3648
12996TIP3    H260480   3.140   4.732   4.561  1.3337 -4.3409 -2.0622
12997TIP3   OH260481   5.694   2.779  17.311  0.3162 -0.3903  0.4557
12997TIP3    H160482   5.699   2.704  17.251  1.3989  0.6851 -0.8553
12997TIP3    H260483   5.600   2.798  17.317 -0.1531 -2.7641  2.0596
12998TIP3   OH260484   1.624   5.270  12.017 -0.1808  0.1577 -0.5801
12998TIP3    H160485   1.616   5.279  11.922 -0.9769  0.6871 -0.4823
12998TIP3    H260486   1.535   5.246  12.046  0.0678 -0.0537  0.0231
12999TIP3   OH260487   6.586   5.066  15.337 -0.1860 -0.2990  0.0387
12999TIP3    H160488   6.648   5.116  15.390 -1.4954 -0.7438  2.1488
12999TIP3    H260489   6.503   5.112  15.348 -1.5112 -2.8661  2.2571
13000TIP3   OH260490   2.953   4.249   2.252 -0.0730  0.0988  0.0442
13000TIP3    H160491   2.991   4.162   2.241 -0.2681 -0.1089  0.9252
13000TIP3    H260492   2.975   4.273   2.342 -1.2464  0.3450  0.2841
13001TIP3   OH260493   0.204   2.656  12.217 -0.3666  0.0842 -0.5413
13001TIP3    H160494   0.126   2.711  12.209  0.2810  0.9797 -0.9126
13001TIP3    H260495   0.178   2.572  12.179 -1.1280  0.3885 -0.7216
13002TIP3   OH260496   2.618   1.402  16.860  0.2312 -0.2058  0.0884
13002TIP3    H160497   2.682   1.464  16.826  0.8563  0.4653  2.3391
13002TIP3    H260498   2.546   1.456  16.892 -0.1235 -0.7765  0.2780
13003TIP3   OH260499   3.586   2.212   5.628 -0.2384 -0.0545  0.1460
13003TIP3    H160500   3.589   2.128   5.582  1.6903 -2.2324  3.7977
13003TIP3    H260501   3.525   2.197   5.701  0.3729  1.6221  1.0507
13004TIP3   OH260502   0.742   3.251  17.069  0.2496  0.5085 -0.2913
13004TIP3    H160503   0.817   3.226  17.016 -0.5983  0.8996 -1.7422
13004TIP3    H260504   0.690   3.171  17.077 -0.7765  0.9193 -2.0891
13005TIP3   OH260505   5.193   2.965  14.410  0.0344  0.4906 -0.1052
13005TIP3    H160506   5.224   2.932  14.494 -0.9065  1.9668  0.8739
13005TIP3    H260507   5.107   2.924  14.399 -0.0652  0.6956 -0.0929
13006TIP3   OH260508   0.173   4.336  16.291 -0.0169 -0.8677 -0.2985
13006TIP3    H160509   0.162   4.304  16.380  1.5665 -0.2505  0.1538
13006TIP3    H260510   0.156   4.430  16.297  2.7558 -0.3026 -0.0286
13007TIP3   OH260511   2.455   4.191  14.812  0.0447  0.2684 -0.6217
13007TIP3    H160512   2.409   4.169  14.731 -1.8270  1.2980  0.1087
13007TIP3    H260513   2.505   4.270  14.792 -1.1746  1.0730 -0.5270
13008TIP3   OH260514   3.321   2.330  11.858  0.2598 -0.3499 -0.0681
13008TIP3    H160515   3.398   2.357  11.808  0.7058 -2.4166 -0.5653
13008TIP3    H260516   3.351   2.257  11.912 -1.4461 -1.6192 -0.7219
13009TIP3   OH260517   1.620   4.958  14.449 -0.8405  0.5302 -0.0928
13009TIP3    H160518   1.586   5.045  14.430 -1.4575 -0.1557 -2.4708
13009TIP3    H260519   1.679   4.939  14.375 -0.3048 -0.8525  0.6584
13010TIP3   OH260520   5.654   4.409  15.288 -0.2986  0.4445 -0.8721
13010TIP3    H160521   5.638   4.502  15.272  0.4169  0.6334 -0.5291
13010TIP3    H260522   5.749   4.402  15.294 -0.3626 -0.2612 -0.6119
13011TIP3   OH260523   5.499   5.819  16.028 -0.5034 -0.4906  0.3699
13011TIP3    H160524   5.472   5.868  15.950  1.7195  0.2087 -0.0559
13011TIP3    H260525   5.594   5.809  16.018 -0.3499 -1.5625  2.3471
13012TIP3   OH260526   2.199   0.933   3.023 -0.2649 -0.9595  0.2335
13012TIP3    H160527   2.127   0.990   3.049  0.5806 -0.0880  0.7153
13012TIP3    H260528   2.199   0.863   3.089  0.2157 -0.1849  1.0737
13013TIP3   OH260529   4.207   5.478  16.033  1.0204 -0.2032 -0.7885
13013TIP3    H160530   4.177   5.480  16.124  0.1206 -1.6811 -1.0246
13013TIP3    H260531   4.284   5.535  16.032  1.0134 -0.1208  0.8842
13014TIP3   OH260532   3.022   3.970   4.568  0.6976 -0.6018 -0.0303
13014TIP3    H160533   3.051   3.970   4.659 -0.8886  1.0727  0.5319
13014TIP3    H260534   2.959   3.899   4.562 -0.1518  0.0910  0.5320
13015TIP3   OH260535   4.689   6.059   6.066 -0.0959 -0.0408  0.3190
13015TIP3    H160536   4.713   6.069   6.158 -0.9126  0.1300  0.5311
13015TIP3    H260537   4.654   5.970   6.060 -0.4770  0.1086  0.2848
13016TIP3   OH260538   5.743   1.878  13.310  0.0030  0.6132 -0.0624
13016TIP3    H160539   5.817   1.832  13.349 -0.0611 -0.3818 -1.0733
13016TIP3    H260540   5.754   1.969  13.339  0.7115  0.1781  1.1146
13017TIP3   OH260541   6.636   1.846  16.498 -0.2710  0.1972 -0.2704
13017TIP3    H160542   6.725   1.879  16.487 -0.8147  1.2514 -1.7626
13017TIP3    H260543   6.627   1.778  16.431 -0.2257 -0.7915  0.6801
13018TIP3   OH260544   0.288   1.383   6.616 -0.2683  0.5525 -0.3010
13018TIP3    H160545   0.205   1.413   6.579 -1.0381  0.6018  1.3702
13018TIP3    H260546   0.272   1.380   6.710  1.6215  0.4986  0.0471
13019TIP3   OH260547   3.943   4.216   5.360 -0.0939  0.0109 -0.0513
13019TIP3    H160548   3.958   4.135   5.312  0.3829 -0.5053  0.9278
13019TIP3    H260549   3.969   4.286   5.300 -0.4104 -0.5689 -0.8613
13020TIP3   OH260550   4.746   2.345   2.212 -0.0585 -0.2163  0.3452
13020TIP3    H160551   4.748   2.262   2.163 -0.8632  0.1921 -0.3998
13020TIP3    H260552   4.758   2.413   2.145  0.8190  0.2705  0.9823
13021TIP3   OH260553   0.723   5.963  11.823  0.5806  0.6429  0.0721
13021TIP3    H160554   0.683   6.024  11.761  0.4395 -0.2696 -0.7567
13021TIP3    H260555   0.672   5.974  11.903 -0.7629  0.1464 -0.6927
13022TIP3   OH260556   0.063   6.524  12.078  0.7455  0.2081  0.7464
13022TIP3    H160557  -0.015   6.579  12.087  0.7581  0.4563 -0.5187
13022TIP3    H260558   0.057   6.463  12.152 -2.9895 -2.6510 -1.5256
13023TIP3   OH260559   4.603   3.808  12.389 -0.1691  0.1559 -0.2795
13023TIP3    H160560   4.530   3.749  12.372  0.5465 -0.5104 -1.1129
13023TIP3    H260561   4.653   3.765  12.458  0.8085 -0.6450 -1.4624
13024TIP3   OH260562   5.441   0.131   4.351  0.0643 -0.1367  0.0576
13024TIP3    H160563   5.354   0.154   4.319 -0.0947 -0.3739  0.3134
13024TIP3    H260564   5.476   0.072   4.285  0.6809  1.2157 -0.8694
13025TIP3   OH260565   0.022   2.794   4.431 -0.3396  0.4396  0.3924
13025TIP3    H160566   0.082   2.720   4.440  0.5550  1.2414  1.1224
13025TIP3    H260567   0.026   2.839   4.516 -1.8527  0.6041  0.4048
13026TIP3   OH260568   1.005   5.897   3.022 -0.4873  0.9245 -0.6060
13026TIP3    H160569   1.009   5.825   2.958  0.5690  0.3430  0.0826
13026TIP3    H260570   1.022   5.855   3.106  2.6615  2.2594 -0.4356
13027TIP3   OH260571   6.768   4.953   2.167 -0.2540  0.2630 -0.1222
13027TIP3    H160572   6.703   4.919   2.106  1.0372  1.3040 -2.1924
13027TIP3    H260573   6.728   5.031   2.205 -1.3074 -0.7380  0.8884
13028TIP3   OH260574   5.967   1.663  12.446  0.2982  0.0476 -0.1800
13028TIP3    H160575   5.895   1.600  12.446  0.9602 -0.7864  1.3709
13028TIP3    H260576   6.014   1.645  12.528 -0.4101  3.6229  1.1870
13029TIP3   OH260577   3.737   1.660   4.203  0.0600  0.3012 -0.2577
13029TIP3    H160578   3.727   1.570   4.233 -0.4058  0.4463  0.0300
13029TIP3    H260579   3.724   1.713   4.281 -2.4231  0.7479 -0.8736
13030TIP3   OH260580   1.872   1.102  16.914 -0.4906  0.0447 -0.2615
13030TIP3    H160581   1.842   1.025  16.963  0.2725  0.7316  1.3541
13030TIP3    H260582   1.897   1.067  16.829  0.9414 -1.7269  0.8074
13031TIP3   OH260583   3.394   6.643  15.039  0.7352  0.2530 -0.5409
13031TIP3    H160584   3.307   6.604  15.042  1.3795 -1.4991 -2.2211
13031TIP3    H260585   3.412   6.654  14.945  2.7790 -0.5405 -0.2904
13032TIP3   OH260586   5.545   4.627   5.193  0.2357  0.2787  0.1223
13032TIP3    H160587   5.503   4.596   5.274 -0.8591  0.8481 -0.2091
13032TIP3    H260588   5.569   4.718   5.212  1.0828  0.0461  0.2081
13033TIP3   OH260589   2.074   5.035  13.929  0.4011  0.2544 -0.5946
13033TIP3    H160590   2.099   4.977  13.857  2.1633  2.7673 -2.1483
13033TIP3    H260591   2.156   5.058  13.972 -0.4232  0.4708  0.9634
13034TIP3   OH260592   2.468   0.514   5.867  0.2053 -0.2074  0.2255
13034TIP3    H160593   2.477   0.561   5.784  0.7074 -0.0105  0.3862
13034TIP3    H260594   2.558   0.505   5.900  0.3071 -2.5925 -0.5130
13035TIP3   OH260595   5.941   3.988  15.678 -0.3490  0.6822  0.2832
13035TIP3    H160596   5.871   3.924  15.670  1.3789 -1.3981  1.0163
13035TIP3    H260597   5.905   4.067  15.637 -2.4004 -0.8305 -1.0612
13036TIP3   OH260598   6.568   5.393   4.991 -0.3160 -0.4249  0.2608
13036TIP3    H160599   6.518   5.380   4.910  1.7194  2.7954 -1.7143
13036TIP3    H260600   6.518   5.457   5.040  0.9947  1.7151 -1.0589
13037TIP3   OH260601   4.863   2.363   1.855 -0.1695  0.2673 -0.5046
13037TIP3    H160602   4.850   2.445   1.808  2.3237  0.2943 -1.3249
13037TIP3    H260603   4.941   2.378   1.909 -1.4435 -0.6157  1.7242
13038TIP3   OH260604   0.128   6.616   3.213  0.0862 -0.3840 -0.3575
13038TIP3    H160605   0.065   6.575   3.153 -1.3763  1.1676  0.0316
13038TIP3    H260606   0.145   6.549   3.280 -3.9165  0.1486  1.4917
13039TIP3   OH260607   5.693   0.161   3.571  0.6372  0.0230  0.1718
13039TIP3    H160608   5.725   0.115   3.493 -0.9192 -0.4846 -0.1883
13039TIP3    H260609   5.599   0.169   3.558  0.4702  0.7315  1.5972
13040TIP3   OH260610   0.589   3.589  13.194 -0.3130  0.0546  0.5657
13040TIP3    H160611   0.595   3.684  13.190  1.2200 -0.0671 -2.3236
13040TIP3    H260612   0.520   3.567  13.131 -0.7559 -0.7903  1.3120
13041TIP3   OH260613   0.542   1.256   6.507  0.4690  0.5835 -0.3129
13041TIP3    H160614   0.482   1.282   6.577  1.5964 -0.6446  1.1820
13041TIP3    H260615   0.528   1.162   6.498  1.2719  0.5113 -0.8123
13042TIP3   OH260616   3.100   2.257  15.350  0.1760 -0.1998 -0.2626
13042TIP3    H160617   3.177   2.215  15.389 -0.5669 -1.4278 -0.0723
13042TIP3    H260618   3.114   2.248  15.256  0.8543  0.6954 -0.2566
13043TIP3   OH260619   4.047   1.720   5.202 -0.2314 -0.5946 -0.5077
13043TIP3    H160620   4.059   1.632   5.166 -2.8823 -0.9418 -0.7591
13043TIP3    H260621   4.023   1.773   5.126  0.4851  0.1779 -0.2102
13044TIP3   OH260622   5.208   6.659  17.311  0.7026 -0.2295 -0.9374
13044TIP3    H160623   5.210   6.564  17.294 -0.4457 -0.3561 -0.4306
13044TIP3    H260624   5.297   6.688  17.290  1.0681 -1.4099 -1.1356
13045TIP3   OH260625   0.978   1.451   2.204 -0.4454 -0.1836  0.2455
13045TIP3    H160626   0.888   1.460   2.236 -0.0524  0.5100  1.1913
13045TIP3    H260627   0.986   1.358   2.183 -1.1868 -0.3672  0.7419
13046TIP3   OH260628   2.504   5.528  16.400 -0.5026  0.0218  0.5927
13046TIP3    H160629   2.516   5.442  16.440  1.1977  0.0557  0.2255
13046TIP3    H260630   2.415   5.526  16.366 -0.6401 -1.4306  0.9546
13047TIP3   OH260631   1.760   5.641   4.910  0.4975 -0.1435 -0.6825
13047TIP3    H160632   1.826   5.604   4.851  2.4656 -0.6172  1.6522
13047TIP3    H260633   1.774   5.595   4.993 -3.1654 -0.6295 -0.1600
13048TIP3   OH260634   0.274   5.143   5.642 -0.1929  0.1650 -0.0105
13048TIP3    H160635   0.264   5.055   5.680 -0.8353  0.2494  0.0211
13048TIP3    H260636   0.191   5.159   5.596  0.6047  0.0000 -1.5933
13049TIP3   OH260637   4.429   6.667   5.345  0.6110  0.2345 -0.9985
13049TIP3    H160638   4.450   6.750   5.303  0.9781  1.8504  2.1223
13049TIP3    H260639   4.499   6.608   5.318  1.6382  1.6224 -1.4534
13050TIP3   OH260640   2.101   3.549   2.507 -0.3471  0.7796  0.0947
13050TIP3    H160641   2.007   3.531   2.508 -0.3475  0.7802  0.7398
13050TIP3    H260642   2.142   3.463   2.513 -0.3236  0.8264  0.7210
13051TIP3   OH260643   4.906   6.045   5.284  0.0299 -0.2834  0.0710
13051TIP3    H160644   4.863   5.969   5.323  0.0110  0.1885  0.9851
13051TIP3    H260645   4.947   6.010   5.204 -0.3124 -1.1657  0.2663
13052TIP3   OH260646   6.118   4.511   0.564  0.0787 -0.4393  0.2913
13052TIP3    H160647   6.152   4.533   0.650 -0.0179 -0.3841  0.3158
13052TIP3    H260648   6.080   4.593   0.531 -0.4634 -0.6130  0.4669
13053TIP3   OH260649   6.514   4.974   3.999  0.3287 -0.0608 -0.0089
13053TIP3    H160650   6.506   4.950   4.092 -2.3903 -0.1615 -0.1865
13053TIP3    H260651   6.496   5.068   3.996 -0.7796 -0.2736 -0.5273
13054TIP3   OH260652   2.217   6.262  11.495  0.3668  0.1988 -0.4252
13054TIP3    H160653   2.127   6.261  11.527  0.0801  0.5040 -1.1950
13054TIP3    H260654   2.222   6.186  11.437  0.4938  0.3800 -0.6546
13055TIP3   OH260655   3.557   5.063  14.815  0.2483  0.8242  0.3059
13055TIP3    H160656   3.622   4.993  14.825 -0.9362 -0.0044  4.7352
13055TIP3    H260657   3.480   5.019  14.780 -0.7674 -0.5729  3.8306
13056TIP3   OH260658   6.506   5.031   4.714 -0.5098  0.1055  0.5063
13056TIP3    H160659   6.570   5.062   4.778 -0.4123 -1.8121  1.4162
13056TIP3    H260660   6.520   5.085   4.637  2.2175 -0.2497  0.6732
13057TIP3   OH260661   6.400   1.025   2.515 -0.2644 -0.4796  0.4203
13057TIP3    H160662   6.311   1.012   2.482  0.1715 -0.3580 -0.8971
13057TIP3    H260663   6.426   0.941   2.551 -1.8935  0.1788  3.4875
13058TIP3   OH260664   4.572   1.594  13.374  0.4941 -0.2897 -0.1423
13058TIP3    H160665   4.618   1.511  13.387 -0.1101 -0.2288  3.3481
13058TIP3    H260666   4.637   1.660  13.397  0.2086  0.0716 -0.3671
13059TIP3   OH260667   6.207   4.323  14.682 -0.6276  0.2156 -0.3582
13059TIP3    H160668   6.186   4.234  14.711  0.4537  0.6282  1.9625
13059TIP3    H260669   6.125   4.357  14.646 -1.1711 -1.5430 -0.8339
13060TIP3   OH260670   2.757   3.887   0.114 -0.9498  0.7919  0.2343
13060TIP3    H160671   2.822   3.877   0.184 -1.1007  0.1971  0.3003
13060TIP3    H260672   2.758   3.802   0.069  1.5171  2.1252 -2.6167
13061TIP3   OH260673   4.994   0.865  17.168 -0.2458 -0.1543 -0.1238
13061TIP3    H160674   4.919   0.818  17.132 -1.2860  0.0682  1.6557
13061TIP3    H260675   5.066   0.844  17.108 -1.6368 -0.5818 -1.7302
13062TIP3   OH260676   3.470   5.528  12.954  1.1303 -0.1456  0.3635
13062TIP3    H160677   3.395   5.568  12.911 -0.7166 -0.9375  2.6544
13062TIP3    H260678   3.471   5.565  13.042  2.9995 -0.7107  0.6338
13063TIP3   OH260679   1.049   6.704   6.475 -0.1592 -0.4253  0.1751
13063TIP3    H160680   0.978   6.714   6.412 -0.6369 -1.5453  0.4990
13063TIP3    H260681   1.005   6.692   6.559  0.4576  0.4980  0.6493
13064TIP3   OH260682   4.173   2.762   1.615 -0.0419 -0.1383 -0.0442
13064TIP3    H160683   4.243   2.769   1.550 -0.3363  0.4763 -0.3041
13064TIP3    H260684   4.133   2.676   1.597  0.0694 -0.1012 -0.4873
13065TIP3   OH260685   1.324   4.871  15.484  0.0717  0.0830  0.4564
13065TIP3    H160686   1.390   4.838  15.423 -0.3284  2.6515 -1.4997
13065TIP3    H260687   1.374   4.895  15.563  1.3939  1.2085 -0.6739
13066TIP3   OH260688   5.352   3.915  13.775 -0.4942  0.6562 -0.0798
13066TIP3    H160689   5.402   3.992  13.749 -0.7904  1.8726  2.5834
13066TIP3    H260690   5.300   3.893  13.698  1.2655  1.6898 -1.6505
13067TIP3   OH260691   2.632   0.899  14.578 -0.4644  0.5457 -0.0456
13067TIP3    H160692   2.555   0.855  14.615  0.4695 -0.4795  0.7027
13067TIP3    H260693   2.616   0.992  14.595 -1.3663  0.3171  0.4318
13068TIP3   OH260694   2.433   2.736   1.737 -0.2296  0.4638 -0.1727
13068TIP3    H160695   2.510   2.706   1.689 -0.1791  0.8782 -0.3542
13068TIP3    H260696   2.363   2.676   1.709 -0.1004  0.4321 -0.4326
13069TIP3   OH260697   5.116   4.221   3.066  0.5108  0.1533  0.2057
13069TIP3    H160698   5.126   4.248   2.975  1.0925 -1.0394 -0.1007
13069TIP3    H260699   5.022   4.228   3.082  0.5455  1.5208 -0.1070
13070TIP3   OH260700   5.199   1.413  16.913 -0.1458 -0.5113  0.4915
13070TIP3    H160701   5.266   1.371  16.968  0.9566  0.8546  0.2498
13070TIP3    H260702   5.146   1.464  16.974  0.3809  0.1072  0.4462
13071TIP3   OH260703   1.349   1.185  13.465 -0.0040 -0.1662  0.4418
13071TIP3    H160704   1.360   1.247  13.393  0.2587 -2.1178 -1.2950
13071TIP3    H260705   1.257   1.159  13.460  0.4761 -1.8008 -0.5239
13072TIP3   OH260706   3.147   6.092   3.631  0.5640 -0.1500  0.1444
13072TIP3    H160707   3.158   6.088   3.536 -0.0055 -1.7446  0.1136
13072TIP3    H260708   3.236   6.101   3.666  0.8249 -0.0994 -0.5258
13073TIP3   OH260709   0.256   4.894   5.836  0.6264 -0.9116 -0.5955
13073TIP3    H160710   0.165   4.864   5.832  0.6758 -0.9637 -1.4711
13073TIP3    H260711   0.308   4.820   5.807  1.0032 -1.0626  0.4245
13074TIP3   OH260712   1.916   5.420   4.029 -0.0282 -0.2573 -0.4100
13074TIP3    H160713   1.988   5.371   3.989  0.8000 -0.3684  1.1404
13074TIP3    H260714   1.945   5.436   4.119 -1.1744  1.2893 -0.2828
13075TIP3   OH260715   6.333   1.056  16.427 -0.7807  0.0970  0.4893
13075TIP3    H160716   6.322   0.993  16.497 -0.2875 -1.5112 -0.8204
13075TIP3    H260717   6.269   1.031  16.361 -0.0395  0.4712 -0.3937
13076TIP3   OH260718   5.427   5.764  16.505  0.2922 -0.2502 -0.1858
13076TIP3    H160719   5.401   5.673  16.515  1.1304 -0.8966 -3.0387
13076TIP3    H260720   5.481   5.783  16.581  2.0042 -2.8900 -0.6254
13077TIP3   OH260721   6.106   4.960   1.191  0.0666 -0.5931 -0.1614
13077TIP3    H160722   6.059   4.901   1.250 -2.2013  1.6486  0.4262
13077TIP3    H260723   6.141   5.029   1.247  0.8005 -0.2121 -1.0582
13078TIP3   OH260724   6.244   4.803   1.006  0.1441  0.0456 -0.4304
13078TIP3    H160725   6.241   4.883   1.059 -1.0390  0.9142 -1.7226
13078TIP3    H260726   6.322   4.814   0.951  0.9946 -0.5524  0.6055
13079TIP3   OH260727   6.079   4.110   2.005 -0.5822  0.8823 -0.2719
13079TIP3    H160728   6.001   4.166   2.006 -1.8409 -0.7184 -1.9836
13079TIP3    H260729   6.077   4.068   1.919  0.3496 -1.7134  0.8740
13080TIP3   OH260730   0.537   2.761   6.461  0.1574 -0.3932 -0.2914
13080TIP3    H160731   0.593   2.719   6.395  1.8605 -0.3052  1.0119
13080TIP3    H260732   0.555   2.712   6.542  0.0452  1.0446  0.6431
13081TIP3   OH260733   0.383   0.349  14.062 -0.6049 -0.2725 -0.5823
13081TIP3    H160734   0.459   0.326  14.115 -0.4964  0.4964 -0.3917
13081TIP3    H260735   0.417   0.409  13.995 -1.1117  0.4652 -0.2009
13082TIP3   OH260736   3.868   1.391  14.501 -0.4023 -0.0645  0.5437
13082TIP3    H160737   3.815   1.378  14.423 -0.0418  0.7624  0.1470
13082TIP3    H260738   3.957   1.369  14.473 -0.5581 -1.8540  1.3141
13083TIP3   OH260739   0.697   0.888   0.715  0.1989 -0.2096  0.7815
13083TIP3    H160740   0.743   0.805   0.724  0.1113 -0.8037 -2.6090
13083TIP3    H260741   0.767   0.954   0.706  0.3210 -0.3317  0.8439
13084TIP3   OH260742   6.629   6.423  14.676  0.3788 -0.1470 -0.7756
13084TIP3    H160743   6.539   6.406  14.703  0.0148  0.8918 -1.2955
13084TIP3    H260744   6.671   6.461  14.753 -0.1602  1.1296 -1.0879
13085TIP3   OH260745   0.525   4.251  11.536 -0.1188 -0.2126 -0.0317
13085TIP3    H160746   0.443   4.275  11.578 -0.5281 -0.4192 -0.6969
13085TIP3    H260747   0.585   4.323  11.556 -0.8440  0.5771 -0.6209
13086TIP3   OH260748   2.850   2.479   0.707  0.7924  0.0989  0.0833
13086TIP3    H160749   2.796   2.490   0.785  0.0885 -1.8403 -0.0655
13086TIP3    H260750   2.794   2.508   0.635 -0.2222 -2.0047 -0.0822
13087TIP3   OH260751   5.804   2.171  12.000  0.1104  0.6705  0.3075
13087TIP3    H160752   5.830   2.106  12.065  1.7794 -0.0627 -1.0202
13087TIP3    H260753   5.820   2.255  12.042 -1.8363  0.3068  1.9594
13088TIP3   OH260754   0.673   6.517   0.599  0.0626  0.0573  0.1720
13088TIP3    H160755   0.604   6.475   0.548 -0.7709  0.4134  0.9579
13088TIP3    H260756   0.700   6.592   0.546  0.8237 -0.8569 -0.7617
13089TIP3   OH260757   6.446   3.926  11.479  0.5695  0.2476  1.4595
13089TIP3    H160758   6.520   3.980  11.451  0.1580 -0.2404 -0.7606
13089TIP3    H260759   6.386   3.988  11.520  0.9826  1.1512  0.7433
13090TIP3   OH260760   5.294   3.345  12.341  0.5183 -0.4696  0.4211
13090TIP3    H160761   5.349   3.313  12.269 -0.2844  0.8814 -0.8569
13090TIP3    H260762   5.249   3.422  12.304 -0.1864  0.0535  2.2698
13091TIP3   OH260763   2.239   0.590  17.137 -0.1513 -0.6211  0.1769
13091TIP3    H160764   2.153   0.596  17.096 -0.5786  1.7880  1.2901
13091TIP3    H260765   2.292   0.656  17.093  2.0630 -3.7438 -2.3009
13092TIP3   OH260766   6.555   6.064  17.019 -0.6429 -0.3839  0.3002
13092TIP3    H160767   6.598   5.989  17.061  1.0631  0.1739 -0.4050
13092TIP3    H260768   6.571   6.137  17.078 -0.6237 -0.1682  0.0292
13093TIP3   OH260769   2.288   2.867   1.026  0.1445 -0.5473 -1.0144
13093TIP3    H160770   2.316   2.820   0.947  1.8820  2.0237 -2.0534
13093TIP3    H260771   2.232   2.937   0.994 -2.2682 -1.6484  0.4855
13094TIP3   OH260772   3.635   2.961  15.501 -0.3639 -0.4696 -0.4018
13094TIP3    H160773   3.552   2.981  15.458  0.2504 -0.7028 -1.7568
13094TIP3    H260774   3.629   2.869  15.525 -1.0157 -0.1409  0.7585
13095TIP3   OH260775   1.609   5.756  13.311 -0.4694  0.0897  0.6765
13095TIP3    H160776   1.654   5.672  13.302 -1.1979 -0.1906 -0.4400
13095TIP3    H260777   1.568   5.752  13.398  0.7728 -0.0554  1.2837
13096TIP3   OH260778   0.985   5.960  11.847  0.0777  0.1888  0.3318
13096TIP3    H160779   0.890   5.966  11.860 -0.2605 -3.1410  0.2239
13096TIP3    H260780   0.999   5.997  11.760 -1.5078 -1.2603 -0.6073
13097TIP3   OH260781   1.152   6.583  14.065  0.7454  0.1940 -0.4781
13097TIP3    H160782   1.172   6.499  14.106  0.2844  1.5301  2.7918
13097TIP3    H260783   1.198   6.648  14.118 -1.1551  2.2299 -1.1345
13098TIP3   OH260784   0.383   5.640  13.706  0.2556  0.4118  0.5744
13098TIP3    H160785   0.438   5.616  13.781  0.2606  0.1229  0.4816
13098TIP3    H260786   0.295   5.649  13.743  0.2982  0.4932  0.6552
13099TIP3   OH260787   5.382   0.437  13.222  0.2534  0.6135  0.2216
13099TIP3    H160788   5.323   0.482  13.281  0.5793 -0.2874  1.2725
13099TIP3    H260789   5.382   0.490  13.142 -1.6535  0.8340  0.3283
13100TIP3   OH260790   6.063   0.305   1.587  0.3092  0.2263 -0.4981
13100TIP3    H160791   6.033   0.394   1.607 -1.4688 -0.7229  1.3885
13100TIP3    H260792   6.081   0.307   1.493 -1.1477  2.1910 -0.8004
13101TIP3   OH260793   1.859   2.442   0.108  0.0291 -0.2333 -0.6126
13101TIP3    H160794   1.949   2.449   0.140  0.3608 -0.4084 -1.4829
13101TIP3    H260795   1.805   2.453   0.187  0.7546  1.4470 -0.2960
13102TIP3   OH260796   6.009   6.164   2.592  0.3075 -0.2013 -0.1700
13102TIP3    H160797   5.916   6.185   2.600 -0.1616 -0.7560 -2.9916
13102TIP3    H260798   6.012   6.068   2.601  0.6344 -0.1592  0.1614
13103TIP3   OH260799   1.656   3.431  11.639 -0.3904 -0.0863 -0.1154
13103TIP3    H160800   1.703   3.467  11.714 -1.6956 -0.2754  0.8117
13103TIP3    H260801   1.649   3.338  11.656 -1.6475  0.0259  0.0910
13104TIP3   OH260802   2.674   4.544   0.690  0.5397  0.0672 -0.0500
13104TIP3    H160803   2.645   4.632   0.668  0.6334 -0.1860 -1.2362
13104TIP3    H260804   2.644   4.531   0.780 -2.4603  0.0794 -0.9560
13105TIP3   OH260805   6.761   0.329   3.627 -0.0472  0.0044  0.6100
13105TIP3    H160806   6.773   0.315   3.721  1.4170 -3.1555  0.0762
13105TIP3    H260807   6.726   0.246   3.595  1.0449  0.4134 -1.8518
13106TIP3   OH260808   1.378   5.257  13.991 -0.0773 -0.4902  0.5017
13106TIP3    H160809   1.442   5.323  13.963  0.2675 -1.5150 -1.2156
13106TIP3    H260810   1.331   5.299  14.064  1.1778  1.0445  0.4735
13107TIP3   OH260811   1.470   5.799  15.252  0.2174 -0.2483 -0.5938
13107TIP3    H160812   1.469   5.712  15.212 -2.6220  0.1008 -1.4892
13107TIP3    H260813   1.419   5.788  15.332  0.9013  0.3572 -0.0619
13108TIP3   OH260814   0.242   5.912  16.448 -0.1431 -0.0376  0.4788
13108TIP3    H160815   0.248   5.984  16.510 -1.8592  0.6533 -0.0856
13108TIP3    H260816   0.332   5.892  16.425  0.3835  2.7213 -0.2234
13109TIP3   OH260817   1.261   2.301  13.143  0.0546 -0.2942  0.1006
13109TIP3    H160818   1.316   2.239  13.096  2.0105  0.4933  1.2295
13109TIP3    H260819   1.234   2.365  13.076  0.7795 -0.5293 -0.4279
13110TIP3   OH260820   6.735   1.323  14.461 -0.4405 -0.4500  0.1518
13110TIP3    H160821   6.806   1.358  14.515 -0.1312 -0.6977 -0.0904
13110TIP3    H260822   6.753   1.229  14.455 -0.2263 -0.3564 -0.7427
13111TIP3   OH260823   0.448   3.402   4.741  0.4461 -0.3298  0.0548
13111TIP3    H160824   0.379   3.422   4.678  3.2456  0.4056 -3.0551
13111TIP3    H260825   0.409   3.338   4.800 -3.6791  1.9997  0.2379
13112TIP3   OH260826   2.002   4.494   0.471  0.0966  0.0080  0.2508
13112TIP3    H160827   1.925   4.493   0.414 -0.8799  0.4575  1.5292
13112TIP3    H260828   2.073   4.523   0.414 -1.4600  3.7168 -0.0532
13113TIP3   OH260829   5.567   6.582   0.679 -0.2159  0.2439 -0.1359
13113TIP3    H160830   5.601   6.567   0.590 -1.4875 -0.5694 -0.5031
13113TIP3    H260831   5.495   6.644   0.667  0.6528  1.4414  0.5632
13114TIP3   OH260832   0.724   0.525   2.910 -0.2732 -0.1375  0.2370
13114TIP3    H160833   0.808   0.561   2.881  0.2122 -1.6508 -0.3205
13114TIP3    H260834   0.690   0.591   2.971 -0.3297  2.1676 -2.0831
13115TIP3   OH260835   6.766   2.911   0.574 -0.0683 -0.3963  0.5307
13115TIP3    H160836   6.788   2.861   0.653 -0.0950  1.7734  1.9919
13115TIP3    H260837   6.689   2.962   0.599 -0.1855  0.2156 -0.9740
13116TIP3   OH260838   6.227   0.573  16.501  0.1293 -0.0362 -0.4647
13116TIP3    H160839   6.288   0.516  16.455 -1.8558 -1.1086 -1.9318
13116TIP3    H260840   6.154   0.516  16.524 -1.9596  1.8341 -2.0155
13117TIP3   OH260841   2.032   4.967   1.914 -0.1789 -0.0246 -0.1470
13117TIP3    H160842   2.102   4.908   1.943 -1.1869 -0.7927  0.8093
13117TIP3    H260843   1.971   4.971   1.988 -1.4891  0.0842 -1.1815
13118TIP3   OH260844   5.583   3.988  14.518  0.3919 -0.9243 -0.0430
13118TIP3    H160845   5.524   3.983  14.442  1.6008  0.0351 -1.0753
13118TIP3    H260846   5.550   3.919  14.577 -0.5754 -1.7099 -1.4192
13119TIP3   OH260847   4.121   5.494  16.297 -0.4301 -0.2459  0.3164
13119TIP3    H160848   4.182   5.449  16.355  0.1457  0.2056  0.0650
13119TIP3    H260849   4.048   5.519  16.354 -0.5760 -1.1179  0.5410
13120TIP3   OH260850   1.769   0.232  12.118 -0.6381 -0.1684  0.4696
13120TIP3    H160851   1.730   0.269  12.039 -1.8822 -0.9985  0.6736
13120TIP3    H260852   1.842   0.179  12.085 -1.1633 -0.5329 -0.1407
13121TIP3   OH260853   3.335   4.359   4.578 -0.0607  0.4545  0.3800
13121TIP3    H160854   3.287   4.374   4.660 -2.7547  1.4624 -1.2295
13121TIP3    H260855   3.355   4.446   4.545 -2.5232  0.3201 -1.8280
13122TIP3   OH260856   2.012   2.305  14.850  0.1792  0.5681 -0.3369
13122TIP3    H160857   2.060   2.347  14.922  0.9861 -0.4951 -0.2317
13122TIP3    H260858   1.964   2.377  14.809 -0.8815  1.0866  1.6934
13123TIP3   OH260859   4.713   6.466   5.561  0.3139 -0.0011  0.2318
13123TIP3    H160860   4.688   6.461   5.469 -1.8089  3.2323  0.4577
13123TIP3    H260861   4.809   6.470   5.560  0.3436 -0.3579 -1.8010
13124TIP3   OH260862   3.632   2.072  16.213 -0.0280 -0.4584 -0.5528
13124TIP3    H160863   3.539   2.073  16.190 -0.2538  0.7486  0.2769
13124TIP3    H260864   3.643   1.994  16.267 -0.9786  0.2960  0.8061
13125TIP3   OH260865   3.898   4.634  12.089 -0.0721 -0.4246 -0.3008
13125TIP3    H160866   3.835   4.590  12.147  0.6562  0.7887  1.4754
13125TIP3    H260867   3.950   4.562  12.052 -1.3030 -1.3072 -0.3916
13126TIP3   OH260868   4.030   5.692   0.306  0.5323  0.6608 -0.0022
13126TIP3    H160869   4.008   5.781   0.280  1.4557  0.7696 -0.4433
13126TIP3    H260870   4.030   5.642   0.224 -0.7469  0.0799  0.3382
13127TIP3   OH260871   4.899   3.752  16.097 -0.4678 -0.0181  0.4904
13127TIP3    H160872   4.945   3.832  16.071 -2.2521  0.5729 -1.0879
13127TIP3    H260873   4.861   3.719  16.016 -2.6814 -0.5086  1.6468
13128TIP3   OH260874   3.902   3.815  10.892  0.0139 -0.8215  0.4279
13128TIP3    H160875   3.961   3.752  10.933 -0.0124 -0.9204  0.3174
13128TIP3    H260876   3.850   3.762  10.831 -0.0253 -0.6967  0.3523
13129TIP3   OH260877   4.807   4.844   0.167 -0.6709  0.1866  0.9096
13129TIP3    H160878   4.717   4.877   0.169  0.1357  2.5575  1.3492
13129TIP3    H260879   4.819   4.802   0.252  0.1000  4.4628  3.2013
13130TIP3   OH260880   4.660   2.278  15.997 -0.1192  0.1228 -0.1949
13130TIP3    H160881   4.693   2.266  16.086 -0.7310  0.4991  0.0877
13130TIP3    H260882   4.733   2.317  15.949 -0.3126  1.4556  0.5565
13131TIP3   OH260883   1.616   1.808  16.385 -0.3109 -0.3750  0.8494
13131TIP3    H160884   1.567   1.758  16.451 -1.0144  2.0288  2.2574
13131TIP3    H260885   1.551   1.865  16.344  0.4067 -0.7668 -0.9671
13132TIP3   OH260886   1.038   5.475   6.406  0.1587 -0.2458  0.1908
13132TIP3    H160887   1.095   5.401   6.425 -1.4415 -1.1827  1.7626
13132TIP3    H260888   0.984   5.446   6.332  0.0614 -0.3635  0.3058
13133TIP3   OH260889   6.414   2.221   0.381 -0.6611  0.1927  0.3282
13133TIP3    H160890   6.374   2.308   0.390  2.0314  1.5071  0.6367
13133TIP3    H260891   6.352   2.172   0.327 -1.8735  2.5971 -0.6273
13134TIP3   OH260892   0.851   1.429   3.091  0.4495  0.1087 -0.1796
13134TIP3    H160893   0.886   1.438   3.180 -0.2876  0.9477  0.0381
13134TIP3    H260894   0.871   1.338   3.066  0.8308 -0.0750  0.7645
13135TIP3   OH260895   3.786   4.696   4.239 -0.6111  0.1021  0.0481
13135TIP3    H160896   3.756   4.628   4.178 -0.2196 -1.1410  1.1977
13135TIP3    H260897   3.788   4.776   4.186 -0.9135 -0.8029 -1.3945
13136TIP3   OH260898   0.364   1.096   0.273  0.5791  0.4450 -0.0887
13136TIP3    H160899   0.278   1.134   0.292  0.7994  1.1168 -0.4004
13136TIP3    H260900   0.358   1.069   0.181  0.5968  0.2180 -0.0212
13137TIP3   OH260901   1.607   0.131  15.016  0.4348  0.9197  0.0724
13137TIP3    H160902   1.598   0.038  15.038  1.7391  1.1098  1.6125
13137TIP3    H260903   1.532   0.150  14.959  1.4131 -1.6462 -2.3160
13138TIP3   OH260904   1.611   2.360  14.338  0.9733  0.1138  0.3014
13138TIP3    H160905   1.690   2.310  14.357 -0.8295 -2.5667  1.3500
13138TIP3    H260906   1.587   2.335  14.249 -0.2706 -1.6000  1.0384
13139TIP3   OH260907   0.441   2.283  14.143  0.0472 -0.3717 -0.2157
13139TIP3    H160908   0.536   2.283  14.128 -0.1964 -0.9492 -2.1437
13139TIP3    H260909   0.414   2.373  14.122  0.0855 -0.3790 -0.2975
13140TIP3   OH260910   5.932   1.920   5.264 -0.1117 -0.3922  0.1075
13140TIP3    H160911   5.887   1.890   5.343 -0.7560 -0.6285 -0.3423
13140TIP3    H260912   5.986   1.994   5.294  0.1720 -0.9076  0.8912
13141TIP3   OH260913   3.717   0.759  15.484 -0.0538 -0.6150 -0.0702
13141TIP3    H160914   3.633   0.723  15.510 -0.4050 -0.9799 -1.5983
13141TIP3    H260915   3.745   0.705  15.410  0.5910  0.6811 -0.8193
13142TIP3   OH260916   2.929   2.777  17.069  0.0446 -0.6678 -0.6246
13142TIP3    H160917   2.944   2.682  17.066  1.7836 -0.4327 -0.3538
13142TIP3    H260918   3.016   2.815  17.062 -0.6231  0.9225 -0.6089
13143TIP3   OH260919   5.778   4.293  15.811  0.4155 -0.1543 -0.0888
13143TIP3    H160920   5.736   4.211  15.787  2.2978 -1.0458 -0.5882
13143TIP3    H260921   5.776   4.345  15.730 -0.5953  0.2129  0.1699
13144TIP3   OH260922   6.753   2.541  12.539  0.3268 -0.1275 -0.0426
13144TIP3    H160923   6.757   2.617  12.597  0.6593  0.0342 -0.2759
13144TIP3    H260924   6.676   2.557  12.484  1.1823  0.7208 -1.0201
13145TIP3   OH260925   1.229   5.223  10.455 -0.0035 -0.6276 -0.3187
13145TIP3    H160926   1.269   5.244  10.539 -1.4326 -0.4290  0.3376
13145TIP3    H260927   1.185   5.139  10.468  0.2267 -0.8720 -1.0359
13146TIP3   OH260928   0.516   3.648  12.226 -0.0123  0.1847 -1.1730
13146TIP3    H160929   0.605   3.683  12.224 -0.1550  0.5586 -1.1138
13146TIP3    H260930   0.527   3.554  12.217  0.4773  0.0774  0.3132
13147TIP3   OH260931   2.021   5.796  14.736 -0.2603 -0.1831 -0.2877
13147TIP3    H160932   2.074   5.717  14.749  0.4073  0.3058  0.0038
13147TIP3    H260933   2.034   5.818  14.644 -0.5340 -0.4752 -0.3968
13148TIP3   OH260934   4.993   5.674   6.304  0.0740  0.2945  0.4970
13148TIP3    H160935   4.983   5.662   6.210 -1.2836  0.8210  0.5434
13148TIP3    H260936   5.070   5.730   6.313 -0.9306  1.9365 -0.4681
13149TIP3   OH260937   6.025   0.559  15.264 -0.2398 -0.3556  0.3517
13149TIP3    H160938   6.043   0.466  15.251  3.3057  0.3150 -0.6342
13149TIP3    H260939   6.084   0.585  15.335  1.2253  1.6938 -1.4972
13150TIP3   OH260940   2.594   2.779   0.221  0.2443 -0.1147 -1.1760
13150TIP3    H160941   2.603   2.826   0.304  1.6792 -1.5226 -0.4860
13150TIP3    H260942   2.623   2.842   0.155 -1.2753  1.1569 -0.7142
13151TIP3   OH260943   2.034   1.252   6.079  0.0471 -0.2721 -0.0193
13151TIP3    H160944   2.116   1.213   6.112 -0.2006 -0.6580  0.1470
13151TIP3    H260945   1.975   1.178   6.069 -0.4815  0.0832  0.4381
13152TIP3   OH260946   3.235   2.518   1.614  0.0632 -0.0579  0.2681
13152TIP3    H160947   3.299   2.473   1.558 -1.3611 -1.0872 -0.5948
13152TIP3    H260948   3.239   2.471   1.698  1.4065  0.7855  0.7151
13153TIP3   OH260949   1.608   0.205  14.020  0.5014 -0.0114 -0.5136
13153TIP3    H160950   1.538   0.245  13.969  0.2683  0.1466 -0.0744
13153TIP3    H260951   1.563   0.157  14.089  0.8257  0.1071 -0.2167
13154TIP3   OH260952   4.584   4.519   3.710 -0.0821  0.4463  0.2157
13154TIP3    H160953   4.650   4.452   3.694  0.2755  0.9164 -0.2943
13154TIP3    H260954   4.634   4.597   3.734 -0.4329  0.8853 -0.4512
13155TIP3   OH260955   2.398   5.741   6.241  0.0990  0.1866  0.0423
13155TIP3    H160956   2.378   5.658   6.284 -0.7883 -0.0308 -0.7679
13155TIP3    H260957   2.486   5.763   6.272  0.7995 -1.6003 -0.5379
13156TIP3   OH260958   3.034   6.457   1.406  0.2229  0.0518  0.0841
13156TIP3    H160959   3.113   6.510   1.421  0.2885  0.5723 -1.8245
13156TIP3    H260960   3.067   6.370   1.383  0.2473  0.2022 -0.4658
13157TIP3   OH260961   4.306   3.298  17.073  0.0942 -0.0619  0.1190
13157TIP3    H160962   4.399   3.314  17.085  0.4959 -0.8793 -1.6565
13157TIP3    H260963   4.300   3.205  17.051 -1.3808 -0.5790  2.3157
13158TIP3   OH260964   0.573   2.228  14.618  0.1750  0.4256 -0.0880
13158TIP3    H160965   0.570   2.198  14.527  0.3710 -0.2614  0.1315
13158TIP3    H260966   0.663   2.255  14.631  0.0482  0.9246 -0.2213
13159TIP3   OH260967   4.881   0.847  14.144 -0.1411  0.1085  0.0548
13159TIP3    H160968   4.821   0.912  14.182 -0.0315  0.6144 -0.6041
13159TIP3    H260969   4.949   0.835  14.210  0.0688  1.0018  0.0174
13160TIP3   OH260970   0.568   1.603  13.070 -0.7972  0.0199  0.2919
13160TIP3    H160971   0.562   1.518  13.027  0.9636  0.1269 -0.2363
13160TIP3    H260972   0.621   1.588  13.148  1.1065  0.9238 -0.7634
13161TIP3   OH260973   5.903   1.559   4.111 -0.2821 -0.2647 -0.1852
13161TIP3    H160974   5.836   1.623   4.085 -1.4147 -1.1445  0.4772
13161TIP3    H260975   5.965   1.559   4.039 -0.1685  1.6751 -0.1504
13162TIP3   OH260976   3.850   3.815   6.374  0.1742  0.0143 -0.5498
13162TIP3    H160977   3.835   3.909   6.361 -0.4167 -0.2615 -2.0478
13162TIP3    H260978   3.801   3.794   6.454 -2.2594  0.4017 -1.8489
13163TIP3   OH260979   2.985   3.829   0.684  0.3145  0.0551  0.0002
13163TIP3    H160980   3.079   3.820   0.696  0.1489  0.7272  2.6600
13163TIP3    H260981   2.972   3.921   0.661  0.2656  0.3104  0.9863
13164TIP3   OH260982   6.372   3.420   6.793  0.3666  0.5636 -0.6473
13164TIP3    H160983   6.310   3.395   6.724 -2.1605 -2.1853  2.2737
13164TIP3    H260984   6.410   3.338   6.823  1.4393  1.6370  1.1504
13165TIP3   OH260985   2.968   2.501   4.409  0.1781  0.2303 -0.0780
13165TIP3    H160986   2.983   2.463   4.495 -1.1585 -0.0834  0.0381
13165TIP3    H260987   2.883   2.466   4.381 -0.0582  1.4043 -0.9193
13166TIP3   OH260988   6.128   1.510   3.149  0.0884 -0.2922  0.1992
13166TIP3    H160989   6.153   1.522   3.241 -1.8909 -0.0151  0.7578
13166TIP3    H260990   6.133   1.598   3.111 -1.8584  0.1782  0.8640
13167TIP3   OH260991   2.625   6.673  17.175  0.3156 -0.5126  0.1380
13167TIP3    H160992   2.651   6.732  17.246 -0.8105 -1.3412  1.2932
13167TIP3    H260993   2.533   6.653  17.194 -0.0334 -0.7144 -1.6140
13168TIP3   OH260994   4.641   5.778  16.847 -0.4016 -0.6847  0.2172
13168TIP3    H160995   4.720   5.733  16.816 -0.4069 -0.4758 -0.1088
13168TIP3    H260996   4.614   5.728  16.924  0.0372 -0.7695  0.3229
13169TIP3   OH260997   1.639   4.808  11.624  0.1938  0.0781 -0.2436
13169TIP3    H160998   1.641   4.747  11.697  0.4310  2.0574  1.5096
13169TIP3    H260999   1.554   4.851  11.631  1.4141  2.5151  0.9202
13170TIP3   OH261000   3.266   0.084   3.770 -0.3754  0.1495  0.0425
13170TIP3    H161001   3.240   0.005   3.817  0.5065 -0.3901 -0.3427
13170TIP3    H261002   3.184   0.121   3.738 -0.7476 -1.0653 -0.4732
13171TIP3   OH261003   1.497   1.912   5.763 -0.0332 -0.3218 -0.6417
13171TIP3    H161004   1.576   1.939   5.810  0.1179 -0.0028 -1.0649
13171TIP3    H261005   1.527   1.842   5.705 -0.1550 -0.5027 -0.4876
13172TIP3   OH261006   4.770   5.815  17.297  0.0155 -0.8300  1.0569
13172TIP3    H161007   4.689   5.826  17.348 -0.7359 -0.6502 -0.1325
13172TIP3    H261008   4.770   5.723  17.270  0.3772 -0.9098  1.3235
13173TIP3   OH261009   1.982   6.679   0.445  0.6587 -0.3659 -0.4887
13173TIP3    H161010   1.964   6.771   0.424  0.6913 -0.3332 -0.3754
13173TIP3    H261011   1.983   6.677   0.541 -0.9613 -0.7958 -0.4620
13174TIP3   OH261012   3.314   3.313   1.874 -0.3697 -0.2677  0.5112
13174TIP3    H161013   3.316   3.317   1.778 -2.6175 -0.6639  0.3720
13174TIP3    H261014   3.359   3.392   1.903 -1.8973  1.2254 -0.9589
13175TIP3   OH261015   5.558   5.403   4.510 -0.2610 -0.0128 -0.0008
13175TIP3    H161016   5.590   5.360   4.589  0.2215  1.9138  0.9293
13175TIP3    H261017   5.601   5.489   4.511 -0.6621  0.2575 -2.0914
13176TIP3   OH261018   2.609   0.605   6.225 -0.4376 -0.8676 -0.1935
13176TIP3    H161019   2.558   0.586   6.304 -1.4654  0.3271 -0.5376
13176TIP3    H261020   2.598   0.699   6.212  2.9462 -0.2667  0.4351
13177TIP3   OH261021   5.081   3.641   1.572  0.2260 -0.1357  0.1813
13177TIP3    H161022   5.018   3.712   1.562 -0.9784 -1.2712 -0.5426
13177TIP3    H261023   5.160   3.674   1.529 -0.1223  0.9774  0.3627
13178TIP3   OH261024   4.365   1.898   6.360 -0.1544  0.4198 -0.2644
13178TIP3    H161025   4.418   1.834   6.407 -0.1464 -0.6226 -1.6367
13178TIP3    H261026   4.293   1.918   6.420  1.3294  1.2911  1.3224
13179TIP3   OH261027   6.273   0.609  16.193  0.3467  0.2722 -0.7224
13179TIP3    H161028   6.295   0.591  16.101  0.5879 -0.7357 -0.4819
13179TIP3    H261029   6.308   0.534  16.241  0.9477  1.1838  0.2999
13180TIP3   OH261030   5.483   1.840  13.322  0.3706  0.5283 -0.4134
13180TIP3    H161031   5.575   1.862  13.337  0.7248 -0.0906 -1.5019
13180TIP3    H261032   5.479   1.746  13.335 -0.7116  0.8728  2.2836
13181TIP3   OH261033   2.484   2.506  16.918 -0.1380  0.2205 -0.1492
13181TIP3    H161034   2.513   2.431  16.971 -0.1310 -0.5627 -1.2209
13181TIP3    H261035   2.563   2.532  16.870  0.1801  1.7387  1.1355
13182TIP3   OH261036   0.640   0.056   5.168  0.2338 -0.2136  0.3350
13182TIP3    H161037   0.588  -0.023   5.176  0.6031 -0.5829 -0.7037
13182TIP3    H261038   0.637   0.096   5.254 -0.1938 -1.2095  0.7949
13183TIP3   OH261039   2.607   3.489  17.385 -0.1858  0.3049  0.0703
13183TIP3    H161040   2.590   3.397  17.367 -0.0209  0.3411 -0.2982
13183TIP3    H261041   2.573   3.535  17.308  1.3499  0.3937 -0.6010
13184TIP3   OH261042   4.536   1.499   1.142 -0.0927 -0.1129  0.1136
13184TIP3    H161043   4.555   1.536   1.055  0.5246 -3.0968 -1.1399
13184TIP3    H261044   4.619   1.464   1.172 -0.8612 -1.6204  0.6001
13185TIP3   OH261045   4.855   1.336   6.107 -0.7305  0.2732  0.4916
13185TIP3    H161046   4.865   1.327   6.202 -0.0425 -3.2417  0.2136
13185TIP3    H261047   4.945   1.330   6.073 -0.9961  1.2040 -0.4257
13186TIP3   OH261048   6.474   1.847  13.734 -0.0508  0.3824 -0.3061
13186TIP3    H161049   6.428   1.864  13.817 -0.0044 -0.7396 -0.0411
13186TIP3    H261050   6.543   1.913  13.731  0.8139 -0.4096  1.2170
13187TIP3   OH261051   4.218   2.657   6.044 -0.4495  0.3105 -0.2049
13187TIP3    H161052   4.232   2.751   6.058 -2.5141  0.7265 -0.7202
13187TIP3    H261053   4.183   2.650   5.956  0.2697 -1.0442 -0.4214
13188TIP3   OH261054   5.486   1.986   6.429  0.4822 -0.0965  0.5296
13188TIP3    H161055   5.564   1.966   6.377 -0.3124  1.3742 -1.3415
13188TIP3    H261056   5.500   2.075   6.460 -1.3104  1.0495 -1.6736
13189TIP3   OH261057   4.453   0.904   0.517 -0.1679 -0.7722 -0.4394
13189TIP3    H161058   4.428   0.813   0.533 -3.1575  0.0237  0.0570
13189TIP3    H261059   4.374   0.954   0.535  1.5100  2.0168 -0.2292
13190TIP3   OH261060   4.663   2.649  11.029  0.1774  0.1047 -0.2266
13190TIP3    H161061   4.661   2.620  11.120  1.1482  1.8382  0.3837
13190TIP3    H261062   4.706   2.734  11.031  1.6412 -0.4817 -2.5162
13191TIP3   OH261063   1.938   4.741  15.477 -0.4453 -0.3750 -0.7384
13191TIP3    H161064   1.880   4.817  15.486  0.3331  0.1342  0.2307
13191TIP3    H261065   1.966   4.744  15.385 -0.5538  0.4303 -0.7579
13192TIP3   OH261066   4.900   1.938  14.152 -0.0631  0.2182 -0.2189
13192TIP3    H161067   4.812   1.949  14.187 -1.2352 -0.1479 -2.8078
13192TIP3    H261068   4.890   1.950  14.058  2.1569 -2.4284 -0.9409
13193TIP3   OH261069   4.368   0.901   2.661  0.2748 -1.2179 -0.0122
13193TIP3    H161070   4.399   0.927   2.575  0.9077 -1.7667  0.0421
13193TIP3    H261071   4.310   0.972   2.688  3.2151  1.0077  0.8800
13194TIP3   OH261072   1.414   2.735  14.194 -0.0634  0.0057 -0.4483
13194TIP3    H161073   1.338   2.707  14.244 -0.4254 -0.1239 -1.0547
13194TIP3    H261074   1.378   2.791  14.125  0.2094 -1.1631 -1.5910
13195TIP3   OH261075   2.611   6.741   4.364 -0.1894  0.1380  0.4919
13195TIP3    H161076   2.581   6.771   4.278 -0.3217 -0.9638  0.1288
13195TIP3    H261077   2.587   6.648   4.366 -1.7733  0.5169  2.4056
13196TIP3   OH261078   5.659   1.684   5.596 -0.5573  0.1059  0.1273
13196TIP3    H161079   5.705   1.646   5.521  0.4009 -0.0094  0.7564
13196TIP3    H261080   5.637   1.772   5.569 -0.5198 -0.0512 -0.4165
13197TIP3   OH261081   5.383   0.721  13.100  0.2961  0.8229 -0.0214
13197TIP3    H161082   5.470   0.681  13.100 -0.1742 -0.2964  1.6443
13197TIP3    H261083   5.376   0.763  13.185 -0.4569  1.7315 -0.5131
13198TIP3   OH261084   3.607   2.773   3.575 -0.3399 -0.3874  0.1296
13198TIP3    H161085   3.511   2.768   3.579 -0.3258 -1.7715 -0.7089
13198TIP3    H261086   3.629   2.752   3.485  0.8801 -2.8103  0.9096
13199TIP3   OH261087   4.245   3.157  13.557  0.5015  0.2069  0.0600
13199TIP3    H161088   4.245   3.116  13.643 -0.5756  1.7889  0.8640
13199TIP3    H261089   4.245   3.251  13.575  1.3289  0.5897 -1.6867
13200TIP3   OH261090   0.764   1.648  16.739 -0.1178 -0.1870  0.1990
13200TIP3    H161091   0.735   1.559  16.760  0.4532 -0.0111  1.8599
13200TIP3    H261092   0.798   1.641  16.650  0.0177 -1.6642  0.3350
13201TIP3   OH261093   2.449   2.906  11.315 -0.3901  0.2285  0.0296
13201TIP3    H161094   2.526   2.863  11.351 -0.2591  0.2143 -0.2620
13201TIP3    H261095   2.418   2.846  11.247 -1.8472 -0.7382  1.4880
13202TIP3   OH261096   4.805   5.403   2.878 -0.2831 -0.4184 -0.5668
13202TIP3    H161097   4.731   5.428   2.932  1.9475 -0.2855  2.7105
13202TIP3    H261098   4.799   5.308   2.871  0.1482 -0.6221  1.2861
13203TIP3   OH261099   6.160   0.355  12.324 -0.1639  0.2652 -0.3218
13203TIP3    H161100   6.151   0.354  12.229 -0.4578 -0.1457 -0.2944
13203TIP3    H261101   6.254   0.346  12.339 -0.1339  0.1370 -0.5728
13204TIP3   OH261102   5.131   0.196   4.085 -0.0811  0.2199 -0.1717
13204TIP3    H161103   5.162   0.137   4.016 -0.9144 -0.5032  0.0426
13204TIP3    H261104   5.119   0.140   4.161 -5.4460 -0.5784 -1.1435
13205TIP3   OH261105   4.525   2.985  14.999 -0.2589  0.3617 -0.0996
13205TIP3    H161106   4.616   3.013  14.989  0.4775 -2.2819 -2.1343
13205TIP3    H261107   4.501   2.951  14.913 -2.4997 -0.8205  0.9152
13206TIP3   OH261108   0.423   1.859  16.458  0.0985 -0.1816 -0.2160
13206TIP3    H161109   0.423   1.771  16.495 -2.1682 -0.3105 -0.4015
13206TIP3    H261110   0.447   1.846  16.366  1.0641 -0.4207  0.0570
13207TIP3   OH261111   2.544   1.797  17.030 -0.1468  0.3605 -0.0229
13207TIP3    H161112   2.515   1.708  17.012 -0.8164  0.1651  1.8228
13207TIP3    H261113   2.578   1.793  17.119  0.3226  1.8421 -0.1099
13208TIP3   OH261114   1.931   5.815  11.888 -0.5393 -0.1971  0.0374
13208TIP3    H161115   1.881   5.734  11.898 -1.1146  0.2226  0.6037
13208TIP3    H261116   1.967   5.832  11.976 -1.6333  0.9375  0.2914
13209TIP3   OH261117   0.225   5.964   5.299 -0.1181 -0.5490  0.6968
13209TIP3    H161118   0.304   5.911   5.299  0.5812  0.4578 -0.2299
13209TIP3    H261119   0.242   6.034   5.362 -0.2767 -0.3335  0.5038
13210TIP3   OH261120   2.039   4.857  11.839 -0.2743 -0.2954 -0.6334
13210TIP3    H161121   2.126   4.816  11.835 -0.0340  0.3065 -2.0883
13210TIP3    H261122   2.051   4.932  11.898 -0.1500 -0.9716  0.2211
13211TIP3   OH261123   6.299   6.122   0.566  0.0285 -0.6559 -0.4457
13211TIP3    H161124   6.285   6.039   0.520  0.7750 -0.7778 -0.4816
13211TIP3    H261125   6.393   6.140   0.553 -0.4176  1.0221 -1.8496
13212TIP3   OH261126   3.654   3.033   4.306  0.0138  0.6903  0.2744
13212TIP3    H161127   3.706   3.103   4.267  0.5455  1.1515  1.7520
13212TIP3    H261128   3.615   3.072   4.384  0.4872 -0.6780  1.2561
13213TIP3   OH261129   0.199   3.858  15.165  0.2863 -0.2352  0.5102
13213TIP3    H161130   0.209   3.882  15.257  0.1586  4.2028 -0.3953
13213TIP3    H261131   0.105   3.870  15.147  0.2757 -1.2477 -0.2024
13214TIP3   OH261132   0.986   3.376   3.404  0.3723  0.0583  0.6040
13214TIP3    H161133   0.980   3.342   3.493 -1.4490  0.2349  0.5713
13214TIP3    H261134   1.025   3.463   3.415  1.5827 -0.5140  1.0477
13215TIP3   OH261135   5.406   4.008  14.299  0.0939 -0.1402  0.0132
13215TIP3    H161136   5.378   4.030  14.210 -1.1915  0.3213  0.5108
13215TIP3    H261137   5.357   3.929  14.321  1.0746 -0.7737  0.0062
13216TIP3   OH261138   4.891   6.378   5.107 -0.2673  0.1928 -0.1618
13216TIP3    H161139   4.914   6.456   5.055 -1.7095 -0.7041 -2.2901
13216TIP3    H261140   4.812   6.345   5.066 -2.4892  0.2454  3.6174
13217TIP3   OH261141   3.932   5.697  13.475  0.2212  0.2892  0.0365
13217TIP3    H161142   3.918   5.683  13.381  0.5593 -0.0336  0.0318
13217TIP3    H261143   3.953   5.790  13.483  0.2576  0.3032 -0.2201
13218TIP3   OH261144   0.693   3.056   0.757  0.2615 -0.1088  0.2262
13218TIP3    H161145   0.740   3.101   0.687  0.2243  0.3073  0.4643
13218TIP3    H261146   0.644   2.987   0.713  1.9476 -1.2691  0.0834
13219TIP3   OH261147   6.166   4.821   3.847  0.7791 -0.5540  0.1932
13219TIP3    H161148   6.172   4.884   3.775  1.0046 -0.3971  0.3456
13219TIP3    H261149   6.229   4.753   3.825  1.9735  0.2673  0.9885
13220TIP3   OH261150   4.448   2.966   3.591 -0.3049  0.0617  0.1252
13220TIP3    H161151   4.439   2.971   3.686  1.6714 -2.5067  0.5675
13220TIP3    H261152   4.538   2.996   3.574 -0.2309 -0.6136 -0.7759
13221TIP3   OH261153   0.831   4.333  17.393  0.1897 -0.2363 -0.2955
13221TIP3    H161154   0.869   4.258  17.440  0.2236  0.2355  0.4450
13221TIP3    H261155   0.828   4.305  17.301  0.3289 -1.0904 -0.0456
13222TIP3   OH261156   1.939   1.459   2.003  0.5669 -0.8984  0.2340
13222TIP3    H161157   1.972   1.545   1.975  0.5851 -0.7237  0.7896
13222TIP3    H261158   1.897   1.423   1.924 -1.5760  0.6487  0.5771
13223TIP3   OH261159   6.207   2.729  14.506 -0.5260  0.8167  0.5833
13223TIP3    H161160   6.116   2.744  14.534 -0.6045  0.5467  0.4849
13223TIP3    H261161   6.206   2.639  14.473 -0.0353  0.5340  1.3303
13224TIP3   OH261162   2.792   3.119  11.613  0.3611 -0.4887 -0.2007
13224TIP3    H161163   2.848   3.061  11.561 -0.9522 -2.1843  0.1741
13224TIP3    H261164   2.849   3.149  11.685  1.1078 -1.2384 -0.4589
13225TIP3   OH261165   1.306   6.401  16.628 -0.0831  0.3220 -0.2235
13225TIP3    H161166   1.286   6.307  16.621 -0.8091  0.4042  0.6623
13225TIP3    H261167   1.353   6.421  16.547  0.8356 -0.9985 -0.0583
13226TIP3   OH261168   1.330   2.434  14.350  0.0660  0.4075  0.5800
13226TIP3    H161169   1.423   2.418  14.365  0.0726 -0.0788  0.0476
13226TIP3    H261170   1.286   2.359  14.391  0.0587 -0.6982 -1.3222
13227TIP3   OH261171   1.180   1.822  13.404  0.4429  0.0832  0.2958
13227TIP3    H161172   1.218   1.815  13.491  2.7369  0.5253 -0.6025
13227TIP3    H261173   1.222   1.898  13.364  0.3101 -0.7437 -1.5704
13228TIP3   OH261174   0.389   4.316   3.955  0.3970 -0.1299 -0.1297
13228TIP3    H161175   0.326   4.318   4.028 -0.2561  0.1595 -0.6883
13228TIP3    H261176   0.417   4.407   3.946  1.3733 -0.3517  0.5074
13229TIP3   OH261177   3.330   2.789  14.079  0.1463 -0.4504 -0.7986
13229TIP3    H161178   3.377   2.779  14.162  0.9305  1.5540 -0.9381
13229TIP3    H261179   3.365   2.719  14.024  1.6701 -0.1155 -0.3128
13230TIP3   OH261180   2.748   2.338  12.580  0.0171  0.0268 -0.6147
13230TIP3    H161181   2.721   2.385  12.501 -0.6074  0.0158 -0.4111
13230TIP3    H261182   2.690   2.370  12.649  0.0636 -0.5036 -0.3174
13231TIP3   OH261183   3.131   5.532   1.024 -0.2620  0.3270  0.4088
13231TIP3    H161184   3.048   5.493   1.053 -0.5775 -0.3486 -1.2722
13231TIP3    H261185   3.172   5.463   0.972  0.3543  1.3917 -0.5447
13232TIP3   OH261186   1.346   5.834  16.116  0.0056  0.0903 -0.3836
13232TIP3    H161187   1.406   5.765  16.144  0.8126  0.6228 -0.7575
13232TIP3    H261188   1.333   5.818  16.023 -1.9785 -1.1567  0.0547
13233TIP3   OH261189   0.108   2.737   0.876 -0.4494  0.6208 -0.0998
13233TIP3    H161190   0.051   2.675   0.831 -1.4183  2.2635 -1.2387
13233TIP3    H261191   0.049   2.788   0.932  0.2492  0.8892  0.4116
13234TIP3   OH261192   3.269   2.683  12.924  0.9141 -0.1289 -0.4956
13234TIP3    H161193   3.210   2.758  12.911  0.0194 -0.9152 -1.0421
13234TIP3    H261194   3.348   2.722  12.963  0.6672  1.1696 -1.2381
13235TIP3   OH261195   1.834   3.883  13.461 -0.6505 -0.2834  0.0142
13235TIP3    H161196   1.758   3.937  13.481 -0.5135 -0.4081  0.8751
13235TIP3    H261197   1.905   3.946  13.446 -0.6700 -0.2054  0.2607
13236TIP3   OH261198   2.950   4.868  12.895  0.0937  0.0474  0.1427
13236TIP3    H161199   2.938   4.781  12.857  0.2828 -0.2255  0.7040
13236TIP3    H261200   2.928   4.857  12.987 -1.2541  0.9073 -0.0558
13237TIP3   OH261201   2.171   4.242   6.680  0.2130 -0.6884 -0.1906
13237TIP3    H161202   2.152   4.220   6.771  1.0846 -0.9629 -0.0667
13237TIP3    H261203   2.210   4.163   6.643  0.0218 -0.5253 -0.7550
13238TIP3   OH261204   0.159   2.337  11.646  0.1406 -0.1665  0.2095
13238TIP3    H161205   0.160   2.346  11.742 -1.8223  1.2196  0.1576
13238TIP3    H261206   0.126   2.421  11.615  0.1248 -0.8296 -1.6722
13239TIP3   OH261207   2.266   2.136   3.725  0.2179  0.4007  0.4789
13239TIP3    H161208   2.230   2.058   3.766 -2.7125  1.6494  0.5613
13239TIP3    H261209   2.244   2.207   3.786  1.2456  1.5235 -0.4008
13240TIP3   OH261210   1.904   0.332  15.375 -0.1463  0.1200  0.0426
13240TIP3    H161211   1.847   0.270  15.329  1.9183 -1.2934 -0.7694
13240TIP3    H261212   1.982   0.281  15.396  0.8624  1.9946  1.0430
13241TIP3   OH261213   2.579   4.522  12.962 -0.2212 -0.5220 -0.1672
13241TIP3    H161214   2.525   4.468  12.904  0.3867 -0.8572 -0.4378
13241TIP3    H261215   2.664   4.478  12.962 -1.0130 -2.4847  3.5776
13242TIP3   OH261216   2.543   4.868   1.696  0.0648 -0.7626 -0.4628
13242TIP3    H161217   2.602   4.796   1.718 -0.5947 -0.8500  1.1403
13242TIP3    H261218   2.459   4.842   1.734  0.2914  1.7441  2.1199
13243TIP3   OH261219   1.220   0.987  11.181  0.4639 -0.2384 -0.5329
13243TIP3    H161220   1.125   0.987  11.180  0.4518  0.8854 -1.2268
13243TIP3    H261221   1.244   1.079  11.195  1.4502 -0.6181  0.5314
13244TIP3   OH261222   0.090   2.073  11.618 -0.1530  0.0355  0.1944
13244TIP3    H161223   0.106   2.167  11.634 -0.0973 -0.2331  1.8936
13244TIP3    H261224   0.123   2.030  11.697 -0.9254 -1.3527 -0.2235
13245TIP3   OH261225   0.387   6.217   5.113  0.4584 -0.1661 -0.3115
13245TIP3    H161226   0.417   6.177   5.194 -0.0936 -0.9519 -0.4882
13245TIP3    H261227   0.399   6.149   5.046  0.2358  0.2279 -0.7611
13246TIP3   OH261228   5.287   0.843   2.096  0.6592  0.5984  0.6221
13246TIP3    H161229   5.351   0.824   2.164 -0.8484 -0.7728  1.7258
13246TIP3    H261230   5.236   0.763   2.088  1.4419  0.2854 -2.9376
13247TIP3   OH261231   6.767   2.839  17.384 -0.2785 -0.1410  0.0132
13247TIP3    H161232   6.797   2.790  17.308  0.4196 -0.7688  0.6771
13247TIP3    H261233   6.701   2.783  17.424  1.0110 -0.9013  1.1643
13248TIP3   OH261234   5.124   4.749   2.848  0.1378  0.5017  0.2343
13248TIP3    H161235   5.179   4.700   2.909 -0.1705 -0.9136 -0.5601
13248TIP3    H261236   5.174   4.750   2.766 -0.2124  0.8265  0.0234
13249TIP3   OH261237   5.962   6.210  14.647  0.1396  0.6967 -0.6709
13249TIP3    H161238   5.943   6.278  14.712  2.3594  1.3475 -0.6334
13249TIP3    H261239   5.987   6.133  14.699  1.2491  1.0133 -0.7011
13250TIP3   OH261240   0.840   4.139   3.940 -0.2771  0.4475  0.1492
13250TIP3    H161241   0.867   4.231   3.945 -0.1618  0.3558  2.2288
13250TIP3    H261242   0.787   4.126   4.019  0.4075 -1.4878  0.3392
13251TIP3   OH261243   6.602   0.520   5.840  0.0196 -0.4863 -0.3709
13251TIP3    H161244   6.602   0.475   5.924 -0.8692  0.6003  0.2323
13251TIP3    H261245   6.674   0.583   5.846 -0.3571 -0.0674 -0.2330
13252TIP3   OH261246   4.016   1.261  12.826 -0.2930 -0.1339 -0.0537
13252TIP3    H161247   3.922   1.256  12.839 -0.0901 -0.6267  1.4418
13252TIP3    H261248   4.039   1.350  12.854 -0.3239  0.0193 -0.5120
13253TIP3   OH261249   3.259   4.661   0.636  0.0782 -0.3970 -0.1810
13253TIP3    H161250   3.257   4.624   0.724 -1.2332 -1.3384 -0.5848
13253TIP3    H261251   3.244   4.587   0.578  1.3065  0.1426 -1.2448
13254TIP3   OH261252   6.342   2.008  13.973 -0.1250 -0.0323  0.1057
13254TIP3    H161253   6.324   2.090  14.019 -0.5194 -0.4034  0.6258
13254TIP3    H261254   6.308   2.023  13.884 -2.4382 -0.4409  0.8465
13255TIP3   OH261255   2.317   0.077   2.173 -0.1870  0.9455  0.8302
13255TIP3    H161256   2.243   0.018   2.190  0.6827 -0.1164  1.0450
13255TIP3    H261257   2.305   0.149   2.235 -1.0487  0.7824  0.8581
13256TIP3   OH261258   4.978   0.546  11.926 -0.3762  0.1744 -0.4631
13256TIP3    H161259   4.988   0.622  11.869 -1.5791 -1.5562 -3.1327
13256TIP3    H261260   5.028   0.570  12.005 -0.3393  3.5031 -1.3202
13257TIP3   OH261261   4.987   3.845   4.935  0.2842 -0.1929 -0.2244
13257TIP3    H161262   5.071   3.817   4.972 -0.2824 -0.8539  0.5985
13257TIP3    H261263   4.967   3.927   4.980 -0.6482 -1.2442  1.4021
13258TIP3   OH261264   6.499   4.304  15.560  0.2482 -0.7077  0.3884
13258TIP3    H161265   6.452   4.349  15.490 -0.7336 -1.9024  0.2601
13258TIP3    H261266   6.486   4.360  15.637 -0.0639 -0.2452  0.0065
13259TIP3   OH261267   1.058   0.658   6.738 -0.4859 -1.0534  0.3650
13259TIP3    H161268   1.040   0.622   6.825  0.6999  0.5506  1.3243
13259TIP3    H261269   1.141   0.618   6.713  0.2072  0.0304  0.8894
13260TIP3   OH261270   5.641   3.282  12.841 -0.5616  0.5371 -0.2323
13260TIP3    H161271   5.638   3.370  12.878 -2.0533  0.4290 -0.0284
13260TIP3    H261272   5.639   3.296  12.746  0.1032  0.7333 -0.2231
13261TIP3   OH261273   5.304   0.994   5.191  0.3746 -0.2029  0.0047
13261TIP3    H161274   5.352   1.068   5.229 -0.6790  0.6597 -0.2855
13261TIP3    H261275   5.360   0.918   5.207  0.2814  0.1964  2.7223
13262TIP3   OH261276   4.978   5.837   5.670 -0.1316 -0.0631  0.4004
13262TIP3    H161277   4.954   5.860   5.760  0.8904  0.1427  0.6348
13262TIP3    H261278   5.070   5.860   5.664 -0.1352 -0.2944 -0.6387
13263TIP3   OH261279   4.623   1.516  17.180  0.0185 -0.0473  0.0490
13263TIP3    H161280   4.549   1.495  17.122 -0.6978 -0.3801  1.0533
13263TIP3    H261281   4.700   1.513  17.123 -0.6802 -0.1963 -0.9158
13264TIP3   OH261282   0.801   2.364  14.957 -0.2948  0.5396 -0.4576
13264TIP3    H161283   0.783   2.348  15.050  3.6296  2.9501  0.9723
13264TIP3    H261284   0.741   2.433  14.932 -1.3067 -0.0417  0.3072
13265TIP3   OH261285   6.580   4.132   3.561  0.0587  0.3689  0.7306
13265TIP3    H161286   6.508   4.069   3.563 -1.5206  2.0686  2.0690
13265TIP3    H261287   6.623   4.122   3.646 -1.3417  2.1947  1.7400
13266TIP3   OH261288   6.249   4.904  15.643 -0.5633  0.4783  0.4213
13266TIP3    H161289   6.238   4.817  15.681  2.8365 -0.2387  0.0519
13266TIP3    H261290   6.304   4.951  15.706  2.4741  0.3368 -1.9023
13267TIP3   OH261291   4.187   0.584   6.027  0.0842 -0.2069 -0.0139
13267TIP3    H161292   4.231   0.644   5.967  1.3581 -1.3020 -0.2348
13267TIP3    H261293   4.229   0.600   6.112  0.6465 -0.9669 -0.1371
13268TIP3   OH261294   3.961   1.951  16.003  0.7860  0.1661 -0.2291
13268TIP3    H161295   3.975   2.039  15.970 -0.1398  0.1041 -0.8096
13268TIP3    H261296   3.964   1.895  15.926  3.1865 -0.5699  0.3241
13269TIP3   OH261297   2.447   0.490  13.833 -0.5371 -0.2253 -0.0349
13269TIP3    H161298   2.515   0.427  13.808 -1.1592 -1.3600  1.0553
13269TIP3    H261299   2.416   0.524  13.749 -1.3920 -2.6714 -0.8023
13270TIP3   OH261300   1.221   2.853   4.243  0.5739 -0.2055 -0.1723
13270TIP3    H161301   1.211   2.948   4.245 -0.1832 -0.2764  0.4838
13270TIP3    H261302   1.304   2.836   4.286  0.7377  0.1670 -0.3439
13271TIP3   OH261303   5.193   5.967  13.308 -0.3902  0.0666  0.1101
13271TIP3    H161304   5.202   5.933  13.397 -0.2286 -0.0130  0.0642
13271TIP3    H261305   5.254   6.041  13.305 -1.6209  1.1540  0.5923
13272TIP3   OH261306   0.912   5.260  12.874 -0.1245 -0.1247 -0.2391
13272TIP3    H161307   0.947   5.287  12.959  1.0690  1.8822 -1.2828
13272TIP3    H261308   0.980   5.204  12.837 -0.6984 -1.1012  0.1327
13273TIP3   OH261309   3.135   4.311  12.985  0.9689  0.7183  0.3683
13273TIP3    H161310   3.196   4.242  13.011  0.2746  0.3255  0.9921
13273TIP3    H261311   3.140   4.313  12.890  0.3998 -0.7732  0.2810
13274TIP3   OH261312   1.934   0.046   0.081 -0.6654  0.1713 -0.1422
13274TIP3    H161313   1.937   0.111   0.011  2.5167 -1.0420 -1.3243
13274TIP3    H261314   1.926  -0.038   0.036 -3.3060 -0.4587  1.2797
13275TIP3   OH261315   0.395   2.950  12.370 -0.7142  0.3211  0.1072
13275TIP3    H161316   0.378   2.918  12.281 -1.1909  0.9136 -0.0202
13275TIP3    H261317   0.311   2.985  12.400 -0.2896  1.1534  0.3668
13276TIP3   OH261318   1.445   0.588  16.311 -0.0511 -0.0539  0.2030
13276TIP3    H161319   1.522   0.562  16.259 -0.9937 -1.3672 -0.6102
13276TIP3    H261320   1.440   0.683  16.300  0.9198 -0.0622 -0.4797
13277TIP3   OH261321   4.281   1.364  17.134 -0.1394 -0.4821 -0.1282
13277TIP3    H161322   4.359   1.308  17.133 -0.7763 -1.4061  0.2378
13277TIP3    H261323   4.265   1.381  17.227 -0.5023 -0.4782 -0.1916
13278TIP3   OH261324   4.476   0.727  11.729 -0.0099  0.4120  0.6845
13278TIP3    H161325   4.506   0.817  11.742  1.2269 -0.2381  2.7915
13278TIP3    H261326   4.543   0.673  11.772 -1.8264 -1.3952  1.3820
13279TIP3   OH261327   0.495   5.864   5.809 -0.2949  0.2477  0.1261
13279TIP3    H161328   0.516   5.772   5.792 -1.2061 -0.1083  0.8184
13279TIP3    H261329   0.573   5.899   5.853 -0.1077 -0.3056  0.2389
13280TIP3   OH261330   2.741   2.155  16.934  0.0386 -0.1277 -0.1629
13280TIP3    H161331   2.762   2.071  16.892  1.0863  0.7203 -1.4123
13280TIP3    H261332   2.826   2.189  16.961 -0.5611 -0.4978  2.4981
13281TIP3   OH261333   0.096   4.301  14.799 -0.1878  0.2677  0.3283
13281TIP3    H161334   0.078   4.390  14.830 -0.8166  0.3230 -0.1749
13281TIP3    H261335   0.020   4.278  14.746 -0.0092 -0.5589  0.4138
13282TIP3   OH261336   0.588   2.129   5.027  0.0541  0.2530  0.3844
13282TIP3    H161337   0.615   2.176   4.948 -1.5573  0.4314 -0.1010
13282TIP3    H261338   0.619   2.184   5.099  1.3565  0.1917 -0.1055
13283TIP3   OH261339   3.485   4.326  15.255  0.6479 -0.7077 -0.1199
13283TIP3    H161340   3.437   4.290  15.330 -0.0364 -0.0605 -0.2355
13283TIP3    H261341   3.565   4.274  15.251  0.1245 -1.5700  0.3004
13284TIP3   OH261342   5.274   5.995  16.467  0.0719 -0.4619 -0.6768
13284TIP3    H161343   5.320   5.926  16.515 -3.0720 -2.1042  0.2746
13284TIP3    H261344   5.245   5.953  16.386  0.0549  0.4522 -1.1606
13285TIP3   OH261345   5.288   4.791  16.145  0.4719 -0.0876 -0.4742
13285TIP3    H161346   5.225   4.747  16.089  0.0498  0.7775 -0.6998
13285TIP3    H261347   5.300   4.877  16.105  1.4679 -0.0787 -0.1931
13286TIP3   OH261348   0.302   6.022  17.439  0.1137 -0.4883 -0.6395
13286TIP3    H161349   0.370   6.086  17.420 -0.5483  0.1055 -1.0625
13286TIP3    H261350   0.338   5.969  17.510  0.2159  1.0941  0.5476
13287TIP3   OH261351   3.918   2.212  11.849 -0.1534 -0.0160 -0.4837
13287TIP3    H161352   3.951   2.300  11.869 -0.9271  0.3114 -0.6308
13287TIP3    H261353   3.898   2.174  11.935 -1.5235  0.6312 -0.4917
13288TIP3   OH261354   5.773   4.383   4.528  0.0692  0.0273  0.3179
13288TIP3    H161355   5.770   4.327   4.605 -0.4807 -2.0269 -1.1183
13288TIP3    H261356   5.865   4.403   4.516  0.2063 -0.0106  1.2205
13289TIP3   OH261357   0.998   6.767  13.155 -0.2356 -0.3838  0.4081
13289TIP3    H161358   0.997   6.795  13.246 -0.6589  0.0602  0.2679
13289TIP3    H261359   1.079   6.804  13.119  0.4567 -1.4228  0.8660
13290TIP3   OH261360   6.118   2.590  12.086 -0.0858  1.0856 -0.6785
13290TIP3    H161361   6.095   2.651  12.016 -1.1058 -0.1086 -1.4307
13290TIP3    H261362   6.071   2.623  12.163  0.4160  1.9635 -0.7337
13291TIP3   OH261363   6.248   1.088   4.063 -0.0235  0.3286  0.0816
13291TIP3    H161364   6.326   1.121   4.018 -0.0896  0.9422  0.4073
13291TIP3    H261365   6.175   1.131   4.019 -0.2149 -0.5480 -0.4837
13292TIP3   OH261366   5.541   2.090  13.511  0.2767  0.2127 -0.2919
13292TIP3    H161367   5.447   2.075  13.498  0.5770 -1.0341 -1.2785
13292TIP3    H261368   5.564   2.155  13.444 -0.0744  1.3684  0.6808
13293TIP3   OH261369   5.390   6.641   6.507 -0.9457 -0.3883 -0.0185
13293TIP3    H161370   5.427   6.620   6.593 -1.7780  2.4790  1.1445
13293TIP3    H261371   5.466   6.643   6.449 -0.3348 -2.1167  0.6616
13294TIP3   OH261372   0.399   5.169  12.634 -0.1293 -0.7669  0.3750
13294TIP3    H161373   0.339   5.204  12.568 -0.5403  1.5790  1.8581
13294TIP3    H261374   0.480   5.153  12.586 -0.4372  0.7865 -0.7674
13295TIP3   OH261375   5.848   3.086   1.654 -0.1996  0.4392 -0.1146
13295TIP3    H161376   5.926   3.032   1.661  0.6315  1.3891 -1.5345
13295TIP3    H261377   5.813   3.090   1.743  0.3057 -1.5228  0.2125
13296TIP3   OH261378   5.466   2.441  13.385  0.5477 -0.1521  0.0021
13296TIP3    H161379   5.537   2.497  13.414  1.4269 -1.3451  0.2175
13296TIP3    H261380   5.494   2.408  13.300  0.1014 -0.3702 -0.0655
13297TIP3   OH261381   4.868   4.058  16.159  0.4956  0.1363  0.1395
13297TIP3    H161382   4.876   4.142  16.204  0.2806  0.3107 -0.1419
13297TIP3    H261383   4.820   4.002  16.220  1.3823 -0.0509  0.6865
13298TIP3   OH261384   4.771   3.688   6.152 -0.4748  0.1315  0.6647
13298TIP3    H161385   4.750   3.610   6.204  1.1057 -0.9367 -0.2349
13298TIP3    H261386   4.738   3.761   6.205 -0.7476 -1.0471  2.1893
13299TIP3   OH261387   4.108   6.470  16.275  0.2382 -0.0046  0.8872
13299TIP3    H161388   4.044   6.419  16.224 -0.0384  1.5596 -0.3929
13299TIP3    H261389   4.077   6.462  16.365 -0.3609 -1.2736  0.5954
13300TIP3   OH261390   4.199   3.804   5.651 -0.4466  0.0313  1.1379
13300TIP3    H161391   4.264   3.774   5.714 -3.1047 -1.4272  3.4030
13300TIP3    H261392   4.242   3.796   5.566  2.2017 -1.1100  2.4814
13301TIP3   OH261393   2.971   2.692  12.778 -0.0763  0.2138  0.3008
13301TIP3    H161394   2.883   2.708  12.743  0.2078 -1.3914 -1.2961
13301TIP3    H261395   3.030   2.711  12.705  0.9676  1.4922  1.4217
13302TIP3   OH261396   3.021   4.490   5.213 -0.2073 -0.2420  0.3117
13302TIP3    H161397   3.101   4.533   5.182 -0.7131  0.6341  0.1886
13302TIP3    H261398   2.954   4.515   5.149 -0.3566 -1.8988 -0.2382
13303TIP3   OH261399   0.541   2.239  12.678  0.2234 -0.3406  0.9811
13303TIP3    H161400   0.483   2.292  12.732 -1.6569  0.4823 -1.6809
13303TIP3    H261401   0.540   2.152  12.719 -1.3919  0.1585  2.0723
13304TIP3   OH261402   3.583   3.214   4.512 -0.0317  0.0265 -0.3284
13304TIP3    H161403   3.507   3.272   4.518  0.0174  1.2946 -6.1384
13304TIP3    H261404   3.656   3.266   4.544 -0.8686  0.6832  0.5793
13305TIP3   OH261405   2.204   2.647   0.369 -0.1451  0.2245  0.2878
13305TIP3    H161406   2.127   2.703   0.378 -0.8545 -0.9887  2.6192
13305TIP3    H261407   2.255   2.664   0.448  0.8355 -0.6721 -0.1333
13306TIP3   OH261408   2.500   5.910  13.981 -0.2721  0.7863 -0.4377
13306TIP3    H161409   2.408   5.899  14.007  0.2413 -0.9450  0.8156
13306TIP3    H261410   2.534   5.974  14.044 -0.5278  1.1819 -0.6953
13307TIP3   OH261411   3.517   3.033   1.173 -0.2697 -0.3803 -0.1787
13307TIP3    H161412   3.522   3.089   1.251  0.0979 -1.3764  0.5249
13307TIP3    H261413   3.516   3.095   1.100  1.0690  0.5514  0.5437
13308TIP3   OH261414   2.916   1.624  17.342  0.8656 -0.6942  0.3326
13308TIP3    H161415   2.894   1.620  17.435  0.5265 -2.9449  0.2111
13308TIP3    H261416   2.993   1.681  17.338 -0.1813  0.9087  1.7323
13309TIP3   OH261417   3.988   4.680   5.887  0.0687  0.0944  0.3600
13309TIP3    H161418   4.044   4.631   5.825  1.7130 -0.9334  2.5274
13309TIP3    H261419   4.008   4.641   5.972 -3.6865  0.0002  1.3563
13310TIP3   OH261420   1.661   0.805  11.925  0.9487  0.3172 -0.3920
13310TIP3    H161421   1.657   0.732  11.987 -0.4027 -0.5530 -1.4502
13310TIP3    H261422   1.624   0.879  11.973  0.0235 -0.3163 -0.0869
13311TIP3   OH261423   3.231   3.567   2.217  0.1270  0.0847  0.2722
13311TIP3    H161424   3.164   3.627   2.186  0.0244 -0.3875 -0.4445
13311TIP3    H261425   3.301   3.573   2.152 -0.4660 -1.5804 -0.6023
13312TIP3   OH261426   1.207   6.480  13.165  0.0336 -0.0199  0.0107
13312TIP3    H161427   1.175   6.428  13.091  1.3397 -1.9584  0.7381
13312TIP3    H261428   1.292   6.513  13.137 -0.3142  0.8799 -0.0358
13313TIP3   OH261429   2.447   2.670  14.022 -0.1610  0.3733  0.4330
13313TIP3    H161430   2.393   2.731  13.972 -1.3632 -1.6752 -0.9201
13313TIP3    H261431   2.436   2.697  14.113  0.3740  2.9057 -0.1845
13314TIP3   OH261432   5.225   2.853   6.104  0.1701  0.4256  0.3688
13314TIP3    H161433   5.152   2.894   6.150  0.0863  0.7571 -0.0558
13314TIP3    H261434   5.284   2.823   6.174 -1.3285 -1.7091  0.8227
13315TIP3   OH261435   0.096   5.294  12.041 -0.6321 -0.2470 -0.1000
13315TIP3    H161436   0.157   5.227  12.071 -1.5587 -1.3325 -0.5925
13315TIP3    H261437   0.075   5.345  12.119  2.0623  1.1542 -0.1645
13316TIP3   OH261438   4.775   0.095  17.423 -0.1239 -0.7266  0.6633
13316TIP3    H161439   4.838   0.058  17.361  0.3269 -0.5237  1.0026
13316TIP3    H261440   4.692   0.098  17.373  0.2562 -0.4559  0.0324
13317TIP3   OH261441   3.064   2.100  14.419 -0.0432 -0.0711  0.3599
13317TIP3    H161442   3.116   2.032  14.375  1.7847  0.9070  0.9128
13317TIP3    H261443   3.041   2.161  14.349 -1.8872 -1.2925 -0.1840
13318TIP3   OH261444   0.911   5.492  13.708 -0.0911 -0.1415  0.5675
13318TIP3    H161445   0.993   5.541  13.703  0.2620 -0.8176 -0.5434
13318TIP3    H261446   0.918   5.443  13.790  1.7883 -2.1554 -0.7121
13319TIP3   OH261447   2.526   3.885   5.949  0.2445 -0.0354 -0.0929
13319TIP3    H161448   2.580   3.888   6.028 -0.0594 -2.4337  0.2906
13319TIP3    H261449   2.459   3.952   5.963  1.1700  0.7278  0.8927
13320TIP3   OH261450   5.729   4.121  12.026  0.4503  0.6912 -0.0986
13320TIP3    H161451   5.781   4.059  11.974 -2.8855 -1.9675 -0.6085
13320TIP3    H261452   5.759   4.108  12.116 -1.3525 -3.3682  0.1382
13321TIP3   OH261453   3.404   5.800   4.574 -0.6191  0.2459  0.6528
13321TIP3    H161454   3.358   5.843   4.502  1.2811  2.4586  0.6286
13321TIP3    H261455   3.356   5.826   4.652 -0.3898  1.2178  0.4909
13322TIP3   OH261456   6.135   0.467   1.883  0.2636 -0.3542  0.3040
13322TIP3    H161457   6.100   0.378   1.883 -0.4832 -0.0691  0.4197
13322TIP3    H261458   6.063   0.520   1.848  0.7843  0.1697  0.0248
13323TIP3   OH261459   5.373   0.786   2.737  0.6574  0.3421 -0.6976
13323TIP3    H161460   5.317   0.827   2.803  1.1921  0.4782 -0.3217
13323TIP3    H261461   5.325   0.708   2.710  0.1656  0.5959 -0.5743
13324TIP3   OH261462   4.510   6.304   5.653  0.6082  0.4666 -0.4818
13324TIP3    H161463   4.544   6.257   5.729 -0.8223  1.2053  0.6717
13324TIP3    H261464   4.575   6.372   5.636  0.5140  0.8752  0.6858
13325TIP3   OH261465   4.814   6.530  15.261  0.1192  0.3863  0.8242
13325TIP3    H161466   4.909   6.520  15.265  0.1893  1.2573  1.7587
13325TIP3    H261467   4.785   6.458  15.205  1.1897 -0.7782  1.7021
13326TIP3   OH261468   5.325   2.315  13.732  0.4829 -0.6238 -0.3672
13326TIP3    H161469   5.368   2.334  13.815 -1.4272  0.8397  0.3564
13326TIP3    H261470   5.277   2.234  13.747 -0.4470  0.0181  0.2382
13327TIP3   OH261471   4.981   4.457  11.285 -0.4384 -0.3616 -0.5236
13327TIP3    H161472   4.985   4.450  11.189  0.0652  0.9226 -0.6122
13327TIP3    H261473   5.000   4.549  11.303 -0.6998 -0.5535  0.8112
13328TIP3   OH261474   5.052   4.081   1.303  0.2390  0.0430 -0.0844
13328TIP3    H161475   5.103   4.038   1.234 -2.1737 -1.0583 -1.3009
13328TIP3    H261476   4.973   4.027   1.312 -1.2845  2.2893  0.8689
13329TIP3   OH261477   0.642   1.910  16.920  0.0431  0.1653 -0.3978
13329TIP3    H161478   0.698   1.856  16.863 -0.1454 -1.0332  0.5101
13329TIP3    H261479   0.566   1.855  16.937  0.3255  0.2848  1.4006
13330TIP3   OH261480   3.402   2.593   2.236 -0.4703  0.3136 -0.4838
13330TIP3    H161481   3.474   2.653   2.256  0.3935 -1.4001  2.0139
13330TIP3    H261482   3.446   2.510   2.216 -1.6860 -1.0316  2.0253
13331TIP3   OH261483   2.515   6.282  17.266  0.1016 -0.8406  0.0360
13331TIP3    H161484   2.533   6.218  17.334  3.1944 -0.9162 -0.7263
13331TIP3    H261485   2.507   6.231  17.185 -1.3856 -0.5546 -0.0342
13332TIP3   OH261486   0.855   5.990   1.965 -0.0755  0.5689 -0.5289
13332TIP3    H161487   0.933   5.960   2.011 -1.1930 -0.8250  0.5303
13332TIP3    H261488   0.803   6.034   2.032 -0.6330  0.6636 -1.0129
13333TIP3   OH261489   3.958   5.355  17.442 -0.4260 -0.2837  0.5146
13333TIP3    H161490   3.902   5.286  17.478 -0.2416 -0.7844 -0.1397
13333TIP3    H261491   3.982   5.324  17.355  0.6143  0.0734  0.6591
13334TIP3   OH261492   6.059   4.556   2.953 -0.0582  0.2390 -0.4774
13334TIP3    H161493   6.075   4.635   2.901 -0.0289  1.1577  0.8772
13334TIP3    H261494   5.970   4.529   2.929  0.3160  0.0433 -1.7298
13335TIP3   OH261495   6.528   5.725   1.443  0.0448  0.4507 -0.3559
13335TIP3    H161496   6.561   5.644   1.481 -0.3804  0.3860 -0.1199
13335TIP3    H261497   6.590   5.792   1.471 -0.4460  0.4628  0.7489
13336TIP3   OH261498   6.748   5.117   5.591  0.1450  0.0444  0.6644
13336TIP3    H161499   6.654   5.122   5.571 -0.0321 -0.7075  1.2735
13336TIP3    H261500   6.752   5.113   5.686  0.8362  0.6577  0.6705
13337TIP3   OH261501   5.339   6.656   2.886  0.3199 -0.0179 -1.1299
13337TIP3    H161502   5.401   6.729   2.892 -1.2566  1.2768  0.5472
13337TIP3    H261503   5.385   6.590   2.834  3.0153  0.9335 -0.1456
13338TIP3   OH261504   4.647   3.637   6.564  0.5127  0.7910 -0.2579
13338TIP3    H161505   4.715   3.583   6.604  0.1924  0.7857  0.2873
13338TIP3    H261506   4.681   3.726   6.570  0.2235  0.8565  0.5471
13339TIP3   OH261507   6.574   3.078  14.946  0.5673  0.5638 -0.2165
13339TIP3    H161508   6.519   3.003  14.969  1.2094  0.0018 -0.4783
13339TIP3    H261509   6.636   3.044  14.882  1.0101  1.2701 -0.1782
13340TIP3   OH261510   3.595   4.617  16.898 -0.3521 -0.0367 -0.1588
13340TIP3    H161511   3.524   4.681  16.893 -0.1671  0.1113 -1.0487
13340TIP3    H261512   3.550   4.533  16.912 -0.7547 -0.0411 -1.4163
13341TIP3   OH261513   2.060   4.885   4.904 -0.0856  0.3830  0.2069
13341TIP3    H161514   1.971   4.853   4.890 -0.4462  0.6485  1.7362
13341TIP3    H261515   2.053   4.941   4.981  1.6024 -0.3684  0.9319
13342TIP3   OH261516   6.060   5.484   2.275  0.6929 -0.5549  0.0365
13342TIP3    H161517   6.133   5.541   2.300  0.6887 -1.1406  1.4817
13342TIP3    H261518   6.003   5.541   2.223  0.4961  0.9184  1.7488
13343TIP3   OH261519   3.229   3.440   3.951  0.1094 -0.0844  0.2063
13343TIP3    H161520   3.261   3.482   4.031 -0.5749  1.2566 -0.1800
13343TIP3    H261521   3.284   3.477   3.882  0.7633 -1.3117  0.0488
13344TIP3   OH261522   5.769   1.514   3.619 -0.0471  0.2269 -0.5743
13344TIP3    H161523   5.807   1.442   3.669  0.5730 -0.4723 -2.0099
13344TIP3    H261524   5.843   1.570   3.597 -0.3769  0.7468 -0.3886
13345TIP3   OH261525   1.341   0.077   1.818 -0.0837  0.2131  0.0855
13345TIP3    H161526   1.324   0.157   1.768 -1.3877  0.2722  0.5819
13345TIP3    H261527   1.387   0.019   1.757 -1.4699  0.3440 -1.1212
13346TIP3   OH261528   5.609   5.276  13.915  0.0979  0.0392 -0.4157
13346TIP3    H161529   5.636   5.187  13.937  0.1805  0.0136 -0.6182
13346TIP3    H261530   5.559   5.266  13.833 -0.3629  0.1071 -0.1459
13347TIP3   OH261531   3.012   2.354  15.884 -0.7198 -0.0988 -0.0966
13347TIP3    H161532   3.000   2.448  15.867  2.5990  0.5899  0.6322
13347TIP3    H261533   2.930   2.327  15.926 -0.9270  3.1294  1.9634
13348TIP3   OH261534   5.603   3.261   1.468 -0.1200  0.2448 -0.3488
13348TIP3    H161535   5.638   3.349   1.456 -1.5506  0.8684 -0.1235
13348TIP3    H261536   5.543   3.269   1.541 -1.3259 -0.6018 -1.2196
13349TIP3   OH261537   2.318   4.778  17.003  0.5608 -0.4137  0.0158
13349TIP3    H161538   2.247   4.832  17.038 -0.2487 -0.6681 -1.1972
13349TIP3    H261539   2.283   4.741  16.922  1.6530 -1.5094  0.0119
13350TIP3   OH261540   2.518   1.963   3.516 -0.1092  0.3183  0.6573
13350TIP3    H161541   2.495   1.984   3.426  0.6313  0.7308  0.5614
13350TIP3    H261542   2.504   2.044   3.565 -0.5704  0.0790  0.9311
13351TIP3   OH261543   1.308   3.566   0.573 -0.1956  0.4518 -0.0687
13351TIP3    H161544   1.265   3.519   0.501 -2.2623  0.8571  0.8258
13351TIP3    H261545   1.361   3.633   0.529 -0.0593 -0.3845 -1.2410
13352TIP3   OH261546   5.355   1.746  17.383  0.1143 -0.2378 -0.2115
13352TIP3    H161547   5.441   1.786  17.373 -0.3165  0.5262 -1.0035
13352TIP3    H261548   5.299   1.793  17.322 -0.8479 -0.7988  0.2045
13353TIP3   OH261549   4.392   3.828   3.501  0.0758 -0.2022  0.0999
13353TIP3    H161550   4.395   3.750   3.446 -2.1290  1.1537 -2.1476
13353TIP3    H261551   4.358   3.797   3.585  1.0296 -1.9038 -0.0856
13354TIP3   OH261552   6.349   5.564  16.230  0.1287  0.6144  0.1027
13354TIP3    H161553   6.344   5.607  16.315 -0.1796 -2.2486  1.6467
13354TIP3    H261554   6.277   5.501  16.229  1.6206 -1.1996 -1.1876
13355TIP3   OH261555   3.433   2.890  13.696  0.0397  0.6649  0.0468
13355TIP3    H161556   3.473   2.849  13.619  1.8489  2.1219  0.1394
13355TIP3    H261557   3.350   2.844  13.707  1.2724 -1.9132 -0.7149
13356TIP3   OH261558   3.673   6.025   0.704 -0.1285  0.3699 -0.3833
13356TIP3    H161559   3.756   6.012   0.749  0.0641  4.1095  0.6624
13356TIP3    H261560   3.680   5.971   0.625  1.4095 -2.8122  1.6817
13357TIP3   OH261561   0.208   1.713  16.765 -0.1371 -0.1463  0.4657
13357TIP3    H161562   0.234   1.663  16.687  0.2144  2.0277 -0.8965
13357TIP3    H261563   0.113   1.719  16.758 -0.1115 -0.0007  0.2348
13358TIP3   OH261564   6.585   0.111  12.316 -0.3138 -0.2303 -0.2798
13358TIP3    H161565   6.656   0.167  12.283 -0.5083 -0.3730 -0.9400
13358TIP3    H261566   6.507   0.166  12.313 -0.0052  0.4553  1.8973
13359TIP3   OH261567   0.268   4.659  13.725 -0.2508  0.1470 -0.2938
13359TIP3    H161568   0.322   4.581  13.731 -2.0410 -1.1069  0.3899
13359TIP3    H261569   0.301   4.717  13.793  0.6401 -0.2858 -0.3411
13360TIP3   OH261570   2.899   4.599  14.510 -0.0638  0.1413 -0.0250
13360TIP3    H161571   2.933   4.676  14.465 -2.2108  1.3521  0.2586
13360TIP3    H261572   2.842   4.635  14.578 -4.0701 -1.5762 -2.1268
13361TIP3   OH261573   0.649   3.623  16.629 -0.2495 -0.1907 -0.2865
13361TIP3    H161574   0.675   3.532  16.638  0.4963  0.1161  0.9080
13361TIP3    H261575   0.640   3.655  16.719 -0.1415  1.0054 -0.6743
13362TIP3   OH261576   1.182   2.054  12.266  0.0787 -0.5064  0.1532
13362TIP3    H161577   1.208   2.096  12.184 -0.2544 -1.1193 -0.2808
13362TIP3    H261578   1.158   2.126  12.324 -1.6548 -0.1100 -0.9798
13363TIP3   OH261579   1.005   3.692  13.320  0.2100  0.0710 -0.8129
13363TIP3    H161580   0.975   3.644  13.243  1.0552  1.8040 -2.3131
13363TIP3    H261581   0.997   3.784  13.295 -0.3087  0.7158  1.5290
13364TIP3   OH261582   5.293   0.731  15.738 -0.3910 -0.3668  0.0564
13364TIP3    H161583   5.300   0.644  15.777 -1.1902 -0.4674 -0.0098
13364TIP3    H261584   5.233   0.720  15.665 -0.2801  0.1884 -0.1239
13365TIP3   OH261585   1.854   0.245  15.847  0.5954 -0.1975 -0.3127
13365TIP3    H161586   1.814   0.320  15.804 -2.1060 -0.6886  1.0992
13365TIP3    H261587   1.946   0.269  15.857 -0.0310  2.6346 -0.4748
13366TIP3   OH261588   4.502   0.102   0.843  0.3735 -0.4407 -0.4294
13366TIP3    H161589   4.435   0.035   0.832 -2.3336  1.9772  0.0238
13366TIP3    H261590   4.505   0.147   0.758  0.4839  0.2285 -0.0814
13367TIP3   OH261591   6.433   5.592   5.448  0.1123  0.1741  0.2733
13367TIP3    H161592   6.418   5.677   5.406 -2.6535 -1.2649 -2.0110
13367TIP3    H261593   6.449   5.531   5.376  0.2101 -1.5637  1.6889
13368TIP3   OH261594   0.567   5.221  15.006 -0.4765 -0.6059 -0.2248
13368TIP3    H161595   0.638   5.195  14.947  0.0810 -0.0819  0.2076
13368TIP3    H261596   0.569   5.156  15.077  1.3541  0.8998  1.2092
13369TIP3   OH261597   4.495   0.733   1.765 -0.6526  0.5752 -0.1405
13369TIP3    H161598   4.565   0.775   1.714 -0.0674  0.1148  0.2703
13369TIP3    H261599   4.427   0.800   1.773 -0.0867  1.1646 -0.2128
13370TIP3   OH261600   3.676   2.273  12.147  0.1647 -0.3501  0.0200
13370TIP3    H161601   3.669   2.360  12.108 -2.4934 -1.1474 -1.5483
13370TIP3    H261602   3.659   2.286  12.240  0.8221  0.9046 -0.0128
13371TIP3   OH261603   5.019   3.754  14.218  0.6558  0.0838  0.7405
13371TIP3    H161604   5.024   3.759  14.123  2.4638  1.4567  0.8534
13371TIP3    H261605   4.981   3.837  14.245  0.1903 -0.2782  1.2439
13372TIP3   OH261606   4.035   1.112  15.714  0.2066  0.4111 -0.0654
13372TIP3    H161607   4.062   1.051  15.644  1.3573 -0.5495  1.1694
13372TIP3    H261608   4.039   1.059  15.794 -0.5004  1.6605  0.8210
13373TIP3   OH261609   5.235   4.848   2.287  0.2133 -0.8049 -0.1158
13373TIP3    H161610   5.210   4.828   2.377 -0.9473 -0.8613 -0.4351
13373TIP3    H261611   5.273   4.766   2.254  0.2519 -0.9091  0.1857
13374TIP3   OH261612   5.229   0.288   1.438  0.0058 -0.5081 -0.3032
13374TIP3    H161613   5.136   0.305   1.452  0.1709  0.6633 -0.5118
13374TIP3    H261614   5.266   0.282   1.526 -0.5009 -2.5440 -0.1799
13375TIP3   OH261615   0.346   5.221  14.223  0.0804  0.2280 -0.0989
13375TIP3    H161616   0.373   5.157  14.157  1.2640  0.9678 -0.3578
13375TIP3    H261617   0.425   5.235  14.276 -0.7868 -0.2054  1.3648
13376TIP3   OH261618   3.987   1.197   4.945  0.0945 -0.1158 -0.6137
13376TIP3    H161619   3.999   1.168   5.036 -0.7573 -0.8100 -0.7147
13376TIP3    H261620   3.987   1.116   4.894  2.2369  0.3610 -1.4581
13377TIP3   OH261621   2.200   6.182   5.982  0.3819 -0.5938  0.1271
13377TIP3    H161622   2.280   6.170   5.931  0.3394  0.5056 -0.2192
13377TIP3    H261623   2.228   6.232   6.059  0.1478 -0.8045  0.3505
13378TIP3   OH261624   1.345   1.482   0.540  0.1789  0.0639  0.0820
13378TIP3    H161625   1.315   1.441   0.459  0.6032  1.6532 -0.9202
13378TIP3    H261626   1.266   1.513   0.583 -0.1078 -1.3394  0.6403
13379TIP3   OH261627   0.630   4.462  14.793 -0.1825 -0.6393  0.8530
13379TIP3    H161628   0.537   4.451  14.769 -0.9122  2.3761  1.9258
13379TIP3    H261629   0.660   4.534  14.738  1.4526 -1.2859  0.8568
13380TIP3   OH261630   4.077   5.742  14.739  0.4877 -0.4804 -0.5643
13380TIP3    H161631   3.997   5.690  14.728 -0.2032  0.7531 -1.7269
13380TIP3    H261632   4.066   5.784  14.825  0.2515 -0.9276 -0.3749
13381TIP3   OH261633   3.175   4.286  10.878 -0.4908 -0.2934 -0.4740
13381TIP3    H161634   3.267   4.299  10.899 -0.9947  1.5106  0.8618
13381TIP3    H261635   3.175   4.263  10.785  1.3297 -1.0397 -0.3296
13382TIP3   OH261636   1.336   1.740   1.574  0.1338 -0.2596  0.2549
13382TIP3    H161637   1.248   1.764   1.601  0.1519  0.5212 -0.3326
13382TIP3    H261638   1.387   1.821   1.581  0.3520 -0.2395 -1.1623
13383TIP3   OH261639   3.530   2.021  10.738  0.1631  1.0398  0.4097
13383TIP3    H161640   3.501   2.059  10.655  0.1803  0.2886  0.0516
13383TIP3    H261641   3.608   2.070  10.761  0.3301  1.0542 -0.1776
13384TIP3   OH261642   2.043   3.909   1.512 -0.3870 -0.7976  0.3815
13384TIP3    H161643   2.108   3.847   1.545 -0.6137 -1.7549 -0.8891
13384TIP3    H261644   2.095   3.974   1.464 -0.3129 -1.3746 -0.3464
13385TIP3   OH261645   1.228   1.693   0.184  0.2940  0.0382  0.1390
13385TIP3    H161646   1.264   1.758   0.125  1.3967 -1.9012 -1.4332
13385TIP3    H261647   1.192   1.625   0.127 -0.0254 -1.1708  1.6974
13386TIP3   OH261648   6.429   0.710   0.753  0.0565  0.1498 -0.4940
13386TIP3    H161649   6.481   0.655   0.812  0.4639  1.4187  0.3625
13386TIP3    H261650   6.342   0.712   0.792 -0.3332 -0.9154 -1.2362
13387TIP3   OH261651   3.622   5.889  12.212 -0.3729 -0.0981 -0.5166
13387TIP3    H161652   3.554   5.904  12.146 -0.7999 -0.5495 -0.1846
13387TIP3    H261653   3.599   5.805  12.252 -0.6064  0.5643  0.7915
13388TIP3   OH261654   0.854   0.830   1.394  0.3683 -0.2253  0.2742
13388TIP3    H161655   0.763   0.829   1.426  0.5108  1.1695  0.7766
13388TIP3    H261656   0.858   0.904   1.334  0.5039 -1.9229 -1.9278
13389TIP3   OH261657   2.003   5.277  16.677 -0.2229  0.0259  0.2617
13389TIP3    H161658   2.045   5.359  16.653  1.2238 -0.3709  1.3336
13389TIP3    H261659   1.941   5.301  16.745  0.0854  0.2489  0.4647
13390TIP3   OH261660   5.350   2.342  17.397  0.4231 -0.4423 -0.0620
13390TIP3    H161661   5.366   2.254  17.365 -2.4526 -1.6106  1.3237
13390TIP3    H261662   5.274   2.372  17.347  0.2772  0.5249  0.7188
13391TIP3   OH261663   0.423   0.170  13.053 -0.0027  0.4010 -0.2819
13391TIP3    H161664   0.473   0.222  12.990 -0.3559  0.6996 -0.3177
13391TIP3    H261665   0.455   0.199  13.138  0.1907  0.2805 -0.3112
13392TIP3   OH261666   4.623   2.735  12.573 -0.4314 -0.2148 -0.0099
13392TIP3    H161667   4.588   2.693  12.494  0.9374 -0.7089 -0.3755
13392TIP3    H261668   4.673   2.810  12.540 -1.2758  0.6109  0.5228
13393TIP3   OH261669   4.440   3.894  17.384  0.2298  0.4955  0.2392
13393TIP3    H161670   4.345   3.891  17.383  0.2144  0.7438  0.5838
13393TIP3    H261671   4.465   3.920  17.296  0.0390 -0.9732 -0.2751
13394TIP3   OH261672   2.506   1.750   5.700  0.3480 -0.1916 -0.0323
13394TIP3    H161673   2.478   1.670   5.655 -1.2524  0.9160 -1.0853
13394TIP3    H261674   2.602   1.745   5.699  0.2924 -2.4603  0.6434
13395TIP3   OH261675   4.597   1.109  16.451  0.4952  0.3733  0.1973
13395TIP3    H161676   4.676   1.073  16.492 -0.5625  0.6478  2.7010
13395TIP3    H261677   4.587   1.196  16.490 -1.6084 -0.0942  0.8328
13396TIP3   OH261678   1.783   4.443   4.766 -0.4494  0.1127 -0.3573
13396TIP3    H161679   1.795   4.350   4.745 -1.6162 -0.3898  1.0522
13396TIP3    H261680   1.867   4.483   4.743  0.6002 -1.5479  0.3537
13397TIP3   OH261681   0.727   1.492  15.057 -0.2814 -0.0281  0.0511
13397TIP3    H161682   0.812   1.527  15.084 -0.2056  0.4996 -0.8444
13397TIP3    H261683   0.709   1.422  15.121  0.2983  0.5876  0.9160
13398TIP3   OH261684   0.794   4.531   2.790 -0.2073  0.1577 -0.2606
13398TIP3    H161685   0.849   4.515   2.713 -0.1661 -0.4454 -0.1160
13398TIP3    H261686   0.839   4.485   2.861 -0.9197 -0.4010 -0.1546
13399TIP3   OH261687   0.636   5.747   2.856  0.1648 -0.3162  0.2060
13399TIP3    H161688   0.577   5.716   2.788  0.2284 -1.0407  0.4798
13399TIP3    H261689   0.674   5.827   2.819 -0.9899  0.1719  0.0447
13400TIP3   OH261690   4.368   6.152   4.192  0.3000  0.2676  0.3255
13400TIP3    H161691   4.348   6.168   4.099 -1.5657 -1.4343  0.3735
13400TIP3    H261692   4.448   6.100   4.191 -0.6133 -1.1698 -0.4523
13401TIP3   OH261693   2.946   5.778  14.464  0.8062  0.2218  0.4655
13401TIP3    H161694   3.010   5.718  14.424  1.4829  0.3686  1.3206
13401TIP3    H261695   2.888   5.720  14.514 -0.0128  0.0425 -0.6369
13402TIP3   OH261696   6.034   2.148  11.585  0.3838  0.1637 -0.3285
13402TIP3    H161697   6.063   2.059  11.608 -0.9743 -0.5048 -1.0688
13402TIP3    H261698   6.085   2.205  11.642  2.2574 -0.9965 -0.7422
13403TIP3   OH261699   6.274   4.284   0.431  0.8186  0.2901  0.4048
13403TIP3    H161700   6.230   4.349   0.485 -0.1380  1.3045 -1.4953
13403TIP3    H261701   6.207   4.219   0.411  1.2693 -0.2906  0.7610
13404TIP3   OH261702   2.682   2.908   2.961  0.2898 -0.2217 -0.2728
13404TIP3    H161703   2.616   2.840   2.972  0.6384 -0.7948 -1.5705
13404TIP3    H261704   2.632   2.990   2.966 -0.1010 -0.5167  1.4727
13405TIP3   OH261705   4.103   4.016  17.172  0.3400  0.1940  0.0320
13405TIP3    H161706   4.099   3.938  17.227 -0.7479 -0.0283 -0.3427
13405TIP3    H261707   4.167   4.073  17.216 -0.1913 -0.1518  1.2958
13406TIP3   OH261708   2.666   1.165   0.112 -0.6158 -0.1284 -0.3855
13406TIP3    H161709   2.686   1.080   0.153 -0.6530 -0.5275 -1.1797
13406TIP3    H261710   2.700   1.229   0.174 -0.3840 -0.7290  0.1252
13407TIP3   OH261711   3.052   5.826  12.168  0.0823 -0.1552  0.3479
13407TIP3    H161712   3.022   5.858  12.083 -3.3808  0.1014  1.4985
13407TIP3    H261713   3.028   5.896  12.230 -0.4879 -1.6814  1.9297
13408TIP3   OH261714   0.267   0.318  12.061  0.2720  0.3075 -0.1184
13408TIP3    H161715   0.329   0.391  12.068  1.0354 -0.0542 -2.3415
13408TIP3    H261716   0.207   0.344  11.992 -0.5405 -0.4526  0.2810
13409TIP3   OH261717   1.268   1.811  15.911 -0.3175  0.0234  0.2188
13409TIP3    H161718   1.266   1.895  15.958  0.7401  0.0370  0.2568
13409TIP3    H261719   1.222   1.750  15.969 -0.2202  0.3530  0.6491
13410TIP3   OH261720   2.728   1.783  17.515 -0.2906  0.4463 -0.1452
13410TIP3    H161721   2.714   1.718  17.583 -3.1172  0.7587 -0.3229
13410TIP3    H261722   2.775   1.855  17.558 -0.9704  0.1246  1.1516
13411TIP3   OH261723   1.555   1.675  13.677 -1.0067 -0.0500  0.5323
13411TIP3    H161724   1.510   1.758  13.665  1.8465  1.8190  1.8629
13411TIP3    H261725   1.505   1.629  13.744 -0.7159  2.2028  2.3917
13412TIP3   OH261726   4.000   2.437  13.508  0.5406 -0.3446 -0.1577
13412TIP3    H161727   4.062   2.393  13.450  1.0217  1.6801 -1.2598
13412TIP3    H261728   3.966   2.510  13.457  0.5507  1.1805  1.8844
13413TIP3   OH261729   4.039   4.309   5.914  0.3632 -0.0294 -0.2675
13413TIP3    H161730   3.948   4.281   5.929 -0.4302  2.8911  1.1390
13413TIP3    H261731   4.056   4.286   5.822 -1.8965 -0.4578 -0.6474
13414TIP3   OH261732   2.883   5.626  16.974 -0.7388 -0.2550  0.1547
13414TIP3    H161733   2.854   5.713  16.949 -0.7078 -0.1538  0.4757
13414TIP3    H261734   2.921   5.636  17.061 -0.3194 -0.5035  0.0059
13415TIP3   OH261735   4.662   5.900  14.912  0.4135  0.1930  0.5457
13415TIP3    H161736   4.662   5.907  14.817  0.2355  0.2326  0.5508
13415TIP3    H261737   4.755   5.889  14.935  0.5013  0.6456  0.4043
13416TIP3   OH261738   0.871   6.271   2.389  0.2535 -0.1524  0.0564
13416TIP3    H161739   0.902   6.248   2.302  1.6543  2.1279 -0.1436
13416TIP3    H261740   0.855   6.365   2.385 -1.4918 -0.3152  1.7534
13417TIP3   OH261741   5.303   1.271  13.753 -0.3206 -0.0928  0.9065
13417TIP3    H161742   5.277   1.200  13.812 -1.8738 -0.4816 -0.1711
13417TIP3    H261743   5.287   1.351  13.803 -1.5771 -0.4144  1.0564
13418TIP3   OH261744   3.938   5.260  14.664 -0.1067  0.0414  0.2567
13418TIP3    H161745   4.025   5.297  14.646 -0.1916  0.3876  0.5710
13418TIP3    H261746   3.957   5.180  14.715  0.1166 -0.7615 -1.0376
13419TIP3   OH261747   1.852   5.932  14.073  0.3118  0.5179  0.1679
13419TIP3    H161748   1.889   5.939  14.161  0.6591 -0.0034  0.0652
13419TIP3    H261749   1.808   6.016  14.059 -1.4068 -0.0797  1.5749
13420TIP3   OH261750   6.537   1.190   0.526 -0.4674  0.2052 -0.8128
13420TIP3    H161751   6.487   1.126   0.577  0.2146  1.0011  0.9424
13420TIP3    H261752   6.473   1.228   0.466 -1.4607 -0.3779 -0.1607
13421TIP3   OH261753   3.853   4.316   1.172 -0.0086  0.4160 -0.4182
13421TIP3    H161754   3.821   4.227   1.161 -1.8719  0.8966  0.7662
13421TIP3    H261755   3.922   4.309   1.238 -0.5231 -0.0892  0.0765
13422TIP3   OH261756   2.710   5.709  16.583 -0.4620 -0.4465  0.4767
13422TIP3    H161757   2.667   5.627  16.558  0.9701 -1.8685  2.4038
13422TIP3    H261758   2.799   5.700  16.548 -0.5090  0.6770  0.0222
13423TIP3   OH261759   1.852   0.382  13.435 -0.2005 -0.6080 -0.0778
13423TIP3    H161760   1.945   0.398  13.418 -0.1893 -1.3738 -0.8073
13423TIP3    H261761   1.815   0.362  13.349 -0.8980 -0.9944  0.2988
13424TIP3   OH261762   4.936   6.577  14.781 -0.0942 -0.6723 -0.0976
13424TIP3    H161763   5.008   6.603  14.723 -0.4209 -1.7066 -1.0065
13424TIP3    H261764   4.940   6.639  14.853  1.0366 -0.0413 -0.6688
13425TIP3   OH261765   4.601   5.246  16.217  0.0807  0.3749 -0.1855
13425TIP3    H161766   4.518   5.245  16.169  1.0290 -1.3285 -1.8657
13425TIP3    H261767   4.662   5.290  16.159  0.8058 -0.0396  0.2552
13426TIP3   OH261768   2.155   1.667   4.916 -0.3183  0.0854  0.5949
13426TIP3    H161769   2.074   1.621   4.938 -1.0540 -2.0212 -4.8151
13426TIP3    H261770   2.126   1.752   4.882 -0.8273 -1.4609 -3.3574
13427TIP3   OH261771   1.023   2.373  11.858 -0.0615  0.0007 -0.0017
13427TIP3    H161772   0.952   2.367  11.923  0.4174 -1.2668  0.4499
13427TIP3    H261773   1.072   2.451  11.883  0.3447 -0.6727  1.4445
13428TIP3   OH261774   5.596   4.649  15.180 -0.1432  0.4224 -0.0560
13428TIP3    H161775   5.600   4.631  15.087 -2.4271  2.5536 -0.6814
13428TIP3    H261776   5.644   4.732  15.190 -0.6086  0.6365  0.4837
13429TIP3   OH261777   6.498   0.526  16.965 -0.5462  0.0278 -0.3164
13429TIP3    H161778   6.405   0.540  16.981 -1.1110 -2.9696 -0.3449
13429TIP3    H261779   6.541   0.549  17.048 -1.1384  2.1700 -0.5382
13430TIP3   OH261780   6.034   6.458   0.245  0.2610  0.3210 -0.4600
13430TIP3    H161781   6.010   6.469   0.153 -2.4391  0.3670  0.1799
13430TIP3    H261782   5.972   6.512   0.293  0.3795 -1.1641  1.4941
13431TIP3   OH261783   4.586   3.828   5.536  0.2964  0.1675  0.1255
13431TIP3    H161784   4.680   3.843   5.543  0.1364  1.8882 -0.7572
13431TIP3    H261785   4.548   3.875   5.610  0.1981 -1.8256  1.3918
13432TIP3   OH261786   4.505   3.435  12.678 -0.0164  0.6938  0.7887
13432TIP3    H161787   4.424   3.428  12.729 -0.1026  1.4488  0.7747
13432TIP3    H261788   4.575   3.415  12.741 -0.1586  1.0514  1.0642
13433TIP3   OH261789   4.813   1.918   3.051 -0.3129 -0.0325 -0.0846
13433TIP3    H161790   4.763   1.872   2.984 -0.4978  0.9942 -0.6761
13433TIP3    H261791   4.794   2.010   3.036  0.6093  0.2881  0.6139
13434TIP3   OH261792   4.158   1.957   0.663  0.2344  0.2136  0.5818
13434TIP3    H161793   4.080   1.997   0.701 -1.3876 -1.2106 -1.0482
13434TIP3    H261794   4.175   1.879   0.717 -0.3963 -0.2932  0.0604
13435TIP3   OH261795   1.623   2.389   0.289  0.1102  0.2498  0.1309
13435TIP3    H161796   1.655   2.304   0.320  0.3210  0.1712 -0.2938
13435TIP3    H261797   1.626   2.445   0.367 -2.1070 -0.6942  0.9645
13436TIP3   OH261798   6.748   6.305   2.498  0.9138  0.9094 -0.3800
13436TIP3    H161799   6.700   6.261   2.569  0.5666 -0.8666 -1.6308
13436TIP3    H261800   6.697   6.384   2.481 -0.0612  0.4094  0.1051
13437TIP3   OH261801   1.355   5.544  13.795  0.0511 -0.0011  0.4572
13437TIP3    H161802   1.300   5.530  13.718 -0.0744  1.2724  0.2916
13437TIP3    H261803   1.429   5.485  13.782 -1.1483 -1.6228  0.5950
13438TIP3   OH261804   3.578   5.551  16.909 -0.4167 -0.5488  0.2299
13438TIP3    H161805   3.598   5.629  16.857 -3.4029 -0.1420 -0.4785
13438TIP3    H261806   3.561   5.482  16.844 -3.6262 -0.1776  0.4920
13439TIP3   OH261807   4.528   2.255  15.601 -0.1743  0.1492 -0.2410
13439TIP3    H161808   4.486   2.287  15.681  1.4919 -0.8159  1.1031
13439TIP3    H261809   4.554   2.334  15.554 -0.5598  0.7387  0.5044
13440TIP3   OH261810   3.911   1.610   6.063  0.0359 -0.3268  0.1972
13440TIP3    H161811   3.873   1.535   6.018  0.9802  0.2652 -1.6558
13440TIP3    H261812   3.843   1.678   6.058  0.1475 -0.2551 -0.3656
13441TIP3   OH261813   5.018   5.696  17.459 -0.2268  0.1709  0.3901
13441TIP3    H161814   5.030   5.644  17.539  0.2985  1.6985  1.3507
13441TIP3    H261815   4.938   5.746  17.476 -0.1844  0.4040 -0.0963
13442TIP3   OH261816   2.280   2.332   1.805 -0.9095 -0.0441  0.0964
13442TIP3    H161817   2.266   2.392   1.879 -0.6204  0.2882 -0.1162
13442TIP3    H261818   2.254   2.382   1.728  2.5361  1.1291 -0.4959
13443TIP3   OH261819   6.035   6.476  14.032  0.3916 -0.3749  0.4845
13443TIP3    H161820   6.038   6.382  14.051 -2.6744 -0.4979  0.8703
13443TIP3    H261821   6.015   6.517  14.116  1.4739  0.6246  0.2705
13444TIP3   OH261822   1.991   2.270   5.049  0.0268 -0.1585  0.7489
13444TIP3    H161823   1.942   2.200   5.090  1.5612 -1.7307  0.0109
13444TIP3    H261824   2.025   2.322   5.123 -2.3759  0.7968  1.2694
13445TIP3   OH261825   5.069   3.489  12.220  0.3579  0.1923 -0.1154
13445TIP3    H161826   5.104   3.555  12.161  1.2252 -0.4694 -0.3667
13445TIP3    H261827   4.993   3.453  12.174 -1.3016  2.2762  0.8314
13446TIP3   OH261828   6.440   0.738  15.183  0.0702  0.1394 -0.2348
13446TIP3    H161829   6.525   0.755  15.224 -0.0672  0.5691 -0.1274
13446TIP3    H261830   6.441   0.644  15.164  1.2211  0.4081 -1.6845
13447TIP3   OH261831   6.133   5.056  16.977  0.6143  0.2535 -0.7916
13447TIP3    H161832   6.177   4.972  16.992 -0.1002  0.0289  0.1443
13447TIP3    H261833   6.194   5.121  17.012 -0.7591 -0.2252  2.9079
13448TIP3   OH261834   0.590   2.835   3.656 -0.0951  0.0640  0.1851
13448TIP3    H161835   0.638   2.918   3.657 -1.0276  0.6641  2.3874
13448TIP3    H261836   0.529   2.844   3.583  0.2491  1.0724  0.0016
13449TIP3   OH261837   2.228   6.297   0.089 -0.5603 -0.5314  0.4569
13449TIP3    H161838   2.211   6.339   0.173 -0.8956  3.5189 -1.4133
13449TIP3    H261839   2.141   6.274   0.055 -0.3663 -3.3048  1.5926
13450TIP3   OH261840   4.623   6.724   5.539 -0.7838 -0.2552  0.9478
13450TIP3    H161841   4.546   6.719   5.482 -0.0587 -0.3517 -0.0513
13450TIP3    H261842   4.678   6.651   5.511  0.5272  0.9228  0.3322
13451TIP3   OH261843   4.439   6.229   0.035  0.3192  0.1312  0.3655
13451TIP3    H161844   4.408   6.204  -0.052  2.3415 -1.7494  0.0999
13451TIP3    H261845   4.465   6.321   0.026  0.5837 -0.0552 -1.0579
13452TIP3   OH261846   5.791   3.304   0.914 -0.3417  0.1675 -0.4251
13452TIP3    H161847   5.869   3.271   0.959 -0.2553  0.8990 -0.0152
13452TIP3    H261848   5.739   3.226   0.895 -0.3428 -0.1751  0.8886
13453TIP3   OH261849   4.905   1.183  11.184  0.1542  1.2814 -0.0197
13453TIP3    H161850   4.838   1.251  11.184 -2.4200 -0.6733 -5.1259
13453TIP3    H261851   4.865   1.111  11.232  0.6420  1.6343  0.9267
13454TIP3   OH261852   5.694   6.243   1.105 -0.2446  0.3582  0.3747
13454TIP3    H161853   5.760   6.265   1.170  0.1788  1.8553 -0.5235
13454TIP3    H261854   5.641   6.322   1.097  0.4932  0.6831 -1.9886
13455TIP3   OH261855   3.079   5.029   4.474  0.3576  0.0060  0.2970
13455TIP3    H161856   3.052   4.938   4.480 -0.8911  0.3332 -0.1120
13455TIP3    H261857   3.112   5.039   4.385 -2.4629  0.6810 -0.7646
13456TIP3   OH261858   5.092   3.140  13.082  0.4538 -0.4990 -0.4722
13456TIP3    H161859   5.066   3.058  13.041  3.1421 -0.2637 -2.9156
13456TIP3    H261860   5.184   3.128  13.107  0.4594  1.2519  0.6022
13457TIP3   OH261861   1.979   2.218   2.334  0.1903  0.0587 -0.2970
13457TIP3    H161862   1.969   2.125   2.315  1.4505 -0.4871  1.4448
13457TIP3    H261863   1.901   2.259   2.296 -0.8761 -1.8269 -0.2453
13458TIP3   OH261864   2.563   5.984   3.428 -0.1264  0.5144 -0.3146
13458TIP3    H161865   2.644   6.034   3.426  0.3678 -0.2100  0.5792
13458TIP3    H261866   2.515   6.017   3.504 -1.4195  2.0087 -1.7015
13459TIP3   OH261867   4.177   3.472   3.260 -0.0113  0.8623  0.4845
13459TIP3    H161868   4.106   3.534   3.276 -0.4826  0.6509 -0.6596
13459TIP3    H261869   4.182   3.420   3.339 -3.0041 -0.9539 -0.3415
13460TIP3   OH261870   4.093   4.915  16.621 -0.1746  0.1168  0.2547
13460TIP3    H161871   3.998   4.932  16.623 -0.0140  1.2958 -1.1314
13460TIP3    H261872   4.131   4.986  16.672  0.0148 -0.0298  0.3201
13461TIP3   OH261873   3.678   4.048  12.792  0.2628  0.3211  0.6697
13461TIP3    H161874   3.771   4.063  12.813 -0.1069  2.2128  1.1680
13461TIP3    H261875   3.654   3.970  12.841  1.1702  0.7806  1.8948
13462TIP3   OH261876   4.609   1.641   0.572 -0.4411 -0.0712 -0.2830
13462TIP3    H161877   4.640   1.711   0.513 -0.8211 -0.5241 -1.0294
13462TIP3    H261878   4.605   1.563   0.517 -2.6937 -0.0844 -0.1601
13463TIP3   OH261879   2.683   4.833  16.437 -0.5886 -0.1893 -0.3875
13463TIP3    H161880   2.679   4.923  16.471  2.6067 -0.5725  1.5185
13463TIP3    H261881   2.641   4.837  16.351 -0.7673  3.0628 -0.2707
13464TIP3   OH261882   1.036   3.311   0.179  0.1973  0.2295 -0.0480
13464TIP3    H161883   1.049   3.389   0.232 -0.1675  1.3124 -1.4931
13464TIP3    H261884   1.084   3.328   0.098  0.1927 -1.0901 -0.3625
13465TIP3   OH261885   2.971   6.555  15.742  0.3196 -0.5442 -0.4252
13465TIP3    H161886   2.975   6.467  15.780  1.1408  0.3203  1.5846
13465TIP3    H261887   2.896   6.596  15.785 -0.2907 -0.3441 -1.6353
13466TIP3   OH261888   6.354   5.224  15.316  0.5659 -0.1235 -0.1140
13466TIP3    H161889   6.325   5.289  15.252  1.1111 -0.9761 -1.2672
13466TIP3    H261890   6.279   5.213  15.375  0.2825  1.1432 -0.2165
13467TIP3   OH261891   5.928   1.455   2.988  0.2456 -0.4343  0.1470
13467TIP3    H161892   5.995   1.490   3.047  0.0106  0.0197  0.1504
13467TIP3    H261893   5.846   1.466   3.037 -0.0448  0.6176 -0.5424
13468TIP3   OH261894   4.712   1.672  12.488  0.6436 -0.4856 -0.0177
13468TIP3    H161895   4.638   1.626  12.528  1.7133  0.5462  3.5114
13468TIP3    H261896   4.671   1.741  12.435 -0.9622 -0.0584  1.6848
13469TIP3   OH261897   2.995   3.191  12.083  0.0772 -0.1895  0.1934
13469TIP3    H161898   2.979   3.114  12.139 -1.4242  0.1258  0.2426
13469TIP3    H261899   2.909   3.210  12.045  0.4346  1.4527  0.1710
13470TIP3   OH261900   5.443   3.308   5.672 -0.0343 -0.2200 -0.2194
13470TIP3    H161901   5.490   3.250   5.733 -0.3608  0.1579  0.4012
13470TIP3    H261902   5.401   3.373   5.728  0.2153  0.5478 -0.8979
13471TIP3   OH261903   3.130   3.204   3.978  0.4002  0.1259 -0.2472
13471TIP3    H161904   3.190   3.279   3.978  4.0348 -2.5286  0.2192
13471TIP3    H261905   3.064   3.226   4.045  0.8315  3.1388 -0.6577
13472TIP3   OH261906   1.076   3.402  15.169  0.4203  0.4063  0.0432
13472TIP3    H161907   1.033   3.419  15.084  1.5947  1.4507 -0.3635
13472TIP3    H261908   1.060   3.481  15.220  1.5326  0.6479  0.0255
13473TIP3   OH261909   2.200   1.205   4.411  0.7218  0.1238  0.3941
13473TIP3    H161910   2.255   1.280   4.430  1.0514 -0.2678  1.0099
13473TIP3    H261911   2.115   1.242   4.389  1.5004  0.8037 -1.7029
13474TIP3   OH261912   0.981   5.268  16.279 -0.4136  0.6689  0.6461
13474TIP3    H161913   0.998   5.305  16.192  0.4316 -0.5874  0.2488
13474TIP3    H261914   1.047   5.308  16.335 -0.5912  1.0426  0.5933
13475TIP3   OH261915   5.688   1.632   1.638  0.2037  0.9247 -0.0865
13475TIP3    H161916   5.621   1.682   1.592 -0.4881 -0.4288 -0.6050
13475TIP3    H261917   5.679   1.543   1.605  2.3411  0.7072 -0.2480
13476TIP3   OH261918   0.835   5.602   2.403 -0.4709 -0.3202  0.4707
13476TIP3    H161919   0.747   5.632   2.380 -0.7496 -0.3140  1.4728
13476TIP3    H261920   0.826   5.569   2.493  0.5015 -0.5314  0.5016
13477TIP3   OH261921   4.721   1.896   5.058  0.6316 -0.1472 -0.5206
13477TIP3    H161922   4.805   1.865   5.092 -1.2182 -2.6500  2.3200
13477TIP3    H261923   4.717   1.988   5.084  1.3021 -0.7744  2.1768
13478TIP3   OH261924   4.511   1.065  14.801  0.4185 -0.1638 -0.1397
13478TIP3    H161925   4.581   1.103  14.855 -0.3829 -1.3768  1.8984
13478TIP3    H261926   4.502   0.975  14.834 -2.8266  0.2719  0.4859
13479TIP3   OH261927   1.275   2.404   1.651 -0.0299  0.0621 -0.2278
13479TIP3    H161928   1.242   2.448   1.729 -0.5132 -0.1969 -0.2819
13479TIP3    H261929   1.206   2.417   1.586  0.9678  1.5133 -1.0654
13480TIP3   OH261930   5.392   3.320  16.965 -0.1547  0.2159 -0.3897
13480TIP3    H161931   5.391   3.228  16.990  0.4634  0.6501  1.3240
13480TIP3    H261932   5.485   3.344  16.963 -0.3116  0.8303 -0.7524
13481TIP3   OH261933   5.137   2.503   5.363  0.6135  0.0602  0.3195
13481TIP3    H161934   5.171   2.593   5.363  2.0894 -0.4733  0.3247
13481TIP3    H261935   5.061   2.507   5.306  0.8308  1.2544  0.0763
13482TIP3   OH261936   2.881   3.089   0.385 -0.2375  0.0539 -0.6732
13482TIP3    H161937   2.876   3.154   0.315  1.8148 -0.0715 -0.9989
13482TIP3    H261938   2.873   3.139   0.466  0.6843  0.6322 -0.9373
13483TIP3   OH261939   2.747   5.624   0.377 -0.1776  0.3319  0.8416
13483TIP3    H161940   2.835   5.614   0.414 -0.2283 -0.8248  0.6655
13483TIP3    H261941   2.759   5.610   0.283 -0.6937 -0.8583  0.9349
13484TIP3   OH261942   2.243   6.173  16.098  0.2083  0.2894  0.0219
13484TIP3    H161943   2.254   6.223  16.178  3.2829  1.6982 -1.1287
13484TIP3    H261944   2.274   6.085  16.120 -1.1031  0.0390  0.9239
13485TIP3   OH261945   4.481   3.957  14.217 -0.3036 -0.1763 -0.5224
13485TIP3    H161946   4.411   3.920  14.270  0.4531  1.5174  1.8370
13485TIP3    H261947   4.530   4.013  14.278  1.5173  0.7572 -2.7044
13486TIP3   OH261948   3.516   0.235   1.701 -0.0288 -0.0051  0.1254
13486TIP3    H161949   3.606   0.262   1.717  0.2520 -1.3112  0.9443
13486TIP3    H261950   3.474   0.238   1.787 -0.1595 -1.4346  0.1475
13487TIP3   OH261951   5.842   6.697  11.670  0.0496 -0.1390 -0.9550
13487TIP3    H161952   5.753   6.731  11.676 -0.1649 -0.9226  1.5895
13487TIP3    H261953   5.898   6.769  11.698 -0.0323 -0.4645  0.0756
13488TIP3   OH261954   5.545   4.151   1.541 -0.4116  0.3748 -0.4013
13488TIP3    H161955   5.479   4.148   1.472 -1.9080  0.5528  0.9657
13488TIP3    H261956   5.560   4.244   1.557  0.2345  0.3378 -0.7333
13489TIP3   OH261957   5.694   0.716  15.901 -0.0082  0.0886  0.9466
13489TIP3    H161958   5.780   0.741  15.935  1.2586 -0.2303 -1.7393
13489TIP3    H261959   5.706   0.627  15.870 -1.1728  0.2108  0.0960
13490TIP3   OH261960   5.140   2.242  16.327  0.5909 -0.0838  0.2689
13490TIP3    H161961   5.230   2.265  16.301  0.1492  2.4400  0.7107
13490TIP3    H261962   5.099   2.213  16.245  1.5168 -0.3149 -0.1356
13491TIP3   OH261963   0.213   1.948  17.070  0.2873 -0.0281 -1.0048
13491TIP3    H161964   0.251   2.027  17.032 -0.5778  0.1090 -1.6123
13491TIP3    H261965   0.247   1.877  17.016  0.3347  0.0133 -1.0293
13492TIP3   OH261966   4.066   5.586  15.402  0.1664 -0.2323  0.7381
13492TIP3    H161967   4.067   5.646  15.328 -0.9090  1.6400  2.1354
13492TIP3    H261968   4.137   5.616  15.459 -0.9473  0.3389  1.8740
13493TIP3   OH261969   2.899   3.206  14.516  0.4145  0.0175 -0.4924
13493TIP3    H161970   2.819   3.258  14.525  0.1841 -0.4919  0.6210
13493TIP3    H261971   2.966   3.269  14.489  0.0084  0.7741  0.2335
13494TIP3   OH261972   3.229   3.771  16.533 -0.1346  1.0327 -0.7344
13494TIP3    H161973   3.197   3.752  16.444 -0.1949  0.3556 -0.5740
13494TIP3    H261974   3.310   3.819  16.519  0.8423 -0.6584 -1.2077
13495TIP3   OH261975   5.904   1.329  13.343 -0.2492  0.3053  0.1367
13495TIP3    H161976   5.931   1.365  13.428 -0.3461 -0.8751  0.6897
13495TIP3    H261977   5.965   1.256  13.328 -0.5708  0.1719 -0.5522
13496TIP3   OH261978   0.066   0.930   5.531  0.3081  0.5896  0.4652
13496TIP3    H161979   0.128   0.935   5.605  0.3103  0.7484  0.4513
13496TIP3    H261980  -0.010   0.884   5.567  0.8136 -0.4562  0.2292
13497TIP3   OH261981   1.173   4.119  14.893  0.1204 -0.5524  0.1490
13497TIP3    H161982   1.133   4.061  14.958 -0.2083  0.9078  1.3173
13497TIP3    H261983   1.267   4.108  14.905  0.0616 -1.0818  0.1309
13498TIP3   OH261984   1.082   1.006  14.063  0.3718 -0.3448  0.4947
13498TIP3    H161985   1.111   0.920  14.093 -0.1473 -0.5613  0.3856
13498TIP3    H261986   0.987   0.998  14.055  0.4286 -0.1160 -0.6348
13499TIP3   OH261987   4.864   0.940   0.985  0.1284 -0.4433  0.0622
13499TIP3    H161988   4.771   0.962   0.993  0.1581  0.0021 -0.7350
13499TIP3    H261989   4.908   1.024   0.972  0.6530 -0.6501  0.4542
13500TIP3   OH261990   4.927   5.638  15.483  0.2451  0.0810  0.0474
13500TIP3    H161991   5.007   5.688  15.467 -0.4509  1.5233  0.9085
13500TIP3    H261992   4.918   5.583  15.405  0.9183  1.4707 -1.0501
13501TIP3   OH261993   4.907   3.845  15.247  0.4354  0.3123  0.2295
13501TIP3    H161994   4.814   3.868  15.244  0.5036  0.7262  0.9522
13501TIP3    H261995   4.947   3.917  15.296  0.9243 -0.5085  1.0645
13502TIP3   OH261996   6.466   6.339   2.909  0.6069  0.1989 -0.5205
13502TIP3    H161997   6.380   6.299   2.924 -0.3728  2.4263  0.2955
13502TIP3    H261998   6.455   6.393   2.831  1.1509  0.7383 -0.2402
13503TIP3   OH261999   3.699   3.665   2.077  0.0203 -0.1795 -0.3211
13503TIP3    H162000   3.634   3.661   2.148 -0.6068  0.1080 -0.8637
13503TIP3    H262001   3.782   3.680   2.122 -0.3246 -0.2635  0.3734
13504TIP3   OH262002   0.140   3.396  17.033  0.0760  0.4926  0.2617
13504TIP3    H162003   0.219   3.382  17.084 -0.5648  1.0392  1.4581
13504TIP3    H262004   0.069   3.390  17.097 -1.0534 -2.0639 -1.0997
13505TIP3   OH262005   1.751   6.067  14.977 -0.2713 -0.2835  0.4527
13505TIP3    H162006   1.750   5.997  14.912  1.0239 -0.6523  0.7947
13505TIP3    H262007   1.679   6.125  14.952 -0.6186 -1.1092 -0.5221
13506TIP3   OH262008   4.996   4.616  16.018  0.4133 -0.2620 -0.5448
13506TIP3    H162009   5.054   4.666  15.960 -0.3391 -1.4963 -2.4681
13506TIP3    H262010   5.053   4.548  16.055  0.9909  0.7747  0.5514
13507TIP3   OH262011   2.093   1.701  11.835 -0.2181 -0.6833  0.0255
13507TIP3    H162012   2.009   1.667  11.805 -0.2606 -0.0961 -0.5401
13507TIP3    H262013   2.091   1.794  11.812 -0.5641  0.0126  2.5395
13508TIP3   OH262014   3.826   6.065   4.795 -0.0975  0.0470  0.5326
13508TIP3    H162015   3.788   6.047   4.881  1.1204  0.1597  1.1215
13508TIP3    H262016   3.814   6.159   4.783 -1.3157 -0.1493  0.0301
13509TIP3   OH262017   2.524   0.624  16.666 -0.4584  0.4568 -0.2129
13509TIP3    H162018   2.523   0.603  16.573  1.1848  2.3101 -0.7151
13509TIP3    H262019   2.524   0.720  16.669 -2.5565  0.4900  1.7790
13510TIP3   OH262020   1.599   6.306  13.717 -0.3512  0.1910 -0.3260
13510TIP3    H162021   1.593   6.235  13.653 -3.1783 -1.1050  1.2024
13510TIP3    H262022   1.599   6.386  13.664 -0.0947 -0.8698 -2.0000
13511TIP3   OH262023   1.854   2.557  16.979  0.6082  0.1995  0.2088
13511TIP3    H162024   1.825   2.521  17.063 -0.3737 -1.0924 -0.6496
13511TIP3    H262025   1.774   2.570  16.930  1.2787 -0.8469 -1.2184
13512TIP3   OH262026   3.246   3.585   3.076 -0.4549 -0.5403  0.2602
13512TIP3    H162027   3.236   3.651   3.008  0.2567 -1.2345 -0.5438
13512TIP3    H262028   3.321   3.613   3.128 -0.6962 -0.2692  0.4692
13513TIP3   OH262029   4.556   6.685   3.721  0.4986  0.3318  0.6589
13513TIP3    H162030   4.473   6.714   3.683  1.5814  1.5393 -0.9340
13513TIP3    H262031   4.604   6.765   3.739  0.9576 -0.3107  2.5231
13514TIP3   OH262032   0.248   4.026   1.915  0.1454  0.1171 -0.2478
13514TIP3    H162033   0.296   3.969   1.856 -0.9671  1.2935 -2.3903
13514TIP3    H262034   0.243   3.977   1.997  1.8118 -1.5395 -1.0678
13515TIP3   OH262035   4.296   2.826  13.569 -0.3151 -0.5778  0.3904
13515TIP3    H162036   4.308   2.754  13.508 -1.4455 -0.8219  0.4276
13515TIP3    H262037   4.207   2.858  13.550  0.0596  0.6110  0.5698
13516TIP3   OH262038   3.502   1.641  15.643 -0.2548  0.4860 -0.0997
13516TIP3    H162039   3.540   1.567  15.691 -0.9382  0.4385  0.3757
13516TIP3    H262040   3.562   1.713  15.659  0.3347  0.0812 -0.4368
13517TIP3   OH262041   2.510   2.348  15.452 -0.5051  0.2731 -0.2372
13517TIP3    H162042   2.557   2.288  15.510 -0.9571 -0.2467 -0.4073
13517TIP3    H262043   2.577   2.380  15.391 -0.1167  0.4944  0.2995
13518TIP3   OH262044   4.623   4.032   0.172  0.1875 -0.2210 -0.0927
13518TIP3    H162045   4.668   3.949   0.186  0.7499 -0.2242 -1.6824
13518TIP3    H262046   4.624   4.074   0.258 -0.3554 -1.9524  0.8081
13519TIP3   OH262047   4.640   4.963  14.190  0.2673  0.0469 -0.4760
13519TIP3    H162048   4.678   5.041  14.150  0.7723 -0.4793 -1.0308
13519TIP3    H262049   4.596   4.996  14.268  0.7988  0.8382 -0.4971
13520TIP3   OH262050   1.693   3.891   6.364  0.6539  0.5026  0.0417
13520TIP3    H162051   1.777   3.847   6.379  0.2514  0.2720  1.8124
13520TIP3    H262052   1.651   3.838   6.296  0.5675 -1.4067  1.4856
13521TIP3   OH262053   2.130   2.589   4.929  0.4825 -0.2474 -0.1407
13521TIP3    H162054   2.162   2.499   4.922  1.2760  0.0599 -0.5879
13521TIP3    H262055   2.209   2.642   4.928  0.0048  0.4698 -0.0868
13522TIP3   OH262056   4.271   0.018   5.999  0.3898  0.2666 -0.2090
13522TIP3    H162057   4.257   0.108   5.969  0.9254 -0.0245 -1.3541
13522TIP3    H262058   4.207   0.007   6.070 -0.5798  1.1186 -0.9242
13523TIP3   OH262059   2.132   0.475   6.497  0.2989  0.1275 -0.0626
13523TIP3    H162060   2.207   0.419   6.479 -1.8120 -2.3080 -2.0332
13523TIP3    H262061   2.150   0.556   6.449  1.2530 -0.7416 -1.2198
13524TIP3   OH262062   5.364   2.605  14.068 -0.1171  0.1300 -0.0313
13524TIP3    H162063   5.316   2.687  14.061 -0.0163  0.1468 -0.5230
13524TIP3    H262064   5.296   2.538  14.081 -0.4365 -0.0758 -2.3943
13525TIP3   OH262065   1.870   2.789  12.153 -0.7431  0.0746  0.3357
13525TIP3    H162066   1.788   2.798  12.105 -0.8391 -0.5173  0.3817
13525TIP3    H262067   1.890   2.877  12.184 -0.6028  0.5140 -0.9191
13526TIP3   OH262068   0.328   0.643   2.488  0.1260  1.2255 -0.2799
13526TIP3    H162069   0.411   0.629   2.442 -0.0926 -0.3549 -0.2405
13526TIP3    H262070   0.275   0.694   2.426  1.2771  2.7102 -0.0926
13527TIP3   OH262071   0.502   6.618   3.552 -0.3570  0.1164  0.2474
13527TIP3    H162072   0.441   6.689   3.532 -1.1327 -0.4397  0.5738
13527TIP3    H262073   0.585   6.662   3.570 -0.8387  0.9454  0.4975
13528TIP3   OH262074   3.423   0.228  14.368 -0.4212 -0.3482 -0.3501
13528TIP3    H162075   3.480   0.246  14.294 -0.0475 -1.8555 -0.4641
13528TIP3    H262076   3.345   0.281  14.352  0.0416  0.0488 -1.3410
13529TIP3   OH262077   3.250   2.521  12.438 -0.5244  0.0777  0.2005
13529TIP3    H162078   3.280   2.488  12.354  1.4147  0.2810  0.7560
13529TIP3    H262079   3.169   2.472  12.457 -0.9308 -0.0391 -1.6925
13530TIP3   OH262080   5.547   5.307  15.296 -0.1364 -1.0535 -0.2483
13530TIP3    H162081   5.573   5.399  15.298 -0.0436 -1.0573 -0.9874
13530TIP3    H262082   5.610   5.263  15.354 -0.7193 -0.5310  0.8067
13531TIP3   OH262083   1.936   1.962   0.181  0.3181  0.4778 -0.2175
13531TIP3    H162084   1.968   1.876   0.157 -1.7962 -0.4566  0.1307
13531TIP3    H262085   2.003   1.996   0.241  0.8240 -1.2172  0.2255
13532TIP3   OH262086   5.823   3.912   0.416 -0.4628  0.3255  0.1230
13532TIP3    H162087   5.785   3.997   0.438 -0.5090 -0.0321  1.5588
13532TIP3    H262088   5.843   3.918   0.323  0.3223  2.2022  0.3638
13533TIP3   OH262089   3.848   3.449  17.074  0.3136  0.4079  0.4423
13533TIP3    H162090   3.761   3.410  17.081  1.2590 -1.9598 -0.2273
13533TIP3    H262091   3.832   3.543  17.061 -2.0665  0.3391  2.2496
13534TIP3   OH262092   0.956   6.288   4.174 -0.2297  0.0911  0.3535
13534TIP3    H162093   1.048   6.302   4.197  0.2619 -0.8474 -0.9240
13534TIP3    H262094   0.918   6.248   4.253  0.7674 -0.6487  0.4846
13535TIP3   OH262095   4.748   1.979   3.356 -0.1077  0.1996  0.7229
13535TIP3    H162096   4.757   1.937   3.270  3.5928  0.3392  0.8989
13535TIP3    H262097   4.784   1.916   3.418 -4.0979 -0.5657  2.5790
13536TIP3   OH262098   1.429   3.211   1.367 -1.0489 -0.2066 -1.1531
13536TIP3    H162099   1.385   3.133   1.335 -1.8289 -0.2628 -0.0198
13536TIP3    H262100   1.358   3.272   1.388 -0.5836 -0.0881  0.1851
13537TIP3   OH262101   1.817   0.148  15.181  0.4542  0.2913 -0.0187
13537TIP3    H162102   1.753   0.167  15.112 -0.2580  2.2966  1.1262
13537TIP3    H262103   1.789   0.063  15.216  0.2216 -0.2667 -1.4635
13538TIP3   OH262104   2.835   2.118   5.452  0.7427 -0.0925  0.2393
13538TIP3    H162105   2.781   2.095   5.377  1.4996  0.4006 -0.4714
13538TIP3    H262106   2.809   2.057   5.521 -1.5175  0.8225  0.2972
13539TIP3   OH262107   2.656   0.129  17.303  0.4262  0.2893 -0.2761
13539TIP3    H162108   2.667   0.199  17.239 -0.4926  0.7547  0.0630
13539TIP3    H262109   2.590   0.161  17.364  2.3801  0.5250  1.8685
13540TIP3   OH262110   0.186   2.162   5.887 -0.2173 -0.2178 -0.2170
13540TIP3    H162111   0.110   2.204   5.846  1.0119  0.9093 -1.4450
13540TIP3    H262112   0.221   2.105   5.819  0.7593  0.2262 -0.0953
13541TIP3   OH262113   1.809   3.503   3.541  0.4807 -0.3444 -0.2285
13541TIP3    H162114   1.824   3.494   3.447 -1.2099 -1.2450 -0.4521
13541TIP3    H262115   1.791   3.414   3.571  0.3940  0.0129  0.8423
13542TIP3   OH262116   3.016   1.409  15.104  0.3397 -0.3567 -0.5952
13542TIP3    H162117   3.102   1.420  15.065  0.6169  1.1812  0.3517
13542TIP3    H262118   2.963   1.369  15.036  1.0035  1.4896 -2.2857
13543TIP3   OH262119   5.061   5.050   0.787  0.0891  0.1173 -0.4625
13543TIP3    H162120   5.124   5.026   0.720  0.9394 -1.3304  0.7743
13543TIP3    H262121   5.001   4.974   0.791 -0.1226  0.3088  0.1924
13544TIP3   OH262122   2.441   3.621   3.914 -0.1753 -0.1072 -0.0538
13544TIP3    H162123   2.508   3.689   3.919  0.3668 -0.5496 -1.0873
13544TIP3    H262124   2.359   3.668   3.907  0.3131  0.5162 -2.7580
13545TIP3   OH262125   1.744   1.108  16.254  0.3543 -0.0651 -1.0170
13545TIP3    H162126   1.687   1.184  16.243  1.2082  0.9746  1.1460
13545TIP3    H262127   1.812   1.119  16.188  0.9670  1.5963 -0.1660
13546TIP3   OH262128   5.668   3.143   3.790  0.8311  0.6339  0.0207
13546TIP3    H162129   5.758   3.113   3.801 -0.4044 -3.0113  1.4686
13546TIP3    H262130   5.637   3.159   3.879 -0.5073 -0.0223 -0.3055
13547TIP3   OH262131   1.054   0.467  12.610 -0.0328 -0.5003 -0.2895
13547TIP3    H162132   0.975   0.505  12.570 -0.8360 -1.2789  0.5075
13547TIP3    H262133   1.113   0.541  12.621 -0.7731  0.1593 -0.6199
13548TIP3   OH262134   1.475   1.691  11.934  0.0108 -0.0987 -0.2193
13548TIP3    H162135   1.538   1.752  11.896 -1.0115 -0.3071 -2.3656
13548TIP3    H262136   1.430   1.653  11.859 -2.1688 -0.5061  1.2117
13549TIP3   OH262137   2.891   0.578  14.192  0.2491 -0.1302  0.6919
13549TIP3    H162138   2.844   0.613  14.268  1.6905  4.9611 -0.3567
13549TIP3    H262139   2.977   0.554  14.225  0.4594  0.8982  0.9325
13550TIP3   OH262140   5.730   1.515   4.811 -0.7591 -0.0619 -0.6233
13550TIP3    H162141   5.818   1.525   4.849 -0.3497 -0.6495 -1.3934
13550TIP3    H262142   5.671   1.549   4.879 -0.0070 -0.5395  0.2966
13551TIP3   OH262143   1.811   0.174  12.939 -0.0712  0.4336 -0.1777
13551TIP3    H162144   1.904   0.153  12.931  0.2753  1.7251  0.1426
13551TIP3    H262145   1.794   0.237  12.869 -0.3395  1.2700  0.6108
13552TIP3   OH262146   1.681   0.228   2.088  0.0273  0.3075 -0.3830
13552TIP3    H162147   1.709   0.146   2.047 -0.0144  0.0298  0.1483
13552TIP3    H262148   1.639   0.277   2.017 -0.4321 -0.3541 -0.5749
13553TIP3   OH262149   4.512   0.566  12.473 -0.2377  0.4704 -0.0064
13553TIP3    H162150   4.526   0.660  12.479 -0.3906  0.4074  1.8916
13553TIP3    H262151   4.475   0.541  12.558 -2.4824 -0.9493 -1.2857
13554TIP3   OH262152   5.661   3.214  16.818  0.5326  0.9668 -0.0225
13554TIP3    H162153   5.659   3.201  16.913  0.4697 -0.4442 -0.2106
13554TIP3    H262154   5.655   3.309  16.808 -2.0660  1.0479  1.3168
13555TIP3   OH262155   6.237   2.205  15.465 -0.8353 -0.2239 -0.0643
13555TIP3    H162156   6.301   2.206  15.394 -0.6678 -0.9277  0.0702
13555TIP3    H262157   6.287   2.230  15.543 -0.5831 -1.3210  0.1433
13556TIP3   OH262158   4.488   5.034  13.054  0.4752 -0.3729  0.8285
13556TIP3    H162159   4.452   4.985  13.128  1.3286 -1.2118  0.7078
13556TIP3    H262160   4.551   4.974  13.015 -0.4903 -0.2334 -1.0471
13557TIP3   OH262161   5.195   4.416  12.521 -0.6086 -0.2636  0.5378
13557TIP3    H162162   5.279   4.433  12.478 -0.8813 -0.4234 -0.0779
13557TIP3    H262163   5.194   4.321  12.535 -1.7938 -0.7055 -1.9244
13558TIP3   OH262164   6.123   0.120   2.089  0.0230  0.3451  0.5324
13558TIP3    H162165   6.107   0.026   2.093  1.6522  0.0651  1.0386
13558TIP3    H262166   6.091   0.146   2.002 -2.7147 -0.1743  1.2961
13559TIP3   OH262167   4.711   0.101   2.358 -0.4437 -0.0853 -0.4398
13559TIP3    H162168   4.722   0.190   2.326 -0.1354 -0.0168 -0.1490
13559TIP3    H262169   4.628   0.102   2.406  0.9403  0.8067  2.1080
13560TIP3   OH262170   0.374   4.662  16.573 -0.3111 -0.6578 -0.6376
13560TIP3    H162171   0.399   4.705  16.655 -2.1433  0.1504 -0.4405
13560TIP3    H262172   0.436   4.591  16.563  1.3803  0.6114  0.2668
13561TIP3   OH262173   4.268   4.391  11.881 -0.1682  0.0417 -0.3396
13561TIP3    H162174   4.267   4.327  11.952  3.3896 -0.8474 -0.9201
13561TIP3    H262175   4.271   4.339  11.801  0.0590  0.9539 -0.9497
13562TIP3   OH262176   3.855   5.992  17.448  0.0770  0.1397  0.0820
13562TIP3    H162177   3.945   6.024  17.453  0.8348 -1.9658  1.3168
13562TIP3    H262178   3.835   5.964  17.537 -0.3550 -2.9255 -0.8494
13563TIP3   OH262179   0.519   0.205  14.648 -0.4165 -0.1243 -0.0178
13563TIP3    H162180   0.503   0.235  14.737  2.7165  1.4123  0.1716
13563TIP3    H262181   0.436   0.220  14.602 -1.0643  2.5178  1.7744
13564TIP3   OH262182   3.171   3.369   0.815  0.2175  0.0766  0.2166
13564TIP3    H162183   3.222   3.354   0.895 -0.1572  1.9769  0.8650
13564TIP3    H262184   3.102   3.303   0.817  1.0374 -0.7775  0.7374
13565TIP3   OH262185   4.673   6.501  11.008 -0.4875  0.0538 -0.1007
13565TIP3    H162186   4.718   6.573  10.965 -0.2093  0.2568  0.5141
13565TIP3    H262187   4.651   6.440  10.938  1.2415 -0.3203 -0.3558
13566TIP3   OH262188   1.573   0.841  12.937  0.1318  0.1616  0.5273
13566TIP3    H162189   1.558   0.769  12.998  1.2676  0.7211  1.5134
13566TIP3    H262190   1.519   0.912  12.971 -0.0572  0.1548  0.2466
13567TIP3   OH262191   4.645   5.147   4.239  0.2283  0.4270 -0.0011
13567TIP3    H162192   4.601   5.217   4.191  1.2192  1.0214 -0.0761
13567TIP3    H262193   4.618   5.066   4.194 -0.2641  0.8288 -0.4400
13568TIP3   OH262194   4.117   5.452  12.521 -0.1422 -0.5544 -0.2198
13568TIP3    H162195   4.194   5.509  12.519  0.9693 -1.8784  1.4674
13568TIP3    H262196   4.108   5.427  12.613 -3.4662  0.6188 -0.0767
13569TIP3   OH262197   2.579   5.003  16.047 -0.0782  0.1658  0.7581
13569TIP3    H162198   2.556   4.959  15.966  0.0407 -0.1989  0.9231
13569TIP3    H262199   2.674   5.002  16.049 -0.0326  1.2562  0.3092
13570TIP3   OH262200   0.092   5.417   5.669  0.8036 -0.0066 -0.0008
13570TIP3    H162201   0.009   5.452   5.636  0.8843 -0.1716 -0.3910
13570TIP3    H262202   0.072   5.387   5.757  0.3525 -0.3894 -0.2282
13571TIP3   OH262203   2.527   4.561   4.570 -0.7092 -0.1538  0.0453
13571TIP3    H162204   2.446   4.604   4.542 -2.2639 -1.3419  2.3377
13571TIP3    H262205   2.501   4.469   4.582  0.7273 -0.3814  1.7478
13572TIP3   OH262206   5.420   4.047   2.799  0.3939  0.2396 -0.0865
13572TIP3    H162207   5.476   4.058   2.875  1.2504 -1.7130 -0.3746
13572TIP3    H262208   5.357   3.980   2.825  0.3563 -0.0570 -0.8902
13573TIP3   OH262209   3.199   1.840   2.418  0.2045 -0.5287 -0.0746
13573TIP3    H162210   3.157   1.831   2.333 -0.5470  2.9092 -0.2240
13573TIP3    H262211   3.126   1.838   2.480  0.2926  0.7131  0.0972
13574TIP3   OH262212   6.073   6.091  13.072  0.7705  0.5957 -0.0539
13574TIP3    H162213   6.008   6.138  13.021 -1.0320 -0.6581  0.9789
13574TIP3    H262214   6.128   6.047  13.007  0.6835  1.7487 -0.9448
13575TIP3   OH262215   5.467   6.394  13.359 -0.0219  0.2864  0.1353
13575TIP3    H162216   5.486   6.443  13.440  1.3566  1.5556 -0.9084
13575TIP3    H262217   5.503   6.448  13.289  0.8223 -1.8599 -1.1732
13576TIP3   OH262218   4.742   0.263  13.765 -0.2431 -0.2662 -0.2025
13576TIP3    H162219   4.721   0.172  13.745  0.5429  0.1219 -3.2793
13576TIP3    H262220   4.758   0.303  13.680  0.2705  2.5636  1.1200
13577TIP3   OH262221   6.343   2.484  16.515  0.1967 -0.2629 -0.1804
13577TIP3    H162222   6.335   2.422  16.588  1.9690 -1.0396 -0.6019
13577TIP3    H262223   6.371   2.565  16.555  1.1664 -0.6893  0.0276
13578TIP3   OH262224   0.313   6.594  15.430 -0.3348  0.0757 -0.0732
13578TIP3    H162225   0.276   6.663  15.375  1.2125 -0.3446 -1.7679
13578TIP3    H262226   0.330   6.521  15.369  0.8248 -0.6699  1.0773
13579TIP3   OH262227   2.806   6.388   1.616  0.1496 -0.4245  0.2583
13579TIP3    H162228   2.793   6.303   1.573  1.5940 -0.7792  0.4637
13579TIP3    H262229   2.871   6.433   1.561  0.4310 -0.0220  0.9054
13580TIP3   OH262230   0.757   2.663   2.103 -0.3220  0.5502  0.1793
13580TIP3    H162231   0.786   2.708   2.024 -2.9003 -1.0788 -1.8317
13580TIP3    H262232   0.709   2.729   2.152  0.3891  1.3020 -0.1111
13581TIP3   OH262233   1.874   0.247  17.002 -0.2767 -0.3259  0.0174
13581TIP3    H162234   1.815   0.321  16.993 -0.1695 -0.2583 -0.1421
13581TIP3    H262235   1.834   0.191  17.068  0.5512  0.7668  1.5082
13582TIP3   OH262236   3.921   1.600  11.850  0.1198 -0.0779 -0.8621
13582TIP3    H162237   3.989   1.553  11.899  0.0665  0.7541  0.0351
13582TIP3    H262238   3.956   1.607  11.761  0.0241 -2.0295 -1.0980
13583TIP3   OH262239   3.898   4.042  16.687  0.1810 -0.1611  0.1945
13583TIP3    H162240   3.836   3.996  16.744  1.2111  0.9927  2.3637
13583TIP3    H262241   3.983   4.029  16.729  0.9665  0.8974 -1.0106
13584TIP3   OH262242   2.052   5.323   2.088  0.1600  0.4293 -0.4742
13584TIP3    H162243   2.001   5.266   2.029  1.4731 -1.0814 -0.2200
13584TIP3    H262244   1.986   5.381   2.127 -0.8045  1.2839 -3.1344
13585TIP3   OH262245   0.948   0.668   3.795 -0.2010 -0.2599  0.1852
13585TIP3    H162246   0.881   0.692   3.859  0.8080 -0.3683  1.2962
13585TIP3    H262247   0.947   0.741   3.732 -0.9235  0.0386  0.5212
13586TIP3   OH262248   0.792   4.836  12.795  0.2918 -0.9782 -0.3132
13586TIP3    H162249   0.797   4.914  12.740 -0.8368  0.2101  1.1973
13586TIP3    H262250   0.707   4.798  12.774  0.0459 -0.7652  0.3001
13587TIP3   OH262251   6.154   2.979  11.712  0.4303  0.2030  0.8360
13587TIP3    H162252   6.230   3.036  11.714  1.8758 -1.4850 -0.9384
13587TIP3    H262253   6.174   2.909  11.774  1.2080 -1.1626 -0.8629
13588TIP3   OH262254   4.326   6.305   5.194 -0.5702 -0.2057 -0.1816
13588TIP3    H162255   4.419   6.293   5.176 -1.1569 -3.3970 -1.7399
13588TIP3    H262256   4.313   6.264   5.280 -0.4010  1.4241  0.6735
13589TIP3   OH262257   3.662   0.432   0.999 -0.0152  0.1747  0.3080
13589TIP3    H162258   3.639   0.385   1.079  0.1206 -0.0904  0.1946
13589TIP3    H262259   3.625   0.379   0.929 -0.7757  0.8043  0.2341
13590TIP3   OH262260   0.667   5.905   4.641 -0.9809 -0.2131  0.0033
13590TIP3    H162261   0.708   5.978   4.687  0.7327  1.8393 -4.2163
13590TIP3    H262262   0.581   5.939   4.615 -1.4072 -0.8640  0.5272
13591TIP3   OH262263   3.765   2.659   0.161 -0.1714 -0.2623  0.0986
13591TIP3    H162264   3.688   2.709   0.133  0.4912  1.1010  0.6292
13591TIP3    H262265   3.739   2.620   0.245 -0.6248 -0.6313 -0.2144
13592TIP3   OH262266   2.213   0.762   3.895 -0.1865 -0.0751  0.1961
13592TIP3    H162267   2.157   0.685   3.903  0.1138 -0.4311 -0.9291
13592TIP3    H262268   2.301   0.727   3.886 -0.2778  0.1916 -3.0635
13593TIP3   OH262269   0.279   5.826   3.543 -0.3077 -0.4376  0.0083
13593TIP3    H162270   0.330   5.846   3.464 -0.1184 -1.9804 -0.2808
13593TIP3    H262271   0.231   5.746   3.522  0.6797 -1.5846  1.8731
13594TIP3   OH262272   5.876   3.790  14.177  0.5589  0.2693  0.7782
13594TIP3    H162273   5.916   3.871  14.145  1.0104 -0.0363  0.5632
13594TIP3    H262274   5.846   3.811  14.266  0.3456  0.7772  0.5886
13595TIP3   OH262275   5.610   5.130  11.588  0.0655 -0.4018  0.2767
13595TIP3    H162276   5.645   5.077  11.516 -0.5414  0.4241 -0.6489
13595TIP3    H262277   5.567   5.204  11.545 -0.5489 -0.0290  1.4884
13596TIP3   OH262278   5.833   3.848  16.432  0.3391 -0.1491 -0.0400
13596TIP3    H162279   5.808   3.867  16.522 -0.9036 -1.5690 -0.0451
13596TIP3    H262280   5.797   3.920  16.381  1.6146  1.0030  0.6523
13597TIP3   OH262281   3.234   4.624  12.657  0.2116  0.2568  0.1675
13597TIP3    H162282   3.244   4.673  12.739 -0.3214  3.2985 -1.4067
13597TIP3    H262283   3.322   4.622  12.620  0.0652  0.9993 -0.2408
13598TIP3   OH262284   4.797   4.987   2.347  0.3520  0.0942 -0.2383
13598TIP3    H162285   4.753   4.982   2.263  3.1709 -0.5696 -1.8110
13598TIP3    H262286   4.814   4.896   2.371  1.2762  0.3307  0.0553
13599TIP3   OH262287   3.272   4.940   3.747  0.0534 -0.6142  0.0313
13599TIP3    H162288   3.365   4.926   3.765  0.1874  0.8880  0.5874
13599TIP3    H262289   3.227   4.896   3.819  0.3909  0.0177  0.6319
13600TIP3   OH262290   3.739   1.760  14.291  0.5577 -0.2112 -0.4655
13600TIP3    H162291   3.652   1.765  14.329  0.1507 -1.2616 -1.1853
13600TIP3    H262292   3.760   1.666  14.291  1.3757 -0.0448 -0.9642
13601TIP3   OH262293   1.103   4.477  11.603  0.0959  0.6653  0.0460
13601TIP3    H162294   1.169   4.435  11.547 -1.0513 -1.1271 -0.0491
13601TIP3    H262295   1.144   4.481  11.689  0.6027  0.2620 -0.1663
13602TIP3   OH262296   1.194   3.153  14.959  0.1964  0.2069 -0.3441
13602TIP3    H162297   1.263   3.092  14.933  0.6675  0.3162  0.6114
13602TIP3    H262298   1.241   3.232  14.987 -0.3310  0.4018  0.0021
13603TIP3   OH262299   5.666   0.758   1.601  0.1615  0.0154  0.4165
13603TIP3    H162300   5.609   0.691   1.563 -0.4188  1.2097 -0.9263
13603TIP3    H262301   5.606   0.818   1.647  0.6392 -0.2042  1.3597
13604TIP3   OH262302   5.555   5.745  11.035 -0.4507 -0.1793  0.1938
13604TIP3    H162303   5.539   5.651  11.038 -2.0648  0.0231 -0.9485
13604TIP3    H262304   5.648   5.752  11.012 -0.1163 -1.4567  0.9888
13605TIP3   OH262305   4.751   4.668  17.000 -0.2997  0.3707  0.3061
13605TIP3    H162306   4.809   4.594  16.983 -0.1913  0.4459  0.3495
13605TIP3    H262307   4.703   4.642  17.079 -1.1757 -0.2008 -0.3895
13606TIP3   OH262308   2.255   4.635   2.772 -0.2321 -0.4878  0.1166
13606TIP3    H162309   2.217   4.573   2.709 -1.0641  0.5711 -0.4658
13606TIP3    H262310   2.258   4.718   2.725  0.0383  0.1117  1.1615
13607TIP3   OH262311   2.730   4.590   3.874 -0.2780  0.2659 -0.0338
13607TIP3    H162312   2.693   4.652   3.812 -2.0220 -0.2512  0.4192
13607TIP3    H262313   2.760   4.516   3.821 -0.6986  0.3237 -0.3494
13608TIP3   OH262314   1.871   2.608   6.517  0.2120 -0.0348 -0.4097
13608TIP3    H162315   1.816   2.535   6.543 -1.4521  0.8824 -1.2295
13608TIP3    H262316   1.890   2.591   6.424  0.0420  0.4225 -0.5313
13609TIP3   OH262317   6.078   3.615   2.466 -0.1095  0.0243  0.4056
13609TIP3    H162318   5.985   3.637   2.461  0.0321  0.4258 -1.2959
13609TIP3    H262319   6.120   3.678   2.407  1.0171 -1.2208 -0.1773
13610TIP3   OH262320   3.009   4.616   2.580 -0.0123 -0.4516 -0.6874
13610TIP3    H162321   3.057   4.691   2.544 -1.9734  1.2271  0.0059
13610TIP3    H262322   2.981   4.566   2.503  0.7533 -0.1108 -1.1941
13611TIP3   OH262323   1.194   4.636  13.828  0.1723  0.3393 -0.2240
13611TIP3    H162324   1.163   4.712  13.879  2.6350  1.4379 -0.2353
13611TIP3    H262325   1.245   4.674  13.757  0.3551 -1.3167 -1.0191
13612TIP3   OH262326   2.107   4.964   4.659 -0.4001 -0.7945 -0.4374
13612TIP3    H162327   2.031   4.920   4.621 -0.4822 -2.1739  1.2256
13612TIP3    H262328   2.103   4.944   4.752  1.6703 -0.3850 -0.2064
13613TIP3   OH262329   2.532   5.047  17.369  0.2087 -0.3414 -0.4299
13613TIP3    H162330   2.452   5.090  17.400 -0.3855 -1.1526 -0.7852
13613TIP3    H262331   2.522   4.955  17.396  0.2824 -0.7833 -1.8255
13614TIP3   OH262332   6.541   1.332  14.975 -0.0561  0.7014  0.5402
13614TIP3    H162333   6.523   1.347  14.882 -3.9853 -0.6541  0.8767
13614TIP3    H262334   6.542   1.237  14.984 -1.7723  0.7813  2.1085
13615TIP3   OH262335   4.545   1.865   4.004 -0.0687  0.5784 -0.0299
13615TIP3    H162336   4.609   1.936   4.001  1.5527 -0.7847  0.6477
13615TIP3    H262337   4.554   1.829   4.093  0.9866 -2.0255 -1.0808
13616TIP3   OH262338   3.675   4.829  14.573  0.0532 -0.1512  0.1302
13616TIP3    H162339   3.648   4.916  14.546 -1.2700 -1.0223 -1.5957
13616TIP3    H262340   3.704   4.787  14.492 -0.1706 -1.5857  0.7625
13617TIP3   OH262341   6.470   5.099   5.650  0.4655 -0.8239  0.8503
13617TIP3    H162342   6.494   5.190   5.669 -0.6256  0.0756 -1.6169
13617TIP3    H262343   6.485   5.053   5.732  1.1784  1.5444  2.1616
13618TIP3   OH262344   4.986   5.204  17.038  0.5665 -0.0921  0.0448
13618TIP3    H162345   4.973   5.178  17.129 -0.8067  1.3858  0.3048
13618TIP3    H262346   5.072   5.168  17.015  0.9730 -0.4221  1.9312
13619TIP3   OH262347   0.093   0.055  16.682 -0.7193  0.0505 -0.3686
13619TIP3    H162348   0.168   0.114  16.680 -0.0263 -0.8181 -1.1037
13619TIP3    H262349   0.029   0.095  16.624  0.3352 -0.6487 -2.0735
13620TIP3   OH262350   3.901   0.518  12.412 -0.5631 -0.2010  0.0059
13620TIP3    H162351   3.975   0.472  12.450 -1.0642 -1.0856 -0.0644
13620TIP3    H262352   3.908   0.607  12.445  1.8235  0.3774 -1.7829
13621TIP3   OH262353   0.374   2.745  14.882  0.2795 -0.1816 -0.1536
13621TIP3    H162354   0.314   2.678  14.849  0.1022 -0.3809  0.5658
13621TIP3    H262355   0.378   2.730  14.976  1.5250 -0.2296 -0.1864
13622TIP3   OH262356   6.436   6.283   0.000  0.6465  0.0003  0.3127
13622TIP3    H162357   6.505   6.344  -0.025 -0.4930  0.7732 -1.0786
13622TIP3    H262358   6.389   6.328   0.071  1.1925 -0.2745  0.8591
13623TIP3   OH262359   6.234   4.457   5.627 -0.3423  0.2045 -0.0034
13623TIP3    H162360   6.210   4.494   5.542 -1.1564  0.5987  0.3898
13623TIP3    H262361   6.172   4.496   5.689  1.1671  1.1075  1.0163
13624TIP3   OH262362   5.332   1.191  13.515  0.1260  1.1492 -0.3190
13624TIP3    H162363   5.313   1.213  13.606  0.0708 -1.0792  0.2732
13624TIP3    H262364   5.301   1.267  13.464 -0.5033  2.1179  1.4391
13625TIP3   OH262365   1.643   4.213   5.627 -0.5003  0.1312  0.2009
13625TIP3    H162366   1.713   4.233   5.689  0.0369 -0.9388 -0.0478
13625TIP3    H262367   1.566   4.256   5.665  0.0868  0.5602  0.9474
13626TIP3   OH262368   1.744   5.535  11.938  0.5441  0.2080 -0.4244
13626TIP3    H162369   1.695   5.528  11.857  0.6696 -1.7465 -0.3770
13626TIP3    H262370   1.736   5.449  11.979 -0.9700  1.6063  2.5173
13627TIP3   OH262371   4.814   3.474  11.625  0.2802 -0.4680 -0.2588
13627TIP3    H162372   4.890   3.524  11.655  1.0422 -1.5884 -0.2562
13627TIP3    H262373   4.789   3.515  11.543  1.5395 -0.7102 -0.7795
13628TIP3   OH262374   6.091   2.823  13.580  0.7156  0.6352  0.4000
13628TIP3    H162375   6.129   2.883  13.644 -0.0665 -0.9444  2.4934
13628TIP3    H262376   6.157   2.754  13.571  0.6229  0.6155 -0.1609
13629TIP3   OH262377   5.362   3.719  13.258  0.5219 -0.1193 -0.0951
13629TIP3    H162378   5.367   3.774  13.336 -1.5353 -1.5993  1.1815
13629TIP3    H262379   5.269   3.713  13.238  1.0126  0.6785 -3.0927
13630TIP3   OH262380   2.920   4.579   6.202  0.0863 -0.8365  0.2325
13630TIP3    H162381   2.891   4.616   6.285  1.0213 -1.6887  0.9590
13630TIP3    H262382   2.903   4.485   6.209  1.3604 -1.1121  0.0028
13631TIP3   OH262383   1.793   4.730   6.013  0.1524  0.1011 -0.4235
13631TIP3    H162384   1.830   4.818   6.027 -0.1385  0.4287 -1.6043
13631TIP3    H262385   1.704   4.746   5.984 -0.1169 -0.6171  0.0012
13632TIP3   OH262386   5.494   2.637  15.687 -0.7586  0.1365  0.0513
13632TIP3    H162387   5.501   2.617  15.781 -0.8102 -1.3954 -0.2458
13632TIP3    H262388   5.483   2.732  15.684 -0.5383  0.2440  1.5851
13633TIP3   OH262389   6.026   0.251   2.478 -0.1414 -0.4459 -0.1519
13633TIP3    H162390   5.963   0.301   2.531  0.0204 -0.8425  0.4316
13633TIP3    H262391   6.088   0.316   2.447  0.3323 -0.3206  0.9825
13634TIP3   OH262392   2.695   4.382  12.200 -0.6702  0.4037 -0.0949
13634TIP3    H162393   2.707   4.301  12.250 -0.6118  0.9578  0.8064
13634TIP3    H262394   2.776   4.431  12.213  0.7389 -0.7919 -3.3694
13635TIP3   OH262395   1.625   2.308  12.167 -0.3679 -0.0787 -0.3747
13635TIP3    H162396   1.633   2.397  12.202 -1.5848  0.2686 -0.9358
13635TIP3    H262397   1.555   2.268  12.219  1.5076 -1.4533  1.2711
13636TIP3   OH262398   6.665   5.267   3.395  0.0817 -0.3358 -0.5702
13636TIP3    H162399   6.697   5.186   3.434 -0.4846 -1.1712 -1.7808
13636TIP3    H262400   6.744   5.315   3.369  0.4553  0.0825  1.2389
13637TIP3   OH262401   0.244   6.086  12.532  0.7105 -0.2761 -0.0679
13637TIP3    H162402   0.248   5.991  12.538  0.9261 -0.2460  0.3182
13637TIP3    H262403   0.288   6.117  12.611  1.2144  0.1476 -0.5066
13638TIP3   OH262404   4.806   6.693  10.835  0.2807  1.2682  0.2032
13638TIP3    H162405   4.812   6.786  10.856  0.5867  0.8135  2.3785
13638TIP3    H262406   4.736   6.687  10.770  1.0808  3.1188 -0.9086
13639TIP3   OH262407   3.138   0.200   2.682  0.3047 -0.4532  0.0879
13639TIP3    H162408   3.221   0.184   2.726  1.1481  0.4490 -1.1348
13639TIP3    H262409   3.121   0.293   2.694 -1.8690 -1.0372  2.5193
13640TIP3   OH262410   6.359   0.960   5.822 -0.6618  0.1910 -0.2216
13640TIP3    H162411   6.282   0.982   5.873 -1.8040 -1.9956 -0.8801
13640TIP3    H262412   6.325   0.923   5.741  1.1085  0.8677 -1.3387
13641TIP3   OH262413   1.227   4.384  15.844  0.2985 -0.3431  0.7175
13641TIP3    H162414   1.297   4.364  15.906  1.4880 -1.1313 -0.7999
13641TIP3    H262415   1.273   4.414  15.766 -1.1627  0.7783  0.2532
13642TIP3   OH262416   4.148   4.725  15.701  0.3165 -0.0430  0.5228
13642TIP3    H162417   4.071   4.778  15.721  0.0143 -0.6754  1.0804
13642TIP3    H262418   4.113   4.645  15.663  0.7794  0.1983 -0.4534
13643TIP3   OH262419   4.566   2.340   5.845 -0.1644  0.3604  0.2543
13643TIP3    H162420   4.492   2.368   5.898 -0.7606 -1.1561  0.2850
13643TIP3    H262421   4.554   2.246   5.835  1.1471  0.2606 -0.7094
13644TIP3   OH262422   1.590   1.474   4.575 -0.2223  0.1235 -0.5631
13644TIP3    H162423   1.569   1.407   4.510 -0.3864 -0.2341 -0.1464
13644TIP3    H262424   1.527   1.543   4.559 -0.3250 -0.0048 -0.7210
13645TIP3   OH262425   2.853   3.810  16.319 -0.0815 -0.6119 -0.5778
13645TIP3    H162426   2.915   3.751  16.361 -0.1779 -1.0912 -1.0962
13645TIP3    H262427   2.898   3.841  16.241 -0.0895 -0.1109 -0.3904
13646TIP3   OH262428   6.164   3.106  14.349  0.5036 -0.1906  0.0475
13646TIP3    H162429   6.089   3.050  14.370 -0.1519  0.8348  0.4746
13646TIP3    H262430   6.150   3.132  14.258 -0.5000  1.2398  0.5762
13647TIP3   OH262431   3.877   0.647   6.212 -0.5757  0.0393  0.6722
13647TIP3    H162432   3.837   0.728   6.245  0.4688  0.5526  0.6952
13647TIP3    H262433   3.942   0.624   6.278  0.5376  0.2838 -0.3139
13648TIP3   OH262434   6.382   0.508   4.308 -0.1447 -0.3742  0.3715
13648TIP3    H162435   6.425   0.579   4.357  3.5612 -2.9659  1.3268
13648TIP3    H262436   6.371   0.438   4.372 -0.8202 -1.7684 -1.2098
13649TIP3   OH262437   1.783   1.728  16.781  0.0985  0.5204  0.4485
13649TIP3    H162438   1.708   1.678  16.812  0.8975 -0.4972  0.8049
13649TIP3    H262439   1.808   1.686  16.699 -0.0188  1.1612  0.0814
13650TIP3   OH262440   6.028   6.133  17.363  0.2554  0.0039 -0.1895
13650TIP3    H162441   5.961   6.101  17.302  0.3165  0.9934 -0.7930
13650TIP3    H262442   6.036   6.226  17.343 -0.7750  0.7101  2.3360
13651TIP3   OH262443   6.452   5.145  13.049  0.3854 -0.1826  0.1076
13651TIP3    H162444   6.431   5.232  13.080 -1.6262 -0.6939  0.2994
13651TIP3    H262445   6.431   5.146  12.956 -0.2534 -0.6322  0.2413
13652TIP3   OH262446   4.600   6.335  17.136  0.0735 -0.2468 -0.0254
13652TIP3    H162447   4.631   6.383  17.059 -1.0017 -0.4763 -0.6195
13652TIP3    H262448   4.634   6.385  17.210  0.8983  0.1352 -0.6390
13653TIP3   OH262449   3.104   4.018   0.925  0.1264  0.6707 -0.0218
13653TIP3    H162450   3.089   3.927   0.899 -0.1851  0.4842  0.7857
13653TIP3    H262451   3.016   4.055   0.936  0.2196  1.4413 -1.5373
13654TIP3   OH262452   3.250   1.758   0.906  0.8571  0.1983  0.7192
13654TIP3    H162453   3.211   1.674   0.883 -0.2282  0.9778 -0.3734
13654TIP3    H262454   3.182   1.804   0.956  0.6550  1.2320 -0.4686
13655TIP3   OH262455   2.292   4.625  14.060 -0.3605 -0.4268 -0.3677
13655TIP3    H162456   2.307   4.617  14.154 -1.2348  0.5925 -0.1259
13655TIP3    H262457   2.370   4.586  14.020  1.5223  1.9045  0.8142
13656TIP3   OH262458   3.495   5.721  14.731 -0.6434  0.3421  0.6135
13656TIP3    H162459   3.445   5.657  14.783 -0.9532  0.0713 -0.0115
13656TIP3    H262460   3.467   5.706  14.641  1.7927 -0.9305  0.0058
13657TIP3   OH262461   2.634   2.142   2.631  0.0241 -0.1400  0.0696
13657TIP3    H162462   2.688   2.111   2.559 -0.7112  1.3700 -1.1951
13657TIP3    H262463   2.633   2.070   2.694  0.3689 -1.6529 -1.5948
13658TIP3   OH262464   3.745   4.861  14.849  0.3892  0.2980 -0.0529
13658TIP3    H162465   3.727   4.834  14.759  1.3440  0.4372 -0.3031
13658TIP3    H262466   3.806   4.795  14.883 -0.1671  0.1000  0.5860
13659TIP3   OH262467   2.273   4.138   1.099  0.2064 -0.1194  0.5742
13659TIP3    H162468   2.356   4.175   1.068 -0.4804  1.0115  0.0500
13659TIP3    H262469   2.206   4.189   1.055 -0.7865 -1.7325  0.1514
13660TIP3   OH262470   4.454   1.699  11.429  0.6123 -0.0014 -0.8258
13660TIP3    H162471   4.453   1.728  11.520 -0.3793  0.5959 -1.0137
13660TIP3    H262472   4.505   1.765  11.383 -0.5501  0.7745 -1.0304
13661TIP3   OH262473   0.995   1.099  16.022  0.3888  0.1435 -0.0471
13661TIP3    H162474   1.047   1.035  15.973 -0.4625 -0.0829 -0.6751
13661TIP3    H262475   0.934   1.134  15.958 -1.8038 -1.2764  1.1459
13662TIP3   OH262476   2.774   4.682   1.675  0.0561  0.2180  0.4523
13662TIP3    H162477   2.845   4.744   1.657 -0.0363  0.6161  1.4142
13662TIP3    H262478   2.814   4.614   1.730 -0.3672  0.6029  1.2551
13663TIP3   OH262479   2.086   6.647  13.163 -0.8984  0.5769 -0.1377
13663TIP3    H162480   2.140   6.613  13.234 -1.2576 -0.8824 -0.5384
13663TIP3    H262481   2.000   6.607  13.177 -1.4699  1.6711 -0.3900
13664TIP3   OH262482   3.879   6.371  11.806 -0.3145  0.4284 -0.5464
13664TIP3    H162483   3.906   6.443  11.749  0.9944 -0.8102 -1.5593
13664TIP3    H262484   3.861   6.298  11.746 -1.2941 -0.2091  0.4760
13665TIP3   OH262485   3.544   0.969  13.832 -0.2624 -0.3143 -0.1451
13665TIP3    H162486   3.563   0.983  13.739 -1.3932 -0.1228 -0.3610
13665TIP3    H262487   3.449   0.958  13.836 -0.1253 -1.3137  0.8725
13666TIP3   OH262488   6.342   5.618   4.921  0.2787 -0.4936 -0.0683
13666TIP3    H162489   6.269   5.569   4.885 -0.9330 -0.8402  2.6046
13666TIP3    H262490   6.360   5.687   4.857 -3.0181  0.1849 -0.4059
13667TIP3   OH262491   0.391   5.569  14.801 -0.1069 -0.1099  0.3494
13667TIP3    H162492   0.447   5.512  14.854 -0.4403 -0.9759 -0.2099
13667TIP3    H262493   0.399   5.655  14.841  1.8373 -0.1519  0.1365
13668TIP3   OH262494   6.754   3.992   3.384 -0.1717 -0.4148  0.1780
13668TIP3    H162495   6.724   4.048   3.456 -1.0586 -0.7986  0.1067
13668TIP3    H262496   6.695   4.011   3.311  1.4010  0.8128 -0.8547
13669TIP3   OH262497   2.274   0.502  12.196  0.0390  0.9455 -0.3455
13669TIP3    H162498   2.205   0.561  12.226  1.8550  1.7369  2.7910
13669TIP3    H262499   2.246   0.415  12.224 -1.1067  0.7344 -2.0110
13670TIP3   OH262500   0.424   1.971   4.507 -0.4363 -0.1911 -0.3196
13670TIP3    H162501   0.506   1.930   4.478 -0.0093  0.2784  0.2254
13670TIP3    H262502   0.443   2.005   4.594 -1.0634  0.3699 -0.3954
13671TIP3   OH262503   3.348   3.570   6.013 -0.3664 -0.9731 -0.5843
13671TIP3    H162504   3.350   3.475   6.024 -1.9787 -1.2256 -1.9674
13671TIP3    H262505   3.254   3.591   6.006  0.0362  0.3446 -2.9128
13672TIP3   OH262506   4.567   4.962  13.844  0.6260  0.6868  0.2667
13672TIP3    H162507   4.559   4.919  13.929 -0.3988 -0.2327 -0.2768
13672TIP3    H262508   4.547   4.894  13.780 -1.2793  1.9727 -0.6106
13673TIP3   OH262509   1.526   2.791  15.639  0.2110  0.8936  0.3030
13673TIP3    H162510   1.535   2.855  15.709  0.8391  2.0992 -0.8270
13673TIP3    H262511   1.438   2.804  15.605 -0.1140  0.2696  0.8923
13674TIP3   OH262512   5.722   3.696  13.964 -0.3465 -0.1147  1.0588
13674TIP3    H162513   5.753   3.627  13.905 -1.6083  1.3176 -1.4323
13674TIP3    H262514   5.786   3.696  14.035  1.4108 -1.7928 -0.3905
13675TIP3   OH262515   0.175   2.682   1.854  0.1871  0.3857  0.3380
13675TIP3    H162516   0.181   2.619   1.926 -0.9869 -0.2648 -0.1006
13675TIP3    H262517   0.082   2.702   1.847  0.1031 -0.4153 -1.6914
13676TIP3   OH262518   2.268   3.189   6.188 -0.5908 -0.3598 -0.4171
13676TIP3    H162519   2.352   3.145   6.169 -0.3903  0.2916 -1.1116
13676TIP3    H262520   2.232   3.207   6.101 -0.6778  0.8223 -0.1410
13677TIP3   OH262521   6.753   0.398  11.930  0.0868 -0.4558  0.0058
13677TIP3    H162522   6.678   0.456  11.921  0.6936  0.1400 -1.5277
13677TIP3    H262523   6.715   0.312  11.949 -0.8562  0.2476  1.5132
13678TIP3   OH262524   0.374   5.830  14.931 -0.1027 -0.0885  0.9689
13678TIP3    H162525   0.361   5.887  14.855 -1.4019 -1.6194 -0.0154
13678TIP3    H262526   0.401   5.890  15.001 -2.4441  1.9439  0.2903
13679TIP3   OH262527   2.189   1.093   1.646  0.2659 -0.6349 -0.2759
13679TIP3    H162528   2.186   1.178   1.603  0.4966 -0.0244  0.8655
13679TIP3    H262529   2.098   1.062   1.644 -0.1315  0.3928  0.7029
13680TIP3   OH262530   3.550   0.480  16.493 -0.0580  0.1626 -0.3747
13680TIP3    H162531   3.596   0.431  16.425 -0.5610 -0.2605 -0.4161
13680TIP3    H262532   3.614   0.491  16.562 -0.4983 -2.4000  0.5587
13681TIP3   OH262533   4.965   0.612   5.923  0.2745  0.1280 -0.4516
13681TIP3    H162534   5.044   0.573   5.884 -0.1203  1.0161 -2.2809
13681TIP3    H262535   4.929   0.667   5.853 -1.0863  1.0175  0.8844
13682TIP3   OH262536   2.695   0.365  17.167  0.2350 -0.1067 -0.5250
13682TIP3    H162537   2.643   0.402  17.096  0.6360 -0.3100 -0.9301
13682TIP3    H262538   2.690   0.430  17.237  0.9405  0.7268 -1.2256
13683TIP3   OH262539   2.425   1.429   5.227 -0.8532  0.6887 -0.5963
13683TIP3    H162540   2.413   1.468   5.140 -1.3477 -1.0890 -1.3820
13683TIP3    H262541   2.508   1.381   5.221 -0.6336  0.9706  0.0897
13684TIP3   OH262542   0.094   2.949   4.234 -0.3431  0.4768  0.0114
13684TIP3    H162543   0.062   2.883   4.295 -1.5971  1.4426  0.4289
13684TIP3    H262544   0.145   3.009   4.289  0.8197 -0.1260 -0.3713
13685TIP3   OH262545   5.227   2.133  14.637  0.7460  0.2992 -0.0663
13685TIP3    H162546   5.147   2.104  14.593 -0.3737  0.3887  1.7914
13685TIP3    H262547   5.243   2.221  14.603 -1.1349  1.0950  0.9680
13686TIP3   OH262548   1.206   3.793  16.163  0.5938  0.1233 -0.1898
13686TIP3    H162549   1.128   3.739  16.155  0.5405 -0.1958  1.8506
13686TIP3    H262550   1.194   3.839  16.246  1.0846  2.5642 -1.3822
13687TIP3   OH262551   4.855   0.785   5.189  0.3876 -0.4128  0.5294
13687TIP3    H162552   4.901   0.729   5.126  0.9767 -0.5555  1.0765
13687TIP3    H262553   4.825   0.725   5.257 -1.4093 -0.4594 -0.2451
13688TIP3   OH262554   2.670   6.157   1.550  0.1000  0.3283  0.3480
13688TIP3    H162555   2.605   6.087   1.559  1.7422 -1.4588 -0.9643
13688TIP3    H262556   2.727   6.129   1.479  1.3910  2.5977  0.3764
13689TIP3   OH262557   2.400   1.647   0.182  0.2576 -0.3742  0.3384
13689TIP3    H162558   2.391   1.666   0.089 -1.0960  0.6997  0.6660
13689TIP3    H262559   2.494   1.629   0.193  0.8016  1.4440 -0.8793
13690TIP3   OH262560   5.917   2.961  10.928 -0.8608  0.2027 -0.3836
13690TIP3    H162561   6.006   2.934  10.906 -0.4671 -0.8655  2.0809
13690TIP3    H262562   5.920   3.056  10.928  0.5263  0.1899  0.3976
13691TIP3   OH262563   5.969   2.622   0.380  0.5473 -0.1237 -0.0105
13691TIP3    H162564   5.982   2.527   0.381 -0.4528 -0.2684  0.1820
13691TIP3    H262565   5.881   2.634   0.345  0.7265  0.7497 -0.1902
13692TIP3   OH262566   1.384   1.019  12.393 -0.4582  0.1135 -0.1181
13692TIP3    H162567   1.461   1.046  12.443 -0.1537  1.2889 -1.1707
13692TIP3    H262568   1.376   1.085  12.324 -0.1784 -2.0246 -2.3310
13693TIP3   OH262569   5.095   1.907   2.799  0.2384  1.0185 -0.2810
13693TIP3    H162570   5.174   1.924   2.749  0.1157  0.3197 -0.7156
13693TIP3    H262571   5.055   1.994   2.810  2.0303  1.7109  1.6530
13694TIP3   OH262572   6.132   2.320  13.034  0.2673  0.0098 -0.0653
13694TIP3    H162573   6.076   2.291  12.962 -0.4672 -1.3326  0.9896
13694TIP3    H262574   6.071   2.363  13.095  0.6819  0.1264  0.2693
13695TIP3   OH262575   4.836   4.453   3.426  0.1054  0.2917 -0.0404
13695TIP3    H162576   4.913   4.510   3.412  1.2846 -0.4549  2.7264
13695TIP3    H262577   4.834   4.439   3.520 -3.6755  0.4821  0.0353
13696TIP3   OH262578   5.368   5.988   2.813  0.0001  0.5811 -0.0556
13696TIP3    H162579   5.436   6.024   2.869  0.6514  0.2890 -0.6573
13696TIP3    H262580   5.302   6.057   2.807 -1.5712 -0.3614  3.4768
13697TIP3   OH262581   4.898   3.599  14.454 -0.1357 -0.6070  0.2310
13697TIP3    H162582   4.832   3.550  14.405 -2.0546 -0.7297  2.7372
13697TIP3    H262583   4.902   3.684  14.410 -1.7419 -0.7254 -0.2018
13698TIP3   OH262584   6.345   6.545   4.161 -0.0529 -0.1457 -0.2754
13698TIP3    H162585   6.426   6.556   4.111 -0.0767  1.9231  0.0259
13698TIP3    H262586   6.351   6.457   4.198  1.0671 -0.8262 -1.9504
13699TIP3   OH262587   6.572   4.712  10.965 -0.2719 -0.0357 -0.2213
13699TIP3    H162588   6.667   4.721  10.969  0.0012 -2.5438  3.0416
13699TIP3    H262589   6.547   4.680  11.052 -4.0803  0.0282 -1.1011
13700TIP3   OH262590   2.387   2.694  15.723  0.2235 -0.3112 -0.0803
13700TIP3    H162591   2.315   2.758  15.724 -0.8981 -1.5540  0.3856
13700TIP3    H262592   2.345   2.611  15.702  1.0848 -1.5832  2.8424
13701TIP3   OH262593   0.467   0.103  12.139  0.1422  0.1735  0.3821
13701TIP3    H162594   0.435   0.176  12.086 -0.6982 -0.9756 -0.7641
13701TIP3    H262595   0.552   0.081  12.100 -0.0964 -0.1323  0.0192
13702TIP3   OH262596   2.013   4.412   2.052  0.0212  0.2438  0.1406
13702TIP3    H162597   2.031   4.506   2.055  1.4526 -0.0056  0.1572
13702TIP3    H262598   2.036   4.380   2.139 -2.9013  0.2252  1.0172
13703TIP3   OH262599   0.600   5.659   0.525  0.8446  0.4893 -0.5116
13703TIP3    H162600   0.530   5.643   0.589 -0.6261  0.4545 -2.0581
13703TIP3    H262601   0.680   5.654   0.576 -0.1236 -1.6965  0.9541
13704TIP3   OH262602   2.616   0.805  16.335 -0.9062  0.4331 -0.5308
13704TIP3    H162603   2.666   0.776  16.258 -1.6723 -0.2540 -0.7783
13704TIP3    H262604   2.607   0.900  16.323 -2.1221  0.1660 -1.9648
13705TIP3   OH262605   2.002   2.382  11.651 -0.0074  0.1867  0.0235
13705TIP3    H162606   2.071   2.446  11.635  0.2121  0.6681  2.5426
13705TIP3    H262607   1.922   2.425  11.619  0.4312  0.8594 -0.1938
13706TIP3   OH262608   6.388   0.377   1.019 -0.8917 -0.2545 -0.1089
13706TIP3    H162609   6.436   0.336   0.947  0.3219 -0.4841  0.7879
13706TIP3    H262610   6.425   0.336   1.098  0.1633  2.2805  0.8384
13707TIP3   OH262611   3.949   0.446  15.675  0.2793 -0.0981 -0.3372
13707TIP3    H162612   3.880   0.438  15.608 -0.5834 -2.9272  0.7370
13707TIP3    H262613   3.934   0.372  15.733  0.5288  2.5437  3.5008
13708TIP3   OH262614   5.475   0.361  15.648  0.1820 -0.1287 -0.3027
13708TIP3    H162615   5.399   0.333  15.597  0.8043 -1.5318 -0.5146
13708TIP3    H262616   5.439   0.408  15.723 -0.7674  2.4387 -2.2248
13709TIP3   OH262617   1.590   1.400   4.834  0.0048  0.0899 -0.1678
13709TIP3    H162618   1.649   1.326   4.837 -1.1726 -0.8665  0.0264
13709TIP3    H262619   1.584   1.422   4.741  0.8104  0.3359 -0.1702
13710TIP3   OH262620   6.529   5.699   2.462  0.6055  0.1226  0.1170
13710TIP3    H162621   6.559   5.790   2.462  0.0266  0.3318 -1.0603
13710TIP3    H262622   6.443   5.702   2.505  0.5018  0.1710 -0.0908
13711TIP3   OH262623   1.453   2.744   3.723 -0.0394  0.3845 -0.1550
13711TIP3    H162624   1.376   2.779   3.769  0.5533  0.1001  1.1022
13711TIP3    H262625   1.519   2.813   3.731  0.5681 -0.2756  0.8138
13712TIP3   OH262626   3.813   2.837   4.545 -0.2098  0.2168  0.2965
13712TIP3    H162627   3.865   2.757   4.559 -0.2860  0.1695  0.3142
13712TIP3    H262628   3.878   2.905   4.527 -0.1989 -0.0545 -0.7187
13713TIP3   OH262629   3.026   1.776   2.639  0.1500  0.8022  0.3384
13713TIP3    H162630   2.939   1.781   2.599  0.2914  3.1644  0.2062
13713TIP3    H262631   3.014   1.814   2.726  0.4657 -1.6597  1.5739
13714TIP3   OH262632   2.430   0.731  12.244  0.0284 -0.2736  0.5914
13714TIP3    H162633   2.490   0.716  12.317  3.1801 -0.9192 -1.8931
13714TIP3    H262634   2.394   0.644  12.225  0.4761 -0.4186  0.3897
13715TIP3   OH262635   1.779   2.048   2.735  0.2192  0.0593 -0.4637
13715TIP3    H162636   1.852   2.028   2.676 -0.3935  1.0763 -1.6296
13715TIP3    H262637   1.701   2.032   2.682 -0.3970 -0.4258  0.5692
13716TIP3   OH262638   6.641   2.247   0.211 -0.2945 -0.4229 -0.5738
13716TIP3    H162639   6.566   2.243   0.269  0.1663  1.0065  0.1447
13716TIP3    H262640   6.717   2.246   0.269  0.1811  0.4675 -1.1527
13717TIP3   OH262641   2.032   1.725   1.960 -0.3091 -0.6211 -0.0111
13717TIP3    H162642   2.078   1.802   1.994  0.5357 -1.2795  0.3620
13717TIP3    H262643   2.026   1.740   1.866 -0.9230  0.2997  0.1557
13718TIP3   OH262644   0.999   3.615  12.578  0.3226 -0.4108 -0.1780
13718TIP3    H162645   0.961   3.555  12.642  0.5546 -0.8329 -0.4300
13718TIP3    H262646   0.950   3.598  12.497 -0.3388  0.4975  0.0040
13719TIP3   OH262647   3.588   3.588  15.165 -0.2222 -0.0605 -0.4391
13719TIP3    H162648   3.549   3.556  15.083  0.7437  0.1443 -0.9871
13719TIP3    H262649   3.592   3.510  15.220 -0.9859 -0.1781 -0.5348
13720TIP3   OH262650   4.815   2.948   4.987 -0.0142 -0.3643  0.1441
13720TIP3    H162651   4.867   3.028   4.984  0.7750 -0.6628  3.0830
13720TIP3    H262652   4.740   2.966   4.931  1.3795  1.4592 -1.2546
13721TIP3   OH262653   2.496   0.528  15.352  0.2151 -0.2996 -0.1208
13721TIP3    H162654   2.505   0.585  15.428 -0.4911  0.5408 -0.6621
13721TIP3    H262655   2.585   0.522  15.316  0.1521  1.1588 -0.5604
13722TIP3   OH262656   5.230   3.384   3.255  0.0106 -0.0517 -0.2090
13722TIP3    H162657   5.136   3.374   3.240  0.3443 -1.1813 -1.7794
13722TIP3    H262658   5.269   3.375   3.168  1.6634 -0.7329  0.5709
13723TIP3   OH262659   0.743   1.583  13.284  0.6181 -0.3635  0.3084
13723TIP3    H162660   0.786   1.664  13.309 -0.1645  0.0235  0.4312
13723TIP3    H262661   0.814   1.527  13.252  1.3344 -0.0888  1.3739
13724TIP3   OH262662   5.802   0.825   1.373 -0.0871 -0.3581  0.0979
13724TIP3    H162663   5.720   0.796   1.334 -0.9371  0.0195  1.5430
13724TIP3    H262664   5.797   0.796   1.464  2.1239 -1.8095 -0.1676
13725TIP3   OH262665   3.987   4.530  17.150 -0.2625 -0.0366 -0.2957
13725TIP3    H162666   3.937   4.598  17.104 -0.8426 -0.2048  0.0770
13725TIP3    H262667   4.075   4.567  17.158 -0.2008  0.0907 -1.3306
13726TIP3   OH262668   4.567   1.259  14.391 -0.5151  0.3597 -0.1293
13726TIP3    H162669   4.578   1.166  14.371  0.7471  0.0848  1.5493
13726TIP3    H262670   4.550   1.261  14.486  0.1073  1.8767 -0.0230
13727TIP3   OH262671   6.085   3.745   4.072 -0.0162  0.4307 -0.0238
13727TIP3    H162672   6.085   3.819   4.012 -0.1031  1.5306  1.2805
13727TIP3    H262673   5.996   3.741   4.106  0.6374  1.5628  2.0243
13728TIP3   OH262674   5.524   5.273  17.211 -0.2265  0.3988 -0.3208
13728TIP3    H162675   5.435   5.253  17.180 -1.2011  2.1376  1.1472
13728TIP3    H262676   5.545   5.358  17.172 -0.1471  1.0554  1.0765
13729TIP3   OH262677   1.850   1.882   1.708  0.5170 -0.5842 -0.7352
13729TIP3    H162678   1.865   1.971   1.741  2.6265 -0.8564 -0.7918
13729TIP3    H262679   1.889   1.883   1.620  0.2031 -1.4510 -0.8937
13730TIP3   OH262680   3.522   5.959  16.982 -0.2649  0.0777 -0.9025
13730TIP3    H162681   3.511   5.906  17.061  0.1899  0.8957 -0.2784
13730TIP3    H262682   3.441   6.008  16.974 -1.6243 -2.2451 -2.7107
13731TIP3   OH262683   6.011   3.721   5.375  0.0476  0.3000  0.3896
13731TIP3    H162684   5.986   3.635   5.410 -0.2087 -0.0291 -0.5710
13731TIP3    H262685   5.931   3.754   5.335  0.3358  0.6687  0.1202
13732TIP3   OH262686   0.970   1.876  15.758 -0.2491 -0.6140 -0.1423
13732TIP3    H162687   0.961   1.803  15.697  0.4561 -1.4286  0.7128
13732TIP3    H262688   1.021   1.841  15.831  0.6889  0.9204 -0.0261
13733TIP3   OH262689   2.679   5.694  17.414 -0.2448 -0.5139  0.4178
13733TIP3    H162690   2.666   5.630  17.484  3.1273 -0.9262  0.8119
13733TIP3    H262691   2.766   5.730  17.429 -0.9405  2.2660 -1.3771
13734TIP3   OH262692   2.014   2.524  14.688  0.0727  0.1054  0.3166
13734TIP3    H162693   2.039   2.454  14.627  0.7783 -0.1969  0.9430
13734TIP3    H262694   2.077   2.594  14.673 -1.5131  1.2515 -1.3552
13735TIP3   OH262695   4.771   1.044  13.595 -0.4151 -0.5433  0.0535
13735TIP3    H162696   4.756   0.982  13.667 -1.9230  0.4911  0.6876
13735TIP3    H262697   4.862   1.069  13.605 -0.2927 -1.2509  0.9332
13736TIP3   OH262698   0.591   5.810  16.719 -0.0935 -0.4845 -0.3404
13736TIP3    H162699   0.597   5.783  16.811 -0.8758  0.9460  0.1758
13736TIP3    H262700   0.529   5.750  16.680  0.7406 -1.5187 -0.1167
13737TIP3   OH262701   2.421   1.576  16.907  0.1168  0.3970 -0.2804
13737TIP3    H162702   2.427   1.641  16.837  0.8641  0.3987 -0.2283
13737TIP3    H262703   2.329   1.577  16.934  0.4140  2.6609  0.8875
13738TIP3   OH262704   0.691   4.510   6.504  0.0204  0.1767 -0.1387
13738TIP3    H162705   0.632   4.474   6.571 -1.1137  0.8735 -0.7229
13738TIP3    H262706   0.770   4.533   6.552 -0.8098  0.7697  0.9976
13739TIP3   OH262707   3.272   0.863  14.509 -0.3517 -0.3850  0.7490
13739TIP3    H162708   3.314   0.810  14.441 -1.6454 -0.5609  0.0419
13739TIP3    H262709   3.317   0.839  14.589  2.2197  0.9026 -0.1920
13740TIP3   OH262710   0.983   3.467  14.891  0.3193  0.1120 -0.0462
13740TIP3    H162711   0.987   3.388  14.838  0.5418  0.2777 -0.2845
13740TIP3    H262712   1.019   3.535  14.834 -0.5570  0.5297 -0.1142
13741TIP3   OH262713   6.327   0.376   0.520 -0.1169  0.1013  0.0011
13741TIP3    H162714   6.250   0.433   0.518  0.5826  1.0431 -0.5901
13741TIP3    H262715   6.301   0.303   0.577 -0.9804  1.0610  0.8836
13742TIP3   OH262716   0.283   2.509  15.809 -0.7419  0.2347 -1.1344
13742TIP3    H162717   0.201   2.554  15.825 -0.7373 -0.2606  0.4410
13742TIP3    H262718   0.258   2.428  15.764 -0.9768  0.6761 -1.8081
13743TIP3   OH262719   4.583   4.346  16.202  0.3053  0.3105  0.4256
13743TIP3    H162720   4.631   4.329  16.283 -1.0124  1.3527  1.4535
13743TIP3    H262721   4.510   4.285  16.204  1.2757 -0.9793 -0.9393
13744TIP3   OH262722   0.323   0.524   0.684  0.0891 -0.8280 -0.2931
13744TIP3    H162723   0.261   0.463   0.644  1.6404 -2.0810 -0.8997
13744TIP3    H262724   0.376   0.470   0.743  0.4407  0.2589  0.4346
13745TIP3   OH262725   6.109   5.797  13.005  0.9272 -0.0054  0.0151
13745TIP3    H162726   6.097   5.703  13.016  3.6709 -0.3849  0.3896
13745TIP3    H262727   6.156   5.806  12.922 -0.3213  1.1854 -0.6200
13746TIP3   OH262728   4.011   5.438   4.155 -0.1897  0.9987  0.8575
13746TIP3    H162729   4.049   5.508   4.102  2.0893 -1.1444 -0.5498
13746TIP3    H262730   4.071   5.429   4.229 -0.5446  0.6312  1.1035
13747TIP3   OH262731   0.015   1.186   5.996 -0.1083 -0.0655  0.1989
13747TIP3    H162732   0.062   1.133   5.932 -1.6777 -0.4660 -0.6731
13747TIP3    H262733   0.016   1.274   5.959  0.6038  0.0943  0.5734
13748TIP3   OH262734   1.966   1.222  11.071  0.0795  0.0729  0.3698
13748TIP3    H162735   1.919   1.229  10.988  1.2400 -1.3693 -0.4632
13748TIP3    H262736   2.031   1.152  11.056  0.5351  0.0041  2.3817
13749TIP3   OH262737   4.934   3.781   3.280 -0.1009  0.3379  0.4170
13749TIP3    H162738   4.903   3.733   3.204  0.7985 -0.0706  0.2953
13749TIP3    H262739   4.993   3.847   3.243  1.6221 -0.8927  0.8443
13750TIP3   OH262740   1.143   4.500  11.860 -0.0225  0.6829  0.1151
13750TIP3    H162741   1.176   4.448  11.933 -0.5803 -0.4033 -0.3776
13750TIP3    H262742   1.109   4.580  11.900 -1.5461 -0.4682  1.2298
13751TIP3   OH262743   4.251   6.515  14.285  0.2174 -0.5794 -0.2694
13751TIP3    H162744   4.308   6.577  14.241  0.1919 -0.4164 -0.0762
13751TIP3    H262745   4.309   6.445  14.314  0.3411 -0.3496  0.0437
13752TIP3   OH262746   2.416   4.568  16.787  0.5138  0.5407 -0.5849
13752TIP3    H162747   2.410   4.565  16.691 -0.9866  0.4542 -0.5131
13752TIP3    H262748   2.386   4.481  16.815  2.7623 -0.1300 -0.0671
13753TIP3   OH262749   4.284   2.041   1.660 -0.3479 -0.4998 -0.1593
13753TIP3    H162750   4.189   2.044   1.667 -0.2980 -1.4438  1.3809
13753TIP3    H262751   4.301   1.984   1.585 -1.0016 -1.0759  0.1272
13754TIP3   OH262752   0.713   1.547  15.946 -0.0018 -0.5078  0.0920
13754TIP3    H162753   0.629   1.503  15.933  0.1799 -0.4930 -1.3821
13754TIP3    H262754   0.692   1.640  15.940 -0.0935 -0.4469  1.2371
13755TIP3   OH262755   3.949   2.091   0.770 -0.3782  0.0574  0.2408
13755TIP3    H162756   3.948   2.109   0.864  1.3685  2.4176 -0.1037
13755TIP3    H262757   3.876   2.143   0.735  0.7380  1.5018 -0.0067
13756TIP3   OH262758   4.840   6.010  16.329 -0.9791 -0.3923 -0.0149
13756TIP3    H162759   4.884   6.092  16.353  0.4696 -0.7379 -1.3179
13756TIP3    H262760   4.758   6.038  16.288 -2.0447  0.2755  2.4160
13757TIP3   OH262761   2.258   2.152   6.357 -0.0665  0.2764  0.1072
13757TIP3    H162762   2.262   2.221   6.423 -0.4975 -0.2080  0.6473
13757TIP3    H262763   2.303   2.189   6.281  1.0012  0.5996  0.8794
13758TIP3   OH262764   5.948   0.706  15.648 -0.1427  0.0528  0.2518
13758TIP3    H162765   5.870   0.706  15.704  0.5680  0.0667  1.2671
13758TIP3    H262766   5.985   0.794  15.659  1.2233 -0.6283  1.5505
13759TIP3   OH262767   2.447   2.973  14.565  0.4355  1.1680  0.0998
13759TIP3    H162768   2.540   2.983  14.586  0.9047 -1.7693 -0.0923
13759TIP3    H262769   2.442   2.991  14.471  1.0698  0.2007 -0.1382
13760TIP3   OH262770   6.447   3.582  15.683 -0.2712  0.2394 -0.5202
13760TIP3    H162771   6.409   3.622  15.762  0.6970 -0.2407  0.2092
13760TIP3    H262772   6.475   3.495  15.712  0.9752  0.4185 -1.1527
13761TIP3   OH262773   5.801   3.726  15.233 -0.1272 -0.2491 -0.0652
13761TIP3    H162774   5.827   3.634  15.224 -0.8103 -0.4510  0.0009
13761TIP3    H262775   5.725   3.724  15.291  0.1234  0.4053  0.2916
13762TIP3   OH262776   2.547   2.575   5.179 -0.0940  0.1132  0.0868
13762TIP3    H162777   2.526   2.603   5.090  1.6390  1.1374 -0.0418
13762TIP3    H262778   2.601   2.496   5.167 -1.2986 -0.7611  0.3055
13763TIP3   OH262779   2.599   4.134   0.577 -0.4504  0.7286 -0.0828
13763TIP3    H162780   2.629   4.068   0.514 -0.9699 -0.3522  0.7661
13763TIP3    H262781   2.670   4.198   0.581  0.0064  0.2917 -1.0314
13764TIP3   OH262782   2.666   5.965   0.879 -0.3780  0.2503  0.2686
13764TIP3    H162783   2.650   5.979   0.785  0.3046  1.5500  0.3155
13764TIP3    H262784   2.580   5.978   0.920 -0.1154  3.2091  0.1340
13765TIP3   OH262785   5.218   3.754   4.375 -0.2980  0.4619  0.3715
13765TIP3    H162786   5.192   3.839   4.340 -0.2928  1.1197  1.8633
13765TIP3    H262787   5.249   3.705   4.300  0.1307  1.9462 -0.4523
13766TIP3   OH262788   5.315   2.486  15.520 -0.2156 -0.0201 -0.0368
13766TIP3    H162789   5.394   2.527  15.557 -0.8995  2.1684 -0.8554
13766TIP3    H262790   5.348   2.406  15.478  1.2294 -0.2563  1.4399
13767TIP3   OH262791   2.553   4.640   3.444 -0.0562 -0.2289  0.3869
13767TIP3    H162792   2.469   4.686   3.441  0.0792 -0.0286 -0.3059
13767TIP3    H262793   2.541   4.564   3.388  0.4879  0.2490 -0.4035
13768TIP3   OH262794   1.185   6.620   3.482 -0.1626 -0.2105  0.4404
13768TIP3    H162795   1.269   6.596   3.443 -0.4244  0.0437 -0.2969
13768TIP3    H262796   1.150   6.538   3.515 -0.0101 -0.4604 -0.0120
13769TIP3   OH262797   6.196   1.413  15.650  0.5752 -0.0829  0.0358
13769TIP3    H162798   6.172   1.505  15.640  0.9149  0.1318  1.0416
13769TIP3    H262799   6.114   1.368  15.670  0.3926 -0.0203 -0.5639
13770TIP3   OH262800   4.133   3.974   4.524  0.1392 -0.3941  1.1271
13770TIP3    H162801   4.065   4.024   4.568  1.3150  0.6169  1.8234
13770TIP3    H262802   4.116   3.883   4.549 -1.1056 -0.1969  1.0564
13771TIP3   OH262803   6.147   6.753   5.015 -0.1595 -0.1069  0.5599
13771TIP3    H162804   6.224   6.695   5.011 -0.3672 -0.3032 -0.7133
13771TIP3    H262805   6.156   6.811   4.940 -0.8155  0.4452  0.8971
13772TIP3   OH262806   4.605   4.930  16.640  0.2838 -0.2989  0.9064
13772TIP3    H162807   4.537   4.863  16.637  1.6126 -1.7229  1.0886
13772TIP3    H262808   4.587   4.987  16.565 -1.3035 -0.4112  1.1785
13773TIP3   OH262809   1.080   0.362   5.140 -0.1032 -0.0635  0.0209
13773TIP3    H162810   1.017   0.307   5.187  0.2983 -0.7185 -0.1919
13773TIP3    H262811   1.042   0.450   5.142 -1.6816 -0.6655 -1.2180
13774TIP3   OH262812   6.746   3.619   3.393  0.9584  0.6442  0.1000
13774TIP3    H162813   6.682   3.591   3.329  0.8513  0.9679  0.0609
13774TIP3    H262814   6.694   3.653   3.467  1.0663 -0.7321  0.8319
13775TIP3   OH262815   5.268   5.153  15.175  0.1678 -0.1423 -0.2855
13775TIP3    H162816   5.211   5.188  15.244 -1.1903 -2.5009 -0.0940
13775TIP3    H262817   5.235   5.194  15.095 -0.1731  0.4086  0.1247
13776TIP3   OH262818   3.912   3.032  15.494 -0.1191  0.6817  0.0043
13776TIP3    H162819   3.820   3.017  15.515 -0.0244 -0.0777 -0.0861
13776TIP3    H262820   3.914   3.038  15.398  0.1740 -1.2771 -0.1518
13777TIP3   OH262821   4.972   0.517  11.274 -0.2685 -0.2320  0.5296
13777TIP3    H162822   4.955   0.606  11.242 -0.1110  0.3547  2.0238
13777TIP3    H262823   4.906   0.463  11.230 -0.4532  0.6298 -0.2959
13778TIP3   OH262824   2.883   0.685  17.470 -0.3429  0.2291  0.1056
13778TIP3    H162825   2.884   0.653  17.560  1.9109 -0.1610 -0.0157
13778TIP3    H262826   2.916   0.774  17.475 -4.1857  1.8660  0.0991
13779TIP3   OH262827   0.220   3.149   2.986 -0.2217  0.6183  0.4260
13779TIP3    H162828   0.133   3.180   3.012 -0.7549 -0.4297 -0.0766
13779TIP3    H262829   0.210   3.120   2.896  0.4607 -0.2047  0.5987
13780TIP3   OH262830   0.426   4.252  15.679  0.0854 -0.7002  0.1870
13780TIP3    H162831   0.473   4.182  15.725 -0.4009 -0.9817  0.2684
13780TIP3    H262832   0.436   4.230  15.586 -0.7136 -1.3197  0.2354
13781TIP3   OH262833   2.813   2.205   0.635 -0.2730 -0.0309 -0.1680
13781TIP3    H162834   2.865   2.191   0.556  0.2695  0.8686  0.0141
13781TIP3    H262835   2.830   2.296   0.659 -0.5167 -0.2610  0.9256
13782TIP3   OH262836   3.394   1.007   3.792  0.5483  0.0568 -0.0750
13782TIP3    H162837   3.397   1.086   3.845  0.7878  0.2783 -0.4186
13782TIP3    H262838   3.472   0.958   3.818  1.0643  0.5074 -0.7487
13783TIP3   OH262839   0.392   6.728  16.868 -0.4363  0.5509  0.0493
13783TIP3    H162840   0.325   6.682  16.817 -0.4298  0.2825  0.2762
13783TIP3    H262841   0.350   6.742  16.954  1.2467 -3.5982  1.8016
13784TIP3   OH262842   2.829   6.265  15.048  0.4327  0.5049 -0.5481
13784TIP3    H162843   2.899   6.226  15.100 -0.4403 -0.5289 -0.1213
13784TIP3    H262844   2.797   6.193  14.994 -0.3424  0.9529 -0.6947
13785TIP3   OH262845   1.052   6.655  16.241  0.3653 -0.1123  0.3307
13785TIP3    H162846   1.114   6.698  16.301 -0.2170 -0.1276  0.9600
13785TIP3    H262847   1.039   6.568  16.279 -0.4192  0.0660  0.4937
13786TIP3   OH262848   4.638   6.400  13.359 -0.3428 -0.0382 -0.1435
13786TIP3    H162849   4.676   6.481  13.391  0.0187 -0.1313 -0.3385
13786TIP3    H262850   4.708   6.336  13.365 -0.5555 -0.2797 -0.2163
13787TIP3   OH262851   4.694   5.411   2.561  0.0042  0.6362  0.1039
13787TIP3    H162852   4.713   5.483   2.501 -1.1955  1.2319  0.4014
13787TIP3    H262853   4.763   5.416   2.627  0.6690  0.6957 -0.5842
13788TIP3   OH262854   5.517   1.422   1.821 -0.3732  0.1590  0.3872
13788TIP3    H162855   5.572   1.394   1.748 -0.2405  0.4650  0.3663
13788TIP3    H262856   5.454   1.351   1.833 -1.6725  0.9300 -1.3160
13789TIP3   OH262857   1.726   4.209   1.933  0.5270  0.1732  0.4075
13789TIP3    H162858   1.810   4.164   1.941  0.4148 -0.3865 -1.1744
13789TIP3    H262859   1.690   4.179   1.850  0.1257  2.6809 -0.4187
13790TIP3   OH262860   4.768   1.262   4.006 -0.1235 -0.3344 -0.5561
13790TIP3    H162861   4.693   1.226   3.959 -0.2163 -0.0273 -0.6476
13790TIP3    H262862   4.767   1.218   4.091 -2.2757  1.8686  0.6986
13791TIP3   OH262863   6.368   4.293   0.070 -0.9371 -0.0949  0.1028
13791TIP3    H162864   6.282   4.265   0.101 -0.4665 -0.1208  1.4503
13791TIP3    H262865   6.418   4.211   0.063 -0.1058  0.1530  2.3266
13792TIP3   OH262866   2.307   1.173   2.289  0.2302  0.4601 -0.5443
13792TIP3    H162867   2.231   1.216   2.249  0.8266  1.5023 -0.5861
13792TIP3    H262868   2.361   1.244   2.321 -0.2648 -0.3226  2.3048
13793TIP3   OH262869   2.803   5.347  12.616 -0.1481 -0.5990  0.2480
13793TIP3    H162870   2.814   5.258  12.649  1.2913 -0.7189 -0.5132
13793TIP3    H262871   2.884   5.366  12.570 -0.1690  1.3499  0.9453
13794TIP3   OH262872   1.004   3.555   3.924 -0.3789  0.5461  0.2766
13794TIP3    H162873   0.954   3.571   4.004  0.7310  0.2070  1.0543
13794TIP3    H262874   0.972   3.621   3.863 -1.2216  0.8373  1.0076
13795TIP3   OH262875   0.060   0.786   3.040 -0.6029 -0.3898  0.2663
13795TIP3    H162876  -0.010   0.722   3.051 -0.3656 -0.4467  1.7091
13795TIP3    H262877   0.141   0.735   3.048 -0.4120  0.0677  1.5588
13796TIP3   OH262878   4.036   2.662  12.276  0.0918 -0.3254 -0.0349
13796TIP3    H162879   3.944   2.690  12.274  0.4021  0.9937  1.5106
13796TIP3    H262880   4.079   2.718  12.212 -0.0230 -0.3341 -0.1207
13797TIP3   OH262881   4.434   5.829   0.532 -0.2791 -0.7434  0.5512
13797TIP3    H162882   4.462   5.756   0.476 -1.0101 -0.8815  0.3507
13797TIP3    H262883   4.341   5.812   0.548 -1.0645  1.3383 -1.3584
13798TIP3   OH262884   0.238   6.399  11.032  0.9357 -0.3316 -0.3006
13798TIP3    H162885   0.186   6.350  10.968 -0.4521 -2.3237  2.1639
13798TIP3    H262886   0.183   6.473  11.057  1.0634 -0.1102 -0.6622
13799TIP3   OH262887   4.628   0.054   5.028  0.5380  0.0389 -0.0690
13799TIP3    H162888   4.598  -0.031   4.997 -0.4678  0.4850 -0.3615
13799TIP3    H262889   4.699   0.034   5.088  0.2547 -1.0117 -0.0651
13800TIP3   OH262890   1.029   0.811   5.507 -0.3479 -0.1674  0.3796
13800TIP3    H162891   1.116   0.773   5.498  1.5960  4.1218 -1.9000
13800TIP3    H262892   1.030   0.858   5.590  0.1597  1.1287 -0.3321
13801TIP3   OH262893   3.706   0.006  12.543  0.6498 -0.3193  0.3127
13801TIP3    H162894   3.659  -0.008  12.625  0.8278 -1.8518  0.1803
13801TIP3    H262895   3.687   0.097  12.520  0.8291  0.2388  2.1809
13802TIP3   OH262896   4.011   2.377   4.581  0.7202  0.2287 -0.4432
13802TIP3    H162897   3.966   2.365   4.497  3.9902  2.0082 -2.6846
13802TIP3    H262898   4.061   2.296   4.593  0.1123 -0.0997 -0.0827
13803TIP3   OH262899   6.372   4.342  10.534 -0.1776  0.1869 -0.6034
13803TIP3    H162900   6.330   4.257  10.535 -0.0980  0.1319 -1.3120
13803TIP3    H262901   6.465   4.323  10.548  0.0849 -0.0178 -2.3380
13804TIP3   OH262902   5.792   2.041  16.881  0.8204  0.1527  0.3988
13804TIP3    H162903   5.755   2.122  16.914 -1.1714 -0.8387  0.7526
13804TIP3    H262904   5.840   2.004  16.955 -0.2225 -0.0913  0.9662
13805TIP3   OH262905   1.774   0.820   4.944 -1.1850  0.4093  0.1516
13805TIP3    H162906   1.789   0.915   4.949 -3.5773  0.7947  1.7532
13805TIP3    H262907   1.861   0.781   4.951 -0.2199  2.4584  0.2592
13806TIP3   OH262908   3.207   6.156  12.768 -0.4199 -0.6112  0.4359
13806TIP3    H162909   3.214   6.085  12.832  0.1249 -1.7451 -0.8051
13806TIP3    H262910   3.279   6.215  12.789 -1.9983  0.6477  2.6643
13807TIP3   OH262911   3.034   5.680   4.729  0.1211  0.5941  0.1885
13807TIP3    H162912   2.939   5.687   4.724  0.1632  0.5787 -1.2160
13807TIP3    H262913   3.057   5.622   4.656  1.3147  1.6587 -0.3164
13808TIP3   OH262914   4.318   1.712  16.193  0.6476 -0.0464 -0.0056
13808TIP3    H162915   4.358   1.648  16.134  0.7314  1.5308 -1.7612
13808TIP3    H262916   4.311   1.667  16.277  1.6050 -1.9958 -0.9177
13809TIP3   OH262917   3.553   2.000   1.484  0.4460 -0.4528  0.4370
13809TIP3    H162918   3.533   2.044   1.401  0.9322  1.6171  1.3658
13809TIP3    H262919   3.648   1.996   1.487  0.4236 -0.8003  0.7674
13810TIP3   OH262920   3.381   4.781  15.326  0.0851  0.2217 -0.4951
13810TIP3    H162921   3.372   4.787  15.421  2.6505  0.8701 -0.2211
13810TIP3    H262922   3.341   4.697  15.303  0.3870 -0.4669  1.3268
13811TIP3   OH262923   5.504   3.090   0.501 -0.3045  0.2052 -0.6263
13811TIP3    H162924   5.533   3.155   0.436  0.7954 -0.7906 -1.1818
13811TIP3    H262925   5.528   3.006   0.461 -1.3351 -0.5153  0.2548
13812TIP3   OH262926   5.327   1.750   6.404 -0.2293 -0.0960  0.6399
13812TIP3    H162927   5.358   1.841   6.411 -0.6456  0.2461 -1.3379
13812TIP3    H262928   5.360   1.708   6.483  3.4976  0.7656 -0.2615
13813TIP3   OH262929   6.570   3.510  15.180 -0.4174  0.2712  0.3733
13813TIP3    H162930   6.538   3.571  15.246 -0.5496 -1.2507  1.7875
13813TIP3    H262931   6.665   3.517  15.185 -0.3933 -0.4437  1.3910
13814TIP3   OH262932   1.266   3.334  17.211 -0.3142 -0.4274 -0.5597
13814TIP3    H162933   1.322   3.397  17.164 -0.4740 -0.1802 -0.4245
13814TIP3    H262934   1.324   3.261  17.231 -0.1706 -0.4028 -0.8828
13815TIP3   OH262935   4.941   6.601  15.913 -0.1225 -0.0462 -0.5213
13815TIP3    H162936   4.878   6.652  15.963 -2.5573 -3.1669 -0.1061
13815TIP3    H262937   4.978   6.539  15.977  1.4109 -0.0318 -1.3320
13816TIP3   OH262938   5.419   0.287  13.954  0.6333  0.3010 -0.0973
13816TIP3    H162939   5.456   0.301  13.867  1.3582 -0.5785  0.0432
13816TIP3    H262940   5.379   0.200  13.949  0.6054  0.2798  0.4230
13817TIP3   OH262941   4.247   0.755  11.586  0.6490  0.1069 -0.2148
13817TIP3    H162942   4.320   0.726  11.641 -1.8048  1.1935  4.1469
13817TIP3    H262943   4.183   0.685  11.592  0.0409  0.5520 -1.2328
13818TIP3   OH262944   4.121   4.714   0.469  0.2744  0.1079 -0.1425
13818TIP3    H162945   4.151   4.773   0.399  0.9676  0.3513  0.3422
13818TIP3    H262946   4.183   4.729   0.541  0.6275 -1.4129 -0.1014
13819TIP3   OH262947   1.228   4.865  16.742  0.0037 -0.4279  0.2476
13819TIP3    H162948   1.279   4.881  16.663 -0.5031  0.9264  0.1562
13819TIP3    H262949   1.147   4.824  16.711  1.4074 -3.6686  0.5022
13820TIP3   OH262950   0.316   2.760   5.887  0.2268 -0.0738 -0.6296
13820TIP3    H162951   0.250   2.694   5.909  0.7843 -0.5349 -0.3156
13820TIP3    H262952   0.346   2.735   5.799 -1.5097  1.3705 -1.7123
13821TIP3   OH262953   3.999   1.454  13.363 -0.0275  0.6407 -0.4986
13821TIP3    H162954   3.993   1.381  13.423  0.9021  0.6088 -0.4292
13821TIP3    H262955   3.991   1.532  13.418 -2.0797  0.6173 -0.6936
13822TIP3   OH262956   1.994   1.475  14.827  0.4587  0.2682  0.5199
13822TIP3    H162957   1.948   1.423  14.893 -1.1610  0.3911 -0.4652
13822TIP3    H262958   2.085   1.447  14.834  0.1159 -0.6099  1.9609
13823TIP3   OH262959   1.363   2.872   2.357 -0.2309  0.1894 -0.1233
13823TIP3    H162960   1.304   2.917   2.417 -0.1378 -0.4117  0.4302
13823TIP3    H262961   1.446   2.920   2.365 -0.1301 -0.0660  0.4708
13824TIP3   OH262962   3.382   3.630  16.699 -0.3152  0.4759 -0.0567
13824TIP3    H162963   3.416   3.542  16.681 -0.5911  0.3856 -0.1376
13824TIP3    H262964   3.308   3.640  16.640 -1.1204  0.2463  0.8864
13825TIP3   OH262965   0.200   0.606   6.637  0.5705 -0.4250 -0.3575
13825TIP3    H162966   0.281   0.558   6.658  0.5953 -2.1214 -3.5699
13825TIP3    H262967   0.230   0.687   6.596  0.6110 -0.1587  0.1978
13826TIP3   OH262968   3.613   1.403   1.228  0.2925  0.4976 -0.1213
13826TIP3    H162969   3.644   1.429   1.315  0.1713  0.8835 -0.1874
13826TIP3    H262970   3.546   1.336   1.245  2.4369 -1.7410 -0.0551
13827TIP3   OH262971   4.783   2.823   2.887  0.5507 -0.5051 -0.8041
13827TIP3    H162972   4.788   2.768   2.809 -0.4707  1.1849 -2.1480
13827TIP3    H262973   4.866   2.809   2.933  1.2571 -1.3933 -2.3018
13828TIP3   OH262974   5.714   4.538   2.658 -0.0864 -0.4698 -0.2715
13828TIP3    H162975   5.755   4.541   2.744 -0.8955  3.2347  0.1566
13828TIP3    H262976   5.788   4.534   2.596  0.6663 -0.0124  0.5767
13829TIP3   OH262977   2.438   2.255   1.378 -0.2845  0.6246 -0.1265
13829TIP3    H162978   2.424   2.167   1.413  1.1449  1.3520  2.5925
13829TIP3    H262979   2.494   2.242   1.302 -0.4404 -0.8469 -0.0205
13830TIP3   OH262980   2.816   3.505   3.061 -0.0649  0.0354  0.7584
13830TIP3    H162981   2.739   3.551   3.028 -0.7748 -1.0481  0.8383
13830TIP3    H262982   2.870   3.490   2.983 -1.4461 -1.9754  0.1083
13831TIP3   OH262983   5.591   5.963   1.717  0.3363 -0.6760  0.2419
13831TIP3    H162984   5.568   5.897   1.783  1.8280 -0.4886  0.9911
13831TIP3    H262985   5.571   6.046   1.760 -1.0972 -0.5988 -0.5259
13832TIP3   OH262986   1.738   0.789  11.514 -0.4298 -0.0969 -0.4170
13832TIP3    H162987   1.685   0.822  11.587  0.6818 -1.6181  1.1824
13832TIP3    H262988   1.680   0.727  11.470 -0.2825 -1.2498  0.9136
13833TIP3   OH262989   6.688   5.676   4.059 -0.0194 -0.2067  0.0663
13833TIP3    H162990   6.665   5.615   4.128 -4.2305 -0.0662 -0.9694
13833TIP3    H262991   6.668   5.629   3.978  1.0180  0.9903 -0.9327
13834TIP3   OH262992   4.148   4.738  11.064  0.7130  0.4869 -0.4900
13834TIP3    H162993   4.198   4.659  11.043  0.1111 -1.4064  4.1094
13834TIP3    H262994   4.107   4.762  10.981  0.7608 -4.1422 -2.1685
13835TIP3   OH262995   4.636   5.098   2.918 -0.7963 -0.2126  0.5609
13835TIP3    H162996   4.578   5.058   2.853 -0.7476  0.2492  0.2290
13835TIP3    H262997   4.605   5.064   3.002 -2.2512  0.8635  0.4874
13836TIP3   OH262998   2.078   3.209  13.711 -0.7080 -0.1919 -0.1686
13836TIP3    H162999   2.019   3.145  13.671 -2.6844  0.6252  1.2511
13836TIP3    H263000   2.109   3.262  13.638 -1.8264 -0.6097 -0.9744
13837TIP3   OH263001   4.500   4.984  15.196 -0.3815 -0.1826  0.3922
13837TIP3    H163002   4.535   4.968  15.284 -1.9359  1.1545  1.3189
13837TIP3    H263003   4.424   5.041  15.211 -1.7148 -1.3011 -1.6859
13838TIP3   OH263004   6.163   5.788  16.390 -0.2195 -0.5050 -0.0633
13838TIP3    H163005   6.164   5.832  16.305 -0.4223 -0.9263 -0.2908
13838TIP3    H263006   6.243   5.818  16.433 -1.4753  1.9194  0.7571
13839TIP3   OH263007   3.829   6.155   4.430  0.3816 -0.5068  0.5302
13839TIP3    H163008   3.810   6.073   4.385  0.4267 -0.7699  0.9803
13839TIP3    H263009   3.920   6.145   4.460  0.7883  0.1933 -0.4461
13840TIP3   OH263010   1.685   0.283   2.598  0.0361 -0.2538 -0.3721
13840TIP3    H163011   1.674   0.213   2.533  1.0598  0.6889 -1.6169
13840TIP3    H263012   1.688   0.363   2.546 -2.5082  0.9293  1.1069
13841TIP3   OH263013   1.560   1.365   2.922  0.5639 -0.1236  0.3704
13841TIP3    H163014   1.485   1.407   2.966  0.6767 -0.8216  1.2618
13841TIP3    H263015   1.526   1.338   2.837 -0.6978 -1.8986  1.3793
13842TIP3   OH263016   1.301   1.752  12.298 -0.3401  0.2264  0.0452
13842TIP3    H163017   1.281   1.672  12.346  0.7393 -0.6042 -0.8291
13842TIP3    H263018   1.265   1.737  12.211  0.5882  0.3354 -0.3676
13843TIP3   OH263019   1.528   0.564  16.569 -0.1596  0.3364 -0.1213
13843TIP3    H163020   1.518   0.569  16.474 -0.1410  1.4861 -0.0720
13843TIP3    H263021   1.570   0.647  16.593  0.0945 -0.0665  0.8598
13844TIP3   OH263022   3.329   0.686   2.982  0.0537 -0.0316 -0.1765
13844TIP3    H163023   3.351   0.628   2.909 -2.0844  0.2971 -1.1640
13844TIP3    H263024   3.268   0.635   3.035 -0.6204  0.7325 -0.1976
13845TIP3   OH263025   4.707   3.229   6.243  0.4341 -0.0809  0.0665
13845TIP3    H163026   4.708   3.322   6.218  0.5115 -0.7608 -2.7260
13845TIP3    H263027   4.615   3.211   6.264 -0.0151  0.1289 -1.5978
13846TIP3   OH263028   4.011   5.855   4.877 -0.1764  0.3404  0.2096
13846TIP3    H163029   4.076   5.886   4.814 -0.1610  0.3182  0.2146
13846TIP3    H263030   3.960   5.933   4.899 -0.0628  0.3853  0.3125
13847TIP3   OH263031   3.553   3.672  11.665 -0.1538  0.5098  0.0719
13847TIP3    H163032   3.551   3.726  11.586  0.4032  0.4838  0.0375
13847TIP3    H263033   3.609   3.598  11.642 -0.8277 -0.0334  0.1536
13848TIP3   OH263034   2.694   3.264  13.666 -0.7703  0.4407  0.1818
13848TIP3    H163035   2.617   3.242  13.717  0.5908 -0.4288  1.9824
13848TIP3    H263036   2.756   3.299  13.730 -0.6064  3.8405 -1.6248
13849TIP3   OH263037   3.633   6.662  15.565  0.3481 -0.5663  0.0702
13849TIP3    H163038   3.557   6.719  15.560 -0.8230 -2.0129  0.5650
13849TIP3    H263039   3.638   6.620  15.480 -0.1502 -1.3411  0.4073
13850TIP3   OH263040   1.009   4.758  17.074 -1.1302  0.3321 -0.1908
13850TIP3    H163041   1.063   4.723  17.145  0.1604  1.1907 -0.7154
13850TIP3    H263042   0.997   4.684  17.014  0.9252  0.5191 -0.9088
13851TIP3   OH263043   5.089   6.545   5.823 -0.5078  0.1318  0.3329
13851TIP3    H163044   5.023   6.611   5.845 -0.3349  1.1540 -1.9803
13851TIP3    H263045   5.154   6.592   5.772 -0.0240 -1.7006 -0.8165
13852TIP3   OH263046   6.365   2.158   1.209  0.3296  0.0963  0.7492
13852TIP3    H163047   6.384   2.239   1.161 -0.0089  0.7135  1.6154
13852TIP3    H263048   6.370   2.184   1.301  1.4221 -1.1612  1.0689
13853TIP3   OH263049   0.648   3.493   1.700 -0.5197  0.6861  0.0003
13853TIP3    H163050   0.731   3.464   1.738 -0.7022 -0.1578 -0.2357
13853TIP3    H263051   0.585   3.487   1.772 -0.7028 -0.1705 -0.2298
13854TIP3   OH263052   0.875   4.824  14.560  0.6373  0.5186  0.0459
13854TIP3    H163053   0.805   4.888  14.554 -0.0683 -0.0274  1.7577
13854TIP3    H263054   0.830   4.739  14.557  1.6241 -0.0089 -3.1975
13855TIP3   OH263055   5.153   6.126   5.743 -0.4117 -0.0588 -0.1208
13855TIP3    H163056   5.103   6.072   5.805 -1.0452  1.7005  0.9730
13855TIP3    H263057   5.227   6.070   5.718 -0.7949 -1.2872  1.2979
13856TIP3   OH263058   5.389   6.115  12.457 -0.0414  0.0161  0.3787
13856TIP3    H163059   5.367   6.133  12.549  0.1542  0.3279  0.3677
13856TIP3    H263060   5.408   6.202  12.421 -2.2554  0.1921 -0.5233
13857TIP3   OH263061   0.685   1.621   3.661  0.2997  0.0618 -0.0872
13857TIP3    H163062   0.779   1.642   3.663  0.0248  1.2735  0.6572
13857TIP3    H263063   0.642   1.702   3.636 -0.5300 -0.6700 -1.1333
13858TIP3   OH263064   5.472   5.473  16.135  0.2588 -0.0756 -0.2079
13858TIP3    H163065   5.444   5.448  16.047 -0.2929 -1.4204  0.3224
13858TIP3    H263066   5.566   5.491  16.126  0.0051  0.8112 -1.2569
13859TIP3   OH263067   5.318   2.052  14.263 -0.2461 -0.6464 -0.6625
13859TIP3    H163068   5.257   1.991  14.221 -1.2503  0.0165 -0.2033
13859TIP3    H263069   5.262   2.117  14.304  0.8139  0.7553 -1.3634
13860TIP3   OH263070   3.928   0.717   3.267  0.2654  0.1041 -0.3754
13860TIP3    H163071   3.908   0.642   3.212  0.3096  0.3077 -0.6728
13860TIP3    H263072   3.903   0.690   3.356  0.6632 -0.4056 -0.4129
13861TIP3   OH263073   6.384   5.577   2.806  0.6497 -0.0282  0.0550
13861TIP3    H163074   6.444   5.555   2.736  0.9684  0.0645  0.2992
13861TIP3    H263075   6.355   5.666   2.787  0.2521 -0.2321 -0.3008
13862TIP3   OH263076   5.271   3.493   1.728 -0.0582  1.1046 -0.3460
13862TIP3    H163077   5.282   3.555   1.801 -1.3035  0.1525  0.7070
13862TIP3    H263078   5.212   3.537   1.668  0.8543  1.8392 -0.7209
13863TIP3   OH263079   3.699   6.493   2.630 -0.3401  0.5046 -0.1004
13863TIP3    H163080   3.688   6.400   2.611 -1.5810  0.9179 -1.5460
13863TIP3    H263081   3.790   6.501   2.660 -0.7300 -1.4264  1.8491
13864TIP3   OH263082   6.254   2.483   1.339 -0.4241 -0.3371 -0.5295
13864TIP3    H163083   6.307   2.528   1.406 -0.9067 -2.0192  1.0807
13864TIP3    H263084   6.182   2.543   1.321 -1.8846 -0.9332  2.6563
13865TIP3   OH263085   4.656   4.861  15.789 -0.2300  0.0250  0.1591
13865TIP3    H163086   4.596   4.799  15.747  0.1289  0.0518 -0.3993
13865TIP3    H263087   4.716   4.887  15.719 -0.5190  1.1819  0.3257
13866TIP3   OH263088   5.494   1.237   5.795 -0.0602 -0.0418 -0.3401
13866TIP3    H163089   5.480   1.321   5.750  0.9367 -0.8666 -2.3158
13866TIP3    H263090   5.590   1.230   5.801 -0.1521  0.0542  2.0579
13867TIP3   OH263091   5.497   1.494   5.699 -0.1866 -0.1928  0.1643
13867TIP3    H163092   5.563   1.554   5.664 -0.8832  0.0616 -0.7545
13867TIP3    H263093   5.420   1.548   5.715 -1.1180 -0.9271 -1.4904
13868TIP3   OH263094   1.783   4.236   5.382 -0.7205  0.6405 -0.2588
13868TIP3    H163095   1.866   4.207   5.420  0.2863  0.9114 -2.1261
13868TIP3    H263096   1.727   4.255   5.458  0.6018 -0.4083  1.0383
13869TIP3   OH263097   6.451   3.131   3.003 -0.3185 -0.1900  0.2103
13869TIP3    H163098   6.471   3.165   3.090 -0.7855  0.4631  0.0702
13869TIP3    H263099   6.356   3.129   2.999 -0.3025 -1.0339  0.0186
13870TIP3   OH263100   4.794   1.983  12.343 -0.2488  0.1121  0.4794
13870TIP3    H163101   4.776   2.023  12.427 -1.0683 -0.3788  0.5542
13870TIP3    H263102   4.709   1.949  12.314  0.1326 -0.2360 -0.2679
13871TIP3   OH263103   0.144   2.020   0.937  0.5548  0.3819 -0.0432
13871TIP3    H163104   0.084   2.095   0.942 -0.5767 -0.5374  0.9461
13871TIP3    H263105   0.109   1.967   0.865  0.6257  0.2131  0.0459
13872TIP3   OH263106   3.823   1.823   5.626 -0.0085  0.0235 -0.1065
13872TIP3    H163107   3.741   1.831   5.578 -0.6307 -2.2854  0.4651
13872TIP3    H263108   3.824   1.899   5.684 -0.1081  1.8723 -2.3961
13873TIP3   OH263109   3.208   3.340  11.246 -0.8851 -0.2672  0.2817
13873TIP3    H163110   3.126   3.301  11.214 -0.9018  0.1894 -0.2480
13873TIP3    H263111   3.277   3.290  11.202 -0.8803 -0.6234  0.6940
13874TIP3   OH263112   5.407   0.947  11.508 -0.4595 -0.6062 -0.1428
13874TIP3    H163113   5.323   0.900  11.509 -0.7672 -0.0943 -1.0754
13874TIP3    H263114   5.395   1.016  11.443 -0.2075  1.1315  1.5768
13875TIP3   OH263115   4.347   4.405   1.552  0.6116  0.4445  0.0722
13875TIP3    H163116   4.402   4.346   1.603 -0.5433 -0.5590  0.2024
13875TIP3    H263117   4.316   4.470   1.614  1.2186  0.7128  0.1029
13876TIP3   OH263118   6.714   3.503   1.544  0.0260  0.0020  0.0093
13876TIP3    H163119   6.796   3.512   1.495 -1.5256 -1.8082 -3.3009
13876TIP3    H263120   6.652   3.560   1.497 -1.3536 -1.0881  0.4376
13877TIP3   OH263121   6.572   1.430  14.729  0.0260  0.2064  0.3770
13877TIP3    H163122   6.623   1.482  14.790 -0.4904  0.0691  0.9357
13877TIP3    H263123   6.636   1.399  14.664  1.0135 -1.3823  1.9955
13878TIP3   OH263124   4.836   5.140  15.363  0.2456  0.1724 -0.1599
13878TIP3    H163125   4.774   5.189  15.309 -2.4335 -0.5004  2.0584
13878TIP3    H263126   4.913   5.197  15.369 -1.6981  2.9518  0.1935
13879TIP3   OH263127   0.727   4.173   0.302 -0.6217  0.2927  0.0127
13879TIP3    H163128   0.747   4.146   0.391 -2.4208 -1.0150  0.0528
13879TIP3    H263129   0.808   4.215   0.271  0.5500 -0.6398  1.6983
13880TIP3   OH263130   2.571   0.726   4.555 -0.0665  0.1612 -0.0040
13880TIP3    H163131   2.579   0.742   4.649  0.0767 -0.7828  0.1485
13880TIP3    H263132   2.477   0.715   4.541 -0.1104  0.5222 -0.0178
13881TIP3   OH263133   4.608   0.300   0.985 -0.5870  0.1265  0.4025
13881TIP3    H163134   4.549   0.276   1.058  0.0079 -0.0889  0.8190
13881TIP3    H263135   4.580   0.244   0.913 -1.0515  0.1955  0.5224
13882TIP3   OH263136   6.454   5.424  13.060 -0.6049 -0.4350  0.0086
13882TIP3    H163137   6.546   5.423  13.033  0.0268  0.0749  1.9359
13882TIP3    H263138   6.448   5.498  13.121 -1.7553 -1.7683  1.6038
13883TIP3   OH263139   2.191   4.431  15.262  0.5471 -0.0192 -0.2720
13883TIP3    H163140   2.246   4.510  15.260  0.8855 -0.2631 -0.9422
13883TIP3    H263141   2.172   4.418  15.355  1.3141  0.2901 -0.0611
13884TIP3   OH263142   1.321   5.880   0.580  0.0398  0.1244 -0.4419
13884TIP3    H163143   1.375   5.863   0.503 -1.3375 -2.6541 -0.9515
13884TIP3    H263144   1.376   5.931   0.638  0.8557  3.1827 -3.5658
13885TIP3   OH263145   1.327   5.920  12.717 -0.1729  0.3327  0.0147
13885TIP3    H163146   1.287   5.997  12.757 -1.5253 -1.0919  1.5306
13885TIP3    H263147   1.255   5.874  12.675  0.2693 -1.0715  0.7463
13886TIP3   OH263148   5.001   2.758   2.072 -0.2644 -0.1570  0.3760
13886TIP3    H163149   5.081   2.810   2.066  0.4284 -1.3207 -1.3783
13886TIP3    H263150   4.984   2.750   2.166 -1.1747  4.2532  0.7955
13887TIP3   OH263151   5.608   0.114   0.492 -0.0638 -0.8651  0.0937
13887TIP3    H163152   5.685   0.149   0.447 -0.7110 -0.5616 -0.7986
13887TIP3    H263153   5.567   0.190   0.533 -0.7281 -0.7620 -0.7267
13888TIP3   OH263154   5.012   1.479   1.044  0.2711  0.2417 -0.2266
13888TIP3    H163155   4.951   1.462   1.116  1.3478  1.4095  1.0344
13888TIP3    H263156   4.968   1.444   0.967 -2.5244  2.0014  0.3966
13889TIP3   OH263157   0.955   4.253  17.037 -0.3330  0.1370  0.0684
13889TIP3    H163158   0.953   4.233  16.944  2.4529 -0.7317  0.0912
13889TIP3    H263159   0.934   4.170  17.080 -0.7123  0.3156  0.2392
13890TIP3   OH263160   2.099   5.304  11.350  0.1028  0.2546 -0.2547
13890TIP3    H163161   2.106   5.325  11.256 -0.7772 -2.2512 -0.9642
13890TIP3    H263162   2.065   5.384  11.390  0.1894  1.2851 -2.1172
13891TIP3   OH263163   1.557   5.997  11.290 -0.1285  0.1047 -0.0732
13891TIP3    H163164   1.632   6.024  11.236 -0.9412  0.9419 -0.8336
13891TIP3    H263165   1.494   5.962  11.227 -0.2564 -0.8952  0.5940
13892TIP3   OH263166   5.135   5.434  14.333 -0.0783  0.2459  0.2544
13892TIP3    H163167   5.056   5.400  14.292 -1.4092  1.6131  1.5844
13892TIP3    H263168   5.142   5.524  14.301  0.0125  0.6601  1.3802
13893TIP3   OH263169   0.075   1.365  13.822  0.1932 -0.6570 -0.0919
13893TIP3    H163170   0.040   1.454  13.818  0.2499 -0.5854  0.7788
13893TIP3    H263171   0.006   1.314  13.866 -0.7655 -1.5351 -2.4878
13894TIP3   OH263172   6.146   5.487   4.774  0.1675  0.3988 -0.5595
13894TIP3    H163173   6.112   5.411   4.727 -0.3796  0.5610 -0.4322
13894TIP3    H263174   6.125   5.562   4.719 -1.6519  0.7387  0.5061
13895TIP3   OH263175   3.299   1.706   4.391 -0.0571 -0.1033 -0.1987
13895TIP3    H163176   3.270   1.731   4.478 -0.4113  0.2673 -0.4203
13895TIP3    H263177   3.311   1.611   4.396 -1.2729 -0.2709 -0.0787
13896TIP3   OH263178   5.658   5.616   0.721  0.3652 -0.4987  0.0309
13896TIP3    H163179   5.597   5.686   0.746 -1.6735 -2.2656  0.3007
13896TIP3    H263180   5.697   5.588   0.803  0.8637  0.0220 -0.0239
13897TIP3   OH263181   6.198   0.728  13.105 -0.0485  0.0851 -0.2819
13897TIP3    H163182   6.230   0.791  13.040 -0.9479  0.3151 -0.5152
13897TIP3    H263183   6.276   0.681  13.133  0.8429  2.0440  0.7070
13898TIP3   OH263184   4.669   3.934  14.813 -0.7894  0.0405 -0.3595
13898TIP3    H163185   4.739   3.940  14.878 -0.0661  0.8565 -1.2066
13898TIP3    H263186   4.689   3.855  14.763 -0.7807 -0.0262 -0.2509
13899TIP3   OH263187   0.752   3.125   4.761  0.6178 -0.4287  0.3253
13899TIP3    H163188   0.703   3.050   4.794 -0.4091  0.0252 -0.1094
13899TIP3    H263189   0.759   3.109   4.667 -0.5075  0.4960  0.0659
13900TIP3   OH263190   1.025   4.951  16.329 -0.1026 -0.0876  0.0702
13900TIP3    H163191   1.109   4.949  16.375 -0.8221  0.0778  1.4215
13900TIP3    H263192   0.960   4.924  16.394 -1.2788  1.1540 -0.5279
13901TIP3   OH263193   0.255   4.041  11.848  0.0008  0.0729 -0.0957
13901TIP3    H163194   0.204   3.961  11.855 -0.2880  0.1570 -1.1362
13901TIP3    H263195   0.252   4.079  11.936 -0.2485 -0.8105  0.2876
13902TIP3   OH263196   3.530   2.994   3.232 -0.3516  0.1929 -0.3527
13902TIP3    H163197   3.617   2.954   3.228 -0.7779 -0.7558 -0.2613
13902TIP3    H263198   3.532   3.046   3.313 -0.5053 -1.3581  0.6776
13903TIP3   OH263199   0.724   6.617  10.661 -0.0613  0.4117  0.2477
13903TIP3    H163200   0.769   6.615  10.576 -0.3095 -0.0011  0.1223
13903TIP3    H263201   0.632   6.606  10.639  0.0408 -1.7842  0.6836
13904TIP3   OH263202   1.239   4.379   0.298  0.4709 -0.3547  0.3215
13904TIP3    H163203   1.175   4.396   0.367 -0.5783 -1.3410 -0.3600
13904TIP3    H263204   1.324   4.392   0.340 -0.1400  1.8560  1.0363
13905TIP3   OH263205   5.623   5.719  15.094  0.5498 -0.1522 -1.1561
13905TIP3    H163206   5.589   5.796  15.049  1.0126 -0.5730 -2.2750
13905TIP3    H263207   5.585   5.645  15.047 -0.1588 -0.6251  0.1170
13906TIP3   OH263208   3.394   2.120  16.081  0.3532  0.2624  0.3665
13906TIP3    H163209   3.381   2.202  16.130  0.3987 -0.3596  1.4378
13906TIP3    H263210   3.398   2.148  15.989  0.1413  1.4386  0.6964
13907TIP3   OH263211   1.626   2.361   1.673 -0.5647 -0.5952 -0.4701
13907TIP3    H163212   1.588   2.437   1.631 -2.8056 -2.9207 -3.0664
13907TIP3    H263213   1.582   2.355   1.758 -1.1259  0.4004 -0.6769
13908TIP3   OH263214   0.488   5.053   3.772  0.2652  0.3236  0.8946
13908TIP3    H163215   0.480   5.079   3.864  1.4817  0.3270  1.0066
13908TIP3    H263216   0.580   5.067   3.750  0.2825 -0.9463  0.0499
13909TIP3   OH263217   1.068   3.790   1.668 -0.6735 -0.0914 -0.5885
13909TIP3    H163218   0.975   3.769   1.667 -0.2177 -2.5838  0.9437
13909TIP3    H263219   1.108   3.727   1.606  0.2717 -1.0545  0.9315
13910TIP3   OH263220   3.006   6.548  14.156  0.1918  0.4739 -0.9053
13910TIP3    H163221   2.949   6.479  14.122  0.6224  1.1649 -3.2103
13910TIP3    H263222   2.946   6.617  14.184 -0.1636  0.5138 -1.7354
13911TIP3   OH263223   1.329   4.979  15.765 -0.6864  0.0552 -0.5508
13911TIP3    H163224   1.316   4.893  15.804 -0.5619  0.3195  0.0759
13911TIP3    H263225   1.267   5.037  15.810  1.1155  0.8758  0.9960
13912TIP3   OH263226   3.402   3.934  17.513 -0.2702 -0.1610  0.1892
13912TIP3    H163227   3.370   3.946  17.424  1.2454 -0.3091 -0.3918
13912TIP3    H263228   3.428   4.021  17.542 -1.0804 -0.0517  0.6451
13913TIP3   OH263229   2.091   1.681  13.264 -0.1162 -0.4147 -0.0082
13913TIP3    H163230   2.120   1.764  13.226  0.8248  0.2381  1.9931
13913TIP3    H263231   2.172   1.634  13.284 -0.5782 -0.9394  0.6804
13914TIP3   OH263232   1.429   4.526   1.321 -0.1213 -0.1941 -0.0593
13914TIP3    H163233   1.436   4.437   1.287 -0.9595  0.3858 -1.9172
13914TIP3    H263234   1.494   4.576   1.271  1.3503  0.0054  1.9633
13915TIP3   OH263235   3.795   1.858  15.205 -0.6257 -0.1669  0.2061
13915TIP3    H163236   3.805   1.930  15.142  1.3608  1.1982  1.9228
13915TIP3    H263237   3.726   1.887  15.264  0.7685  0.8278  1.4183
13916TIP3   OH263238   2.777   1.586   3.776  0.0301 -0.1483 -0.0901
13916TIP3    H163239   2.784   1.667   3.826  1.6039 -0.8936  0.9914
13916TIP3    H263240   2.699   1.597   3.723  1.2154  2.8612 -1.4245
13917TIP3   OH263241   5.004   0.605   3.182  0.1005 -0.0738  0.0733
13917TIP3    H163242   4.923   0.554   3.185 -0.6556  1.0881  0.0445
13917TIP3    H263243   5.035   0.594   3.092 -0.6078  0.3390 -0.2273
13918TIP3   OH263244   4.275   6.075  13.498  0.5273  0.0036 -0.0519
13918TIP3    H163245   4.294   6.027  13.579  0.7843 -1.9648 -1.2044
13918TIP3    H263246   4.349   6.135  13.489  0.6126  0.0867  1.0592
13919TIP3   OH263247   2.712   2.919   5.115  0.2289  0.8386 -0.5092
13919TIP3    H163248   2.632   2.965   5.140  0.1690  2.4469 -3.1996
13919TIP3    H263249   2.693   2.885   5.027  2.0040 -0.0037 -0.6067
13920TIP3   OH263250   3.049   6.522  12.488 -0.4268  0.2667 -0.0615
13920TIP3    H163251   3.074   6.464  12.417  1.5150  1.0462 -0.0732
13920TIP3    H263252   3.005   6.466  12.551 -0.0260 -0.8922 -0.7864
13921TIP3   OH263253   6.766   1.428   5.402 -0.0546 -0.2685 -0.1590
13921TIP3    H163254   6.856   1.394   5.406  0.3195  0.7641  0.8338
13921TIP3    H263255   6.776   1.519   5.374 -0.6483  0.2776  1.3016
13922TIP3   OH263256   5.798   4.333  14.259 -0.1579 -0.0835 -0.5316
13922TIP3    H163257   5.713   4.358  14.222 -1.5032 -0.1239  2.2697
13922TIP3    H263258   5.833   4.268  14.197 -1.9046  0.3192 -2.0285
13923TIP3   OH263259   1.858   5.442   5.592  0.7312 -0.1202  0.3169
13923TIP3    H163260   1.787   5.418   5.650  1.2411  1.2820  1.5901
13923TIP3    H263261   1.820   5.506   5.532  0.3010 -1.2870 -0.6924
13924TIP3   OH263262   3.940   6.024   2.739  0.2292  0.2476 -0.1177
13924TIP3    H163263   3.942   6.084   2.813 -1.4788  1.5736 -1.0848
13924TIP3    H263264   4.027   6.033   2.699  1.2632 -0.6622  1.7819
13925TIP3   OH263265   0.630   3.849   5.642 -0.0887  0.1167 -0.1163
13925TIP3    H163266   0.637   3.758   5.670 -2.3118  0.6766  2.8321
13925TIP3    H263267   0.717   3.871   5.607  0.8341 -2.7718  0.1579
13926TIP3   OH263268   4.774   5.317   3.648 -0.6162  0.7797  0.0222
13926TIP3    H163269   4.768   5.297   3.555  0.7080  1.5060 -0.2509
13926TIP3    H263270   4.858   5.281   3.675 -0.9240  0.7056  0.9036
13927TIP3   OH263271   0.685   3.371   4.626  0.0844  0.1559 -0.0130
13927TIP3    H163272   0.594   3.392   4.646 -0.5501  0.3835 -2.7831
13927TIP3    H263273   0.706   3.299   4.686 -1.7484  0.4145  1.0216
13928TIP3   OH263274   3.731   5.008   2.352  0.4096 -0.1753 -0.0129
13928TIP3    H163275   3.712   4.930   2.300  1.3696  0.2913 -1.1085
13928TIP3    H263276   3.671   5.075   2.318  0.6795 -0.0112 -0.1721
13929TIP3   OH263277   1.724   0.500   5.665 -0.0239  0.4001 -0.1723
13929TIP3    H163278   1.762   0.503   5.577 -0.6323 -0.0356 -0.4593
13929TIP3    H263279   1.765   0.424   5.706 -1.4462 -0.8243 -0.9123
13930TIP3   OH263280   6.189   1.683   1.487 -0.3117  0.2294  0.6993
13930TIP3    H163281   6.226   1.627   1.419 -2.0615 -1.5490  1.0870
13930TIP3    H263282   6.256   1.749   1.505  0.9115 -0.3642 -1.4272
13931TIP3   OH263283   1.105   5.255   0.341  0.0332  0.0167 -0.5587
13931TIP3    H163284   1.071   5.199   0.271 -0.8530 -0.4711  0.2348
13931TIP3    H263285   1.060   5.339   0.329 -0.4117 -0.1886 -0.3502
13932TIP3   OH263286   3.229   5.246   2.101 -0.1721 -0.0353 -0.6043
13932TIP3    H163287   3.237   5.330   2.056 -0.0054  1.3012  1.7901
13932TIP3    H263288   3.316   5.231   2.139 -0.4685 -0.8057 -0.2121
13933TIP3   OH263289   1.892   2.355   1.039 -0.1634 -0.5706  0.6830
13933TIP3    H163290   1.971   2.315   1.002 -1.3049 -0.7907 -1.6438
13933TIP3    H263291   1.850   2.284   1.088  0.0773 -0.9829  0.2972
13934TIP3   OH263292   5.073   1.884  11.263 -0.1931  0.3825  0.3865
13934TIP3    H163293   5.164   1.903  11.286 -0.7988  3.5266  0.6510
13934TIP3    H263294   5.076   1.859  11.170  1.1678 -2.3025  1.0921
13935TIP3   OH263295   3.431   2.300   1.522 -0.6352  0.2553 -0.3411
13935TIP3    H163296   3.506   2.242   1.537  0.7622  1.6939 -1.3888
13935TIP3    H263297   3.395   2.272   1.438  0.6453  1.4632 -1.3294
13936TIP3   OH263298   5.582   1.494   3.023 -0.3370 -0.1070 -0.1702
13936TIP3    H163299   5.575   1.585   2.993  0.4495  0.0703  0.1691
13936TIP3    H263300   5.502   1.480   3.074 -0.4530  0.3960 -0.1990
13937TIP3   OH263301   6.707   4.841   2.470 -0.0284 -0.1932 -0.0930
13937TIP3    H163302   6.732   4.851   2.378  0.9589  0.0152  0.1919
13937TIP3    H263303   6.766   4.775   2.505 -1.3895 -1.3934  0.0320
13938TIP3   OH263304   0.417   5.166  11.839 -0.8491  0.1037  0.7535
13938TIP3    H163305   0.352   5.236  11.827 -1.7024 -0.6859  0.6524
13938TIP3    H263306   0.461   5.160  11.754 -1.4153 -0.0920  0.4629
13939TIP3   OH263307   2.745   0.520   5.967 -0.3541 -0.4363  0.0163
13939TIP3    H163308   2.729   0.545   6.058  0.5226 -2.8879  0.9233
13939TIP3    H263309   2.840   0.525   5.957 -0.4916  0.5032 -1.0203
13940TIP3   OH263310   5.495   6.321   0.711  0.4444 -0.3223 -0.2660
13940TIP3    H163311   5.508   6.416   0.704 -2.4494  0.0953 -0.9163
13940TIP3    H263312   5.498   6.289   0.621  0.1584 -0.6555 -0.1595
13941TIP3   OH263313   6.141   1.682   0.686  0.1859  0.4818  0.4856
13941TIP3    H163314   6.101   1.716   0.765  0.9426  1.5591  0.4236
13941TIP3    H263315   6.069   1.676   0.623 -0.5394 -0.9333  1.3973
13942TIP3   OH263316   4.640   5.727  16.132  0.1934  0.2305  0.1933
13942TIP3    H163317   4.704   5.788  16.094 -0.9955 -0.1476 -2.5705
13942TIP3    H263318   4.599   5.777  16.203  1.3620  1.5499 -0.0186
13943TIP3   OH263319   0.460   0.768   6.206 -0.3230 -0.0626  0.1137
13943TIP3    H163320   0.488   0.825   6.134 -2.6418  1.3724  0.2348
13943TIP3    H263321   0.474   0.820   6.285 -2.6144  0.5126  0.2136
13944TIP3   OH263322   3.900   6.734   0.493  0.0740 -0.5575 -0.0990
13944TIP3    H163323   3.992   6.732   0.519  0.4690  1.0966 -1.1759
13944TIP3    H263324   3.902   6.726   0.397 -0.9705 -1.3132 -0.0730
13945TIP3   OH263325   5.904   5.353   4.221  0.5223  0.1422 -0.1874
13945TIP3    H163326   5.953   5.285   4.268 -0.4334  0.0256  0.6761
13945TIP3    H263327   5.816   5.316   4.212  0.5371  0.3999 -1.6002
13946TIP3   OH263328   5.562   5.919   4.340  0.3562 -0.0812 -0.4515
13946TIP3    H163329   5.617   5.841   4.350 -0.5125 -0.6513  0.0676
13946TIP3    H263330   5.509   5.901   4.262  1.0573  0.5683 -1.0885
13947TIP3   OH263331   4.462   4.227  11.275 -0.3208  0.1082  0.2281
13947TIP3    H163332   4.451   4.230  11.180  0.5266  0.1877  0.1291
13947TIP3    H263333   4.549   4.265  11.291 -0.4342  0.0495  1.0298
13948TIP3   OH263334   5.543   3.443   5.442 -0.2425 -0.0288  0.4921
13948TIP3    H163335   5.490   3.521   5.429  1.7746  1.8027  2.4667
13948TIP3    H263336   5.508   3.402   5.521 -0.6493 -0.5952  0.0308
13949TIP3   OH263337   6.600   4.880  14.856 -0.3254 -0.4066 -0.2436
13949TIP3    H163338   6.559   4.957  14.897  1.0345  0.5839 -0.6489
13949TIP3    H263339   6.602   4.814  14.925  1.1042  0.9179  1.0726
13950TIP3   OH263340   6.689   4.476  12.389 -0.4924 -0.1257 -0.0248
13950TIP3    H163341   6.713   4.434  12.472  1.5188 -0.1798 -0.5860
13950TIP3    H263342   6.633   4.549  12.415  0.9348  0.4944  1.5108
13951TIP3   OH263343   2.545   4.532   1.608  0.2093 -0.4885 -0.3011
13951TIP3    H163344   2.622   4.575   1.645  0.1030  0.6183 -1.2887
13951TIP3    H263345   2.579   4.453   1.567  1.1185  0.6854 -1.9685
13952TIP3   OH263346   0.094   4.732  12.872 -0.7040  0.1760  0.0736
13952TIP3    H163347   0.175   4.768  12.906  0.0062 -1.4671  0.2396
13952TIP3    H263348   0.118   4.695  12.787 -0.8169 -1.8709  0.8806
13953TIP3   OH263349   0.542   4.553  15.549 -0.0150 -0.1124 -0.1976
13953TIP3    H163350   0.627   4.534  15.589 -0.0892  1.7814  0.9947
13953TIP3    H263351   0.487   4.479  15.574  0.9183 -0.6894  0.1945
13954TIP3   OH263352   6.141   2.007  16.828  0.0483  0.0077 -0.3001
13954TIP3    H163353   6.117   1.915  16.829  0.6756 -0.1927  2.0782
13954TIP3    H263354   6.230   2.009  16.864 -0.0381  1.5562 -0.0998
13955TIP3   OH263355   4.898   0.900   2.256  0.4372 -0.1172  0.1316
13955TIP3    H163356   4.899   0.827   2.194 -0.2871 -0.3485  0.3894
13955TIP3    H263357   4.967   0.879   2.319  0.3312 -0.5046  0.1179
13956TIP3   OH263358   0.179   0.160  15.763 -0.1608  0.4369  0.0518
13956TIP3    H163359   0.154   0.068  15.769 -1.3553  0.8506  2.3228
13956TIP3    H263360   0.245   0.162  15.693  0.3133 -2.2131  0.3096
13957TIP3   OH263361   3.681   1.700   3.664  0.0437 -0.9654 -0.0807
13957TIP3    H163362   3.615   1.749   3.712  1.9975  1.4726  0.3185
13957TIP3    H263363   3.649   1.699   3.573  0.5278  2.4637 -0.4256
13958TIP3   OH263364   1.720   5.310   3.067 -0.0625 -0.1904  0.0650
13958TIP3    H163365   1.716   5.383   3.129 -2.5809 -0.2952  0.1172
13958TIP3    H263366   1.732   5.352   2.982  1.3438  0.0818  0.3817
13959TIP3   OH263367   0.991   1.404   3.788  0.0818  0.6358 -0.4197
13959TIP3    H163368   0.945   1.342   3.731 -1.5829  0.8120  0.6745
13959TIP3    H263369   1.001   1.357   3.871  0.2027  1.2825 -0.0653
13960TIP3   OH263370   2.987   0.676   4.718  0.0789  0.0193  0.4990
13960TIP3    H163371   3.068   0.714   4.684 -0.3868  1.3795  0.8478
13960TIP3    H263372   2.958   0.615   4.650  1.5077 -0.6794  0.4784
13961TIP3   OH263373   6.559   5.282  16.200 -0.5649  0.4439  0.2701
13961TIP3    H163374   6.645   5.288  16.244  0.3699 -0.2215 -1.3836
13961TIP3    H263375   6.497   5.315  16.265  1.0854  2.2226  1.0542
13962TIP3   OH263376   2.975   1.880  11.448  0.3095 -1.1956  0.7435
13962TIP3    H163377   3.009   1.800  11.488  0.7258 -0.9926  0.8001
13962TIP3    H263378   3.042   1.906  11.385 -0.5943 -1.8215 -0.5144
13963TIP3   OH263379   2.426   0.850  15.514 -0.2125 -0.2459 -0.2696
13963TIP3    H163380   2.371   0.803  15.451  0.1006 -0.0988 -0.6536
13963TIP3    H263381   2.481   0.782  15.553 -0.4944 -0.3564 -0.0545
13964TIP3   OH263382   3.683   6.596   4.726 -0.2656 -0.3528 -0.0160
13964TIP3    H163383   3.749   6.603   4.658  1.3441 -0.2995  1.4815
13964TIP3    H263384   3.643   6.510   4.713  1.2255 -1.0686  0.0063
13965TIP3   OH263385   1.173   0.054  14.801 -0.2867  0.1874  0.0126
13965TIP3    H163386   1.204  -0.036  14.810  0.0260  0.2424 -0.4770
13965TIP3    H263387   1.106   0.063  14.869 -0.8275 -0.6334 -0.3990
13966TIP3   OH263388   2.291   6.533   4.499  1.1596 -0.1048 -0.6311
13966TIP3    H163389   2.286   6.437   4.507  0.8396 -0.0900 -0.6480
13966TIP3    H263390   2.230   6.554   4.428  2.1265 -0.0064 -1.4777
13967TIP3   OH263391   3.000   3.797  11.427 -0.2880 -0.0704 -0.2788
13967TIP3    H163392   3.037   3.829  11.509  0.3339 -0.7553 -0.2850
13967TIP3    H263393   3.076   3.781  11.371 -0.7149  0.6226 -1.0910
13968TIP3   OH263394   0.073   6.431  13.865  0.1837 -0.2899 -0.5003
13968TIP3    H163395   0.125   6.511  13.856  0.1822 -0.0780  1.0759
13968TIP3    H263396   0.122   6.365  13.816 -0.3981  0.8923 -2.8237
13969TIP3   OH263397   1.246   5.035   6.666 -0.3654  0.7667  0.0429
13969TIP3    H163398   1.167   5.068   6.708 -1.4420 -1.7574  0.1751
13969TIP3    H263399   1.304   5.013   6.739 -1.3537 -1.5053  0.2325
13970TIP3   OH263400   1.527   3.699   6.194  0.6875 -0.2996 -0.2106
13970TIP3    H163401   1.546   3.711   6.101 -1.7316  1.6935 -0.5665
13970TIP3    H263402   1.439   3.661   6.195  0.3441  0.4659  1.2557
13971TIP3   OH263403   5.158   1.872  14.098  0.3219 -0.0173  0.2004
13971TIP3    H163404   5.071   1.864  14.137  0.1423  0.1845 -0.1532
13971TIP3    H263405   5.141   1.902  14.008  0.7416 -0.2107  0.0542
13972TIP3   OH263406   5.229   3.032  16.562  0.4681  0.4020 -0.1048
13972TIP3    H163407   5.263   2.948  16.530  0.9702  0.0408  1.3237
13972TIP3    H263408   5.302   3.069  16.612 -0.5859  0.5038  1.4074
13973TIP3   OH263409   1.079   0.756  10.984 -0.0532  0.1093  0.3600
13973TIP3    H163410   0.985   0.753  11.000  0.0115  0.4623  0.8333
13973TIP3    H263411   1.112   0.673  11.019 -0.3381 -0.5728 -0.9139
13974TIP3   OH263412   5.047   0.443   4.411 -0.0323 -0.0126  0.7116
13974TIP3    H163413   4.985   0.510   4.439 -0.4574 -0.7310  1.5407
13974TIP3    H263414   4.995   0.363   4.407  0.4839 -0.3085 -0.1990
13975TIP3   OH263415   6.067   0.879   4.779 -0.7947  0.6965  0.1904
13975TIP3    H163416   5.993   0.931   4.747  0.1352  1.3868 -0.9497
13975TIP3    H263417   6.104   0.932   4.850 -0.3816  1.1905 -0.3802
13976TIP3   OH263418   5.481   6.161  16.520 -0.6545  0.0217 -0.0811
13976TIP3    H163419   5.475   6.184  16.613 -0.6553 -0.0936 -0.0530
13976TIP3    H263420   5.406   6.104  16.504 -0.0318 -0.8811  0.1181
13977TIP3   OH263421   0.953   2.994   1.333  0.2002  0.8108  0.1437
13977TIP3    H163422   0.958   2.927   1.265  0.6002  0.2192  0.7389
13977TIP3    H263423   0.860   3.016   1.338  0.1724  0.8860 -0.6068
13978TIP3   OH263424   1.061   2.633   1.345 -0.0059 -0.7250  0.1427
13978TIP3    H163425   1.027   2.708   1.296 -1.0042 -0.3178  1.4000
13978TIP3    H263426   0.993   2.566   1.336  0.4539 -1.1503 -0.1963
13979TIP3   OH263427   5.743   2.251   0.288  0.5871 -0.2633  0.3576
13979TIP3    H163428   5.835   2.278   0.297  0.0562  1.3672  1.3784
13979TIP3    H263429   5.715   2.291   0.206  0.4673  0.2362  0.6416
13980TIP3   OH263430   6.479   4.891  17.428 -0.1952 -0.1208 -0.4201
13980TIP3    H163431   6.426   4.899  17.349  0.2578  0.1926 -0.6996
13980TIP3    H263432   6.565   4.862  17.397  0.2055  0.7157 -0.1290
13981TIP3   OH263433   4.920   1.549   4.433  0.9532 -0.2128 -0.2661
13981TIP3    H163434   4.996   1.604   4.414 -0.4443  1.4266 -1.3987
13981TIP3    H263435   4.889   1.520   4.348  0.9312 -1.8119  0.2487
13982TIP3   OH263436   3.937   0.738   0.771 -0.5364  0.0484 -0.4980
13982TIP3    H163437   3.940   0.672   0.702 -2.2272  2.6521 -3.2891
13982TIP3    H263438   3.859   0.789   0.752  0.5876  2.7948  1.5881
13983TIP3   OH263439   5.725   4.156   3.774 -0.0434  0.0005 -0.1775
13983TIP3    H163440   5.728   4.089   3.706 -0.1614 -0.7845  0.5760
13983TIP3    H263441   5.737   4.238   3.726  0.3672 -0.5627 -1.0852
13984TIP3   OH263442   4.131   6.760   2.211 -0.4045  0.1977 -0.0878
13984TIP3    H163443   4.072   6.824   2.172  0.1778  0.0456 -1.2489
13984TIP3    H263444   4.076   6.682   2.224 -0.7532  0.4497 -0.0177
13985TIP3   OH263445   6.381   6.139   5.582 -0.0798  0.5681  0.1876
13985TIP3    H163446   6.332   6.063   5.551  1.1551  0.2905 -1.2126
13985TIP3    H263447   6.359   6.145   5.675 -0.1644 -1.5527  0.3629
13986TIP3   OH263448   6.313   3.461   2.536 -0.1338  0.4192 -0.4232
13986TIP3    H163449   6.227   3.503   2.538 -0.1554  0.4661 -1.8697
13986TIP3    H263450   6.369   3.520   2.587 -1.2070 -0.2827  1.7154
13987TIP3   OH263451   2.959   4.602  15.739  0.1979 -0.6652  0.3100
13987TIP3    H163452   2.906   4.638  15.810 -2.3994 -2.8457 -0.3689
13987TIP3    H263453   2.970   4.675  15.678 -1.3281  0.1043  0.8947
13988TIP3   OH263454   0.950   0.082  14.069 -0.5784 -0.2594  0.2043
13988TIP3    H163455   0.992   0.087  13.983  0.5152 -0.3392  0.7185
13988TIP3    H263456   0.976  -0.003  14.104 -1.4394 -0.4433  0.4004
13989TIP3   OH263457   1.502   2.655   4.356 -0.1342  0.0173  0.2118
13989TIP3    H163458   1.443   2.580   4.351 -0.0994  0.0278 -0.6453
13989TIP3    H263459   1.547   2.645   4.439 -0.8681 -0.3502  0.5745
13990TIP3   OH263460   1.958   6.698  15.159  0.2430 -0.2064 -0.2520
13990TIP3    H163461   1.985   6.694  15.251 -1.9132  0.7303  0.4890
13990TIP3    H263462   1.931   6.789  15.146 -0.5775 -0.5996 -1.4691
13991TIP3   OH263463   3.123   2.490   0.383  0.2879  0.7140 -0.6400
13991TIP3    H163464   3.181   2.415   0.375 -2.3076 -1.3479 -1.7141
13991TIP3    H263465   3.106   2.497   0.477  0.4544 -0.1405 -0.5356
13992TIP3   OH263466   3.822   4.467  15.870 -0.1827 -0.5215 -0.8854
13992TIP3    H163467   3.738   4.495  15.833  0.7691  2.3433 -1.1506
13992TIP3    H263468   3.887   4.500  15.808  1.2024 -1.7832 -0.1625
13993TIP3   OH263469   6.049   5.282  13.183  0.9327 -0.1362  0.5559
13993TIP3    H163470   6.036   5.288  13.278  4.0388  1.5347  1.0169
13993TIP3    H263471   6.089   5.196  13.170  2.1203  0.3021  1.0871
13994TIP3   OH263472   6.708   0.712  16.802  0.4737 -0.3667  0.3659
13994TIP3    H163473   6.661   0.638  16.838 -1.2385  0.9824  1.0409
13994TIP3    H263474   6.740   0.760  16.878  2.5501 -0.9687 -0.0761
13995TIP3   OH263475   1.120   1.827   0.408 -0.0307 -0.2638 -0.4241
13995TIP3    H163476   1.144   1.770   0.334  1.6608  1.0876 -0.9719
13995TIP3    H263477   1.107   1.913   0.368 -1.7499 -0.0607  0.5092
13996TIP3   OH263478   0.874   1.707   0.257 -0.1492 -0.0827 -0.1622
13996TIP3    H163479   0.796   1.747   0.296  0.1679 -0.1026  0.5195
13996TIP3    H263480   0.947   1.752   0.299  0.2113 -1.2382  0.5056
13997TIP3   OH263481   5.566   0.687   1.288 -0.7278 -0.1150  0.5580
13997TIP3    H163482   5.548   0.593   1.296 -1.6519  0.0347  0.3828
13997TIP3    H263483   5.542   0.708   1.198  1.1999 -0.0442  0.0102
13998TIP3   OH263484   5.897   3.837  12.557  0.4040 -0.3589 -0.1798
13998TIP3    H163485   5.954   3.803  12.488 -0.2794 -0.7760 -0.5512
13998TIP3    H263486   5.940   3.917  12.586  1.5747 -1.0559  0.0820
13999TIP3   OH263487   1.557   1.924  16.709 -0.0640 -0.2354 -0.2960
13999TIP3    H163488   1.640   1.881  16.688 -0.0411  0.1934 -1.1422
13999TIP3    H263489   1.579   2.016  16.722 -0.0082 -0.5351  2.1896
14000TIP3   OH263490   2.690   1.462  16.025  0.0441 -0.4070 -0.3977
14000TIP3    H163491   2.725   1.433  16.109 -0.7801 -1.8716 -0.5264
14000TIP3    H263492   2.748   1.424  15.959  0.6053  0.6212 -0.5294
14001TIP3   OH263493   1.694   5.091  14.751 -0.4514 -0.4322 -0.1543
14001TIP3    H163494   1.598   5.097  14.748 -0.5697 -1.6123  0.7683
14001TIP3    H263495   1.712   5.000  14.773  0.8569 -0.0116  0.6369
14002TIP3   OH263496   2.655   1.532  15.354  0.2313  0.0378  0.0529
14002TIP3    H163497   2.649   1.627  15.341  0.0084  0.3812  2.3711
14002TIP3    H263498   2.745   1.517  15.383  0.2699 -0.4819 -0.3144
14003TIP3   OH263499   1.883   2.666   3.557  0.4229  0.3510 -0.7147
14003TIP3    H163500   1.838   2.597   3.607 -2.0696  2.3281 -0.0239
14003TIP3    H263501   1.899   2.627   3.471 -0.3807 -1.2763 -0.1706
14004TIP3   OH263502   3.274   6.360   1.908 -0.2637  0.2234 -0.2471
14004TIP3    H163503   3.183   6.352   1.882 -1.3875  2.3858  2.5197
14004TIP3    H263504   3.311   6.425   1.848 -0.0896 -1.6085 -2.2164
14005TIP3   OH263505   3.462   5.547   4.461  0.3985 -0.1562 -0.4179
14005TIP3    H163506   3.419   5.622   4.504 -1.6550 -1.4549 -0.0574
14005TIP3    H263507   3.503   5.499   4.532  0.4630 -0.1587 -0.4569
14006TIP3   OH263508   6.324   6.428   0.238 -0.0211 -0.0682 -0.8335
14006TIP3    H163509   6.366   6.506   0.274 -1.9101 -0.1457  1.8043
14006TIP3    H263510   6.233   6.453   0.224 -0.1055 -1.1040 -2.3876
14007TIP3   OH263511   3.268   2.198   5.969  0.0827 -0.0294 -0.2884
14007TIP3    H163512   3.294   2.260   6.038  0.1889  2.0246 -2.0520
14007TIP3    H263513   3.257   2.253   5.891 -1.2246 -2.0740 -1.6381
14008TIP3   OH263514   1.383   6.445   2.076 -0.2281  0.2876 -0.9561
14008TIP3    H163515   1.312   6.489   2.031  0.0269  1.3016 -0.3959
14008TIP3    H263516   1.356   6.353   2.081 -2.3877  0.9236  0.8824
14009TIP3   OH263517   0.629   6.276  12.839  0.1375  0.0806  0.9810
14009TIP3    H163518   0.664   6.365  12.844 -0.2319  0.2111  1.3241
14009TIP3    H263519   0.586   6.262  12.924 -0.8500  0.0240  0.4870
14010TIP3   OH263520   1.680   1.009  15.303 -0.2889  0.4240 -1.1469
14010TIP3    H163521   1.764   1.053  15.287 -0.2340  0.0120 -2.0927
14010TIP3    H263522   1.700   0.940  15.366 -0.8898  3.3507  2.5591
14011TIP3   OH263523   1.827   1.726  12.051 -0.3064 -0.1815  0.2133
14011TIP3    H163524   1.892   1.661  12.026 -0.9625 -1.0712  0.7464
14011TIP3    H263525   1.877   1.806  12.067  0.7208 -0.9538  1.0133
14012TIP3   OH263526   0.097   0.830  11.943  0.6635 -0.3662  0.0397
14012TIP3    H163527   0.132   0.915  11.973  0.0188  0.0316 -0.3098
14012TIP3    H263528   0.096   0.776  12.021 -0.1264  0.3592  0.5487
14013TIP3   OH263529   1.512   6.682   1.329  0.5866 -0.5601  0.4742
14013TIP3    H163530   1.606   6.689   1.311  0.5707  0.9899  0.8994
14013TIP3    H263531   1.472   6.751   1.275 -0.1434 -0.2142  1.4321
14014TIP3   OH263532   1.811   5.015  15.557  0.0658 -0.3608 -0.5042
14014TIP3    H163533   1.730   5.009  15.608  0.8713  0.4149  0.9190
14014TIP3    H263534   1.879   4.979  15.615  0.8218 -0.5867 -1.4968
14015TIP3   OH263535   6.067   2.300   0.916  1.0024  0.1858 -0.4536
14015TIP3    H163536   6.030   2.337   0.836  0.3769  0.8050  0.1171
14015TIP3    H263537   6.043   2.208   0.914 -0.4475  0.5438 -0.1705
14016TIP3   OH263538   0.845   1.149  16.740  0.0046  0.2896 -0.4288
14016TIP3    H163539   0.913   1.215  16.729  0.3607 -0.3402 -2.3963
14016TIP3    H263540   0.838   1.138  16.835  1.7148  1.3103 -0.1334
14017TIP3   OH263541   2.490   1.242  15.736 -0.0184  0.2023  0.4409
14017TIP3    H163542   2.406   1.205  15.709  1.0041 -3.2946  1.4153
14017TIP3    H263543   2.500   1.214  15.827  3.2104 -1.8232 -0.3734
14018TIP3   OH263544   4.027   3.139   4.318 -0.0213 -0.2783  0.3424
14018TIP3    H163545   3.979   3.119   4.238  0.9029  1.3672 -0.6737
14018TIP3    H263546   4.107   3.088   4.312  0.8631  1.1622 -0.6902
14019TIP3   OH263547   5.592   5.180   5.450 -0.1651  0.3799  0.4004
14019TIP3    H163548   5.678   5.154   5.483 -0.1172  1.1336  0.8945
14019TIP3    H263549   5.543   5.099   5.443  1.0803 -0.2852 -1.3611
14020TIP3   OH263550   2.239   1.664   2.748  0.4519 -0.2071  0.4474
14020TIP3    H163551   2.237   1.569   2.734  1.3059 -0.3411  1.1387
14020TIP3    H263552   2.171   1.680   2.813 -0.4265 -0.1819 -0.4418
14021TIP3   OH263553   5.684   2.180  10.749 -0.9582 -0.3825 -0.3320
14021TIP3    H163554   5.774   2.150  10.765 -0.6043  0.2615 -1.0817
14021TIP3    H263555   5.694   2.265  10.706 -1.9021 -1.1369 -2.1256
14022TIP3   OH263556   4.256   1.194  16.042  0.2625 -0.2304  0.2218
14022TIP3    H163557   4.310   1.116  16.027  2.4083  1.2157 -0.0169
14022TIP3    H263558   4.274   1.250  15.966 -1.4883  0.4018  0.2337
14023TIP3   OH263559   2.444   4.187  11.807  0.3715 -0.6132  0.2041
14023TIP3    H163560   2.452   4.180  11.902  0.0965  0.6174  0.3440
14023TIP3    H263561   2.447   4.282  11.790 -0.6692 -0.7548 -0.8985
14024TIP3   OH263562   3.009   0.056   1.419 -1.3827  0.6242  0.2549
14024TIP3    H163563   3.070   0.041   1.347 -0.2073 -0.1794  1.3731
14024TIP3    H263564   3.061   0.102   1.484 -2.0337  0.1350  1.1381
14025TIP3   OH263565   5.432   2.778  16.517 -0.9532 -0.3722 -0.1222
14025TIP3    H163566   5.506   2.810  16.569  0.1125 -0.4310 -1.5498
14025TIP3    H263567   5.433   2.683  16.531 -0.8655 -0.3550 -0.0027
14026TIP3   OH263568   2.004   0.678   2.555 -0.6237  0.2394 -0.1222
14026TIP3    H163569   2.066   0.735   2.601  2.4309 -3.0035  0.2928
14026TIP3    H263570   2.031   0.681   2.463  1.9252 -2.7975  0.3368
14027TIP3   OH263571   2.117   2.461   0.154 -0.5850 -0.1401 -0.0727
14027TIP3    H163572   2.154   2.534   0.203 -2.2417  0.5546  0.2028
14027TIP3    H263573   2.193   2.410   0.126  0.7254  2.4389 -1.5215
14028TIP3   OH263574   2.096   4.604  14.823  0.2554  0.2229  0.3047
14028TIP3    H163575   2.013   4.644  14.846 -0.2543  0.0214 -1.1117
14028TIP3    H263576   2.158   4.677  14.822  0.2174  0.3085  1.7860
14029TIP3   OH263577   1.801   0.566   3.524  0.1154 -0.1309 -0.0835
14029TIP3    H163578   1.848   0.618   3.458  0.6971 -0.6548 -0.0956
14029TIP3    H263579   1.793   0.479   3.484  0.8631 -0.5760  0.6993
14030TIP3   OH263580   2.901   4.141  11.325  0.0306  0.4729 -0.3555
14030TIP3    H163581   2.899   4.163  11.232 -0.4797  1.0619 -0.2132
14030TIP3    H263582   2.954   4.062  11.330 -1.4628 -0.6537 -1.3767
14031TIP3   OH263583   3.717   0.284  15.599 -0.0205 -0.1823 -0.2114
14031TIP3    H163584   3.681   0.252  15.516 -0.5520  1.6172 -0.7020
14031TIP3    H263585   3.641   0.286  15.658 -0.1774  0.9693 -0.4396
14032TIP3   OH263586   1.749   3.901  10.751  0.7928  0.2730  0.0237
14032TIP3    H163587   1.675   3.945  10.794  0.6909  0.5922 -0.4720
14032TIP3    H263588   1.709   3.855  10.676  1.2063  1.1286 -0.7382
14033TIP3   OH263589   0.059   2.110   1.846 -0.2639  0.2331  0.7413
14033TIP3    H163590   0.136   2.167   1.848 -1.5305  2.0096  2.0189
14033TIP3    H263591   0.054   2.072   1.933 -1.0837  0.5115  0.8261
14034TIP3   OH263592   2.582   3.588   2.944 -0.5166  0.5556 -0.1586
14034TIP3    H163593   2.515   3.654   2.964 -0.4758  0.7640 -0.7024
14034TIP3    H263594   2.533   3.505   2.943 -0.6645  0.6388 -0.0046
14035TIP3   OH263595   5.954   1.962  12.150  0.1714  0.1621 -0.6081
14035TIP3    H163596   5.987   1.875  12.125  1.6320  0.8821 -1.3363
14035TIP3    H263597   6.031   2.019  12.143 -0.5870  1.3886  0.5685
14036TIP3   OH263598   5.877   3.592  16.535  0.3163  0.6288  0.3269
14036TIP3    H163599   5.832   3.573  16.617  0.5992 -0.1802  0.3032
14036TIP3    H263600   5.858   3.685  16.518  1.7677  1.3435  2.2318
14037TIP3   OH263601   3.009   1.016  15.411  0.2469  0.1364 -0.0579
14037TIP3    H163602   2.970   0.950  15.354 -1.4096  0.4862  0.6267
14037TIP3    H263603   2.957   1.095  15.396  2.7315  1.6478 -1.5526
14038TIP3   OH263604   2.893   0.313  13.074 -0.0475  0.1596 -0.4265
14038TIP3    H163605   2.830   0.384  13.077  1.5055  1.5844 -0.4212
14038TIP3    H263606   2.873   0.268  12.992 -1.2431  0.3739 -0.2796
14039TIP3   OH263607   5.768   1.189  15.553  0.4675  0.1190 -0.0478
14039TIP3    H163608   5.812   1.171  15.470  1.3306 -1.3739  0.6863
14039TIP3    H263609   5.740   1.103  15.584  1.6760  0.3884  1.9971
14040TIP3   OH263610   2.537   4.965   6.149  0.0591  0.7301 -0.4257
14040TIP3    H163611   2.536   4.898   6.217  0.5506  2.0603  0.9715
14040TIP3    H263612   2.595   4.931   6.082  0.3851 -0.1882  0.2997
14041TIP3   OH263613   6.309   0.325  15.322  0.0273 -0.3382 -0.3781
14041TIP3    H163614   6.337   0.233  15.316  0.4386 -0.1349 -2.3655
14041TIP3    H263615   6.225   0.327  15.276  1.7479  0.8460 -3.8119
14042TIP3   OH263616   3.195   1.999   3.725 -0.0680 -0.4260 -0.4827
14042TIP3    H163617   3.140   2.028   3.653  0.2749 -0.4789 -0.7704
14042TIP3    H263618   3.144   2.018   3.804  0.7168  2.3692 -0.5214
14043TIP3   OH263619   1.453   5.681   5.958 -0.1933  0.2193 -0.1237
14043TIP3    H163620   1.521   5.615   5.966  0.8042  1.1020 -0.9686
14043TIP3    H263621   1.411   5.663   5.874 -0.6988 -0.0251  0.1732
14044TIP3   OH263622   2.565   0.006  16.596 -1.0133  0.0040  0.1624
14044TIP3    H163623   2.483   0.050  16.620 -0.3088  2.5115 -1.5637
14044TIP3    H263624   2.632   0.052  16.647 -0.5711 -1.6973  1.1907
14045TIP3   OH263625   6.624   2.077  13.661 -0.0379 -0.0927  0.2776
14045TIP3    H163626   6.550   2.089  13.601  0.3023  1.4377  0.1391
14045TIP3    H263627   6.701   2.077  13.605  0.4812  3.4854  0.7807
14046TIP3   OH263628   5.948   4.722  13.761  0.5550 -0.6357 -0.1945
14046TIP3    H163629   5.982   4.811  13.777  2.5553 -1.4579  0.4561
14046TIP3    H263630   5.987   4.697  13.677 -0.2988 -0.7762 -0.5557
14047TIP3   OH263631   5.614   2.391   6.069  0.3927 -0.2183 -0.2719
14047TIP3    H163632   5.553   2.457   6.038 -0.3830 -0.2207  1.1407
14047TIP3    H263633   5.559   2.321   6.103  1.1988 -0.9591 -0.4456
14048TIP3   OH263634   6.083   3.639  12.738  0.6644 -0.0449  0.4818
14048TIP3    H163635   6.088   3.727  12.702 -1.3939 -0.9470 -2.4521
14048TIP3    H263636   6.140   3.587  12.682 -3.3176 -1.6686 -2.5709
14049TIP3   OH263637   4.952   5.393  12.292 -0.8933  0.0804  0.0288
14049TIP3    H163638   4.979   5.472  12.340  1.2169 -1.0491  0.8336
14049TIP3    H263639   4.942   5.422  12.202 -0.5316  1.3494  0.3793
14050TIP3   OH263640   5.940   6.677  17.197 -0.3706 -0.2235  0.1994
14050TIP3    H163641   6.015   6.716  17.242 -0.6310  2.7475 -1.7159
14050TIP3    H263642   5.865   6.694  17.254 -0.0034 -0.9824  0.9362
14051TIP3   OH263643   2.542   3.229   2.438  0.1345  0.3792 -0.2953
14051TIP3    H163644   2.487   3.168   2.488 -0.1747 -0.1832 -1.3065
14051TIP3    H263645   2.582   3.176   2.370 -2.8058  1.7631 -3.4284
14052TIP3   OH263646   3.270   2.301   3.806 -0.5709  0.2529  0.1556
14052TIP3    H163647   3.262   2.271   3.715  0.5495  1.3219 -0.3280
14052TIP3    H263648   3.309   2.228   3.852 -0.8914 -0.2016 -0.2847
14053TIP3   OH263649   2.100   4.583  13.871  0.2067  0.0946 -0.0379
14053TIP3    H163650   2.169   4.603  13.935 -0.0401 -1.0442  0.5988
14053TIP3    H263651   2.133   4.507  13.823  0.1409  0.5980 -0.9042
14054TIP3   OH263652   4.470   2.817   2.774  0.3189 -0.3676  0.1896
14054TIP3    H163653   4.471   2.737   2.721  1.4330  0.6314 -1.3613
14054TIP3    H263654   4.466   2.888   2.710  3.2953  0.9512  1.3141
14055TIP3   OH263655   3.336   0.347   3.630  0.4552  0.7312  0.0959
14055TIP3    H163656   3.410   0.333   3.571  1.0339  1.3706  0.6468
14055TIP3    H263657   3.356   0.294   3.707 -0.4112 -0.2862 -0.3538
14056TIP3   OH263658   3.372   2.017   3.298  0.1053  0.2163 -0.0382
14056TIP3    H163659   3.301   1.979   3.350  0.7346  1.8407  2.1074
14056TIP3    H263660   3.435   1.946   3.287  0.0080 -0.1387  1.5551
14057TIP3   OH263661   4.905   0.609   2.275 -0.0093  0.2298  0.3315
14057TIP3    H163662   4.873   0.534   2.326 -1.7593  0.4990 -0.3127
14057TIP3    H263663   4.956   0.660   2.338 -0.3022 -0.5720  1.2485
14058TIP3   OH263664   1.223   1.498  13.564 -0.1259  0.3071 -0.6198
14058TIP3    H163665   1.144   1.538  13.526 -0.7753 -1.0315 -0.7363
14058TIP3    H263666   1.255   1.439  13.496 -1.3717 -2.2366  0.8496
14059TIP3   OH263667   0.859   4.368   4.599  0.7173 -0.5404  0.6498
14059TIP3    H163668   0.949   4.344   4.621  0.8456 -1.0187 -0.3270
14059TIP3    H263669   0.869   4.442   4.538  0.4495 -0.5405  0.6065
14060TIP3   OH263670   5.145   0.021   0.354  0.0336  0.2636 -0.1187
14060TIP3    H163671   5.121   0.078   0.281 -1.6717 -1.1227 -0.7372
14060TIP3    H263672   5.191  -0.052   0.312  2.6311  1.3348  0.7129
14061TIP3   OH263673   3.380   3.505  14.482 -0.2807  0.3708  0.6365
14061TIP3    H163674   3.442   3.578  14.483  0.4163 -0.2177  1.5270
14061TIP3    H263675   3.348   3.502  14.392  0.5177  1.0699  0.3177
14062TIP3   OH263676   0.441   5.615  16.631  0.0261  0.6249  0.4915
14062TIP3    H163677   0.487   5.532  16.643 -0.1873  0.5870  1.0821
14062TIP3    H263678   0.438   5.627  16.536 -1.4453 -0.9039  0.2944
14063TIP3   OH263679   6.584   2.956  13.947  0.3674  0.3567  0.5196
14063TIP3    H163680   6.558   3.031  13.894  1.2959 -0.2189 -0.7892
14063TIP3    H263681   6.563   2.982  14.037 -0.9804  1.4611 -0.0802
14064TIP3   OH263682   5.602   2.361   5.249  0.1411  0.5720  0.0152
14064TIP3    H163683   5.510   2.366   5.277  0.0766  2.0610 -0.3914
14064TIP3    H263684   5.603   2.294   5.181 -0.3299 -0.6101  1.1321
14065TIP3   OH263685   3.370   0.456  11.770  0.6749 -0.5115  0.1599
14065TIP3    H163686   3.451   0.478  11.816  1.3600 -1.6960 -0.4572
14065TIP3    H263687   3.323   0.539  11.764  1.6185  0.1003  0.9460
14066TIP3   OH263688   3.539   4.377  14.041 -0.0306 -0.3799 -0.3586
14066TIP3    H163689   3.568   4.461  14.078 -1.5717  0.7782 -1.6197
14066TIP3    H263690   3.512   4.398  13.952  0.0897 -2.3672 -0.9117
14067TIP3   OH263691   0.535   4.194  16.462 -0.5474 -0.5821 -0.1126
14067TIP3    H163692   0.502   4.126  16.521  1.0023 -0.7297  0.6268
14067TIP3    H263693   0.483   4.184  16.383 -1.9947 -1.0371  0.8580
14068TIP3   OH263694   4.969   6.331  11.466 -0.6650  0.3246 -0.0110
14068TIP3    H163695   4.893   6.380  11.499  1.2457  3.9285 -0.3667
14068TIP3    H263696   4.967   6.345  11.371 -0.8570 -1.6572 -0.3250
14069TIP3   OH263697   2.463   5.721   0.846  0.5293 -0.2240 -0.2632
14069TIP3    H163698   2.495   5.742   0.758  3.0812  0.7784  0.7697
14069TIP3    H263699   2.456   5.807   0.889 -2.1648 -0.5550  0.1340
14070TIP3   OH263700   5.691   2.604   2.986  0.0961 -0.2125  0.1096
14070TIP3    H163701   5.712   2.683   2.936  0.7053  0.5677  1.5478
14070TIP3    H263702   5.595   2.601   2.987  0.0704  0.5802  0.1491
14071TIP3   OH263703   4.914   4.022  16.613 -0.3421 -0.5979 -0.3095
14071TIP3    H163704   4.835   4.060  16.652 -0.1700  1.0170 -1.4369
14071TIP3    H263705   4.885   3.939  16.576 -1.7684  0.3558 -1.4829
14072TIP3   OH263706   4.497   1.110  12.675  0.8409  0.0455  0.6455
14072TIP3    H163707   4.508   1.095  12.769 -0.4684 -1.2486  0.6448
14072TIP3    H263708   4.480   1.023  12.639  1.7556  0.4602 -0.8737
14073TIP3   OH263709   2.324   4.583   5.615 -0.3343 -0.2494 -0.0071
14073TIP3    H163710   2.411   4.545   5.631  0.3093  1.4596  0.8135
14073TIP3    H263711   2.332   4.626   5.530  0.6438  2.4559  1.3398
14074TIP3   OH263712   5.571   3.231   3.015  0.5892 -0.6728 -0.2238
14074TIP3    H163713   5.617   3.200   2.937  2.5360 -1.8562  1.3095
14074TIP3    H263714   5.585   3.163   3.080  1.8618  1.6709  2.1800
14075TIP3   OH263715   3.316   0.886   6.420 -0.4303 -0.1743 -0.4139
14075TIP3    H163716   3.324   0.879   6.325 -0.6555  0.0436 -0.4515
14075TIP3    H263717   3.237   0.838   6.442 -1.5673  1.5311 -0.5898
14076TIP3   OH263718   1.217   2.578  11.564  0.0470  0.6502 -0.1941
14076TIP3    H163719   1.211   2.503  11.504  0.0709 -0.4998  1.1845
14076TIP3    H263720   1.248   2.540  11.646  0.5372  2.2705  0.4041
14077TIP3   OH263721   0.698   0.200  13.995 -0.3577 -0.1830 -0.2419
14077TIP3    H163722   0.694   0.279  13.941 -0.8910  1.0623  1.5091
14077TIP3    H263723   0.783   0.161  13.976 -1.7183 -1.6782 -4.3674
14078TIP3   OH263724   4.931   4.741  16.621  0.5584 -0.0428 -0.1085
14078TIP3    H163725   4.932   4.836  16.628 -0.1915 -0.1520  1.9739
14078TIP3    H263726   4.854   4.722  16.566 -0.0579  0.5255  0.5318
14079TIP3   OH263727   5.736   5.868   3.900 -0.0753 -0.2837 -0.2260
14079TIP3    H163728   5.707   5.955   3.871  0.8582  0.0052 -0.3239
14079TIP3    H263729   5.735   5.815   3.820 -0.9497 -0.4582 -0.1087
14080TIP3   OH263730   4.943   5.506  17.123  0.4004  0.0367 -0.3186
14080TIP3    H163731   4.972   5.416  17.109  0.2711  0.0713 -0.8292
14080TIP3    H263732   5.012   5.546  17.176 -0.3507 -0.8464  1.3894
14081TIP3   OH263733   4.242   3.029  16.160  0.2810 -0.1131 -0.0858
14081TIP3    H163734   4.250   2.933  16.163  1.8618 -0.0446 -1.0058
14081TIP3    H263735   4.174   3.045  16.094 -0.5050 -0.5960  0.5875
14082TIP3   OH263736   2.480   4.843  16.235  0.3562  0.0098 -0.2186
14082TIP3    H163737   2.422   4.899  16.287  2.4296 -0.7319  3.2168
14082TIP3    H263738   2.512   4.899  16.165  0.1717  2.2951  1.4208
14083TIP3   OH263739   3.977   6.585   2.568 -0.0382  0.5132  0.3582
14083TIP3    H163740   4.012   6.617   2.485 -0.4115  1.1201  0.4240
14083TIP3    H263741   3.996   6.655   2.630 -0.4577  0.4081  0.6090
14084TIP3   OH263742   3.354   3.889   1.672  0.2234  0.5276  0.0543
14084TIP3    H163743   3.422   3.955   1.684  0.4191  0.5048 -0.8328
14084TIP3    H263744   3.276   3.939   1.647  0.7397  0.3631 -2.0631
14085TIP3   OH263745   5.786   2.868  15.505  0.0389 -0.3006 -0.1750
14085TIP3    H163746   5.804   2.911  15.421  0.1880  0.0268  0.0218
14085TIP3    H263747   5.769   2.777  15.482 -1.5239  0.0979 -0.7381
14086TIP3   OH263748   2.727   0.326  11.846  0.4139 -0.1425 -0.2792
14086TIP3    H163749   2.805   0.271  11.851  0.5079 -0.0987 -1.0324
14086TIP3    H263750   2.655   0.264  11.831  0.4455 -0.1136 -0.5705
14087TIP3   OH263751   4.352   3.978  12.310  0.1479  0.2271 -0.6170
14087TIP3    H163752   4.440   3.941  12.304  0.3488  0.3054  1.2503
14087TIP3    H263753   4.349   4.019  12.397 -1.4830  0.8836 -0.9440
14088TIP3   OH263754   2.021   6.351  11.719 -0.2719  0.5544 -0.0704
14088TIP3    H163755   2.052   6.262  11.736 -0.1164  0.5150 -0.5447
14088TIP3    H263756   1.927   6.342  11.707 -0.2226  0.4145 -0.3632
14089TIP3   OH263757   2.774   2.851  11.846  0.1706  0.0526 -0.0945
14089TIP3    H163758   2.769   2.853  11.942 -0.0249  0.1867 -0.1088
14089TIP3    H263759   2.757   2.759  11.824  0.7877 -0.0986  0.0319
14090TIP3   OH263760   1.102   5.550  12.691  0.1537 -0.0485  0.1332
14090TIP3    H163761   1.116   5.633  12.644 -0.5887  0.1000  0.1540
14090TIP3    H263762   1.007   5.545  12.702  0.1648 -1.0672 -0.1448
14091TIP3   OH263763   0.268   4.557   0.955 -0.2925 -0.0330 -0.0033
14091TIP3    H163764   0.323   4.572   0.878 -0.8131  0.0694 -0.3614
14091TIP3    H263765   0.192   4.510   0.921 -2.0215  2.6417 -0.1533
14092TIP3   OH263766   3.023   2.731  11.667 -0.0836  0.3530 -0.2088
14092TIP3    H163767   2.969   2.808  11.649  0.0229  0.2676 -0.9157
14092TIP3    H263768   2.980   2.660  11.620  0.5766  0.2606 -0.6783
14093TIP3   OH263769   2.290   1.636   4.161  0.0793 -0.0793 -0.7541
14093TIP3    H163770   2.280   1.701   4.230 -0.0904  0.1630 -1.0060
14093TIP3    H263771   2.203   1.627   4.123 -0.4086 -2.0419  0.6749
14094TIP3   OH263772   2.282   1.762   2.189 -0.3549 -0.0302  0.2200
14094TIP3    H163773   2.250   1.847   2.160  0.6454  1.2069  2.4123
14094TIP3    H263774   2.308   1.717   2.109  0.4334  2.3250 -0.9481
14095TIP3   OH263775   1.469   0.440  10.696 -0.2866 -0.0019 -0.9195
14095TIP3    H163776   1.404   0.473  10.633  0.2922  0.1764 -1.4355
14095TIP3    H263777   1.421   0.376  10.749 -0.7141 -0.4003 -1.7634
14096TIP3   OH263778   0.787   3.189  14.636  0.0362 -0.3159 -0.1723
14096TIP3    H163779   0.868   3.240  14.640  0.3754 -0.8917  0.4382
14096TIP3    H263780   0.805   3.110  14.687 -0.8973 -0.4682 -0.0517
14097TIP3   OH263781   2.571   6.754   4.077  0.1214  0.3847  0.1964
14097TIP3    H163782   2.586   6.660   4.063 -0.9993  0.1662  0.3331
14097TIP3    H263783   2.506   6.777   4.010  1.3479  1.3769 -0.6960
14098TIP3   OH263784   0.295   3.717   1.084 -0.0535 -0.1039  0.6839
14098TIP3    H163785   0.339   3.740   1.166  0.7255 -1.1746  0.5746
14098TIP3    H263786   0.217   3.669   1.112  0.5404 -1.0219  0.7892
14099TIP3   OH263787   5.701   5.545   2.565 -1.2916 -0.0880  0.4880
14099TIP3    H163788   5.715   5.608   2.494  1.1069 -0.7754  0.2703
14099TIP3    H263789   5.720   5.594   2.645 -0.6320 -0.1860  0.3992
14100TIP3   OH263790   4.987   0.801  11.244 -0.6491  0.0810 -0.0457
14100TIP3    H163791   5.031   0.845  11.171  0.9275 -1.4625 -0.0882
14100TIP3    H263792   4.918   0.862  11.270  0.6585  2.0168 -0.8614
14101TIP3   OH263793   1.258   3.635  11.124 -0.3546  0.4690  0.4572
14101TIP3    H163794   1.313   3.626  11.202  0.3180 -1.4648 -0.1612
14101TIP3    H263795   1.169   3.635  11.157 -0.2166 -2.7141  1.2245
14102TIP3   OH263796   4.939   5.649   6.021  0.2471  0.9550 -0.7015
14102TIP3    H163797   5.018   5.594   6.023  1.3117  2.3604 -1.9612
14102TIP3    H263798   4.872   5.593   5.982  1.0036  0.1958 -0.9416
14103TIP3   OH263799   4.797   2.234  14.775 -0.0998  0.5500  0.2753
14103TIP3    H163800   4.854   2.311  14.783  0.7858  0.1467 -1.5104
14103TIP3    H263801   4.709   2.267  14.792  0.5509  1.3291  2.4319
14104TIP3   OH263802   2.128   5.998   0.511  0.1139  0.0373 -0.0696
14104TIP3    H163803   2.092   6.047   0.584  0.4834  1.6105 -0.8997
14104TIP3    H263804   2.054   5.985   0.451 -0.2283 -1.3967  0.6062
14105TIP3   OH263805   4.073   4.124  12.308  0.1482 -0.2142 -0.3000
14105TIP3    H163806   4.036   4.124  12.396 -0.0637 -0.6978 -0.3839
14105TIP3    H263807   3.998   4.117  12.249  0.3731 -2.5437 -0.4307
14106TIP3   OH263808   6.257   0.631   1.591 -0.1437  0.6217  0.1968
14106TIP3    H163809   6.264   0.577   1.512 -0.2329  1.3299 -0.3026
14106TIP3    H263810   6.343   0.623   1.633  0.5171  1.6073 -0.8912
14107TIP3   OH263811   4.772   5.429  16.090  0.6043 -0.1370 -0.0239
14107TIP3    H163812   4.767   5.513  16.135 -1.1052 -1.3486  2.2787
14107TIP3    H263813   4.859   5.428  16.050  0.9483  2.3888  0.5073
14108TIP3   OH263814   6.010   3.827   0.616  0.2116 -0.1094  0.2916
14108TIP3    H163815   5.934   3.841   0.560 -0.1951 -0.3057  0.7859
14108TIP3    H263816   6.008   3.900   0.678  0.9388  0.3766 -0.2510
14109TIP3   OH263817   1.935   1.933  16.127 -0.4410 -0.3688  0.5896
14109TIP3    H163818   2.027   1.919  16.148 -0.0436  0.2302 -0.6552
14109TIP3    H263819   1.903   1.847  16.098 -0.0747 -0.4059  0.3008
14110TIP3   OH263820   5.247   6.152  16.971 -0.1776 -0.1031 -0.5711
14110TIP3    H163821   5.210   6.228  17.017 -1.5850 -0.6829 -0.7142
14110TIP3    H263822   5.217   6.076  17.021  2.8866 -0.5538  0.7792
14111TIP3   OH263823   2.216   6.603  12.593 -0.2227 -0.2509 -0.3839
14111TIP3    H163824   2.165   6.678  12.624 -0.6180 -0.6832  0.0306
14111TIP3    H263825   2.181   6.586  12.505 -2.6564 -2.1245  0.8207
14112TIP3   OH263826   1.165   5.240   6.491  0.2369  0.5568  0.4432
14112TIP3    H163827   1.252   5.224   6.530  0.1546 -1.7061 -0.1984
14112TIP3    H263828   1.176   5.220   6.399 -1.6692 -3.0845  0.8390
14113TIP3   OH263829   3.073   0.702  13.937  0.4493 -0.5638  0.3563
14113TIP3    H163830   3.004   0.734  13.878 -0.2126  2.1682  2.4166
14113TIP3    H263831   3.031   0.698  14.023  2.1955 -1.3888  1.2207
14114TIP3   OH263832   6.023   0.408  13.534  0.3279  0.1199  0.8767
14114TIP3    H163833   6.077   0.378  13.461 -0.0732 -0.2670  0.7368
14114TIP3    H263834   6.085   0.423  13.606  0.5359 -1.0719  0.9575
14115TIP3   OH263835   6.346   6.702  12.952  0.0783 -0.0876 -0.1818
14115TIP3    H163836   6.284   6.629  12.949  0.7204 -0.6316 -1.1852
14115TIP3    H263837   6.432   6.659  12.957  0.5693  0.5124 -2.2309
14116TIP3   OH263838   5.779   6.643  12.742 -0.5028  0.0872 -0.2872
14116TIP3    H163839   5.746   6.721  12.786 -1.2479 -1.4794  2.1438
14116TIP3    H263840   5.872   6.659  12.731 -0.3700  0.8114  1.4986
14117TIP3   OH263841   5.223   2.826  13.986  0.1770 -0.2417 -0.2881
14117TIP3    H163842   5.128   2.824  14.001  0.2916  0.5448  0.6103
14117TIP3    H263843   5.232   2.806  13.893 -0.9664  1.0585 -0.7158
14118TIP3   OH263844   4.210   0.322   5.893  0.1720  0.1333 -0.2944
14118TIP3    H163845   4.304   0.342   5.885  0.0317  1.2124  0.5326
14118TIP3    H263846   4.176   0.388   5.953 -0.6978 -1.5575  1.2124
14119TIP3   OH263847   0.039   2.875  13.582 -0.5616 -0.0463 -0.2155
14119TIP3    H163848   0.118   2.882  13.527 -1.0644 -2.3301 -1.3335
14119TIP3    H263849   0.073   2.870  13.671  0.4836  0.1120 -0.5811
14120TIP3   OH263850   1.800   4.652   1.507  0.5806 -0.2072  0.4271
14120TIP3    H163851   1.739   4.578   1.507  2.3499 -1.7370  0.6792
14120TIP3    H263852   1.867   4.628   1.571  1.6960  1.1914 -0.1532
14121TIP3   OH263853   0.692   0.143   5.432 -0.2105  1.2923  0.6607
14121TIP3    H163854   0.753   0.069   5.435 -0.3331  0.9260 -2.5804
14121TIP3    H263855   0.749   0.220   5.420 -0.2332  1.2807  0.4694
14122TIP3   OH263856   3.412   3.850   4.315 -0.2993 -0.4182 -0.4121
14122TIP3    H163857   3.384   3.880   4.228 -0.1553  0.5189 -0.1549
14122TIP3    H263858   3.333   3.812   4.354 -0.3124 -1.0402 -1.0289
14123TIP3   OH263859   1.653   6.668  15.161 -0.5411  0.5735  0.2481
14123TIP3    H163860   1.665   6.589  15.213  0.2144  0.1859 -0.4750
14123TIP3    H263861   1.707   6.653  15.083  1.3880  2.6858  1.0703
14124TIP3   OH263862   6.183   2.714   0.767  0.4991 -0.2097 -0.1327
14124TIP3    H163863   6.274   2.727   0.795 -0.1889  3.6546  0.9191
14124TIP3    H263864   6.139   2.678   0.844  0.8198 -0.5611 -0.1117
14125TIP3   OH263865   2.498   3.756  13.270  1.0162 -0.0043 -0.5823
14125TIP3    H163866   2.536   3.764  13.183  0.9310  1.5709 -0.4953
14125TIP3    H263867   2.484   3.661  13.281 -2.0515 -0.1316 -3.5997
14126TIP3   OH263868   5.196   5.469   2.875  0.8598  0.2315  0.4020
14126TIP3    H163869   5.123   5.413   2.848  2.4277 -1.3075 -0.8399
14126TIP3    H263870   5.163   5.558   2.860  0.1379 -0.4448 -2.8579
14127TIP3   OH263871   5.909   6.207   6.194 -0.5908 -0.1076 -0.6678
14127TIP3    H163872   5.973   6.168   6.254 -1.4078  0.6728  0.7918
14127TIP3    H263873   5.840   6.141   6.188 -0.0780 -0.5766 -1.5226
14128TIP3   OH263874   1.000   6.409  12.013  0.1908 -0.4726  0.0444
14128TIP3    H163875   1.042   6.479  11.962 -1.3131  1.1429  0.9187
14128TIP3    H263876   0.908   6.433  12.015 -0.1838 -1.8748  1.3826
14129TIP3   OH263877   0.201   2.597   4.478  0.0374  0.9150 -0.7128
14129TIP3    H163878   0.201   2.518   4.424 -0.2047  1.6024 -1.7582
14129TIP3    H263879   0.160   2.570   4.560  0.4189 -0.1613 -0.8609
14130TIP3   OH263880   0.659   5.646   1.786  0.0569  0.4857 -0.4146
14130TIP3    H163881   0.600   5.622   1.715  0.0941  0.1437 -0.3321
14130TIP3    H263882   0.675   5.739   1.773  0.3759  0.3456 -1.0875
14131TIP3   OH263883   6.321   4.516  13.337  0.2229  0.3903 -0.3868
14131TIP3    H163884   6.364   4.430  13.344 -0.3733  0.1772  1.0658
14131TIP3    H263885   6.392   4.579  13.350  0.5633  0.1102 -0.8560
14132TIP3   OH263886   3.892   1.471   2.815  0.1213 -0.7340 -0.3192
14132TIP3    H163887   3.831   1.407   2.852  1.3499 -1.3737  0.7003
14132TIP3    H263888   3.837   1.530   2.763 -1.5866 -0.4616  1.6440
14133TIP3   OH263889   0.765   5.377  11.842 -0.2588  0.0550  0.2810
14133TIP3    H163890   0.750   5.435  11.767  0.7868  0.0021  0.0227
14133TIP3    H263891   0.842   5.413  11.886 -1.1445  0.3630  1.6186
14134TIP3   OH263892   2.231   0.675  14.785 -0.3637 -0.2307  0.3973
14134TIP3    H163893   2.149   0.724  14.779  0.5512  1.5570  1.5835
14134TIP3    H263894   2.238   0.653  14.878 -0.8649 -2.9627 -0.1088
14135TIP3   OH263895   0.523   6.655  13.813 -0.2395 -0.2233  0.6325
14135TIP3    H163896   0.457   6.725  13.807  1.8510  1.7571 -1.3168
14135TIP3    H263897   0.559   6.664  13.901 -0.0584  1.1587  0.4394
14136TIP3   OH263898   5.667   2.080  13.739 -0.1699  0.7069  0.0727
14136TIP3    H163899   5.738   2.016  13.734 -1.7863 -1.1356 -0.5789
14136TIP3    H263900   5.620   2.071  13.656 -2.3336  0.3948  1.2378
14137TIP3   OH263901   2.109   6.100  11.776  0.0804  0.4612 -0.3128
14137TIP3    H163902   2.104   6.044  11.853  0.0259  0.4772 -0.3042
14137TIP3    H263903   2.047   6.061  11.714 -0.2699  0.7527 -0.1504
14138TIP3   OH263904   0.373   2.920   1.251 -0.1456  0.1621 -0.4370
14138TIP3    H163905   0.294   2.973   1.237 -2.4177 -2.0862  2.6273
14138TIP3    H263906   0.351   2.834   1.215  0.8480 -0.5182  0.5112
14139TIP3   OH263907   4.171   2.542  12.784 -0.2396 -0.2638  0.1641
14139TIP3    H163908   4.107   2.591  12.836  0.7589  0.8693  0.3788
14139TIP3    H263909   4.129   2.530  12.699 -1.0537 -0.2705  0.5531
14140TIP3   OH263910   0.275   1.707   1.059  0.2642 -0.0229 -0.5215
14140TIP3    H163911   0.331   1.749   0.993  0.7496 -1.2881 -0.9374
14140TIP3    H263912   0.186   1.728   1.031  0.4947  0.6617 -0.7658
14141TIP3   OH263913   5.957   1.131   2.269  0.2503 -0.5036  0.0558
14141TIP3    H163914   5.877   1.141   2.321 -1.0456 -0.5647 -1.8478
14141TIP3    H263915   5.970   1.217   2.229  0.7240 -0.7070 -0.2323
14142TIP3   OH263916   3.272   6.721   0.614  0.4107  0.0481 -0.1056
14142TIP3    H163917   3.283   6.721   0.709  1.8893  0.7575 -0.2584
14142TIP3    H263918   3.259   6.813   0.591 -1.7834 -0.2799 -0.4409
14143TIP3   OH263919   3.936   0.449   0.929  0.5050 -0.2826  0.0550
14143TIP3    H163920   3.937   0.544   0.932 -1.0281 -0.2115 -0.6204
14143TIP3    H263921   3.853   0.425   0.970 -0.0961 -1.2115 -1.6097
14144TIP3   OH263922   2.158   4.701  17.353 -0.0546 -0.1053 -0.1221
14144TIP3    H163923   2.139   4.658  17.436  1.0420 -0.7550 -0.1967
14144TIP3    H263924   2.103   4.656  17.289  0.5788 -0.9387 -0.0822
14145TIP3   OH263925   2.684   6.522  17.468 -0.2893  0.1878  0.5663
14145TIP3    H163926   2.741   6.597  17.448  0.4470 -0.1683  1.2778
14145TIP3    H263927   2.709   6.455  17.405 -0.7691  0.4468  0.0966
14146TIP3   OH263928   5.878   3.101   3.966  0.4226  0.8072 -0.2831
14146TIP3    H163929   5.919   3.016   3.954  1.1144  1.3268 -1.8157
14146TIP3    H263930   5.902   3.127   4.055 -0.1695 -0.7563  0.3757
14147TIP3   OH263931   5.571   2.476  16.858  0.0629  0.4925  0.2562
14147TIP3    H163932   5.583   2.466  16.764 -1.9398 -1.6539  0.1155
14147TIP3    H263933   5.514   2.552  16.868  1.3745  1.5616 -0.1089
14148TIP3   OH263934   2.163   6.424   1.637  0.1547 -0.2485 -0.0521
14148TIP3    H163935   2.242   6.437   1.689 -1.0398 -0.9324  2.0724
14148TIP3    H263936   2.132   6.337   1.661 -1.6613  0.3125 -0.1967
14149TIP3   OH263937   1.159   6.247   3.055 -0.5099 -0.0850  0.3044
14149TIP3    H163938   1.086   6.290   3.100  0.6715  0.3598  1.8853
14149TIP3    H263939   1.117   6.178   3.003 -2.0465 -0.0327  1.3901
14150TIP3   OH263940   5.462   3.249   5.072 -0.3678  0.7559 -0.0915
14150TIP3    H163941   5.504   3.218   5.153 -0.2977  0.9202 -0.0641
14150TIP3    H263942   5.533   3.251   5.008 -0.5729 -0.0737 -0.3498
14151TIP3   OH263943   6.765   3.338  13.727 -0.4022  0.5832 -0.2665
14151TIP3    H163944   6.840   3.289  13.759 -1.0661 -0.8494 -0.8003
14151TIP3    H263945   6.784   3.355  13.635 -1.5837 -1.7041 -1.0333
14152TIP3   OH263946   5.367   2.143  12.868 -0.0381  0.2705  0.7228
14152TIP3    H163947   5.282   2.102  12.853  1.7750 -3.5478 -0.2458
14152TIP3    H263948   5.374   2.153  12.963 -0.2020 -2.8945  1.1543
14153TIP3   OH263949   1.990   2.136   6.231  0.0601 -0.6644  0.4743
14153TIP3    H163950   1.910   2.124   6.283 -0.0644 -1.6816  0.0810
14153TIP3    H263951   2.061   2.124   6.293 -0.0494  1.9210  1.1901
14154TIP3   OH263952   5.994   3.467   5.466 -0.0360  0.0463 -0.4999
14154TIP3    H163953   6.058   3.397   5.476 -0.0689  0.0864  0.0648
14154TIP3    H263954   5.911   3.421   5.449 -0.4187 -0.1833  1.6449
14155TIP3   OH263955   6.717   3.238   2.976  0.5819  0.3982 -0.2829
14155TIP3    H163956   6.646   3.194   2.931 -0.7034  1.8736  0.2213
14155TIP3    H263957   6.679   3.267   3.059  2.0614  0.3461  0.4516
14156TIP3   OH263958   1.042   4.510   5.398  0.7075  0.0508  0.4428
14156TIP3    H163959   1.123   4.460   5.390  1.0935  0.7246  0.0173
14156TIP3    H263960   0.979   4.463   5.344  0.4080 -1.2522  1.8587
14157TIP3   OH263961   3.289   1.474  14.987 -0.0164  0.1130 -0.0952
14157TIP3    H163962   3.355   1.513  14.930  0.2967 -0.5855 -0.2184
14157TIP3    H263963   3.264   1.545  15.047  1.2584  0.2316  0.3305
14158TIP3   OH263964   3.045   0.793   0.571 -0.5711 -0.1758  0.0049
14158TIP3    H163965   3.107   0.805   0.643  0.1802 -0.5863 -0.5666
14158TIP3    H263966   3.067   0.862   0.508 -1.8571  0.7999  0.5792
14159TIP3   OH263967   6.423   4.298   2.524 -0.1671  0.0863 -0.2180
14159TIP3    H163968   6.503   4.251   2.550  0.0047  0.2812 -0.3845
14159TIP3    H263969   6.372   4.305   2.604 -1.7632 -3.3474 -0.7741
14160TIP3   OH263970   0.823   5.190   5.638  0.4223 -0.4115 -0.2481
14160TIP3    H163971   0.742   5.205   5.686  0.7326 -1.7320  0.7410
14160TIP3    H263972   0.877   5.138   5.697  1.4272 -0.7884 -1.4514
14161TIP3   OH263973   1.564   2.437  12.454  0.3391  0.2421 -0.2505
14161TIP3    H163974   1.649   2.467  12.423 -0.4999  1.7246 -1.3115
14161TIP3    H263975   1.505   2.511  12.435 -0.4789  0.9861  4.1269
14162TIP3   OH263976   1.163   2.516   5.504  0.7993  0.0989  0.4124
14162TIP3    H163977   1.159   2.576   5.578 -0.5992 -1.5205  1.7345
14162TIP3    H263978   1.074   2.483   5.495  1.6708 -2.5854  0.4976
14163TIP3   OH263979   6.507   1.932   1.224  0.3125  0.1071  0.0630
14163TIP3    H163980   6.447   1.859   1.209  0.7845 -1.0395  3.0369
14163TIP3    H263981   6.454   1.998   1.269  0.4896  0.5244 -0.3345
14164TIP3   OH263982   3.896   1.013  13.449  0.5641 -0.5121  0.1164
14164TIP3    H163983   3.846   1.037  13.528  0.3158  0.7794 -0.4059
14164TIP3    H263984   3.960   0.949  13.480  0.0214 -0.5448  1.2347
14165TIP3   OH263985   6.541   5.567  12.057  0.3593  0.7203  0.3272
14165TIP3    H163986   6.621   5.568  12.109 -0.2628  0.1058  1.3507
14165TIP3    H263987   6.523   5.659  12.036 -0.4724  1.2595  3.0096
14166TIP3   OH263988   0.347   0.304  16.953 -0.0687 -0.3294  0.4943
14166TIP3    H163989   0.276   0.310  16.890  0.3992  0.6043  0.0275
14166TIP3    H263990   0.402   0.380  16.934  0.3196 -0.2721  1.7408
14167TIP3   OH263991   2.831   2.125   1.383 -0.0254  0.3833 -0.7239
14167TIP3    H163992   2.775   2.063   1.428  0.0172  0.2056 -0.9143
14167TIP3    H263993   2.862   2.184   1.452  1.3106 -0.8334 -0.2261
14168TIP3   OH263994   4.293   1.755   4.055 -0.1114  0.2232 -0.0051
14168TIP3    H163995   4.297   1.791   4.144 -0.3486 -2.0398  0.9884
14168TIP3    H263996   4.355   1.809   4.005 -0.3815  1.8956  1.3751
14169TIP3   OH263997   1.796   6.586   4.192 -0.1667 -0.4137 -0.7270
14169TIP3    H163998   1.823   6.596   4.100 -1.3180  0.4158 -0.9927
14169TIP3    H263999   1.711   6.544   4.188 -0.7474  0.6781 -0.1006
14170TIP3   OH264000   2.448   4.185   0.859 -0.1160  0.1605  0.0263
14170TIP3    H164001   2.506   4.252   0.895  1.5659 -0.8378 -0.6944
14170TIP3    H264002   2.401   4.228   0.788  0.5219  0.7191 -0.0589
14171TIP3   OH264003   5.696   1.859  14.581  0.0709 -0.0853  0.5136
14171TIP3    H164004   5.782   1.901  14.583  0.0361 -0.0297  0.8532
14171TIP3    H264005   5.673   1.846  14.673 -0.7547  0.8669  0.4630
14172TIP3   OH264006   4.408   2.009  16.843  0.0162 -0.5613  0.6428
14172TIP3    H164007   4.340   1.972  16.900 -0.1108 -0.4319  0.5745
14172TIP3    H264008   4.490   1.986  16.886 -0.0720 -0.7031  0.7336
14173TIP3   OH264009   5.801   0.776  11.153  0.1909  0.3172 -0.1765
14173TIP3    H164010   5.787   0.719  11.228 -0.5431 -1.2590 -1.4372
14173TIP3    H264011   5.884   0.820  11.171 -0.0996  0.1905  1.6521
14174TIP3   OH264012   1.586   4.085  15.268 -0.0599  0.3497  0.1433
14174TIP3    H164013   1.574   4.029  15.191 -1.2714  0.8602 -0.0549
14174TIP3    H264014   1.501   4.086  15.311  1.0179 -1.4784  2.6099
14175TIP3   OH264015   6.126   5.086   0.409  0.3065  0.2508  0.6996
14175TIP3    H164016   6.056   5.085   0.344  0.0605 -0.8974  0.9473
14175TIP3    H264017   6.103   5.157   0.468 -0.5105  0.0659  0.6183
14176TIP3   OH264018   1.013   2.387  14.264 -0.4373  0.0373  0.5125
14176TIP3    H164019   0.981   2.381  14.354 -1.1721  2.0564  0.4367
14176TIP3    H264020   0.958   2.454  14.223  0.3775 -0.2939 -1.2188
14177TIP3   OH264021   4.274   1.934   1.011 -0.4531  0.4953  0.3197
14177TIP3    H164022   4.226   1.896   0.937 -1.6515  1.3123  0.6431
14177TIP3    H264023   4.277   2.028   0.992 -0.4134  0.6559  1.1053
14178TIP3   OH264024   3.451   2.220  13.227 -0.1901  0.0987  0.2852
14178TIP3    H164025   3.512   2.147  13.236 -0.2301 -0.0412 -0.5359
14178TIP3    H264026   3.495   2.292  13.273 -0.0616 -0.3762  0.9278
14179TIP3   OH264027   6.095   4.921   6.139  0.3770 -0.4793  0.0394
14179TIP3    H164028   6.104   4.905   6.045 -1.7304 -1.1379 -0.1098
14179TIP3    H264029   6.140   5.004   6.153 -2.4589  1.7251 -2.3454
14180TIP3   OH264030   0.847   3.711  12.888 -0.2350  0.3684  0.3925
14180TIP3    H164031   0.898   3.792  12.878  0.8487 -0.4433 -1.1010
14180TIP3    H264032   0.796   3.705  12.807 -1.4971  0.3354  1.1766
14181TIP3   OH264033   1.332   3.698  13.900  0.0971  1.0334 -0.2855
14181TIP3    H164034   1.341   3.603  13.891 -1.3746  1.0370 -2.2732
14181TIP3    H264035   1.421   3.731  13.888  0.8193 -0.0875  1.3929
14182TIP3   OH264036   5.969   3.072   2.801 -0.0377 -0.0050 -0.0534
14182TIP3    H164037   5.968   3.168   2.798  0.2606 -0.0186 -0.8129
14182TIP3    H264038   5.984   3.045   2.710  0.4396 -0.7639  0.2386
14183TIP3   OH264039   4.853   6.406  16.999  0.3206 -0.3845 -0.0005
14183TIP3    H164040   4.857   6.363  16.914 -0.0889  1.2785 -0.9054
14183TIP3    H264041   4.943   6.404  17.031  0.9052  0.7974 -1.4523
14184TIP3   OH264042   2.983   4.676   3.355  0.2277 -0.1326  0.2267
14184TIP3    H164043   3.055   4.640   3.302 -0.4881 -0.6102 -0.4468
14184TIP3    H264044   2.967   4.609   3.421  0.1847 -0.1750  0.1736
14185TIP3   OH264045   0.163   5.863  13.576  0.2855  0.0242 -0.4836
14185TIP3    H164046   0.155   5.959  13.581 -0.5682 -0.1052  1.5001
14185TIP3    H264047   0.234   5.842  13.636 -0.7076 -0.6974  0.4672
14186TIP3   OH264048   3.107   0.784  13.069  0.4232 -0.6899 -0.1943
14186TIP3    H164049   3.058   0.738  13.137 -1.2810 -0.0374 -0.9361
14186TIP3    H264050   3.083   0.739  12.988  3.0912 -2.0193 -0.3652
14187TIP3   OH264051   3.681   6.221  14.710  0.1022  0.4474 -0.0074
14187TIP3    H164052   3.772   6.246  14.693  0.2832 -0.5562 -0.5562
14187TIP3    H264053   3.646   6.197  14.624 -0.3701 -0.1824  0.3580
14188TIP3   OH264054   2.859   2.106  12.519 -0.2780 -0.0812 -0.4708
14188TIP3    H164055   2.856   2.088  12.425  1.8940  1.6686 -0.9544
14188TIP3    H264056   2.811   2.189  12.528  0.8475  0.5704 -0.3136
14189TIP3   OH264057   1.213   6.230  12.002 -0.0919  0.1463 -0.4087
14189TIP3    H164058   1.181   6.141  12.017 -2.2941  0.7062 -1.4676
14189TIP3    H264059   1.136   6.286  12.011  1.0533  1.8802 -0.7291
14190TIP3   OH264060   3.834   0.440   5.175 -0.2921  0.0992  0.0875
14190TIP3    H164061   3.757   0.491   5.199  0.2622  0.2146  1.7771
14190TIP3    H264062   3.871   0.412   5.259  0.3406 -1.7115 -0.7306
14191TIP3   OH264063   6.267   2.536   0.326 -0.4175 -0.1181  0.1834
14191TIP3    H164064   6.256   2.511   0.417 -1.1753  1.3424  0.5115
14191TIP3    H264065   6.206   2.609   0.313 -1.0007 -0.8765 -1.7251
14192TIP3   OH264066   6.429   5.707  12.443  0.2272  0.1284 -0.3661
14192TIP3    H164067   6.367   5.691  12.514  0.4282 -0.9468 -0.4262
14192TIP3    H264068   6.507   5.658  12.466  0.8103  0.8984 -0.6506
14193TIP3   OH264069   4.966   5.644  12.393  0.3441 -0.4164  0.4775
14193TIP3    H164070   4.911   5.674  12.466 -1.2460 -1.4743 -0.2197
14193TIP3    H264071   5.029   5.715  12.380 -1.3385  1.2281  0.8471
14194TIP3   OH264072   6.022   2.601  15.682 -0.8988  0.1403  0.2825
14194TIP3    H164073   5.948   2.557  15.725 -0.5992 -0.8202 -0.1518
14194TIP3    H264074   6.099   2.569  15.729 -0.7993  2.4994  1.9294
14195TIP3   OH264075   2.983   3.830  15.290 -0.5976 -0.5995 -0.3249
14195TIP3    H164076   2.932   3.779  15.354  1.2698 -1.8389  0.2628
14195TIP3    H264077   2.991   3.917  15.330 -5.2752  0.9566 -2.0946
14196TIP3   OH264078   6.706   0.639  14.970  0.2651  0.0759  0.1557
14196TIP3    H164079   6.630   0.674  14.923  0.6942  0.8356  0.0002
14196TIP3    H264080   6.781   0.669  14.919  0.7115  0.3380  0.9581
14197TIP3   OH264081   2.083   2.673   5.364 -0.0204  0.5443  0.2313
14197TIP3    H164082   2.064   2.658   5.457  0.3846  1.7011  0.5164
14197TIP3    H264083   2.095   2.768   5.357  1.0815  0.3463 -0.7955
14198TIP3   OH264084   3.306   2.790  16.663  0.2037 -0.3044 -0.0924
14198TIP3    H164085   3.376   2.852  16.685  0.3696 -0.6206  0.2813
14198TIP3    H264086   3.251   2.837  16.600  1.6470 -0.6260 -1.6489
14199TIP3   OH264087   2.929   4.782   4.957 -0.6043 -0.2871 -0.8686
14199TIP3    H164088   2.876   4.702   4.965 -1.3967  0.3695  0.7553
14199TIP3    H264089   2.871   4.846   4.917 -0.8230  0.2089  0.2029
14200TIP3   OH264090   4.752   1.562  16.594  0.1078  0.1415 -0.9954
14200TIP3    H164091   4.814   1.507  16.643 -0.6381  0.0748 -0.1005
14200TIP3    H264092   4.682   1.503  16.570  0.6058  0.1115 -2.4338
14201TIP3   OH264093   1.937   6.594   1.600 -0.1235 -0.0965 -0.3117
14201TIP3    H164094   1.911   6.536   1.528  0.7196  0.3289 -0.9758
14201TIP3    H264095   2.000   6.542   1.650 -2.6046 -1.4100  1.7272
14202TIP3   OH264096   4.304   0.250   1.233 -0.0116  0.5340  0.3132
14202TIP3    H164097   4.384   0.301   1.250 -2.1499  3.3653  3.0124
14202TIP3    H264098   4.249   0.310   1.183 -0.7341 -1.1530 -0.9798
14203TIP3   OH264099   4.182   5.531  17.493  0.2776 -0.2457  0.2553
14203TIP3    H164100   4.257   5.492  17.447 -0.0117 -0.3083 -0.1649
14203TIP3    H264101   4.113   5.465  17.487  0.3192 -0.3677  1.0209
14204TIP3   OH264102   4.322   6.236  14.864  0.5107 -0.4865 -0.1507
14204TIP3    H164103   4.332   6.143  14.881  3.1818 -0.1059  0.8236
14204TIP3    H264104   4.410   6.266  14.840 -0.3100  1.7570 -0.6236
14205TIP3   OH264105   4.419   6.666   4.884  0.2386 -0.1510 -0.2805
14205TIP3    H164106   4.472   6.667   4.803 -1.8227 -1.1694 -1.7249
14205TIP3    H264107   4.350   6.729   4.868  0.6360  0.7568  1.3678
14206TIP3   OH264108   3.628   3.721  16.567 -0.0431 -0.1036  0.4255
14206TIP3    H164109   3.569   3.711  16.642  0.6801 -2.3768  0.7729
14206TIP3    H264110   3.704   3.667  16.588  1.2599  1.0981 -0.9368
14207TIP3   OH264111   0.511   5.931  13.343  0.1548 -0.0094 -0.3003
14207TIP3    H164112   0.577   5.920  13.275 -0.2275 -0.3957 -0.6154
14207TIP3    H264113   0.451   5.996  13.307 -0.6115 -0.9625 -0.7777
14208TIP3   OH264114   0.742   5.193   1.062 -0.1440  0.5605 -0.3912
14208TIP3    H164115   0.816   5.238   1.102 -1.1666  1.6369  0.3757
14208TIP3    H264116   0.772   5.103   1.050  0.2295  0.0947  2.9851
14209TIP3   OH264117   3.414   2.158  17.471  0.0507 -0.2681 -0.0053
14209TIP3    H164118   3.457   2.087  17.520 -0.8464  0.6145  2.1801
14209TIP3    H264119   3.446   2.238  17.512 -0.9192  0.5134 -0.7378
14210TIP3   OH264120   5.795   4.387  16.913 -0.5569 -1.0545  0.3225
14210TIP3    H164121   5.869   4.329  16.931 -0.4177 -0.5910  1.2897
14210TIP3    H264122   5.834   4.471  16.890 -0.7373 -1.5591 -2.0354
14211TIP3   OH264123   4.200   2.805  14.365 -0.0910 -0.4714  0.5102
14211TIP3    H164124   4.151   2.823  14.284 -0.3478  0.4280  0.8490
14211TIP3    H264125   4.259   2.880  14.375 -0.7493 -0.0767  1.6567
14212TIP3   OH264126   1.216   4.583   2.113 -0.1176  0.1508  0.0372
14212TIP3    H164127   1.183   4.672   2.121  2.0554  0.9843  0.6290
14212TIP3    H264128   1.247   4.562   2.201 -0.9415 -1.3649 -0.0017
14213TIP3   OH264129   5.733   4.524   2.191 -0.5280  0.2591  0.0141
14213TIP3    H164130   5.820   4.486   2.201 -0.7949 -0.3146  0.1785
14213TIP3    H264131   5.747   4.618   2.202 -0.0567  0.0985  0.9629
14214TIP3   OH264132   0.141   2.214   6.201 -0.5368  0.1178 -0.0831
14214TIP3    H164133   0.052   2.240   6.226 -0.2686  0.2417  0.7583
14214TIP3    H264134   0.131   2.125   6.167 -1.3243  0.9383 -2.1361
14215TIP3   OH264135   4.973   0.607  13.762 -0.5548  0.0497  0.4787
14215TIP3    H164136   5.028   0.654  13.698 -2.6377 -0.3182 -1.7305
14215TIP3    H264137   5.020   0.525  13.777 -0.1681 -0.0104 -0.8964
14216TIP3   OH264138   5.095   0.116   3.811  0.2004  0.4640  0.2347
14216TIP3    H164139   5.182   0.157   3.813  0.1833  0.4720  1.6251
14216TIP3    H264140   5.060   0.139   3.725  1.9552 -0.3721 -0.7453
14217TIP3   OH264141   5.163   5.440   3.724  0.0743  0.2615  0.2479
14217TIP3    H164142   5.100   5.396   3.667 -0.1189  2.5196 -1.4508
14217TIP3    H264143   5.112   5.463   3.802 -0.4572 -0.3183  0.0822
14218TIP3   OH264144   5.889   4.111   4.680  0.3206  0.2078  0.1587
14218TIP3    H164145   5.843   4.101   4.597  0.6095 -0.0531  0.0282
14218TIP3    H264146   5.932   4.027   4.694  0.0728  0.1654  0.6942
14219TIP3   OH264147   0.053   3.584  14.167  0.5323 -0.1445 -0.2243
14219TIP3    H164148   0.020   3.674  14.164 -1.5370 -0.7439  1.7399
14219TIP3    H264149  -0.025   3.530  14.159  1.0667 -1.6880  3.2386
14220TIP3   OH264150   1.467   6.183  17.082 -0.1673 -0.2224 -0.2133
14220TIP3    H164151   1.394   6.125  17.062 -2.7071  3.1654 -1.9526
14220TIP3    H264152   1.495   6.217  16.997  0.6962  1.5549  0.7094
14221TIP3   OH264153   2.036   0.792   5.988 -0.6374  0.2446  0.1482
14221TIP3    H164154   1.963   0.735   5.965 -1.1733  0.6758  0.7277
14221TIP3    H264155   2.109   0.732   6.004 -0.2458 -0.0707 -2.5001
14222TIP3   OH264156   0.676   2.818   3.312 -0.0838 -0.4274  0.2829
14222TIP3    H164157   0.599   2.871   3.292 -0.5674 -0.7738  1.1856
14222TIP3    H264158   0.693   2.768   3.232 -0.5609 -0.0602 -0.0477
14223TIP3   OH264159   6.560   6.238  12.219  0.3481  0.3536 -0.0534
14223TIP3    H164160   6.637   6.188  12.248 -0.4976  0.1565  2.0370
14223TIP3    H264161   6.547   6.304  12.288 -1.5020  0.1870 -0.1892
14224TIP3   OH264162   1.067   1.263   1.352 -0.9054 -1.0259  0.0664
14224TIP3    H164163   1.078   1.228   1.441 -0.5094  0.3642  0.5908
14224TIP3    H264164   1.013   1.341   1.364  3.2820  2.2063 -0.1291
14225TIP3   OH264165   5.416   2.807  17.343 -0.0717 -0.0097 -0.1270
14225TIP3    H164166   5.351   2.800  17.273 -1.3778  0.1679  1.0274
14225TIP3    H264167   5.412   2.899  17.370 -0.2049 -0.2651  0.7449
14226TIP3   OH264168   2.461   1.080  14.750  0.1963 -0.2874  0.6267
14226TIP3    H164169   2.487   1.172  14.759 -0.8063  0.2778 -1.5586
14226TIP3    H264170   2.493   1.038  14.830  1.8554  1.6826  1.0870
14227TIP3   OH264171   4.110   2.219   0.998  0.0059  0.3936  0.3232
14227TIP3    H164172   4.130   2.302   1.041 -0.1041  0.4992  0.1713
14227TIP3    H264173   4.017   2.225   0.976  0.0177  0.2657  0.2349
14228TIP3   OH264174   3.120   4.970   2.199 -0.1651  0.5172  0.0887
14228TIP3    H164175   3.030   5.001   2.189 -0.1236  0.9077  0.8087
14228TIP3    H264176   3.170   5.020   2.134 -0.6552 -0.6259 -1.1972
14229TIP3   OH264177   3.506   6.224  15.880  0.5008 -0.0950  0.1392
14229TIP3    H164178   3.530   6.133  15.863 -1.7116 -0.6111 -0.5438
14229TIP3    H264179   3.522   6.236  15.974  0.4515 -1.2980  0.3137
14230TIP3   OH264180   5.851   0.340   2.200 -0.0432 -0.5468  0.4870
14230TIP3    H164181   5.856   0.256   2.154  0.9296 -0.1087 -0.2419
14230TIP3    H264182   5.860   0.406   2.132  0.0360  0.1377  1.1463
14231TIP3   OH264183   3.605   6.662  13.199  0.4390 -0.4827  0.2621
14231TIP3    H164184   3.549   6.625  13.130  0.5406 -0.3253  0.0933
14231TIP3    H264185   3.645   6.586  13.240 -0.8280 -0.6736  1.2013
14232TIP3   OH264186   3.110   3.002  15.999  0.0510  0.1623  0.2456
14232TIP3    H164187   3.115   2.909  15.980 -2.1396 -0.1776  1.0403
14232TIP3    H264188   3.034   3.011  16.056 -0.6526  2.6240 -0.9291
14233TIP3   OH264189   4.307   2.662   4.442  0.1528  0.7293  0.2692
14233TIP3    H164190   4.398   2.633   4.435  0.4995  1.2379  2.1454
14233TIP3    H264191   4.256   2.590   4.406  1.1927 -0.6003  1.3668
14234TIP3   OH264192   3.926   1.834   0.404  0.0247  0.7867  0.0953
14234TIP3    H164193   3.989   1.892   0.447 -1.3544  2.0463  0.4727
14234TIP3    H264194   3.932   1.856   0.311  0.6144  0.4230  0.0431
14235TIP3   OH264195   2.547   2.006   0.230  0.6719  1.1430 -0.1759
14235TIP3    H164196   2.519   2.005   0.322 -1.2569  1.8297 -0.6986
14235TIP3    H264197   2.640   1.982   0.232  1.2141  3.0730  2.1361
14236TIP3   OH264198   0.067   0.949  17.417  0.1911  0.5196 -0.1794
14236TIP3    H164199   0.003   0.944  17.488  2.3787 -1.7959  1.7932
14236TIP3    H264200   0.148   0.976  17.460  1.8068 -1.8108 -1.5743
14237TIP3   OH264201   6.051   6.135  16.541  0.6954  0.0975 -0.5748
14237TIP3    H164202   6.041   6.204  16.607 -0.4331 -1.0628  0.5168
14237TIP3    H264203   6.137   6.097  16.560  0.8112  0.4242 -0.4272
14238TIP3   OH264204   5.642   4.481  16.068  0.0908  0.0303  0.0082
14238TIP3    H164205   5.613   4.412  16.127  2.4171  0.2400  1.5556
14238TIP3    H264206   5.634   4.443  15.980  1.1918 -2.2155  0.7911
14239TIP3   OH264207   6.343   2.479   2.725  0.3393 -0.4346  0.1360
14239TIP3    H164208   6.422   2.515   2.686  0.5920 -0.1899  0.8484
14239TIP3    H264209   6.369   2.455   2.814 -0.3989 -0.3025  0.3955
14240TIP3   OH264210   2.443   0.163   5.110  0.2598 -0.1339 -0.5620
14240TIP3    H164211   2.472   0.236   5.165  0.3295  0.6155 -1.5595
14240TIP3    H264212   2.388   0.204   5.043  0.0957 -1.0314 -0.9924
14241TIP3   OH264213   4.410   4.136  16.148 -0.5489  0.2884  0.6906
14241TIP3    H164214   4.374   4.109  16.064  1.5347  3.4052 -1.4114
14241TIP3    H264215   4.454   4.058  16.182 -0.9518 -0.8984 -1.3566
14242TIP3   OH264216   1.471   3.817  13.558 -0.5220 -0.1709 -0.6289
14242TIP3    H164217   1.386   3.846  13.591 -0.0329  0.6688 -0.0961
14242TIP3    H264218   1.530   3.890  13.574  0.5952 -1.2177  0.1923
14243TIP3   OH264219   3.606   5.662  12.655 -0.7836 -1.1688 -0.1824
14243TIP3    H164220   3.682   5.714  12.627 -2.1793  0.4090 -1.2667
14243TIP3    H264221   3.644   5.587  12.700  1.3909  0.2821  0.5947
14244TIP3   OH264222   3.589   1.148  11.821 -0.4154 -0.4490 -0.0273
14244TIP3    H164223   3.636   1.226  11.850 -1.4236  0.2048 -0.1301
14244TIP3    H264224   3.618   1.079  11.882 -1.0820  0.4784  1.3709
14245TIP3   OH264225   4.694   3.537   2.508 -0.2699 -0.1646  0.3542
14245TIP3    H164226   4.630   3.537   2.437  0.5828  0.8757 -0.4415
14245TIP3    H264227   4.778   3.517   2.466 -0.2076 -2.9985  1.5874
14246TIP3   OH264228   6.339   5.613   2.256 -0.1654  0.0875 -0.1286
14246TIP3    H164229   6.297   5.695   2.228 -0.6047  0.2878  1.0516
14246TIP3    H264230   6.378   5.635   2.341 -0.2346 -0.9032  0.1658
14247TIP3   OH264231   5.806   5.262  11.387 -0.6612  0.0954  0.0608
14247TIP3    H164232   5.853   5.240  11.467 -2.0590  1.7004  1.3999
14247TIP3    H264233   5.751   5.185  11.369 -0.8005 -0.0362  1.0086
14248TIP3   OH264234   5.330   5.464  15.177 -0.0535  0.0741  0.0600
14248TIP3    H164235   5.348   5.373  15.202 -2.4136 -0.5535 -0.2575
14248TIP3    H264236   5.294   5.504  15.256  4.0220  1.8532  1.2731
14249TIP3   OH264237   3.042   4.668  12.066  0.4671 -0.0599 -0.3129
14249TIP3    H164238   2.951   4.643  12.055  0.1597  0.0459  1.5732
14249TIP3    H264239   3.092   4.592  12.036 -0.2293 -0.2177 -1.1157
14250TIP3   OH264240   3.803   5.899  14.111 -0.6464  0.4058  0.4381
14250TIP3    H164241   3.767   5.985  14.087 -0.9632 -0.2244 -1.5616
14250TIP3    H264242   3.742   5.864  14.175 -1.1825  1.1565  0.3476
14251TIP3   OH264243   5.563   4.248   3.045  0.3851 -0.4195  0.0527
14251TIP3    H164244   5.647   4.228   3.004  0.5090 -0.7420  0.4511
14251TIP3    H264245   5.540   4.167   3.091  0.8893  0.3523  1.7159
14252TIP3   OH264246   3.819   0.357  13.063 -0.1874 -0.5149  0.1643
14252TIP3    H164247   3.730   0.381  13.087 -0.1322 -0.9469  0.8264
14252TIP3    H264248   3.811   0.314  12.978 -1.0442 -3.2926  1.5156
14253TIP3   OH264249   3.764   3.392   5.915 -0.1089  0.4299 -0.1760
14253TIP3    H164250   3.698   3.460   5.897 -0.7027  0.1729  0.9523
14253TIP3    H264251   3.813   3.385   5.833 -1.4400  0.6777 -1.0301
14254TIP3   OH264252   4.439   5.206  11.328 -0.5018  0.3126 -0.3339
14254TIP3    H164253   4.508   5.188  11.391 -1.3670 -0.7840  0.3548
14254TIP3    H264254   4.436   5.128  11.272 -2.4006 -0.5335  0.8466
14255TIP3   OH264255   0.072   4.595  13.549  0.2811 -0.2823 -0.1288
14255TIP3    H164256   0.022   4.635  13.477  0.9317  1.8060  0.4934
14255TIP3    H264257   0.135   4.663  13.575  1.9474 -2.0012  0.5946
14256TIP3   OH264258   6.304   1.724   5.306  0.1201  0.3132  0.2819
14256TIP3    H164259   6.385   1.679   5.280  0.7690  1.7554 -0.2598
14256TIP3    H264260   6.321   1.755   5.395  0.4973  1.3616 -0.1489
14257TIP3   OH264261   5.858   1.936  12.395 -0.0455 -0.6016 -0.1258
14257TIP3    H164262   5.910   1.971  12.323  0.2964 -0.6209  0.1084
14257TIP3    H264263   5.894   1.849  12.410  2.3142  0.6666  2.3970
14258TIP3   OH264264   0.766   1.971   4.176  0.2478  0.3117  0.7026
14258TIP3    H164265   0.811   2.054   4.163  0.2023  0.1964 -0.2815
14258TIP3    H264266   0.700   1.968   4.106 -1.2122  0.4078  2.0246
14259TIP3   OH264267   2.299   6.355   3.070 -0.1641  0.5298 -0.2876
14259TIP3    H164268   2.382   6.334   3.113 -0.4539  0.6872  0.3612
14259TIP3    H264269   2.243   6.279   3.086 -0.3238  0.6528 -0.2507
14260TIP3   OH264270   2.467   0.758  17.338 -0.0531  0.2567  0.1630
14260TIP3    H164271   2.523   0.721  17.269  2.5682  1.0316  1.7481
14260TIP3    H264272   2.461   0.688  17.403 -3.2923 -0.8223 -1.0979
14261TIP3   OH264273   1.716   5.233  11.505 -0.4550  0.2718  0.0376
14261TIP3    H164274   1.644   5.265  11.450 -0.9171 -0.5094  0.1666
14261TIP3    H264275   1.784   5.209  11.443 -1.1361 -1.0099 -0.2526
14262TIP3   OH264276   0.162   4.850   2.954 -0.2313  0.3039  0.1783
14262TIP3    H164277   0.072   4.832   2.927  0.2376 -1.8611 -0.0699
14262TIP3    H264278   0.204   4.765   2.957  1.9315  1.3086 -0.0509
14263TIP3   OH264279   1.583   0.838   6.172  0.1339 -0.1098  0.2132
14263TIP3    H164280   1.647   0.848   6.243  1.9052  2.6142 -1.5796
14263TIP3    H264281   1.499   0.830   6.217  1.3992 -0.9219  2.6201
14264TIP3   OH264282   6.051   0.613  12.452 -0.3954 -0.1586  0.1066
14264TIP3    H164283   6.005   0.636  12.371  1.0971 -0.5150 -0.8824
14264TIP3    H264284   6.062   0.518  12.447  1.7386  0.0762 -0.4378
14265TIP3   OH264285   2.865   2.765   4.267  0.6363 -0.1775 -0.1846
14265TIP3    H164286   2.936   2.711   4.301 -0.0960 -1.2144 -0.2677
14265TIP3    H264287   2.899   2.855   4.271  2.3638 -0.7326 -1.2404
14266TIP3   OH264288   0.033   5.562  11.941 -0.0417 -0.0472 -0.0040
14266TIP3    H164289  -0.059   5.535  11.929  0.1823 -0.5918 -0.5298
14266TIP3    H264290   0.081   5.479  11.942  0.6990  0.3220 -1.8513
14267TIP3   OH264291   2.222   5.828   2.380 -0.1977  0.0944 -0.1505
14267TIP3    H164292   2.215   5.798   2.470 -0.9290  1.0190  0.1179
14267TIP3    H264293   2.206   5.922   2.385 -1.3233 -0.0089 -1.3756
14268TIP3   OH264294   4.988   0.487   2.539 -0.2793 -0.2361 -0.0331
14268TIP3    H164295   4.924   0.442   2.594  0.6908  0.4959  1.8051
14268TIP3    H264296   5.024   0.420   2.482 -0.2040 -1.4128  1.3468
14269TIP3   OH264297   4.145   5.733   2.883 -0.3692  0.3347  0.2752
14269TIP3    H164298   4.106   5.671   2.821  0.8163  0.0307 -0.1860
14269TIP3    H264299   4.239   5.723   2.871 -0.0282 -0.5739  2.9239
14270TIP3   OH264300   1.497   1.461   5.697 -0.4743  0.0309  0.1490
14270TIP3    H164301   1.494   1.539   5.753 -0.0275  1.4984 -1.7669
14270TIP3    H264302   1.573   1.475   5.641 -0.7963 -1.4815 -0.7013
14271TIP3   OH264303   4.756   6.731   1.037  0.2358  0.1643 -0.1997
14271TIP3    H164304   4.791   6.803   0.984 -0.2777  1.1821  0.8016
14271TIP3    H264305   4.668   6.717   1.002  0.8322 -0.9661 -1.3249
14272TIP3   OH264306   1.980   1.350  15.886  0.1446  0.4957 -0.6881
14272TIP3    H164307   1.972   1.416  15.954  0.3759 -0.8309  0.6813
14272TIP3    H264308   2.075   1.336  15.877  0.0844  0.1129 -0.7296
14273TIP3   OH264309   5.273   0.313  11.891  0.4150 -0.1569  0.3593
14273TIP3    H164310   5.257   0.219  11.896 -0.2166 -0.0835 -0.1996
14273TIP3    H264311   5.216   0.351  11.958 -0.7800 -0.0133 -0.7166
14274TIP3   OH264312   5.556   6.545   2.708 -0.4018 -0.3064  0.2053
14274TIP3    H164313   5.590   6.530   2.619 -1.5536 -2.9379  0.0892
14274TIP3    H264314   5.615   6.495   2.764 -0.1798  0.6523  0.8422
14275TIP3   OH264315   4.862   3.205   4.350 -0.0588 -0.5968  0.1136
14275TIP3    H164316   4.865   3.155   4.432  0.5339 -1.1006 -0.2138
14275TIP3    H264317   4.898   3.146   4.284  2.7237  0.9456  0.0905
14276TIP3   OH264318   4.511   2.900   0.799  0.2359  0.6339  0.0607
14276TIP3    H164319   4.438   2.930   0.747 -0.1160 -0.4873 -0.1288
14276TIP3    H264320   4.513   2.958   0.875 -0.4646  1.0526 -0.2396
14277TIP3   OH264321   1.097   2.552  16.031 -0.0676 -0.0465  0.0446
14277TIP3    H164322   1.066   2.497  15.959 -0.9314 -2.0733  1.8617
14277TIP3    H264323   1.051   2.634  16.019  0.3227 -0.0623 -2.0665
14278TIP3   OH264324   5.142   3.047  12.050 -0.0273  0.8118  0.1211
14278TIP3    H164325   5.050   3.074  12.061 -0.8876 -1.4497 -0.8073
14278TIP3    H264326   5.170   3.022  12.138  0.1219  2.5957  0.6169
14279TIP3   OH264327   1.915   6.675   3.001 -0.5965  0.2675  0.0701
14279TIP3    H164328   1.961   6.623   2.936 -0.7500  0.0432  0.1386
14279TIP3    H264329   1.840   6.621   3.026 -1.0667  0.7591 -0.2595
14280TIP3   OH264330   5.087   3.664  13.264 -0.2116  0.1268  0.5010
14280TIP3    H164331   5.096   3.575  13.231  1.8098 -0.0752  1.4223
14280TIP3    H264332   5.086   3.719  13.186  1.6623 -0.5296 -0.0486
14281TIP3   OH264333   0.285   0.664   1.777 -0.4362  0.0837 -0.3196
14281TIP3    H164334   0.369   0.709   1.791 -0.1886 -0.6163  0.5101
14281TIP3    H264335   0.227   0.733   1.746  0.4025  0.6194 -0.7461
14282TIP3   OH264336   5.814   1.403  12.996 -0.0999 -0.3835  0.1346
14282TIP3    H164337   5.806   1.320  12.949  0.4859 -0.9057  0.9375
14282TIP3    H264338   5.799   1.381  13.088  0.3017  0.3555  0.3909
14283TIP3   OH264339   1.830   5.170   0.549 -0.1386 -0.3577  0.4682
14283TIP3    H164340   1.786   5.253   0.567 -0.2268 -0.0617 -0.9775
14283TIP3    H264341   1.761   5.114   0.512 -0.4372 -1.6126  2.7347
14284TIP3   OH264342   1.477   1.879  11.579 -0.3997 -0.2508 -0.0467
14284TIP3    H164343   1.433   1.924  11.651 -0.2937 -0.5727  0.2269
14284TIP3    H264344   1.477   1.787  11.606 -1.0876 -0.4994 -0.8367
14285TIP3   OH264345   5.209   5.262   4.819  0.2443  0.0583  1.0496
14285TIP3    H164346   5.270   5.322   4.776  0.4969 -1.2190 -0.4936
14285TIP3    H264347   5.239   5.257   4.910  3.1900 -1.3149  0.1366
14286TIP3   OH264348   3.899   4.502   0.942 -0.6310  0.0153 -0.9188
14286TIP3    H164349   3.993   4.486   0.933 -0.1919  1.6824  0.2867
14286TIP3    H264350   3.882   4.490   1.036 -1.0906  2.0877 -0.6841
14287TIP3   OH264351   1.250   4.979   4.509  0.2250 -0.1262  0.0228
14287TIP3    H164352   1.196   4.934   4.574  0.5032 -0.5533 -0.0393
14287TIP3    H264353   1.232   4.933   4.427  0.1029  0.2187 -0.1432
14288TIP3   OH264354   0.532   1.260   0.427  0.4542 -0.3423  0.0977
14288TIP3    H164355   0.478   1.282   0.502 -0.5817  1.2255 -1.0274
14288TIP3    H264356   0.479   1.197   0.377  0.9994 -1.1331  0.5010
14289TIP3   OH264357   5.299   2.499   6.260 -0.3850 -0.8580 -0.6554
14289TIP3    H164358   5.323   2.589   6.284 -0.1845 -1.5283  1.9102
14289TIP3    H264359   5.277   2.457   6.343 -0.9147 -3.0779 -1.8478
14290TIP3   OH264360   1.798   3.406   4.224 -0.1283  0.2608  0.3772
14290TIP3    H164361   1.838   3.319   4.228  1.7035  1.0511 -0.1354
14290TIP3    H264362   1.789   3.424   4.131 -1.6180  0.1654  0.4731
14291TIP3   OH264363   4.224   1.128   6.075  0.0532  0.0168  0.1526
14291TIP3    H164364   4.174   1.204   6.103 -1.3033 -1.2206  1.2772
14291TIP3    H264365   4.170   1.088   6.007 -0.9034 -1.6783  1.8055
14292TIP3   OH264366   6.319   3.450   3.649  0.3914  0.0140  0.0960
14292TIP3    H164367   6.264   3.432   3.573  0.7070  0.9860 -0.3755
14292TIP3    H264368   6.345   3.363   3.681 -1.7143 -0.5145  0.5815
14293TIP3   OH264369   1.396   6.716   0.822 -0.3057 -0.2288  0.0752
14293TIP3    H164370   1.363   6.752   0.740  2.0229 -0.8208 -1.1991
14293TIP3    H264371   1.477   6.671   0.798  0.1218 -0.9691  2.6100
14294TIP3   OH264372   2.583   1.109  11.136  0.7051 -0.2479  0.2530
14294TIP3    H164373   2.668   1.109  11.091 -0.7912 -2.4170 -2.9011
14294TIP3    H264374   2.563   1.017  11.150 -2.6719 -0.1356 -2.5359
14295TIP3   OH264375   0.604   1.736  14.196  0.1086 -0.3581  0.0292
14295TIP3    H164376   0.683   1.782  14.168 -0.1642 -1.1564 -2.1902
14295TIP3    H264377   0.612   1.649  14.159 -1.3737 -0.7684  0.6125
14296TIP3   OH264378   2.880   0.412   3.251 -0.0876 -0.0209  0.4200
14296TIP3    H164379   2.937   0.370   3.315 -0.5988  0.9052  1.5250
14296TIP3    H264380   2.900   0.505   3.259 -1.0492  0.2179  0.1367
14297TIP3   OH264381   2.366   1.969   5.628  0.6557 -0.4352 -0.2696
14297TIP3    H164382   2.404   1.886   5.657 -0.4025 -1.4018 -1.5225
14297TIP3    H264383   2.391   1.976   5.536 -1.1906 -0.5434 -0.8183
14298TIP3   OH264384   0.029   0.631  10.616  0.1080  0.7051  0.0702
14298TIP3    H164385  -0.053   0.624  10.664 -0.0661 -0.0132 -0.3234
14298TIP3    H264386   0.055   0.541  10.599  0.7256  0.9334 -0.2430
14299TIP3   OH264387   5.318   2.596   0.001 -0.0245 -0.3492 -0.1955
14299TIP3    H164388   5.347   2.651  -0.071  0.7842 -2.1718 -1.3297
14299TIP3    H264389   5.334   2.507  -0.029 -0.8646 -1.2068  1.7451
14300TIP3   OH264390   0.244   2.748  14.578 -0.6757  0.2758  0.2939
14300TIP3    H164391   0.250   2.821  14.515 -1.5415  0.3661  0.3069
14300TIP3    H264392   0.294   2.677  14.537 -1.3929  0.2673 -0.6008
14301TIP3   OH264393   3.288   3.085  14.515  0.7671 -0.0166  0.1283
14301TIP3    H164394   3.381   3.105  14.511  0.9946 -0.9343  0.6204
14301TIP3    H264395   3.282   2.992  14.493  0.0644 -0.1840  0.9755
14302TIP3   OH264396   1.822   5.317  15.183 -0.1601 -1.0904  0.1085
14302TIP3    H164397   1.826   5.340  15.090 -0.9187 -0.3106  0.2538
14302TIP3    H264398   1.912   5.291  15.205  0.4744  0.4709 -0.4134
14303TIP3   OH264399   4.021   0.019  12.023 -0.0800 -0.3999 -0.4802
14303TIP3    H164400   3.931   0.022  11.991 -0.2860 -0.4438  0.0851
14303TIP3    H264401   4.071   0.067  11.957 -0.4136 -0.9266 -1.1312
14304TIP3   OH264402   0.453   0.179   3.250 -0.1094  0.0752 -0.5376
14304TIP3    H164403   0.404   0.213   3.175 -0.9816 -1.3327 -0.6396
14304TIP3    H264404   0.501   0.255   3.283 -0.5927  0.9812 -1.8205
14305TIP3   OH264405   2.498   4.165  16.567  0.6474 -0.1810  0.2504
14305TIP3    H164406   2.570   4.228  16.574  1.4506 -1.1737  1.4519
14305TIP3    H264407   2.529   4.088  16.616 -0.7701 -1.0730 -0.1901
14306TIP3   OH264408   6.684   1.066  13.218  0.6344 -0.1785 -0.2555
14306TIP3    H164409   6.615   1.087  13.155  0.1719 -1.1622 -0.0872
14306TIP3    H264410   6.715   1.152  13.247 -2.3756  0.4313  1.6963
14307TIP3   OH264411   0.356   0.834  13.909 -0.4269  0.3389 -0.5620
14307TIP3    H164412   0.449   0.821  13.892  0.7127  2.2228  3.0765
14307TIP3    H264413   0.343   0.929  13.904 -2.0025  0.1685 -0.4174
14308TIP3   OH264414   2.119   2.877  16.704 -0.4175 -0.2325  0.3015
14308TIP3    H164415   2.033   2.875  16.662  0.0785  1.0118 -0.8303
14308TIP3    H264416   2.174   2.823  16.648 -1.1474 -4.0989  2.8944
14309TIP3   OH264417   4.167   0.318  16.108 -0.1685  0.2859 -0.1040
14309TIP3    H164418   4.151   0.224  16.097  0.9871  0.0020  0.4410
14309TIP3    H264419   4.080   0.358  16.106 -0.7104 -0.8485  0.0676
14310TIP3   OH264420   5.285   2.028   3.027 -0.4883 -0.5003  0.3916
14310TIP3    H164421   5.224   2.095   2.996 -0.5860 -0.9295 -0.3717
14310TIP3    H264422   5.371   2.062   3.005 -0.4328  0.0877  1.4335
14311TIP3   OH264423   0.098   0.356   0.824 -0.7145  0.2088 -0.3248
14311TIP3    H164424   0.057   0.303   0.892 -1.3589 -2.3248 -2.5225
14311TIP3    H264425   0.056   0.328   0.743  1.1219  1.9325 -1.9948
14312TIP3   OH264426   2.432   3.673   1.145 -0.0015 -0.6522  0.6713
14312TIP3    H164427   2.387   3.753   1.172 -0.0588 -0.4060 -0.1291
14312TIP3    H264428   2.411   3.610   1.214  1.6224  0.5321  2.3558
14313TIP3   OH264429   5.834   3.264  11.201 -0.4737 -0.2376  0.6033
14313TIP3    H164430   5.772   3.335  11.220 -0.2235  0.3402 -0.6534
14313TIP3    H264431   5.868   3.284  11.114  0.6156 -1.1862  0.7875
14314TIP3   OH264432   4.582   5.609   5.733  1.1084  0.0631 -0.1430
14314TIP3    H164433   4.515   5.541   5.730 -0.2936  1.1287  2.8156
14314TIP3    H264434   4.664   5.562   5.749  0.8532 -1.1376 -2.1257
14315TIP3   OH264435   2.644   3.834  13.785  0.0890  0.1501  0.1388
14315TIP3    H164436   2.639   3.817  13.691 -0.5070 -0.6213  0.3007
14315TIP3    H264437   2.558   3.872  13.807 -0.7670 -2.0438  0.8095
14316TIP3   OH264438   0.704   5.446  15.293  0.4585 -0.2108  1.0605
14316TIP3    H164439   0.624   5.409  15.332 -0.4653  1.2552  0.6423
14316TIP3    H264440   0.738   5.505  15.360  0.8937 -0.4162  1.0226
14317TIP3   OH264441   1.155   0.360   1.471 -0.3500  0.3499  0.4317
14317TIP3    H164442   1.117   0.332   1.554  1.0561  1.3216  1.4412
14317TIP3    H264443   1.093   0.423   1.436 -1.5275 -0.9161  0.1289
14318TIP3   OH264444   0.154   6.250   2.305  0.4914  0.0226 -0.6647
14318TIP3    H164445   0.090   6.290   2.364  0.8386 -0.9362  0.3992
14318TIP3    H264446   0.104   6.230   2.226 -0.6200 -0.9788  0.2564
14319TIP3   OH264447   4.632   5.416  11.271  0.1288 -0.0752  0.4979
14319TIP3    H164448   4.641   5.346  11.206  0.0832 -0.8380  1.2755
14319TIP3    H264449   4.571   5.380  11.335  0.2923  0.5885  1.0368
14320TIP3   OH264450   0.402   0.768   0.067 -0.1410  0.8486 -0.4359
14320TIP3    H164451   0.415   0.764   0.161 -1.2035  2.9016 -0.1527
14320TIP3    H264452   0.459   0.699   0.032 -0.8219 -0.9303  1.7592
14321TIP3   OH264453   0.315   5.283   3.050 -0.1156  0.2909  0.3968
14321TIP3    H164454   0.336   5.190   3.042  1.4649  0.6801 -0.3588
14321TIP3    H264455   0.338   5.306   3.140 -2.4019 -0.4507  1.2390
14322TIP3   OH264456   4.477   5.349   4.147 -0.0902 -0.3277  0.3260
14322TIP3    H164457   4.473   5.427   4.091 -1.0973  2.4455  3.9133
14322TIP3    H264458   4.400   5.298   4.121  1.1719 -0.8743 -2.8512
14323TIP3   OH264459   1.067   5.080  15.868 -0.0992 -0.1848  0.3655
14323TIP3    H164460   1.017   5.026  15.806 -0.4636  0.8142 -0.2350
14323TIP3    H264461   1.002   5.136  15.910  0.4954  1.2871 -0.5838
14324TIP3   OH264462   5.915   6.494   5.506  0.2606 -0.0584 -0.1358
14324TIP3    H164463   5.960   6.417   5.541 -0.6706 -0.8739 -0.6782
14324TIP3    H264464   5.975   6.531   5.442  1.2332  0.4057  1.0030
14325TIP3   OH264465   1.569   1.315  13.632 -0.3919  0.0295  0.0223
14325TIP3    H164466   1.489   1.320  13.580 -0.9728 -0.0172  0.8861
14325TIP3    H264467   1.635   1.360  13.579 -1.6105  2.4274  0.4062
14326TIP3   OH264468   2.276   3.120  12.957 -0.3631  0.4750  0.3125
14326TIP3    H164469   2.344   3.075  13.007 -1.1974 -2.3404 -0.8954
14326TIP3    H264470   2.318   3.201  12.928  1.9050 -0.3587  1.0381
14327TIP3   OH264471   4.758   0.602  14.531  0.1815  0.3322  0.3397
14327TIP3    H164472   4.775   0.695  14.544  0.1274  0.3015  0.6470
14327TIP3    H264473   4.693   0.598  14.461  0.4423  0.5093  0.0888
14328TIP3   OH264474   4.962   0.884  12.898 -0.3382 -0.6439 -0.1216
14328TIP3    H164475   5.041   0.865  12.847  0.2862 -0.4850  0.7631
14328TIP3    H264476   4.913   0.801  12.898  1.5386 -1.8688  2.2653
14329TIP3   OH264477   4.612   2.005   1.254 -0.7669  0.3293  0.4176
14329TIP3    H164478   4.650   2.036   1.172 -1.7916  1.2740  0.2726
14329TIP3    H264479   4.548   2.072   1.278 -2.6213 -1.3529  0.4465
14330TIP3   OH264480   4.433   0.173  13.811  0.3632  0.3478  0.2979
14330TIP3    H164481   4.422   0.145  13.720 -1.0568  1.4984  0.0698
14330TIP3    H264482   4.437   0.092  13.861  1.5720 -0.3107 -0.8071
14331TIP3   OH264483   2.012   4.788  11.530  0.6295 -0.2539 -0.5423
14331TIP3    H164484   2.039   4.874  11.500  3.6551 -1.3420 -1.2402
14331TIP3    H264485   2.083   4.729  11.504 -1.5750 -3.1000 -0.6618
14332TIP3   OH264486   0.966   4.680  16.662  0.1990  0.0244  0.4319
14332TIP3    H164487   0.949   4.688  16.568 -0.8207 -0.5885  0.5492
14332TIP3    H264488   1.017   4.599  16.670  0.3501  0.1157  0.4035
14333TIP3   OH264489   1.099   6.723   0.939 -0.4974  0.0514 -0.4950
14333TIP3    H164490   1.148   6.643   0.919 -1.3547 -0.5089 -0.4072
14333TIP3    H264491   1.153   6.794   0.903  2.1228 -0.1804  2.5792
14334TIP3   OH264492   6.553   1.033   4.389 -0.2754  0.5951 -0.5162
14334TIP3    H164493   6.505   1.043   4.472 -0.3686  0.3956 -0.5438
14334TIP3    H264494   6.520   1.104   4.334 -0.7111  0.3275 -0.6122
14335TIP3   OH264495   6.078   4.172   2.881  0.0242  0.4130  0.3285
14335TIP3    H164496   6.128   4.090   2.886 -0.0777  0.3006 -0.3549
14335TIP3    H264497   6.114   4.226   2.951  0.7071  0.1125  0.2253
14336TIP3   OH264498   0.662   2.835  15.742  0.0526 -0.6016 -0.2785
14336TIP3    H164499   0.733   2.774  15.727 -0.4207 -1.6029  1.2638
14336TIP3    H264500   0.587   2.799  15.694  0.4536  0.2345 -1.5681
14337TIP3   OH264501   4.331   0.549   4.414 -0.1977 -0.8726  0.4937
14337TIP3    H164502   4.258   0.499   4.377 -0.8677  0.2682  0.2009
14337TIP3    H264503   4.299   0.579   4.499 -0.2399 -0.0205  0.1861
14338TIP3   OH264504   3.926   2.669   1.381 -0.5864 -0.6674 -0.0014
14338TIP3    H164505   3.960   2.612   1.450  0.6631 -0.4853 -0.4444
14338TIP3    H264506   3.939   2.619   1.300 -1.3993 -0.5976 -0.1817
14339TIP3   OH264507   3.291   1.649   3.262  0.0427  0.2144 -0.1232
14339TIP3    H164508   3.316   1.559   3.243  1.9669  0.9487 -1.4235
14339TIP3    H264509   3.200   1.656   3.233  0.6243 -0.6998 -2.3834
14340TIP3   OH264510   0.406   6.193   3.473 -0.0196 -0.1955  0.8215
14340TIP3    H164511   0.402   6.103   3.443  0.7076 -0.3344  1.1190
14340TIP3    H264512   0.453   6.240   3.404  1.1061 -0.3904  1.4487
14341TIP3   OH264513   5.905   1.971   2.096  0.2795 -0.1015 -0.0904
14341TIP3    H164514   5.984   2.017   2.068  0.6661 -0.2787  0.7000
14341TIP3    H264515   5.922   1.879   2.075 -0.1021 -0.0193 -0.7820
14342TIP3   OH264516   5.997   3.794  17.505 -0.0647 -0.1825 -0.5150
14342TIP3    H164517   6.052   3.738  17.449  0.8533  0.7078 -0.5360
14342TIP3    H264518   5.962   3.734  17.571 -0.4696 -1.0890 -1.5113
14343TIP3   OH264519   3.374   3.809   3.000  0.8156 -0.4536 -0.1322
14343TIP3    H164520   3.458   3.856   3.003  0.9442 -0.7566  1.6665
14343TIP3    H264521   3.308   3.877   3.014  0.9300 -0.5830  1.1343
14344TIP3   OH264522   4.597   3.167   5.172  0.0802  0.1517 -0.2357
14344TIP3    H164523   4.522   3.224   5.186 -0.8478 -0.9392 -0.5280
14344TIP3    H264524   4.660   3.192   5.238 -1.5169 -0.4860  1.6314
14345TIP3   OH264525   4.840   4.891   5.741 -0.0675  0.5777 -0.1987
14345TIP3    H164526   4.889   4.828   5.688 -1.7444 -1.1322  0.1854
14345TIP3    H264527   4.908   4.938   5.790  1.2437 -1.0370 -0.3577
14346TIP3   OH264528   0.594   1.123   2.709 -0.3337 -0.0072  0.5523
14346TIP3    H164529   0.630   1.210   2.726 -0.2472 -0.3609  2.3995
14346TIP3    H264530   0.540   1.104   2.786 -1.6786 -0.9306 -0.5743
14347TIP3   OH264531   2.217   2.697  14.664  0.1207 -0.5332 -0.3600
14347TIP3    H164532   2.297   2.658  14.629  1.8031  2.8746 -0.7384
14347TIP3    H264533   2.247   2.773  14.714 -2.8397  0.1666  0.5878
14348TIP3   OH264534   3.035   3.056   5.950  0.1782  0.4563  0.4365
14348TIP3    H164535   3.115   3.080   5.997  0.8647 -0.1459 -0.3985
14348TIP3    H264536   3.034   3.112   5.873 -0.2134  0.4764  0.4536
14349TIP3   OH264537   0.257   0.345  14.912  0.1197  0.0594  0.6552
14349TIP3    H164538   0.334   0.289  14.922 -0.1653 -0.9945 -2.0638
14349TIP3    H264539   0.277   0.399  14.835 -2.5969 -1.7843 -1.5714
14350TIP3   OH264540   1.368   3.247  12.841  0.4022 -0.4292 -0.4143
14350TIP3    H164541   1.396   3.232  12.931  0.1058  0.2114 -0.2117
14350TIP3    H264542   1.368   3.342  12.831 -1.1198 -0.4352 -0.5906
14351TIP3   OH264543   6.552   0.377  16.171 -0.5719  0.1485  0.7519
14351TIP3    H164544   6.559   0.292  16.126 -0.7630  0.2291  0.5656
14351TIP3    H264545   6.611   0.434  16.122 -0.6940  0.2072  0.6730
14352TIP3   OH264546   2.969   4.079  16.061  0.2685 -0.3511  0.0706
14352TIP3    H164547   2.963   4.170  16.032  3.4752  0.0683  0.3592
14352TIP3    H264548   2.943   4.028  15.984  0.2873  0.7916 -0.7273
14353TIP3   OH264549   6.034   3.843  15.433 -0.6296  0.0341 -0.5007
14353TIP3    H164550   5.960   3.895  15.466 -0.6816 -0.4576  0.1802
14353TIP3    H264551   6.109   3.874  15.485 -0.2610  0.8051 -1.4533
14354TIP3   OH264552   2.053   1.736  15.644 -0.2372 -0.2115  0.1242
14354TIP3    H164553   2.079   1.802  15.707 -0.5788  0.6131 -0.5823
14354TIP3    H264554   2.007   1.670  15.696 -1.3843  0.9303  0.6196
14355TIP3   OH264555   0.486   1.309  16.404 -0.3308  0.1036  0.3120
14355TIP3    H164556   0.435   1.343  16.477  0.2498 -1.2856  1.4001
14355TIP3    H264557   0.553   1.255  16.445  0.5177 -0.0423 -1.2174
14356TIP3   OH264558   3.321   5.139  16.069 -0.2256 -0.3683  0.1891
14356TIP3    H164559   3.351   5.225  16.101 -2.2127  0.5653 -0.3053
14356TIP3    H264560   3.296   5.092  16.149  0.5686 -0.3866  0.4400
14357TIP3   OH264561   1.959   6.450   5.478  0.1731 -0.1818 -0.3674
14357TIP3    H164562   1.952   6.539   5.445 -1.5966 -0.2043 -0.1285
14357TIP3    H264563   1.924   6.453   5.567  1.5733 -0.8302  0.2475
14358TIP3   OH264564   2.248   2.738   1.955  0.4201 -0.0024  0.3193
14358TIP3    H164565   2.315   2.754   1.889 -0.6077  1.0385 -0.5273
14358TIP3    H264566   2.262   2.805   2.021 -0.3708  0.8783 -0.3691
14359TIP3   OH264567   0.252   0.893   4.036 -0.2660  0.1367  0.7586
14359TIP3    H164568   0.234   0.931   4.122  0.5875  0.7167  0.6932
14359TIP3    H264569   0.274   0.968   3.981  0.4774 -0.3557  0.3739
14360TIP3   OH264570   0.713   2.923   4.162  0.3077  0.0364  0.3173
14360TIP3    H164571   0.652   2.874   4.108 -0.2779 -0.5537  1.4606
14360TIP3    H264572   0.793   2.871   4.162  0.1480 -0.2099  0.4041
14361TIP3   OH264573   6.240   5.572   5.663 -0.9896  0.0877  0.4629
14361TIP3    H164574   6.278   5.637   5.604 -0.0358 -1.5570 -0.8209
14361TIP3    H264575   6.178   5.622   5.716  1.2344  2.4626  1.0469
14362TIP3   OH264576   6.400   1.796   5.550  0.2375 -0.4993 -0.2420
14362TIP3    H164577   6.461   1.777   5.621 -0.5479  0.4131  0.7166
14362TIP3    H264578   6.452   1.841   5.484  0.9830 -1.3879 -0.2843
14363TIP3   OH264579   5.400   2.644   5.889 -0.1916 -0.3980  0.3829
14363TIP3    H164580   5.411   2.590   5.811 -2.5029  1.6623 -1.5278
14363TIP3    H264581   5.309   2.630   5.915 -0.8148  2.2635 -0.0665
14364TIP3   OH264582   0.313   2.508   0.274 -0.5281 -0.1499  0.0685
14364TIP3    H164583   0.397   2.524   0.316 -1.0126 -0.1056  1.0254
14364TIP3    H264584   0.268   2.592   0.276 -0.1307  0.1453 -1.5539
14365TIP3   OH264585   3.574   0.035   3.767  0.5097  0.3368  0.9797
14365TIP3    H164586   3.491   0.066   3.731  1.0642  0.6713 -0.0482
14365TIP3    H264587   3.594  -0.044   3.718  1.2048  0.7184  0.6303
14366TIP3   OH264588   0.099   4.267  16.580  0.0964 -0.2477  0.0191
14366TIP3    H164589   0.143   4.182  16.572  1.0498  0.2946 -0.6911
14366TIP3    H264590   0.095   4.284  16.674  0.8259 -0.6140  0.1217
14367TIP3   OH264591   2.050   2.229  12.544  0.2885 -0.0101  0.0180
14367TIP3    H164592   1.992   2.253  12.471  1.5715 -1.3278 -1.5064
14367TIP3    H264593   2.123   2.290  12.538  1.3250 -1.2752 -1.0527
14368TIP3   OH264594   1.893   0.460  14.647 -0.2560 -0.2187 -0.5075
14368TIP3    H164595   1.988   0.449  14.650 -0.2116  0.0625 -0.8287
14368TIP3    H264596   1.858   0.371  14.638 -0.1259 -0.5442  1.6338
14369TIP3   OH264597   6.528   0.204  16.862  0.2538 -0.4276 -0.3064
14369TIP3    H164598   6.494   0.193  16.773 -2.0386  0.5747  0.3494
14369TIP3    H264599   6.528   0.299  16.875 -1.4313 -0.5946  1.3823
14370TIP3   OH264600   2.954   2.759  14.357  0.9088 -0.0495  0.2491
14370TIP3    H164601   3.004   2.776  14.436  0.7361  3.2970 -0.2348
14370TIP3    H264602   2.885   2.698  14.385  2.0073 -0.4959  2.1530
14371TIP3   OH264603   2.908   2.596  15.890 -0.1042 -0.3811 -0.0042
14371TIP3    H164604   2.834   2.618  15.834  0.4988  1.5285 -0.1308
14371TIP3    H264605   2.885   2.630  15.976  0.3026 -0.4834  0.1482
14372TIP3   OH264606   1.802   1.156   5.577  0.2821 -0.3037 -0.2334
14372TIP3    H164607   1.862   1.201   5.637  0.5706 -2.3016  1.0658
14372TIP3    H264608   1.726   1.214   5.570  1.0519  0.8375  0.5419
14373TIP3   OH264609   4.631   3.718   4.392  0.4059  0.3116 -0.5462
14373TIP3    H164610   4.657   3.707   4.483 -0.8518 -1.3351 -0.3320
14373TIP3    H264611   4.541   3.685   4.389  0.3480  0.5370 -2.3288
14374TIP3   OH264612   1.759   0.416  11.384  0.3731  0.3348  0.2774
14374TIP3    H164613   1.666   0.413  11.363  0.2554  0.8135  0.7080
14374TIP3    H264614   1.770   0.352  11.454 -0.1759  2.1579  2.1633
14375TIP3   OH264615   5.565   0.260   1.925 -0.0477  0.5725 -0.1880
14375TIP3    H164616   5.598   0.349   1.929  0.2151  0.4359  1.2823
14375TIP3    H264617   5.585   0.223   2.011 -2.3578 -0.1206  0.1182
14376TIP3   OH264618   2.534   1.043   3.515  0.4367  0.0022 -0.1963
14376TIP3    H164619   2.500   0.973   3.460  0.8914  0.9004 -1.6785
14376TIP3    H264620   2.481   1.039   3.594 -1.0390 -0.6014 -1.1671
14377TIP3   OH264621   1.766   0.003  16.538  0.3786  0.2510 -0.0645
14377TIP3    H164622   1.693   0.053  16.501  0.2421  0.7180  0.8186
14377TIP3    H264623   1.797   0.055  16.611  1.5332 -0.0057 -0.3448
14378TIP3   OH264624   1.928   5.674   3.807  0.0538 -0.4030  0.2925
14378TIP3    H164625   2.001   5.707   3.860 -0.1642 -0.7267  0.7960
14378TIP3    H264626   1.907   5.746   3.748  2.2298 -1.0251 -1.4147
14379TIP3   OH264627   4.173   4.705   6.138  0.5793  0.0690  0.1643
14379TIP3    H164628   4.180   4.781   6.195  0.3605  1.0872 -1.1254
14379TIP3    H264629   4.220   4.730   6.059 -0.4967 -0.6927 -0.7397
14380TIP3   OH264630   6.588   5.624  14.309 -0.4348  0.0917 -0.4747
14380TIP3    H164631   6.498   5.623  14.278 -0.6780 -0.8422  0.2352
14380TIP3    H264632   6.613   5.532  14.316  0.3220  0.3221  0.0488
14381TIP3   OH264633   4.523   1.856   5.727 -0.4365 -0.2093 -0.3428
14381TIP3    H164634   4.463   1.927   5.750 -1.2537  0.2765 -3.5986
14381TIP3    H264635   4.465   1.784   5.700  0.4272 -0.9602 -0.2324
14382TIP3   OH264636   4.498   1.744  12.975  0.2421 -0.6672  0.1702
14382TIP3    H164637   4.495   1.821  13.033  2.4490 -0.8233  0.5481
14382TIP3    H264638   4.416   1.749  12.926 -0.2709  1.2005  1.1127
14383TIP3   OH264639   0.815   2.074  16.231  0.2940  0.4997  0.5219
14383TIP3    H164640   0.743   2.093  16.171  1.0191  0.6389 -0.3370
14383TIP3    H264641   0.776   2.076  16.318 -0.5998  1.2326  0.1183
14384TIP3   OH264642   3.051   0.037  14.053 -0.1318  0.7796  0.2615
14384TIP3    H164643   3.013  -0.034  14.104  2.4044 -0.3214  0.7835
14384TIP3    H264644   3.046   0.008  13.962  2.0813 -0.8137  0.5587
14385TIP3   OH264645   1.492   4.913  13.876 -0.2305 -0.5967 -0.3185
14385TIP3    H164646   1.460   4.850  13.940 -0.3641  0.0284  0.2504
14385TIP3    H264647   1.586   4.895  13.868  0.4199  1.0991  2.2219
14386TIP3   OH264648   1.507   2.656   0.374 -0.1150  0.5323 -0.0169
14386TIP3    H164649   1.469   2.731   0.418 -0.6095  0.5588 -0.4801
14386TIP3    H264650   1.437   2.622   0.318  0.3887  0.2979 -0.5278
14387TIP3   OH264651   1.095   5.925  13.034  0.9474  0.2727  0.1965
14387TIP3    H164652   1.076   5.852  12.975 -2.0883  0.6697  0.5209
14387TIP3    H264653   1.089   6.003  12.979 -0.4803  0.5435  0.6895
14388TIP3   OH264654   2.766   1.209  13.489  0.1513 -0.1142 -0.0403
14388TIP3    H164655   2.853   1.170  13.493 -0.0593 -0.7114 -0.9800
14388TIP3    H264656   2.708   1.143  13.527  0.1968  0.6703  1.5026
14389TIP3   OH264657   6.134   3.443  12.386 -0.0357 -0.5697  0.0416
14389TIP3    H164658   6.173   3.369  12.339  0.9657  0.9478 -1.6634
14389TIP3    H264659   6.190   3.456  12.462  1.2725 -0.0710 -0.9687
14390TIP3   OH264660   2.652   1.040  13.993 -0.0439 -0.1115  0.6101
14390TIP3    H164661   2.594   1.009  14.062  2.6401 -3.4623  1.6348
14390TIP3    H264662   2.623   0.993  13.915 -0.7798  0.8805  0.2605
14391TIP3   OH264663   4.569   6.482  17.452  0.4665  0.3266  0.3487
14391TIP3    H164664   4.537   6.557  17.401  0.4786  0.2272  0.1929
14391TIP3    H264665   4.663   6.479  17.435  0.3362 -0.2354 -0.3297
14392TIP3   OH264666   0.445   2.463   1.724  0.1373  0.1799 -0.0028
14392TIP3    H164667   0.529   2.437   1.761  0.3348  0.7167 -0.0762
14392TIP3    H264668   0.391   2.483   1.801  0.9926  2.7159  0.0096
14393TIP3   OH264669   2.821   6.606  12.815  0.0302 -0.5331  0.3092
14393TIP3    H164670   2.901   6.573  12.773 -0.6396 -0.1625 -1.3178
14393TIP3    H264671   2.796   6.681  12.762 -1.2160 -0.4286  1.0224
14394TIP3   OH264672   4.471   5.033  16.865  0.0403  0.7713  0.0339
14394TIP3    H164673   4.460   5.126  16.843 -0.5656  0.8357  0.5805
14394TIP3    H264674   4.522   4.997  16.792  0.6726  1.6276  0.0378
14395TIP3   OH264675   4.559   0.688   6.307 -0.1110  0.0736 -0.6443
14395TIP3    H164676   4.577   0.762   6.365  0.3068 -0.8714  0.4632
14395TIP3    H264677   4.625   0.623   6.329 -1.5811 -1.3778 -0.2624
14396TIP3   OH264678   2.499   5.943   2.360 -0.6415  0.2203  0.4148
14396TIP3    H164679   2.584   5.907   2.386 -0.3091  0.6959  0.0036
14396TIP3    H264680   2.436   5.877   2.388 -0.0034 -1.0228 -0.9133
14397TIP3   OH264681   0.581   3.350   4.044  0.2273  0.0598  0.0969
14397TIP3    H164682   0.517   3.279   4.043 -0.8467  0.8462  2.8708
14397TIP3    H264683   0.529   3.429   4.059  1.7061  0.9174  0.9089
14398TIP3   OH264684   3.657   3.964  11.642 -0.4498 -0.7217 -0.2067
14398TIP3    H164685   3.675   3.914  11.721  0.7211 -0.1874 -0.1193
14398TIP3    H264686   3.578   4.014  11.663 -1.9398 -2.8436 -0.4672
14399TIP3   OH264687   5.908   1.720   1.178  0.4320  0.4919 -0.2468
14399TIP3    H164688   5.861   1.639   1.196  1.5419 -0.0178  0.4741
14399TIP3    H264689   5.846   1.789   1.199 -0.6293 -0.1539 -1.1320
14400TIP3   OH264690   4.949   1.159   5.832 -0.1105 -0.5145 -0.0772
14400TIP3    H164691   4.919   1.100   5.902  0.3771 -1.5774 -0.7268
14400TIP3    H264692   5.005   1.223   5.877 -1.4169  0.0686  0.7892
14401TIP3   OH264693   6.666   3.486  11.096  0.2288  0.7705 -0.2398
14401TIP3    H164694   6.720   3.548  11.144  0.0417  1.9286 -1.4591
14401TIP3    H264695   6.577   3.521  11.103  0.2137  1.0255 -1.4847
14402TIP3   OH264696   1.859   6.470   6.285  0.4588  0.6907 -0.0538
14402TIP3    H164697   1.946   6.491   6.319  1.6408  0.2503 -2.5616
14402TIP3    H264698   1.854   6.374   6.289  0.7736  0.6039 -1.3851
14403TIP3   OH264699   3.405   4.415   4.023 -0.2363  0.1131  0.1189
14403TIP3    H164700   3.389   4.350   4.091 -2.3131  0.6452  0.2098
14403TIP3    H264701   3.427   4.363   3.945 -0.5142 -0.6301  0.5232
14404TIP3   OH264702   4.754   6.747  16.028  0.5322  0.0725 -0.1816
14404TIP3    H164703   4.685   6.684  16.006 -0.8360  1.2905  0.4677
14404TIP3    H264704   4.723   6.790  16.107  2.0234  0.7277  0.0822
14405TIP3   OH264705   5.865   4.743  14.213 -0.0803 -0.3838 -0.0166
14405TIP3    H164706   5.899   4.673  14.270  0.3893  0.7148  1.0894
14405TIP3    H264707   5.897   4.824  14.252 -0.0447  0.4427 -1.6645
14406TIP3   OH264708   3.886   4.870  11.669  0.3459 -0.9083  0.3243
14406TIP3    H164709   3.945   4.795  11.672 -0.3378 -1.5785 -1.6218
14406TIP3    H264710   3.929   4.931  11.608  0.0577 -0.4680  0.5608
14407TIP3   OH264711   6.240   5.217   5.961 -0.4758 -0.3114 -0.3014
14407TIP3    H164712   6.235   5.188   6.052  1.5850 -0.5639 -0.2358
14407TIP3    H264713   6.326   5.258   5.953  0.0006 -1.5925 -2.4844
14408TIP3   OH264714   4.393   3.332  14.056 -0.3873 -0.1543 -0.0474
14408TIP3    H164715   4.436   3.368  13.978 -0.4229  0.2676  0.1243
14408TIP3    H264716   4.453   3.354  14.127 -0.1077 -0.9777 -0.0159
14409TIP3   OH264717   4.810   6.628   3.579  0.2202  0.2217 -0.7575
14409TIP3    H164718   4.716   6.646   3.579  0.1864  0.0679 -1.0824
14409TIP3    H264719   4.847   6.696   3.522 -0.1222 -1.6662 -3.4489
14410TIP3   OH264720   3.202   6.334  16.257  0.1191 -0.4863 -0.5108
14410TIP3    H164721   3.155   6.378  16.186 -0.5954  0.4682  0.5238
14410TIP3    H264722   3.251   6.264  16.214 -1.6780 -1.0570 -1.7401
14411TIP3   OH264723   2.385   0.104  11.402  0.0846  0.5432 -0.7458
14411TIP3    H164724   2.299   0.110  11.443 -0.5753 -1.4084 -1.6843
14411TIP3    H264725   2.368   0.121  11.309  1.3253  3.5401 -0.5287
14412TIP3   OH264726   0.340   4.925   6.090 -0.2884 -0.4599 -0.1258
14412TIP3    H164727   0.294   4.924   6.006  0.7048 -0.8299 -0.6860
14412TIP3    H264728   0.289   4.867   6.147 -1.2233  0.1497 -0.3241
14413TIP3   OH264729   0.949   0.115   3.093  0.0355 -0.4579 -0.3973
14413TIP3    H164730   1.022   0.085   3.147  0.6799  1.1867 -0.2991
14413TIP3    H264731   0.891   0.161   3.154 -1.0699 -1.6562 -0.4925
14414TIP3   OH264732   5.841   2.916  14.351  0.0902  0.5634  0.2447
14414TIP3    H164733   5.749   2.902  14.329  0.5256 -0.1598 -1.3114
14414TIP3    H264734   5.849   2.892  14.443 -1.3493  1.0684  0.5218
14415TIP3   OH264735   4.544   2.829  11.659  0.4530 -0.1612  0.0550
14415TIP3    H164736   4.487   2.766  11.616  0.3907 -0.4641  0.5654
14415TIP3    H264737   4.632   2.801  11.637  0.4737 -1.4176  1.6004
14416TIP3   OH264738   4.913   6.067  15.624  0.1209  0.3134 -0.3727
14416TIP3    H164739   4.932   6.101  15.711  0.0163  2.3405 -1.0801
14416TIP3    H264740   4.824   6.033  15.631 -0.1536  1.1084  0.1518
14417TIP3   OH264741   0.151   6.008   6.116 -0.2615 -0.4609 -0.6990
14417TIP3    H164742   0.123   5.951   6.188  2.3805 -0.3607  0.5092
14417TIP3    H264743   0.102   6.089   6.131  0.2584 -0.4222  1.0681
14418TIP3   OH264744   6.234   1.309   2.481 -0.0537 -0.3950 -0.1498
14418TIP3    H164745   6.162   1.256   2.516 -1.5600  0.4047 -1.8368
14418TIP3    H264746   6.234   1.289   2.387 -0.2857  2.0884 -0.7411
14419TIP3   OH264747   5.672   0.441  15.837 -0.2573  0.1503 -0.0076
14419TIP3    H164748   5.616   0.364  15.834 -0.9725  0.6410  0.4782
14419TIP3    H264749   5.730   0.432  15.761  1.1723 -1.9665  1.2378
14420TIP3   OH264750   4.196   5.027  14.533 -0.2528  0.0622  0.5297
14420TIP3    H164751   4.249   4.981  14.598 -0.2178 -3.2795 -1.5909
14420TIP3    H264752   4.107   5.024  14.569 -0.0796 -0.8057  0.9321
14421TIP3   OH264753   1.324   2.695  15.916 -0.5029  0.1979  0.1433
14421TIP3    H164754   1.391   2.754  15.952  1.3617 -0.8533 -1.3697
14421TIP3    H264755   1.294   2.644  15.992  0.0765  1.0178  0.9444
14422TIP3   OH264756   6.345   2.038  11.626 -0.4147  0.9308  0.5549
14422TIP3    H164757   6.409   2.101  11.594 -2.1938  1.8411 -1.4552
14422TIP3    H264758   6.328   2.065  11.716  0.3908  2.0546  0.3911
14423TIP3   OH264759   6.714   6.331  13.390 -0.0298 -0.1877 -0.2543
14423TIP3    H164760   6.627   6.371  13.395 -0.3955 -1.0798  2.6405
14423TIP3    H264761   6.773   6.399  13.422  0.4132  0.4242 -2.2402
14424TIP3   OH264762   1.725   0.477  13.738 -0.7289  0.2859 -0.4376
14424TIP3    H164763   1.635   0.461  13.712 -0.7038 -1.1285  0.2607
14424TIP3    H264764   1.770   0.502  13.657 -1.4140 -0.5095 -1.0783
14425TIP3   OH264765   5.628   0.585  13.112 -0.0553 -0.0012  0.3762
14425TIP3    H164766   5.671   0.548  13.189 -1.5568 -0.1625  1.1821
14425TIP3    H264767   5.680   0.555  13.038  1.5177  0.2703  1.3096
14426TIP3   OH264768   1.030   4.313   6.441 -0.2252  0.3498 -0.0180
14426TIP3    H164769   0.975   4.365   6.382 -1.3542 -1.0957 -0.2819
14426TIP3    H264770   1.021   4.356   6.526 -2.3003 -0.2222  0.0833
14427TIP3   OH264771   1.353   5.543   2.543 -0.2696  0.6174  0.2415
14427TIP3    H164772   1.448   5.555   2.539 -0.0300 -1.2749 -0.7832
14427TIP3    H264773   1.328   5.523   2.453 -1.3137 -0.9193  0.8384
14428TIP3   OH264774   6.094   3.441  15.135 -1.0403  0.2032  0.0054
14428TIP3    H164775   6.065   3.503  15.203 -2.9312  0.6670 -1.1342
14428TIP3    H264776   6.114   3.497  15.060 -1.7817 -0.4877 -0.7171
14429TIP3   OH264777   0.681   4.580  11.411  0.5424  0.5707 -0.4073
14429TIP3    H164778   0.776   4.584  11.399  0.5998  0.8717  0.1232
14429TIP3    H264779   0.646   4.613  11.329  0.9250  2.1041 -0.0022
14430TIP3   OH264780   2.727   1.432   4.284  0.7769 -0.0927 -0.5153
14430TIP3    H164781   2.634   1.410   4.273  0.6285  0.5669 -0.6248
14430TIP3    H264782   2.768   1.349   4.310  0.1514 -0.3782 -0.4114
14431TIP3   OH264783   6.272   4.793   3.112 -0.0678 -0.4798  0.5595
14431TIP3    H164784   6.330   4.817   3.040  0.5816 -0.4501  1.0747
14431TIP3    H264785   6.293   4.856   3.181 -1.5117  0.2257  0.3719
14432TIP3   OH264786   0.027   3.173  16.648  0.3312  0.7174 -0.5313
14432TIP3    H164787  -0.060   3.166  16.608  0.9497 -0.8255 -1.7274
14432TIP3    H264788   0.022   3.120  16.728 -0.1044  1.4982 -0.0281
14433TIP3   OH264789   5.843   5.307  15.379  0.0615  0.4321 -0.3595
14433TIP3    H164790   5.839   5.402  15.367 -0.9267  0.2964 -1.3088
14433TIP3    H264791   5.834   5.272  15.291 -1.0046 -0.5584  0.1092
14434TIP3   OH264792   6.599   0.667   1.756  0.7947 -0.0445 -0.2372
14434TIP3    H164793   6.550   0.597   1.798  0.9534 -0.9319 -1.4927
14434TIP3    H264794   6.621   0.727   1.828 -2.8272  0.8871  0.3094
14435TIP3   OH264795   4.162   4.644   4.282  0.5672 -0.1501  0.6907
14435TIP3    H164796   4.122   4.600   4.357  1.6132 -1.9751  0.2117
14435TIP3    H264797   4.247   4.603   4.271  0.0655 -0.6398 -2.0925
14436TIP3   OH264798   5.654   3.308   4.634  1.1663  0.3497  0.0835
14436TIP3    H164799   5.734   3.334   4.589  1.6791  0.9696  1.3077
14436TIP3    H264800   5.583   3.340   4.579  1.7732  1.3233 -0.1484
14437TIP3   OH264801   3.606   2.192  15.213 -0.5249 -0.3014 -0.5144
14437TIP3    H164802   3.532   2.183  15.152 -0.5827 -0.4605 -0.4213
14437TIP3    H264803   3.585   2.131  15.284 -0.3378 -0.2936 -0.4546
14438TIP3   OH264804   1.754   2.860   0.089 -0.0699  0.0546 -0.0701
14438TIP3    H164805   1.662   2.883   0.102 -0.4455 -1.9910  1.2448
14438TIP3    H264806   1.782   2.823   0.172  1.1140 -1.9496 -1.2751
14439TIP3   OH264807   3.349   2.569   0.282  0.2284 -0.5835  0.5010
14439TIP3    H164808   3.368   2.654   0.244  2.6512 -1.3798 -0.2171
14439TIP3    H264809   3.257   2.575   0.308 -0.3790  1.4200 -1.7105
14440TIP3   OH264810   3.884   0.056   3.741  0.4444  0.4482  0.6518
14440TIP3    H164811   3.917  -0.027   3.776 -0.8297 -0.3268  0.0877
14440TIP3    H264812   3.797   0.066   3.781  1.0949  2.1930  1.7268
14441TIP3   OH264813   2.412   1.959  16.155 -0.8657 -0.3729 -0.6545
14441TIP3    H164814   2.489   1.976  16.208 -2.0221 -0.5248  1.1443
14441TIP3    H264815   2.446   1.943  16.067  0.9765  1.6261 -0.3739
14442TIP3   OH264816   5.593   3.471   4.161  0.7311 -0.6023  0.1985
14442TIP3    H164817   5.578   3.541   4.098  2.0212 -0.6831 -0.2192
14442TIP3    H264818   5.599   3.515   4.245  0.3158 -0.3515  0.1008
14443TIP3   OH264819   6.495   1.558  14.076 -0.2275  0.5655 -0.0813
14443TIP3    H164820   6.410   1.521  14.053 -0.8819  0.8793  1.6252
14443TIP3    H264821   6.473   1.634  14.131  1.1155 -1.2686  3.2649
14444TIP3   OH264822   3.716   6.161  14.153 -0.3714  0.4388 -0.6681
14444TIP3    H164823   3.769   6.241  14.160  0.3469  0.0185 -1.2197
14444TIP3    H264824   3.716   6.125  14.242  0.3304  0.4015 -0.6805
14445TIP3   OH264825   3.207   2.123  13.680  0.3357  0.6885  0.3162
14445TIP3    H164826   3.230   2.111  13.587 -0.5102 -1.0457  0.2868
14445TIP3    H264827   3.258   2.057  13.725 -0.9625 -0.0111  0.8032
14446TIP3   OH264828   5.430   5.040  14.889  0.5959  0.2005  0.0811
14446TIP3    H164829   5.383   4.962  14.918  1.2556  0.3003  1.4718
14446TIP3    H264830   5.430   5.033  14.793 -0.6312 -0.7333  0.1174
14447TIP3   OH264831   3.603   0.319  14.972  0.9095 -0.1975  0.1089
14447TIP3    H164832   3.651   0.251  14.925  1.5620 -0.2024  0.7744
14447TIP3    H264833   3.522   0.275  15.000  1.3960 -0.7445  0.6655
14448TIP3   OH264834   3.722   1.400  13.590 -0.2799 -0.9868  0.0593
14448TIP3    H164835   3.687   1.416  13.678 -1.1854 -1.2776 -0.2405
14448TIP3    H264836   3.814   1.379  13.605 -0.1587  0.0352  0.8442
14449TIP3   OH264837   4.284   0.815   5.878  0.9926  0.2383  0.2849
14449TIP3    H164838   4.211   0.869   5.909  0.6951 -0.7384  1.3684
14449TIP3    H264839   4.307   0.852   5.793 -0.5490  0.7731  0.0697
14450TIP3   OH264840   3.315   0.694  13.630 -0.0565 -0.7872 -0.6168
14450TIP3    H164841   3.316   0.727  13.720  0.4702 -0.0105 -0.8896
14450TIP3    H264842   3.340   0.602  13.637  1.7963 -0.2813 -0.1185
14451TIP3   OH264843   2.688   2.333  15.894  0.3814  0.5321 -1.0353
14451TIP3    H164844   2.618   2.386  15.856 -2.2680 -1.3982  0.7586
14451TIP3    H264845   2.723   2.282  15.821 -0.5268  1.0967 -1.8827
14452TIP3   OH264846   1.504   6.734   1.615  0.2803  0.4206 -0.2743
14452TIP3    H164847   1.501   6.694   1.528  2.0376  0.6885 -0.4952
14452TIP3    H264848   1.497   6.661   1.676 -3.8636  0.4254 -0.5071
14453TIP3   OH264849   1.852   4.908   5.133 -0.2082  0.0339 -0.0126
14453TIP3    H164850   1.894   4.825   5.110  4.2644  1.7831  0.8603
14453TIP3    H264851   1.820   4.895   5.222  0.2021 -0.8089  0.0172
14454TIP3   OH264852   6.369   1.826  14.178 -0.3082  0.2188 -0.4719
14454TIP3    H164853   6.364   1.879  14.098  0.5249 -0.2025 -0.8192
14454TIP3    H264854   6.292   1.851  14.229 -1.5393 -0.3584 -1.9516
14455TIP3   OH264855   1.634   4.247   2.800 -0.0035 -0.1038 -0.2922
14455TIP3    H164856   1.700   4.254   2.730 -0.3184  1.4173 -0.4703
14455TIP3    H264857   1.552   4.233   2.753  0.1944 -2.5012 -0.0523
14456TIP3   OH264858   1.909   6.366   5.000  0.1235 -0.1515 -0.1358
14456TIP3    H164859   1.925   6.442   5.056 -0.4129  0.2952 -0.5753
14456TIP3    H264860   1.991   6.317   5.002  0.7205  0.8101 -0.4198
14457TIP3   OH264861   3.956   6.618  17.447 -0.0544 -0.5079  0.0365
14457TIP3    H164862   4.024   6.665  17.493  0.1865 -1.1157  0.3101
14457TIP3    H264863   4.003   6.559  17.388 -0.2889 -2.0344  1.3118
14458TIP3   OH264864   1.150   0.511  13.609  0.1675  0.2902 -0.1754
14458TIP3    H164865   1.174   0.596  13.648  1.4582  0.9316 -2.2056
14458TIP3    H264866   1.230   0.459  13.615  0.4496  0.4530 -1.9574
14459TIP3   OH264867   0.907   3.893   5.618 -0.2034 -0.3517  0.0169
14459TIP3    H164868   0.904   3.988   5.603  1.2927 -0.6073 -2.6183
14459TIP3    H264869   0.946   3.884   5.705 -1.5212  1.4205  0.8665
14460TIP3   OH264870   5.130   5.325   5.325 -0.0220  0.0853  0.0581
14460TIP3    H164871   5.169   5.374   5.252  2.2410 -1.2064  0.3147
14460TIP3    H264872   5.150   5.234   5.306  0.7758 -0.2748  2.3552
14461TIP3   OH264873   6.584   0.988   5.969 -0.1230 -0.1591  0.1546
14461TIP3    H164874   6.599   1.079   5.948  1.2308 -0.7968 -1.8780
14461TIP3    H264875   6.516   0.959   5.909 -0.9676 -0.3767  1.1764
14462TIP3   OH264876   1.596   2.172  14.588 -0.8590 -0.2384  0.7330
14462TIP3    H164877   1.654   2.152  14.660 -1.4715 -3.0196  0.5575
14462TIP3    H264878   1.570   2.263  14.603  1.7388  0.3898  2.0098
14463TIP3   OH264879   5.223   4.190   0.579  0.1744  0.3996  0.0755
14463TIP3    H164880   5.175   4.266   0.548  0.8610  0.6640 -0.3738
14463TIP3    H264881   5.315   4.217   0.575  0.3494 -0.0043  1.1587
14464TIP3   OH264882   1.176   5.100  11.204 -0.0974 -0.0542  0.3823
14464TIP3    H164883   1.098   5.144  11.169 -0.4527 -0.4306  0.6901
14464TIP3    H264884   1.176   5.015  11.161  0.0256 -0.1373  0.5476
14465TIP3   OH264885   4.786   5.968   3.968 -0.0799 -0.2913  0.2715
14465TIP3    H164886   4.846   6.035   3.935  0.2877  0.8248  2.9809
14465TIP3    H264887   4.843   5.899   4.001 -0.4453 -2.4118 -2.9976
14466TIP3   OH264888   2.638   5.272   5.851 -0.3180  0.3303 -0.0669
14466TIP3    H164889   2.580   5.305   5.920 -0.8225 -3.5261  1.5954
14466TIP3    H264890   2.580   5.257   5.776 -1.2409 -1.8157  0.9998
14467TIP3   OH264891   2.308   4.236  15.755 -0.5155  0.0744  0.3018
14467TIP3    H164892   2.257   4.167  15.797  0.0904 -1.4857 -1.3726
14467TIP3    H264893   2.378   4.190  15.709  1.1012  1.9758  0.6930
14468TIP3   OH264894   4.897   1.817   1.489  0.2529 -0.0948 -0.0927
14468TIP3    H164895   4.939   1.824   1.574 -0.9682 -1.2760  0.6543
14468TIP3    H264896   4.937   1.886   1.436  2.1790 -0.3581  0.9399
14469TIP3   OH264897   5.706   1.172   1.015  0.4345 -0.5057 -0.2945
14469TIP3    H164898   5.691   1.111   1.088 -0.1905  1.4461  1.2944
14469TIP3    H264899   5.793   1.149   0.982  1.2903 -0.6414  1.8989
14470TIP3   OH264900   6.126   5.197  15.449 -0.3249  0.7807  0.4404
14470TIP3    H164901   6.046   5.196  15.396 -1.8220  1.3848  2.5636
14470TIP3    H264902   6.102   5.154  15.531  1.8097  0.1677  0.8129
14471TIP3   OH264903   5.852   6.727   5.003 -0.0321  0.2918 -0.0108
14471TIP3    H164904   5.863   6.678   4.922  2.0301  0.6633 -0.0222
14471TIP3    H264905   5.942   6.747   5.031 -0.6964  0.6799  2.0486
14472TIP3   OH264906   1.237   6.548   0.459 -0.1582  0.0740  0.1704
14472TIP3    H164907   1.149   6.517   0.479  0.9042 -2.2975  1.6830
14472TIP3    H264908   1.264   6.595   0.538  0.6036 -0.9400  0.5342
14473TIP3   OH264909   2.749   6.137   2.922  0.1370 -0.3936 -0.0865
14473TIP3    H164910   2.729   6.164   2.833  1.2389 -0.1457 -0.2756
14473TIP3    H264911   2.665   6.107   2.957 -0.1407 -1.4302 -1.5235
14474TIP3   OH264912   5.156   5.925   0.782 -0.1829 -0.2487 -0.1116
14474TIP3    H164913   5.177   6.016   0.765 -0.3222 -0.0321  0.8474
14474TIP3    H264914   5.222   5.875   0.734  1.4120  0.3921  1.3366
14475TIP3   OH264915   2.234   3.876  14.439  0.0774 -0.1250  0.2806
14475TIP3    H164916   2.276   3.946  14.391 -0.2883 -0.6756 -0.8698
14475TIP3    H264917   2.246   3.798  14.385 -1.2636 -0.5506  0.5599
14476TIP3   OH264918   3.759   3.854   3.374  0.1201 -0.3777  0.3416
14476TIP3    H164919   3.688   3.792   3.390  0.6624 -1.0116  0.3427
14476TIP3    H264920   3.762   3.907   3.454 -0.3993 -0.2841  0.3064
14477TIP3   OH264921   0.788   3.703   1.616  0.1883  0.3565  0.0330
14477TIP3    H164922   0.739   3.621   1.621  0.0732  0.3262 -1.3560
14477TIP3    H264923   0.833   3.699   1.532  2.1251  0.6515  1.0085
14478TIP3   OH264924   2.656   0.728  17.114 -0.0967 -0.0774 -0.0455
14478TIP3    H164925   2.750   0.726  17.131 -0.0795  1.3726  0.1752
14478TIP3    H264926   2.637   0.819  17.093 -1.3969 -0.4168 -0.4588
14479TIP3   OH264927   4.051   4.118   3.316  0.0403 -0.6135 -0.4680
14479TIP3    H164928   4.017   4.103   3.405 -1.3864 -0.5843 -0.9804
14479TIP3    H264929   4.140   4.082   3.318 -0.3090 -1.4869  0.7036
14480TIP3   OH264930   4.619   5.646  11.429 -0.4937  0.4487  0.6286
14480TIP3    H164931   4.524   5.636  11.420 -0.4526 -2.4825  2.1089
14480TIP3    H264932   4.655   5.568  11.386  1.1127  0.5573  1.7005
14481TIP3   OH264933   2.572   0.535  16.933  0.5678  0.0125  0.1883
14481TIP3    H164934   2.560   0.584  16.852  2.0825 -0.4390 -0.3546
14481TIP3    H264935   2.604   0.599  16.996  1.1032  0.0216 -0.0893
14482TIP3   OH264936   1.897   3.527   1.764  0.2739 -1.0004 -0.0144
14482TIP3    H164937   1.887   3.432   1.771 -0.7545 -1.1187 -2.1937
14482TIP3    H264938   1.810   3.562   1.786  0.0113 -0.7489 -1.3601
14483TIP3   OH264939   0.262   1.626  13.285 -0.3095  0.3255 -0.2962
14483TIP3    H164940   0.301   1.660  13.366 -2.8806  1.9337  0.3784
14483TIP3    H264941   0.272   1.697  13.222 -1.5257  0.5186 -0.2903
14484TIP3   OH264942   4.932   5.955   1.997  0.1716 -0.2272  0.2625
14484TIP3    H164943   4.959   5.902   1.922 -1.3080  0.7610 -1.0223
14484TIP3    H264944   5.014   5.995   2.028  0.5176  1.3493 -2.4397
14485TIP3   OH264945   5.090   5.199   3.101  0.3526  0.2194  0.0856
14485TIP3    H164946   5.036   5.272   3.071 -0.3018 -0.3197 -0.0872
14485TIP3    H264947   5.124   5.227   3.186 -0.8365  0.2825  0.5645
14486TIP3   OH264948   6.010   3.401   5.140  0.2079 -0.0671 -0.4015
14486TIP3    H164949   5.993   3.491   5.170  1.7804 -0.3133  1.3466
14486TIP3    H264950   6.067   3.412   5.064 -2.3351  0.4798 -2.3889
14487TIP3   OH264951   5.939   1.775   1.706 -0.0464  0.0004 -0.3770
14487TIP3    H164952   5.997   1.821   1.645  0.4574  0.2365  0.2605
14487TIP3    H264953   5.872   1.735   1.651 -0.8936  2.0393 -0.9133
14488TIP3   OH264954   6.603   2.888  15.923 -0.1198 -0.2077  0.2576
14488TIP3    H164955   6.672   2.883  15.856 -0.2715  0.5453  0.0343
14488TIP3    H264956   6.647   2.923  16.000  0.1589 -1.5005  0.7182
14489TIP3   OH264957   0.325   3.151  16.692 -0.1611  0.0733  0.4959
14489TIP3    H164958   0.354   3.070  16.649  1.6571  0.3196  1.1697
14489TIP3    H264959   0.231   3.140  16.704  0.1073 -2.1120  0.9128
14490TIP3   OH264960   1.499   2.379  15.396 -0.0323  0.5340 -0.7938
14490TIP3    H164961   1.412   2.342  15.415  0.8630 -1.0539  0.4791
14490TIP3    H264962   1.555   2.343  15.464  1.4514  2.3218 -1.0224
14491TIP3   OH264963   0.962   3.408   3.684 -0.4390  0.7762  0.5917
14491TIP3    H164964   0.904   3.344   3.725 -1.3597  1.1741 -0.0715
14491TIP3    H264965   0.974   3.475   3.752 -0.5501  0.5741  0.8139
14492TIP3   OH264966   1.643   3.448  14.784 -0.3613 -0.3315 -0.3171
14492TIP3    H164967   1.725   3.495  14.771 -0.2743 -0.3039  0.2719
14492TIP3    H264968   1.638   3.386  14.712 -0.2654  0.2815 -0.8637
14493TIP3   OH264969   3.733   2.503   0.841  0.1669 -0.4724 -0.8009
14493TIP3    H164970   3.773   2.490   0.927  1.9773 -0.8129 -1.6387
14493TIP3    H264971   3.640   2.511   0.859  0.5212 -0.3003  1.2111
14494TIP3   OH264972   6.026   6.613  16.467 -0.1172 -0.6778 -0.0490
14494TIP3    H164973   6.034   6.657  16.552  0.0608 -0.5633 -0.1217
14494TIP3    H264974   6.117   6.601  16.439 -0.1492  1.4626 -1.3321
14495TIP3   OH264975   2.967   2.923  11.481  0.1668 -0.2007 -0.2610
14495TIP3    H164976   2.964   2.881  11.395  1.6460 -0.6622 -0.1224
14495TIP3    H264977   3.038   2.987  11.473  0.8503 -0.7908  0.8301
14496TIP3   OH264978   6.357   6.289  16.083  0.2969  0.2551 -0.7382
14496TIP3    H164979   6.323   6.347  16.016 -2.4703  1.1390  1.2672
14496TIP3    H264980   6.302   6.304  16.159  0.9221 -3.3238  0.6583
14497TIP3   OH264981   0.429   2.370   4.559  0.2102 -0.3065 -0.0965
14497TIP3    H164982   0.387   2.331   4.482  0.7227 -1.1814  0.0476
14497TIP3    H264983   0.470   2.450   4.526  0.2843 -0.5878 -0.7061
14498TIP3   OH264984   2.242   6.123  14.064 -0.0736 -0.0683 -0.7036
14498TIP3    H164985   2.179   6.118  13.993  1.4668 -1.0139 -2.0579
14498TIP3    H264986   2.326   6.140  14.022  0.8682 -0.4687  0.9022
14499TIP3   OH264987   3.283   0.169   1.549  0.1301 -0.5470 -0.1015
14499TIP3    H164988   3.317   0.162   1.459  0.4709 -0.4022  0.0133
14499TIP3    H264989   3.358   0.200   1.600  0.2458 -1.6614  0.4354
14500TIP3   OH264990   0.368   2.170   1.862 -0.1196 -0.4864 -0.6179
14500TIP3    H164991   0.393   2.135   1.777  1.4940 -2.0241  0.4401
14500TIP3    H264992   0.353   2.093   1.917 -0.6200  0.4755  0.6523
14501TIP3   OH264993   3.031   2.070   4.268 -0.5215  0.1963 -0.4174
14501TIP3    H164994   2.977   1.994   4.249  1.1146 -0.8208 -1.2588
14501TIP3    H264995   3.074   2.049   4.351  0.3183 -0.0544 -0.9014
14502TIP3   OH264996   2.117   4.551  16.225 -0.1611  0.3270 -0.0344
14502TIP3    H164997   2.116   4.542  16.130  0.8861  0.0682 -0.0402
14502TIP3    H264998   2.026   4.534  16.252  0.0462 -2.5589 -0.7585
14503TIP3   OH264999   4.821   5.570   3.828 -0.4996  0.3777 -0.0438
14503TIP3    H165000   4.830   5.626   3.751  0.4422 -0.4691 -0.5618
14503TIP3    H265001   4.772   5.494   3.797  1.2506 -0.7238 -0.2420
14504TIP3   OH265002   0.422   4.772   6.625  0.1273  0.3352  0.1272
14504TIP3    H165003   0.397   4.750   6.535 -0.6458 -0.0925  0.4325
14504TIP3    H265004   0.414   4.689   6.673  0.1981  0.6313  0.6560
14505TIP3   OH265005   1.924   0.159   2.470 -0.4960 -0.0477 -0.0577
14505TIP3    H165006   1.898   0.243   2.507 -1.6315 -0.0427 -0.8126
14505TIP3    H265007   1.849   0.132   2.417 -0.3202 -1.7226  0.4675
14506TIP3   OH265008   1.474   3.675   2.440  0.3420  0.0118 -0.0352
14506TIP3    H165009   1.557   3.629   2.428  0.1894 -0.0161 -1.0296
14506TIP3    H265010   1.418   3.611   2.485  0.4439 -0.4372 -0.5339
14507TIP3   OH265011   5.307   0.559  14.572  0.0889 -0.2467 -0.4642
14507TIP3    H165012   5.372   0.629  14.577  0.7093 -0.6601 -2.1862
14507TIP3    H265013   5.225   0.605  14.554 -0.0066  0.2223  1.0443
14508TIP3   OH265014   6.753   1.325   0.057  0.1867 -0.3533  0.1063
14508TIP3    H165015   6.817   1.381   0.101  0.3682 -0.8012  0.4212
14508TIP3    H265016   6.674   1.331   0.111  0.5965 -1.3775  0.8525
14509TIP3   OH265017   2.358   5.407  11.793 -0.0595  0.3217  0.2037
14509TIP3    H165018   2.361   5.501  11.807  0.9228  0.2365  0.6542
14509TIP3    H265019   2.267   5.389  11.770 -0.0655  1.4969 -0.7845
14510TIP3   OH265020   5.929   2.592  14.407  0.3457  0.6192 -0.9681
14510TIP3    H165021   6.012   2.546  14.416  0.3811  0.6420 -1.1765
14510TIP3    H265022   5.900   2.574  14.318 -0.1938  0.0800 -0.6926
14511TIP3   OH265023   4.636   4.642  11.053  0.3887 -0.5292  0.1938
14511TIP3    H165024   4.665   4.718  11.002  0.5712 -0.9917 -0.4065
14511TIP3    H265025   4.666   4.566  11.002  0.1903 -1.0051  0.7723
14512TIP3   OH265026   0.563   5.623   5.755  0.3463 -0.4926 -0.4267
14512TIP3    H165027   0.477   5.587   5.732  0.9393 -0.7440 -2.4939
14512TIP3    H265028   0.622   5.548   5.754  0.7921 -0.1523 -0.1374
14513TIP3   OH265029   4.341   6.274  16.095 -0.3632  0.0826  0.0803
14513TIP3    H165030   4.265   6.230  16.057 -0.4623  2.9455 -3.6230
14513TIP3    H265031   4.305   6.335  16.159 -1.2202  1.0406 -1.2698
14514TIP3   OH265032   0.298   3.553   1.925  0.6551 -0.0128 -0.3441
14514TIP3    H165033   0.272   3.599   1.845  0.3653 -0.2607 -0.3955
14514TIP3    H265034   0.260   3.466   1.916  2.1428 -0.6481 -0.7672
14515TIP3   OH265035   2.350   2.311   5.113  0.1775 -0.1161  0.3767
14515TIP3    H165036   2.300   2.234   5.087 -0.2650  0.1031  0.5677
14515TIP3    H265037   2.297   2.352   5.182 -0.1095  0.9210 -0.4174
14516TIP3   OH265038   5.258   3.231   2.713  0.2612  0.9090 -0.0798
14516TIP3    H165039   5.306   3.195   2.637 -0.2669 -0.4489  0.2032
14516TIP3    H265040   5.290   3.321   2.721  2.6965  0.1129  0.0175
14517TIP3   OH265041   3.876   5.566   0.056  0.5552 -0.1599  0.7823
14517TIP3    H165042   3.905   5.490   0.005  0.0063 -0.6185  1.1358
14517TIP3    H265043   3.812   5.610  -0.001  0.6646 -0.1233  0.6872
14518TIP3   OH265044   6.009   6.277   1.581  0.4939  0.1281  0.7536
14518TIP3    H165045   6.068   6.231   1.640  0.2308  1.0071  1.7241
14518TIP3    H265046   5.988   6.213   1.513  1.3958 -0.6548  1.1963
14519TIP3   OH265047   5.543   4.194   6.549 -0.2068 -0.0991  0.2509
14519TIP3    H165048   5.507   4.106   6.540  0.8047 -0.4667 -0.4319
14519TIP3    H265049   5.512   4.225   6.634  1.0041 -1.8860  1.4000
14520TIP3   OH265050   4.717   3.015   3.551 -0.1290 -0.2402  0.3585
14520TIP3    H165051   4.752   3.034   3.638 -0.3741 -0.5110  0.5200
14520TIP3    H265052   4.793   3.022   3.493  0.2232 -0.9136  0.7167
14521TIP3   OH265053   0.803   2.444   5.819  1.0366  0.2608 -0.1636
14521TIP3    H165054   0.709   2.462   5.821  1.1081  0.6670  2.0778
14521TIP3    H265055   0.830   2.464   5.729 -0.9461  0.4437 -0.7554
14522TIP3   OH265056   3.289   3.722   0.742  0.0433 -0.0733 -0.5298
14522TIP3    H165057   3.337   3.669   0.679  1.3032 -0.6316  0.8506
14522TIP3    H265058   3.339   3.804   0.749 -0.2709  0.1196 -0.5019
14523TIP3   OH265059   6.224   0.643  16.994  0.5679 -0.5527  0.1213
14523TIP3    H165060   6.268   0.725  17.016 -1.2777  0.5953 -0.1782
14523TIP3    H265061   6.140   0.649  17.040  0.5188 -2.4502  0.3527
14524TIP3   OH265062   4.307   3.835   0.922  0.0429  0.0075 -0.6010
14524TIP3    H165063   4.224   3.839   0.874  0.1425 -0.6491 -0.8297
14524TIP3    H265064   4.285   3.789   1.003 -0.0909  0.9764 -0.0644
14525TIP3   OH265065   4.398   0.064  13.172  0.0612 -0.3185  0.1311
14525TIP3    H165066   4.383   0.002  13.244  0.3547 -0.8312 -0.2457
14525TIP3    H265067   4.481   0.036  13.133  1.1663  1.4179  1.0948
14526TIP3   OH265068   3.563   0.593  11.916 -0.1248  0.2233  0.1140
14526TIP3    H165069   3.635   0.624  11.862 -0.3567  0.7854  0.1181
14526TIP3    H265070   3.548   0.663  11.979 -0.5911  0.0560  0.1946
14527TIP3   OH265071   2.360   2.201   6.049 -0.6173 -0.7558 -0.6781
14527TIP3    H165072   2.435   2.179   5.994 -1.7353 -1.3440 -2.0312
14527TIP3    H265073   2.396   2.255   6.119  0.7326  0.9107 -2.5305
14528TIP3   OH265074   1.218   3.260  16.370  0.2050  0.3288 -0.2265
14528TIP3    H165075   1.237   3.280  16.461 -1.4946  0.7226  0.0893
14528TIP3    H265076   1.156   3.329  16.343  3.7451  2.8378 -3.0199
14529TIP3   OH265077   2.559   5.102  11.499 -0.5172 -0.0930  0.0186
14529TIP3    H165078   2.494   5.159  11.456 -1.2551 -0.0133  1.2114
14529TIP3    H265079   2.509   5.029  11.534  0.0091  0.0449  1.0973
14530TIP3   OH265080   5.896   5.640  13.352 -0.0992  0.3809  0.2153
14530TIP3    H165081   5.932   5.727  13.336 -1.5549  1.1563  0.9219
14530TIP3    H265082   5.849   5.618  13.271 -0.8218  0.8403  0.4995
14531TIP3   OH265083   6.757   3.520   0.877  0.0576 -0.8333  0.0416
14531TIP3    H165084   6.693   3.452   0.896  0.4664 -0.7577  1.8373
14531TIP3    H265085   6.835   3.494   0.926  0.5730  0.3896 -0.0874
14532TIP3   OH265086   6.746   5.358   2.755 -0.4073 -0.5608  0.1105
14532TIP3    H165087   6.738   5.454   2.762 -1.3338 -0.6056 -0.1011
14532TIP3    H265088   6.824   5.344   2.702 -1.2748  0.1485 -1.4252
14533TIP3   OH265089   1.761   0.892  12.333 -0.3111 -0.1994  0.3204
14533TIP3    H165090   1.680   0.871  12.379  0.0357  0.5926  1.3438
14533TIP3    H265091   1.828   0.839  12.375 -0.1752 -0.3243 -0.0475
14534TIP3   OH265092   6.110   4.348   3.569  0.1795 -0.3946  0.0125
14534TIP3    H165093   6.023   4.327   3.536 -0.8595  0.0441  2.3088
14534TIP3    H265094   6.108   4.442   3.586  1.4288 -0.2047 -0.7406
14535TIP3   OH265095   0.834   3.334   1.444 -0.2273 -0.1457  0.5639
14535TIP3    H165096   0.832   3.291   1.359  0.0282 -1.5705  1.2467
14535TIP3    H265097   0.803   3.267   1.506 -0.8279  0.9884  1.5453
14536TIP3   OH265098   0.386   0.364  16.186  0.4230  0.4438 -0.3000
14536TIP3    H165099   0.355   0.454  16.185  0.5891  0.5557  1.4254
14536TIP3    H265100   0.369   0.333  16.274 -1.8731 -2.0685 -1.4773
14537TIP3   OH265101   2.593   6.114  11.148 -0.4534  0.0109 -0.0848
14537TIP3    H165102   2.622   6.196  11.109 -1.2321 -0.3895 -1.5978
14537TIP3    H265103   2.663   6.089  11.207  0.2167  1.2946 -0.3112
14538TIP3   OH265104   1.857   5.931   1.727  0.3086  0.1632 -0.0607
14538TIP3    H165105   1.830   5.954   1.638  0.0570 -0.8577 -0.2605
14538TIP3    H265106   1.780   5.951   1.781 -0.2492 -1.0564 -0.3710
14539TIP3   OH265107   6.373   5.844   4.277  0.1425 -0.4446  0.2631
14539TIP3    H165108   6.343   5.882   4.360  1.1078  3.5982 -1.0271
14539TIP3    H265109   6.297   5.850   4.219  0.2368 -0.8012  0.0983
14540TIP3   OH265110   6.270   1.274   2.203  0.1241 -0.3913  0.1997
14540TIP3    H165111   6.224   1.228   2.133 -2.0319 -1.5518  2.2450
14540TIP3    H265112   6.345   1.218   2.223 -0.1096 -0.8527 -0.1787
14541TIP3   OH265113   0.692   1.794   7.052 -0.1204 -0.2974  0.4294
14541TIP3    H165114   0.711   1.864   6.990  0.6514 -2.1135 -1.4922
14541TIP3    H265115   0.597   1.787   7.051 -0.2544  1.0346  1.0730
14542TIP3   OH265116   5.645   2.992   2.275  0.2483  0.4143 -0.0286
14542TIP3    H165117   5.574   2.953   2.223  2.7540 -2.0725 -1.9321
14542TIP3    H265118   5.645   2.943   2.357  0.0215  0.1270 -0.2001
14543TIP3   OH265119   0.847   3.293  11.651  0.2801 -0.4730  0.2957
14543TIP3    H165120   0.881   3.348  11.723  3.8842 -0.3457 -1.2928
14543TIP3    H265121   0.835   3.354  11.578 -0.8380 -1.0081  0.0163
14544TIP3   OH265122   5.476   6.242  11.757 -0.2827 -0.2688  0.2308
14544TIP3    H165123   5.472   6.310  11.690 -0.0254 -2.0022 -1.6268
14544TIP3    H265124   5.567   6.213  11.757 -0.5291 -1.0809  0.4994
14545TIP3   OH265125   1.103   1.088  13.497  0.2296  0.1473  0.1331
14545TIP3    H165126   1.125   0.998  13.472 -2.3793  0.2553 -3.4585
14545TIP3    H265127   1.013   1.082  13.530  0.3238  1.3601  0.6579
14546TIP3   OH265128   3.229   0.337   4.509  0.0554  0.6082  0.6987
14546TIP3    H165129   3.191   0.424   4.523 -0.9722  0.1153  1.0650
14546TIP3    H265130   3.229   0.326   4.414  0.8596  1.2879  0.6079
14547TIP3   OH265131   5.028   4.989   5.923  0.0519  0.2617  0.3091
14547TIP3    H165132   5.032   4.944   6.007 -1.1090 -0.7363 -0.1387
14547TIP3    H265133   4.998   5.078   5.945 -3.8976 -0.9860  0.7176
14548TIP3   OH265134   4.938   2.863  14.042 -0.1602 -0.4555  0.6522
14548TIP3    H165135   4.942   2.785  13.986  1.7409 -0.2673  0.4710
14548TIP3    H265136   4.856   2.906  14.016  0.6447 -0.3543 -2.0780
14549TIP3   OH265137   6.541   3.234   3.906 -0.1121 -0.1019  0.3892
14549TIP3    H165138   6.567   3.144   3.924  2.9745  0.3320 -1.2285
14549TIP3    H265139   6.553   3.280   3.989 -0.8490 -0.9947  1.0003
14550TIP3   OH265140   1.272   3.680  17.425 -0.4263 -0.0872  0.2082
14550TIP3    H165141   1.181   3.673  17.456 -0.5845 -1.4273 -0.4564
14550TIP3    H265142   1.313   3.599  17.456  0.2054 -0.0533 -0.5185
14551TIP3   OH265143   3.036   2.229  12.237  0.4934 -0.4495  0.7402
14551TIP3    H165144   2.974   2.156  12.238  0.4272 -0.3856  2.1941
14551TIP3    H265145   3.030   2.263  12.148 -1.6858 -0.3350  0.8800
14552TIP3   OH265146   1.862   4.399   6.096 -0.5020  0.0277  0.2392
14552TIP3    H165147   1.825   4.340   6.161 -0.4457  0.7863  0.9840
14552TIP3    H265148   1.896   4.473   6.148  0.5275  0.1347 -0.5606
14553TIP3   OH265149   5.161   6.727  16.288 -0.3563  0.0639 -0.5798
14553TIP3    H165150   5.165   6.707  16.381 -1.5000  3.0183  0.1852
14553TIP3    H265151   5.088   6.675  16.255 -0.1149 -0.7912  0.1770
14554TIP3   OH265152   1.622   5.464   2.370  0.2874 -0.5692 -0.2198
14554TIP3    H165153   1.696   5.516   2.401  0.2124 -0.6305  0.0661
14554TIP3    H265154   1.623   5.475   2.275 -0.5868  1.1214 -0.0720
14555TIP3   OH265155   6.387   2.362  16.250  0.4401 -1.3291  0.4773
14555TIP3    H165156   6.371   2.409  16.332  1.3601 -1.2709  0.6398
14555TIP3    H265157   6.371   2.270  16.271 -1.5060 -1.1037  0.1244
14556TIP3   OH265158   3.760   2.675  12.313  0.1701  0.1427 -0.2391
14556TIP3    H165159   3.708   2.621  12.372  0.5690 -0.5049 -0.4748
14556TIP3    H265160   3.710   2.756  12.305 -0.2018 -0.0053  0.4847
14557TIP3   OH265161   5.595   4.308  17.226  0.1792 -0.0131 -0.4016
14557TIP3    H165162   5.687   4.334  17.218  0.2855 -0.3704 -0.3248
14557TIP3    H265163   5.597   4.219  17.261 -0.2028  0.1373  0.0331
14558TIP3   OH265164   2.392   1.524  15.268 -0.0459 -0.3386  0.4140
14558TIP3    H165165   2.352   1.575  15.339 -1.3125 -1.6143  0.6778
14558TIP3    H265166   2.484   1.516  15.293  0.4756  2.5903 -0.1445
14559TIP3   OH265167   1.922   3.888  13.983  0.4305 -0.5222 -0.1973
14559TIP3    H165168   1.970   3.957  14.029  0.3448  0.3250 -1.3271
14559TIP3    H265169   1.917   3.919  13.892 -1.2021 -1.1473 -0.3545
14560TIP3   OH265170   0.830   4.575   5.709  0.2698  0.0754 -0.4132
14560TIP3    H165171   0.900   4.510   5.714 -0.0440 -0.2571 -0.2536
14560TIP3    H265172   0.869   4.650   5.664 -0.1195 -1.2821 -3.2925
14561TIP3   OH265173   6.191   0.150   0.973 -0.0667  0.4138  0.1750
14561TIP3    H165174   6.134   0.102   1.032 -0.8956  0.9862 -0.1502
14561TIP3    H265175   6.266   0.176   1.027 -0.0297 -0.4713  0.5611
14562TIP3   OH265176   2.320   2.156   4.033  0.2930  0.0958 -0.5332
14562TIP3    H165177   2.273   2.219   3.980 -0.0805  0.6714  0.4436
14562TIP3    H265178   2.254   2.091   4.057 -0.2171  1.2047  1.3067
14563TIP3   OH265179   5.156   5.976   3.928  0.0917 -0.0441 -0.3038
14563TIP3    H165180   5.137   5.909   3.862 -0.1597 -1.7310  1.3945
14563TIP3    H265181   5.104   6.051   3.902 -1.4936 -1.3301 -0.9840
14564TIP3   OH265182   5.668   3.659   6.599  0.9110 -0.1022  0.1352
14564TIP3    H165183   5.738   3.722   6.582 -0.3943  1.2619 -0.4093
14564TIP3    H265184   5.597   3.711   6.637 -1.0035 -0.7936 -2.2378
14565TIP3   OH265185   3.550   3.155  14.458 -0.1249  0.4151  0.0173
14565TIP3    H165186   3.596   3.239  14.453 -0.1489  0.6793  2.5842
14565TIP3    H265187   3.619   3.089  14.451  0.3330  0.7514  1.1081
14566TIP3   OH265188   6.471   4.840   1.569 -0.1611  0.5466  0.4407
14566TIP3    H165189   6.477   4.837   1.474  2.2115 -0.0564  0.5591
14566TIP3    H265190   6.515   4.761   1.599 -0.5767  0.8874  2.0667
14567TIP3   OH265191   0.876   3.161   0.446  0.4793 -0.3908  0.1661
14567TIP3    H165192   0.782   3.160   0.427  0.1846 -2.0018  1.4496
14567TIP3    H265193   0.914   3.105   0.379  0.4757 -0.0602 -0.1150
14568TIP3   OH265194   5.554   5.312  13.083  0.1191 -0.1918  0.1179
14568TIP3    H165195   5.529   5.392  13.128 -0.8516 -0.5081  0.1640
14568TIP3    H265196   5.497   5.308  13.006 -0.4442 -1.2613  0.5685
14569TIP3   OH265197   6.523   1.248  17.366  0.0018  0.1238  0.1946
14569TIP3    H165198   6.448   1.306  17.359 -0.1951  0.2862  2.7499
14569TIP3    H265199   6.598   1.301  17.339 -0.1928  1.5969  2.3442
14570TIP3   OH265200   5.119   3.336   4.399  0.6656  0.3232 -0.3463
14570TIP3    H165201   5.055   3.269   4.373 -0.2289  1.7907 -2.1109
14570TIP3    H265202   5.181   3.340   4.325  0.4710  1.7092 -0.4515
14571TIP3   OH265203   0.166   3.799   2.962  0.1009 -0.3093  0.7575
14571TIP3    H165204   0.097   3.740   2.991 -1.3496  0.1974 -1.3796
14571TIP3    H265205   0.133   3.887   2.982 -0.6737  0.0177 -1.6557
14572TIP3   OH265206   5.942   3.698   3.096  0.0618 -0.5629 -0.0596
14572TIP3    H165207   5.902   3.616   3.125 -0.7681 -0.3143 -0.4639
14572TIP3    H265208   5.941   3.754   3.174 -1.2153 -0.2508 -0.2868
14573TIP3   OH265209   0.642   5.567  13.835 -0.1928  0.2192  0.2593
14573TIP3    H165210   0.622   5.480  13.870  0.0640 -0.2521 -0.7498
14573TIP3    H265211   0.734   5.563  13.810 -0.3899  0.5104 -0.5542
14574TIP3   OH265212   0.569   4.226  14.162  0.0309  0.2304  0.1531
14574TIP3    H165213   0.540   4.220  14.253 -1.9372  0.9827 -0.3745
14574TIP3    H265214   0.520   4.158  14.116  0.5809  0.2321 -0.4583
14575TIP3   OH265215   2.991   1.408  13.322 -0.4074  0.0011 -0.2634
14575TIP3    H165216   3.016   1.353  13.248 -0.4342 -0.6807  0.2203
14575TIP3    H265217   2.980   1.496  13.285  0.3731 -0.1638 -0.9106
14576TIP3   OH265218   5.132   4.246   6.237 -0.5969 -0.6256  0.0928
14576TIP3    H165219   5.101   4.196   6.312  0.7570 -0.4256  0.8114
14576TIP3    H265220   5.159   4.180   6.173  0.2394 -0.8119  0.6343
14577TIP3   OH265221   3.341   3.887   5.048  0.0830  0.4783 -0.3393
14577TIP3    H165222   3.362   3.954   5.113 -1.4296  0.9762 -0.3205
14577TIP3    H265223   3.421   3.836   5.039 -0.0207 -0.4656  2.9029
14578TIP3   OH265224   5.573   2.825   2.479  0.6686 -0.0124 -0.8044
14578TIP3    H165225   5.503   2.826   2.544 -0.0777  0.2042 -1.5909
14578TIP3    H265226   5.607   2.735   2.483 -0.6586 -0.5784 -1.4400
14579TIP3   OH265227   5.982   0.876   1.677 -0.0417  0.3522 -0.4330
14579TIP3    H165228   5.973   0.948   1.740 -0.9610  0.8218 -1.0769
14579TIP3    H265229   5.988   0.920   1.592 -2.3562 -0.3356 -1.0265
14580TIP3   OH265230   0.306   1.255  14.370 -0.3685  0.0093  0.1730
14580TIP3    H165231   0.258   1.182  14.409  0.9216 -0.6609  0.5538
14580TIP3    H265232   0.326   1.312  14.444 -0.7695  0.4058 -0.0208
14581TIP3   OH265233   1.318   1.916  11.817 -0.2996 -0.0203 -0.3627
14581TIP3    H165234   1.346   1.904  11.907 -0.4553 -0.8364 -0.4130
14581TIP3    H265235   1.247   1.981  11.821  1.4030  1.9230 -0.2152
14582TIP3   OH265236   2.112   1.841   5.177 -0.7248  0.3139  0.2344
14582TIP3    H165237   2.106   1.762   5.230  1.9194  0.7583  1.3466
14582TIP3    H265238   2.084   1.911   5.236  0.8525  0.6385  0.6412
14583TIP3   OH265239   1.660   4.638   3.922  0.2205 -0.0310  0.0915
14583TIP3    H165240   1.678   4.724   3.884  0.9423  0.9250  2.3882
14583TIP3    H265241   1.744   4.610   3.959 -0.3262 -1.0472  0.6095
14584TIP3   OH265242   6.028   0.710   1.134 -0.5466  0.1836 -0.1469
14584TIP3    H165243   6.052   0.626   1.095  0.9213  1.7450 -2.8800
14584TIP3    H265244   5.932   0.712   1.129 -0.6519 -1.5534  0.5811
14585TIP3   OH265245   4.108   3.886   5.927 -0.4094  0.2461  0.1737
14585TIP3    H165246   4.079   3.926   5.845 -0.2888 -2.2750 -1.2005
14585TIP3    H265247   4.077   3.796   5.922  0.3932 -0.2307  2.5172
14586TIP3   OH265248   2.902   3.400   6.120 -0.5771  0.1275  0.4369
14586TIP3    H165249   2.825   3.391   6.175  0.1107 -1.9080  1.1377
14586TIP3    H265250   2.976   3.397   6.180  0.2108 -2.5552 -0.5402
14587TIP3   OH265251   2.508   6.040  13.636  0.0410 -0.3440  0.0135
14587TIP3    H165252   2.503   6.010  13.727  0.3851  1.2937  0.6207
14587TIP3    H265253   2.507   5.960  13.584  2.7356 -1.5595  1.5739
14588TIP3   OH265254   2.281   1.081  15.606  0.0311  0.5300 -0.3695
14588TIP3    H165255   2.349   1.022  15.571  0.7964  1.1604  0.0127
14588TIP3    H265256   2.204   1.026  15.614  0.1276  0.0971 -2.0154
14589TIP3   OH265257   4.344   5.093   3.770 -0.0020  0.2568  0.5543
14589TIP3    H165258   4.426   5.143   3.772  0.1936 -0.0224 -0.2050
14589TIP3    H265259   4.312   5.097   3.860 -0.2264  2.1078  0.4152
14590TIP3   OH265260   0.775   1.319  17.523  0.1831  0.4018  0.0719
14590TIP3    H165261   0.839   1.353  17.585  0.2037  0.1177  0.2044
14590TIP3    H265262   0.690   1.336  17.564  0.0362  2.5818 -0.9547
14591TIP3   OH265263   2.442   5.851   1.275 -0.3012 -0.1919 -0.0851
14591TIP3    H165264   2.435   5.921   1.340  0.4459  1.7136 -1.9680
14591TIP3    H265265   2.454   5.772   1.327  0.3725  1.2555  2.1083
14592TIP3   OH265266   2.762   6.723  11.077 -0.3435  0.5469 -0.7908
14592TIP3    H165267   2.818   6.653  11.111 -1.6977 -1.1960 -1.9556
14592TIP3    H265268   2.817   6.770  11.015  1.1783  1.8172  1.3688
14593TIP3   OH265269   3.130   3.909   4.828 -0.1446  0.2530 -0.3910
14593TIP3    H165270   3.153   3.941   4.915  0.3270  0.5394 -0.6133
14593TIP3    H265271   3.192   3.838   4.812 -1.0132 -0.6092 -0.0108
14594TIP3   OH265272   5.349   3.968  16.475  0.1029  0.2194  0.0180
14594TIP3    H165273   5.384   4.051  16.507  2.1565 -1.2674  1.9581
14594TIP3    H265274   5.421   3.928  16.427  0.1906 -1.6110  1.5300
14595TIP3   OH265275   0.448   2.515   3.665 -0.0451  0.1469 -0.8912
14595TIP3    H165276   0.505   2.556   3.599  1.3818 -0.3773 -0.0353
14595TIP3    H265277   0.416   2.588   3.717  0.6688  0.3846 -0.7673
14596TIP3   OH265278   0.974   4.472  12.236  0.6032  0.0997 -0.1049
14596TIP3    H165279   0.920   4.528  12.179 -0.2403 -0.4644  0.1300
14596TIP3    H265280   0.948   4.496  12.325 -0.0255 -0.8920 -0.0036
14597TIP3   OH265281   5.763   0.344  13.886 -0.4227 -0.1839  0.1308
14597TIP3    H165282   5.819   0.419  13.906  1.2012 -1.3643  0.2479
14597TIP3    H265283   5.695   0.346  13.953  0.2595  0.5293  0.8249
14598TIP3   OH265284   6.422   1.928  15.400  0.1589 -0.2234  0.6485
14598TIP3    H165285   6.449   1.903  15.488  0.2792  0.9197  0.9472
14598TIP3    H265286   6.440   1.850  15.347 -0.6835 -1.2306  1.7680
14599TIP3   OH265287   0.035   5.511  15.591 -0.5184 -0.1955  0.5771
14599TIP3    H165288  -0.060   5.523  15.589 -0.8462 -2.3659  0.3785
14599TIP3    H265289   0.065   5.568  15.662 -1.4137  3.4315 -1.6737
14600TIP3   OH265290   5.546   3.424  13.667 -0.2847 -0.1030  0.1518
14600TIP3    H165291   5.453   3.403  13.664 -0.0830 -0.9658 -2.1660
14600TIP3    H265292   5.556   3.498  13.608  0.3903  0.6556  1.1732
14601TIP3   OH265293   5.235   0.537   2.695  0.2146 -0.1471 -0.2969
14601TIP3    H165294   5.178   0.534   2.618  0.0863  0.4991 -0.2258
14601TIP3    H265295   5.279   0.451   2.695 -1.3852 -1.0043  0.1479
14602TIP3   OH265296   4.838   0.013   5.234 -0.9849 -0.0591 -0.3781
14602TIP3    H165297   4.887   0.002   5.316 -0.0775  0.6641 -0.7995
14602TIP3    H265298   4.811   0.104   5.235 -1.7743 -0.2895 -0.4611
14603TIP3   OH265299   2.484   1.158   3.103  0.0008  0.2804  0.0205
14603TIP3    H165300   2.550   1.102   3.144 -0.0428 -1.6535 -2.2949
14603TIP3    H265301   2.458   1.219   3.171  1.5127 -1.2794  2.1189
14604TIP3   OH265302   5.575   3.411   3.685  0.1075  0.6402  0.8211
14604TIP3    H165303   5.544   3.336   3.636 -1.7861  1.7292  0.2677
14604TIP3    H265304   5.590   3.377   3.774  1.9210 -0.9450 -0.0178
14605TIP3   OH265305   5.230   6.158   2.487 -0.7298  0.0015  0.2609
14605TIP3    H165306   5.239   6.142   2.581  0.0674  0.2160  0.2315
14605TIP3    H265307   5.136   6.150   2.470 -0.8336 -0.4421  0.9991
14606TIP3   OH265308   4.081   2.407   3.200 -0.1641  0.2026 -0.4961
14606TIP3    H165309   4.074   2.502   3.197  0.4804  0.2452 -0.8184
14606TIP3    H265310   4.009   2.379   3.257  0.2154  0.9415  0.3527
14607TIP3   OH265311   4.810   2.548   5.506  0.4179 -0.0788  0.1349
14607TIP3    H165312   4.753   2.533   5.430  0.0552 -0.8339  0.5385
14607TIP3    H265313   4.882   2.600   5.472 -0.3826  0.6917 -0.4533
14608TIP3   OH265314   2.551   6.479   4.389 -0.2940  0.3663 -0.3691
14608TIP3    H165315   2.481   6.461   4.452 -0.8598  0.7964 -0.8658
14608TIP3    H265316   2.619   6.415   4.410 -0.4820  0.4854  0.6628
14609TIP3   OH265317   2.660   2.272   4.470 -0.1970  0.1958  0.1931
14609TIP3    H165318   2.676   2.320   4.389  2.2001  1.4184  1.2940
14609TIP3    H265319   2.639   2.183   4.442 -2.1017  1.1978 -1.8159
14610TIP3   OH265320   4.954   1.661   2.795  0.0132 -0.0680 -0.2222
14610TIP3    H165321   5.004   1.743   2.797  0.2995 -0.2115 -1.0019
14610TIP3    H265322   4.878   1.681   2.740 -0.4997 -0.0102  0.5028
14611TIP3   OH265323   0.882   2.838   0.345 -0.0745  0.5146  0.5089
14611TIP3    H165324   0.861   2.879   0.262  0.5401  1.7572  0.9336
14611TIP3    H265325   0.891   2.744   0.325  0.5941  0.8587 -0.9242
14612TIP3   OH265326   1.237   5.685   4.169  0.2987  0.2958 -0.2375
14612TIP3    H165327   1.217   5.616   4.233  0.2466  1.6280  1.2499
14612TIP3    H265328   1.319   5.723   4.200 -0.6529  2.1680  0.1486
14613TIP3   OH265329   5.624   6.186   5.221 -0.1369  0.2698  0.2936
14613TIP3    H165330   5.717   6.194   5.204 -0.0680  0.4401  0.7281
14613TIP3    H265331   5.589   6.275   5.212 -0.5229 -0.0221 -1.3186
14614TIP3   OH265332   1.140   1.683  17.161  0.4298 -0.1560  0.0069
14614TIP3    H165333   1.199   1.756  17.181  2.8648 -2.0101 -0.0320
14614TIP3    H265334   1.176   1.645  17.081  0.8111 -2.9114  1.3836
14615TIP3   OH265335   6.194   1.755   4.731  0.1552 -0.5382  0.1199
14615TIP3    H165336   6.181   1.811   4.807  1.8406  1.7970 -1.1595
14615TIP3    H265337   6.133   1.789   4.665  0.1415 -1.1920 -0.2133
14616TIP3   OH265338   0.956   5.833  16.081  0.2212  0.0646  0.2042
14616TIP3    H165339   1.031   5.854  16.026  0.1400 -0.5276 -0.1376
14616TIP3    H265340   0.897   5.783  16.025 -0.5474  0.7247  0.3934
14617TIP3   OH265341   4.708   1.042  12.413 -0.0864 -0.0955  0.2869
14617TIP3    H165342   4.795   1.003  12.422  0.6770  1.3524 -0.4414
14617TIP3    H265343   4.708   1.082  12.326 -1.4206  0.1059  0.3482
14618TIP3   OH265344   4.546   3.942  14.534  0.1074  0.1421  0.0223
14618TIP3    H165345   4.605   3.887  14.585  0.7706 -0.0217 -0.9024
14618TIP3    H265346   4.600   4.015  14.504 -0.6422  1.0470  0.8000
14619TIP3   OH265347   1.424   3.393  14.420 -0.5299  0.0003 -0.1862
14619TIP3    H165348   1.335   3.364  14.441 -1.2294  2.1010  0.0590
14619TIP3    H265349   1.413   3.450  14.344  0.7830 -0.6082 -0.8485
14620TIP3   OH265350   1.951   4.642   5.050  0.3609  0.0020  0.0715
14620TIP3    H165351   2.032   4.617   5.005 -1.9547 -1.1260 -3.9824
14620TIP3    H265352   1.917   4.559   5.086 -1.1982 -0.5788 -2.4791
14621TIP3   OH265353   0.027   2.281   0.906  0.2729  0.2679 -0.1968
14621TIP3    H165354   0.122   2.271   0.907  0.4407  1.6123 -0.6643
14621TIP3    H265355   0.012   2.367   0.947 -0.7072  0.2321 -0.4639
14622TIP3   OH265356   6.281   2.137   2.488  0.3900 -0.1883 -0.9321
14622TIP3    H165357   6.371   2.161   2.508  0.5753 -0.0822 -1.8498
14622TIP3    H265358   6.285   2.096   2.401  0.0283 -3.0944  0.2904
14623TIP3   OH265359   3.008   4.836  15.608  0.5406  0.2845 -0.1647
14623TIP3    H165360   3.103   4.826  15.598  0.4378 -1.3172  0.1647
14623TIP3    H265361   2.995   4.930  15.618  2.0576  0.5689 -0.5670
14624TIP3   OH265362   0.933   0.540  13.417 -0.0980 -0.0124  0.1313
14624TIP3    H165363   1.018   0.559  13.457 -0.2825  0.2100  0.4305
14624TIP3    H265364   0.887   0.486  13.482  0.9453 -2.7690 -1.2970
14625TIP3   OH265365   3.201   5.027   1.107 -0.4989 -0.2486  0.0025
14625TIP3    H165366   3.120   5.078   1.104 -0.6018 -0.4339 -1.5946
14625TIP3    H265367   3.182   4.956   1.168 -0.8107  0.8497  1.2139
14626TIP3   OH265368   4.827   6.471  11.811 -0.2737 -0.0053 -0.3983
14626TIP3    H165369   4.804   6.478  11.718  1.3379 -1.0970 -0.9363
14626TIP3    H265370   4.832   6.377  11.827  0.2712  0.1775  0.5755
14627TIP3   OH265371   0.516   0.001   4.514 -0.5816 -0.4021  0.0771
14627TIP3    H165372   0.451  -0.044   4.461 -1.4275  0.5305  0.2898
14627TIP3    H265373   0.532   0.084   4.468  0.0637 -0.3946  0.3014
14628TIP3   OH265374   3.233   5.016  15.804  0.4894  0.8139 -0.6076
14628TIP3    H165375   3.223   5.095  15.751 -2.3943  0.6299 -0.4958
14628TIP3    H265376   3.281   5.045  15.881  1.2101  1.9894 -1.4632
14629TIP3   OH265377   5.345   6.546  16.780 -0.2985  0.0799 -0.2348
14629TIP3    H165378   5.411   6.504  16.836 -0.1328 -0.1858 -0.6208
14629TIP3    H265379   5.268   6.556  16.836 -0.0650  0.0124  0.0991
14630TIP3   OH265380   6.045   1.659   0.034  0.0281  0.5518 -0.2578
14630TIP3    H165381   5.990   1.622   0.102  0.7352  0.7952  0.4603
14630TIP3    H265382   6.112   1.592   0.018  0.6360  1.0300  0.2307
14631TIP3   OH265383   2.682   5.886  14.256  0.4188  0.1617  0.5035
14631TIP3    H165384   2.710   5.975  14.234  0.5290 -0.0077 -0.0384
14631TIP3    H265385   2.759   5.848  14.299  1.2703 -0.5001 -1.5101
14632TIP3   OH265386   4.279   0.673   2.453 -0.1123 -0.3252  0.9212
14632TIP3    H165387   4.245   0.715   2.374  0.0527  0.4606  1.2551
14632TIP3    H265388   4.371   0.701   2.457  0.1219 -1.0616  0.9330
14633TIP3   OH265389   0.433   2.928   5.550  0.0533  0.3698  0.4978
14633TIP3    H165390   0.510   2.966   5.593  1.4973  1.8878 -3.0526
14633TIP3    H265391   0.388   3.003   5.511 -1.0939 -0.8879 -0.7113
14634TIP3   OH265392   0.908   3.086   3.491  0.7150 -0.4200  0.4083
14634TIP3    H165393   0.918   3.165   3.438  0.2370 -0.2674  0.5339
14634TIP3    H265394   0.825   3.099   3.538  1.6642 -0.0181  2.0682
14635TIP3   OH265395   0.492   3.356  13.471 -0.3677 -0.4832 -0.8395
14635TIP3    H165396   0.550   3.429  13.493 -0.0141 -1.1395  0.4915
14635TIP3    H265397   0.507   3.291  13.540 -1.5750 -1.3058 -1.3127
14636TIP3   OH265398   0.887   1.456  12.405  0.2740  0.1841  0.0776
14636TIP3    H165399   0.933   1.471  12.487  0.5460 -1.4587  0.2756
14636TIP3    H265400   0.941   1.499  12.338 -0.9275  3.1837  0.8851
14637TIP3   OH265401   3.180   5.761  14.952  0.1683 -0.5035  0.1785
14637TIP3    H165402   3.203   5.776  14.860 -0.3977  0.6256  0.2052
14637TIP3    H265403   3.264   5.758  14.998  0.5020 -1.9143 -0.4740
14638TIP3   OH265404   1.355   6.720   2.077 -0.5269  0.1477  0.0957
14638TIP3    H165405   1.363   6.744   1.985 -0.5893 -0.0529  0.0360
14638TIP3    H265406   1.442   6.689   2.101  0.6210  3.7878  1.1827
14639TIP3   OH265407   2.845   2.713   4.677  0.7119 -0.2383 -0.0891
14639TIP3    H165408   2.834   2.625   4.640 -0.5745 -0.7599  1.4200
14639TIP3    H265409   2.889   2.762   4.608 -1.7095 -1.0625 -2.4197
14640TIP3   OH265410   6.505   1.599  15.541  0.1087  0.5355 -1.0207
14640TIP3    H165411   6.425   1.597  15.489 -0.2159  0.7078 -0.5395
14640TIP3    H265412   6.487   1.663  15.610 -0.0002 -0.7096  0.1327
14641TIP3   OH265413   2.191   3.749  15.034  0.2133 -0.1191 -0.7560
14641TIP3    H165414   2.254   3.774  15.101 -0.0576  1.0327 -0.9029
14641TIP3    H265415   2.144   3.674  15.071  1.6713 -1.0244 -0.6613
14642TIP3   OH265416   2.854   6.298  14.608  0.2317  0.4192  0.8419
14642TIP3    H165417   2.856   6.248  14.689  0.0261  0.8276  1.1001
14642TIP3    H265418   2.942   6.335  14.600  0.7689 -0.9384  0.0344
14643TIP3   OH265419   4.507   6.195  13.506 -0.2927 -0.0206  0.3552
14643TIP3    H165420   4.549   6.263  13.454 -0.7574  0.0850  0.1178
14643TIP3    H265421   4.554   6.197  13.590 -1.0599  1.3988  0.7902
14644TIP3   OH265422   2.217   5.517  14.583  0.5476 -0.6551 -1.1227
14644TIP3    H165423   2.279   5.590  14.575  0.4105  0.6429  4.9093
14644TIP3    H265424   2.270   5.439  14.563  2.8492  0.6750 -0.5843
14645TIP3   OH265425   6.628   0.601   2.328 -0.4219  0.1868 -0.4076
14645TIP3    H165426   6.551   0.563   2.286  0.3712 -1.6884 -0.3079
14645TIP3    H265427   6.698   0.592   2.263  0.4737 -1.3857  0.6955
14646TIP3   OH265428   0.797   2.544  12.646 -0.2440 -0.0278  0.3340
14646TIP3    H165429   0.818   2.591  12.564 -0.4083  0.3679  0.5147
14646TIP3    H265430   0.769   2.613  12.706 -0.3806 -0.3511  0.6429
14647TIP3   OH265431   4.769   1.815   4.574  0.0916 -0.1451 -0.5136
14647TIP3    H165432   4.839   1.849   4.631 -1.6463  0.6262  1.2780
14647TIP3    H265433   4.714   1.762   4.632 -0.2842 -1.6178 -2.1090
14648TIP3   OH265434   5.881   1.907  13.666  0.0022 -0.5480 -0.8233
14648TIP3    H165435   5.949   1.963  13.704 -1.5857 -0.2416  1.8008
14648TIP3    H265436   5.921   1.872  13.586  2.3899  1.3740 -0.5893
14649TIP3   OH265437   3.595   0.038   2.045  0.4067 -0.3016 -0.0392
14649TIP3    H165438   3.639   0.115   2.009  1.3595 -1.3908 -1.2922
14649TIP3    H265439   3.599  -0.027   1.975 -0.6274 -1.4109  0.8906
14650TIP3   OH265440   2.268   6.058   3.341  0.0547  0.6565 -0.0851
14650TIP3    H165441   2.284   6.109   3.420  0.5058 -0.4287  0.5509
14650TIP3    H265442   2.353   6.019   3.320 -0.1150  0.7485 -0.9716
14651TIP3   OH265443   5.002   3.362   4.679  0.4164  0.0264 -0.1902
14651TIP3    H165444   5.082   3.381   4.631  0.9490 -1.1720  0.1892
14651TIP3    H265445   4.984   3.270   4.660 -0.2834 -0.0139  0.5913
14652TIP3   OH265446   0.747   4.220  13.914 -0.0161  0.1009 -0.3262
14652TIP3    H165447   0.740   4.154  13.846 -1.2952 -1.4353  1.2186
14652TIP3    H265448   0.657   4.249  13.929  0.2384  0.4253  0.6784
14653TIP3   OH265449   1.237   0.305  12.113 -0.4538 -0.0806  0.0679
14653TIP3    H165450   1.273   0.365  12.177  0.2168 -1.0081  0.5944
14653TIP3    H265451   1.313   0.256  12.081 -1.0883 -1.3094  0.3700
14654TIP3   OH265452   1.690   5.595  16.884  0.1729 -0.2307 -0.5151
14654TIP3    H165453   1.628   5.535  16.925  0.2893 -0.9381 -1.3627
14654TIP3    H265454   1.696   5.669  16.945 -1.2067 -0.3270 -0.2470
14655TIP3   OH265455   1.005   3.472  11.217  0.5184  0.0638  0.2363
14655TIP3    H165456   0.955   3.416  11.276  1.3093 -2.2034 -1.1310
14655TIP3    H265457   0.939   3.512  11.160 -0.0256  0.2366  0.9650
14656TIP3   OH265458   0.990   4.503   2.601 -0.1447  0.8563  0.4598
14656TIP3    H165459   1.081   4.474   2.598  0.1638  1.6922  1.3155
14656TIP3    H265460   0.995   4.598   2.609 -1.1036  0.9571 -0.0248
14657TIP3   OH265461   3.377   1.416  12.036  0.5465 -0.0577  0.2450
14657TIP3    H165462   3.452   1.430  11.978  0.6473  2.0243  0.7685
14657TIP3    H265463   3.385   1.486  12.101 -0.8454 -0.9219  1.4004
14658TIP3   OH265464   2.872   4.174  16.540 -0.2050 -0.3785 -0.1061
14658TIP3    H165465   2.964   4.189  16.561 -0.2784 -1.7037  1.3421
14658TIP3    H265466   2.869   4.172  16.445  1.5030 -1.6355 -0.1785
14659TIP3   OH265467   0.570   4.316   2.040 -0.1411  0.2534  0.2074
14659TIP3    H165468   0.603   4.395   1.998  1.3977  0.0485  0.9293
14659TIP3    H265469   0.649   4.262   2.054 -0.7212 -0.1369  2.3522
14660TIP3   OH265470   5.400   1.847   6.167 -0.2362  0.1957  0.2906
14660TIP3    H165471   5.393   1.809   6.254  1.2209 -1.3086 -0.2067
14660TIP3    H265472   5.364   1.781   6.108 -0.5866  0.9209 -0.3318
14661TIP3   OH265473   2.754   3.088   6.042 -0.2397  0.0047 -0.8150
14661TIP3    H165474   2.722   2.998   6.047  1.3552 -0.5291  0.9009
14661TIP3    H265475   2.848   3.080   6.029 -0.0337  1.4142 -0.4281
14662TIP3   OH265476   1.324   6.652  12.234  0.4782 -0.1610 -0.3427
14662TIP3    H165477   1.277   6.576  12.269  1.7672 -0.8977 -0.1164
14662TIP3    H265478   1.304   6.651  12.140 -0.1587 -0.3019 -0.2083
14663TIP3   OH265479   3.354   4.913  13.560  0.2527  0.6172 -0.2467
14663TIP3    H165480   3.344   4.847  13.492  3.4284  1.5274 -1.7513
14663TIP3    H265481   3.385   4.865  13.637 -1.5027 -0.1329  0.0487
14664TIP3   OH265482   4.048   3.958   1.671  0.3269  0.2510  0.0557
14664TIP3    H165483   4.080   3.991   1.587  0.8997  0.1691  0.2375
14664TIP3    H265484   4.029   4.037   1.721 -1.3805  0.3300 -0.6315
14665TIP3   OH265485   4.877   2.370  13.171 -0.7705  0.0737 -0.5665
14665TIP3    H165486   4.817   2.424  13.120 -1.5965 -1.4468 -1.2850
14665TIP3    H265487   4.857   2.280  13.144 -0.6800 -0.7498  1.8545
14666TIP3   OH265488   1.923   6.528   0.021 -0.4870 -0.1026  0.0543
14666TIP3    H165489   1.999   6.480   0.054  0.0854 -1.2961 -2.7201
14666TIP3    H265490   1.878   6.465  -0.036 -0.1180  2.3081 -3.1613
14667TIP3   OH265491   1.350   5.963  11.601 -0.0925 -0.5513 -0.0905
14667TIP3    H165492   1.438   6.001  11.595  0.2041 -1.4388 -1.8005
14667TIP3    H265493   1.358   5.876  11.562 -1.9239 -0.2875 -1.1787
14668TIP3   OH265494   5.669   2.260  16.974  0.3415  0.0915 -0.1464
14668TIP3    H165495   5.675   2.264  17.070 -0.3057 -0.0919 -0.0958
14668TIP3    H265496   5.635   2.346  16.949  0.3519  0.0792 -0.2016
14669TIP3   OH265497   3.064   2.262  16.745  0.1797  0.4209  0.3056
14669TIP3    H165498   3.077   2.193  16.680  1.1396  1.4844 -0.6589
14669TIP3    H265499   3.101   2.226  16.826 -1.7540 -1.2353  0.5353
14670TIP3   OH265500   5.022   0.793  16.789 -0.0072 -0.3870 -0.4171
14670TIP3    H165501   5.001   0.764  16.700  1.5995 -0.8990 -0.6595
14670TIP3    H265502   5.047   0.712  16.835 -2.0915 -0.3423  0.9257
14671TIP3   OH265503   1.894   5.678   4.529 -0.4025 -0.0484 -0.1691
14671TIP3    H165504   1.945   5.755   4.503  0.0472 -0.6363 -1.0824
14671TIP3    H265505   1.808   5.692   4.490 -1.0150  0.9759  1.4269
14672TIP3   OH265506   0.360   2.533  15.543  0.7332 -0.0860  0.1024
14672TIP3    H165507   0.353   2.540  15.638  1.8350 -0.1039  0.1902
14672TIP3    H265508   0.277   2.569  15.510  0.4114  0.0572  1.0589
14673TIP3   OH265509   3.672   3.413   1.722  0.3892  0.1246  0.1990
14673TIP3    H165510   3.685   3.372   1.636  2.4400  0.5450  0.2645
14673TIP3    H265511   3.584   3.452   1.717  0.7574  0.8173 -1.9917
14674TIP3   OH265512   4.796   1.178   2.239  0.1017  0.4524  0.5131
14674TIP3    H165513   4.813   1.091   2.277  1.1017  0.7398  0.7594
14674TIP3    H265514   4.880   1.223   2.243 -0.1806  1.1149 -0.4732
14675TIP3   OH265515   5.363   4.560  16.783  0.7893 -0.3910 -0.5254
14675TIP3    H165516   5.368   4.547  16.688 -0.1967  1.2891 -0.8664
14675TIP3    H265517   5.278   4.602  16.796  1.2539  0.1359  1.0117
14676TIP3   OH265518   5.316   3.019   3.121 -0.0351 -0.1787  0.6036
14676TIP3    H165519   5.244   3.080   3.102 -1.0619 -1.8033 -1.0870
14676TIP3    H265520   5.390   3.075   3.141 -0.9731  1.6422 -0.7209
14677TIP3   OH265521   3.783   5.292  12.115 -0.5386 -0.5346 -0.1016
14677TIP3    H165522   3.726   5.244  12.175  2.8477 -1.9812  2.2874
14677TIP3    H265523   3.869   5.291  12.157  1.1905  2.1117 -3.0717
14678TIP3   OH265524   3.571   3.688  12.371  0.2336 -0.0140  0.0184
14678TIP3    H165525   3.582   3.658  12.281  0.6021 -2.2118  0.7441
14678TIP3    H265526   3.486   3.732  12.371  0.2376  0.0535 -1.3888
14679TIP3   OH265527   2.422   3.952  13.868 -0.1000  0.7581 -0.1044
14679TIP3    H165528   2.426   4.046  13.884 -1.1270  0.6198  1.1371
14679TIP3    H265529   2.399   3.914  13.953 -0.8162 -0.5065 -0.8262
14680TIP3   OH265530   3.557   5.557  15.853  0.1025 -0.2483  0.1331
14680TIP3    H165531   3.563   5.494  15.781  0.0681 -1.2173  0.9588
14680TIP3    H265532   3.514   5.633  15.814  1.8903  0.0437 -1.3893
14681TIP3   OH265533   3.674   6.373   6.253  0.2926  0.1355 -0.1711
14681TIP3    H165534   3.743   6.393   6.317  1.0204 -1.2421 -0.4952
14681TIP3    H265535   3.619   6.309   6.297  0.6803 -0.6695 -0.8279
14682TIP3   OH265536   3.696   4.638  17.346  0.9036 -0.0673  0.1377
14682TIP3    H165537   3.737   4.725  17.340 -0.2675  0.3862 -2.4244
14682TIP3    H265538   3.668   4.632  17.437  3.5960  0.9680  1.1527
14683TIP3   OH265539   5.264   6.219  14.875 -0.1098  0.0160  0.2447
14683TIP3    H165540   5.169   6.210  14.866 -0.4946  1.9587  1.6532
14683TIP3    H265541   5.296   6.226  14.785 -1.1827 -1.3439 -0.2891
14684TIP3   OH265542   2.133   3.109   0.977 -0.7315  0.2393 -0.2436
14684TIP3    H165543   2.125   3.156   1.060 -1.4601 -3.3246  1.9403
14684TIP3    H265544   2.070   3.152   0.919  1.1604  4.0909  0.2207
14685TIP3   OH265545   4.406   4.630   3.995  0.3269 -0.1628  1.1702
14685TIP3    H165546   4.409   4.717   3.955 -0.3248 -0.2655  0.8804
14685TIP3    H265547   4.457   4.638   4.075  0.3309  0.4692  1.1084
14686TIP3   OH265548   4.985   6.240   1.350  0.0839  0.1213  0.4337
14686TIP3    H165549   5.069   6.270   1.384  0.5444  1.8692 -1.9956
14686TIP3    H265550   4.997   6.147   1.332  1.7534  0.5004 -0.5390
14687TIP3   OH265551   0.061   3.737  11.212  0.2825 -0.4246 -0.1636
14687TIP3    H165552   0.068   3.826  11.178  0.1852  0.3250  1.6825
14687TIP3    H265553   0.151   3.703  11.210  1.0106  1.1046  2.5943
14688TIP3   OH265554   2.724   6.670   2.066 -0.2421 -0.3243  0.4184
14688TIP3    H165555   2.798   6.724   2.093  1.1998 -2.3147  0.6986
14688TIP3    H265556   2.748   6.636   1.980 -0.8405 -0.9448  0.4836
14689TIP3   OH265557   4.043   3.294   1.080 -0.0097  0.2320 -0.2141
14689TIP3    H165558   4.026   3.224   1.017 -0.9015 -0.3278  0.6151
14689TIP3    H265559   4.089   3.251   1.152  0.7149  0.7993 -0.3267
14690TIP3   OH265560   3.993   3.949   2.935 -0.0904 -0.0600  0.2519
14690TIP3    H165561   3.914   3.992   2.968 -0.3027  0.1761 -0.5287
14690TIP3    H265562   4.040   3.921   3.013  0.0520  1.5908  0.7828
14691TIP3   OH265563   5.403   6.269   2.716 -0.1489 -0.0469  0.3116
14691TIP3    H165564   5.425   6.361   2.705 -0.5149  0.0672  0.5169
14691TIP3    H265565   5.478   6.222   2.681 -1.3034  0.2764 -2.9254
14692TIP3   OH265566   1.498   4.764  16.532 -0.2673 -0.0501 -0.4323
14692TIP3    H165567   1.412   4.728  16.511 -0.9560  0.4986  1.2557
14692TIP3    H265568   1.543   4.693  16.578 -0.3719  0.1398 -0.0338
14693TIP3   OH265569   4.572   2.317  11.521  0.1366 -0.2253 -0.2203
14693TIP3    H165570   4.544   2.399  11.480 -0.7247 -0.5650 -0.3299
14693TIP3    H265571   4.499   2.256  11.506 -0.2239 -0.3744  1.8007
14694TIP3   OH265572   4.978   1.228  16.537  0.2095 -0.2378 -0.4304
14694TIP3    H165573   4.933   1.254  16.457 -0.1075  0.0596 -0.1604
14694TIP3    H265574   5.014   1.309  16.572  1.5893 -0.5815 -1.0176
14695TIP3   OH265575   2.248   5.906  11.538  0.0248 -0.4426 -0.4841
14695TIP3    H165576   2.226   5.874  11.625  0.5107  0.1564 -0.1296
14695TIP3    H265577   2.165   5.935  11.501 -0.2433 -1.0632 -0.3773
14696TIP3   OH265578   0.072   4.885   0.936  0.6518  0.1295 -0.7932
14696TIP3    H165579   0.067   4.801   0.982 -1.6625  0.0491 -1.0921
14696TIP3    H265580  -0.016   4.921   0.942  1.2320  1.8765 -1.9500
14697TIP3   OH265581   6.185   1.823   2.612  0.6146 -0.6369 -0.1370
14697TIP3    H165582   6.263   1.879   2.612  1.2874 -1.5209 -1.3190
14697TIP3    H265583   6.220   1.734   2.610 -0.4412 -1.0606 -0.2064
14698TIP3   OH265584   3.760   2.984  15.917  0.3998 -0.5683  0.2367
14698TIP3    H165585   3.674   3.025  15.905  0.1563 -1.1012  0.1649
14698TIP3    H265586   3.759   2.951  16.006  0.8056  0.0646  0.4785
14699TIP3   OH265587   5.330   5.286   5.136 -0.0333  0.5327  0.0572
14699TIP3    H165588   5.407   5.321   5.182 -1.3524  0.4558  2.4705
14699TIP3    H265589   5.319   5.198   5.172 -0.1263 -0.2474 -1.7509
14700TIP3   OH265590   6.522   5.968  12.339 -0.4398 -0.2461  0.2706
14700TIP3    H165591   6.489   5.893  12.387 -1.8963  0.8370  1.0536
14700TIP3    H265592   6.466   6.041  12.367  0.0932  0.8731 -1.4164
14701TIP3   OH265593   0.517   5.354   3.927  0.1640  0.3214  0.3236
14701TIP3    H165594   0.543   5.324   3.840  0.4240  0.2787  0.4137
14701TIP3    H265595   0.598   5.352   3.978  0.0103  0.3299  0.5713
14702TIP3   OH265596   0.213   3.958  11.524 -0.2178 -0.2099 -0.0100
14702TIP3    H165597   0.180   4.027  11.466  0.0593 -1.1363 -1.3112
14702TIP3    H265598   0.261   4.005  11.592 -1.9994  1.0179  0.4816
14703TIP3   OH265599   1.692   4.481  14.062  0.0816 -0.6462 -0.0511
14703TIP3    H165600   1.663   4.501  14.152  1.8597 -0.2167  0.4619
14703TIP3    H265601   1.730   4.393  14.068  0.5767 -0.4505 -0.2883
14704TIP3   OH265602   0.197   3.999  17.073  0.1044  0.2649 -0.2498
14704TIP3    H165603   0.232   3.983  17.160  1.7681  1.1565 -0.7179
14704TIP3    H265604   0.274   4.010  17.017 -0.9217  0.1566 -1.7566
14705TIP3   OH265605   5.807   5.911  15.486  0.3079 -0.1580  0.0138
14705TIP3    H165606   5.884   5.968  15.489 -0.8860  1.6029 -0.9526
14705TIP3    H265607   5.839   5.831  15.443  1.8571  0.0385  0.7143
14706TIP3   OH265608   0.204   6.721  14.599 -0.5704 -0.1931 -0.2473
14706TIP3    H165609   0.135   6.782  14.571 -0.0914  0.8792  0.7979
14706TIP3    H265610   0.264   6.718  14.525 -1.0735 -0.1188 -0.6665
14707TIP3   OH265611   3.933   6.192   6.633 -0.1386 -0.2061  0.9389
14707TIP3    H165612   3.948   6.286   6.634 -2.1309  0.2524 -1.5963
14707TIP3    H265613   3.879   6.175   6.710 -0.3598  0.8469  1.0267
14708TIP3   OH265614   4.791   2.837  17.061  0.5442 -0.6039 -0.5419
14708TIP3    H165615   4.722   2.793  17.111 -0.5604  1.5873 -0.0216
14708TIP3    H265616   4.766   2.824  16.970  1.2948 -2.6181 -0.5143
14709TIP3   OH265617   2.015   6.348   2.253  0.2087 -0.4878  0.2037
14709TIP3    H165618   2.075   6.281   2.222 -0.8352 -1.1306 -0.4715
14709TIP3    H265619   1.934   6.301   2.272  0.3571  0.0956  2.6030
14710TIP3   OH265620   6.455   1.762  12.476  0.0383  0.0182  0.2091
14710TIP3    H165621   6.451   1.837  12.536  0.0535 -1.1953  1.8103
14710TIP3    H265622   6.364   1.740  12.459  0.0206  0.9853 -1.0843
14711TIP3   OH265623   2.872   5.958  16.470  0.0830  0.2871  0.3629
14711TIP3    H165624   2.878   6.053  16.472  0.2034  0.2650  1.5713
14711TIP3    H265625   2.830   5.939  16.386  0.4505  1.3741 -0.0880
14712TIP3   OH265626   6.545   1.614   5.175 -0.3784 -0.2331  0.2609
14712TIP3    H165627   6.564   1.644   5.086 -1.3434  2.8470  0.9739
14712TIP3    H265628   6.627   1.629   5.223 -0.1781 -0.9069  0.1364
14713TIP3   OH265629   1.600   1.969   2.520  0.5715 -0.1630 -0.1967
14713TIP3    H165630   1.663   1.959   2.448 -0.2669  1.6517 -1.2660
14713TIP3    H265631   1.518   1.936   2.484 -0.0036  1.3607 -0.3699
14714TIP3   OH265632   5.397   3.646   5.170 -0.6015 -0.7235  0.3602
14714TIP3    H165633   5.394   3.601   5.254 -1.3023 -0.1894  0.6261
14714TIP3    H265634   5.489   3.672   5.160 -0.8130  0.6699  1.7399
14715TIP3   OH265635   0.130   6.271   3.215 -0.2560 -0.1720  0.5162
14715TIP3    H165636   0.206   6.215   3.203 -1.0236 -0.9082 -1.3132
14715TIP3    H265637   0.109   6.303   3.127 -1.7181  0.4610  1.0555
14716TIP3   OH265638   5.680   4.535  17.466  0.1936 -0.3643  0.4832
14716TIP3    H165639   5.586   4.546  17.454  0.0969 -1.5374  0.1029
14716TIP3    H265640   5.719   4.593  17.400 -0.2656 -0.1526  0.3967
14717TIP3   OH265641   2.919   2.652   2.568  0.1385  0.0856  0.4777
14717TIP3    H165642   2.857   2.579   2.569  0.1239 -0.1370 -3.1683
14717TIP3    H265643   3.000   2.615   2.532  1.3554  1.1202  2.0159
14718TIP3   OH265644   1.169   5.607   3.190  0.3720  0.3838  0.2596
14718TIP3    H165645   1.233   5.555   3.239  2.2191  2.2148 -0.0669
14718TIP3    H265646   1.091   5.552   3.186  1.5038 -1.4435  1.7635
14719TIP3   OH265647   2.153   2.195   1.485 -0.5404  0.3061 -0.3163
14719TIP3    H165648   2.119   2.196   1.395 -0.8519  0.2451 -0.2034
14719TIP3    H265649   2.219   2.264   1.487  0.2588 -0.4278 -0.8837
14720TIP3   OH265650   6.765   5.250  16.542  0.0896 -0.2489  0.0033
14720TIP3    H165651   6.762   5.174  16.483 -1.1258 -1.3253  1.3620
14720TIP3    H265652   6.698   5.309  16.509  0.9962  0.2343 -1.0255
14721TIP3   OH265653   6.509   3.636   4.517  0.0149 -0.7131 -0.0312
14721TIP3    H165654   6.424   3.680   4.527  0.7911  0.5193  1.6353
14721TIP3    H265655   6.563   3.698   4.470  0.3445 -1.0153 -0.0530
14722TIP3   OH265656   1.289   1.838  15.573 -0.4827  0.1383 -0.3572
14722TIP3    H165657   1.346   1.894  15.519 -0.2970 -0.0032 -0.3107
14722TIP3    H265658   1.309   1.864  15.663 -0.7651  0.3479 -0.3531
14723TIP3   OH265659   2.593   0.092  16.324 -0.2114 -0.3218 -0.1527
14723TIP3    H165660   2.521   0.154  16.337  0.0604  0.1696 -0.8969
14723TIP3    H265661   2.567   0.014  16.372 -1.5069 -0.3537 -0.8660
14724TIP3   OH265662   6.745   2.897   1.815  0.4292 -0.6448  0.0997
14724TIP3    H165663   6.732   2.930   1.904 -0.4935  1.2365 -0.6768
14724TIP3    H265664   6.657   2.891   1.778  0.8132 -1.1938 -0.7594
14725TIP3   OH265665   0.701   5.205   0.777 -0.1559 -0.2465  0.0854
14725TIP3    H165666   0.790   5.239   0.768  1.3388 -3.4588  1.0065
14725TIP3    H265667   0.678   5.221   0.869 -1.0522  1.5065 -0.3927
14726TIP3   OH265668   2.655   1.791   0.940 -0.4527  0.1044 -0.1736
14726TIP3    H165669   2.703   1.795   1.023  0.0576 -0.8726 -0.4014
14726TIP3    H265670   2.564   1.803   0.964 -0.3380 -0.4030  0.5733
14727TIP3   OH265671   5.103   1.145  15.051  0.0712  0.2731 -0.3216
14727TIP3    H165672   5.171   1.121  15.115 -1.1160  0.0644  0.9029
14727TIP3    H265673   5.152   1.178  14.976  1.5490 -0.3234  0.3317
14728TIP3   OH265674   2.684   6.466  16.982 -0.6950  0.0883  0.3043
14728TIP3    H165675   2.684   6.540  17.043 -0.1869  0.4240 -0.0956
14728TIP3    H265676   2.759   6.413  17.010 -0.5265  0.1868  0.0408
14729TIP3   OH265677   3.693   0.666   2.676  0.0989 -0.2476  0.3416
14729TIP3    H165678   3.657   0.725   2.610  2.6286  0.1839 -0.7552
14729TIP3    H265679   3.772   0.630   2.636  0.1753 -2.2207  2.0736
14730TIP3   OH265680   5.845   4.580  13.973 -0.7315  0.3210 -0.1648
14730TIP3    H165681   5.849   4.633  14.052 -0.8652  0.7484 -0.4408
14730TIP3    H265682   5.875   4.639  13.903  1.0476 -0.5476 -0.1870
14731TIP3   OH265683   4.228   5.147  15.073  0.4490  0.1442 -0.4281
14731TIP3    H165684   4.158   5.087  15.100  1.6180  0.0348  2.9227
14731TIP3    H265685   4.207   5.229  15.117 -0.0686  1.7223 -3.3770
14732TIP3   OH265686   5.210   3.945  15.967 -0.3410 -0.2389 -0.7616
14732TIP3    H165687   5.186   3.873  16.026  0.3684 -0.4180 -0.6882
14732TIP3    H265688   5.126   3.985  15.944 -0.6606 -0.4315  0.0297
14733TIP3   OH265689   5.582   2.795  14.324 -0.1351 -0.0665  0.4576
14733TIP3    H165690   5.603   2.714  14.278  0.9894  0.1063  0.6458
14733TIP3    H265691   5.528   2.845  14.262  0.1216 -0.4708 -0.0968
14734TIP3   OH265692   1.662   6.191  12.128  0.0247  0.0138 -0.2688
14734TIP3    H165693   1.594   6.231  12.075  1.7879  1.2610 -1.6936
14734TIP3    H265694   1.744   6.217  12.086  1.4378 -0.5724  1.9519
14735TIP3   OH265695   5.453   4.608   4.937 -0.3053 -0.0486  0.5662
14735TIP3    H165696   5.491   4.626   5.023 -1.1325 -0.7783  1.1093
14735TIP3    H265697   5.376   4.664   4.932 -0.6288 -0.4889  0.5794
14736TIP3   OH265698   5.224   5.642   1.963 -0.5320 -0.2496 -0.5928
14736TIP3    H165699   5.268   5.565   1.928  2.0840  0.7196  0.2990
14736TIP3    H265700   5.252   5.646   2.055 -0.8333  1.5669 -0.5378
14737TIP3   OH265701   1.693   2.586  14.883 -0.0466 -0.2346 -0.0161
14737TIP3    H165702   1.662   2.499  14.904  0.8173 -0.6427 -0.3780
14737TIP3    H265703   1.696   2.632  14.967 -3.5784  0.5307 -0.1588
14738TIP3   OH265704   0.295   2.010   2.068  0.2914  0.1840  0.0726
14738TIP3    H165705   0.206   2.021   2.103 -0.1244 -0.6500 -0.6871
14738TIP3    H265706   0.340   1.958   2.135  0.2626  0.7176  0.5205
14739TIP3   OH265707   0.441   3.882  14.304 -0.6060  0.8417  0.1106
14739TIP3    H165708   0.496   3.879  14.226 -1.9549  2.3040 -0.9489
14739TIP3    H265709   0.378   3.810  14.292  0.3939 -0.1900  0.8417
14740TIP3   OH265710   1.263   0.255  15.150 -0.1989  0.1265  0.1862
14740TIP3    H165711   1.326   0.200  15.198 -0.7303 -0.0022  0.7536
14740TIP3    H265712   1.290   0.344  15.170  1.9131  0.1846 -2.3430
14741TIP3   OH265713   0.953   3.342   1.148 -0.5540 -0.0177 -0.0978
14741TIP3    H165714   0.990   3.279   1.087 -1.4428 -0.7414  0.0823
14741TIP3    H265715   1.004   3.422   1.135  1.1386 -1.0070  0.2419
14742TIP3   OH265716   5.913   0.126  16.990 -0.4473 -0.2526 -0.2474
14742TIP3    H165717   5.970   0.178  17.048 -3.7146  0.2207  2.8796
14742TIP3    H265718   5.897   0.045  17.038  0.4078 -2.0357 -2.7482
14743TIP3   OH265719   6.331   5.547  14.201 -0.3090  0.3768 -0.2727
14743TIP3    H165720   6.252   5.598  14.216 -0.1939  0.0584  1.7362
14743TIP3    H265721   6.315   5.501  14.118 -1.7698  1.1279 -0.4358
14744TIP3   OH265722   0.165   6.455  10.687 -0.0991  0.3360 -0.2187
14744TIP3    H165723   0.117   6.406  10.753 -0.8338  0.3691 -0.7192
14744TIP3    H265724   0.117   6.538  10.678  0.5952  0.7699 -0.0467
14745TIP3   OH265725   4.167   6.456   1.198 -0.1805  0.0868  0.0079
14745TIP3    H165726   4.177   6.404   1.278 -0.4731 -0.3025 -0.2023
14745TIP3    H265727   4.080   6.496   1.207  0.3396  1.1638  0.5171
14746TIP3   OH265728   6.057   3.617  15.313 -0.3132  0.3949 -0.2727
14746TIP3    H165729   6.107   3.581  15.387 -1.0223 -0.3491 -0.1485
14746TIP3    H265730   6.025   3.702  15.345  0.6344  0.7640 -0.2610
14747TIP3   OH265731   0.145   4.972   4.810 -0.3924  0.8090 -0.1021
14747TIP3    H165732   0.096   5.052   4.790 -1.8232  0.0375  0.1757
14747TIP3    H265733   0.203   4.960   4.735  0.7398  2.7364  0.3961
14748TIP3   OH265734   6.643   5.147  13.399 -0.0555  0.3570  0.5371
14748TIP3    H165735   6.577   5.156  13.467 -1.4263  1.0336 -0.8319
14748TIP3    H265736   6.628   5.222  13.341  1.8314  0.4556  0.1085
14749TIP3   OH265737   6.214   1.495   5.783 -0.3071  0.1990  0.1990
14749TIP3    H165738   6.286   1.554   5.803 -1.4146  2.9010 -2.7643
14749TIP3    H265739   6.256   1.416   5.747  1.2213  1.2935 -0.5262
14750TIP3   OH265740   0.103   0.970  12.257  0.3594 -0.3282 -0.0264
14750TIP3    H165741   0.088   1.020  12.337  1.9216 -1.7101  1.2235
14750TIP3    H265742   0.023   0.919  12.245 -0.1752  0.4388  0.2216
14751TIP3   OH265743   4.423   2.636   1.018 -0.1476  0.0246  0.3179
14751TIP3    H165744   4.410   2.593   0.934  0.3808  0.6375 -0.0815
14751TIP3    H265745   4.455   2.566   1.076  1.4554  0.0212 -0.5300
14752TIP3   OH265746   3.691   4.121  16.899 -0.6153  0.1445  0.3279
14752TIP3    H165747   3.727   4.178  16.968  2.2051 -2.2703  1.0426
14752TIP3    H265748   3.705   4.170  16.818  1.9977  0.4661  0.8903
14753TIP3   OH265749   0.435   3.573  16.444  0.3709  0.4272 -0.6556
14753TIP3    H165750   0.419   3.480  16.460  0.1222  0.5494 -0.1895
14753TIP3    H265751   0.486   3.602  16.519  0.8091  0.5738 -1.0052
14754TIP3   OH265752   3.118   0.990   4.255 -0.0009 -0.3017 -0.4884
14754TIP3    H165753   3.127   0.941   4.173 -0.1626 -0.3299 -0.4903
14754TIP3    H265754   3.202   1.035   4.266  0.7273 -1.7765  0.2907
14755TIP3   OH265755   6.180   5.770  11.721 -0.2206 -0.1522  0.2414
14755TIP3    H165756   6.224   5.841  11.768  1.1446 -0.2100 -0.8496
14755TIP3    H265757   6.190   5.793  11.628 -1.4968 -0.7859 -0.0755
14756TIP3   OH265758   0.829   2.007  11.815  0.5876 -0.0421 -0.3391
14756TIP3    H165759   0.858   1.916  11.802 -2.1956 -1.1572  0.4500
14756TIP3    H265760   0.821   2.042  11.726  2.6553 -0.1948 -0.6183
14757TIP3   OH265761   4.350   1.469   1.943  0.0355 -0.0027  0.6436
14757TIP3    H165762   4.274   1.415   1.965 -0.3727  0.5797  0.7130
14757TIP3    H265763   4.367   1.452   1.851 -1.2817  1.1445  0.1453
14758TIP3   OH265764   0.805   3.175   3.184 -0.3240 -0.6196  0.1123
14758TIP3    H165765   0.727   3.174   3.239  0.1248 -1.0074  0.7488
14758TIP3    H265766   0.785   3.111   3.114 -0.8795 -0.1492 -0.1706
14759TIP3   OH265767   5.913   1.226  11.544  0.3170 -0.0528 -0.1759
14759TIP3    H165768   6.006   1.204  11.549  0.3378  0.1722  0.4409
14759TIP3    H265769   5.870   1.144  11.517  0.8246  0.1649 -1.7553
14760TIP3   OH265770   1.547   4.397   0.262  0.5519  0.7198 -0.0091
14760TIP3    H165771   1.614   4.352   0.314  2.1079  0.1195 -2.3898
14760TIP3    H265772   1.512   4.329   0.205  0.6680  1.8137 -1.4414
14761TIP3   OH265773   5.763   1.365   1.243  0.0657 -0.2250 -0.3141
14761TIP3    H165774   5.714   1.296   1.287 -1.2688  0.5008 -0.6188
14761TIP3    H265775   5.705   1.397   1.174  0.6388  1.2114 -0.1756
14762TIP3   OH265776   2.924   5.506  11.817  0.2284  0.2423  0.3510
14762TIP3    H165777   2.910   5.551  11.733  0.4186  2.9788  1.6915
14762TIP3    H265778   2.845   5.525  11.867  0.3256 -0.9776  1.0114
14763TIP3   OH265779   4.998   2.997   0.859 -0.9039  0.0999  0.1781
14763TIP3    H165780   4.919   2.983   0.806 -0.5865  3.1625 -1.3573
14763TIP3    H265781   4.971   2.976   0.949 -3.5685  1.2154 -0.2671
14764TIP3   OH265782   3.342   3.568   3.741 -0.1904  0.1294 -0.1186
14764TIP3    H165783   3.305   3.653   3.763  0.2291  0.2600  0.0911
14764TIP3    H265784   3.435   3.585   3.725  0.1460 -0.4702  1.0986
14765TIP3   OH265785   0.617   4.857   1.397  0.1087  0.0030 -0.0771
14765TIP3    H165786   0.626   4.835   1.304 -0.7672 -0.8463  0.0207
14765TIP3    H265787   0.619   4.772   1.442  1.1906  0.4437  0.7509
14766TIP3   OH265788   1.063   2.284  12.380  0.2030  0.5203  0.1332
14766TIP3    H165789   0.975   2.279  12.417  0.6466  0.4312  1.1859
14766TIP3    H265790   1.118   2.317  12.451  0.9823  0.8294 -0.5919
14767TIP3   OH265791   5.772   1.684  14.360  0.1114 -0.1112  0.5073
14767TIP3    H165792   5.769   1.723  14.447  1.1180  2.1825 -0.4038
14767TIP3    H265793   5.726   1.746  14.303  0.1462 -1.1644 -0.7343
14768TIP3   OH265794   3.663   0.757  16.924  0.3167  0.1535 -0.1778
14768TIP3    H165795   3.748   0.742  16.966  0.2416 -1.3058 -0.5102
14768TIP3    H265796   3.605   0.691  16.961 -0.0989 -0.2908 -1.5687
14769TIP3   OH265797   2.606   6.046   6.324  0.4783 -0.0159 -0.2338
14769TIP3    H165798   2.584   6.024   6.415  3.0853 -1.5865  0.1309
14769TIP3    H265799   2.629   5.962   6.284  1.0504  0.8701 -1.8350
14770TIP3   OH265800   2.563   5.035   0.189 -0.8521  0.2418 -0.2338
14770TIP3    H165801   2.500   5.107   0.190  0.4123  1.4055 -1.0169
14770TIP3    H265802   2.648   5.076   0.203 -0.2514 -1.3217  1.0480
14771TIP3   OH265803   2.279   4.151  15.325  0.5995 -0.8398 -0.0867
14771TIP3    H165804   2.313   4.240  15.322  0.4625 -0.7565  0.6275
14771TIP3    H265805   2.315   4.109  15.247 -0.3689  0.1965 -1.1421
14772TIP3   OH265806   6.612   5.016  16.392  0.0118  0.1013  0.2534
14772TIP3    H165807   6.584   4.986  16.478  0.6865 -1.4529 -0.0404
14772TIP3    H265808   6.533   5.052  16.352 -0.3698  0.5751  1.3982
14773TIP3   OH265809   5.468   6.187   0.458  0.0919  0.1932  0.2187
14773TIP3    H165810   5.440   6.203   0.368 -1.3673 -1.7999  0.2721
14773TIP3    H265811   5.563   6.174   0.451 -0.0978 -0.6866 -1.1667
14774TIP3   OH265812   2.630   3.244  11.834 -0.3414 -0.2601  0.0246
14774TIP3    H165813   2.616   3.154  11.806 -0.8175  0.2288 -1.3773
14774TIP3    H265814   2.725   3.253  11.842 -0.3339 -1.2360  1.4824
14775TIP3   OH265815   4.796   6.566   2.540  0.2082  0.0088  0.1055
14775TIP3    H165816   4.734   6.626   2.583  2.4804  2.9272 -0.3262
14775TIP3    H265817   4.849   6.532   2.612 -1.1526 -1.7130  0.3638
14776TIP3   OH265818   2.132   1.701  16.792 -0.4228  0.1626 -0.0494
14776TIP3    H165819   2.136   1.784  16.839 -1.4906  0.1476  0.0741
14776TIP3    H265820   2.108   1.724  16.702  0.2260  0.0664 -0.2535
14777TIP3   OH265821   4.788   1.285  16.327  0.3391 -0.3453 -0.8255
14777TIP3    H165822   4.820   1.248  16.245  0.1484 -0.4410 -0.8559
14777TIP3    H265823   4.693   1.292  16.315  0.5222  1.8875 -1.5482
14778TIP3   OH265824   6.080   4.247   0.122 -0.7401  0.4898  0.4954
14778TIP3    H165825   6.000   4.261   0.071 -1.7855 -1.1383  1.5674
14778TIP3    H265826   6.072   4.308   0.196 -2.0854 -1.0577  1.7104
14779TIP3   OH265827   5.039   3.246  15.450 -0.3613  0.0313 -0.7005
14779TIP3    H165828   5.018   3.207  15.365 -0.7383  1.3907 -1.2593
14779TIP3    H265829   5.083   3.328  15.429  1.3036 -0.4960  0.4515
14780TIP3   OH265830   3.679   5.298   2.847 -0.1419  0.3248 -0.0036
14780TIP3    H165831   3.717   5.266   2.929 -2.0385  1.3167  1.3476
14780TIP3    H265832   3.636   5.222   2.809  1.2116 -0.2705 -0.3902
14781TIP3   OH265833   6.702   3.130  12.092  0.3297  0.0673 -0.4642
14781TIP3    H165834   6.782   3.078  12.082  0.0911 -0.5167  0.4801
14781TIP3    H265835   6.638   3.086  12.036  0.4845  0.1156 -0.6784
14782TIP3   OH265836   0.120   2.455  14.949 -0.5596 -0.2429  0.7848
14782TIP3    H165837   0.095   2.538  14.908 -2.4555 -0.5598  1.1951
14782TIP3    H265838   0.134   2.395  14.876  2.8200  0.8315  0.3546
14783TIP3   OH265839   1.790   6.369   0.613  0.3626  0.2020 -0.1334
14783TIP3    H165840   1.826   6.282   0.601 -2.5595 -1.1329 -0.1554
14783TIP3    H265841   1.796   6.410   0.526  0.2318 -0.6455 -0.5489
14784TIP3   OH265842   2.840   2.164   3.787 -0.0538 -0.9703 -0.3069
14784TIP3    H165843   2.883   2.249   3.781 -2.3026  0.1826 -0.8777
14784TIP3    H265844   2.752   2.183   3.818 -1.2568 -2.8729 -2.2826
14785TIP3   OH265845   3.375   1.759  14.070 -0.1776 -0.4508  0.0184
14785TIP3    H165846   3.287   1.723  14.072 -0.1389 -0.5726 -0.3308
14785TIP3    H265847   3.433   1.683  14.066 -0.1142 -0.3713 -1.2623
14786TIP3   OH265848   6.133   0.852  11.407 -0.2301  0.4318  0.0826
14786TIP3    H165849   6.108   0.761  11.423  0.4380  0.4533  1.3486
14786TIP3    H265850   6.051   0.896  11.384 -0.6303 -0.3917 -0.0839
14787TIP3   OH265851   0.680   4.230  17.140 -0.3341  0.5724  0.0408
14787TIP3    H165852   0.720   4.144  17.128  1.9686  1.8143 -1.9336
14787TIP3    H265853   0.668   4.264  17.052 -2.3136  1.8646  0.7283
14788TIP3   OH265854   3.244   4.775  12.927 -0.0271  0.4380 -0.5581
14788TIP3    H165855   3.238   4.739  13.016  0.1008  1.5422 -0.0864
14788TIP3    H265856   3.154   4.799  12.905  0.3342  3.3932  0.6979
14789TIP3   OH265857   3.458   0.370   2.519 -0.2648 -0.3708  0.2854
14789TIP3    H165858   3.392   0.401   2.456  0.0536  0.0292  0.1435
14789TIP3    H265859   3.433   0.280   2.537  0.0015 -0.6926 -0.8902
14790TIP3   OH265860   2.159   5.602   2.056  0.4336 -0.9063  0.2297
14790TIP3    H165861   2.074   5.636   2.084  0.8869  0.2666  0.2152
14790TIP3    H265862   2.146   5.507   2.050 -0.4141 -0.9154  1.8265
14791TIP3   OH265863   3.247   4.667   4.707  0.1833 -0.6819 -0.2204
14791TIP3    H165864   3.221   4.748   4.750 -3.5020 -0.6211 -2.1229
14791TIP3    H265865   3.226   4.599   4.771 -2.4867 -0.4015 -0.6577
14792TIP3   OH265866   4.701   4.425   4.504 -0.5418  0.1349 -0.0787
14792TIP3    H165867   4.761   4.497   4.485  0.2473 -0.0560  1.5400
14792TIP3    H265868   4.758   4.349   4.516 -1.3855 -0.9502 -2.2631
14793TIP3   OH265869   2.889   4.793   0.702  0.1685  0.2192  1.2551
14793TIP3    H165870   2.805   4.763   0.737  0.1100  0.5228  1.3813
14793TIP3    H265871   2.881   4.785   0.607  0.1555 -0.1664  1.2890
14794TIP3   OH265872   5.033   2.393   6.606 -0.4681  0.2584 -0.0749
14794TIP3    H165873   4.983   2.317   6.576 -1.4548 -0.6871  3.5211
14794TIP3    H265874   4.966   2.458   6.628  0.1491  0.6431  0.6955
14795TIP3   OH265875   2.171   5.011   0.216 -0.0975  0.4150 -0.1574
14795TIP3    H165876   2.123   5.027   0.297 -0.5696 -0.9780 -0.1300
14795TIP3    H265877   2.115   5.047   0.147  0.4709  1.9213  0.1385
14796TIP3   OH265878   3.459   5.095   0.629 -0.9442  0.2470 -0.2538
14796TIP3    H165879   3.533   5.097   0.569 -0.7043  0.6843  0.0498
14796TIP3    H265880   3.383   5.116   0.576 -1.3086 -2.8348 -1.1783
14797TIP3   OH265881   2.948   5.186  17.454  0.4432  0.3487 -0.0452
14797TIP3    H165882   2.858   5.164  17.429  0.2283 -0.8607  1.6880
14797TIP3    H265883   2.938   5.243  17.530  1.1414  0.9429 -0.3946
14798TIP3   OH265884   2.286   1.313   5.421 -0.4076  0.3068 -0.0170
14798TIP3    H165885   2.232   1.240   5.389  0.1497  0.4085 -1.2289
14798TIP3    H265886   2.314   1.359   5.342  1.6877  0.0953  0.5488
14799TIP3   OH265887   1.416   5.943   1.438  0.3171  0.1595 -0.2561
14799TIP3    H165888   1.387   6.024   1.397 -1.5498 -0.2255  0.2214
14799TIP3    H265889   1.380   5.873   1.383  3.1936 -0.4369 -1.5528
14800TIP3   OH265890   4.314   5.546   5.437 -0.1032 -0.5141 -0.1290
14800TIP3    H165891   4.355   5.590   5.511 -0.7348  0.8402 -0.5611
14800TIP3    H265892   4.383   5.540   5.371  0.0193 -0.3000 -0.0190
14801TIP3   OH265893   3.696   2.556  12.048  0.7460 -0.5984 -0.2906
14801TIP3    H165894   3.738   2.600  11.974  1.1871 -1.1224 -0.3623
14801TIP3    H265895   3.757   2.571  12.121  1.6722 -2.3218 -0.6490
14802TIP3   OH265896   1.136   4.623   3.232 -0.0641 -0.6145  0.9723
14802TIP3    H165897   1.201   4.605   3.164 -0.1501  1.3286  0.2960
14802TIP3    H265898   1.153   4.558   3.299 -0.2586 -2.9116 -1.0715
14803TIP3   OH265899   6.565   3.360  12.549 -0.4902 -0.5854 -0.6006
14803TIP3    H165900   6.636   3.424  12.545 -0.3397 -0.6121  0.9085
14803TIP3    H265901   6.578   3.305  12.472  0.9962 -0.4393 -0.4871
14804TIP3   OH265902   2.151   3.645  15.782  0.1875  0.1857 -0.1945
14804TIP3    H165903   2.188   3.679  15.700  1.6603  0.7550  0.6763
14804TIP3    H265904   2.208   3.572  15.806  0.0069  0.2891  0.5583
14805TIP3   OH265905   6.319   4.357  12.661 -0.6499  0.3149 -0.0917
14805TIP3    H165906   6.306   4.338  12.568  0.3474 -0.7958 -0.0270
14805TIP3    H265907   6.378   4.433  12.662 -0.3466  0.0885 -0.3714
14806TIP3   OH265908   2.965   0.111  11.283  0.1779 -0.2731 -0.0122
14806TIP3    H165909   2.894   0.120  11.346  0.3811  0.6211  0.1047
14806TIP3    H265910   2.980   0.200  11.250  2.7575  0.0348  1.6482
14807TIP3   OH265911   1.360   3.011   4.603  0.2377 -0.1721 -0.1433
14807TIP3    H165912   1.391   3.017   4.693  0.8383 -0.8495 -0.2916
14807TIP3    H265913   1.435   2.975   4.555 -0.2535 -0.3092 -0.8142
14808TIP3   OH265914   2.961   6.694   6.416  0.2556  0.1527  0.2105
14808TIP3    H165915   3.046   6.689   6.460 -0.2092 -0.2299  1.0878
14808TIP3    H265916   2.958   6.782   6.379  1.5234 -0.2273 -0.8622
14809TIP3   OH265917   4.103   6.216  14.383  0.0647 -0.1780  0.0144
14809TIP3    H165918   4.190   6.245  14.358  0.0039 -2.0070 -2.6872
14809TIP3    H265919   4.118   6.148  14.449  0.6145  0.1093  0.1930
14810TIP3   OH265920   4.074   2.398   0.749  0.3695  0.2322 -0.1505
14810TIP3    H165921   4.046   2.376   0.838  0.1968  1.0660  0.0075
14810TIP3    H265922   4.129   2.324   0.723 -0.0328 -0.2859  0.4342
14811TIP3   OH265923   4.898   3.422  15.747  0.2159 -0.1720  0.3989
14811TIP3    H165924   4.842   3.345  15.761 -1.0454  0.9545  1.9382
14811TIP3    H265925   4.978   3.404  15.796  0.4406 -0.9884 -0.2436
14812TIP3   OH265926   3.747   5.598   0.528  0.6775 -0.1052  0.1891
14812TIP3    H165927   3.780   5.579   0.440  1.6675  0.9854  0.3047
14812TIP3    H265928   3.772   5.521   0.580 -0.2957 -0.9593 -0.5482
14813TIP3   OH265929   0.182   3.171  15.701 -0.0844 -0.1102  0.2976
14813TIP3    H165930   0.271   3.201  15.683 -0.6762  0.8832 -1.1257
14813TIP3    H265931   0.170   3.096  15.643 -1.7971  2.7553 -3.5210
14814TIP3   OH265932   4.614   0.368   1.970  0.2428 -0.7882 -0.2053
14814TIP3    H165933   4.682   0.381   2.036  1.3575 -3.8246 -0.5971
14814TIP3    H265934   4.619   0.275   1.948 -3.8362 -1.1212 -0.5512
14815TIP3   OH265935   4.073   1.375   5.852  0.2233  0.0854  0.0502
14815TIP3    H165936   4.098   1.467   5.859  1.5415 -0.2727  0.2637
14815TIP3    H265937   4.070   1.344   5.943 -1.5629  0.2365  0.0789
14816TIP3   OH265938   4.047   1.696   4.436 -0.6497  0.0309 -0.1739
14816TIP3    H165939   4.046   1.769   4.374  0.6186  0.0850 -0.1491
14816TIP3    H265940   4.101   1.629   4.393  0.0320 -0.0282  0.7604
14817TIP3   OH265941   4.136   2.636  13.800 -0.0744  0.3149  0.5004
14817TIP3    H165942   4.208   2.619  13.738  1.4766  1.7660  1.7893
14817TIP3    H265943   4.089   2.553  13.804 -0.0818  0.0603 -2.3536
14818TIP3   OH265944   4.931   1.714  11.021 -0.1258  0.2412 -0.3935
14818TIP3    H165945   4.880   1.793  11.002 -0.1235  0.1778 -0.6633
14818TIP3    H265946   5.022   1.740  11.007 -0.0644  0.4186  0.3096
14819TIP3   OH265947   6.664   3.950   4.663 -0.5330  0.4382 -0.5097
14819TIP3    H165948   6.707   4.024   4.707  0.8522  0.7645 -2.2793
14819TIP3    H265949   6.600   3.918   4.726  1.3483  0.8422  1.7250
14820TIP3   OH265950   4.513   4.567  11.606  0.4369 -0.4091 -0.2945
14820TIP3    H165951   4.449   4.496  11.616 -0.5201  0.5027  0.2451
14820TIP3    H265952   4.496   4.602  11.519  0.6721 -0.6067 -0.4208
14821TIP3   OH265953   0.199   0.187  16.037  0.0170  0.4502 -0.3151
14821TIP3    H165954   0.180   0.197  15.944 -1.4947 -0.3499 -0.1311
14821TIP3    H265955   0.214   0.276  16.068 -0.8450  0.8822 -1.0688
14822TIP3   OH265956   2.104   2.159   0.353  0.0296 -0.0522  0.5970
14822TIP3    H165957   2.030   2.218   0.373  0.4273  0.0249  1.9921
14822TIP3    H265958   2.179   2.218   0.343 -0.0491 -0.1429 -0.6760
14823TIP3   OH265959   4.869   0.650  15.031 -0.0094  0.7504 -0.9678
14823TIP3    H165960   4.930   0.625  14.962 -0.0551 -0.1364 -0.6926
14823TIP3    H265961   4.884   0.744  15.044  0.0259  0.9221 -2.1547
14824TIP3   OH265962   2.170   0.245   0.420 -0.4354 -0.2953 -0.2224
14824TIP3    H165963   2.085   0.208   0.393  0.0639 -1.3576 -0.3925
14824TIP3    H265964   2.235   0.187   0.380  0.3671 -0.0066  0.6321
14825TIP3   OH265965   2.449   4.722  11.744  0.1294 -0.3804 -0.0379
14825TIP3    H165966   2.532   4.716  11.697  0.8204  2.3327  0.6647
14825TIP3    H265967   2.407   4.800  11.708 -0.4872  0.2982  2.0375
14826TIP3   OH265968   0.933   5.327   1.190  0.0071  0.5663 -0.1027
14826TIP3    H165969   0.964   5.402   1.242 -0.7217  1.9461 -1.5639
14826TIP3    H265970   1.013   5.283   1.161  0.4401  0.4717  1.1554
14827TIP3   OH265971   5.871   4.601   1.611 -0.3804  0.3803  0.0627
14827TIP3    H165972   5.808   4.629   1.677 -1.6072 -2.0997  0.0676
14827TIP3    H265973   5.890   4.509   1.633  1.2759  0.3001 -1.4426
14828TIP3   OH265974   4.615   2.066   2.449 -0.0076 -0.0002 -0.2629
14828TIP3    H165975   4.544   2.116   2.408 -0.0764  0.7409  0.7295
14828TIP3    H265976   4.650   2.011   2.378 -0.7314  0.5598 -1.0724
14829TIP3   OH265977   0.010   0.097   0.354  0.4645 -0.1177  0.5392
14829TIP3    H165978  -0.001   0.159   0.282  0.5557  0.0225  0.6446
14829TIP3    H265979  -0.050   0.025   0.333  0.4180 -0.0322  0.3745
14830TIP3   OH265980   3.001   5.314  13.341  0.0838  0.0729  0.4777
14830TIP3    H165981   3.063   5.386  13.353  1.4117 -0.6239 -1.6420
14830TIP3    H265982   2.930   5.333  13.402  0.8039  2.7030  0.6208
14831TIP3   OH265983   6.359   0.292   5.131 -0.2258  0.5510 -0.0843
14831TIP3    H165984   6.270   0.315   5.159  0.5878  2.4176  1.1512
14831TIP3    H265985   6.409   0.373   5.141  1.6240 -0.4469 -0.7904
14832TIP3   OH265986   4.345   2.513  14.212 -0.1934 -0.5017  0.3289
14832TIP3    H165987   4.432   2.549  14.232 -0.4670 -1.3579  3.6001
14832TIP3    H265988   4.297   2.587  14.175  1.1949  0.6899  0.8064
14833TIP3   OH265989   5.134   3.503   2.871  0.5214 -0.6045  0.1763
14833TIP3    H165990   5.162   3.432   2.929  1.4781  0.7131  1.4156
14833TIP3    H265991   5.213   3.524   2.820  1.5676  2.1169  2.6109
14834TIP3   OH265992   3.464   5.469  15.626 -0.1449 -0.4473  0.2733
14834TIP3    H165993   3.424   5.555  15.613  0.7849  0.6442  3.6445
14834TIP3    H265994   3.515   5.455  15.546  0.1976  2.4670 -0.1573
14835TIP3   OH265995   6.173   1.027  17.113  0.8077  0.3666  0.3933
14835TIP3    H165996   6.130   1.090  17.055 -0.7387 -0.1101  0.9733
14835TIP3    H265997   6.125   0.946  17.100 -0.2049  0.4718  2.9825
14836TIP3   OH265998   2.843   1.122  14.571  0.1985 -0.1997 -0.3359
14836TIP3    H165999   2.923   1.075  14.545 -0.4430 -1.7977  0.4004
14836TIP3    H266000   2.772   1.074  14.528 -0.6411 -1.2095  2.0105
14837TIP3   OH266001   0.178   5.125   1.263 -0.4655 -0.6485 -0.0928
14837TIP3    H166002   0.266   5.097   1.240 -0.6130 -1.1874 -0.0166
14837TIP3    H266003   0.121   5.063   1.218 -0.7807 -0.9525  0.7097
14838TIP3   OH266004   1.467   4.385  14.597  0.0330  0.1542 -0.0522
14838TIP3    H166005   1.504   4.343  14.520  0.6391  1.0492 -0.2568
14838TIP3    H266006   1.400   4.323  14.628  1.0925 -1.0991 -0.1686
14839TIP3   OH266007   4.878   0.370   0.775 -0.0738  0.3432 -0.2386
14839TIP3    H166008   4.927   0.419   0.841 -0.6350  2.1373 -1.0725
14839TIP3    H266009   4.921   0.392   0.692  0.4624 -1.6643 -0.5323
14840TIP3   OH266010   2.436   4.276  12.080 -0.2457 -0.4326  0.4099
14840TIP3    H166011   2.384   4.215  12.133 -0.4943 -0.2331  0.3999
14840TIP3    H266012   2.526   4.258  12.104 -0.3233 -0.7389  0.4793
14841TIP3   OH266013   4.012   1.852  15.744  0.5846  0.1643 -0.0113
14841TIP3    H166014   4.062   1.917  15.695  1.1350 -0.6988 -0.6300
14841TIP3    H266015   4.033   1.769  15.702 -1.4934 -0.2254 -0.3618
14842TIP3   OH266016   1.906   6.300  17.386 -0.2627 -0.0949  0.4514
14842TIP3    H166017   1.969   6.259  17.326 -0.6933  0.7290 -0.5904
14842TIP3    H266018   1.821   6.268  17.356 -0.6020  1.4305 -0.3203
14843TIP3   OH266019   1.680   6.739   6.439  0.4257 -0.7911  0.0960
14843TIP3    H166020   1.724   6.767   6.359 -0.7803 -1.1597 -0.7128
14843TIP3    H266021   1.590   6.769   6.429  0.6086  0.6696  2.0803
14844TIP3   OH266022   1.744   2.673   1.561  0.5555  0.5041 -0.3928
14844TIP3    H166023   1.659   2.638   1.585  0.0024  0.9928 -1.5457
14844TIP3    H266024   1.734   2.768   1.569  0.2670  0.7174 -2.6095
14845TIP3   OH266025   4.379   3.366  15.319  0.6660 -0.5080  0.1467
14845TIP3    H166026   4.459   3.327  15.284  0.7448  1.0629 -1.5635
14845TIP3    H266027   4.402   3.395  15.407  1.3632 -1.8433  0.4349
14846TIP3   OH266028   1.465   3.542  13.534  0.2194 -0.0613  0.2712
14846TIP3    H166029   1.377   3.534  13.497  0.2139 -0.6847  0.4096
14846TIP3    H266030   1.486   3.635  13.527 -0.5066  0.1126  0.3568
14847TIP3   OH266031   6.308   6.568  15.481 -0.1295 -0.0270  0.8284
14847TIP3    H166032   6.254   6.492  15.463 -0.3004  0.5939 -1.6585
14847TIP3    H266033   6.391   6.549  15.438 -0.8788  1.9768 -1.7517
14848TIP3   OH266034   4.829   3.264   4.022  0.3661 -0.1249  0.6733
14848TIP3    H166035   4.811   3.178   4.061 -1.2707  0.5546  1.5145
14848TIP3    H266036   4.839   3.322   4.097 -0.2925  0.7432  0.1043
14849TIP3   OH266037   0.274   1.378   4.405 -0.1052  0.6083  0.2817
14849TIP3    H166038   0.254   1.285   4.399 -3.7473  1.2663 -0.1631
14849TIP3    H266039   0.267   1.410   4.314  2.8956  1.1230  0.1217
14850TIP3   OH266040   1.201   0.121   1.246  0.0747  0.0179 -0.5177
14850TIP3    H166041   1.127   0.170   1.208 -1.2912 -2.3648 -1.1505
14850TIP3    H266042   1.235   0.069   1.174 -1.6917 -3.5947  1.0120
14851TIP3   OH266043   6.731   5.983   5.674  0.0305 -1.2085  0.6304
14851TIP3    H166044   6.787   5.924   5.725 -0.9758 -1.5286  1.4169
14851TIP3    H266045   6.656   5.928   5.648 -0.4394 -0.5305  0.5273
14852TIP3   OH266046   2.145   3.093  14.004 -0.0409 -0.1218 -0.0380
14852TIP3    H166047   2.127   3.106  13.911 -0.1619  0.9001  0.1162
14852TIP3    H266048   2.238   3.072  14.008  0.2235  0.9367 -0.3095
14853TIP3   OH266049   2.300   3.047  17.174  0.3591  0.4934  0.7285
14853TIP3    H166050   2.278   2.978  17.236  1.0276  2.0708  2.8442
14853TIP3    H266051   2.216   3.072  17.135  0.0559 -1.1791  0.2611
14854TIP3   OH266052   6.767   6.096  12.371  0.3843 -0.1206  0.4525
14854TIP3    H166053   6.706   6.031  12.406  0.7727 -0.7150  0.0710
14854TIP3    H266054   6.832   6.108  12.440 -1.6797  2.6954  2.0474
14855TIP3   OH266055   6.390   6.160  15.145 -0.4795  0.1795  0.5168
14855TIP3    H166056   6.434   6.169  15.060 -1.7866  0.3974 -0.1509
14855TIP3    H266057   6.461   6.137  15.205  0.6829  1.1900 -0.3915
14856TIP3   OH266058   3.179   3.773  13.092  0.2538 -0.0900  0.1653
14856TIP3    H166059   3.085   3.789  13.087  0.2073  0.3778  1.7830
14856TIP3    H266060   3.190   3.719  13.171  1.4355  0.8454  0.6718
14857TIP3   OH266061   0.586   3.175  11.470  0.1430  0.0696 -0.4123
14857TIP3    H166062   0.604   3.246  11.533  1.4382 -0.6542  0.0886
14857TIP3    H266063   0.669   3.164  11.422  0.1050 -1.3396 -0.2098
14858TIP3   OH266064   3.938   5.237   5.743 -0.5371 -0.3598  0.3047
14858TIP3    H166065   4.015   5.222   5.798 -0.2030 -1.6961 -0.4855
14858TIP3    H266066   3.938   5.164   5.681 -1.5764  0.4520 -0.7041
14859TIP3   OH266067   1.556   1.680   4.893  0.4480  0.3901  0.1133
14859TIP3    H166068   1.551   1.596   4.848  0.7024  1.1777 -1.4630
14859TIP3    H266069   1.514   1.665   4.978 -1.1789 -0.8468 -0.8671
14860TIP3   OH266070   3.179   0.893   4.014 -0.5530 -0.2254 -0.3416
14860TIP3    H166071   3.115   0.887   3.943  1.2862  0.8690 -2.1657
14860TIP3    H266072   3.264   0.887   3.971  0.6356  0.5804  1.7633
14861TIP3   OH266073   3.824   1.607  10.938  0.4320 -0.6185  0.0591
14861TIP3    H166074   3.892   1.566  10.991  0.4973  0.1526  0.5917
14861TIP3    H266075   3.797   1.684  10.989 -0.7664 -0.8557 -0.1918
14862TIP3   OH266076   4.221   3.383   1.743  0.2374 -0.4746 -0.5630
14862TIP3    H166077   4.195   3.469   1.709  1.5481  1.7190  3.3874
14862TIP3    H266078   4.145   3.354   1.793  1.2725  0.7431  1.9102
14863TIP3   OH266079   5.653   6.401   5.004  0.2703 -0.0964  0.5467
14863TIP3    H166080   5.575   6.377   4.954  0.1884 -1.9662  1.4988
14863TIP3    H266081   5.726   6.371   4.950  0.2220 -0.9701  0.9558
14864TIP3   OH266082   5.773   4.535   2.935 -0.0006 -0.2823 -0.1589
14864TIP3    H166083   5.682   4.521   2.964  0.3321 -1.5663  0.3332
14864TIP3    H266084   5.802   4.612   2.985 -1.2878  1.1146 -1.4781
14865TIP3   OH266085   0.282   1.489   4.811  0.7007 -0.2375 -0.1152
14865TIP3    H166086   0.194   1.517   4.836  0.8219 -0.8882  1.1177
14865TIP3    H266087   0.315   1.560   4.756 -0.3717  0.2782 -0.1221
14866TIP3   OH266088   3.873   4.208   2.344  0.0668  0.8133 -0.3169
14866TIP3    H166089   3.966   4.219   2.362  0.2760  0.6362 -1.2669
14866TIP3    H266090   3.863   4.229   2.251 -0.4787 -1.2204 -0.7609
14867TIP3   OH266091   5.440   3.444  15.943  0.2848  0.0227 -0.2455
14867TIP3    H166092   5.465   3.471  16.031 -1.3707  0.3220  0.1815
14867TIP3    H266093   5.444   3.348  15.945 -0.7116 -0.0265  0.5039
14868TIP3   OH266094   5.803   3.490  12.708 -0.2296  0.0473 -0.2709
14868TIP3    H166095   5.836   3.427  12.772 -0.5787 -2.7267 -2.6539
14868TIP3    H266096   5.875   3.552  12.696  0.5143 -0.4370  1.3620
14869TIP3   OH266097   2.443   3.955  12.860  0.0471  0.2162 -0.0668
14869TIP3    H166098   2.469   3.904  12.783  2.1651 -0.1317  0.8038
14869TIP3    H266099   2.362   3.913  12.889 -0.3121 -0.2089 -1.5590
14870TIP3   OH266100   5.086   0.733   0.117 -0.0683  0.2784  0.0057
14870TIP3    H166101   5.008   0.679   0.133  0.0524 -0.1491 -0.8128
14870TIP3    H266102   5.061   0.790   0.044  0.5662 -0.2310 -0.6123
14871TIP3   OH266103   3.226   4.213   1.151 -0.5923 -0.7762  0.3682
14871TIP3    H166104   3.190   4.296   1.121 -0.3721 -1.0476 -0.7047
14871TIP3    H266105   3.226   4.219   1.247 -1.9232 -0.1199  0.3493
14872TIP3   OH266106   6.339   2.739  15.903 -0.0287 -0.0811  0.0332
14872TIP3    H166107   6.424   2.782  15.896  0.8091 -1.6218  0.3272
14872TIP3    H266108   6.276   2.811  15.901  1.3260  1.1971  1.0781
14873TIP3   OH266109   1.456   5.036   5.673  0.3801 -0.0104 -0.7069
14873TIP3    H166110   1.405   5.022   5.753  0.7523 -1.8616 -0.7586
14873TIP3    H266111   1.452   4.952   5.627  1.4536  0.5645 -1.8993
14874TIP3   OH266112   5.985   4.654   3.994  0.0889  0.4925 -0.3799
14874TIP3    H166113   5.893   4.652   4.020  0.6801 -1.1982  1.9076
14874TIP3    H266114   5.994   4.736   3.945 -2.1877  1.6946  1.0242
14875TIP3   OH266115   6.226   0.356  16.926 -0.0071 -0.0280 -0.0829
14875TIP3    H166116   6.179   0.351  17.009  0.7269  2.4394  0.5500
14875TIP3    H266117   6.194   0.435  16.884  1.4557  0.1414 -0.9626
14876TIP3   OH266118   5.866   1.954  16.538 -0.0838  0.0439 -0.5627
14876TIP3    H166119   5.780   1.913  16.530  0.3540 -0.6723 -1.8668
14876TIP3    H266120   5.850   2.033  16.589 -2.2069  1.9668 -3.8323
14877TIP3   OH266121   4.341   3.658  13.336 -0.1345  0.4932  0.3328
14877TIP3    H166122   4.338   3.673  13.431 -0.2803 -1.7254  0.7417
14877TIP3    H266123   4.432   3.639  13.317 -0.5972 -2.6968  0.7654
14878TIP3   OH266124   3.264   1.556   2.008 -0.4076 -0.3722 -0.5007
14878TIP3    H166125   3.353   1.589   1.999  0.3479 -1.1923  2.5411
14878TIP3    H266126   3.272   1.461   1.998 -0.7210 -0.5417  0.6001
14879TIP3   OH266127   1.579   3.649   4.386 -0.2613 -0.3760 -0.1825
14879TIP3    H166128   1.641   3.580   4.362  0.0427  0.4589 -1.9823
14879TIP3    H266129   1.498   3.602   4.404  0.2929 -1.3081 -0.0223
14880TIP3   OH266130   4.372   4.603  14.329  0.6630  0.3619  0.5950
14880TIP3    H166131   4.378   4.529  14.390  2.5187  0.4957  0.6387
14880TIP3    H266132   4.377   4.681  14.385 -0.6721  0.5337  0.4975
14881TIP3   OH266133   5.040   1.549   3.076 -0.2280 -0.0671 -0.3222
14881TIP3    H166134   5.081   1.630   3.105  0.3206 -0.1215 -0.9261
14881TIP3    H266135   4.964   1.577   3.025 -0.9543  0.0334  0.7822
14882TIP3   OH266136   4.579   4.914  15.452  0.1089  0.0031 -0.6015
14882TIP3    H166137   4.488   4.891  15.474  0.1960 -1.6093 -1.7780
14882TIP3    H266138   4.598   4.989  15.508 -0.3036 -2.5731  3.3563
14883TIP3   OH266139   4.522   2.088   5.943 -0.0800 -0.4622 -0.1990
14883TIP3    H166140   4.443   2.076   5.995 -1.0878  3.7747 -0.4422
14883TIP3    H266141   4.591   2.045   5.994 -2.3217 -3.9642  0.1865
14884TIP3   OH266142   2.916   3.788  12.152  0.1929 -0.3409  0.5597
14884TIP3    H166143   2.837   3.826  12.115  0.3482 -1.6769 -1.2706
14884TIP3    H266144   2.889   3.758  12.239 -0.3230  2.3973  1.4358
14885TIP3   OH266145   2.420   3.921   0.833 -0.3889  0.2111 -0.5952
14885TIP3    H166146   2.411   4.016   0.832 -0.2239  0.2274 -0.5227
14885TIP3    H266147   2.481   3.903   0.905 -1.1603 -0.0045  0.0362
14886TIP3   OH266148   3.539   1.038   1.149  0.3148 -0.1157  0.0488
14886TIP3    H166149   3.556   1.099   1.078  2.4829  0.6388  1.1191
14886TIP3    H266150   3.535   0.952   1.107  0.6521  0.4053 -1.0770
14887TIP3   OH266151   3.680   2.958   0.403 -0.0398 -0.2082 -0.2022
14887TIP3    H166152   3.756   2.902   0.419  1.0713  1.3359  0.1821
14887TIP3    H266153   3.605   2.906   0.431  0.8394 -1.8649 -0.8124
14888TIP3   OH266154   5.413   2.300  13.996 -0.0498 -0.5301 -0.2236
14888TIP3    H166155   5.344   2.349  14.041 -0.0199 -0.9219  0.2576
14888TIP3    H266156   5.469   2.267  14.066  1.5658  1.1357 -0.6649
14889TIP3   OH266157   0.082   5.587  14.880 -0.4586  0.1553 -0.0548
14889TIP3    H166158   0.121   5.673  14.866 -0.4671  0.2870  0.6985
14889TIP3    H266159   0.133   5.549  14.951 -0.8614 -0.2143  0.0401
14890TIP3   OH266160   1.030   6.540   2.907 -0.3293  0.4728  0.1745
14890TIP3    H166161   0.958   6.493   2.948  0.0314 -1.8732 -1.6440
14890TIP3    H266162   1.031   6.508   2.817  2.0132  1.6286 -0.2897
14891TIP3   OH266163   2.502   1.212   0.760  0.2736 -0.4477 -0.2595
14891TIP3    H166164   2.532   1.131   0.718 -1.3293 -2.6386  2.4466
14891TIP3    H266165   2.529   1.203   0.851 -0.3613  1.9120  0.2274
14892TIP3   OH266166   3.504   0.597  15.553 -0.1533 -0.1011 -0.4707
14892TIP3    H166167   3.519   0.520  15.608 -1.5298 -0.2919 -0.3290
14892TIP3    H266168   3.452   0.656  15.608 -2.0221 -0.5163 -1.7128
14893TIP3   OH266169   2.013   4.867   0.803 -0.0532 -0.2301  0.2526
14893TIP3    H166170   2.052   4.947   0.767 -1.2177  0.5545  0.7113
14893TIP3    H266171   1.956   4.897   0.873 -0.9912 -1.4098  0.0187
14894TIP3   OH266172   6.131   2.637  15.416 -0.3530 -0.2456 -0.5676
14894TIP3    H166173   6.150   2.728  15.442  3.1801 -0.4998 -1.7460
14894TIP3    H266174   6.081   2.602  15.490 -0.4821  2.1825  0.6313
14895TIP3   OH266175   1.287   5.143   4.912 -0.2788 -0.1483  0.5964
14895TIP3    H166176   1.236   5.224   4.917  0.4695  0.2699  2.4439
14895TIP3    H266177   1.236   5.086   4.856 -1.3651  1.2306  0.1198
14896TIP3   OH266178   2.311   3.870   5.718 -0.7621 -0.1272 -0.0979
14896TIP3    H166179   2.395   3.884   5.762 -0.1492 -0.7168 -1.0667
14896TIP3    H266180   2.249   3.922   5.770 -0.0953 -0.8812  1.5278
14897TIP3   OH266181   1.232   3.967  12.595  0.7013 -0.2712 -0.3288
14897TIP3    H166182   1.275   3.969  12.680 -0.8613  1.6953  0.5127
14897TIP3    H266183   1.152   3.917  12.609  1.6407 -2.1769 -1.3677
14898TIP3   OH266184   1.940   1.347   5.300  0.2915  0.3963 -0.0378
14898TIP3    H166185   1.934   1.429   5.250 -0.3570  0.3281 -0.0853
14898TIP3    H266186   1.859   1.345   5.352 -0.0584 -0.5565 -0.5855
14899TIP3   OH266187   4.394   2.752  10.728  0.3189  0.2967 -0.2606
14899TIP3    H166188   4.396   2.847  10.720 -0.6933  0.1757 -2.5701
14899TIP3    H266189   4.319   2.734  10.784 -2.0426  0.8014 -3.0568
14900TIP3   OH266190   5.844   5.452  16.767  0.3455  0.4045 -0.6519
14900TIP3    H166191   5.938   5.463  16.754  0.3834  0.1923 -0.5604
14900TIP3    H266192   5.833   5.442  16.861  0.5424 -2.2906 -0.8368
14901TIP3   OH266193   5.251   3.539   4.137 -0.5207  0.3545 -0.4484
14901TIP3    H166194   5.265   3.449   4.167 -0.3389  0.2006 -0.9837
14901TIP3    H266195   5.160   3.540   4.107 -0.4772  0.3078 -0.5830
14902TIP3   OH266196   1.686   5.635  12.447  0.2516  0.4923  0.4868
14902TIP3    H166197   1.700   5.720  12.490 -0.7959  0.2948  1.2695
14902TIP3    H266198   1.662   5.657  12.357 -2.7998  1.2346  1.3653
14903TIP3   OH266199   2.906   0.974   4.913 -0.0350  0.2538  0.0770
14903TIP3    H166200   2.959   1.024   4.851 -0.8342 -0.9101 -1.6220
14903TIP3    H266201   2.838   0.934   4.859 -2.1533  0.9754  2.0285
14904TIP3   OH266202   4.969   1.880  14.739 -0.0239 -0.4565  0.0276
14904TIP3    H166203   5.052   1.923  14.756 -0.4493  0.2795  0.2819
14904TIP3    H266204   4.969   1.864  14.644 -0.8317  2.2295 -0.5061
14905TIP3   OH266205   0.155   1.297  12.350 -0.4226  0.1369  0.4760
14905TIP3    H166206   0.078   1.285  12.296  0.3870 -3.2452 -0.1802
14905TIP3    H266207   0.122   1.333  12.432 -2.8647 -2.0083  0.5373
14906TIP3   OH266208   3.774   0.433   4.884  0.1724  0.2254  0.3265
14906TIP3    H166209   3.856   0.390   4.860  0.7543  1.5140 -0.0311
14906TIP3    H266210   3.779   0.445   4.978 -0.4271 -1.3255  0.5986
14907TIP3   OH266211   5.659   4.876   3.322  0.3967  0.6188  0.1442
14907TIP3    H166212   5.597   4.946   3.299  0.3829  0.0069 -1.9135
14907TIP3    H266213   5.603   4.803   3.349  0.2765  0.4834 -0.4661
14908TIP3   OH266214   3.231   6.366   1.088 -0.0732 -0.4336 -0.0015
14908TIP3    H166215   3.258   6.298   1.027  0.5707 -0.2868  0.1149
14908TIP3    H266216   3.227   6.323   1.173 -1.8828 -0.8719 -0.2573
14909TIP3   OH266217   3.255   4.590  13.161  0.9191 -0.2876  0.3593
14909TIP3    H166218   3.330   4.543  13.125  0.7402  0.5547 -1.1892
14909TIP3    H266219   3.179   4.539  13.133  0.7681  0.4805 -0.6822
14910TIP3   OH266220   1.132   2.998   5.526  0.0054 -0.3855  0.3955
14910TIP3    H166221   1.087   3.056   5.465  0.0011 -0.7685  0.0302
14910TIP3    H266222   1.127   3.043   5.610  0.7534  0.5466 -0.0404
14911TIP3   OH266223   2.890   3.445   5.855 -0.4218  0.1965  0.7094
14911TIP3    H166224   2.883   3.404   5.941  1.0546 -0.4822  0.5491
14911TIP3    H266225   2.982   3.432   5.830 -0.9053 -0.0059 -1.1445
14912TIP3   OH266226   5.426   4.711   3.360  0.1944  0.9038 -0.0725
14912TIP3    H166227   5.379   4.635   3.325  2.1653  0.5754 -2.2053
14912TIP3    H266228   5.360   4.780   3.363 -0.7111  0.1907 -1.9332
14913TIP3   OH266229   6.653   4.544  16.691  0.1733 -0.1765 -0.2724
14913TIP3    H166230   6.744   4.567  16.709 -0.2077  1.9881 -0.7847
14913TIP3    H266231   6.656   4.497  16.607  0.7219  0.9659 -0.9078
14914TIP3   OH266232   0.397   2.835   3.464 -0.0826 -0.9333  0.8017
14914TIP3    H166233   0.391   2.910   3.405 -1.2935 -0.1528  1.8580
14914TIP3    H266234   0.399   2.759   3.406  1.0941 -0.1131 -0.2883
14915TIP3   OH266235   4.065   0.222   3.150 -0.0401  0.1656  0.8439
14915TIP3    H166236   4.124   0.278   3.100  1.0966 -0.3881  1.5064
14915TIP3    H266237   4.040   0.152   3.088  1.0860 -0.3314  0.9292
14916TIP3   OH266238   4.294   6.487   2.119  0.4164  0.6125  0.3596
14916TIP3    H166239   4.260   6.404   2.084  2.2835 -0.1657  0.2902
14916TIP3    H266240   4.292   6.475   2.214  1.6982  0.0085  0.3387
14917TIP3   OH266241   2.803   3.192  14.918 -0.0981 -0.4863 -0.8329
14917TIP3    H166242   2.856   3.166  14.993  0.4538 -0.5727 -1.2494
14917TIP3    H266243   2.772   3.279  14.940 -1.1532 -1.0861  0.1404
14918TIP3   OH266244   2.613   5.960   5.725  0.1918  0.4287  0.1725
14918TIP3    H166245   2.556   5.996   5.657 -0.0936  0.4233  0.4073
14918TIP3    H266246   2.621   6.030   5.790 -0.8308 -0.1121  0.9130
14919TIP3   OH266247   3.646   0.550   3.675 -0.4749 -0.0046 -0.5722
14919TIP3    H166248   3.694   0.628   3.702 -0.1906  0.1259 -1.4368
14919TIP3    H266249   3.554   0.576   3.678 -0.3595  0.5413 -1.3675
14920TIP3   OH266250   1.433   2.012  16.473 -0.0312  0.3251 -0.6610
14920TIP3    H166251   1.457   1.960  16.550  1.2359  0.7969 -0.7226
14920TIP3    H266252   1.478   2.095  16.486 -2.2925  1.5750 -0.3981
14921TIP3   OH266253   3.200   6.262  10.883 -0.2534 -0.0544  0.2477
14921TIP3    H166254   3.282   6.213  10.891  0.1836  0.1886 -2.0090
14921TIP3    H266255   3.135   6.196  10.859 -0.3690  0.0003  0.4067
14922TIP3   OH266256   1.721   4.939   1.566  0.1479 -0.3305 -0.3224
14922TIP3    H166257   1.775   4.860   1.568  0.6976  0.0546  0.0509
14922TIP3    H266258   1.699   4.950   1.473  0.8438 -0.3930 -0.4964
14923TIP3   OH266259   5.404   2.433  12.232  0.5421  0.2357 -0.0963
14923TIP3    H166260   5.334   2.368  12.234  0.8812 -0.1402 -0.1200
14923TIP3    H266261   5.482   2.385  12.261  0.9983  0.3790 -1.0280
14924TIP3   OH266262   2.893   2.714   0.889 -0.7763 -0.1581 -0.2801
14924TIP3    H166263   2.919   2.647   0.952 -0.3658  0.3948  0.1437
14924TIP3    H266264   2.799   2.700   0.877 -1.0953  0.4046  1.2924
14925TIP3   OH266265   0.884   4.675  16.410 -0.2840  0.0387 -0.0155
14925TIP3    H166266   0.828   4.606  16.376  0.3431 -0.1632 -0.6512
14925TIP3    H266267   0.950   4.690  16.342  0.2214  0.5280  0.5559
14926TIP3   OH266268   6.180   5.108  12.894  0.2807 -0.2104 -0.0494
14926TIP3    H166269   6.100   5.118  12.843  1.1399  1.0994 -1.2067
14926TIP3    H266270   6.150   5.080  12.981 -1.4458  0.5593 -0.3640
14927TIP3   OH266271   2.478   6.415  11.964  0.4808  0.5342  0.1025
14927TIP3    H166272   2.458   6.368  11.883  0.4695  0.4537  0.1523
14927TIP3    H266273   2.525   6.493  11.935 -2.1130  2.0911 -0.2428
14928TIP3   OH266274   5.089   1.328  14.095  0.3865 -0.0395  0.0807
14928TIP3    H166275   5.155   1.341  14.028 -1.3728 -3.9103 -2.7797
14928TIP3    H266276   5.125   1.258  14.151 -0.0902 -0.1265  0.2818
14929TIP3   OH266277   0.656   3.340  12.425 -0.2459  0.2117  0.5063
14929TIP3    H166278   0.586   3.379  12.476 -1.5313 -0.9426 -0.2916
14929TIP3    H266279   0.677   3.259  12.471 -0.3533 -0.0822  0.0475
14930TIP3   OH266280   2.009   5.508  14.853  0.6769  0.6864  0.3167
14930TIP3    H166281   2.051   5.504  14.938 -0.6400  2.6973  1.1535
14930TIP3    H266282   1.922   5.469  14.867  1.4546 -1.6719 -0.9040
14931TIP3   OH266283   5.833   0.255  13.389  0.5305  0.0349  0.3267
14931TIP3    H166284   5.878   0.281  13.470 -2.4030  0.8092  1.8625
14931TIP3    H266285   5.782   0.333  13.364  0.5828 -0.5373 -1.7125
14932TIP3   OH266286   4.474   2.595   5.689 -0.2122 -0.1283 -0.0461
14932TIP3    H166287   4.559   2.625   5.721 -0.4194 -0.3021  0.6831
14932TIP3    H266288   4.466   2.635   5.603  1.9867 -2.5368 -1.5448
14933TIP3   OH266289   3.539   5.285   5.372  0.2278 -0.3583  0.1784
14933TIP3    H166290   3.493   5.303   5.291  1.8949 -0.5847 -0.8719
14933TIP3    H266291   3.630   5.307   5.354  1.0433 -2.5144  1.2470
14934TIP3   OH266292   3.872   4.626   5.034 -0.0507  0.4512 -0.1439
14934TIP3    H166293   3.795   4.596   4.986 -0.6194  0.2986  0.8387
14934TIP3    H266294   3.884   4.716   5.006 -0.7139  0.5408 -0.1692
14935TIP3   OH266295   4.181   1.016  11.332 -0.0262 -0.4021  0.5748
14935TIP3    H166296   4.122   0.979  11.266  0.3777 -0.5061  0.2643
14935TIP3    H266297   4.266   0.977  11.312  0.3432  0.4419  0.4460
14936TIP3   OH266298   4.196   1.971   2.141 -0.1574  0.3832 -0.1371
14936TIP3    H166299   4.256   2.044   2.154  0.8039 -0.7981  2.8262
14936TIP3    H266300   4.110   2.008   2.161  0.3504  0.6872  1.6310
14937TIP3   OH266301   2.052   2.305  16.696 -0.2678 -0.4251  0.4063
14937TIP3    H166302   2.148   2.305  16.701 -0.1118  0.5776 -1.6496
14937TIP3    H266303   2.030   2.216  16.670  0.0357 -0.8627  1.5948
14938TIP3   OH266304   1.893   6.302   1.490 -0.5443 -0.1424  0.8120
14938TIP3    H166305   1.980   6.264   1.476 -0.3308  0.1735  1.2316
14938TIP3    H266306   1.878   6.291   1.584  0.5203  2.8196  1.4263
14939TIP3   OH266307   4.331   2.562   0.524  0.7698 -0.0642  0.3678
14939TIP3    H166308   4.239   2.587   0.533  0.5783 -0.6726  0.1755
14939TIP3    H266309   4.376   2.642   0.500  0.3973  0.3897  1.1567
14940TIP3   OH266310   2.981   0.010  13.756 -0.5469 -0.2311  0.0448
14940TIP3    H166311   2.939   0.034  13.673  0.1822  0.5368 -0.1169
14940TIP3    H266312   3.026  -0.072  13.736 -0.2597  0.0207 -0.3679
14941TIP3   OH266313   4.531   4.094  13.525  0.6737 -0.1667  0.6600
14941TIP3    H166314   4.459   4.152  13.499 -0.0430 -1.2674  0.0821
14941TIP3    H266315   4.583   4.083  13.445  0.2123 -1.1114  0.4668
14942TIP3   OH266316   1.187   1.803   0.669 -0.2718  0.0785  0.1091
14942TIP3    H166317   1.133   1.780   0.594 -1.1494  1.0573  0.4111
14942TIP3    H266318   1.229   1.886   0.645  1.2832 -0.7649 -0.1975
14943TIP3   OH266319   6.626   0.929  15.306  0.2737  0.0584 -0.3289
14943TIP3    H166320   6.642   0.994  15.238 -1.5621  0.5926 -0.2837
14943TIP3    H266321   6.678   0.853  15.278  1.0032  0.8975 -1.3360
14944TIP3   OH266322   5.086   5.330   0.893 -0.0816  0.0332  0.2699
14944TIP3    H166323   5.116   5.336   0.983  0.6052  0.5266  0.0132
14944TIP3    H266324   5.092   5.237   0.872  0.1836 -0.0233  0.5867
14945TIP3   OH266325   1.401   2.193  15.607 -0.3238  0.3114 -0.1743
14945TIP3    H166326   1.361   2.270  15.649  1.6183  1.5696 -0.5098
14945TIP3    H266327   1.495   2.205  15.619  0.0576 -1.8818 -0.5338
14946TIP3   OH266328   5.812   3.334   4.296 -0.2932  0.1296  0.3945
14946TIP3    H166329   5.746   3.332   4.227  0.5113 -0.3506 -0.3782
14946TIP3    H266330   5.809   3.423   4.330  0.3906  0.8570 -1.3534
14947TIP3   OH266331   3.328   5.598  17.462 -0.0184  0.3665  0.6292
14947TIP3    H166332   3.387   5.525  17.484  2.4990  2.2239  0.4368
14947TIP3    H266333   3.327   5.600  17.367 -0.1995  0.5097  0.6344
14948TIP3   OH266334   3.293   2.626   2.858  0.4108  0.3298  0.1459
14948TIP3    H166335   3.295   2.590   2.769 -3.1376 -0.1238  0.0852
14948TIP3    H266336   3.270   2.718   2.847 -1.5518 -0.0609  0.5305
14949TIP3   OH266337   1.260   2.633  15.327 -0.0504 -0.5863 -0.2193
14949TIP3    H166338   1.326   2.582  15.373  0.5110  1.1206  0.9619
14949TIP3    H266339   1.178   2.586  15.342  0.4961 -1.3273  0.5154
14950TIP3   OH266340   0.767   3.395  14.128 -0.3664  0.0686  0.1950
14950TIP3    H166341   0.690   3.348  14.097 -0.9786 -0.1026  1.8998
14950TIP3    H266342   0.733   3.474  14.169  0.5064  0.9107 -0.6592
14951TIP3   OH266343   1.476   2.105   3.894 -0.2734 -0.7022 -0.0906
14951TIP3    H166344   1.476   2.131   3.802  0.9736 -1.7356 -0.4160
14951TIP3    H266345   1.399   2.049   3.904 -0.0439 -1.1260 -0.6740
14952TIP3   OH266346   2.899   2.638  12.016 -0.3498 -0.6330 -0.1927
14952TIP3    H166347   2.989   2.608  12.028  0.3552  1.0825 -0.7691
14952TIP3    H266348   2.867   2.587  11.941  0.6734 -0.2436 -0.9282
14953TIP3   OH266349   2.712   1.720  16.135  0.1617 -0.3120  0.1112
14953TIP3    H166350   2.807   1.718  16.127  0.1726 -2.5470  0.0647
14953TIP3    H266351   2.680   1.669  16.061 -1.1191  0.7064 -0.0818
14954TIP3   OH266352   1.839   6.170   0.176 -0.1027  0.2671  0.1250
14954TIP3    H166353   1.930   6.187   0.152 -0.2270 -0.3244 -0.8310
14954TIP3    H266354   1.790   6.185   0.096 -0.8341  0.4407  0.5979
14955TIP3   OH266355   2.581   4.600   4.268  0.6490  1.1402 -0.2063
14955TIP3    H166356   2.502   4.546   4.263 -0.0050  2.0469  0.1540
14955TIP3    H266357   2.603   4.602   4.361  2.5332 -1.0874 -0.4884
14956TIP3   OH266358   2.647   6.180   0.392 -0.1439 -0.4507 -0.4894
14956TIP3    H166359   2.564   6.222   0.417 -0.3041 -0.2423 -1.3376
14956TIP3    H266360   2.670   6.221   0.309  0.2921 -1.2251 -0.7616
14957TIP3   OH266361   4.407   0.312  12.405 -0.1028 -0.0130  0.1842
14957TIP3    H166362   4.453   0.387  12.443 -0.2001 -0.0140  0.3014
14957TIP3    H266363   4.335   0.350  12.356  0.6672  0.0688 -0.9235
14958TIP3   OH266364   6.017   6.516   3.847  0.4019 -0.4334 -0.1689
14958TIP3    H166365   6.006   6.584   3.913  0.8687 -0.2125 -0.3128
14958TIP3    H266366   6.112   6.511   3.834  0.4921 -1.9846  0.7669
14959TIP3   OH266367   3.869   0.820   4.033  0.4573 -0.1856 -0.6126
14959TIP3    H166368   3.948   0.770   4.053  0.5039 -0.1232 -0.6398
14959TIP3    H266369   3.827   0.835   4.117 -0.0393 -1.0675 -0.6933
14960TIP3   OH266370   4.768   2.742   3.921 -0.3275 -0.0302 -0.6565
14960TIP3    H166371   4.772   2.654   3.959 -0.5061  1.2945  2.7621
14960TIP3    H266372   4.855   2.779   3.938 -0.7377  0.9607 -0.6457
14961TIP3   OH266373   1.382   5.795  17.255  0.6444  0.3434 -0.2322
14961TIP3    H166374   1.412   5.713  17.293 -0.0994 -0.7153 -1.8256
14961TIP3    H266375   1.367   5.775  17.163  2.2367  2.7618 -1.1103
14962TIP3   OH266376   1.598   5.016  15.720  0.1368 -0.7056  0.4930
14962TIP3    H166377   1.638   5.061  15.795  1.1422 -1.5276  0.4629
14962TIP3    H266378   1.507   4.999  15.748  0.0559  0.3558  0.9197
14963TIP3   OH266379   0.593   0.804   1.438  0.5190 -0.0967  0.1933
14963TIP3    H166380   0.511   0.794   1.390  0.1166 -2.6531  1.2663
14963TIP3    H266381   0.568   0.810   1.530  1.4838  0.5836  0.4333
14964TIP3   OH266382   3.107   1.299  11.556  0.2312 -0.4689 -0.1134
14964TIP3    H166383   3.193   1.260  11.565  0.0385 -0.9248 -0.2225
14964TIP3    H266384   3.051   1.248  11.615 -0.2245 -0.9882 -0.9726
14965TIP3   OH266385   2.001   6.459  11.002 -0.0342 -0.5358 -0.1454
14965TIP3    H166386   1.987   6.374  11.044 -1.8924  0.4830  1.4082
14965TIP3    H266387   1.955   6.451  10.918  2.1495 -1.9474 -1.3055
14966TIP3   OH266388   5.347   1.715  12.153  0.8056 -0.0783 -0.0867
14966TIP3    H166389   5.367   1.637  12.102  0.3948 -0.3138  0.1144
14966TIP3    H266390   5.290   1.767  12.097  1.4776  0.3176 -0.4212
14967TIP3   OH266391   4.840   2.167  12.547  0.2153  0.7885 -0.0388
14967TIP3    H166392   4.822   2.162  12.641  0.3413 -1.1033 -0.0670
14967TIP3    H266393   4.795   2.246  12.518  0.5947  1.6966  1.6842
14968TIP3   OH266394   6.685   5.348   1.231 -0.1488  0.2624 -0.6080
14968TIP3    H166395   6.714   5.257   1.241 -3.8626 -1.2036 -1.5766
14968TIP3    H266396   6.638   5.368   1.311  0.5226  1.3439 -0.4590
14969TIP3   OH266397   4.219   0.543   3.591 -0.0827 -0.4722 -0.1213
14969TIP3    H166398   4.224   0.538   3.496  0.7224 -1.8083 -0.0375
14969TIP3    H266399   4.138   0.590   3.609  0.9670  2.0509 -1.4829
14970TIP3   OH266400   6.403   3.582  17.096 -0.5299 -0.2961 -0.1252
14970TIP3    H166401   6.474   3.521  17.076  0.3368  0.4596  0.5814
14970TIP3    H266402   6.336   3.527  17.137 -0.2623 -0.9712 -0.5613
14971TIP3   OH266403   2.156   0.220   4.690  0.1626  0.4907 -0.6694
14971TIP3    H166404   2.140   0.283   4.619  2.4863  2.1694  0.1465
14971TIP3    H266405   2.214   0.155   4.651  1.2709  1.2994 -0.4327
14972TIP3   OH266406   2.468   2.651   2.392  0.0950 -0.2518  0.4488
14972TIP3    H166407   2.375   2.636   2.376  0.0583  2.0571 -2.1909
14972TIP3    H266408   2.474   2.661   2.487 -2.2018 -1.1543  0.7521
14973TIP3   OH266409   1.183   3.488  11.435  0.0732  0.3561 -0.0804
14973TIP3    H166410   1.266   3.523  11.402  0.5481 -0.9277 -0.3198
14973TIP3    H266411   1.127   3.481  11.358  0.3855 -0.4724 -0.2471
14974TIP3   OH266412   1.130   6.351   4.639  0.0360  0.1147 -0.5167
14974TIP3    H166413   1.050   6.346   4.692  1.2402 -0.6763  1.3195
14974TIP3    H266414   1.168   6.436   4.661  0.3722 -0.0788 -0.3405
14975TIP3   OH266415   6.372   6.474  12.285 -0.5441 -1.0822 -0.2414
14975TIP3    H166416   6.300   6.515  12.332  1.6124  0.6945  1.7718
14975TIP3    H266417   6.449   6.525  12.310  1.4012 -2.7221 -2.4601
14976TIP3   OH266418   4.182   2.379   2.826 -0.5158 -0.6760 -0.2688
14976TIP3    H166419   4.196   2.316   2.897 -0.6277 -0.1503  0.2327
14976TIP3    H266420   4.185   2.327   2.746  0.7662 -1.1204  0.0420
14977TIP3   OH266421   4.553   3.097   5.626 -0.0602  0.1443 -0.0487
14977TIP3    H166422   4.491   3.141   5.684 -0.0906  0.1597 -0.0926
14977TIP3    H266423   4.498   3.049   5.565 -0.0330  0.3906 -0.2672
14978TIP3   OH266424   2.932   6.689   0.165  0.4001  0.3916  0.3651
14978TIP3    H166425   2.893   6.712   0.080  0.7376  0.5528  0.2507
14978TIP3    H266426   2.959   6.598   0.155 -1.0134 -0.1115  0.8459
14979TIP3   OH266427   2.747   3.270  16.739  0.1492  0.5698 -0.8270
14979TIP3    H166428   2.778   3.181  16.723  2.1889  1.0980 -0.2146
14979TIP3    H266429   2.804   3.325  16.685  0.0167  1.5930  0.0422
14980TIP3   OH266430   6.111   0.364  15.861  0.7404 -0.3788  0.0134
14980TIP3    H166431   6.072   0.450  15.876  2.1468  0.0300  1.6764
14980TIP3    H266432   6.124   0.360  15.766 -1.4983  0.2291 -0.3728
14981TIP3   OH266433   6.697   0.653   6.778 -0.0135 -0.1851 -0.1383
14981TIP3    H166434   6.631   0.592   6.813 -0.1120 -0.5309 -0.9119
14981TIP3    H266435   6.772   0.598   6.758  0.2430  0.0979  0.0385
14982TIP3   OH266436   6.141   1.230  15.962  0.2403  0.2988  0.6053
14982TIP3    H166437   6.074   1.280  15.917 -0.5696  0.3967  1.8508
14982TIP3    H266438   6.217   1.232  15.904 -0.2866  1.6189 -0.0726
14983TIP3   OH266439   1.753   4.623  17.483  0.3123  0.0192 -0.0215
14983TIP3    H166440   1.834   4.633  17.534 -0.7056  0.6300  1.5422
14983TIP3    H266441   1.732   4.530  17.490  0.5546 -0.0277  0.1107
14984TIP3   OH266442   4.561   5.788  16.412  0.0090 -0.3317  0.0020
14984TIP3    H166443   4.635   5.737  16.443 -0.2428 -0.4697  0.3770
14984TIP3    H266444   4.519   5.823  16.491 -1.6969 -2.1660  0.0004
14985TIP3   OH266445   5.618   0.229   3.211  0.4356 -0.2391 -0.0837
14985TIP3    H166446   5.593   0.208   3.301 -0.6910 -1.0195 -0.5560
14985TIP3    H266447   5.557   0.298   3.184  1.1605  0.4259 -0.0634
14986TIP3   OH266448   6.748   5.008   3.494  0.2713 -0.0475  0.6471
14986TIP3    H166449   6.736   4.941   3.428 -0.5495  0.2570  0.4712
14986TIP3    H266450   6.712   4.970   3.574  3.7001 -1.4950  1.6673
14987TIP3   OH266451   5.917   3.024   5.826  0.0093 -0.4908 -0.3718
14987TIP3    H166452   5.877   3.005   5.741 -0.8700  1.9529 -0.5958
14987TIP3    H266453   5.938   3.118   5.821  0.5691 -0.4552  1.8698
14988TIP3   OH266454   0.172   6.471  16.840  0.1574  0.3233  0.1674
14988TIP3    H166455   0.102   6.440  16.898  0.1158  0.1418  0.0236
14988TIP3    H266456   0.185   6.399  16.778  0.5579  0.3101  0.2690
14989TIP3   OH266457   3.724   2.271   0.628  0.1639  0.5659 -0.4382
14989TIP3    H166458   3.722   2.320   0.710 -0.2252 -0.5989  0.2795
14989TIP3    H266459   3.633   2.269   0.599  0.1052 -0.1091 -0.2203
14990TIP3   OH266460   3.302   6.005   2.752 -0.2787 -0.4360  0.1964
14990TIP3    H166461   3.359   6.012   2.675  0.0345 -2.8820  0.1309
14990TIP3    H266462   3.345   6.058   2.819  0.4728  0.1454 -0.7176
14991TIP3   OH266463   3.457   5.877  16.493 -0.0025 -0.5988 -0.5726
14991TIP3    H166464   3.532   5.898  16.438 -1.4546  5.4972 -1.0135
14991TIP3    H266465   3.384   5.868  16.432 -0.3830 -2.1722  0.0701
14992TIP3   OH266466   0.628   6.227  13.298  0.0190 -0.1855  0.5476
14992TIP3    H166467   0.604   6.306  13.248 -0.1934 -0.8804 -0.4855
14992TIP3    H266468   0.723   6.233  13.305  0.1147 -0.3420 -0.4334
14993TIP3   OH266469   5.281   5.291   6.262 -0.0094 -0.0133 -0.3548
14993TIP3    H166470   5.366   5.299   6.306 -0.0155 -0.1164 -0.3237
14993TIP3    H266471   5.301   5.303   6.169 -0.1117  1.0644 -0.2552
14994TIP3   OH266472   2.179   0.700  17.491  0.0305  0.3454 -0.0063
14994TIP3    H166473   2.208   0.770  17.433  1.0570 -1.7225 -2.1592
14994TIP3    H266474   2.260   0.656  17.517 -0.7030 -1.2663 -0.3503
14995TIP3   OH266475   3.851   3.133   1.247  0.2559  0.1006  0.2348
14995TIP3    H166476   3.903   3.213   1.239 -1.9590  1.4611 -1.7737
14995TIP3    H266477   3.795   3.149   1.323  1.4696 -0.6358  1.3276
14996TIP3   OH266478   4.054   3.046  15.952 -0.3253  0.6311  0.4161
14996TIP3    H166479   3.961   3.025  15.941  0.2485 -1.2647 -1.8355
14996TIP3    H266480   4.099   2.983  15.895  2.4030  1.0267  1.9755
14997TIP3   OH266481   2.875   0.004  17.449 -0.4101  0.0217 -0.3638
14997TIP3    H166482   2.813   0.062  17.405  0.0190 -0.5975 -1.8587
14997TIP3    H266483   2.954   0.009  17.395 -0.2684 -1.7154 -0.3611
14998TIP3   OH266484   0.143   2.227   5.173 -0.6117  0.3168 -0.3637
14998TIP3    H166485   0.193   2.260   5.099  0.4414  0.2153  0.2856
14998TIP3    H266486   0.067   2.285   5.180 -0.0379  1.1111 -0.7145
14999TIP3   OH266487   1.904   3.359   4.493  0.2786 -0.6661 -0.0569
14999TIP3    H166488   1.940   3.440   4.457 -0.4673 -0.1379  0.3524
14999TIP3    H266489   1.855   3.320   4.420  0.6990 -0.7910 -0.2753
15000TIP3   OH266490   6.505   5.203   4.506  0.5050 -0.0522  0.6451
15000TIP3    H166491   6.547   5.259   4.442  0.1938  0.0337  0.5169
15000TIP3    H266492   6.415   5.235   4.512  0.3846 -0.3942  0.7293
15001TIP3   OH266493   1.537   5.871   5.359  0.8208 -0.0428 -0.0383
15001TIP3    H166494   1.490   5.954   5.347  0.2480  0.3391  3.7749
15001TIP3    H266495   1.620   5.885   5.314  0.1569  2.0186 -0.7543
15002TIP3   OH266496   5.539   4.009   1.769  1.0477  0.1598  0.4384
15002TIP3    H166497   5.459   3.957   1.755  2.6232 -2.5225  0.7517
15002TIP3    H266498   5.548   4.061   1.690 -0.2103 -0.6193 -0.2585
15003TIP3   OH266499   5.937   6.221   2.999  0.3499 -0.5752 -0.0785
15003TIP3    H166500   5.980   6.272   3.067 -1.1596  0.1664  0.3618
15003TIP3    H266501   5.893   6.286   2.945 -0.3946 -1.3114 -0.3740
15004TIP3   OH266502   1.121   6.701  15.733  0.1617  0.5647  0.0300
15004TIP3    H166503   1.151   6.654  15.811 -0.9481 -0.1065  0.0690
15004TIP3    H266504   1.026   6.708  15.743 -0.3902 -1.7780 -2.3989
15005TIP3   OH266505   2.908   5.105  12.360 -0.1254 -1.1644 -0.2714
15005TIP3    H166506   2.922   5.187  12.408 -0.4152 -1.6157  0.6164
15005TIP3    H266507   2.922   5.128  12.269 -1.1625  0.1213 -0.1476
15006TIP3   OH266508   0.897   5.608  13.120 -0.5933  0.4324 -0.6512
15006TIP3    H166509   0.863   5.676  13.178 -1.2674 -1.1956  0.9722
15006TIP3    H266510   0.922   5.536  13.179  0.1443 -0.7131 -2.2713
15007TIP3   OH266511   2.273   4.335   0.237  0.4770  0.0223  0.8539
15007TIP3    H166512   2.351   4.312   0.288  0.7181 -0.9948  0.0720
15007TIP3    H266513   2.265   4.430   0.245  1.7163  0.1185  1.0620
15008TIP3   OH266514   6.012   5.733  16.614  0.2449 -0.2669  0.0288
15008TIP3    H166515   6.046   5.715  16.702 -0.8977 -0.7320  0.3943
15008TIP3    H266516   6.083   5.708  16.555  0.8532 -0.3947  0.8036
15009TIP3   OH266517   3.453   2.695  12.174 -0.3017 -0.2712 -0.6273
15009TIP3    H166518   3.541   2.678  12.208 -1.3797 -0.7820  2.1461
15009TIP3    H266519   3.404   2.616  12.194 -1.8614  0.7226 -0.3476
15010TIP3   OH266520   4.201   4.375  16.594  0.1576  0.2552  0.2394
15010TIP3    H166521   4.195   4.456  16.644  1.1276 -1.1123  2.7345
15010TIP3    H266522   4.110   4.351  16.576 -0.1491  1.8097 -0.5425
15011TIP3   OH266523   1.693   5.739   3.606 -0.5349  0.2495  0.3806
15011TIP3    H166524   1.702   5.651   3.570 -0.2998  0.3846  0.1067
15011TIP3    H266525   1.720   5.730   3.698  0.1048  0.1610  0.1882
15012TIP3   OH266526   3.137   4.014  16.268 -0.3485  0.0183  0.3841
15012TIP3    H166527   3.150   3.923  16.240 -0.2297  0.1304  0.0703
15012TIP3    H266528   3.078   4.051  16.203  0.1865  0.3737  0.1040
15013TIP3   OH266529   2.966   1.012   1.662  0.0597 -0.3931  0.1448
15013TIP3    H166530   3.017   1.079   1.617  1.6497  1.7162  4.4913
15013TIP3    H266531   2.877   1.045   1.662  0.6271  1.2929  1.2559
15014TIP3   OH266532   6.444   0.925  11.380 -0.2707  0.9061  0.1671
15014TIP3    H166533   6.466   0.920  11.473 -0.9422  2.3207  0.4223
15014TIP3    H266534   6.431   1.018  11.363  0.2941  0.7112 -1.4589
15015TIP3   OH266535   2.054   1.331  13.378 -0.3594  0.2106  0.1636
15015TIP3    H166536   2.048   1.346  13.473 -0.8546  0.8225  0.0482
15015TIP3    H266537   2.147   1.316  13.362 -0.1349  1.0340  0.6249
15016TIP3   OH266538   1.192   0.812   6.101 -0.1750 -0.4285  0.4649
15016TIP3    H166539   1.257   0.783   6.165  1.1128 -0.7422 -0.9259
15016TIP3    H266540   1.174   0.903   6.124 -0.1578 -0.6944  1.5831
15017TIP3   OH266541   3.569   4.272  15.659 -0.1515 -0.0215  0.0116
15017TIP3    H166542   3.485   4.298  15.698  0.4351 -1.0147  2.1347
15017TIP3    H266543   3.553   4.185  15.624 -0.1625  0.0297 -0.1090
15018TIP3   OH266544   2.214   4.853  13.366  0.0295 -0.2208 -0.0293
15018TIP3    H166545   2.243   4.944  13.356 -3.2139  1.0537  0.8916
15018TIP3    H266546   2.170   4.832  13.283  0.4627 -0.8515 -0.1094
15019TIP3   OH266547   3.992   4.200   1.825 -0.0141  0.3654  0.0683
15019TIP3    H166548   3.925   4.171   1.888 -0.1173 -0.2289 -0.3132
15019TIP3    H266549   4.064   4.231   1.880  0.1996 -0.8302  0.4936
15020TIP3   OH266550   4.625   2.065  16.581  0.8264  0.0744  0.1271
15020TIP3    H166551   4.659   1.975  16.579 -0.2610 -0.3499  0.0497
15020TIP3    H266552   4.561   2.068  16.510  2.0754  1.4436 -1.0048
15021TIP3   OH266553   6.074   1.440   6.024 -0.3837 -0.3189  0.2027
15021TIP3    H166554   6.122   1.465   5.945 -0.1028  0.0601  0.4873
15021TIP3    H266555   6.139   1.394   6.077 -0.5323 -0.4457  0.2718
15022TIP3   OH266556   4.457   2.904  11.956 -0.0639 -0.2981 -0.6454
15022TIP3    H166557   4.488   2.866  11.874 -0.9520 -0.2557 -0.9994
15022TIP3    H266558   4.447   2.997  11.938 -1.7128 -0.5034 -0.9604
15023TIP3   OH266559   1.863   0.297  16.527  0.1496 -0.0271 -0.8413
15023TIP3    H166560   1.894   0.370  16.473 -0.0490  1.1396  0.5688
15023TIP3    H266561   1.928   0.288  16.596  0.0440 -1.0545 -0.8553
15024TIP3   OH266562   2.010   3.259   1.755 -0.1788  0.1767 -0.3060
15024TIP3    H166563   1.929   3.209   1.771 -0.3002 -0.2635 -2.1079
15024TIP3    H266564   2.079   3.192   1.755 -0.1532  0.1907 -1.2554
15025TIP3   OH266565   0.542   3.237   1.378  0.3861 -0.0249 -0.0704
15025TIP3    H166566   0.535   3.179   1.455 -0.3051  1.8151  1.3225
15025TIP3    H266567   0.616   3.202   1.328  0.4476 -1.6596  1.0854
15026TIP3   OH266568   2.501   1.461  10.623  0.2730 -0.0912  0.2700
15026TIP3    H166569   2.463   1.412  10.697 -0.7128  1.8638  1.1241
15026TIP3    H266570   2.588   1.486  10.654 -0.3910  1.3057  1.0877
15027TIP3   OH266571   3.599   6.537  16.338 -0.1479  0.6498 -0.4303
15027TIP3    H166572   3.631   6.615  16.383  1.1242  1.6657 -2.9411
15027TIP3    H266573   3.597   6.560  16.246 -2.1006 -1.5271 -1.0413
15028TIP3   OH266574   3.169   3.638   1.438 -0.5994  0.2255 -0.0479
15028TIP3    H166575   3.185   3.570   1.503 -0.3975 -1.2319 -1.5607
15028TIP3    H266576   3.074   3.646   1.435 -0.5952  1.7165  1.7630
15029TIP3   OH266577   4.715   6.688  12.741  0.1862 -0.0835  0.2841
15029TIP3    H166578   4.784   6.652  12.797  0.5481 -1.6330 -1.0940
15029TIP3    H266579   4.759   6.755  12.689  0.6998 -1.1014 -0.6266
15030TIP3   OH266580   3.952   3.366   6.125  0.0586 -0.1542 -0.8375
15030TIP3    H166581   3.903   3.398   6.050 -0.9560 -0.2564 -0.2362
15030TIP3    H266582   3.987   3.445   6.166 -1.7656  0.1619  0.1846
15031TIP3   OH266583   2.515   4.925  13.224  0.0477 -0.0250  0.4210
15031TIP3    H166584   2.423   4.943  13.205  0.2222 -0.2444 -0.7157
15031TIP3    H266585   2.522   4.829  13.222  0.3151 -0.0065  0.4314
15032TIP3   OH266586   5.609   5.405   1.196  0.1075  0.3783 -0.0472
15032TIP3    H166587   5.690   5.364   1.167 -0.7766 -1.0095 -0.6755
15032TIP3    H266588   5.633   5.454   1.275  1.5303 -0.0522 -0.2003
15033TIP3   OH266589   0.361   6.205  15.508  0.2287 -0.2424 -0.0897
15033TIP3    H166590   0.396   6.120  15.531 -0.4963 -0.3633  0.6244
15033TIP3    H266591   0.413   6.267  15.558  1.1079 -0.2055 -1.0151
15034TIP3   OH266592   5.702   0.927   5.465  0.2003 -0.2058 -0.5572
15034TIP3    H166593   5.610   0.943   5.483  0.1374 -0.3639 -0.7355
15034TIP3    H266594   5.711   0.940   5.371  0.3343 -0.3216 -0.5603
15035TIP3   OH266595   6.754   5.777  13.393  0.1341  0.2979 -0.2692
15035TIP3    H166596   6.814   5.817  13.455 -0.2851 -0.4841  0.6604
15035TIP3    H266597   6.809   5.753  13.318  1.2124 -1.3534  0.9817
15036TIP3   OH266598   3.005   2.643   3.206 -0.2017 -0.8472 -0.0823
15036TIP3    H166599   3.077   2.597   3.163 -0.4172 -0.3750 -0.9599
15036TIP3    H266600   2.981   2.713   3.146 -0.9274 -0.5554  0.5244
15037TIP3   OH266601   0.944   6.748   6.741  0.3842 -0.9400  0.4620
15037TIP3    H166602   0.906   6.835   6.756 -2.4525 -2.0711  0.4433
15037TIP3    H266603   1.007   6.737   6.812  1.2471  1.3064  0.1524
15038TIP3   OH266604   6.090   1.810  16.507  0.3860  1.0666 -0.5329
15038TIP3    H166605   5.999   1.837  16.514 -0.5407 -1.9993  1.3287
15038TIP3    H266606   6.112   1.824  16.415 -2.5520  0.3118 -1.4590
15039TIP3   OH266607   5.243   5.080  17.015  0.0161 -0.2716 -0.2939
15039TIP3    H166608   5.236   5.018  16.942  3.5172 -0.9852 -0.2155
15039TIP3    H266609   5.299   5.035  17.079 -0.4301  1.5477  1.4859
15040TIP3   OH266610   4.790   3.370  16.332 -0.3154  0.0119  0.1746
15040TIP3    H166611   4.867   3.316  16.346  0.0796  0.4716 -0.1712
15040TIP3    H266612   4.823   3.460  16.334 -0.7709  0.2010 -0.3727
15041TIP3   OH266613   0.235   5.199   3.697  0.0132 -0.2931 -0.6938
15041TIP3    H166614   0.329   5.194   3.713 -0.3273 -0.5398  1.4721
15041TIP3    H266615   0.220   5.141   3.623  1.8849  1.7966 -2.8878
15042TIP3   OH266616   6.067   4.102   5.409 -0.1482  0.0359 -0.8223
15042TIP3    H166617   5.997   4.140   5.356 -0.4165  0.8534  0.0984
15042TIP3    H266618   6.052   4.136   5.497  2.1358  1.2566 -0.8372
15043TIP3   OH266619   3.687   3.039   1.452  0.1957 -0.6890  0.8771
15043TIP3    H166620   3.668   3.076   1.538 -0.3889 -1.1034  0.9321
15043TIP3    H266621   3.749   2.969   1.469  0.8111 -0.1581  0.8473
15044TIP3   OH266622   5.863   1.604  15.765 -0.2186 -0.5726  0.4783
15044TIP3    H166623   5.792   1.545  15.740 -2.1691  1.9020 -0.2039
15044TIP3    H266624   5.896   1.567  15.848 -1.8852 -2.1320  0.5188
15045TIP3   OH266625   3.398   6.284   2.652 -0.0661 -0.5923 -0.0780
15045TIP3    H166626   3.458   6.210   2.646 -0.0015 -0.5271 -0.2594
15045TIP3    H266627   3.360   6.279   2.740  1.8449  0.6458  0.8885
15046TIP3   OH266628   5.316   2.395   0.215  0.5755 -0.4257  0.0451
15046TIP3    H166629   5.378   2.464   0.239 -1.8232  2.3984 -1.1415
15046TIP3    H266630   5.236   2.416   0.264 -0.3954 -2.0841 -0.7260
15047TIP3   OH266631   1.286   3.582   4.021  0.3565 -0.0224  0.6304
15047TIP3    H166632   1.289   3.677   4.031 -1.8817 -0.0079  1.7933
15047TIP3    H266633   1.198   3.564   3.985  1.4461 -1.5406 -1.5419
15048TIP3   OH266634   5.824   3.963   0.949  0.4368 -0.5706  0.4624
15048TIP3    H166635   5.763   4.019   0.901  0.6031  1.0148  1.9588
15048TIP3    H266636   5.895   4.022   0.975  1.2111 -1.7477  1.1180
15049TIP3   OH266637   3.260   6.139  13.140  0.1265 -0.0980  0.7144
15049TIP3    H166638   3.219   6.224  13.156 -0.1101 -0.0297 -0.2322
15049TIP3    H266639   3.346   6.160  13.103 -0.3037 -0.2693 -0.4100
15050TIP3   OH266640   5.367   1.299  12.752 -0.0255 -0.3462  0.2618
15050TIP3    H166641   5.296   1.308  12.816  0.4115  2.5945  0.4707
15050TIP3    H266642   5.373   1.385  12.711  0.8823 -1.6531 -2.5430
15051TIP3   OH266643   3.683   0.667   4.746 -0.2981 -0.0588 -0.0456
15051TIP3    H166644   3.681   0.653   4.652 -1.6719 -0.6644  0.0429
15051TIP3    H266645   3.701   0.580   4.783  0.7766  0.2711  0.2506
15052TIP3   OH266646   2.694   5.227   4.440 -0.1283 -0.5169 -0.1706
15052TIP3    H166647   2.617   5.273   4.405  0.0429  0.1875  0.3402
15052TIP3    H266648   2.658   5.159   4.496 -0.3900  0.0284  0.3351
15053TIP3   OH266649   5.610   2.597  15.989  0.2306 -0.1621  0.0115
15053TIP3    H166650   5.632   2.514  16.032 -0.4126 -1.2034 -1.5670
15053TIP3    H266651   5.689   2.650  15.996  0.1388 -0.2450  2.4830
15054TIP3   OH266652   3.148   4.313  14.286 -0.6339  0.4586  0.3205
15054TIP3    H166653   3.217   4.309  14.352 -0.6846 -1.1482  0.3203
15054TIP3    H266654   3.162   4.236  14.231 -2.7881 -0.2921  0.7248
15055TIP3   OH266655   5.057   3.483   0.520 -0.3155 -0.7853 -0.4872
15055TIP3    H166656   5.070   3.413   0.584  2.0536 -1.4902 -1.5910
15055TIP3    H266657   5.101   3.450   0.441  1.2062  2.0745 -0.9476
15056TIP3   OH266658   2.411   2.369  13.472  0.1069  0.0229 -0.5560
15056TIP3    H166659   2.487   2.428  13.483  0.2373  0.2136 -2.1914
15056TIP3    H266660   2.335   2.425  13.488  0.2285  0.6991 -2.2037
15057TIP3   OH266661   5.326   5.443   4.651  0.8072 -0.3873  0.1549
15057TIP3    H166662   5.378   5.428   4.572  1.0519  0.6399  0.1058
15057TIP3    H266663   5.320   5.539   4.658  0.0399 -0.4772  0.8918
15058TIP3   OH266664   6.168   2.443  14.420  0.3836  0.2496  0.2520
15058TIP3    H166665   6.112   2.374  14.453  0.6973 -0.8805 -1.4728
15058TIP3    H266666   6.218   2.403  14.349  2.3001  1.6075  0.7198
15059TIP3   OH266667   1.784   5.365  14.857  0.5897 -0.2486  0.2342
15059TIP3    H166668   1.701   5.363  14.904  0.9946 -1.8057  0.9488
15059TIP3    H266669   1.775   5.295  14.791  1.0555  0.0878 -0.1909
15060TIP3   OH266670   0.497   1.513   3.488 -0.3876 -0.4051 -0.5579
15060TIP3    H166671   0.543   1.552   3.562 -0.5421 -0.1484 -0.5988
15060TIP3    H266672   0.556   1.526   3.414 -0.8739  0.6376 -0.7710
15061TIP3   OH266673   1.652   0.703  14.211  0.2695 -0.5146 -0.3898
15061TIP3    H166674   1.683   0.630  14.265 -0.0433 -1.0902 -0.9727
15061TIP3    H266675   1.670   0.675  14.121  0.6871  0.3863 -0.5998
15062TIP3   OH266676   5.418   3.719  11.345  0.6539  0.1740 -0.0486
15062TIP3    H166677   5.440   3.629  11.325  2.4984  0.4374  0.6519
15062TIP3    H266678   5.479   3.772  11.293 -0.1355  1.0300 -0.1514
15063TIP3   OH266679   5.175   2.696  16.186 -0.3744  0.5639  0.1205
15063TIP3    H166680   5.125   2.632  16.235 -1.2884  1.9212  1.0369
15063TIP3    H266681   5.160   2.779  16.232  2.0172  1.1889 -0.0985
15064TIP3   OH266682   3.349   3.095  12.026 -0.2305 -0.7585 -0.5034
15064TIP3    H166683   3.257   3.072  12.018 -0.2596 -0.5367 -0.8378
15064TIP3    H266684   3.388   3.069  11.942 -0.0710 -0.4938 -0.5133
15065TIP3   OH266685   5.758   5.841  11.536 -0.3954 -0.0090  0.7443
15065TIP3    H166686   5.850   5.839  11.510 -0.7633 -0.9897 -0.6007
15065TIP3    H266687   5.731   5.749  11.537 -1.2682  0.2409  1.4925
15066TIP3   OH266688   2.696   6.185  12.781  0.7013  0.3631  0.1393
15066TIP3    H166689   2.773   6.177  12.836 -1.2005 -2.4908  2.7436
15066TIP3    H266690   2.656   6.268  12.808  1.1438  0.2496  1.1854
15067TIP3   OH266691   4.038   6.638  12.534  0.2623  0.1842 -0.2555
15067TIP3    H166692   4.046   6.649  12.439  1.5462 -0.2088 -0.2127
15067TIP3    H266693   3.952   6.674  12.555 -1.0327 -1.7195 -1.8869
15068TIP3   OH266694   4.431   3.812  13.109  0.6664  0.2039 -0.0882
15068TIP3    H166695   4.360   3.768  13.156  0.1429  2.6545  1.5873
15068TIP3    H266696   4.501   3.746  13.105 -0.8454 -1.5208  0.2190
15069TIP3   OH266697   2.077   5.859   4.444 -0.1854  0.3681  0.0953
15069TIP3    H166698   2.115   5.938   4.407 -0.6589  0.2666 -0.6373
15069TIP3    H266699   2.150   5.813   4.485  1.2325 -1.4124 -3.9792
15070TIP3   OH266700   1.564   1.551   3.147 -0.1547  0.2339  0.2677
15070TIP3    H166701   1.647   1.504   3.131 -0.3713 -0.7069  1.7602
15070TIP3    H266702   1.578   1.598   3.229 -1.0533  0.1676  0.4691
15071TIP3   OH266703   1.562   4.020  12.779 -0.0519 -0.0923  0.3037
15071TIP3    H166704   1.579   4.114  12.788  0.0135 -0.0662 -0.0732
15071TIP3    H266705   1.611   3.980  12.851 -0.0301  0.1561  0.4282
15072TIP3   OH266706   6.043   6.399  10.908  0.1901  0.0309 -0.0149
15072TIP3    H166707   5.950   6.419  10.915  0.2671  0.3807  0.0073
15072TIP3    H266708   6.047   6.303  10.905 -0.0901 -0.0129  0.9903
15073TIP3   OH266709   0.515   4.593   3.438  0.2079 -0.3540 -0.3133
15073TIP3    H166710   0.502   4.677   3.481 -0.2790 -0.4707 -0.2272
15073TIP3    H266711   0.427   4.562   3.417  0.3310 -1.2350  0.4015
15074TIP3   OH266712   3.818   0.301   2.267 -0.1172 -0.2415  0.2036
15074TIP3    H166713   3.875   0.267   2.198 -0.9753  1.3897 -1.3873
15074TIP3    H266714   3.854   0.264   2.348  0.4840 -2.7975 -1.1340
15075TIP3   OH266715   6.346   1.418   0.899 -0.3578 -0.6372 -0.0433
15075TIP3    H166716   6.301   1.496   0.932  0.7304 -0.1492  0.3304
15075TIP3    H266717   6.380   1.375   0.978 -1.0989 -1.5922 -0.2334
15076TIP3   OH266718   2.436   1.884  15.402 -0.1506  0.0698 -0.2896
15076TIP3    H166719   2.419   1.964  15.353 -1.1916 -0.9931 -1.7571
15076TIP3    H266720   2.507   1.842  15.353  2.3419  1.3043  2.0099
15077TIP3   OH266721   5.426   5.025   3.315 -0.2171 -0.1373  0.3349
15077TIP3    H166722   5.360   4.970   3.357  0.5861 -0.9697  0.5362
15077TIP3    H266723   5.392   5.039   3.226 -0.3909 -1.0530  0.2470
15078TIP3   OH266724   3.715   4.400   3.378  0.0649  0.1769 -0.1289
15078TIP3    H166725   3.721   4.476   3.321  0.5786 -0.3794 -0.8452
15078TIP3    H266726   3.622   4.393   3.399 -0.0940  0.5579 -0.6831
15079TIP3   OH266727   4.459   0.485  13.557 -0.3778 -0.1671 -0.1548
15079TIP3    H166728   4.385   0.511  13.503 -0.0805 -0.5336 -0.7539
15079TIP3    H266729   4.437   0.398  13.590  0.4085 -0.9501 -1.5749
15080TIP3   OH266730   2.378   6.260   5.086 -0.0107  0.8511 -0.2947
15080TIP3    H166731   2.285   6.263   5.063 -0.0146 -0.8496 -0.6234
15080TIP3    H266732   2.416   6.336   5.043 -0.9118  0.4457 -1.8763
15081TIP3   OH266733   6.203   5.556  15.858 -0.0137 -0.1524  0.1982
15081TIP3    H166734   6.160   5.600  15.785  0.9116 -0.9257 -0.8465
15081TIP3    H266735   6.296   5.561  15.837  0.5838  2.1932  2.7938
15082TIP3   OH266736   6.121   5.651   6.381  0.2989  0.0531 -0.1751
15082TIP3    H166737   6.215   5.667   6.391  0.3555  0.2195 -0.8616
15082TIP3    H266738   6.079   5.710   6.443  0.6750 -0.6603  0.7704
15083TIP3   OH266739   0.271   1.073   3.187  0.3392 -0.2937  0.6063
15083TIP3    H166740   0.324   1.129   3.244 -1.5908 -0.4329  2.6701
15083TIP3    H266741   0.255   1.127   3.109  0.2702  1.2269  1.6318
15084TIP3   OH266742   1.483   2.578   1.578  0.1350 -0.3745  0.4136
15084TIP3    H166743   1.484   2.635   1.501  0.7727  0.0380  0.7139
15084TIP3    H266744   1.391   2.554   1.589 -0.8338  3.3518  2.2356
15085TIP3   OH266745   4.745   6.253   0.290 -0.2398 -0.1406  0.8193
15085TIP3    H166746   4.770   6.269   0.199 -0.5389  0.6272  0.8718
15085TIP3    H266747   4.777   6.330   0.338  1.6361 -1.3730  1.6979
15086TIP3   OH266748   0.338   3.729  11.408 -0.7403 -0.4044  0.0478
15086TIP3    H166749   0.327   3.698  11.319 -1.1862 -1.5874  0.4927
15086TIP3    H266750   0.263   3.787  11.423  0.7886  2.0537 -1.2215
15087TIP3   OH266751   1.940   2.855  15.882  0.7908  0.3657 -0.1037
15087TIP3    H166752   1.911   2.771  15.846  1.4744  0.1139 -0.0895
15087TIP3    H266753   1.860   2.898  15.912  0.2786  0.2806 -1.2868
15088TIP3   OH266754   0.000   6.688  10.617 -0.0481 -0.4392  0.2643
15088TIP3    H166755   0.077   6.671  10.564  0.5165 -1.2171  1.2935
15088TIP3    H266756   0.035   6.724  10.699 -0.6957 -1.5070  1.0432
15089TIP3   OH266757   6.521   3.339  17.066 -0.2645 -0.5718  0.1133
15089TIP3    H166758   6.508   3.314  16.974  0.0742  0.7282 -0.3125
15089TIP3    H266759   6.559   3.262  17.107 -0.4976 -1.2018 -0.8241
15090TIP3   OH266760   6.435   0.819   6.584  0.3744 -0.0491  0.2815
15090TIP3    H166761   6.382   0.898   6.589 -2.2197 -1.6442  0.0483
15090TIP3    H266762   6.397   0.760   6.649  2.0269 -1.2363  0.2332
15091TIP3   OH266763   0.994   6.556  15.464  0.0114  0.1662 -0.6655
15091TIP3    H166764   0.968   6.475  15.509  1.2293 -1.3888 -2.5992
15091TIP3    H266765   1.063   6.593  15.518 -0.0324 -0.4906 -0.1501
15092TIP3   OH266766   3.859   3.886   4.421  0.5181 -0.1487 -0.0719
15092TIP3    H166767   3.920   3.958   4.439  0.0620  0.6668 -1.6152
15092TIP3    H266768   3.778   3.912   4.464  1.2679 -1.3804  2.2494
15093TIP3   OH266769   3.717   3.425  11.880  0.1374  0.0082  0.3234
15093TIP3    H166770   3.750   3.458  11.964  1.6171  1.2812 -0.7068
15093TIP3    H266771   3.771   3.348  11.862  0.8643  0.6232 -0.1659
15094TIP3   OH266772   3.100   6.070   3.069 -0.7419  0.5342  0.0564
15094TIP3    H166773   3.061   6.000   3.017 -0.4994  0.2081  0.3110
15094TIP3    H266774   3.127   6.136   3.005 -0.8768  0.3493 -0.1902
15095TIP3   OH266775   5.328   1.733   5.724  0.3024  0.0986 -0.0050
15095TIP3    H166776   5.240   1.770   5.725  0.6401  0.9217  1.2392
15095TIP3    H266777   5.362   1.756   5.637 -0.3790  0.5711 -0.1588
15096TIP3   OH266778   2.192   1.594   1.071 -0.3346 -0.2218  0.0667
15096TIP3    H166779   2.155   1.518   1.115  1.7611 -0.3646  1.7381
15096TIP3    H266780   2.231   1.559   0.991  0.0483 -0.8225  0.5058
15097TIP3   OH266781   2.110   6.221   1.323 -0.5790 -0.2595 -0.1498
15097TIP3    H166782   2.067   6.156   1.379 -0.5471  0.2695  0.4993
15097TIP3    H266783   2.203   6.212   1.342 -0.4634 -0.8458 -0.9549
15098TIP3   OH266784   5.290   2.474   1.595  0.1191 -0.1856 -0.1730
15098TIP3    H166785   5.354   2.526   1.642 -0.6310 -0.1057  0.7914
15098TIP3    H266786   5.302   2.498   1.503  0.7247  0.6318  0.1110
15099TIP3   OH266787   2.321   4.103  14.342 -0.1661  0.2750  0.5943
15099TIP3    H166788   2.409   4.140  14.333  0.2262 -0.9799 -1.4144
15099TIP3    H266789   2.265   4.162  14.292  0.0060 -0.3438 -0.3495
15100TIP3   OH266790   1.992   4.842   3.126 -0.1169  0.4031 -0.1192
15100TIP3    H166791   1.924   4.895   3.084  0.9093  1.6476 -0.2716
15100TIP3    H266792   2.004   4.767   3.067 -0.5829  0.7457 -0.6594
15101TIP3   OH266793   0.680   1.814   0.426  0.3736 -0.4363 -0.3710
15101TIP3    H166794   0.624   1.892   0.421 -1.1563 -1.4658 -0.0055
15101TIP3    H266795   0.629   1.746   0.383  0.3110 -1.9781  1.9812
15102TIP3   OH266796   6.138   1.148  15.399 -0.5331  0.6788  0.3907
15102TIP3    H166797   6.184   1.065  15.383  0.5393  1.7292 -2.7556
15102TIP3    H266798   6.195   1.197  15.457 -0.1932 -0.0272  0.6579
15103TIP3   OH266799   6.685   6.222  14.486 -0.3637 -0.1747 -0.1673
15103TIP3    H166800   6.705   6.300  14.538  0.3654  0.1924 -0.9871
15103TIP3    H266801   6.610   6.248  14.432 -0.6350 -0.3085  0.1430
15104TIP3   OH266802   3.990   5.132  16.335 -0.2873  0.3518  0.1618
15104TIP3    H166803   4.029   5.125  16.247 -1.6319 -2.5989 -0.3396
15104TIP3    H266804   3.913   5.188  16.323 -0.4138  0.0373 -0.5562
15105TIP3   OH266805   0.433   4.438  13.193 -0.1096  0.2224  0.4362
15105TIP3    H166806   0.449   4.428  13.287  1.2583  3.8316  0.7601
15105TIP3    H266807   0.351   4.486  13.188  1.2455  2.6816  0.0859
15106TIP3   OH266808   0.466   0.135  15.947  0.6721  0.3581 -0.1958
15106TIP3    H166809   0.372   0.132  15.966  0.4842  0.5758 -1.0757
15106TIP3    H266810   0.506   0.160  16.031 -0.0582  0.4058  0.1493
15107TIP3   OH266811   1.216   2.889   2.109  0.1017 -0.3216 -0.1284
15107TIP3    H166812   1.283   2.879   2.178  2.0039 -0.5959 -1.9187
15107TIP3    H266813   1.266   2.889   2.028 -1.8395  2.3326 -1.4503
15108TIP3   OH266814   1.694   6.663  12.259  0.1082 -0.1884  0.2608
15108TIP3    H166815   1.617   6.670  12.202  0.3835  2.5229  0.0970
15108TIP3    H266816   1.768   6.667  12.199  0.4539 -2.7576  0.4246
15109TIP3   OH266817   6.106   6.245   1.290 -0.7538 -0.0528  0.1012
15109TIP3    H166818   6.120   6.265   1.197 -3.0256  1.1134 -0.0764
15109TIP3    H266819   6.136   6.324   1.335  0.6850 -0.7623  0.4127
15110TIP3   OH266820   5.632   0.137  15.578  0.2936  0.2447  0.2397
15110TIP3    H166821   5.577   0.200  15.625  0.7081  1.0099 -0.2603
15110TIP3    H266822   5.607   0.052  15.612 -0.3558  0.6790  0.8704
15111TIP3   OH266823   0.787   2.867  15.457  0.0005 -0.4781  0.1344
15111TIP3    H166824   0.780   2.918  15.537 -0.4992  0.5563 -0.5387
15111TIP3    H266825   0.713   2.805  15.461  0.1978 -0.6854  0.6305
15112TIP3   OH266826   4.926   5.210  11.911 -0.3646  0.1491 -1.0970
15112TIP3    H166827   4.993   5.214  11.979 -1.5163  2.6111  0.0063
15112TIP3    H266828   4.973   5.180  11.833  2.0152  1.6632 -0.3458
15113TIP3   OH266829   2.963   2.138   1.132  0.2736 -0.0002 -0.6435
15113TIP3    H166830   2.914   2.126   1.213  1.5020 -1.1317 -0.0435
15113TIP3    H266831   2.930   2.221   1.097 -0.2815  0.5156  0.9936
15114TIP3   OH266832   1.444   2.673  12.316  0.6477  0.3666  0.2171
15114TIP3    H166833   1.434   2.713  12.402  1.7704  2.3067 -0.4830
15114TIP3    H266834   1.355   2.670  12.280  0.2272 -0.0960  1.2613
15115TIP3   OH266835   5.995   2.753   4.775 -0.0264 -0.2816  0.1993
15115TIP3    H166836   6.014   2.712   4.859 -1.5337  0.9176  1.1867
15115TIP3    H266837   6.029   2.691   4.710  0.3674 -1.6713  1.6548
15116TIP3   OH266838   3.779   5.716   0.900  0.0728  0.1020 -0.3659
15116TIP3    H166839   3.754   5.628   0.929 -1.2644  0.2077 -1.0826
15116TIP3    H266840   3.697   5.754   0.869  0.1921  2.4091  1.8860
15117TIP3   OH266841   6.196   0.601   3.639  0.7667 -0.0286 -0.3256
15117TIP3    H166842   6.206   0.650   3.557  0.1598 -0.2747 -0.5511
15117TIP3    H266843   6.186   0.510   3.612  0.1621 -0.0620 -0.0038
15118TIP3   OH266844   6.696   1.626  13.858 -0.5057 -0.0921  0.3495
15118TIP3    H166845   6.610   1.666  13.869 -0.5607 -0.1885  0.2748
15118TIP3    H266846   6.744   1.649  13.937  0.0264  1.5286 -0.3967
15119TIP3   OH266847   4.083   4.752  12.582  0.2614  0.2540  0.0366
15119TIP3    H166848   4.068   4.737  12.489  2.7081  0.7091 -0.5100
15119TIP3    H266849   4.109   4.843  12.589 -2.5898  1.0760  1.6423
15120TIP3   OH266850   3.453   6.360   0.470  0.6300 -0.4355 -0.4195
15120TIP3    H166851   3.536   6.366   0.423  0.1843 -2.7856 -1.6027
15120TIP3    H266852   3.475   6.315   0.552  0.6580 -0.2370 -0.3159
15121TIP3   OH266853   3.785   1.464   5.106  0.1851 -0.2514 -0.2772
15121TIP3    H166854   3.879   1.447   5.111  0.1701 -0.2949 -0.1496
15121TIP3    H266855   3.772   1.498   5.017  0.5950  1.4495  0.2758
15122TIP3   OH266856   3.302   3.844   1.318  0.1702 -0.7323  0.2710
15122TIP3    H166857   3.249   3.780   1.365 -3.7834  2.8348  1.3988
15122TIP3    H266858   3.383   3.851   1.368 -0.8247 -2.2262  2.2161
15123TIP3   OH266859   1.437   2.206   2.446  0.0604 -0.0412  0.1679
15123TIP3    H166860   1.483   2.186   2.364  0.9134 -0.0452  0.6330
15123TIP3    H266861   1.473   2.144   2.510 -0.1663  0.3489  0.6855
15124TIP3   OH266862   0.226   2.421  11.978  0.1307  0.6150  0.3015
15124TIP3    H166863   0.179   2.403  12.059 -1.9362  0.7766 -0.7855
15124TIP3    H266864   0.277   2.342  11.962  0.0066  0.2969  1.3759
15125TIP3   OH266865   5.344   0.874   0.559  0.8990  0.8643 -0.5301
15125TIP3    H166866   5.355   0.868   0.465  0.6289  1.4414 -0.6036
15125TIP3    H266867   5.433   0.877   0.594  1.2562 -3.7064 -0.3995
15126TIP3   OH266868   2.685   3.993   1.806 -0.2076 -0.1316  0.4111
15126TIP3    H166869   2.622   3.934   1.846 -0.0729 -1.1670 -0.8471
15126TIP3    H266870   2.661   3.995   1.713  2.2686 -1.4955 -0.3374
15127TIP3   OH266871   0.120   0.549   1.136  0.4008  0.0489 -0.3987
15127TIP3    H166872   0.072   0.471   1.109  1.9968 -0.9352 -0.5105
15127TIP3    H266873   0.130   0.600   1.055  0.8077 -0.4486 -0.6649
15128TIP3   OH266874   5.029   1.992   0.813  0.9357  0.0787 -0.3620
15128TIP3    H166875   5.026   1.971   0.720 -0.4691 -0.9543 -0.1191
15128TIP3    H266876   5.122   1.992   0.835  1.2378 -0.7203 -1.5458
15129TIP3   OH266877   2.320   2.430  14.967 -0.8191 -0.0908  0.0243
15129TIP3    H166878   2.319   2.334  14.969 -0.9562 -0.1107 -0.6645
15129TIP3    H266879   2.230   2.454  14.991 -1.2266 -0.1903 -1.2991
15130TIP3   OH266880   2.970   6.181  15.313 -0.3768 -0.3460  0.6651
15130TIP3    H166881   2.950   6.171  15.406  2.5938  1.7482  1.6818
15130TIP3    H266882   2.987   6.092  15.282  0.5888 -0.9236  2.6886
15131TIP3   OH266883   2.350   5.457  12.418  0.2169  0.1229  0.4613
15131TIP3    H166884   2.439   5.486  12.439  0.4927 -1.4936  1.7092
15131TIP3    H266885   2.310   5.440  12.503 -1.4341  1.1519 -0.0734
15132TIP3   OH266886   1.042   3.505  14.424  0.2989 -0.0036  0.2195
15132TIP3    H166887   1.069   3.496  14.333 -0.0671  1.6545 -0.0884
15132TIP3    H266888   0.953   3.470  14.425  0.3058 -0.0349 -0.0643
15133TIP3   OH266889   4.437   3.528   1.102  0.4228  0.6398 -0.1214
15133TIP3    H166890   4.425   3.474   1.180  0.9114 -1.2300 -1.2971
15133TIP3    H266891   4.348   3.551   1.074 -0.0736 -2.6138 -1.6144
15134TIP3   OH266892   6.722   1.999  15.939  0.3144 -0.3099 -0.3878
15134TIP3    H166893   6.659   1.986  16.010  0.7295  0.0595  0.0553
15134TIP3    H266894   6.673   1.978  15.859  0.0071 -1.2498  0.0437
15135TIP3   OH266895   1.853   2.445   1.830 -0.5447  0.7674 -0.1451
15135TIP3    H166896   1.785   2.401   1.780 -1.0303  0.4487  0.7753
15135TIP3    H266897   1.876   2.521   1.776  0.0875 -0.4061 -1.6048
15136TIP3   OH266898   6.602   4.868   5.361 -0.1325  0.4830 -0.4798
15136TIP3    H166899   6.647   4.838   5.440 -1.0068  1.1497  0.2775
15136TIP3    H266900   6.669   4.917   5.313 -0.0683  1.5789  0.7041
15137TIP3   OH266901   1.214   5.715  16.458 -0.1954 -0.4231 -0.1098
15137TIP3    H166902   1.298   5.682  16.425  0.5644  0.8075  0.4977
15137TIP3    H266903   1.149   5.658  16.418  0.9429 -1.6138 -0.3467
15138TIP3   OH266904   0.585   1.731   2.856 -0.6567 -0.4265  0.0845
15138TIP3    H166905   0.569   1.825   2.844 -1.9736 -0.4028  1.7031
15138TIP3    H266906   0.573   1.693   2.769  1.0358  1.0215 -0.8512
15139TIP3   OH266907   5.760   5.654   3.706 -0.1129 -0.3224 -0.2149
15139TIP3    H166908   5.692   5.632   3.643  0.1569 -0.7505 -0.3531
15139TIP3    H266909   5.775   5.574   3.755  1.4340 -0.7062 -1.2479
15140TIP3   OH266910   1.095   6.221  15.238 -0.1285 -0.3458 -0.5029
15140TIP3    H166911   1.175   6.172  15.223  0.2488  0.7009 -2.1276
15140TIP3    H266912   1.124   6.311  15.251 -0.9531 -0.1869  0.3497
15141TIP3   OH266913   4.120   0.905   2.317  0.0546  0.3557  0.0587
15141TIP3    H166914   4.099   0.898   2.224  1.2004  1.1855 -0.2804
15141TIP3    H266915   4.042   0.870   2.361 -0.1023 -1.0271 -1.2115
15142TIP3   OH266916   5.099   0.387  16.053  0.3200  0.3800  0.2921
15142TIP3    H166917   5.080   0.297  16.078 -0.1125  0.2001 -0.6523
15142TIP3    H266918   5.135   0.427  16.132  0.3522 -0.5709  0.7653
15143TIP3   OH266919   0.846   1.089   1.300 -0.3454  0.6074 -0.0394
15143TIP3    H166920   0.806   1.114   1.383 -0.3282  2.0960 -0.4592
15143TIP3    H266921   0.925   1.142   1.294  0.7469 -0.9365 -0.1005
15144TIP3   OH266922   1.429   5.129  16.657 -0.4646  0.5658  0.2867
15144TIP3    H166923   1.463   5.218  16.668  1.5144 -0.1900  0.7691
15144TIP3    H266924   1.480   5.077  16.719 -1.2604 -0.9863 -0.3273
15145TIP3   OH266925   6.229   6.161  12.735 -0.1304 -0.0377  0.2811
15145TIP3    H166926   6.281   6.173  12.813 -0.4251 -0.7566  0.5970
15145TIP3    H266927   6.185   6.077  12.747  1.2668 -1.0973 -1.4807
15146TIP3   OH266928   6.242   5.091   5.138  0.3608  0.2082  0.3790
15146TIP3    H166929   6.294   5.056   5.066 -0.5334  0.0047 -0.1977
15146TIP3    H266930   6.293   5.074   5.217  0.9757 -0.3323 -0.1311
15147TIP3   OH266931   4.730   4.701  16.449 -0.0983  0.2161  0.0586
15147TIP3    H166932   4.756   4.641  16.379  0.1861  0.4018  0.0069
15147TIP3    H266933   4.709   4.783  16.404 -0.9378  0.0228  0.0818
15148TIP3   OH266934   0.783   5.453  17.179 -0.0313 -0.4993  0.3506
15148TIP3    H166935   0.867   5.438  17.222  0.8342 -1.9987 -1.6814
15148TIP3    H266936   0.748   5.365  17.163 -0.6770  0.0063 -1.2369
15149TIP3   OH266937   5.964   6.141  16.231  0.9516 -0.0449 -0.1973
15149TIP3    H166938   6.055   6.121  16.207  1.0800  2.5278 -2.2886
15149TIP3    H266939   5.968   6.159  16.325  1.8739 -3.2592  0.5178
15150TIP3   OH266940   2.300   3.382  14.742 -0.0635 -0.0707 -0.5854
15150TIP3    H166941   2.368   3.446  14.719  1.5971 -1.6223 -0.2282
15150TIP3    H266942   2.254   3.422  14.815  3.1432 -0.5732  1.9374
15151TIP3   OH266943   3.247   4.417   4.855  0.3532 -1.0120  0.0001
15151TIP3    H166944   3.192   4.340   4.865  0.7828 -1.3615 -0.2676
15151TIP3    H266945   3.329   4.394   4.900  0.6340 -0.8765 -0.4297
15152TIP3   OH266946   6.692   5.373  14.317  0.1009 -0.3502 -0.3577
15152TIP3    H166947   6.700   5.305  14.383 -0.5875 -0.6141 -0.5430
15152TIP3    H266948   6.775   5.368  14.268  0.4658 -0.3824  0.2513
15153TIP3   OH266949   3.284   1.017  17.016  0.1689  0.2972  0.7261
15153TIP3    H166950   3.256   0.943  17.070  0.4418  1.2873  2.2666
15153TIP3    H266951   3.207   1.074  17.011  0.4356  0.6762  0.8926
15154TIP3   OH266952   3.302   0.771   4.728  0.0975 -0.0585  0.1726
15154TIP3    H166953   3.322   0.835   4.659 -0.4527  0.7182  0.7162
15154TIP3    H266954   3.338   0.688   4.695  2.6113  0.8681  0.3039
15155TIP3   OH266955   5.158   2.436  14.088  0.5083 -0.6774  0.0655
15155TIP3    H166956   5.110   2.399  14.014 -0.5812 -0.3061  0.5648
15155TIP3    H266957   5.106   2.412  14.164  1.0824 -0.1976  0.6142
15156TIP3   OH266958   0.214   4.172  16.080  0.1356 -0.4649  0.0133
15156TIP3    H166959   0.307   4.178  16.059  0.2703 -1.3253  0.3249
15156TIP3    H266960   0.198   4.245  16.140 -0.0302  1.4062 -2.1708
15157TIP3   OH266961   5.142   5.296  12.836  0.1938  0.0299  0.4326
15157TIP3    H166962   5.230   5.301  12.800  0.1574 -0.1519  0.3135
15157TIP3    H266963   5.112   5.207  12.814  0.1990 -0.1107  0.9794
15158TIP3   OH266964   1.665   5.985  11.929  0.3146 -0.1918  0.3788
15158TIP3    H166965   1.754   6.001  11.899  0.1784  0.0690  0.1040
15158TIP3    H266966   1.644   6.060  11.985  0.0958  0.0002  0.0452
15159TIP3   OH266967   6.084   6.689  11.874 -0.0900  0.3189 -0.1737
15159TIP3    H166968   6.002   6.656  11.910 -1.2974  1.3168 -1.8792
15159TIP3    H266969   6.061   6.772  11.833  2.1099  1.4337  0.6679
15160TIP3   OH266970   2.848   1.200  11.690 -0.2732 -0.2879  0.9137
15160TIP3    H166971   2.822   1.149  11.613  0.1482 -0.1100  0.6531
15160TIP3    H266972   2.797   1.280  11.685  1.0122  0.5030 -0.1339
15161TIP3   OH266973   4.136   0.123  14.612 -0.0318 -0.0625  0.2385
15161TIP3    H166974   4.210   0.139  14.554  0.1859 -1.2226  0.1663
15161TIP3    H266975   4.065   0.177  14.576  0.7589  1.0283  0.2947
15162TIP3   OH266976   2.194   0.681   2.251  0.2751  0.4001  0.3284
15162TIP3    H166977   2.241   0.761   2.275  0.5244 -0.2031  1.9285
15162TIP3    H266978   2.263   0.619   2.228  0.0875  0.5845 -0.7708
15163TIP3   OH266979   4.612   2.301   4.600 -0.1854 -0.5087  0.6348
15163TIP3    H166980   4.664   2.307   4.680 -0.8975 -0.1617  1.0867
15163TIP3    H266981   4.670   2.259   4.537  0.2851 -1.0714  1.4178
15164TIP3   OH266982   4.507   5.437   3.862  0.0390 -0.5561  0.1626
15164TIP3    H166983   4.513   5.342   3.846 -0.0323 -0.3945 -0.9153
15164TIP3    H266984   4.577   5.455   3.924  0.2739 -1.2614  0.1168
15165TIP3   OH266985   3.566   5.662   5.950 -0.3441  0.2920 -0.1552
15165TIP3    H166986   3.585   5.756   5.950  1.6597 -0.0657 -0.8527
15165TIP3    H266987   3.482   5.655   5.905 -0.1647  1.6927 -0.7816
15166TIP3   OH266988   3.096   1.093   0.805 -0.1117 -0.6215  0.0238
15166TIP3    H166989   3.054   1.014   0.839 -0.3038 -1.5879 -2.3390
15166TIP3    H266990   3.034   1.164   0.827 -0.7684 -1.3584  0.6119
15167TIP3   OH266991   0.631   4.144   4.577  0.1755  0.0743  1.1993
15167TIP3    H166992   0.579   4.225   4.580  0.7997  0.4802  1.2931
15167TIP3    H266993   0.722   4.174   4.578  0.4249 -0.5869  0.1450
15168TIP3   OH266994   4.286   6.747  12.600 -0.1079 -0.2579 -0.2975
15168TIP3    H166995   4.216   6.700  12.555 -1.7557  0.0698  1.7711
15168TIP3    H266996   4.341   6.679  12.637 -0.4424 -0.5333 -0.3045
15169TIP3   OH266997   1.272   6.491   3.042  0.0088 -0.9254 -0.2533
15169TIP3    H166998   1.199   6.538   3.001 -0.6722 -2.5250 -0.9563
15169TIP3    H266999   1.239   6.402   3.055  0.4476 -0.7477  3.1079
15170TIP3   OH267000   6.248   6.382   5.627  0.1508 -0.8654 -0.4107
15170TIP3    H167001   6.254   6.303   5.575 -1.6769 -1.9211  0.8627
15170TIP3    H267002   6.156   6.409   5.620 -0.2206 -1.1491  2.2995
15171TIP3   OH267003   4.430   2.191   1.418 -0.9926  0.4539  0.7124
15171TIP3    H167004   4.425   2.174   1.512  0.8566 -0.6461  0.6520
15171TIP3    H267005   4.493   2.263   1.410 -0.2748 -0.2124  0.2670
15172TIP3   OH267006   3.777   0.927   1.274 -0.7426 -0.1514  0.2259
15172TIP3    H167007   3.825   0.986   1.332 -0.9794  0.3547 -0.0876
15172TIP3    H267008   3.691   0.969   1.262 -0.3397  0.3023 -1.3310
15173TIP3   OH267009   1.059   3.229  14.723 -0.1274 -0.5061  0.0526
15173TIP3    H167010   1.127   3.216  14.657  0.0341 -1.1274  0.3352
15173TIP3    H267011   1.099   3.201  14.805 -0.5101 -0.2615  0.3287
15174TIP3   OH267012   2.741   2.276  11.611  0.3435 -0.7292 -0.4609
15174TIP3    H167013   2.765   2.206  11.551 -2.4542 -0.5401 -1.9828
15174TIP3    H267014   2.663   2.243  11.656 -0.1963  0.8593 -0.1660
15175TIP3   OH267015   4.193   4.193  14.221 -0.0340  0.3128 -0.6894
15175TIP3    H167016   4.253   4.144  14.277  0.0742  1.0606 -0.1323
15175TIP3    H267017   4.244   4.269  14.191 -0.4932  0.6093 -0.7382
15176TIP3   OH267018   4.287   2.091   5.049 -0.7290  0.4915 -0.0193
15176TIP3    H167019   4.273   2.005   5.089 -1.0745  0.0591 -1.0484
15176TIP3    H267020   4.324   2.144   5.120 -0.3723 -0.5404  0.5961
15177TIP3   OH267021   0.599   0.497   5.040  0.2172  0.2408  0.2569
15177TIP3    H167022   0.523   0.503   4.982 -1.5047  0.1324  2.3621
15177TIP3    H267023   0.621   0.587   5.061 -1.0354  0.2751  1.6344
15178TIP3   OH267024   3.964   3.333  12.266  0.4348  0.3829  0.3027
15178TIP3    H167025   4.054   3.327  12.233  0.8197  0.0322  1.3596
15178TIP3    H267026   3.916   3.267  12.216  0.3073  1.8407 -1.5959
15179TIP3   OH267027   1.620   1.224  13.298  0.4662 -0.1527 -0.5664
15179TIP3    H167028   1.658   1.280  13.366 -0.7721 -0.7295  0.6480
15179TIP3    H267029   1.624   1.277  13.218  0.8534  1.0097  0.2047
15180TIP3   OH267030   4.358   1.460  14.390  0.0810  0.3246 -0.4897
15180TIP3    H167031   4.437   1.421  14.428  0.1710  0.7199 -0.2696
15180TIP3    H267032   4.385   1.488  14.303 -0.1384 -0.6274 -0.8805
15181TIP3   OH267033   0.222   0.396   4.756  0.0936 -0.5052  0.0975
15181TIP3    H167034   0.264   0.415   4.840  1.6516 -0.8608 -0.5636
15181TIP3    H267035   0.137   0.358   4.779 -1.4051  3.1615  1.5092
15182TIP3   OH267036   3.569   3.723  17.508  0.2344 -0.6353 -0.0791
15182TIP3    H167037   3.574   3.690  17.597 -0.5615 -0.3043  0.0986
15182TIP3    H267038   3.521   3.806  17.516 -0.8380 -1.1507 -0.9495
15183TIP3   OH267039   0.720   6.567  17.217 -0.1412  0.2585 -0.2833
15183TIP3    H167040   0.759   6.550  17.131  1.4668 -2.6397  0.8927
15183TIP3    H267041   0.634   6.526  17.213  0.4266 -0.9737 -0.1379
15184TIP3   OH267042   4.708   6.547  16.319 -0.4086  0.1420 -0.0760
15184TIP3    H167043   4.613   6.563  16.315 -0.1619  1.7717 -0.0072
15184TIP3    H267044   4.747   6.632  16.301  1.0551 -0.3722  0.5418
15185TIP3   OH267045   3.128   5.596   4.431  0.3353  0.3498  0.0833
15185TIP3    H167046   3.192   5.612   4.362  1.6224 -1.2977  0.8276
15185TIP3    H267047   3.149   5.509   4.464 -1.8481  0.0541  0.8751
15186TIP3   OH267048   4.735   2.943   2.555  0.3840 -0.9947 -0.3594
15186TIP3    H167049   4.641   2.945   2.570  0.6415 -2.2255  1.7487
15186TIP3    H267050   4.763   3.035   2.566 -0.5016 -0.6870 -0.6052
15187TIP3   OH267051   5.637   4.771  16.000  0.3721 -0.0355  0.2726
15187TIP3    H167052   5.666   4.792  15.911  0.5955 -1.1813  0.0509
15187TIP3    H267053   5.559   4.717  15.987  0.3913 -0.1848  0.7694
15188TIP3   OH267054   0.542   0.620  16.021  0.1274  0.3713 -0.5811
15188TIP3    H167055   0.514   0.639  16.110  0.1522 -0.0347 -0.4819
15188TIP3    H267056   0.549   0.705  15.979 -0.3851  0.5306 -0.3445
15189TIP3   OH267057   1.296   1.973  16.830  0.0453  0.5482  0.6897
15189TIP3    H167058   1.365   1.915  16.798 -1.7129 -0.7668 -0.9709
15189TIP3    H267059   1.299   2.049  16.772  2.4129  2.3429  2.9240
15190TIP3   OH267060   1.391   5.012   6.444  0.1062  0.4427  0.0609
15190TIP3    H167061   1.355   4.925   6.425  2.4543 -0.7186  0.5836
15190TIP3    H267062   1.345   5.040   6.523  1.2653 -1.6456  1.5909
15191TIP3   OH267063   2.587   5.234   3.352 -0.3115 -0.8575 -0.0342
15191TIP3    H167064   2.555   5.206   3.438 -0.7999  1.0189  0.4338
15191TIP3    H267065   2.651   5.303   3.371 -0.5689 -0.2839 -1.1778
15192TIP3   OH267066   3.061   3.490   4.417  0.5004  0.3219 -0.4627
15192TIP3    H167067   3.093   3.429   4.350  0.9449 -0.3879  0.3587
15192TIP3    H267068   2.966   3.485   4.411  0.4982 -1.2283  0.2083
15193TIP3   OH267069   5.537   5.555  17.140  0.0698 -0.2335  0.5648
15193TIP3    H167070   5.499   5.630  17.095  0.5073  0.1257  0.7863
15193TIP3    H267071   5.474   5.534  17.209 -0.5471 -0.7151 -0.1298
15194TIP3   OH267072   2.908   0.688  17.197 -0.3758 -0.4983 -0.1005
15194TIP3    H167073   2.890   0.683  17.291 -0.3078 -1.9216 -0.1452
15194TIP3    H267074   2.998   0.719  17.192 -0.2280 -0.8368  0.3243
15195TIP3   OH267075   0.888   2.184   4.620 -0.3281  0.2188  0.2097
15195TIP3    H167076   0.937   2.261   4.589 -1.1714  0.6135 -0.1808
15195TIP3    H267077   0.928   2.163   4.705  0.9869  0.0772 -0.4289
15196TIP3   OH267078   1.790   1.476   1.221 -0.1180  0.0563  0.3649
15196TIP3    H167079   1.743   1.490   1.139 -2.0513 -0.2818  1.3654
15196TIP3    H267080   1.726   1.435   1.279  0.8627  1.2702  2.4136
15197TIP3   OH267081   6.502   2.959   6.172  0.3139  0.4869 -0.4759
15197TIP3    H167082   6.540   2.999   6.250 -0.2304  0.5952 -0.2620
15197TIP3    H267083   6.469   2.874   6.202  3.5016 -1.2300 -1.3914
15198TIP3   OH267084   2.753   6.590   0.442 -0.0009 -0.3404  0.3438
15198TIP3    H167085   2.846   6.590   0.418 -0.0082 -0.6060  0.3165
15198TIP3    H267086   2.714   6.524   0.385  0.0588 -1.2904  1.3686
15199TIP3   OH267087   3.659   4.576  15.126 -0.4975 -0.5697  0.2629
15199TIP3    H167088   3.603   4.530  15.064  0.1286  0.1436 -0.8635
15199TIP3    H267089   3.685   4.509  15.189 -0.0429 -1.6411 -1.0170
15200TIP3   OH267090   1.817   2.851   6.261 -0.0214 -0.0958  0.7717
15200TIP3    H167091   1.730   2.848   6.221  0.2618  2.5412 -0.3017
15200TIP3    H267092   1.817   2.932   6.312  2.5225  1.4097 -1.3464
15201TIP3   OH267093   0.522   5.339  12.856  0.2959  0.1340  0.1144
15201TIP3    H167094   0.515   5.260  12.802  0.4961 -0.1596  0.5116
15201TIP3    H267095   0.527   5.306  12.946 -1.1910  0.6651  0.4174
15202TIP3   OH267096   6.000   3.252  11.753 -0.0788 -0.9399 -0.3249
15202TIP3    H167097   6.018   3.330  11.806 -0.8500 -2.0712  1.7405
15202TIP3    H267098   5.904   3.250  11.746  0.0269 -0.4685 -2.3858
15203TIP3   OH267099   1.576   0.381  17.465 -0.1248  0.3600  0.6536
15203TIP3    H167100   1.652   0.421  17.422 -1.5649  0.4335 -2.0312
15203TIP3    H267101   1.579   0.290  17.438 -0.5610  0.1933  1.1591
15204TIP3   OH267102   0.593   3.175   1.929  0.0361  0.1519  0.4633
15204TIP3    H167103   0.623   3.248   1.983 -0.4954  0.3411  0.5047
15204TIP3    H267104   0.673   3.137   1.893  0.3235  0.6486  0.5772
15205TIP3   OH267105   1.627   6.510  15.917 -0.2149  0.1657 -0.3486
15205TIP3    H167106   1.692   6.574  15.889  0.5624 -0.3236  0.3029
15205TIP3    H267107   1.574   6.556  15.983  0.0585  0.2727 -0.2033
15206TIP3   OH267108   6.434   3.618  11.058  0.0538  0.0440 -0.1033
15206TIP3    H167109   6.402   3.528  11.050  0.5308 -0.0900 -0.5120
15206TIP3    H267110   6.357   3.667  11.089 -0.8013 -0.1193 -1.8549
15207TIP3   OH267111   4.762   2.561  14.075  0.2126 -0.2467  0.5148
15207TIP3    H167112   4.689   2.572  14.014 -0.5552 -0.9682  1.2634
15207TIP3    H267113   4.840   2.554  14.019 -0.1116  1.7461 -0.2440
15208TIP3   OH267114   0.623   1.706   5.249  0.3599  0.0173  0.2485
15208TIP3    H167115   0.685   1.760   5.298  0.6335  0.7217 -0.8401
15208TIP3    H267116   0.615   1.750   5.165 -0.3716 -0.9755 -0.2120
15209TIP3   OH267117   2.260   0.575   2.945  0.3658  0.2488  0.2888
15209TIP3    H167118   2.330   0.630   2.981  0.7744 -0.7751  1.1184
15209TIP3    H267119   2.179   0.614   2.980  0.4436  1.6837 -1.0000
15210TIP3   OH267120   6.377   0.379  11.844 -0.0611 -0.5479 -0.1182
15210TIP3    H167121   6.340   0.413  11.763 -0.2713  1.9149  0.9384
15210TIP3    H267122   6.426   0.301  11.817 -1.3502 -0.6727 -2.3568
15211TIP3   OH267123   1.840   6.091  13.387 -0.4959 -0.4960  0.2180
15211TIP3    H167124   1.906   6.146  13.429 -0.4284  0.2891 -0.8755
15211TIP3    H267125   1.882   6.060  13.307 -1.0407 -0.9831  0.1168
15212TIP3   OH267126   3.658   4.293  12.450 -0.4365  0.1196  0.0502
15212TIP3    H167127   3.752   4.282  12.439 -0.1579  2.1064  0.1532
15212TIP3    H267128   3.626   4.204  12.468  0.9879 -1.0815 -2.6667
15213TIP3   OH267129   6.094   0.121  12.118  0.1247  0.0729 -0.1955
15213TIP3    H167130   6.165   0.062  12.094 -0.1778  0.2431 -1.5912
15213TIP3    H267131   6.061   0.087  12.201  0.4629 -1.2603 -0.5837
15214TIP3   OH267132   5.151   3.462  15.885 -0.5377  0.8323 -0.6057
15214TIP3    H167133   5.240   3.457  15.919 -0.6262 -2.3112 -0.5388
15214TIP3    H267134   5.162   3.488  15.793  0.4166  0.9065 -0.4828
15215TIP3   OH267135   2.316   2.909   3.760  0.0730  0.1802  0.0760
15215TIP3    H167136   2.261   2.903   3.682  1.6645 -1.8258 -0.9610
15215TIP3    H267137   2.274   2.850   3.823  0.1667 -0.1332 -0.1547
15216TIP3   OH267138   6.374   2.421   0.094  0.2792 -0.5616  0.1177
15216TIP3    H167139   6.283   2.404   0.070 -0.3503  2.2131  0.1136
15216TIP3    H267140   6.369   2.482   0.168  2.0581  0.7774 -0.7603
15217TIP3   OH267141   0.773   5.830  14.759 -0.4287 -0.6586  0.3987
15217TIP3    H167142   0.749   5.750  14.805 -1.1864 -0.0243  1.1417
15217TIP3    H267143   0.856   5.810  14.717  1.2259 -0.7841  3.4355
15218TIP3   OH267144   5.241   4.322  13.108 -0.1491 -0.4871  0.2157
15218TIP3    H167145   5.258   4.355  13.196  0.0029 -2.8768  1.1423
15218TIP3    H267146   5.281   4.387  13.050 -0.7223  1.4251  1.8514
15219TIP3   OH267147   2.495   4.287  12.822 -0.3910 -0.2166 -0.3575
15219TIP3    H167148   2.471   4.245  12.905 -1.8553 -0.4397 -0.8537
15219TIP3    H267149   2.494   4.216  12.757  0.9979 -0.0909 -0.5435
15220TIP3   OH267150   3.392   5.530   4.202 -0.0000 -0.5370  0.2218
15220TIP3    H167151   3.415   5.537   4.295 -0.1878 -0.5533  0.2696
15220TIP3    H267152   3.374   5.438   4.189 -1.1508 -0.3597  0.4515
15221TIP3   OH267153   6.308   5.163  14.190  0.4177 -0.0090 -0.7785
15221TIP3    H167154   6.356   5.234  14.147  0.6315 -0.2821 -0.9935
15221TIP3    H267155   6.339   5.164  14.280 -0.2490  0.7609 -0.5459
15222TIP3   OH267156   1.590   5.799  11.489 -0.7734 -0.1734  0.0410
15222TIP3    H167157   1.578   5.877  11.434  2.0059 -0.7943 -1.6310
15222TIP3    H267158   1.666   5.755  11.452 -0.9427 -2.5770  2.2732
15223TIP3   OH267159   1.692   4.365  17.492 -0.3929 -0.2381  0.0288
15223TIP3    H167160   1.784   4.336  17.496 -0.4339 -0.2480  1.4028
15223TIP3    H267161   1.644   4.287  17.463 -0.2140 -0.9203  1.4496
15224TIP3   OH267162   0.498   5.646   3.394 -0.0484  0.8337  0.3092
15224TIP3    H167163   0.591   5.623   3.382 -0.2466  0.9309 -1.8508
15224TIP3    H267164   0.455   5.608   3.317 -2.1125 -0.6738  2.0947
15225TIP3   OH267165   4.087   1.002   5.858  0.2968 -0.7199 -0.2922
15225TIP3    H167166   3.993   0.989   5.875  0.2312  0.1417  0.0492
15225TIP3    H267167   4.089   1.058   5.781  0.5173  0.0129  0.2447
15226TIP3   OH267168   2.515   6.406   1.633  0.2416  0.1509 -1.0147
15226TIP3    H167169   2.498   6.414   1.539  0.4646 -0.6855 -1.1340
15226TIP3    H267170   2.610   6.395   1.640  0.4648  2.0078 -0.5502
15227TIP3   OH267171   0.090   3.479   6.117 -0.2260  0.0591 -0.2611
15227TIP3    H167172   0.058   3.390   6.133 -0.0696 -0.0159 -0.3617
15227TIP3    H267173   0.023   3.536   6.156 -0.4973 -0.0966 -0.4888
15228TIP3   OH267174   3.115   2.493   0.661 -0.2891  0.2781 -0.6746
15228TIP3    H167175   3.173   2.456   0.727  0.4889 -0.3510 -1.6820
15228TIP3    H267176   3.028   2.492   0.702  0.2528  0.3960  0.5188
15229TIP3   OH267177   3.136   4.000   1.505  0.2120  0.1820  0.8000
15229TIP3    H167178   3.195   4.051   1.450  2.7890 -1.8829  1.4469
15229TIP3    H267179   3.070   3.966   1.445  1.2076  0.4301 -0.4598
15230TIP3   OH267180   0.628   0.254   2.937 -0.1516  0.3232 -0.6442
15230TIP3    H167181   0.621   0.237   3.031 -1.2942  1.6645 -0.4658
15230TIP3    H267182   0.693   0.323   2.929  0.5667 -0.3695 -0.9287
15231TIP3   OH267183   2.605   3.767  13.023 -0.5273  0.1463 -0.6604
15231TIP3    H167184   2.586   3.726  12.939 -1.2321  1.2459 -1.0639
15231TIP3    H267185   2.672   3.833  13.003 -0.4546  0.1862 -0.2978
15232TIP3   OH267186   0.707   5.958   4.195 -0.9359 -0.3025 -0.3361
15232TIP3    H167187   0.784   5.903   4.202 -1.1812 -0.7276 -0.8673
15232TIP3    H267188   0.649   5.910   4.136 -2.1484 -0.6125  1.0373
15233TIP3   OH267189   2.822   0.740  11.634  0.3543  0.0285  0.1890
15233TIP3    H167190   2.822   0.645  11.642 -1.2611  0.1284  2.0393
15233TIP3    H267191   2.730   0.764  11.626  0.7061  1.4632  0.1212
15234TIP3   OH267192   1.947   3.382  15.184 -0.3729  0.7324  0.3139
15234TIP3    H167193   1.986   3.299  15.211  1.7506  1.4825 -0.2471
15234TIP3    H267194   1.929   3.428  15.266 -0.0550  0.3682  0.5902
15235TIP3   OH267195   0.456   3.765   4.658  0.6343  0.7600 -0.1115
15235TIP3    H167196   0.535   3.747   4.709  1.1747  0.5351 -1.0060
15235TIP3    H267197   0.480   3.838   4.602 -0.6781  2.5743  1.5284
15236TIP3   OH267198   1.961   4.648   4.316  0.5860 -0.4047  0.0595
15236TIP3    H167199   1.876   4.642   4.273  0.9696  1.0287 -1.0048
15236TIP3    H267200   1.986   4.740   4.305  1.7159 -0.5201  1.4408
15237TIP3   OH267201   0.586   4.498   5.827 -0.6813  0.1207  0.3993
15237TIP3    H167202   0.581   4.556   5.902 -2.8257  1.8957 -1.0067
15237TIP3    H267203   0.652   4.538   5.770 -0.9657  0.2572  0.1652
15238TIP3   OH267204   4.133   5.743  15.184  0.1850 -0.2287  0.2675
15238TIP3    H167205   4.206   5.795  15.215  0.3427  0.0144 -0.4866
15238TIP3    H267206   4.066   5.807  15.159  0.3034 -0.3785 -0.4697
15239TIP3   OH267207   1.438   6.333   0.473 -0.4151 -0.4674 -0.2108
15239TIP3    H167208   1.370   6.394   0.447  0.7995  1.2126  0.3263
15239TIP3    H267209   1.515   6.359   0.422  0.3297 -1.0523  0.5674
15240TIP3   OH267210   5.515   5.297  16.340 -0.1457 -0.4088 -0.2227
15240TIP3    H167211   5.588   5.334  16.389 -0.2133 -0.6078  0.0270
15240TIP3    H267212   5.488   5.368  16.281 -2.9480  1.5828  3.0181
15241TIP3   OH267213   3.427   6.528  17.045 -0.4384 -0.6189  0.1848
15241TIP3    H167214   3.351   6.520  17.102 -0.6168 -0.6992 -0.0619
15241TIP3    H267215   3.462   6.615  17.064 -1.1932 -0.1648 -0.4338
15242TIP3   OH267216   4.476   5.676  12.832 -0.2151  0.4982  0.0303
15242TIP3    H167217   4.470   5.760  12.786  2.0652 -0.6572 -2.6786
15242TIP3    H267218   4.546   5.688  12.896  1.8182  0.0987 -2.0012
15243TIP3   OH267219   1.740   0.014   3.659 -0.3042 -0.3002  0.1471
15243TIP3    H167220   1.755  -0.051   3.590 -0.4519  0.8175 -1.0010
15243TIP3    H267221   1.648   0.002   3.684 -0.2432 -0.7366  0.1556
15244TIP3   OH267222   5.598   0.584   0.382 -0.1731 -0.3179 -0.1842
15244TIP3    H167223   5.564   0.661   0.427 -0.3711 -0.9951  0.8712
15244TIP3    H267224   5.522   0.528   0.370 -0.2346  0.0974 -1.9429
15245TIP3   OH267225   1.795   5.022  12.052  0.6162 -0.2887  0.1090
15245TIP3    H167226   1.867   5.058  12.104 -0.8820  1.1549  1.3030
15245TIP3    H267227   1.781   5.087  11.983  1.2508 -1.2009 -0.9144
15246TIP3   OH267228   3.817   2.679   1.998 -0.2753 -0.5141 -0.7413
15246TIP3    H167229   3.802   2.689   2.092  0.9717 -1.7603 -0.3652
15246TIP3    H267230   3.734   2.648   1.963 -0.5520 -0.7151  0.0722
15247TIP3   OH267231   5.442   4.366   4.803 -0.0911 -0.2065  0.5445
15247TIP3    H167232   5.385   4.370   4.726  0.7446 -0.5386 -0.1006
15247TIP3    H267233   5.442   4.456   4.837 -0.1447  0.0342 -0.0745
15248TIP3   OH267234   3.865   2.329   3.392 -0.2228  0.5855 -0.1939
15248TIP3    H167235   3.835   2.311   3.481  1.0149 -1.1193 -0.0650
15248TIP3    H267236   3.806   2.279   3.336 -1.9569  2.8589 -0.4999
15249TIP3   OH267237   0.820   2.193   3.036 -0.0381  0.0266  0.2335
15249TIP3    H167238   0.760   2.240   2.979 -1.1581 -0.6967  0.7723
15249TIP3    H267239   0.763   2.134   3.086  0.7427  1.3524  2.8575
15250TIP3   OH267240   6.062   5.585  17.138  0.1713 -0.0615 -0.6516
15250TIP3    H167241   6.086   5.506  17.186 -0.2954  0.1890  0.0069
15250TIP3    H267242   6.061   5.654  17.204 -3.8810 -0.2998 -0.2288
15251TIP3   OH267243   4.238   3.999   4.946  0.0940  0.1856 -0.2338
15251TIP3    H167244   4.330   3.976   4.948  1.3782  4.4652  0.6488
15251TIP3    H267245   4.234   4.075   4.888 -3.1953 -0.6237 -1.3108
15252TIP3   OH267246   4.970   3.156  15.191  0.2515  0.1136  0.4877
15252TIP3    H167247   5.051   3.145  15.141  0.3043 -1.0161  0.7912
15252TIP3    H267248   4.910   3.199  15.131  0.3232 -1.1792 -0.5581
15253TIP3   OH267249   3.110   0.961   5.447  0.5653 -0.1732  0.6903
15253TIP3    H167250   3.198   0.996   5.466 -0.0026  0.6677  1.9085
15253TIP3    H267251   3.064   1.034   5.405 -0.1922  0.1299  1.9836
15254TIP3   OH267252   1.409   4.219  12.055 -0.8938 -0.0824 -0.3237
15254TIP3    H167253   1.316   4.234  12.072 -1.2281 -2.0709 -0.2149
15254TIP3    H267254   1.412   4.188  11.965 -0.1579  1.2021 -0.7679
15255TIP3   OH267255   2.040   1.605   4.061 -0.0887 -0.3091 -0.8204
15255TIP3    H167256   2.073   1.605   3.971 -0.3431 -0.7092 -0.9163
15255TIP3    H267257   2.000   1.519   4.072 -2.2361  0.5789 -1.1360
15256TIP3   OH267258   6.323   0.019  13.245 -0.6468  0.1513  0.2393
15256TIP3    H167259   6.251   0.062  13.199 -1.1105 -2.1221 -1.2973
15256TIP3    H267260   6.333  -0.066  13.202  2.7386  0.2070  0.6422
15257TIP3   OH267261   1.788   4.427  16.876  0.3987  0.1917 -0.1621
15257TIP3    H167262   1.759   4.348  16.830 -1.4382  0.1810  0.9462
15257TIP3    H267263   1.733   4.432  16.953 -0.7193  3.4536 -1.0110
15258TIP3   OH267264   1.151   1.068  17.191 -0.0327 -0.1307  0.0315
15258TIP3    H167265   1.222   1.004  17.187  0.1276  0.0808 -0.6054
15258TIP3    H267266   1.113   1.068  17.103  0.6548  1.4142 -0.3091
15259TIP3   OH267267   1.430   0.841  17.490  0.3411  0.6916  0.4634
15259TIP3    H167268   1.501   0.889  17.447  1.5739 -1.4391 -0.0317
15259TIP3    H267269   1.474   0.769  17.536 -1.4285 -0.1766  0.8957
15260TIP3   OH267270   5.353   1.204   5.546  0.0836 -0.4710  0.1543
15260TIP3    H167271   5.387   1.233   5.631 -0.3143 -0.3020  0.2587
15260TIP3    H267272   5.342   1.110   5.556 -0.1780 -0.4211  0.3732
15261TIP3   OH267273   6.266   6.667  12.091  1.1681 -0.7632  0.1471
15261TIP3    H167274   6.268   6.591  12.150 -1.3365 -0.2530  1.0338
15261TIP3    H267275   6.256   6.629  12.004 -0.5238 -1.5215  0.6201
15262TIP3   OH267276   4.042   1.661  13.550  0.0073  0.1991 -0.3856
15262TIP3    H167277   4.029   1.749  13.584 -1.4771 -0.3557  0.5581
15262TIP3    H267278   4.036   1.604  13.627 -2.2832 -0.9953 -1.3477
15263TIP3   OH267279   0.146   1.465   1.739 -0.2203 -0.1521  0.2931
15263TIP3    H167280   0.216   1.529   1.723  0.4871 -0.7697  0.8536
15263TIP3    H267281   0.148   1.406   1.664 -0.9035  0.4848 -0.2473
15264TIP3   OH267282   0.131   2.348  16.582 -0.2384 -0.4200  0.8333
15264TIP3    H167283   0.057   2.290  16.564 -1.3207  0.6443  1.6754
15264TIP3    H267284   0.107   2.430  16.538 -0.0120  0.2306  1.8897
15265TIP3   OH267285   3.393   0.020  15.601 -0.1218  0.6425  0.2914
15265TIP3    H167286   3.379   0.086  15.532 -0.0248  0.5896  0.2215
15265TIP3    H267287   3.310   0.018  15.649  0.1478  1.4017  0.7999
15266TIP3   OH267288   1.072   3.648  15.266 -0.1265 -0.6375  0.0716
15266TIP3    H167289   1.019   3.726  15.250  0.3899 -0.3692 -0.3425
15266TIP3    H267290   1.115   3.666  15.350 -1.3408 -1.2263  0.8555
15267TIP3   OH267291   3.100   5.445  12.809 -0.7690  0.2861  0.0143
15267TIP3    H167292   3.172   5.402  12.762 -0.6615  0.1678  0.2863
15267TIP3    H267293   3.086   5.391  12.886 -1.4270  0.0756 -0.2430
15268TIP3   OH267294   3.870   6.339   3.813 -0.2685 -0.1146  0.0977
15268TIP3    H167295   3.809   6.266   3.806 -0.6348  0.1467  0.5086
15268TIP3    H267296   3.956   6.301   3.794  0.1571 -1.5500  4.1223
15269TIP3   OH267297   2.655   1.415  17.227 -0.0203 -0.0163  0.5514
15269TIP3    H167298   2.723   1.428  17.294  0.5495  0.8060 -0.1771
15269TIP3    H267299   2.697   1.362  17.160 -0.5425 -0.6935  0.7405
15270TIP3   OH267300   5.073   0.660  14.577 -0.4297  0.4556  0.0001
15270TIP3    H167301   5.055   0.754  14.581 -2.0834  0.1311  1.0299
15270TIP3    H267302   5.024   0.629  14.501  1.2929  0.6316 -1.2246
15271TIP3   OH267303   2.174   3.044   0.003  0.6122 -0.5159 -0.4623
15271TIP3    H167304   2.193   2.957  -0.031  0.9072 -0.3748 -0.6618
15271TIP3    H267305   2.087   3.036   0.042 -0.0037 -0.5382 -1.7879
15272TIP3   OH267306   6.122   6.141  13.931  0.1381  0.1501  0.5888
15272TIP3    H167307   6.174   6.070  13.894 -0.5799 -1.0501  1.7645
15272TIP3    H267308   6.149   6.145  14.022  0.4168  1.6575  0.4566
15273TIP3   OH267309   3.260   5.200  14.368 -0.3405  0.4701 -0.5890
15273TIP3    H167310   3.331   5.264  14.380 -0.2476  0.0660  1.3741
15273TIP3    H267311   3.276   5.162  14.282  0.9764  1.4281 -0.8014
15274TIP3   OH267312   2.652   0.549   2.339 -0.5014 -0.2658 -0.0894
15274TIP3    H167313   2.603   0.496   2.276  0.0296  0.5787 -1.2411
15274TIP3    H267314   2.584   0.597   2.387 -0.8554  0.2455 -1.0767
15275TIP3   OH267315   6.362   6.539   5.826 -0.3816 -0.1669  0.6725
15275TIP3    H167316   6.281   6.591   5.821  0.1356  0.5737 -0.6354
15275TIP3    H267317   6.352   6.473   5.758  0.8194  1.0447 -0.7556
15276TIP3   OH267318   2.689   2.782  11.471 -0.4069  0.6909 -1.0192
15276TIP3    H167319   2.746   2.845  11.515  0.1418 -0.3102 -0.2359
15276TIP3    H267320   2.727   2.770  11.385  0.1243  0.6170 -0.7768
15277TIP3   OH267321   6.590   1.430  11.610  0.2062 -0.1245 -0.0892
15277TIP3    H167322   6.684   1.431  11.588  0.4496 -0.3632  0.8810
15277TIP3    H267323   6.582   1.361  11.676 -0.0935  1.8936  2.1411
15278TIP3   OH267324   2.048   4.642   2.954 -0.6056 -0.1635 -0.0277
15278TIP3    H167325   1.997   4.656   2.874  0.8811 -1.1254 -1.1899
15278TIP3    H267326   2.136   4.620   2.924  0.8443  2.3453  1.8853
15279TIP3   OH267327   5.879   3.472  12.265  0.9723  0.1758 -0.0607
15279TIP3    H167328   5.852   3.560  12.238  0.5328  0.1726  0.3535
15279TIP3    H267329   5.952   3.487  12.325  1.4389  0.2169 -0.6298
15280TIP3   OH267330   3.338   1.968  13.869 -0.3260  0.3314  0.2874
15280TIP3    H167331   3.417   1.915  13.857 -0.1908  0.5871  0.0406
15280TIP3    H267332   3.294   1.929  13.945 -1.0402 -1.1355 -0.8237
15281TIP3   OH267333   3.692   1.993   0.449 -0.3319 -0.5278  1.1100
15281TIP3    H167334   3.749   1.918   0.431 -0.8727 -0.8428  0.6978
15281TIP3    H267335   3.641   1.966   0.526  0.9411  0.2455  2.2784
15282TIP3   OH267336   5.558   5.051  13.446  0.8618  0.4435  0.4023
15282TIP3    H167337   5.623   4.997  13.491  0.2542  0.5151  1.4059
15282TIP3    H267338   5.605   5.089  13.373  1.4050 -1.1639 -0.1370
15283TIP3   OH267339   3.467   2.949   6.537 -0.0240  0.5753 -0.2749
15283TIP3    H167340   3.513   2.961   6.454  0.5688  0.4262  0.0260
15283TIP3    H267341   3.443   3.037   6.565 -0.1599  0.6314 -0.5671
15284TIP3   OH267342   6.104   5.960   3.755  0.0005  0.3210 -0.8930
15284TIP3    H167343   6.058   6.025   3.701 -2.2894  0.2977  0.9295
15284TIP3    H267344   6.118   6.004   3.839  1.4582 -0.4469 -0.6917
15285TIP3   OH267345   4.499   2.335  13.625 -0.2530  0.8868  0.1706
15285TIP3    H167346   4.560   2.401  13.659  0.0019 -0.2058  1.9606
15285TIP3    H267347   4.418   2.384  13.607  0.9591  2.2894 -1.8805
15286TIP3   OH267348   3.538   3.001  17.473 -0.2126  0.9402 -0.1931
15286TIP3    H167349   3.468   3.039  17.526 -0.8589 -0.0809 -0.2794
15286TIP3    H267350   3.535   3.050  17.391 -2.8570 -0.9258 -1.3840
15287TIP3   OH267351   3.975   6.216  11.273 -0.5366 -0.4866 -0.1652
15287TIP3    H167352   3.925   6.167  11.338  0.1541  0.0903  0.8370
15287TIP3    H267353   3.922   6.294  11.257  0.1031  0.2383  1.0708
15288TIP3   OH267354   1.095   5.885  10.955  0.0049  0.2130 -0.5764
15288TIP3    H167355   1.008   5.901  10.991 -0.6057 -1.6942 -1.0872
15288TIP3    H267356   1.149   5.958  10.988 -1.1350  0.0187  1.9396
15289TIP3   OH267357   3.326   5.729  17.230 -0.2903 -0.2027  0.0108
15289TIP3    H167358   3.287   5.780  17.301  0.5110 -0.3439  0.5769
15289TIP3    H267359   3.275   5.750  17.153  0.1276  1.5961  0.1917
15290TIP3   OH267360   6.545   1.667   3.770 -0.1429  0.4093  0.7364
15290TIP3    H167361   6.635   1.649   3.798 -0.2574 -0.7769  0.3733
15290TIP3    H267362   6.552   1.751   3.724  0.5986  0.8057  1.5187
15291TIP3   OH267363   4.232   4.164  12.764  0.8386 -0.3981 -0.0989
15291TIP3    H167364   4.162   4.170  12.829 -1.1220  1.5012 -2.1857
15291TIP3    H267365   4.302   4.218  12.799 -0.7662  1.8342 -0.1422
15292TIP3   OH267366   6.190   5.928   5.528  0.0615 -0.2296 -0.0417
15292TIP3    H167367   6.100   5.898   5.539 -0.7505  1.8181 -0.7060
15292TIP3    H267368   6.188   5.986   5.451  2.4917 -2.1806 -1.7767
15293TIP3   OH267369   0.991   5.756   5.405 -0.1216  0.4898  0.0180
15293TIP3    H167370   1.007   5.672   5.449  2.1430  0.1613 -1.2900
15293TIP3    H267371   0.908   5.786   5.441 -0.6226 -1.9402  1.1059
15294TIP3   OH267372   2.603   0.599   2.727  0.2860 -1.3680 -0.3912
15294TIP3    H167373   2.681   0.545   2.712 -0.0969 -1.7443 -1.0199
15294TIP3    H267374   2.551   0.549   2.789  1.0427 -0.6105  0.9212
15295TIP3   OH267375   4.711   3.701  14.651 -0.3003 -0.6269  0.2560
15295TIP3    H167376   4.689   3.611  14.673 -1.0311 -0.6724 -0.5697
15295TIP3    H267377   4.803   3.698  14.625 -0.2117 -1.0580  0.6146
15296TIP3   OH267378   3.904   2.329   4.321  0.0312 -1.1050  0.4760
15296TIP3    H167379   3.922   2.347   4.229  1.7486 -1.3194  0.7357
15296TIP3    H267380   3.816   2.292   4.322  0.3669 -2.0369 -1.1924
15297TIP3   OH267381   0.738   5.055  12.398  0.7151  0.4573  0.1012
15297TIP3    H167382   0.739   5.088  12.488  0.2722  2.2785 -0.5200
15297TIP3    H267383   0.758   5.132  12.345  1.7526 -0.7605 -1.3227
15298TIP3   OH267384   5.704   4.402  12.499 -0.0136 -0.0121 -0.0957
15298TIP3    H167385   5.709   4.386  12.594 -0.6436  0.2666 -0.0134
15298TIP3    H267386   5.793   4.429  12.475  0.0493  0.3202  0.4874
15299TIP3   OH267387   0.020   4.919   1.824  0.1508 -0.5061  0.3663
15299TIP3    H167388   0.002   4.914   1.731 -1.8396  2.9350  0.4078
15299TIP3    H267389   0.114   4.937   1.830 -0.2576  2.7706 -1.2849
15300TIP3   OH267390   0.658   6.070  14.368  0.3597 -0.0625  0.2123
15300TIP3    H167391   0.596   6.068  14.441 -1.0647  2.3185 -0.8135
15300TIP3    H267392   0.635   5.995  14.314 -1.1623  0.3638  0.2338
15301TIP3   OH267393   4.768   5.612   2.365 -0.2747 -0.9422 -0.3638
15301TIP3    H167394   4.730   5.699   2.375  0.0865 -1.0115  2.0439
15301TIP3    H267395   4.826   5.620   2.289 -1.9197  0.2682 -1.5628
15302TIP3   OH267396   5.146   1.661   5.046  0.8555 -0.8695  0.4399
15302TIP3    H167397   5.056   1.692   5.058  0.3183 -2.7033  1.5344
15302TIP3    H267398   5.200   1.738   5.064 -0.4726  0.7040 -1.7731
15303TIP3   OH267399   2.649   2.688  14.703  0.0410  0.6691  0.0404
15303TIP3    H167400   2.594   2.766  14.712  0.6564  1.1222 -0.0120
15303TIP3    H267401   2.590   2.615  14.718 -0.7867  1.1053 -0.9948
15304TIP3   OH267402   3.546   1.943  11.760  0.8804  0.7620 -0.1107
15304TIP3    H167403   3.627   1.932  11.809  0.1296 -0.6470  0.9066
15304TIP3    H267404   3.517   1.853  11.742  0.0369  1.2398 -1.2995
15305TIP3   OH267405   3.064   1.338   5.719 -0.1432  1.1872  0.2784
15305TIP3    H167406   3.062   1.273   5.789  0.4450  2.7845  1.8673
15305TIP3    H267407   3.090   1.289   5.641 -2.6801 -1.0518  0.6614
15306TIP3   OH267408   2.200   6.241  14.936 -0.3380  0.1159 -0.0745
15306TIP3    H167409   2.290   6.211  14.940 -0.7000 -0.9478  0.6206
15306TIP3    H267410   2.200   6.312  14.872  0.7880 -0.5608 -0.8370
15307TIP3   OH267411   3.156   3.545  12.745 -0.1445 -0.0469  0.3140
15307TIP3    H167412   3.184   3.492  12.670 -1.4603  0.7910 -0.8276
15307TIP3    H267413   3.092   3.489  12.790  0.8800 -0.6756  1.0227
15308TIP3   OH267414   4.923   3.184  12.353  0.6752 -0.0878 -0.1699
15308TIP3    H167415   4.901   3.276  12.360  1.1357  0.0108  0.0255
15308TIP3    H267416   4.913   3.163  12.260  2.0475  0.5360 -0.4675
15309TIP3   OH267417   4.932   2.953  12.578  0.5114  0.0796  0.2095
15309TIP3    H167418   4.988   3.018  12.536 -0.7686  0.9567 -0.1823
15309TIP3    H267419   4.870   2.927  12.510 -0.4739  0.1930  1.0505
15310TIP3   OH267420   5.347   4.542  11.431 -0.1245  0.3000 -0.3445
15310TIP3    H167421   5.407   4.554  11.357  0.3208 -2.4105 -0.5032
15310TIP3    H267422   5.312   4.454  11.420 -3.6932  1.5029  0.1307
15311TIP3   OH267423   6.483   1.422  14.375  0.1938 -0.4470 -0.7285
15311TIP3    H167424   6.573   1.410  14.405 -0.1381 -0.4644  0.2926
15311TIP3    H267425   6.475   1.363  14.300  0.5752 -1.6216  0.1261
15312TIP3   OH267426   1.223   5.892  13.584 -0.2933  0.1072  0.3998
15312TIP3    H167427   1.134   5.922  13.566 -0.2026  0.1510  0.0109
15312TIP3    H267428   1.274   5.972  13.597 -0.8187  0.0761  3.2777
15313TIP3   OH267429   2.264   6.498   4.913 -0.4801 -0.2687  0.2851
15313TIP3    H167430   2.243   6.431   4.848 -1.4202  0.6945 -0.4395
15313TIP3    H267431   2.340   6.544   4.877 -0.5555 -0.2005  0.2117
15314TIP3   OH267432   5.005   2.366   3.743 -0.1283  0.4589 -0.3275
15314TIP3    H167433   5.038   2.454   3.727  1.6841  0.0838  1.0926
15314TIP3    H267434   5.060   2.309   3.689  0.3523 -0.0124  0.6378
15315TIP3   OH267435   2.728   0.096   0.253  0.1424  0.3947  0.0505
15315TIP3    H167436   2.648   0.046   0.238  0.0520  0.0935  1.3677
15315TIP3    H267437   2.797   0.031   0.254 -0.2213 -0.2289  4.1060
15316TIP3   OH267438   2.812   0.861   3.999  0.0789 -0.6427  0.7606
15316TIP3    H167439   2.843   0.849   4.089  0.5022  0.0191  0.7139
15316TIP3    H267440   2.740   0.924   4.007 -0.0012 -0.7205  0.6554
15317TIP3   OH267441   2.723   6.204   1.058  0.7548  0.6344 -0.1774
15317TIP3    H167442   2.642   6.215   1.008  0.1031 -0.5108  0.5840
15317TIP3    H267443   2.763   6.125   1.023 -0.1422 -0.6813  1.5969
15318TIP3   OH267444   2.264   0.092   2.604 -0.0105  0.5186  0.3403
15318TIP3    H167445   2.193   0.034   2.631  1.1066 -0.7748  0.5653
15318TIP3    H267446   2.270   0.156   2.675  0.1667 -0.3886  1.1694
15319TIP3   OH267447   2.092   0.292  14.975 -0.1288  0.8099  0.0726
15319TIP3    H167448   2.141   0.341  14.909 -0.9266  0.4836 -0.7899
15319TIP3    H267449   2.029   0.241  14.925  0.6581 -1.1088  0.9520
15320TIP3   OH267450   5.233   6.689   0.966  0.1174 -1.0282  0.4526
15320TIP3    H167451   5.259   6.740   0.889  2.8315 -1.1605  1.1624
15320TIP3    H267452   5.150   6.648   0.941 -1.6536  2.7335 -0.5698
15321TIP3   OH267453   3.282   1.441  12.737 -0.0590  0.0323  0.3991
15321TIP3    H167454   3.236   1.511  12.692 -0.0656  0.1217  0.5422
15321TIP3    H267455   3.323   1.484  12.812 -1.3646 -0.3663  1.3923
15322TIP3   OH267456   6.260   4.329   3.338 -0.0265  0.1845  0.3369
15322TIP3    H167457   6.190   4.352   3.400  0.3311  0.2352  0.7258
15322TIP3    H267458   6.273   4.408   3.286 -0.9008 -0.1151 -0.3727
15323TIP3   OH267459   3.785   2.123  12.598 -0.3441 -0.3440 -0.7252
15323TIP3    H167460   3.736   2.098  12.676  0.8432 -1.5981 -0.3323
15323TIP3    H267461   3.853   2.182  12.630 -1.5918  1.4770 -1.2822
15324TIP3   OH267462   0.740   3.083   4.497 -0.0454 -0.6292 -0.3166
15324TIP3    H167463   0.674   3.095   4.429 -0.4290 -2.0915 -0.2398
15324TIP3    H267464   0.823   3.101   4.452 -0.2802 -1.7301 -1.2644
15325TIP3   OH267465   0.312   0.997  16.192 -0.1185  0.1061  0.2338
15325TIP3    H167466   0.218   1.013  16.197 -0.2199 -0.4080  0.0674
15325TIP3    H267467   0.334   1.014  16.101 -0.2120 -0.5877  0.0765
15326TIP3   OH267468   5.009   4.020  13.514 -0.6304 -0.1665  0.0674
15326TIP3    H167469   5.071   4.009  13.443  0.4270 -5.3794  1.4144
15326TIP3    H267470   5.041   4.097  13.562  1.1646  0.8339 -2.4963
15327TIP3   OH267471   4.486   0.369  15.532 -0.7204 -0.5405  0.1442
15327TIP3    H167472   4.452   0.380  15.443 -1.1418 -0.3285  0.3317
15327TIP3    H267473   4.581   0.365  15.520 -0.8147 -1.2751 -0.3895
15328TIP3   OH267474   6.485   1.717  17.241 -0.0563  0.4727  0.1304
15328TIP3    H167475   6.446   1.728  17.327  1.6993 -0.7483  1.1492
15328TIP3    H267476   6.575   1.689  17.258  0.8754  1.8024 -2.0922
15329TIP3   OH267477   2.125   4.178  12.001 -0.0674  0.0689 -0.0276
15329TIP3    H167478   2.193   4.115  11.979  0.0696  1.0935 -3.0765
15329TIP3    H267479   2.043   4.129  11.994  0.1735 -0.3404  0.0298
15330TIP3   OH267480   3.015   3.597   0.477 -0.5712  0.2053 -0.7666
15330TIP3    H167481   2.965   3.678   0.465  0.5645  1.1393  0.4739
15330TIP3    H267482   3.104   3.620   0.452 -0.3783 -0.9102 -1.1692
15331TIP3   OH267483   3.274   4.525  15.265 -0.0676  0.3230  0.3525
15331TIP3    H167484   3.245   4.521  15.356 -1.8345 -0.9906 -0.2119
15331TIP3    H267485   3.355   4.475  15.263 -1.0723 -1.4150  0.8763
15332TIP3   OH267486   3.375   4.683   0.240  0.2934 -0.4231  0.6405
15332TIP3    H167487   3.299   4.734   0.214  1.0485  0.8133  0.7775
15332TIP3    H267488   3.411   4.729   0.316  0.7088 -1.4510  1.0945
15333TIP3   OH267489   0.535   2.664   2.935 -0.1231  0.1145 -0.3224
15333TIP3    H167490   0.547   2.657   3.030 -0.5500  1.0906 -0.1864
15333TIP3    H267491   0.617   2.701   2.904  0.2239 -0.7069 -0.4133
15334TIP3   OH267492   6.545   1.519  12.100  0.6672 -0.1786  0.3677
15334TIP3    H167493   6.554   1.582  12.172  0.7006 -0.3646  0.5258
15334TIP3    H267494   6.610   1.548  12.036  1.0354 -0.3509  0.6594
15335TIP3   OH267495   2.717   0.997   3.179  0.6183  0.3559 -0.2195
15335TIP3    H167496   2.711   1.020   3.086  0.0574  1.4933  0.0732
15335TIP3    H267497   2.707   0.902   3.181  1.1959  0.2556 -1.3644
15336TIP3   OH267498   3.000   1.287   3.355  0.0071  0.2897 -0.6292
15336TIP3    H167499   2.976   1.194   3.360  0.6699  0.0523 -1.5508
15336TIP3    H267500   2.948   1.321   3.283  1.0798  0.1932 -1.4707
15337TIP3   OH267501   6.365   1.754   0.933  0.0554 -0.4958  0.5216
15337TIP3    H167502   6.326   1.803   0.861  1.6068 -1.6585 -1.1913
15337TIP3    H267503   6.316   1.783   1.011 -0.6252  1.9899 -0.7250
15338TIP3   OH267504   0.871   5.262  16.570  0.8564  0.0602 -0.0375
15338TIP3    H167505   0.929   5.281  16.496  0.0260  0.9363 -0.4846
15338TIP3    H267506   0.795   5.219  16.531  2.4796 -4.0792  0.8978
15339TIP3   OH267507   2.334   1.251  13.324 -0.6973 -0.9874 -0.0390
15339TIP3    H167508   2.304   1.195  13.253  0.1714 -1.6207  0.0945
15339TIP3    H267509   2.408   1.299  13.288 -0.9450 -0.4810  0.0996
15340TIP3   OH267510   6.628   5.453  12.437  0.2631 -0.2334 -0.1455
15340TIP3    H167511   6.643   5.498  12.354  0.0170  1.5179  0.6999
15340TIP3    H267512   6.616   5.361  12.414 -0.7081  0.3483 -2.1410
15341TIP3   OH267513   4.416   2.281  15.865  0.4068 -0.1844  0.3751
15341TIP3    H167514   4.358   2.224  15.915 -0.4523  1.1957  1.0390
15341TIP3    H267515   4.502   2.270  15.906  0.9537 -3.1025 -1.3283
15342TIP3   OH267516   2.959   0.732  13.277 -0.3703  0.2017  0.2258
15342TIP3    H167517   3.002   0.740  13.363 -1.6979 -0.1368  0.9552
15342TIP3    H267518   2.891   0.799  13.278  0.1150  0.7410 -0.9218
15343TIP3   OH267519   2.969   0.795  11.907  0.3370  0.4884  0.9401
15343TIP3    H167520   2.921   0.784  11.989 -0.9879  0.2580  0.1506
15343TIP3    H267521   2.908   0.842  11.850  0.9944  0.0602 -0.1374
15344TIP3   OH267522   6.623   2.025   4.136  0.6221 -0.2787 -0.3162
15344TIP3    H167523   6.538   2.030   4.180  0.7215  0.5366 -0.1909
15344TIP3    H267524   6.687   2.039   4.205  0.7885  0.7165 -0.6539
15345TIP3   OH267525   3.177   5.599   5.564 -0.8635 -0.4046 -0.5717
15345TIP3    H167526   3.154   5.569   5.652  1.3432  0.7951  0.4853
15345TIP3    H267527   3.236   5.531   5.531 -2.0883 -1.1202 -1.4126
15346TIP3   OH267528   4.975   2.000  16.819  0.1921 -0.1287 -0.2809
15346TIP3    H167529   5.035   2.041  16.757 -0.5650  4.0802  1.4177
15346TIP3    H267530   4.888   2.016  16.783 -0.1155 -0.7502  0.1713
15347TIP3   OH267531   4.469   4.578   0.822 -0.0878  0.1521 -0.6222
15347TIP3    H167532   4.561   4.604   0.815  0.0623  0.4563  1.7034
15347TIP3    H267533   4.471   4.483   0.821  0.4825  0.1122  1.1271
15348TIP3   OH267534   1.003   6.401  14.248  0.5548 -0.1732 -0.3006
15348TIP3    H167535   0.989   6.318  14.293  0.9489 -0.3512 -0.4976
15348TIP3    H267536   0.960   6.390  14.163  1.0894 -0.3881 -0.5494
15349TIP3   OH267537   6.573   6.717  16.855 -0.1719  0.6141  1.3894
15349TIP3    H167538   6.535   6.803  16.876  2.3569  1.5778  2.3339
15349TIP3    H267539   6.654   6.737  16.808  0.3738 -1.2809  1.4549
15350TIP3   OH267540   3.582   6.140   6.372  0.1737  0.4222 -0.2263
15350TIP3    H167541   3.657   6.088   6.399  1.1024  1.1348 -1.3498
15350TIP3    H267542   3.526   6.144   6.450  1.5712  0.3898  0.8065
15351TIP3   OH267543   2.884   3.932  15.812  0.2762  0.2003  0.3073
15351TIP3    H167544   2.902   3.846  15.850 -0.4172 -0.5562 -0.9847
15351TIP3    H267545   2.805   3.963  15.857 -0.7953 -0.8829 -0.7409
15352TIP3   OH267546   6.634   1.001   3.222  0.1903 -0.1691 -0.6009
15352TIP3    H167547   6.605   0.916   3.256  0.0053 -0.3629 -1.2142
15352TIP3    H267548   6.708   0.979   3.165  0.6848  0.1789 -0.0985
15353TIP3   OH267549   4.932   2.537   4.842 -0.1489  0.2644  0.4133
15353TIP3    H167550   4.992   2.481   4.792  2.3021  2.0241  1.1776
15353TIP3    H267551   4.849   2.531   4.795  0.2549 -3.1341 -0.1034
15354TIP3   OH267552   0.381   1.114  13.956 -0.0367 -0.2634  0.0617
15354TIP3    H167553   0.419   1.146  13.874 -0.6204  1.7694  0.5293
15354TIP3    H267554   0.300   1.165  13.966  1.5914  1.9895  3.4563
15355TIP3   OH267555   6.295   3.100  13.317 -0.3464  0.0984  0.1841
15355TIP3    H167556   6.342   3.077  13.397  0.5244  0.1150 -0.3036
15355TIP3    H267557   6.246   3.021  13.294  0.4344 -0.3538  0.0285
15356TIP3   OH267558   0.580   5.586   4.579 -0.1614 -0.3331 -0.1666
15356TIP3    H167559   0.623   5.661   4.620  0.5915 -0.7290 -0.2026
15356TIP3    H267560   0.504   5.623   4.534  0.4735  0.4846 -0.5944
15357TIP3   OH267561   3.276   6.622   1.761 -0.0313 -0.0839 -0.3216
15357TIP3    H167562   3.273   6.598   1.669  0.8614  0.9415 -0.6468
15357TIP3    H267563   3.205   6.686   1.771  1.7211  2.1191 -1.0708
15358TIP3   OH267564   4.867   3.854   1.336  0.1964  0.4839 -1.0769
15358TIP3    H167565   4.822   3.883   1.257 -0.5353  0.2541 -0.7515
15358TIP3    H267566   4.859   3.759   1.336 -0.9513  0.5477 -0.0875
15359TIP3   OH267567   2.981   2.042  15.586 -0.2871 -0.1454  0.6384
15359TIP3    H167568   2.993   1.947  15.581 -0.7200 -0.1680 -0.2737
15359TIP3    H267569   2.996   2.073  15.497 -2.3537  0.3468  0.4012
15360TIP3   OH267570   4.534   1.796   1.039  0.3691  0.4567 -0.1546
15360TIP3    H167571   4.441   1.818   1.048  0.1150 -1.1788  1.7037
15360TIP3    H267572   4.570   1.810   1.126  1.7224  0.3224 -0.6797
15361TIP3   OH267573   3.910   1.982  13.312 -0.6762  0.4738  0.5029
15361TIP3    H167574   3.991   2.002  13.358 -0.5766  1.1235  0.0529
15361TIP3    H267575   3.923   1.894  13.276 -0.4249  0.3165  0.9796
15362TIP3   OH267576   1.716   0.492   1.869  0.3455  0.2478 -0.6803
15362TIP3    H167577   1.663   0.556   1.822 -0.2210 -1.1980 -2.0518
15362TIP3    H267578   1.678   0.407   1.848 -1.0865 -0.5090  3.7310
15363TIP3   OH267579   3.525   4.687   3.356 -0.0774 -0.0701  0.1274
15363TIP3    H167580   3.621   4.682   3.361 -0.0398 -0.6906 -0.8683
15363TIP3    H267581   3.494   4.615   3.411  0.0347 -0.1533  0.0816
15364TIP3   OH267582   5.153   3.240  11.744 -0.5674  0.2593  0.1483
15364TIP3    H167583   5.103   3.158  11.746  1.5869 -1.2186  3.9326
15364TIP3    H267584   5.102   3.300  11.798 -0.2867  0.1386  0.5484
15365TIP3   OH267585   3.804   0.061  11.715 -0.0405  0.2530  0.5190
15365TIP3    H167586   3.832   0.151  11.727 -2.3936  0.9740  1.1095
15365TIP3    H267587   3.762   0.060  11.628  0.7851 -0.5170  0.1109
15366TIP3   OH267588   5.060   6.514   3.017  0.2892  0.4015 -0.4529
15366TIP3    H167589   5.141   6.564   3.022 -0.7211  1.9719  1.5340
15366TIP3    H267590   5.081   6.430   3.059  1.3309  0.0494 -1.6104
15367TIP3   OH267591   5.196   2.480   3.299 -0.0399 -0.5489  0.2307
15367TIP3    H167592   5.220   2.425   3.225  0.5941  0.8221 -0.6254
15367TIP3    H267593   5.245   2.561   3.286 -1.3318  0.4358  1.1647
15368TIP3   OH267594   3.513   0.871  12.998 -0.2612 -0.5163  0.0316
15368TIP3    H167595   3.439   0.932  12.994  1.3133  1.6044  1.0266
15368TIP3    H267596   3.473   0.786  13.015 -2.4722  0.5089  0.3700
15369TIP3   OH267597   0.460   1.716  13.467  0.4643 -0.4422 -0.0639
15369TIP3    H167598   0.550   1.684  13.476  0.8328  0.7162  0.5937
15369TIP3    H267599   0.462   1.802  13.508 -0.3927  0.6260 -2.1665
15370TIP3   OH267600   6.574   2.337  12.294  0.0818  0.3212 -1.0155
15370TIP3    H167601   6.573   2.251  12.337  0.4586  0.2313 -1.1830
15370TIP3    H267602   6.489   2.375  12.316  0.4961  0.5321  0.3179
15371TIP3   OH267603   0.036   6.088  12.792  0.5517 -0.1251 -0.0897
15371TIP3    H167604   0.043   6.155  12.724  0.9636  0.2782  0.3439
15371TIP3    H267605   0.048   6.005  12.746 -2.6935 -0.1674 -1.1473
15372TIP3   OH267606   2.689   0.248   2.354 -0.8187  0.3170  0.4211
15372TIP3    H167607   2.625   0.262   2.424 -0.6373 -1.0077  0.8763
15372TIP3    H267608   2.772   0.232   2.400 -0.6719 -0.4354 -0.0856
15373TIP3   OH267609   2.235   4.338  14.204  0.0073  0.7331 -0.3259
15373TIP3    H167610   2.140   4.340  14.220  0.1837  1.8411  0.6668
15373TIP3    H267611   2.271   4.401  14.265  1.1693  2.1622 -2.3648
15374TIP3   OH267612   3.438   1.937   6.141 -0.0022 -0.1534  0.3145
15374TIP3    H167613   3.411   2.016   6.188  1.0792 -2.1023  4.7375
15374TIP3    H267614   3.372   1.871   6.163  1.4005 -1.5785  0.4497
15375TIP3   OH267615   3.874   1.407   4.247  0.4066  0.1271 -0.5251
15375TIP3    H167616   3.968   1.387   4.245  0.4216  0.0412  0.5973
15375TIP3    H267617   3.859   1.440   4.335 -0.4623  0.9476 -0.9781
15376TIP3   OH267618   0.617   3.945  11.172 -0.0671 -0.3841 -0.5956
15376TIP3    H167619   0.585   3.954  11.262 -0.5930 -1.5450 -0.6455
15376TIP3    H267620   0.696   3.892  11.180 -0.0986 -0.4628 -0.8031
15377TIP3   OH267621   4.853   3.129  16.010 -0.5040 -0.8141  0.3346
15377TIP3    H167622   4.818   3.168  15.930  0.7352  2.6035  1.2522
15377TIP3    H267623   4.777   3.119  16.068 -0.8778  0.7810  0.1752
15378TIP3   OH267624   0.142   2.074  14.054  0.1060 -0.8777  0.0659
15378TIP3    H167625   0.163   1.990  14.011  1.0328 -0.6655  0.0755
15378TIP3    H267626   0.055   2.096  14.021  0.3758 -1.2234 -0.9378
15379TIP3   OH267627   0.599   3.685  15.467 -0.5604  0.2233  0.5659
15379TIP3    H167628   0.673   3.636  15.431 -1.7411 -0.8886 -0.4154
15379TIP3    H267629   0.559   3.727  15.391 -1.8708 -0.4829  0.8427
15380TIP3   OH267630   1.486   0.628  13.062 -0.0023 -0.2889 -0.9315
15380TIP3    H167631   1.417   0.606  13.125  1.5505  1.2081  1.4533
15380TIP3    H267632   1.511   0.544  13.025 -0.4060 -1.4055  1.1389
15381TIP3   OH267633   3.453   4.574  13.540  0.0663 -0.1371 -0.4782
15381TIP3    H167634   3.504   4.502  13.503  2.8317  0.6892  1.4040
15381TIP3    H267635   3.445   4.637  13.468  1.5247 -0.4333 -0.9468
15382TIP3   OH267636   5.870   3.999  15.242  0.5758 -0.7279  0.1835
15382TIP3    H167637   5.954   4.014  15.198 -0.0603 -0.5118 -0.9983
15382TIP3    H267638   5.848   3.908  15.222 -0.2758 -0.2901 -0.9727
15383TIP3   OH267639   3.724   4.866   0.608 -0.2579 -0.1508 -0.3982
15383TIP3    H167640   3.669   4.803   0.654  0.2160  0.1647  0.6263
15383TIP3    H267641   3.808   4.820   0.596  0.0473  0.2298  0.2376
15384TIP3   OH267642   3.367   1.907   0.395 -0.5229  0.3583 -0.6215
15384TIP3    H167643   3.407   1.823   0.371  2.5644  1.2396  0.8467
15384TIP3    H267644   3.332   1.892   0.483  1.2386  0.8548  0.2182
15385TIP3   OH267645   1.968   0.617   0.152 -0.6604  0.6391  0.0287
15385TIP3    H167646   2.045   0.634   0.098  0.5745 -1.1082  1.1360
15385TIP3    H267647   1.962   0.693   0.211  0.3243  0.7064  0.0509
15386TIP3   OH267648   6.519   2.073   0.956 -0.7034  0.5982 -0.2484
15386TIP3    H167649   6.595   2.048   0.903  1.1944  2.1042  1.5916
15386TIP3    H267650   6.535   2.034   1.042 -2.6927 -0.1156 -0.1356
15387TIP3   OH267651   0.159   6.486   4.220 -0.3560 -0.6698 -0.0843
15387TIP3    H167652   0.125   6.447   4.139 -1.1754 -1.0617  0.4370
15387TIP3    H267653   0.087   6.538   4.254  0.1942 -0.0003  0.0800
15388TIP3   OH267654   3.395   2.615  14.551  0.1198  0.3662  0.3946
15388TIP3    H167655   3.445   2.533  14.545 -1.2352 -0.4864  0.0965
15388TIP3    H267656   3.392   2.635  14.644  1.6567  0.8681  0.3523
15389TIP3   OH267657   1.329   1.696   6.149  0.3192  0.3056  0.4219
15389TIP3    H167658   1.375   1.616   6.172 -1.0506 -0.5843  0.1889
15389TIP3    H267659   1.312   1.739   6.233 -0.5961 -0.6107  0.7252
15390TIP3   OH267660   1.883   5.273   1.359 -0.1749  0.0254 -0.4592
15390TIP3    H167661   1.955   5.313   1.407  0.8066 -0.0405 -1.8249
15390TIP3    H267662   1.816   5.341   1.355  0.6802  0.8609 -1.0362
15391TIP3   OH267663   1.711   5.206  15.886 -0.0634 -0.7941 -0.0482
15391TIP3    H167664   1.669   5.284  15.923  1.2126 -0.1535  0.1248
15391TIP3    H267665   1.735   5.153  15.962 -0.8624 -1.3347 -0.1624
15392TIP3   OH267666   4.534   0.335  16.280 -0.0465 -0.7022 -0.5869
15392TIP3    H167667   4.482   0.378  16.348  2.3239 -0.6506  1.3277
15392TIP3    H267668   4.514   0.385  16.200  0.5258  2.2651  0.9785
15393TIP3   OH267669   3.672   6.010   2.915 -0.6604 -0.5044 -0.4231
15393TIP3    H167670   3.619   5.975   2.986 -0.8451  0.2061 -0.2008
15393TIP3    H267671   3.726   5.936   2.886 -0.8810 -0.9061  0.1751
15394TIP3   OH267672   3.299   0.690   5.572 -0.9231 -0.1822  0.4806
15394TIP3    H167673   3.302   0.616   5.633  3.0389  0.4321  1.2513
15394TIP3    H267674   3.294   0.767   5.628 -1.6456  0.2783 -0.1928
15395TIP3   OH267675   0.099   0.615  12.106  0.0210 -0.3910  0.1733
15395TIP3    H167676   0.102   0.623  12.202  0.6751 -0.9166  0.2019
15395TIP3    H267677   0.065   0.527  12.091  0.3720 -0.4855 -0.0701
15396TIP3   OH267678   0.647   2.942  14.257  0.2906 -0.2527  0.0891
15396TIP3    H167679   0.607   3.021  14.294  0.2279  0.0170 -0.5411
15396TIP3    H267680   0.680   2.894  14.333 -1.1195 -0.4228  0.6349
15397TIP3   OH267681   5.441   6.679  15.733  0.2501 -0.0569 -0.0693
15397TIP3    H167682   5.376   6.613  15.758  1.5142 -2.0609 -1.6864
15397TIP3    H267683   5.477   6.710  15.816 -2.8049  1.2925  0.9097
15398TIP3   OH267684   0.855   1.765   4.005 -0.8593 -0.0999  0.2968
15398TIP3    H167685   0.771   1.807   3.985 -1.6630 -1.0010  1.5731
15398TIP3    H267686   0.891   1.816   4.078  0.7447  1.5279 -1.5175
15399TIP3   OH267687   2.296   2.198   0.059  0.3197 -0.5118 -0.6053
15399TIP3    H167688   2.231   2.180  -0.010 -0.6044  2.3510 -0.6281
15399TIP3    H267689   2.380   2.196   0.013 -0.2412  0.8387 -1.8064
15400TIP3   OH267690   6.033   3.152   1.035  0.2564 -0.4330  0.5174
15400TIP3    H167691   6.018   3.135   0.942  2.1789 -0.4910  0.1703
15400TIP3    H267692   5.965   3.102   1.080  0.1795 -1.6060 -0.8139
15401TIP3   OH267693   3.475   2.351   0.171  0.3397 -0.4214  0.1200
15401TIP3    H167694   3.429   2.429   0.201  3.3076  1.4306  0.2372
15401TIP3    H267695   3.503   2.306   0.251  1.0823 -0.0339  0.0827
15402TIP3   OH267696   2.830   0.153  11.515  0.6717  0.4260  0.6357
15402TIP3    H167697   2.741   0.162  11.549  0.3706 -0.7013  0.1986
15402TIP3    H267698   2.860   0.068  11.548  0.9610  0.0407 -0.5590
15403TIP3   OH267699   1.770   2.991  16.075 -0.2657  0.0987  0.2998
15403TIP3    H167700   1.746   3.079  16.104  1.6391  0.1504  1.9455
15403TIP3    H267701   1.800   2.946  16.154 -2.0426 -2.4098 -0.3066
15404TIP3   OH267702   3.625   4.875  12.395 -0.1066 -0.6368  0.3948
15404TIP3    H167703   3.595   4.805  12.337  0.9328 -0.6640 -0.1436
15404TIP3    H267704   3.720   4.861  12.402 -0.3141 -1.1813  2.8598
15405TIP3   OH267705   2.739   3.074  12.195  0.0874 -0.3806  0.2585
15405TIP3    H167706   2.654   3.075  12.240  0.2850 -1.1689  0.6723
15405TIP3    H267707   2.775   2.988  12.216  1.0087 -0.0314  0.1116
15406TIP3   OH267708   4.076   5.631   3.970 -0.1149  0.6228 -0.1160
15406TIP3    H167709   4.059   5.723   3.947 -0.1803  0.2508 -1.6744
15406TIP3    H267710   4.098   5.590   3.887 -2.6454 -1.3664  0.0712
15407TIP3   OH267711   3.328   4.128  16.886  0.2326 -0.7410 -0.0433
15407TIP3    H167712   3.240   4.151  16.917  0.4426 -0.4200  0.3233
15407TIP3    H267713   3.312   4.072  16.810 -0.3016  0.4046 -0.8055
15408TIP3   OH267714   4.269   0.192   3.328  0.4100  0.4426  0.6136
15408TIP3    H167715   4.198   0.203   3.265  1.3522  0.3728 -0.4909
15408TIP3    H267716   4.318   0.116   3.296  1.2145  0.7249  1.1342
15409TIP3   OH267717   1.682   3.274   3.628  0.3382 -0.9465  0.2312
15409TIP3    H167718   1.599   3.320   3.617  0.2272 -1.4573 -1.3214
15409TIP3    H267719   1.661   3.203   3.689 -0.1180 -0.4952  0.6127
15410TIP3   OH267720   1.377   3.361  13.228 -0.6805  0.0828 -0.0964
15410TIP3    H167721   1.456   3.395  13.186 -1.4288 -1.7295 -3.3410
15410TIP3    H267722   1.305   3.399  13.179 -1.8640  0.7247  1.9983
15411TIP3   OH267723   4.752   6.745  13.690  0.5024 -0.2944  0.5917
15411TIP3    H167724   4.680   6.715  13.746  0.1836 -0.6950 -0.0244
15411TIP3    H267725   4.739   6.699  13.608 -0.7578  2.4680 -0.8814
15412TIP3   OH267726   2.668   0.554  10.941  0.4764 -0.3773 -0.5609
15412TIP3    H167727   2.738   0.491  10.923 -1.4718 -2.3892 -1.5204
15412TIP3    H267728   2.681   0.624  10.877  2.2746 -0.0695  0.0714
15413TIP3   OH267729   3.321   5.339  11.931  0.0929  0.0641 -0.0029
15413TIP3    H167730   3.351   5.289  12.007  1.4151 -1.2818 -1.3238
15413TIP3    H267731   3.398   5.343  11.874 -1.1966 -0.0634 -1.8142
15414TIP3   OH267732   3.741   4.810  15.894 -0.2628 -0.4445  0.4363
15414TIP3    H167733   3.759   4.776  15.982 -0.3960 -0.1664  0.5718
15414TIP3    H267734   3.724   4.903  15.908  2.4290  0.2198 -0.2117
15415TIP3   OH267735   1.185   2.693  12.224  0.3518 -0.0065 -0.5199
15415TIP3    H167736   1.104   2.737  12.248  0.7275  0.2051  0.4219
15415TIP3    H267737   1.167   2.653  12.139 -0.8776 -0.3735 -0.0956
15416TIP3   OH267738   4.422   3.639  13.597 -0.2181  0.4050 -0.2384
15416TIP3    H167739   4.514   3.613  13.598 -0.7200 -1.5457  0.4055
15416TIP3    H267740   4.414   3.698  13.672  0.5150  0.5728 -0.2828
15417TIP3   OH267741   2.862   3.499   5.050 -0.0498  0.2880 -0.1716
15417TIP3    H167742   2.776   3.487   5.011  0.7693 -2.9610 -1.3209
15417TIP3    H267743   2.847   3.497   5.144 -1.5040  3.2246 -0.2310
15418TIP3   OH267744   5.119   0.826  13.663 -0.1821 -0.1277 -0.0077
15418TIP3    H167745   5.098   0.829  13.757 -1.6933  1.0183 -0.3432
15418TIP3    H267746   5.211   0.853  13.658 -0.4289  1.0181  1.0708
15419TIP3   OH267747   6.221   1.446   6.359 -0.0991 -0.1298 -0.8332
15419TIP3    H167748   6.310   1.473   6.382  0.5021 -2.8605  0.5123
15419TIP3    H267749   6.169   1.463   6.437 -0.7529  1.1536 -1.5064
15420TIP3   OH267750   3.851   6.746   3.333 -0.1015 -0.9147 -0.4201
15420TIP3    H167751   3.918   6.677   3.339 -1.1246 -1.8337  2.3536
15420TIP3    H267752   3.768   6.699   3.346 -0.7291  0.8482  3.5725
15421TIP3   OH267753   3.527   0.726  11.315  0.4454 -0.1516  0.2868
15421TIP3    H167754   3.563   0.662  11.377  3.0358  1.8262  1.0020
15421TIP3    H267755   3.585   0.721  11.239  0.0150  0.5946 -0.1031
15422TIP3   OH267756   1.610   2.152   1.499  0.3552  0.6962  0.6320
15422TIP3    H167757   1.518   2.129   1.508 -0.3112  2.6444 -0.7284
15422TIP3    H267758   1.624   2.224   1.560  0.5773  1.3707 -0.1847
15423TIP3   OH267759   3.900   6.345   4.813 -0.4492 -0.2452  0.0368
15423TIP3    H167760   3.986   6.308   4.790 -0.9134 -0.5977 -1.2314
15423TIP3    H267761   3.921   6.419   4.870  0.7489  0.0137 -0.6807
15424TIP3   OH267762   6.708   6.443   0.261  0.7406  0.0861 -0.1024
15424TIP3    H167763   6.665   6.412   0.182 -1.8739 -1.4261  1.7611
15424TIP3    H267764   6.783   6.384   0.272 -0.5784 -1.6478  0.0470
15425TIP3   OH267765   3.213   1.403   2.420  0.1905 -0.1730  0.4814
15425TIP3    H167766   3.308   1.389   2.420  0.3529  0.8329  1.2412
15425TIP3    H267767   3.179   1.329   2.471  0.5376 -0.6303  0.0680
15426TIP3   OH267768   0.462   5.249  13.492  0.1386  0.2411 -0.3309
15426TIP3    H167769   0.470   5.308  13.418  0.2225 -0.0603 -0.5645
15426TIP3    H267770   0.487   5.163  13.457  0.5124  0.1599  0.1286
15427TIP3   OH267771   4.618   1.997   0.836  0.6353  0.1549 -0.1312
15427TIP3    H167772   4.688   2.019   0.896  0.4616  0.1269  0.0816
15427TIP3    H267773   4.592   1.908   0.860  1.1849 -0.2166 -0.8445
15428TIP3   OH267774   2.656   0.188  11.211 -0.6730 -0.1573 -0.1866
15428TIP3    H167775   2.705   0.143  11.141  1.0422  0.6028  0.4522
15428TIP3    H267776   2.577   0.136  11.222 -0.6731 -0.6998 -2.2175
15429TIP3   OH267777   5.377   2.991   4.482  0.0656 -0.4364  0.4959
15429TIP3    H167778   5.331   2.908   4.483  1.5690 -1.3122  0.1877
15429TIP3    H267779   5.454   2.976   4.537 -0.0702  1.0247  1.1319
15430TIP3   OH267780   4.147   5.221  13.634 -0.1965 -0.2683 -0.0811
15430TIP3    H167781   4.163   5.132  13.663  0.9714 -0.5677 -1.5596
15430TIP3    H267782   4.229   5.249  13.593 -0.2440  1.7959  1.0470
15431TIP3   OH267783   0.916   6.237  13.215 -0.4381  0.1874  0.5562
15431TIP3    H167784   0.942   6.235  13.123  0.8889  0.7319  0.8972
15431TIP3    H267785   0.979   6.296  13.257 -0.3248 -0.8952  2.0159
15432TIP3   OH267786   6.727   4.469  12.111 -0.1724  0.0618 -0.6654
15432TIP3    H167787   6.743   4.432  12.198  0.4003  1.3361 -0.2036
15432TIP3    H267788   6.637   4.502  12.116  0.4883  1.8445  0.1148
15433TIP3   OH267789   0.199   5.143   2.149 -0.4531  0.0149 -0.0743
15433TIP3    H167790   0.142   5.186   2.213 -1.3866 -1.0056 -0.1801
15433TIP3    H267791   0.155   5.059   2.132  1.1300 -0.8457 -0.0852
15434TIP3   OH267792   4.453   5.925   0.197  0.3184 -0.0159  0.2860
15434TIP3    H167793   4.379   5.961   0.246 -0.0487 -1.9589  1.2607
15434TIP3    H267794   4.530   5.951   0.246  0.3488  1.9511 -0.6885
15435TIP3   OH267795   6.352   3.698  13.573  0.0801  0.1274 -0.5025
15435TIP3    H167796   6.292   3.640  13.622  1.0591  1.3027  2.3342
15435TIP3    H267797   6.431   3.647  13.562 -0.1434 -0.1455 -0.8478
15436TIP3   OH267798   6.283   5.406   3.339 -0.6459  0.5802  0.4280
15436TIP3    H167799   6.368   5.450   3.342 -0.7215  0.8348 -0.8235
15436TIP3    H267800   6.243   5.435   3.257 -1.1757 -0.9395  0.1142
15437TIP3   OH267801   6.229   0.685   4.648 -0.1998 -0.0038  0.0301
15437TIP3    H167802   6.180   0.685   4.566 -0.6050  0.7730  0.2692
15437TIP3    H267803   6.182   0.745   4.704  0.2791 -0.2649  0.7206
15438TIP3   OH267804   0.575   1.086  11.045  0.8127 -0.4406  0.3890
15438TIP3    H167805   0.653   1.117  10.997 -0.2994  1.7460 -0.1367
15438TIP3    H267806   0.562   0.996  11.014 -0.1560  0.9655 -3.9808
15439TIP3   OH267807   4.615   2.356  12.513 -0.1849  0.0597 -0.3647
15439TIP3    H167808   4.535   2.409  12.518 -0.6265 -0.6249 -0.1222
15439TIP3    H267809   4.589   2.279  12.462  0.2071 -0.3701  0.0811
15440TIP3   OH267810   3.455   3.518   2.826  0.2743  0.3228 -0.2830
15440TIP3    H167811   3.433   3.447   2.765 -2.0021 -0.9544  1.8249
15440TIP3    H267812   3.439   3.598   2.776 -3.7894 -0.6263 -0.8467
15441TIP3   OH267813   5.976   1.762   2.795  0.1454  1.2245 -0.1050
15441TIP3    H167814   6.012   1.742   2.881 -1.1602 -1.5419 -0.0911
15441TIP3    H267815   6.051   1.760   2.736  0.6955  0.5969  0.6008
15442TIP3   OH267816   5.349   5.458  12.020  0.2976  0.2566 -0.1477
15442TIP3    H167817   5.333   5.501  12.104 -0.6062  1.5731 -0.9671
15442TIP3    H267818   5.348   5.529  11.956  0.0639 -0.8398 -1.3895
15443TIP3   OH267819   5.163   1.107  16.365  0.3839 -0.0636  0.3340
15443TIP3    H167820   5.120   1.163  16.429 -0.6280 -2.3335  1.8018
15443TIP3    H267821   5.256   1.115  16.383  0.1097 -1.2173  2.7452
15444TIP3   OH267822   1.659   2.097   1.103  0.0376  0.1602  0.4488
15444TIP3    H167823   1.700   2.109   1.188 -0.2881  1.6155  0.4229
15444TIP3    H267824   1.732   2.099   1.040  0.0819  1.5391  0.5070
15445TIP3   OH267825   0.351   3.528   5.504 -0.0565 -0.7061  0.4224
15445TIP3    H167826   0.272   3.493   5.464 -0.3199  0.2220  0.0940
15445TIP3    H267827   0.330   3.533   5.598  0.7626 -3.4095  0.8356
15446TIP3   OH267828   0.372   2.286   2.934 -0.6757  0.1802  0.3369
15446TIP3    H167829   0.321   2.364   2.954 -0.1562  0.6254 -0.0216
15446TIP3    H267830   0.313   2.213   2.951 -0.8718  0.6128  1.5790
15447TIP3   OH267831   1.663   3.302  14.553 -0.2421  0.2347 -0.4062
15447TIP3    H167832   1.727   3.284  14.485 -0.3132  1.6906 -0.8958
15447TIP3    H267833   1.584   3.328  14.505 -0.6241  0.2570  0.2233
15448TIP3   OH267834   1.387   4.229   1.533 -0.5016 -0.6980  0.2668
15448TIP3    H167835   1.413   4.291   1.602  0.6520 -0.5238 -0.2960
15448TIP3    H267836   1.346   4.284   1.466  0.0230 -0.6191  0.0108
15449TIP3   OH267837   4.670   2.311  15.095  0.2125 -0.2055  0.1461
15449TIP3    H167838   4.614   2.331  15.019  2.7823  2.5111 -1.2217
15449TIP3    H267839   4.608   2.295  15.166 -2.3433  1.5518 -1.4845
15450TIP3   OH267840   4.195   5.307   5.566  0.0940 -0.1948  0.1475
15450TIP3    H167841   4.124   5.343   5.620 -0.6052  1.9806 -2.0316
15450TIP3    H267842   4.241   5.385   5.533 -0.0862 -1.3126 -3.0695
15451TIP3   OH267843   5.697   5.443  12.739 -0.4705  0.3458  0.7322
15451TIP3    H167844   5.750   5.391  12.799  1.3235 -0.2054 -1.2156
15451TIP3    H267845   5.721   5.534  12.759 -0.2786  0.2020  1.1639
15452TIP3   OH267846   0.701   2.180  11.602  0.1312 -0.8503 -0.2299
15452TIP3    H167847   0.761   2.176  11.528 -1.4453  1.1296 -1.7487
15452TIP3    H267848   0.682   2.273  11.613 -0.3496 -1.1664  2.1429
15453TIP3   OH267849   2.296   0.643  11.940  0.6387 -0.2054 -0.5768
15453TIP3    H167850   2.224   0.705  11.947  1.3979  0.5813  0.7305
15453TIP3    H267851   2.291   0.592  12.021 -0.3328 -2.3108 -1.8837
15454TIP3   OH267852   5.436   5.289  12.755  0.0462 -0.0877  0.2031
15454TIP3    H167853   5.469   5.203  12.728 -1.2706 -0.3552 -0.6342
15454TIP3    H267854   5.503   5.351  12.724  0.0451 -0.6511 -0.9530
15455TIP3   OH267855   5.064   2.808   2.517 -0.2357  0.3515  0.2924
15455TIP3    H167856   4.984   2.859   2.522 -0.3625  0.2565 -0.5757
15455TIP3    H267857   5.126   2.865   2.469  0.0883  0.2696  0.6080
15456TIP3   OH267858   4.697   3.501   5.813  0.4024  0.3424  0.0875
15456TIP3    H167859   4.654   3.521   5.896 -0.8789  1.0722 -0.7019
15456TIP3    H267860   4.698   3.406   5.808  1.6341  0.2500  1.4754
15457TIP3   OH267861   0.452   6.759   5.986 -0.0818  0.4884 -0.1079
15457TIP3    H167862   0.406   6.698   5.928  0.7181  2.5047 -3.1648
15457TIP3    H267863   0.532   6.712   6.010 -0.1378 -0.2423 -1.2281
15458TIP3   OH267864   1.926   4.644  14.094 -0.0241 -0.0278 -0.0889
15458TIP3    H167865   1.846   4.608  14.056 -0.8705  2.3040 -0.6725
15458TIP3    H267866   1.995   4.620  14.033 -0.5544 -0.5492 -0.4969
15459TIP3   OH267867   3.365   1.167   1.357 -0.3488 -0.0291 -1.1417
15459TIP3    H167868   3.434   1.181   1.422 -1.2819  0.1093 -0.1281
15459TIP3    H267869   3.403   1.107   1.294  0.1570 -1.3018  0.3030
15460TIP3   OH267870   1.753   6.663   3.347 -0.1029 -0.3546  0.1454
15460TIP3    H167871   1.786   6.592   3.291 -0.0112 -1.2912  1.3425
15460TIP3    H267872   1.719   6.618   3.424 -0.0762  0.9182  0.9210
15461TIP3   OH267873   3.931   6.181  15.039  0.1327  0.4277  0.2416
15461TIP3    H167874   4.000   6.199  14.975  1.2791 -1.2947  0.9166
15461TIP3    H267875   3.863   6.135  14.989  0.5020  0.1159  0.0258
15462TIP3   OH267876   2.667   1.996  14.973 -0.2881  0.2501 -0.4863
15462TIP3    H167877   2.639   1.945  14.897 -2.1370  1.1482 -0.4787
15462TIP3    H267878   2.611   1.964  15.045  0.2187  0.6219  0.0801
15463TIP3   OH267879   5.055   5.923  10.895 -0.4233 -0.0581  0.3067
15463TIP3    H167880   5.018   5.857  10.836 -2.7149  1.2549  0.1643
15463TIP3    H267881   5.018   5.902  10.981 -2.1267  1.6207  0.0548
15464TIP3   OH267882   2.980   0.174  13.498  0.5620  0.0047  0.0806
15464TIP3    H167883   3.065   0.137  13.521  0.1701 -1.5864 -0.8839
15464TIP3    H267884   2.999   0.264  13.471  1.6139  0.4263  2.0091
15465TIP3   OH267885   2.648   3.883  12.144 -0.3892  0.4039 -0.6918
15465TIP3    H167886   2.580   3.833  12.098 -0.8777  0.6634 -0.2665
15465TIP3    H267887   2.632   3.865  12.236  0.0500  0.5657 -0.5816
15466TIP3   OH267888   0.909   0.719  16.053 -0.3642 -0.7959 -0.2026
15466TIP3    H167889   0.858   0.660  16.108  0.5017 -2.0086 -0.6618
15466TIP3    H267890   0.992   0.728  16.100  0.1764 -1.4054 -1.0140
15467TIP3   OH267891   3.102   2.305  14.807  0.1150  0.5033  0.7296
15467TIP3    H167892   3.123   2.351  14.726  3.1344 -2.5960 -0.5024
15467TIP3    H267893   3.036   2.240  14.782 -0.0438  0.5145  1.1127
15468TIP3   OH267894   0.656   3.506   2.794  0.3271 -0.0842  0.1117
15468TIP3    H167895   0.747   3.511   2.765  0.3400 -2.2248 -0.3621
15468TIP3    H267896   0.662   3.473   2.883  0.0609  1.7582  0.8529
15469TIP3   OH267897   1.589   5.913   3.426  0.4620 -0.2629 -0.5072
15469TIP3    H167898   1.676   5.914   3.386  0.1225 -1.0857 -1.3102
15469TIP3    H267899   1.598   5.854   3.501  1.4731  2.3842  1.6344
15470TIP3   OH267900   4.323   0.180  17.082  0.3398  0.5038 -0.0922
15470TIP3    H167901   4.267   0.104  17.093 -1.6011  2.0827  1.9349
15470TIP3    H267902   4.315   0.203  16.989 -1.6601  0.1168 -0.0492
15471TIP3   OH267903   2.588   6.580  13.701 -0.4138 -0.2015 -0.1043
15471TIP3    H167904   2.628   6.648  13.647  0.8102 -1.3241 -0.6766
15471TIP3    H267905   2.601   6.499  13.652 -1.2105 -0.9554  0.8762
15472TIP3   OH267906   2.271   1.444   4.536 -0.0831 -0.0638  0.2350
15472TIP3    H167907   2.219   1.520   4.562 -0.2748 -0.4171  0.9240
15472TIP3    H267908   2.323   1.424   4.614  0.8495  0.0868 -0.3403
15473TIP3   OH267909   6.717   2.034  15.500  0.1794  0.4634 -0.1056
15473TIP3    H167910   6.661   1.974  15.551  2.2129 -0.9497  0.5912
15473TIP3    H267911   6.767   1.976  15.442  1.7944  1.5233  0.1668
15474TIP3   OH267912   1.183   3.023  11.416 -0.6531 -0.1842  0.1855
15474TIP3    H167913   1.219   3.051  11.500  1.2840 -2.4724  0.2205
15474TIP3    H267914   1.237   3.067  11.350 -0.4598 -0.4318  0.1786
15475TIP3   OH267915   0.375   5.513  12.678  0.3608 -0.2888 -0.3201
15475TIP3    H167916   0.397   5.446  12.742  1.2597 -1.1128 -1.4725
15475TIP3    H267917   0.341   5.465  12.603 -0.3379  0.6444 -0.6258
15476TIP3   OH267918   4.881   1.936  13.300  0.3087 -0.4802 -0.1546
15476TIP3    H167919   4.800   1.905  13.341  1.6470 -0.0273  3.1050
15476TIP3    H267920   4.950   1.913  13.363  3.0151 -2.1438 -3.3936
15477TIP3   OH267921   4.340   1.454  12.229  0.1354 -0.2571 -0.2565
15477TIP3    H167922   4.414   1.440  12.169 -0.8602  0.9110 -1.8254
15477TIP3    H267923   4.263   1.457  12.172 -0.9823 -0.1235  1.2075
15478TIP3   OH267924   5.158   4.563   5.054  0.2336  0.2078 -0.5957
15478TIP3    H167925   5.162   4.475   5.089  1.6701  1.3544  2.5007
15478TIP3    H267926   5.245   4.578   5.017  0.8371  1.0553  1.0693
15479TIP3   OH267927   0.639   1.165   1.835  0.4786 -0.1444  0.2332
15479TIP3    H167928   0.679   1.252   1.846  0.2244 -0.1106  0.9657
15479TIP3    H267929   0.686   1.110   1.897  0.6245 -0.5336 -0.2182
15480TIP3   OH267930   1.577   0.275  16.499 -0.2402  0.5877 -0.5568
15480TIP3    H167931   1.535   0.347  16.544  2.0468  1.2316  0.7071
15480TIP3    H267932   1.671   0.294  16.505  0.3943 -1.9316 -1.1271
15481TIP3   OH267933   0.607   5.732   2.063 -0.0628  0.0295  0.0188
15481TIP3    H167934   0.689   5.732   2.014 -0.6793  1.3008 -1.0936
15481TIP3    H267935   0.547   5.681   2.009 -0.6603  1.1720 -0.4342
15482TIP3   OH267936   3.471   2.691   4.666  0.0144  0.6221  0.4162
15482TIP3    H167937   3.378   2.674   4.652 -0.4165  0.7629  2.7368
15482TIP3    H267938   3.486   2.776   4.625  0.0370 -0.9330 -3.1268
15483TIP3   OH267939   4.556   0.448  14.749 -0.0008 -0.1151  0.0666
15483TIP3    H167940   4.485   0.402  14.793  0.4083  0.2930  1.1664
15483TIP3    H267941   4.517   0.478  14.666 -0.1467 -2.8194 -0.9463
15484TIP3   OH267942   3.633   6.621   5.822 -0.4276 -0.2525  0.3879
15484TIP3    H167943   3.569   6.554   5.847 -0.0155 -0.6624  0.3682
15484TIP3    H267944   3.657   6.598   5.732 -0.0477 -0.2717  0.4910
15485TIP3   OH267945   5.532   3.503  11.580 -0.2271 -0.0009 -0.0768
15485TIP3    H167946   5.587   3.508  11.658 -1.1855 -1.4008  0.7184
15485TIP3    H267947   5.595   3.496  11.507  0.6960  1.9513  0.4548
15486TIP3   OH267948   3.871   6.179  13.560 -0.0756 -0.0636 -0.0906
15486TIP3    H167949   3.878   6.271  13.535 -0.7522  0.2268  0.7276
15486TIP3    H267950   3.845   6.181  13.652 -1.7599 -1.0641 -0.5095
15487TIP3   OH267951   1.891   1.560  12.943  0.4863  0.1030  0.0831
15487TIP3    H167952   1.892   1.512  13.025  2.4730  1.6227  1.0551
15487TIP3    H267953   1.983   1.582  12.927  0.0716  0.4501 -2.1910
15488TIP3   OH267954   1.060   6.251   5.268  0.2125 -0.1697  0.4540
15488TIP3    H167955   1.104   6.166   5.270 -1.1521 -1.0216 -1.5591
15488TIP3    H267956   1.067   6.278   5.176 -1.9408  0.4379  0.4311
15489TIP3   OH267957   3.618   4.951   5.097  0.0716  0.4096 -0.2597
15489TIP3    H167958   3.569   4.947   5.015  0.9349 -0.2898 -0.7595
15489TIP3    H267959   3.550   4.946   5.165 -0.5538 -5.2690 -0.7982
15490TIP3   OH267960   1.490   5.103  13.158  0.3279 -0.9279  0.7742
15490TIP3    H167961   1.450   5.068  13.238 -0.7522 -0.3338  0.5256
15490TIP3    H267962   1.456   5.192  13.153  1.7252 -0.3978  0.5340
15491TIP3   OH267963   5.537   5.268   2.235  0.2924  0.3701  0.2606
15491TIP3    H167964   5.464   5.207   2.236 -0.6962  1.5137  0.0755
15491TIP3    H267965   5.534   5.312   2.320  2.8950 -1.9392  1.7075
15492TIP3   OH267966   5.702   3.815   4.859  0.2649 -0.1534 -0.0849
15492TIP3    H167967   5.655   3.741   4.820 -0.3091  0.0035  0.2923
15492TIP3    H267968   5.664   3.892   4.816 -0.3814  0.0231  0.7721
15493TIP3   OH267969   5.571   5.790   2.671 -0.1721 -0.3754  1.0283
15493TIP3    H167970   5.531   5.877   2.673 -1.0786 -0.6544 -1.4641
15493TIP3    H267971   5.513   5.736   2.725 -2.4567 -0.4038 -1.2150
15494TIP3   OH267972   3.137   2.058   0.110  0.0017  0.1370 -0.2977
15494TIP3    H167973   3.105   2.118   0.041  1.6156  2.4701  0.8467
15494TIP3    H267974   3.205   2.007   0.067  0.4900  1.0578 -0.6617
15495TIP3   OH267975   3.406   5.242   5.857  0.3423 -0.4417  0.0473
15495TIP3    H167976   3.323   5.214   5.819  1.0544 -0.7373 -1.3474
15495TIP3    H267977   3.394   5.229   5.951 -1.3665  0.0132 -0.0667
15496TIP3   OH267978   2.675   3.371  14.409  0.3767 -0.2849  0.0558
15496TIP3    H167979   2.636   3.343  14.326  0.1665 -0.0633  0.0780
15496TIP3    H267980   2.713   3.457  14.389 -1.2158  0.5839  0.6305
15497TIP3   OH267981   5.063   3.252  16.938  0.1145  0.0687 -0.3418
15497TIP3    H167982   5.127   3.282  16.873 -0.4175  0.7011 -0.5841
15497TIP3    H267983   5.026   3.332  16.974  0.6440 -0.2616  1.0101
15498TIP3   OH267984   6.290   4.422  15.394 -0.1607  0.4556  0.1764
15498TIP3    H167985   6.208   4.380  15.421  1.7974 -3.1426  1.2442
15498TIP3    H267986   6.294   4.406  15.299  0.3651 -1.6757  0.5015
15499TIP3   OH267987   1.345   6.190  15.852 -0.1879  0.0939 -0.8955
15499TIP3    H167988   1.382   6.104  15.833  0.6494  0.0440  0.7325
15499TIP3    H267989   1.403   6.251  15.807  0.0872 -0.1282 -0.8471
15500TIP3   OH267990   2.283   3.356  12.171  0.1178 -0.7999  0.8895
15500TIP3    H167991   2.295   3.448  12.196 -1.7799 -0.2213 -0.1587
15500TIP3    H267992   2.321   3.351  12.083 -0.4715 -0.8212  0.6344
15501TIP3   OH267993   0.475   3.942  16.588 -0.4844 -0.3575 -1.2125
15501TIP3    H167994   0.478   3.873  16.654  2.0375  1.6479  1.0002
15501TIP3    H267995   0.538   3.913  16.521  2.5257  0.7111  0.9324
15502TIP3   OH267996   4.736   3.292   0.834  0.2238  0.2010 -0.1915
15502TIP3    H167997   4.759   3.384   0.848  0.0556  0.1090  0.7061
15502TIP3    H267998   4.820   3.249   0.817  0.2959  0.5240 -0.6891
15503TIP3   OH267999   1.858   1.512   0.216  0.0063  0.4314 -0.1574
15503TIP3    H168000   1.786   1.452   0.234 -0.3236  0.6437 -0.7427
15503TIP3    H268001   1.835   1.552   0.133  0.4564  1.0287  0.0038
15504TIP3   OH268002   0.906   2.159   1.543 -0.3657 -0.2414 -0.5898
15504TIP3    H168003   0.846   2.232   1.558  0.6310  1.0351 -2.4106
15504TIP3    H268004   0.856   2.096   1.492 -0.6400  0.0815 -0.7215
15505TIP3   OH268005   0.565   4.418   2.480 -0.4720 -0.4517 -0.2969
15505TIP3    H168006   0.651   4.391   2.511 -0.7404  0.4359  1.3176
15505TIP3    H268007   0.580   4.503   2.439 -0.4540 -0.6787 -0.7673
15506TIP3   OH268008   0.036   6.350  12.698 -0.2852  0.1553 -0.0447
15506TIP3    H168009  -0.014   6.347  12.617 -0.9035 -0.0804  0.3393
15506TIP3    H268010   0.056   6.442  12.711  0.3663  0.1313 -0.7891
15507TIP3   OH268011   2.792   0.474  11.625 -0.3093 -1.0611  0.4554
15507TIP3    H168012   2.760   0.410  11.688  0.8192 -2.0138  0.1092
15507TIP3    H268013   2.770   0.437  11.540  0.8194 -1.2696  0.2408
15508TIP3   OH268014   5.212   6.039   5.181 -0.2632  0.0851 -0.3910
15508TIP3    H168015   5.177   6.082   5.103 -1.4516 -0.1397 -0.0089
15508TIP3    H268016   5.301   6.015   5.158 -0.2552  0.9460 -1.3118
15509TIP3   OH268017   2.096   2.201   4.350 -0.2158 -0.2104 -0.2216
15509TIP3    H168018   2.147   2.120   4.356  0.1059  0.0426  0.5535
15509TIP3    H268019   2.158   2.270   4.373 -0.3407  0.3256 -1.4110
15510TIP3   OH268020   4.816   3.094   2.857 -0.1831  0.4992 -0.1690
15510TIP3    H168021   4.815   2.999   2.866  2.2692  0.5549  1.6274
15510TIP3    H268022   4.730   3.122   2.890 -1.6309 -1.1169 -2.3601
15511TIP3   OH268023   4.544   4.537   5.579  0.3210  0.2958  0.2619
15511TIP3    H168024   4.488   4.508   5.508  0.0575  2.0014 -0.2699
15511TIP3    H268025   4.576   4.456   5.619 -0.9726 -0.6961 -0.6337
15512TIP3   OH268026   4.735   1.358  12.381 -0.5507  0.1768 -0.4650
15512TIP3    H168027   4.764   1.323  12.296  1.6870 -0.5286  0.5008
15512TIP3    H268028   4.768   1.448  12.382 -0.5249  0.1663 -0.3418
15513TIP3   OH268029   5.046   4.393   0.462 -0.1118 -0.3895 -0.4249
15513TIP3    H168030   5.021   4.377   0.371 -0.8889 -2.3558  0.0871
15513TIP3    H268031   4.966   4.423   0.504 -0.2118 -1.1569 -0.0392
15514TIP3   OH268032   0.540   6.120  15.848  0.2813 -0.0695  0.6503
15514TIP3    H168033   0.453   6.153  15.825  0.4482 -1.3787 -2.3688
15514TIP3    H268034   0.598   6.195  15.840 -0.4038  0.5784  1.6228
15515TIP3   OH268035   4.327   3.718   3.045  0.8510  0.0229 -0.1455
15515TIP3    H168036   4.310   3.636   2.999  1.0503  0.4370 -0.9907
15515TIP3    H268037   4.364   3.693   3.129  1.6232 -0.7345 -0.6985
15516TIP3   OH268038   0.005   6.461   1.508  0.3475 -0.3220 -0.3493
15516TIP3    H168039  -0.045   6.423   1.580  0.0215 -0.1206 -0.4644
15516TIP3    H268040   0.089   6.416   1.510 -0.2662 -1.5536 -0.8962
15517TIP3   OH268041   4.915   3.171  17.329 -0.0492 -0.2213  0.7798
15517TIP3    H168042   4.860   3.196  17.254  0.3267  0.4713  0.7300
15517TIP3    H268043   5.004   3.192  17.302  0.0734  0.1754  1.4780
15518TIP3   OH268044   0.306   4.347  17.094 -0.0325 -0.1091 -0.5180
15518TIP3    H168045   0.218   4.319  17.121  0.1618  1.0410  1.4774
15518TIP3    H268046   0.364   4.312  17.162  1.1584 -1.2409 -2.0554
15519TIP3   OH268047   5.720   4.275  12.734 -0.1939 -0.5398  0.0366
15519TIP3    H168048   5.798   4.271  12.789 -0.1812  0.3163  0.0956
15519TIP3    H268049   5.694   4.184  12.723  0.9934 -0.8669 -0.2468
15520TIP3   OH268050   3.803   1.309   5.460 -0.3848  0.2549  0.3042
15520TIP3    H168051   3.888   1.328   5.420 -1.3592  0.7048 -1.7057
15520TIP3    H268052   3.788   1.383   5.520 -0.3628  1.4323 -1.0814
15521TIP3   OH268053   0.675   4.684   0.301  0.1765 -0.1634  0.5018
15521TIP3    H168054   0.668   4.688   0.205  1.5836  0.4962  0.3963
15521TIP3    H268055   0.663   4.592   0.322  2.9451 -0.8917 -0.6454
15522TIP3   OH268056   4.082   6.127   1.640  0.0961 -0.8980  0.5874
15522TIP3    H168057   4.062   6.037   1.615 -0.0537 -0.9772  0.9725
15522TIP3    H268058   4.029   6.142   1.719  0.6024 -0.6862  0.8953
15523TIP3   OH268059   2.285   4.459  11.643  0.4131  0.3351  0.4009
15523TIP3    H168060   2.229   4.388  11.612 -0.6328  1.3559 -0.1226
15523TIP3    H268061   2.290   4.520  11.569 -0.1069  1.6190  1.3681
15524TIP3   OH268062   3.447   2.077  16.853  0.1131 -0.6165 -0.2950
15524TIP3    H168063   3.536   2.040  16.854  0.3559 -0.0370  0.1211
15524TIP3    H268064   3.448   2.138  16.780  1.6339  3.0505  2.4439
15525TIP3   OH268065   4.697   0.286  11.941 -0.7456 -0.0747 -0.0589
15525TIP3    H168066   4.744   0.295  12.024 -0.3116 -0.9829 -0.1907
15525TIP3    H268067   4.657   0.199  11.945  0.2200 -0.6064 -1.2517
15526TIP3   OH268068   4.804   0.919  16.875 -0.7353 -0.1933 -0.2450
15526TIP3    H168069   4.763   0.853  16.930 -0.6593 -0.2289 -0.2317
15526TIP3    H268070   4.891   0.885  16.856 -1.6455 -1.4491 -2.5749
15527TIP3   OH268071   2.257   1.209  16.799  0.0007 -0.0473  0.0604
15527TIP3    H168072   2.210   1.241  16.876  0.8341 -0.0852  0.5950
15527TIP3    H268073   2.269   1.287  16.745 -0.1029  0.0839  0.2251
15528TIP3   OH268074   4.756   3.121  14.206 -0.3130 -0.1033  0.4823
15528TIP3    H168075   4.796   3.196  14.162  1.3124 -0.7726  0.7554
15528TIP3    H268076   4.792   3.123  14.295 -2.2438  0.2525  1.3025
15529TIP3   OH268077   1.651   1.857  15.807  0.3297  0.0717 -0.9263
15529TIP3    H168078   1.603   1.940  15.806 -0.1918 -0.1812  0.4830
15529TIP3    H268079   1.682   1.849  15.897  1.1025 -0.8627 -1.2608
15530TIP3   OH268080   5.792   5.496  14.879  0.2869  0.1268 -0.7151
15530TIP3    H168081   5.789   5.433  14.808  0.3384 -0.1611 -0.4642
15530TIP3    H268082   5.702   5.501  14.912  0.8669 -2.6487  1.7052
15531TIP3   OH268083   0.117   6.469   5.690 -0.3036  0.5589 -0.2714
15531TIP3    H168084   0.136   6.377   5.669 -0.5960  0.1262  1.1932
15531TIP3    H268085   0.041   6.465   5.748  0.7782  1.5532  1.3192
15532TIP3   OH268086   2.601   3.411   3.875  0.5673 -0.1577 -0.0571
15532TIP3    H168087   2.588   3.362   3.794  0.7056  1.1094 -0.8669
15532TIP3    H268088   2.524   3.466   3.882  0.0536 -0.9962  1.2469
15533TIP3   OH268089   0.333   4.382   0.397 -0.0532  0.0194 -0.2500
15533TIP3    H168090   0.329   4.440   0.473 -0.8863 -1.2770  0.7325
15533TIP3    H268091   0.307   4.438   0.323  2.2991  1.7406  0.0713
15534TIP3   OH268092   6.436   4.826  16.136 -0.1566  0.3242 -0.0579
15534TIP3    H168093   6.476   4.742  16.160  0.0750  0.3836 -0.2327
15534TIP3    H268094   6.393   4.808  16.052  0.6611  0.6126 -0.5474
15535TIP3   OH268095   1.873   0.282   3.547 -0.0520  0.1344  0.0755
15535TIP3    H168096   1.786   0.260   3.515  0.0711  1.7546 -1.5869
15535TIP3    H268097   1.926   0.205   3.527 -0.6988 -0.1218 -0.7207
15536TIP3   OH268098   4.129   2.268  14.983  0.0633 -0.3485  0.1931
15536TIP3    H168099   4.167   2.356  14.981 -1.4708  0.3419 -1.3309
15536TIP3    H268100   4.092   2.261  15.071 -0.2506  0.7634  0.1686
15537TIP3   OH268101   2.840   0.363   3.941  0.4080 -0.3864 -0.3323
15537TIP3    H168102   2.884   0.444   3.967  1.7945 -0.7459 -1.4383
15537TIP3    H268103   2.862   0.353   3.848  0.3450 -2.0914 -0.1866
15538TIP3   OH268104   0.742   5.582   6.344 -0.7619  0.2618  0.2159
15538TIP3    H168105   0.695   5.523   6.402 -1.1066 -0.2374 -0.5612
15538TIP3    H268106   0.783   5.646   6.403  0.5505 -1.3796  1.1549
15539TIP3   OH268107   2.162   2.180  14.055  0.3064  0.1748 -0.2166
15539TIP3    H168108   2.245   2.215  14.087 -0.4474  0.4700  1.5418
15539TIP3    H268109   2.133   2.120  14.124  0.2041 -1.8127 -1.8958
15540TIP3   OH268110   6.757   6.578   0.588 -0.0869 -0.9198 -0.4270
15540TIP3    H168111   6.751   6.507   0.652  0.6917 -0.8943 -0.3144
15540TIP3    H268112   6.688   6.639   0.614  1.5530  0.1688  1.7575
15541TIP3   OH268113   6.299   0.426   0.157  0.2253  0.2744 -0.5134
15541TIP3    H168114   6.364   0.454   0.092  1.0531 -2.7759 -1.1218
15541TIP3    H268115   6.344   0.430   0.241  0.7130 -0.3234 -0.7420
15542TIP3   OH268116   4.460   3.042   6.316 -0.2061  0.1436 -0.3678
15542TIP3    H168117   4.398   2.974   6.340  0.8260 -0.6041  0.2685
15542TIP3    H268118   4.407   3.122   6.310 -0.8940  0.0613  2.6886
15543TIP3   OH268119   5.303   4.956   1.199 -0.0085  0.2768 -0.2544
15543TIP3    H168120   5.225   5.002   1.167  0.7715  0.7131 -1.6261
15543TIP3    H268121   5.366   5.026   1.218  0.9216 -0.1556 -1.6180
15544TIP3   OH268122   0.448   1.384  15.563 -0.2868 -0.0855  0.5391
15544TIP3    H168123   0.372   1.443  15.567  0.4768  0.9620  0.1459
15544TIP3    H268124   0.413   1.301  15.530 -1.0393  0.8077 -1.0489
15545TIP3   OH268125   2.828   2.729  15.583 -0.3180 -0.4495  0.4076
15545TIP3    H168126   2.890   2.769  15.644  1.0389 -2.8145  0.6645
15545TIP3    H268127   2.882   2.685  15.518 -1.7203  1.7149 -2.4670
15546TIP3   OH268128   5.813   4.874   2.585 -0.0450 -0.0439 -0.5493
15546TIP3    H168129   5.899   4.911   2.607 -0.9639  1.5192  0.6458
15546TIP3    H268130   5.833   4.789   2.546  2.0660  0.5714 -0.9344
15547TIP3   OH268131   3.383   1.680   1.547 -0.3860  0.4525 -0.0030
15547TIP3    H168132   3.420   1.710   1.464 -0.2784  1.0805  0.2665
15547TIP3    H268133   3.293   1.657   1.526 -0.1953  0.0415 -0.4135
15548TIP3   OH268134   6.492   4.559   5.034  0.1017 -0.6326 -0.1323
15548TIP3    H168135   6.457   4.488   5.087 -0.0172  0.6151  1.5487
15548TIP3    H268136   6.585   4.563   5.057 -0.0372  0.1844  0.3211
15549TIP3   OH268137   4.394   2.622   2.211 -0.4466 -0.2282 -0.1899
15549TIP3    H168138   4.406   2.710   2.248 -0.7334 -0.5206  0.6186
15549TIP3    H268139   4.462   2.615   2.145 -0.1884  0.4713 -0.0141
15550TIP3   OH268140   6.692   0.714   1.507 -0.1807  0.1727  0.1196
15550TIP3    H168141   6.664   0.696   1.597 -0.9556  0.4793 -0.0557
15550TIP3    H268142   6.665   0.637   1.457  0.7423 -0.2421  0.2429
15551TIP3   OH268143   0.586   3.163   0.448 -0.3257 -0.5147 -0.3820
15551TIP3    H168144   0.528   3.099   0.491 -1.2722  1.0565  0.7951
15551TIP3    H268145   0.580   3.141   0.355 -3.3726 -0.0804 -0.4087
15552TIP3   OH268146   2.056   4.288   6.435 -0.7488 -0.3411  0.7467
15552TIP3    H168147   2.105   4.305   6.516 -0.2604 -0.9345  0.5866
15552TIP3    H268148   2.000   4.213   6.457  0.0855 -1.1292  0.2719
15553TIP3   OH268149   0.563   1.552   1.193  0.2117  0.6289  0.1480
15553TIP3    H168150   0.574   1.479   1.132  0.4494 -2.1799  3.2898
15553TIP3    H268151   0.471   1.550   1.217  0.4348  0.6569  1.0438
15554TIP3   OH268152   0.415   2.417  14.733 -0.8183 -1.4722 -0.2352
15554TIP3    H168153   0.346   2.408  14.667 -1.3103  0.3412 -0.0476
15554TIP3    H268154   0.463   2.334  14.731 -0.9565 -1.5474 -2.6958
15555TIP3   OH268155   5.531   5.666   1.013 -0.5683  0.2765  0.0446
15555TIP3    H168156   5.625   5.647   1.002 -0.7951 -0.9243  0.0570
15555TIP3    H268157   5.504   5.703   0.929 -0.1941  0.1649 -0.1297
15556TIP3   OH268158   6.706   4.231   1.242 -0.1854  0.2750 -0.0892
15556TIP3    H168159   6.618   4.232   1.204  0.0818  1.2684 -0.7179
15556TIP3    H268160   6.718   4.318   1.279  1.2226  0.8226 -1.6818
15557TIP3   OH268161   6.395   1.168   3.252  0.0124 -0.5016  0.1790
15557TIP3    H168162   6.456   1.098   3.231  0.9093 -0.3833  2.1561
15557TIP3    H268163   6.341   1.132   3.322  1.3214  1.1192  2.1383
15558TIP3   OH268164   5.612   0.725   2.157 -0.7497  0.1040 -0.5232
15558TIP3    H168165   5.614   0.701   2.250 -1.7849  0.4684 -0.3884
15558TIP3    H268166   5.682   0.789   2.147 -0.7821  0.2406  0.0672
15559TIP3   OH268167   6.297   2.781  11.911  0.0407 -0.4262 -0.0444
15559TIP3    H168168   6.381   2.819  11.887  0.4397 -0.6627  0.9234
15559TIP3    H268169   6.318   2.689  11.931 -0.1580 -0.1356  1.6531
15560TIP3   OH268170   1.810   2.736   5.319 -0.1348 -0.2742  0.4807
15560TIP3    H168171   1.848   2.747   5.406  2.1372  1.5521 -0.6207
15560TIP3    H268172   1.865   2.671   5.277  0.7475  1.0880 -0.5512
15561TIP3   OH268173   1.228   1.451   4.445  0.0637  0.1747  0.5379
15561TIP3    H168174   1.168   1.514   4.406 -0.1303  0.0440  0.6195
15561TIP3    H268175   1.243   1.484   4.533  1.6774  1.2778 -0.1045
15562TIP3   OH268176   6.012   2.202   2.422  0.3891  0.1551  0.3884
15562TIP3    H168177   6.086   2.180   2.478  0.8075  0.5884  0.0182
15562TIP3    H268178   6.043   2.182   2.333 -0.2086 -0.3815  0.2924
15563TIP3   OH268179   0.939   3.574   2.778 -0.2442  0.5336 -0.5910
15563TIP3    H168180   0.989   3.508   2.826  0.0816 -1.0502 -2.9580
15563TIP3    H268181   0.921   3.642   2.843  1.8561 -0.5347  1.2516
15564TIP3   OH268182   6.703   6.179   5.017 -0.3091 -0.1307  0.3271
15564TIP3    H168183   6.717   6.268   5.050  0.1555  0.4464 -1.3516
15564TIP3    H268184   6.745   6.123   5.082  2.3221  1.0799 -0.1749
15565TIP3   OH268185   1.476   4.356   1.753 -0.1736  0.3940  0.1086
15565TIP3    H168186   1.411   4.356   1.823  2.1389  1.7374  2.4351
15565TIP3    H268187   1.505   4.265   1.748 -0.6864  0.1948  0.5685
15566TIP3   OH268188   6.682   2.711  12.735 -0.0992 -0.4850 -0.7224
15566TIP3    H168189   6.753   2.764  12.770 -1.3409 -0.3152  1.7974
15566TIP3    H268190   6.649   2.762  12.661  0.1803  1.1840  0.2459
15567TIP3   OH268191   2.129   4.472  15.945 -0.3403  0.3580  0.5435
15567TIP3    H168192   2.086   4.394  15.912  0.5654 -0.2516  0.7683
15567TIP3    H268193   2.137   4.529  15.868  0.2835 -0.3687  0.0574
15568TIP3   OH268194   2.746   0.468  15.245 -0.0362 -0.0253  0.1400
15568TIP3    H168195   2.801   0.541  15.217 -1.2958  0.9458  0.1229
15568TIP3    H268196   2.806   0.393  15.249  1.3458  1.0471  0.4121
15569TIP3   OH268197   4.178   0.137  11.835  0.0364 -0.0211  0.5857
15569TIP3    H168198   4.259   0.091  11.856 -1.1463 -1.7079  1.6745
15569TIP3    H268199   4.177   0.141  11.739  1.1308 -0.4575  0.5396
15570TIP3   OH268200   4.488   5.983   1.343 -0.5296  0.2418 -0.4186
15570TIP3    H168201   4.549   5.946   1.407 -1.0859  0.8289  0.4845
15570TIP3    H268202   4.439   5.908   1.310  0.2022 -0.1443 -0.6368
15571TIP3   OH268203   2.907   4.909   6.671 -0.5803 -0.1813  0.4869
15571TIP3    H168204   2.917   4.826   6.719 -2.8308  0.2086  1.7418
15571TIP3    H268205   2.818   4.937   6.689 -0.5994  1.4332 -1.7349
15572TIP3   OH268206   2.670   2.416   2.556 -0.2664 -0.3126 -0.1192
15572TIP3    H168207   2.644   2.326   2.577 -0.7216 -1.0625 -3.3422
15572TIP3    H268208   2.755   2.406   2.512  0.3633  1.0329  0.7162
15573TIP3   OH268209   1.389   2.303   1.355 -0.1139 -0.2495  0.6066
15573TIP3    H168210   1.412   2.226   1.406  1.8223  0.0138  0.1911
15573TIP3    H268211   1.294   2.312   1.367 -0.8701 -3.9825 -1.1377
15574TIP3   OH268212   0.779   1.646  16.469 -0.3527  0.5620 -0.3387
15574TIP3    H168213   0.833   1.708  16.421  1.6453 -0.5955  0.2988
15574TIP3    H268214   0.748   1.584  16.404  1.5833 -0.4699 -0.3379
15575TIP3   OH268215   1.874   0.863   1.796  0.3411  0.3218 -0.8936
15575TIP3    H168216   1.933   0.795   1.829  0.0690  0.2388 -0.5700
15575TIP3    H268217   1.862   0.841   1.704 -2.8939 -2.4941 -0.0323
15576TIP3   OH268218   3.810   6.064   1.537 -0.3341  0.1219  0.4449
15576TIP3    H168219   3.838   6.019   1.457 -1.7988  1.3634 -0.8209
15576TIP3    H268220   3.827   6.156   1.520 -3.8077  0.8194  0.0750
15577TIP3   OH268221   2.145   6.201   4.996  0.1354 -0.5779  0.3316
15577TIP3    H168222   2.145   6.111   5.026  1.4706 -1.1900 -1.3464
15577TIP3    H268223   2.181   6.197   4.907  0.4010  1.6188  0.2843
15578TIP3   OH268224   1.759   1.059   2.852 -0.1181  1.6052 -0.1571
15578TIP3    H168225   1.829   1.067   2.787  0.7105  2.5508  0.8143
15578TIP3    H268226   1.683   1.100   2.811 -0.1801  0.4340 -1.2843
15579TIP3   OH268227   3.287   3.677   0.432 -0.2007  0.0265  0.2231
15579TIP3    H168228   3.360   3.632   0.475 -0.9525 -0.6769  0.7824
15579TIP3    H268229   3.300   3.660   0.339  0.0373 -0.5643  0.3620
15580TIP3   OH268230   4.536   3.749  16.037  0.3243  0.5982 -0.3527
15580TIP3    H168231   4.471   3.679  16.030 -0.5133  1.3820 -0.5844
15580TIP3    H268232   4.620   3.704  16.031 -0.1905 -0.2372 -2.3445
15581TIP3   OH268233   0.653   3.972   5.964  0.5206 -0.2318 -0.4816
15581TIP3    H168234   0.660   4.053   5.914 -0.3785  0.4390  0.4591
15581TIP3    H268235   0.744   3.950   5.984  0.8521 -0.0973 -1.7114
15582TIP3   OH268236   2.956   1.504   0.159  0.0009 -0.4176 -0.0980
15582TIP3    H168237   2.982   1.412   0.146  1.1682 -0.1346  0.1613
15582TIP3    H268238   3.038   1.550   0.178 -0.8090  0.3101  1.9556
15583TIP3   OH268239   2.760   4.191   1.336 -0.3374  0.2515  0.4493
15583TIP3    H168240   2.800   4.108   1.310  0.9032  0.7539  0.6929
15583TIP3    H268241   2.781   4.251   1.264  2.1227  1.3481  1.9582
15584TIP3   OH268242   5.733   6.707   2.879  0.2043 -0.2079  0.5041
15584TIP3    H168243   5.742   6.612   2.876  0.6114 -0.1536 -0.7619
15584TIP3    H268244   5.824   6.739   2.882  0.2389  0.1702 -2.1872
15585TIP3   OH268245   4.759   1.220  12.151 -0.1563 -0.7203 -0.2515
15585TIP3    H168246   4.677   1.267  12.139  1.6346  2.9905  0.5680
15585TIP3    H268247   4.794   1.211  12.062  0.5170  1.8372 -0.3339
15586TIP3   OH268248   1.541   1.586   0.186 -0.1008  0.1256  0.2216
15586TIP3    H168249   1.586   1.669   0.171 -0.6405  0.3264 -0.3313
15586TIP3    H268250   1.452   1.611   0.211  0.0291 -0.2712  1.1042
15587TIP3   OH268251   1.091   4.349   3.664  0.4702  0.0015 -0.1708
15587TIP3    H168252   1.008   4.323   3.703 -0.5429  2.4467 -0.4812
15587TIP3    H268253   1.151   4.358   3.738 -0.0444 -0.0683  0.2616
15588TIP3   OH268254   0.954   1.021  14.953 -0.1882  0.0555 -0.5268
15588TIP3    H168255   0.893   1.095  14.948 -1.2037 -0.4411  2.4029
15588TIP3    H268256   1.039   1.061  14.968 -0.4135  0.6676 -0.8215
15589TIP3   OH268257   1.583   2.580   2.300  0.1082  0.3054  0.2073
15589TIP3    H168258   1.669   2.539   2.289 -0.7101 -1.5447  0.3607
15589TIP3    H268259   1.562   2.616   2.214  0.8178  0.3467  0.0427
15590TIP3   OH268260   5.811   4.049  12.276  0.3043 -0.1767  0.5472
15590TIP3    H168261   5.758   3.978  12.313 -0.3549  0.5177  0.9565
15590TIP3    H268262   5.860   4.083  12.351 -1.0229  1.2246  0.8213
15591TIP3   OH268263   0.596   2.654   1.568  0.0781 -0.4689 -1.0003
15591TIP3    H168264   0.517   2.601   1.577  0.2453 -1.2037 -3.2114
15591TIP3    H268265   0.608   2.695   1.654 -0.6224 -3.2436  0.5382
15592TIP3   OH268266   3.054   2.397   4.647  0.5986  0.3103  0.3711
15592TIP3    H168267   2.987   2.329   4.645  0.0711  0.7739  1.3887
15592TIP3    H268268   3.130   2.354   4.686  0.1496  0.3707  1.3652
15593TIP3   OH268269   5.059   1.077  13.567 -0.1880  0.2214 -0.3807
15593TIP3    H168270   5.149   1.108  13.579 -0.0330 -0.9486  2.1847
15593TIP3    H268271   5.057   0.993  13.614 -2.4537 -0.0983 -0.9534
15594TIP3   OH268272   4.951   1.261   2.849 -0.4669 -0.3400 -0.4613
15594TIP3    H168273   4.889   1.206   2.897 -0.6810 -1.4782 -1.9725
15594TIP3    H268274   4.896   1.321   2.799 -0.4362 -1.7158 -2.2354
15595TIP3   OH268275   1.838   0.705  14.794 -0.2047 -0.0144  0.1341
15595TIP3    H168276   1.877   0.620  14.811 -0.5002  0.1790  1.9137
15595TIP3    H268277   1.778   0.720  14.867  0.2106  1.9511  0.1304
15596TIP3   OH268278   2.231   1.658   0.371 -0.4646  0.2043  0.3908
15596TIP3    H168279   2.276   1.659   0.287 -2.0943  3.0384 -0.5721
15596TIP3    H268280   2.287   1.711   0.428 -1.5923  2.2705 -0.3229
15597TIP3   OH268281   2.756   3.050  13.277 -0.0006 -0.1511 -0.1643
15597TIP3    H168282   2.674   3.099  13.283 -1.1169 -1.8149 -1.1631
15597TIP3    H268283   2.803   3.071  13.358 -1.5392  0.5841  0.5709
15598TIP3   OH268284   2.457   0.805   1.870  0.1686 -0.3492 -0.0579
15598TIP3    H168285   2.429   0.799   1.779  1.0174  1.8474 -0.5265
15598TIP3    H268286   2.393   0.863   1.911 -0.9945 -2.3688  1.1518
15599TIP3   OH268287   2.111   4.311   4.773 -0.7136  0.4791 -0.4336
15599TIP3    H168288   2.061   4.390   4.795  0.0584  1.0077 -0.5151
15599TIP3    H268289   2.202   4.334   4.794 -0.3009  0.0835 -1.6762
15600TIP3   OH268290   3.475   2.266   2.886 -0.6965  0.1328 -0.3676
15600TIP3    H168291   3.526   2.187   2.903 -0.8398  0.2888  0.8967
15600TIP3    H268292   3.393   2.253   2.934 -0.7167  1.0474 -0.1217
15601TIP3   OH268293   0.369   6.124  14.848  0.5823  0.2323  0.5475
15601TIP3    H168294   0.456   6.120  14.810  0.6888 -1.9658  0.8921
15601TIP3    H268295   0.384   6.117  14.942  0.0503 -0.3672  0.5968
15602TIP3   OH268296   4.257   2.466   5.088 -0.5483 -0.2692 -0.0454
15602TIP3    H168297   4.228   2.533   5.149  1.7901  0.9697 -0.1668
15602TIP3    H268298   4.225   2.496   5.002  0.4722  0.7654 -0.0998
15603TIP3   OH268299   3.741   2.441  13.208 -0.0561  0.3082  0.0169
15603TIP3    H168300   3.658   2.441  13.256 -0.7545 -0.0218 -1.1491
15603TIP3    H268301   3.800   2.493  13.262 -0.3877 -1.1844  1.9279
15604TIP3   OH268302   5.232   5.403   2.593 -0.0021 -0.6206 -0.0883
15604TIP3    H168303   5.233   5.365   2.680  2.2073  0.6774  0.5395
15604TIP3    H268304   5.139   5.408   2.569 -0.7174 -0.3413  2.4947
15605TIP3   OH268305   4.336   5.085  10.705  1.1674 -0.0871  0.0292
15605TIP3    H168306   4.245   5.093  10.678  1.4437 -0.7161 -1.1233
15605TIP3    H268307   4.350   4.991  10.716  1.3053  0.0855  1.5827
15606TIP3   OH268308   5.700   1.065   1.469 -0.3213 -0.1124  0.3453
15606TIP3    H168309   5.767   1.133   1.468 -1.2095  0.8785  2.3529
15606TIP3    H268310   5.739   0.992   1.419  0.9291  1.5626 -1.2594
15607TIP3   OH268311   2.953   1.589  15.534 -0.2205 -0.1493 -0.3032
15607TIP3    H168312   2.953   1.603  15.440  1.8944  0.5622 -0.2649
15607TIP3    H268313   3.046   1.583  15.557 -0.5982  1.2256  1.9340
15608TIP3   OH268314   5.612   1.720   3.523 -0.0551  0.8744  0.1421
15608TIP3    H168315   5.659   1.723   3.440  0.8850  1.5096  0.6887
15608TIP3    H268316   5.637   1.636   3.562 -2.1240 -0.4257 -1.1131
15609TIP3   OH268317   5.632   5.428   3.935  0.2253  0.1581  0.1672
15609TIP3    H168318   5.590   5.426   3.849 -1.8575  1.8869  1.0367
15609TIP3    H268319   5.588   5.360   3.985  2.0296 -1.4373 -0.3094
15610TIP3   OH268320   3.543   0.337  17.341 -0.0365 -0.1391  0.0085
15610TIP3    H168321   3.466   0.380  17.378 -1.5086 -1.6539 -1.1361
15610TIP3    H268322   3.526   0.243  17.354  0.3992 -0.6280 -2.4706
15611TIP3   OH268323   2.246   4.750   5.169 -0.7743  0.1693 -0.3155
15611TIP3    H168324   2.201   4.832   5.188 -2.7997 -0.7863 -0.7555
15611TIP3    H268325   2.275   4.759   5.078  0.5969  1.0577  0.1820
15612TIP3   OH268326   3.686   1.807   6.053 -0.1438 -0.0043  0.1196
15612TIP3    H168327   3.593   1.829   6.062 -0.2782 -0.1731 -0.7584
15612TIP3    H268328   3.722   1.876   5.998 -0.0028 -0.5615 -0.4965
15613TIP3   OH268329   1.954   3.032  13.549  0.3314 -0.1287 -0.2481
15613TIP3    H168330   2.038   3.020  13.505 -0.1428 -1.1871 -0.9129
15613TIP3    H268331   1.892   2.982  13.496 -0.5049 -0.3314  0.8897
15614TIP3   OH268332   1.567   5.383  16.063 -0.0588  0.5371  0.3847
15614TIP3    H168333   1.538   5.388  16.154 -0.0583 -0.6287  0.4582
15614TIP3    H268334   1.488   5.364  16.013 -0.0259  0.9834  0.1569
15615TIP3   OH268335   5.420   4.009   5.967 -0.2177  0.1123 -0.3482
15615TIP3    H168336   5.410   4.038   5.876 -0.7843 -0.7246 -0.5637
15615TIP3    H268337   5.481   4.072   6.006  2.1142 -0.9794 -2.0000
15616TIP3   OH268338   4.943   6.275   6.054  0.4478 -0.3894  0.0446
15616TIP3    H168339   4.963   6.310   5.967 -0.8228 -2.2812 -1.0783
15616TIP3    H268340   4.972   6.344   6.115 -0.3868  1.8539 -1.9353
15617TIP3   OH268341   0.497   5.888   4.391  0.1623  0.3508  0.6793
15617TIP3    H168342   0.564   5.930   4.338 -1.9619  1.3372 -1.3756
15617TIP3    H268343   0.464   5.958   4.447 -0.5941  0.4116  0.1634
15618TIP3   OH268344   1.673   4.269  17.060  0.2395 -0.3512 -0.7649
15618TIP3    H168345   1.585   4.247  17.031  0.5420 -1.6171 -0.7700
15618TIP3    H268346   1.722   4.187  17.054  1.4189  0.3296 -0.7511
15619TIP3   OH268347   1.564   4.060  10.894 -0.2157 -0.5751  0.0489
15619TIP3    H168348   1.514   3.988  10.932 -2.7362  0.9497 -0.1691
15619TIP3    H268349   1.578   4.120  10.967  1.6932 -1.1173  0.1848
15620TIP3   OH268350   4.787   6.043   2.232 -0.2146  0.4006 -0.5910
15620TIP3    H168351   4.791   5.983   2.157 -0.1776  1.6067 -1.5831
15620TIP3    H268352   4.846   6.114   2.209  0.7553  0.2096  1.1568
15621TIP3   OH268353   0.986   3.114   0.695  0.0453 -0.1201 -0.4806
15621TIP3    H168354   1.005   3.165   0.616  2.4068 -1.7180 -1.0697
15621TIP3    H268355   0.990   3.023   0.665 -0.2349 -0.7355  1.2584
15622TIP3   OH268356   0.576   5.018   1.896 -0.4346  0.1633 -0.6734
15622TIP3    H168357   0.556   4.947   1.834 -1.8150  1.5097 -1.8577
15622TIP3    H268358   0.644   4.982   1.952 -1.3054 -2.2264 -1.0127
15623TIP3   OH268359   5.890   2.304   6.199  0.4570 -0.3327  0.6785
15623TIP3    H168360   5.959   2.316   6.265  1.7478  0.9474 -0.8248
15623TIP3    H268361   5.809   2.305   6.250  1.4889 -1.9201  2.5174
15624TIP3   OH268362   0.327   6.606  11.225  0.3461  0.1096 -0.2768
15624TIP3    H168363   0.377   6.667  11.171 -1.9808  1.4458 -1.0703
15624TIP3    H268364   0.236   6.618  11.197 -0.6727 -0.8602  2.3026
15625TIP3   OH268365   3.564   5.813  14.259 -0.7543  0.0757  0.6272
15625TIP3    H168366   3.533   5.791  14.171  1.2459 -2.3776  0.3974
15625TIP3    H268367   3.491   5.788  14.317 -1.6877  0.7097 -0.2436
15626TIP3   OH268368   4.678   1.571  11.536 -0.1348 -0.0068 -0.3408
15626TIP3    H168369   4.593   1.584  11.495 -0.2038  0.9151  0.0608
15626TIP3    H268370   4.710   1.660  11.553  0.6224 -0.3516  0.0783
15627TIP3   OH268371   4.725   4.977   3.592  0.2963  0.5597  0.6055
15627TIP3    H168372   4.802   5.008   3.544  0.8659 -0.4667  0.8327
15627TIP3    H268373   4.751   4.977   3.684  0.2226 -0.3080  0.6360
15628TIP3   OH268374   2.884   2.473   5.116 -0.4887  0.7615  0.0799
15628TIP3    H168375   2.807   2.423   5.089 -0.2869  0.1556  0.6140
15628TIP3    H268376   2.849   2.558   5.144 -0.6570  1.7149 -2.6958
15629TIP3   OH268377   5.192   6.063  16.140  0.1743  0.4902 -0.1420
15629TIP3    H168378   5.112   6.090  16.186 -1.4879 -0.0099 -2.5808
15629TIP3    H268379   5.210   5.975  16.174  0.2383  0.9492  1.0666
15630TIP3   OH268380   1.952   2.673   3.935  0.3870  0.1046 -0.2472
15630TIP3    H168381   1.908   2.756   3.955  0.8948  0.1134  0.9359
15630TIP3    H268382   1.880   2.611   3.923  0.0211  0.5043 -0.1808
15631TIP3   OH268383   5.911   5.231   4.944 -0.3644  0.0915  0.0028
15631TIP3    H168384   5.835   5.237   4.886  0.1722 -1.5990 -0.9459
15631TIP3    H268385   5.986   5.225   4.884  0.2223 -1.4430  0.8473
15632TIP3   OH268386   2.354   1.313   1.887 -0.1628 -0.6068  0.3073
15632TIP3    H168387   2.344   1.308   1.792 -0.4197 -0.7118  0.3392
15632TIP3    H268388   2.431   1.260   1.907 -1.5504 -2.7010  0.4178
15633TIP3   OH268389   5.470   1.941   3.233 -0.0371  0.1496  0.0811
15633TIP3    H168390   5.421   1.973   3.157 -0.4269  1.9301  1.0451
15633TIP3    H268391   5.451   2.003   3.303  3.7011  1.0959  0.4801
15634TIP3   OH268392   6.396   2.326   0.836  0.2333  0.3432 -0.1436
15634TIP3    H168393   6.469   2.275   0.870  0.7772 -0.2821 -2.1402
15634TIP3    H268394   6.345   2.264   0.784 -0.6371  1.2089 -0.3546
15635TIP3   OH268395   1.479   1.072   3.918  0.1740  0.2666 -0.5745
15635TIP3    H168396   1.394   1.117   3.915  0.6484  1.1381 -1.6619
15635TIP3    H268397   1.520   1.093   3.834  0.7912 -1.5159 -0.7650
15636TIP3   OH268398   2.336   5.656  13.743  0.0562 -0.0603  0.1038
15636TIP3    H168399   2.340   5.711  13.821 -2.1861  0.0906  0.1758
15636TIP3    H268400   2.400   5.695  13.683  0.7329  0.7201  1.2887
15637TIP3   OH268401   2.764   0.737  10.763  0.3792 -0.5217  0.5339
15637TIP3    H168402   2.847   0.706  10.728  1.1305  0.4911  1.3599
15637TIP3    H268403   2.747   0.820  10.717 -0.2099 -0.7509  0.3235
15638TIP3   OH268404   5.203   4.470  16.102  0.0458 -0.4907 -0.1667
15638TIP3    H168405   5.234   4.424  16.179 -1.2741 -0.6163  0.3074
15638TIP3    H268406   5.186   4.402  16.037 -2.0139 -0.7411  0.5718
15639TIP3   OH268407   1.453   5.701   3.162  0.2640 -0.2508 -0.6200
15639TIP3    H168408   1.547   5.681   3.163  0.0650 -1.3084  1.3346
15639TIP3    H268409   1.411   5.619   3.138 -0.1939  0.2013 -1.4183
15640TIP3   OH268410   3.527   0.925   4.019  0.1878  0.1305  0.3232
15640TIP3    H168411   3.592   0.941   4.087 -1.3058  1.5791  1.4751
15640TIP3    H268412   3.542   0.834   3.993  2.7140  0.4478  0.4560
15641TIP3   OH268413   6.400   2.143   3.568  0.3448  0.2189  0.0254
15641TIP3    H168414   6.348   2.125   3.490 -0.0534 -0.3287  0.4041
15641TIP3    H268415   6.369   2.228   3.598 -0.5433 -0.2048  0.3860
15642TIP3   OH268416   4.643   5.981  12.315 -0.2914 -0.4876 -0.4617
15642TIP3    H168417   4.691   5.978  12.232 -1.1609 -1.3536 -0.9575
15642TIP3    H268418   4.600   6.067  12.314  0.1809 -0.2505 -0.6251
15643TIP3   OH268419   4.152   4.382   4.836 -0.6319  0.4378 -0.4816
15643TIP3    H168420   4.170   4.465   4.792 -2.7173  2.0932  1.5527
15643TIP3    H268421   4.056   4.373   4.831 -0.9648  0.5789  3.3046
15644TIP3   OH268422   4.724   1.362   0.140  0.3517  0.3958  0.5696
15644TIP3    H168423   4.668   1.284   0.141 -0.0714  0.6897  0.2648
15644TIP3    H268424   4.807   1.332   0.177  0.1803 -0.1919  0.4985
15645TIP3   OH268425   4.059   0.650   1.683  0.6681 -0.0477  0.1471
15645TIP3    H168426   4.017   0.577   1.729 -1.5803 -0.1984 -1.9305
15645TIP3    H268427   4.113   0.607   1.617 -0.4327  0.0888 -0.8876
15646TIP3   OH268428   2.452   3.840  12.611  0.2416 -0.1996 -0.3316
15646TIP3    H168429   2.417   3.836  12.522  0.8824  0.7045 -0.6387
15646TIP3    H268430   2.426   3.757  12.650 -2.2826  0.4303 -0.5094
15647TIP3   OH268431   5.029   1.785  16.604 -0.2143 -0.3321  0.1160
15647TIP3    H168432   5.017   1.865  16.654  0.8246  0.0363 -0.1904
15647TIP3    H268433   5.092   1.809  16.535 -0.0803 -1.3409 -0.1337
15648TIP3   OH268434   0.778   4.577  15.674 -0.9231  0.1269 -0.0074
15648TIP3    H168435   0.821   4.563  15.590 -0.2482 -0.1184  0.3686
15648TIP3    H268436   0.842   4.626  15.726 -0.6181 -1.2124  0.9496
15649TIP3   OH268437   2.334   6.293  12.681 -0.3757 -0.3607  0.2676
15649TIP3    H168438   2.365   6.307  12.592 -0.9413  2.1508  0.4037
15649TIP3    H268439   2.273   6.365  12.697  1.2121  0.4650  3.3690
15650TIP3   OH268440   1.432   2.157  17.376  0.0552 -0.2687 -0.0966
15650TIP3    H168441   1.413   2.193  17.290 -0.1900  0.4168  0.2353
15650TIP3    H268442   1.515   2.197  17.401  1.1014 -1.8809 -0.7796
15651TIP3   OH268443   2.369   0.227  15.770  0.2636  0.1953  0.3114
15651TIP3    H168444   2.464   0.229  15.758  0.6407 -2.4731  1.8768
15651TIP3    H268445   2.337   0.168  15.701 -0.0930  0.1476  0.5144
15652TIP3   OH268446   2.190   1.029   0.177 -0.3085  0.2386  0.4121
15652TIP3    H168447   2.232   1.000   0.097 -1.5019 -0.8713  0.1640
15652TIP3    H268448   2.215   1.122   0.185  0.2419  0.2254 -0.9442
15653TIP3   OH268449   6.270   0.711  14.306 -0.2502  0.1919  0.4555
15653TIP3    H168450   6.261   0.801  14.274 -0.4769  0.6161  1.6499
15653TIP3    H268451   6.313   0.664  14.234 -1.1944  0.9689 -0.6564
15654TIP3   OH268452   0.271   6.192  15.791 -0.6252  0.3874  0.0376
15654TIP3    H168453   0.245   6.284  15.799 -0.5135  0.5064 -0.9141
15654TIP3    H268454   0.224   6.160  15.714  1.0301  0.2492 -0.9502
15655TIP3   OH268455   3.244   4.515   6.480  0.7738  0.0925 -0.1238
15655TIP3    H168456   3.152   4.535   6.495  0.7953  0.2940 -0.2572
15655TIP3    H268457   3.250   4.420   6.485  0.1798 -0.0986 -2.2821
15656TIP3   OH268458   3.917   3.571  11.335  0.2014 -0.2539  0.0398
15656TIP3    H168459   3.871   3.566  11.419 -0.2058  1.2458 -0.0766
15656TIP3    H268460   3.861   3.521  11.275  0.7267 -1.7316  0.7195
15657TIP3   OH268461   2.799   0.570  13.100 -0.0517 -0.1617  0.1678
15657TIP3    H168462   2.867   0.570  13.032 -0.1699 -0.3973  0.0457
15657TIP3    H268463   2.837   0.619  13.173 -0.0592  0.4085 -0.2061
15658TIP3   OH268464   0.138   2.845  16.910  0.6494 -0.0528  0.3634
15658TIP3    H168465   0.221   2.841  16.863 -0.8317 -0.6358 -2.4869
15658TIP3    H268466   0.128   2.937  16.935 -0.2169  1.4327 -4.3341
15659TIP3   OH268467   1.345   2.662   5.166  0.2087  0.4346 -0.3257
15659TIP3    H168468   1.425   2.697   5.205 -0.7726 -0.9607  3.3704
15659TIP3    H268469   1.274   2.705   5.214 -1.1632 -1.0803 -0.9099
15660TIP3   OH268470   4.898   3.871  14.943 -0.8819 -0.5870  0.0024
15660TIP3    H168471   4.848   3.795  14.971  2.2706 -2.9757 -0.3300
15660TIP3    H268472   4.964   3.883  15.011 -0.6946  1.2981 -0.4498
15661TIP3   OH268473   3.062   0.309   1.996 -0.5545 -0.6620  0.1320
15661TIP3    H168474   3.064   0.257   2.077  0.1256 -1.2615 -0.2599
15661TIP3    H268475   2.979   0.357   2.001 -0.8292 -1.1821  0.8769
15662TIP3   OH268476   3.302   1.056  15.743  0.3861  0.1566  0.3048
15662TIP3    H168477   3.355   1.073  15.665  0.5121 -1.5807 -0.0261
15662TIP3    H268478   3.363   1.019  15.806  0.1317  0.8695  0.9874
15663TIP3   OH268479   0.136   0.730   3.802  0.1879  0.1666 -0.2122
15663TIP3    H168480   0.191   0.757   3.876  1.1262 -0.6021 -0.6088
15663TIP3    H268481   0.097   0.812   3.771 -1.0002  0.4108  1.7007
15664TIP3   OH268482   3.573   2.508   2.495  0.1796  0.2326  0.2410
15664TIP3    H168483   3.606   2.470   2.577 -0.4194 -1.2687 -0.1910
15664TIP3    H268484   3.651   2.528   2.445  0.5163 -0.2448  0.5658
15665TIP3   OH268485   2.372   1.061  17.098  0.0645 -0.0652 -0.3547
15665TIP3    H168486   2.342   1.149  17.076  0.6913 -0.2622 -2.2062
15665TIP3    H268487   2.345   1.007  17.024 -0.2164 -1.4241  0.6946
15666TIP3   OH268488   4.533   6.608   1.839  0.5032  0.2684 -0.4522
15666TIP3    H168489   4.446   6.640   1.866  1.6436  0.6910  3.2841
15666TIP3    H268490   4.518   6.517   1.816 -0.5723 -0.7372  3.4766
15667TIP3   OH268491   4.727   2.369   0.348  0.2922 -0.5380  0.0490
15667TIP3    H168492   4.781   2.345   0.273  0.6886 -1.4244  0.6059
15667TIP3    H268493   4.767   2.449   0.381  1.9605 -1.7245  1.0824
15668TIP3   OH268494   5.520   6.628   6.761 -0.1978  0.0117  0.3692
15668TIP3    H168495   5.510   6.723   6.769 -3.0374 -0.2622  1.5517
15668TIP3    H268496   5.530   6.598   6.851 -0.5495 -0.8804  0.1180
15669TIP3   OH268497   1.541   2.961  10.382  0.2506 -0.0597 -0.1169
15669TIP3    H168498   1.572   3.019  10.451 -0.9231 -0.2849  0.6343
15669TIP3    H268499   1.456   2.929  10.414  0.4418 -1.4649 -0.9222
15670TIP3   OH268500   4.168   3.298   3.456  0.5114 -0.2295  0.7347
15670TIP3    H168501   4.124   3.238   3.395  2.4718 -2.7711  1.6421
15670TIP3    H268502   4.146   3.263   3.543  3.0655 -0.7827  1.2456
15671TIP3   OH268503   4.104   2.936  15.686  0.3961  0.3095 -0.3527
15671TIP3    H168504   4.170   3.004  15.668  1.0460 -0.3969 -0.7106
15671TIP3    H268505   4.039   2.947  15.617 -0.9288  2.2673  1.1053
15672TIP3   OH268506   6.225   3.300   1.389  0.1119  0.2048  0.0678
15672TIP3    H168507   6.155   3.332   1.445  0.8596 -1.6145  2.2020
15672TIP3    H268508   6.275   3.379   1.365 -1.2022  1.2195  0.5536
15673TIP3   OH268509   3.878   5.516  16.684 -0.1291  0.3537 -0.4845
15673TIP3    H168510   3.832   5.450  16.736  0.6358 -0.7457 -1.1526
15673TIP3    H268511   3.891   5.589  16.743  0.3211 -0.6854  0.7545
15674TIP3   OH268512   5.208   6.257  14.093 -0.0848  0.1984  0.5015
15674TIP3    H168513   5.113   6.245  14.091 -0.0955 -0.8305  2.9606
15674TIP3    H268514   5.220   6.340  14.139  0.1799 -0.0174  0.8306
15675TIP3   OH268515   3.224   4.581  15.828 -0.0217  0.0436  0.3252
15675TIP3    H168516   3.136   4.583  15.791  0.9715 -1.3572 -2.3644
15675TIP3    H268517   3.238   4.489  15.852  0.6883  0.2665  0.8092
15676TIP3   OH268518   4.695   0.642  13.570  0.1523 -0.0553  0.2119
15676TIP3    H168519   4.605   0.626  13.597  0.1999 -0.6539  0.0368
15676TIP3    H268520   4.742   0.663  13.651 -0.0335 -0.2874  0.3807
15677TIP3   OH268521   6.753   0.705  15.241  0.0599 -0.1548 -0.6143
15677TIP3    H168522   6.768   0.710  15.147 -0.2404 -0.9697 -0.7128
15677TIP3    H268523   6.813   0.637  15.272 -0.6785 -0.7268 -0.4111
15678TIP3   OH268524   0.259   5.541   1.352 -0.1084 -0.1052  0.1092
15678TIP3    H168525   0.318   5.516   1.422 -0.5475 -1.6120 -0.0258
15678TIP3    H268526   0.181   5.488   1.366 -0.3130 -0.2372 -1.3539
15679TIP3   OH268527   5.881   1.245   5.413 -0.6264 -0.1848  0.4583
15679TIP3    H168528   5.802   1.195   5.391 -0.4920 -0.1911 -0.0258
15679TIP3    H268529   5.900   1.297   5.335 -0.9218  0.8500  1.0595
15680TIP3   OH268530   2.628   5.236  13.346  1.0999 -0.1314  0.4271
15680TIP3    H168531   2.666   5.149  13.354  0.3362 -0.4711  0.5056
15680TIP3    H268532   2.570   5.245  13.422  1.6694  0.7141  0.7810
15681TIP3   OH268533   4.899   4.273  16.370  0.4074 -0.0651  0.5008
15681TIP3    H168534   4.846   4.210  16.418  0.8182 -0.3244  0.6117
15681TIP3    H268535   4.960   4.308  16.435  0.9792 -0.4345  0.1721
15682TIP3   OH268536   6.007   4.999   2.452 -0.7706  0.1100  0.3114
15682TIP3    H168537   6.026   5.084   2.413  0.0198  0.0461  0.5241
15682TIP3    H268538   6.076   4.988   2.518 -0.8336 -0.7097  0.2466
15683TIP3   OH268539   2.582   1.242  15.401  0.5218  0.1738  0.1719
15683TIP3    H168540   2.662   1.189  15.400  1.0427  0.9553 -1.1020
15683TIP3    H268541   2.612   1.332  15.409 -0.3703  0.3410  2.4993
15684TIP3   OH268542   2.302   0.141   1.195 -0.0782  0.3718  0.2576
15684TIP3    H168543   2.220   0.156   1.147  0.4397 -1.0630 -1.1439
15684TIP3    H268544   2.362   0.207   1.160 -0.6930  1.6818  1.5627
15685TIP3   OH268545   1.919   1.330   1.722 -0.0885  0.3459 -0.9140
15685TIP3    H168546   1.970   1.311   1.644 -1.4191 -0.3993 -1.6381
15685TIP3    H268547   1.942   1.260   1.783  1.4194  1.2745 -0.3702
15686TIP3   OH268548   4.171   2.369  16.513 -0.5485  0.4013 -0.3517
15686TIP3    H168549   4.232   2.300  16.540 -0.9526 -0.1385 -0.7944
15686TIP3    H268550   4.103   2.368  16.580 -0.3780  0.6027 -0.1744
15687TIP3   OH268551   0.955   2.073   0.954 -0.3240  0.6716  0.2800
15687TIP3    H168552   1.027   2.078   1.016 -0.1250 -2.6743  0.5076
15687TIP3    H268553   0.876   2.087   1.006  0.0245  2.3368  0.3975
15688TIP3   OH268554   4.270   1.797   2.323 -1.2263 -0.0544 -0.4517
15688TIP3    H168555   4.191   1.743   2.317 -1.2726  0.1870 -2.8868
15688TIP3    H268556   4.257   1.866   2.258  1.2246 -0.3517 -1.3555
15689TIP3   OH268557   2.202   5.795   3.936 -0.5924 -0.2379  0.0464
15689TIP3    H168558   2.238   5.871   3.981 -1.2574 -0.4996  1.0669
15689TIP3    H268559   2.195   5.728   4.005  1.1974 -1.6813 -1.0845
15690TIP3   OH268560   6.087   2.834  16.283  0.2400  0.7167  0.2820
15690TIP3    H168561   6.133   2.893  16.343 -0.6953  0.8857  0.8563
15690TIP3    H268562   6.153   2.771  16.256  0.7364  0.7707  1.3279
15691TIP3   OH268563   3.408   1.434  15.342 -0.1005 -0.0299 -0.2886
15691TIP3    H168564   3.431   1.375  15.270  0.9305  1.4202 -1.1892
15691TIP3    H268565   3.453   1.396  15.418  0.7866 -0.2676 -0.9139
15692TIP3   OH268566   2.835   6.588  15.486 -0.3763 -0.1550  0.0199
15692TIP3    H168567   2.799   6.676  15.497  1.3771  0.5411  0.4493
15692TIP3    H268568   2.840   6.553  15.575  0.4026 -0.0566  0.0236
15693TIP3   OH268569   6.713   3.688  16.654  0.6571  0.5002 -0.1413
15693TIP3    H168570   6.758   3.605  16.670  1.1783  0.7055 -0.5074
15693TIP3    H268571   6.624   3.674  16.685  0.5374 -0.4461 -0.8579
15694TIP3   OH268572   4.726   4.605  15.904 -1.3931  0.0770  0.0517
15694TIP3    H168573   4.820   4.610  15.919 -1.6090  0.3150  1.4363
15694TIP3    H268574   4.705   4.685  15.857 -0.9804  0.2841  0.2112
15695TIP3   OH268575   0.078   3.019  16.371  0.0133  0.2718  0.1580
15695TIP3    H168576   0.066   3.095  16.428  2.5914  0.6434  0.3241
15695TIP3    H268577   0.010   2.957  16.398 -2.9839  2.8770 -0.7775
15696TIP3   OH268578   2.290   6.162  15.222  0.1433  0.0006  0.8191
15696TIP3    H168579   2.341   6.198  15.150 -0.3081  0.1788  0.5866
15696TIP3    H268580   2.294   6.229  15.290  0.7774 -0.2744  1.0604
15697TIP3   OH268581   5.865   0.498   1.955  0.3947 -1.0985 -0.7444
15697TIP3    H168582   5.903   0.586   1.959 -0.0007 -0.9641  0.7108
15697TIP3    H268583   5.771   0.513   1.944 -0.0195 -1.2000  1.9197
15698TIP3   OH268584   2.429   0.954   0.054  0.4260  0.3460 -0.0455
15698TIP3    H168585   2.438   0.916   0.141  1.9718 -0.2106 -0.4146
15698TIP3    H268586   2.512   0.999   0.039  1.0668 -1.3378 -2.0525
15699TIP3   OH268587   5.978   4.937  17.213 -0.7043 -0.3510  0.2737
15699TIP3    H168588   6.029   4.995  17.156 -1.8119 -1.0340 -1.4853
15699TIP3    H268589   6.025   4.939  17.296  0.8693  0.8521 -0.5754
15700TIP3   OH268590   4.132   6.297   0.897  0.6606  0.0150 -0.3882
15700TIP3    H168591   4.120   6.257   0.983 -0.4539  1.3344  0.1020
15700TIP3    H268592   4.226   6.310   0.890  0.6758  1.1383  1.2517
15701TIP3   OH268593   5.244   1.100  11.011 -0.7504 -0.1910 -0.0963
15701TIP3    H168594   5.150   1.085  11.014 -0.5934 -1.0824  1.4214
15701TIP3    H268595   5.257   1.159  10.937 -2.5324  0.1914 -0.1401
15702TIP3   OH268596   5.478   4.696  17.369  0.5156  0.0670 -0.4761
15702TIP3    H168597   5.446   4.638  17.300  0.5059 -0.1751 -0.2689
15702TIP3    H268598   5.540   4.754  17.324 -1.2046  1.4571 -1.1661
15703TIP3   OH268599   3.271   6.592  12.253  0.9367  0.2041 -0.0011
15703TIP3    H168600   3.293   6.602  12.160 -0.6906  1.0153 -0.3424
15703TIP3    H268601   3.340   6.537  12.289  2.9240  1.7730 -1.1733
15704TIP3   OH268602   5.007   5.183   3.726  0.1841 -0.0566  0.4916
15704TIP3    H168603   5.069   5.157   3.658 -0.5722  1.6956 -0.9344
15704TIP3    H268604   5.049   5.156   3.808  1.5677 -1.3329 -0.5785
15705TIP3   OH268605   4.668   2.160   5.108  0.2008 -0.1867 -0.0489
15705TIP3    H168606   4.573   2.161   5.097  0.2272 -0.4594 -0.3228
15705TIP3    H268607   4.681   2.168   5.202 -0.0300  2.3482 -0.1566
15706TIP3   OH268608   0.794   0.223   2.619 -0.1009  0.5204 -0.7661
15706TIP3    H168609   0.801   0.135   2.582  0.2605 -0.0490  0.6138
15706TIP3    H268610   0.828   0.215   2.708 -2.9744  1.3562  0.5123
15707TIP3   OH268611   5.416   6.590   3.157  0.2077  0.4270 -0.2693
15707TIP3    H168612   5.428   6.604   3.063  1.1297  1.5363 -0.0204
15707TIP3    H268613   5.341   6.645   3.180  0.9325  1.3905 -0.1152
15708TIP3   OH268614   6.404   2.694  16.346  0.0154 -0.2557 -0.0246
15708TIP3    H168615   6.361   2.773  16.377 -0.5063 -0.2863 -0.6526
15708TIP3    H268616   6.408   2.637  16.423 -1.9878 -0.6562 -0.1643
15709TIP3   OH268617   1.537   6.092   2.765  0.3182 -0.2390 -0.8221
15709TIP3    H168618   1.456   6.133   2.733  0.3530  1.4279  1.0483
15709TIP3    H268619   1.508   6.019   2.819  0.0246  0.4560 -0.0196
15710TIP3   OH268620   3.612   2.221  13.780  0.5705  0.1019  0.4073
15710TIP3    H168621   3.680   2.158  13.803  1.3223  1.6023  2.6777
15710TIP3    H268622   3.657   2.287  13.727 -0.1052 -0.9429 -1.5559
15711TIP3   OH268623   6.079   0.309  15.178  0.4599  0.1513  0.3133
15711TIP3    H168624   6.126   0.249  15.120 -0.4822  0.1150 -0.4272
15711TIP3    H268625   5.988   0.281  15.172 -0.0182  1.7176 -0.1084
15712TIP3   OH268626   2.730   5.530   4.273  0.2232 -0.7689  0.1729
15712TIP3    H168627   2.771   5.513   4.358  0.6245  0.6724  0.3071
15712TIP3    H268628   2.637   5.514   4.288  0.2846 -0.5012  0.9050
15713TIP3   OH268629   2.558   6.065   0.630 -0.5599 -0.0976 -0.0759
15713TIP3    H168630   2.615   6.116   0.571  0.0780 -1.2242 -0.4593
15713TIP3    H268631   2.537   5.986   0.580  2.6686 -2.7056  2.2878
15714TIP3   OH268632   3.370   5.248   4.182 -0.1677  0.0657 -0.0367
15714TIP3    H168633   3.304   5.181   4.159  1.5971 -0.9665 -2.5187
15714TIP3    H268634   3.413   5.213   4.260 -2.4517  0.7712  1.6527
15715TIP3   OH268635   3.829   5.187  15.812  0.4820 -0.3922  0.0817
15715TIP3    H168636   3.813   5.273  15.773 -1.2929 -1.3145 -1.3636
15715TIP3    H268637   3.777   5.187  15.892  0.1268 -0.2771 -0.1447
15716TIP3   OH268638   0.891   0.607  14.246 -0.5405  0.1739 -0.3779
15716TIP3    H168639   0.933   0.634  14.329  1.0689 -2.4235 -0.2268
15716TIP3    H268640   0.922   0.517  14.232 -3.3184 -0.6258 -2.1951
15717TIP3   OH268641   3.094   4.828   2.439 -0.1584  0.3639 -0.4644
15717TIP3    H168642   3.050   4.891   2.496  2.0187  1.6427 -0.0650
15717TIP3    H268643   3.089   4.867   2.352 -0.5807  0.0533 -0.5844
15718TIP3   OH268644   0.637   6.026  12.090 -0.0943  0.1170 -0.1326
15718TIP3    H168645   0.583   6.103  12.105  2.1786  1.8110 -0.1646
15718TIP3    H268646   0.672   6.004  12.176  0.5840  0.1738 -0.3859
15719TIP3   OH268647   1.140   0.305   4.867  0.5973  0.1729 -0.0704
15719TIP3    H168648   1.116   0.272   4.954 -0.0691  1.1281  0.1288
15719TIP3    H268649   1.232   0.330   4.876  0.7510 -0.4435  0.1306
15720TIP3   OH268650   3.233   5.545   2.736  0.1472 -0.2511  0.0969
15720TIP3    H168651   3.316   5.549   2.784  0.3096  1.3644 -0.2730
15720TIP3    H268652   3.258   5.536   2.644  0.0066  1.8826 -0.1989
15721TIP3   OH268653   1.185   6.392   0.038  0.3729 -1.1275  0.3515
15721TIP3    H168654   1.211   6.443  -0.039  0.0372  0.1538  1.0468
15721TIP3    H268655   1.090   6.386   0.031  0.2664 -0.4151  0.9835
15722TIP3   OH268656   5.837   6.130  12.058 -0.1050 -0.0167 -0.8388
15722TIP3    H168657   5.804   6.127  12.148  2.0958 -3.5573  0.0665
15722TIP3    H268658   5.840   6.038  12.031  0.9099  0.8028 -3.9295
15723TIP3   OH268659   0.708   2.123  13.546  0.1082  0.1808 -0.2265
15723TIP3    H168660   0.752   2.166  13.620  0.3948 -0.0340 -0.2714
15723TIP3    H268661   0.776   2.113  13.480  0.4662 -1.7750  0.3697
15724TIP3   OH268662   5.593   5.946  12.670  0.1880  0.9390 -0.0030
15724TIP3    H168663   5.500   5.930  12.683  0.3505  0.9480  1.2930
15724TIP3    H268664   5.599   6.040  12.656 -0.2014  0.6813 -2.3126
15725TIP3   OH268665   3.747   3.696  12.684  0.1911 -0.5707  0.1312
15725TIP3    H168666   3.770   3.744  12.605  1.0734 -0.5441  0.3861
15725TIP3    H268667   3.665   3.651  12.663  1.4019 -2.1497 -1.5160
15726TIP3   OH268668   2.064   4.620   5.338  0.4974 -0.3839  0.7203
15726TIP3    H168669   2.050   4.538   5.292  1.0807 -0.0964  0.0235
15726TIP3    H268670   2.150   4.650   5.310 -0.0874  0.9238  0.2504
15727TIP3   OH268671   3.083   4.000  12.870 -0.3613 -0.2611 -0.2435
15727TIP3    H168672   3.015   3.984  12.936 -0.0782  0.8915  0.3570
15727TIP3    H268673   3.162   4.018  12.921  1.2015 -4.3613 -0.8824
15728TIP3   OH268674   4.179   2.942  11.264 -0.3867  0.2592  0.1135
15728TIP3    H168675   4.228   2.958  11.346 -0.7153 -1.4903  0.6991
15728TIP3    H268676   4.148   3.029  11.237 -0.2497  0.8871  1.8416
15729TIP3   OH268677   4.488   2.299   0.197  0.3751  0.2280 -0.2190
15729TIP3    H168678   4.540   2.288   0.276 -2.1666  0.9572  1.6598
15729TIP3    H268679   4.541   2.357   0.141  1.9749  0.1476  1.1534
15730TIP3   OH268680   3.096   3.446   6.374 -0.2050 -0.3960 -0.1320
15730TIP3    H168681   3.113   3.505   6.300  0.7377 -0.8200 -0.2660
15730TIP3    H268682   3.104   3.503   6.451  0.7491 -0.3460 -0.2567
15731TIP3   OH268683   1.110   0.119  12.298 -0.1707  0.3862 -0.3742
15731TIP3    H168684   1.197   0.088  12.322 -0.4284 -1.5227 -1.6626
15731TIP3    H268685   1.124   0.169  12.217  0.0893  2.7934  1.0865
15732TIP3   OH268686   5.562   5.634   4.184 -0.5753  0.2051 -0.6502
15732TIP3    H168687   5.533   5.718   4.147  0.8306  1.3963  0.8169
15732TIP3    H268688   5.575   5.578   4.107  0.7460  2.0924 -1.9076
15733TIP3   OH268689   4.242   4.206   5.315 -0.0904  0.7248  0.4781
15733TIP3    H168690   4.318   4.188   5.371 -0.1512 -0.9786  0.0508
15733TIP3    H268691   4.281   4.236   5.233  0.0148  2.3952  1.0825
15734TIP3   OH268692   1.449   1.767   2.396 -0.2343  0.3998 -0.3793
15734TIP3    H168693   1.513   1.698   2.412 -0.4712  0.5563  1.4567
15734TIP3    H268694   1.423   1.756   2.305  0.0459 -1.6537 -0.2409
15735TIP3   OH268695   1.097   6.606   5.750 -0.1218 -0.4348  0.0438
15735TIP3    H168696   1.092   6.511   5.741  4.5285 -0.8980 -0.2229
15735TIP3    H268697   1.106   6.620   5.844  2.2939 -0.7146 -0.0692
15736TIP3   OH268698   3.242   2.832   0.254 -0.2287 -0.2749 -0.3573
15736TIP3    H168699   3.214   2.853   0.166 -1.7567 -0.7531 -0.0159
15736TIP3    H268700   3.162   2.834   0.306  0.3386 -1.8078  0.6599
15737TIP3   OH268701   4.337   2.476   1.655 -0.0753  0.2531 -0.1958
15737TIP3    H168702   4.335   2.465   1.560  1.2647 -1.6724 -0.0608
15737TIP3    H268703   4.368   2.566   1.668  0.6200  0.2378 -1.6052
15738TIP3   OH268704   4.478   1.551  16.016  0.2714 -0.6114 -0.0704
15738TIP3    H168705   4.432   1.573  15.935 -0.8190 -1.8454  0.1933
15738TIP3    H268706   4.501   1.459  16.006  0.3026 -0.7194  0.9494
15739TIP3   OH268707   5.062   0.122  12.863  0.4334  0.0733 -0.2387
15739TIP3    H168708   4.972   0.139  12.890  0.8102  1.0904  0.4245
15739TIP3    H268709   5.067   0.156  12.773  0.1626  0.0338 -0.2682
15740TIP3   OH268710   3.327   4.798  12.244  0.6578  0.8208  0.0139
15740TIP3    H168711   3.266   4.727  12.223 -0.1516  1.2320  0.9012
15740TIP3    H268712   3.278   4.878  12.227 -0.0961  1.2124  3.2632
15741TIP3   OH268713   0.341   6.620   3.958 -0.0457  0.6295 -0.2701
15741TIP3    H168714   0.380   6.628   4.045 -0.1806  1.3194 -0.2630
15741TIP3    H268715   0.247   6.606   3.974 -0.4578  2.9848 -0.2848
15742TIP3   OH268716   2.753   1.548   2.718  0.0242 -0.0121  0.2297
15742TIP3    H168717   2.740   1.641   2.701 -0.3251 -0.1706 -0.3942
15742TIP3    H268718   2.717   1.534   2.805  0.3313  0.4894  0.4420
15743TIP3   OH268719   0.204   6.145   3.971  0.6691  0.4783 -0.0955
15743TIP3    H168720   0.182   6.056   3.941  2.1192  0.0307  0.1093
15743TIP3    H268721   0.223   6.193   3.890 -0.6599  0.7971 -0.2546
15744TIP3   OH268722   5.409   5.663   6.177  0.2333 -0.1314  0.0029
15744TIP3    H168723   5.358   5.699   6.250  1.4115  3.8828 -0.8653
15744TIP3    H268724   5.478   5.612   6.220 -0.3557  0.3225  1.5758
15745TIP3   OH268725   5.080   0.374  16.559  0.1711 -0.2614  0.0935
15745TIP3    H168726   5.151   0.383  16.622 -1.6167  3.2885  1.8851
15745TIP3    H268727   5.121   0.334  16.482  3.5542 -0.3700  1.7852
15746TIP3   OH268728   1.539   5.041  10.600  0.9413  0.4178  0.1614
15746TIP3    H168729   1.564   5.114  10.656  1.3592  0.7366 -0.4327
15746TIP3    H268730   1.463   5.072  10.551  1.5377  0.7155 -0.5972
15747TIP3   OH268731   4.742   3.615  15.901  0.2707 -0.6412 -0.1131
15747TIP3    H168732   4.804   3.571  15.843 -1.3602 -2.0509 -0.8933
15747TIP3    H268733   4.737   3.557  15.978  1.8498  0.8267  1.1675
15748TIP3   OH268734   2.986   1.096   2.047  0.4492 -0.1457 -0.0083
15748TIP3    H168735   3.048   1.132   2.111  0.2026 -3.0707  2.0722
15748TIP3    H268736   3.041   1.045   1.987  0.4958  1.1634 -1.1045
15749TIP3   OH268737   6.082   4.583   6.467  0.2417  0.0522 -0.5472
15749TIP3    H168738   6.020   4.632   6.521 -1.4996 -0.2853 -2.1584
15749TIP3    H268739   6.141   4.650   6.432 -0.9164  0.7833 -1.1681
15750TIP3   OH268740   1.038   3.954  13.317 -0.4614  0.7285 -0.3565
15750TIP3    H168741   1.062   4.031  13.266  1.7176  0.2719 -0.1127
15750TIP3    H268742   1.052   3.979  13.408  0.8212 -0.0940 -0.3030
15751TIP3   OH268743   2.060   5.948   1.984  0.3737  0.2438 -0.5201
15751TIP3    H168744   2.074   5.864   2.026 -0.4922 -0.5576 -1.7768
15751TIP3    H268745   1.986   5.934   1.924  0.9039  1.5975 -1.5534
15752TIP3   OH268746   4.976   3.622   2.668 -0.5430 -0.1445 -0.4209
15752TIP3    H168747   5.042   3.590   2.730 -0.3294  1.5589  0.3016
15752TIP3    H268748   4.985   3.566   2.592  1.7442  0.0197 -0.3341
15753TIP3   OH268749   5.136   0.876  15.968 -0.0885 -0.4070  0.1288
15753TIP3    H168750   5.194   0.857  15.893  1.0971  0.5382  0.7586
15753TIP3    H268751   5.176   0.831  16.041  0.0946  0.5780  0.6563
15754TIP3   OH268752   4.355   4.314   3.520 -0.0416 -0.5305  0.4969
15754TIP3    H168753   4.379   4.351   3.435 -0.9579 -2.2141 -0.5580
15754TIP3    H268754   4.323   4.388   3.571 -0.6257  0.3279 -1.0663
15755TIP3   OH268755   4.084   3.510   2.006  0.0896  0.6312  0.1460
15755TIP3    H168756   4.002   3.559   2.017  0.4349  0.9862  1.3332
15755TIP3    H268757   4.148   3.560   2.057  0.9882  0.2086 -0.5406
15756TIP3   OH268758   1.831   4.990   0.981 -0.5005 -0.2407  0.3598
15756TIP3    H168759   1.788   5.072   1.004  0.4020  0.5072 -0.5287
15756TIP3    H268760   1.762   4.924   0.989 -2.2434  1.0730 -2.1865
15757TIP3   OH268761   1.622   3.787  15.392 -0.0448 -0.1405 -0.4006
15757TIP3    H168762   1.663   3.817  15.311 -1.3654 -1.2796 -1.5465
15757TIP3    H268763   1.646   3.694  15.397  0.2635 -0.0167  0.6909
15758TIP3   OH268764   1.931   5.757  16.344 -0.3732 -0.1251 -0.3677
15758TIP3    H168765   1.885   5.820  16.399  0.3583  0.5567 -0.5277
15758TIP3    H268766   1.909   5.782  16.254 -0.7932 -0.6515 -0.4197
15759TIP3   OH268767   2.274   1.472  14.648 -0.0228 -0.4363 -0.1202
15759TIP3    H168768   2.228   1.485  14.566 -0.8359 -0.1926  0.3576
15759TIP3    H268769   2.270   1.377  14.663  0.1577 -0.4853 -0.3664
15760TIP3   OH268770   4.205   0.400  14.315 -0.0695 -0.1463  0.8121
15760TIP3    H168771   4.261   0.448  14.255  0.1359 -0.2710  0.9032
15760TIP3    H268772   4.202   0.454  14.394 -2.3229  1.2551 -0.1504
15761TIP3   OH268773   2.203   1.377   1.600  0.1721 -0.3165 -0.4499
15761TIP3    H168774   2.179   1.434   1.527  0.9951 -0.5846 -0.9404
15761TIP3    H268775   2.229   1.437   1.669 -4.1129  0.1841  1.0703
15762TIP3   OH268776   5.059   2.023  12.490 -0.1096  0.2541 -0.1143
15762TIP3    H168777   4.977   2.072  12.485 -0.8028 -0.8704 -0.1260
15762TIP3    H268778   5.066   1.979  12.406  0.9097  0.9276 -0.4010
15763TIP3   OH268779   0.304   5.102  12.152  0.0568  0.3247 -0.0892
15763TIP3    H168780   0.363   5.032  12.182 -0.6231 -0.6310 -0.9202
15763TIP3    H268781   0.324   5.176  12.209  2.7999  0.3827 -0.9975
15764TIP3   OH268782   3.462   1.175  15.998 -0.0323  0.2573  0.4466
15764TIP3    H168783   3.519   1.100  15.982 -1.3135 -0.6491 -0.0695
15764TIP3    H268784   3.519   1.241  16.038  0.7055 -1.7159  2.8705
15765TIP3   OH268785   5.645   1.900   4.452 -0.0257 -0.0601  0.3355
15765TIP3    H168786   5.590   1.977   4.468  0.2408  0.5274 -1.4071
15765TIP3    H268787   5.585   1.837   4.412  0.3784  0.2844 -0.8253
15766TIP3   OH268788   4.946   1.696   5.300  0.0218 -0.0217  0.0098
15766TIP3    H168789   4.856   1.726   5.304  0.3857  1.1913 -0.4320
15766TIP3    H268790   4.941   1.608   5.263 -0.8765  0.5896 -1.3963
15767TIP3   OH268791   2.288   1.066   3.673  0.0169  0.2134  0.6349
15767TIP3    H168792   2.272   1.032   3.585 -1.6297  2.0314  0.1834
15767TIP3    H268793   2.238   1.008   3.731  2.4220 -2.0261  0.6672
15768TIP3   OH268794   4.060   1.070  16.424 -0.0021  0.2900  0.6005
15768TIP3    H168795   4.021   1.102  16.342  1.0872  2.3609  0.8297
15768TIP3    H268796   4.154   1.078  16.411  0.2647 -1.1291  1.4179
15769TIP3   OH268797   4.342   6.667  11.706  0.0137 -0.2080 -0.1700
15769TIP3    H168798   4.393   6.738  11.744  1.4196 -2.1110  1.7533
15769TIP3    H268799   4.407   6.606  11.671 -0.8970 -2.1263  1.2632
15770TIP3   OH268800   0.878   0.307  12.953  0.4438  0.0111 -0.2548
15770TIP3    H168801   0.957   0.281  12.906  1.5343 -0.1962  1.5723
15770TIP3    H268802   0.910   0.334  13.039 -1.5303 -0.5992  0.7281
15771TIP3   OH268803   3.919   1.637   4.001 -0.3861 -0.1852 -0.0651
15771TIP3    H168804   3.836   1.607   3.964  0.5818 -1.6240 -1.2095
15771TIP3    H268805   3.905   1.638   4.096 -1.2208 -2.0609 -0.1338
15772TIP3   OH268806   2.330   1.375   1.264  0.9230  0.2537  0.9999
15772TIP3    H168807   2.285   1.292   1.246 -1.5586  1.5179  0.9181
15772TIP3    H268808   2.358   1.406   1.178  1.6261 -0.3518  1.0017
15773TIP3   OH268809   4.531   4.936   2.719 -0.5914 -0.0391  0.0599
15773TIP3    H168810   4.573   4.850   2.716  1.5687  0.8035  2.5896
15773TIP3    H268811   4.441   4.918   2.745 -0.7801 -1.6360 -1.5090
15774TIP3   OH268812   5.821   6.058   6.643 -0.5884 -0.3726 -0.5781
15774TIP3    H168813   5.759   6.069   6.715  0.0466  1.6220 -0.2793
15774TIP3    H268814   5.767   6.067   6.564 -0.7996  0.7318 -0.3227
15775TIP3   OH268815   5.895   6.042   3.268  0.1000 -0.0977 -0.4705
15775TIP3    H168816   5.865   6.133   3.265 -0.4119 -0.1643  1.4003
15775TIP3    H268817   5.838   6.000   3.332 -0.1335 -1.9381 -1.7966
15776TIP3   OH268818   2.133   0.442  15.212  0.3200  0.0602  0.0260
15776TIP3    H168819   2.078   0.384  15.159  1.0649 -0.5048 -0.1476
15776TIP3    H268820   2.151   0.392  15.291  0.6586  0.1974  0.0393
15777TIP3   OH268821   6.294   5.978  17.099  0.4059 -0.0496 -0.8941
15777TIP3    H168822   6.269   6.066  17.130  1.6776  0.4488 -1.2230
15777TIP3    H268823   6.383   5.989  17.065  0.3558 -1.3490 -1.4948
15778TIP3   OH268824   4.144   3.225   6.012 -0.8248  0.2424  0.6889
15778TIP3    H168825   4.175   3.147   6.057 -3.3466 -1.4165 -0.2540
15778TIP3    H268826   4.058   3.242   6.049 -0.6096  2.2172  0.3930
15779TIP3   OH268827   6.219   0.865   1.836 -0.1956 -0.1850  0.4192
15779TIP3    H168828   6.154   0.865   1.766  1.9366 -2.1163 -1.7396
15779TIP3    H268829   6.286   0.927   1.807  0.7301 -1.0289  0.6847
15780TIP3   OH268830   1.819   5.781  11.316 -0.1484 -0.1958  0.1057
15780TIP3    H168831   1.810   5.802  11.223  0.5895 -1.5316 -0.2933
15780TIP3    H268832   1.829   5.686  11.318 -0.7145 -0.2496  1.6048
15781TIP3   OH268833   4.936   1.914  16.366 -0.6673 -0.2441 -1.1095
15781TIP3    H168834   5.024   1.948  16.382 -0.8938  0.2036 -0.7734
15781TIP3    H268835   4.949   1.824  16.338 -0.1520 -0.5050 -0.0805
15782TIP3   OH268836   3.284   2.559  17.276  0.0674  0.7421  0.0496
15782TIP3    H168837   3.316   2.601  17.356 -1.2380 -1.4370  1.8493
15782TIP3    H268838   3.342   2.484  17.263 -1.1888 -0.3621  0.4891
15783TIP3   OH268839   1.584   4.808   4.611  0.4529  0.1894  0.2392
15783TIP3    H168840   1.555   4.872   4.546  0.8587  0.9696  0.8210
15783TIP3    H268841   1.626   4.860   4.680 -0.3862 -0.5715  1.3626
15784TIP3   OH268842   5.939   1.046  13.158  0.0854  0.2906  0.3610
15784TIP3    H168843   5.884   1.076  13.231  1.4104  1.2878  0.9739
15784TIP3    H268844   5.969   0.959  13.186  0.8108  0.7809  1.1386
15785TIP3   OH268845   4.501   1.818  14.109 -0.1466 -0.0049  0.5433
15785TIP3    H168846   4.472   1.728  14.126 -2.2644 -0.0886 -2.5938
15785TIP3    H268847   4.425   1.872  14.129  0.5976  0.9330  0.9006
15786TIP3   OH268848   2.399   3.394  11.888  0.0472  0.1568  0.5171
15786TIP3    H168849   2.482   3.353  11.862  0.5306  2.3183 -1.8563
15786TIP3    H268850   2.390   3.468  11.828 -3.9821 -0.3803  0.1906
15787TIP3   OH268851   5.371   5.965   5.409 -0.1325  0.0298  0.1849
15787TIP3    H168852   5.320   5.991   5.333 -0.4809 -0.0150  0.4024
15787TIP3    H268853   5.389   6.047   5.455  0.8374  0.1665 -0.4095
15788TIP3   OH268854   2.510   3.796   2.001  0.0191 -0.1680 -0.1962
15788TIP3    H168855   2.487   3.713   2.043  1.3386  0.2912  1.5845
15788TIP3    H268856   2.601   3.813   2.029 -0.2241  1.8886 -0.4574
15789TIP3   OH268857   1.753   5.858   2.837 -0.1798  0.4199  0.2557
15789TIP3    H168858   1.664   5.867   2.869 -0.3150 -0.4899  0.1706
15789TIP3    H268859   1.780   5.947   2.814 -0.9179  0.7534  0.6506
15790TIP3   OH268860   3.151   5.026   3.505  0.5186 -0.0030  0.6126
15790TIP3    H168861   3.184   4.961   3.568  0.2933 -1.9712 -1.1930
15790TIP3    H268862   3.211   5.020   3.431 -0.6062  0.5065 -0.3748
15791TIP3   OH268863   3.084   1.875   2.905 -0.3466  0.3115  0.0485
15791TIP3    H168864   3.106   1.799   2.959  3.4699  0.3922 -1.1470
15791TIP3    H268865   3.167   1.919   2.889 -1.8167  2.3938 -2.7973
15792TIP3   OH268866   3.031   6.065  16.156  0.1619  0.5636 -0.0197
15792TIP3    H168867   2.965   6.119  16.200 -1.5377 -1.1443 -0.3458
15792TIP3    H268868   3.083   6.128  16.106  0.1350  2.1888  1.8724
15793TIP3   OH268869   5.994   5.863   6.502  0.3231  0.4243 -0.6204
15793TIP3    H168870   6.001   5.850   6.596  1.0493 -2.4333 -0.9771
15793TIP3    H268871   5.911   5.909   6.490 -1.3126 -1.8194  1.2613
15794TIP3   OH268872   2.433   5.941  16.145 -0.5970 -0.0025  0.0301
15794TIP3    H168873   2.468   5.873  16.087  2.5193  0.3833  1.2318
15794TIP3    H268874   2.437   5.902  16.233  2.2291  1.9045  0.8876
15795TIP3   OH268875   1.130   4.896   4.817  0.0014  0.0433 -0.2097
15795TIP3    H168876   1.149   4.824   4.876 -0.0132 -0.2051 -0.5070
15795TIP3    H268877   1.034   4.902   4.817  0.0448  1.0090  0.9435
15796TIP3   OH268878   0.302   1.582   6.034  0.0353 -0.0694  0.2625
15796TIP3    H168879   0.356   1.545   5.964 -0.0752  0.5595 -0.1573
15796TIP3    H268880   0.292   1.674   6.011 -1.1962 -0.1676  0.3339
15797TIP3   OH268881   4.942   6.025  17.287  0.4421  0.2660 -0.7477
15797TIP3    H168882   4.896   5.943  17.266  0.6836 -0.2197  0.5479
15797TIP3    H268883   4.915   6.085  17.218 -0.9891 -0.4361 -0.8438
15798TIP3   OH268884   4.108   0.829   2.040  0.3031 -0.2952  0.6881
15798TIP3    H168885   4.193   0.870   2.028  0.7641 -1.1172  1.0197
15798TIP3    H268886   4.055   0.861   1.968  0.7557  0.5746  0.7293
15799TIP3   OH268887   5.457   6.071  11.498  0.9064  0.2995  0.0740
15799TIP3    H168888   5.367   6.103  11.501  0.2623 -1.4398  1.2059
15799TIP3    H268889   5.509   6.144  11.529 -0.4541  0.4532  2.2416
15800TIP3   OH268890   5.849   2.773  15.969  0.0722 -0.0372  0.8354
15800TIP3    H168891   5.893   2.788  15.886 -3.8748  1.6473 -1.2282
15800TIP3    H268892   5.875   2.847  16.024  1.1055 -0.0034  0.3136
15801TIP3   OH268893   3.947   5.810   0.672 -0.2904 -0.1967  0.0222
15801TIP3    H168894   3.906   5.765   0.746  0.6870 -2.8402 -0.9145
15801TIP3    H268895   3.893   5.787   0.597  1.4941 -1.8386 -0.8493
15802TIP3   OH268896   3.663   2.638   5.863 -0.5887  0.2362  0.1620
15802TIP3    H168897   3.730   2.597   5.808 -1.0192  0.7422 -0.7539
15802TIP3    H268898   3.599   2.674   5.802 -0.5712  1.6871  0.9431
15803TIP3   OH268899   2.493   4.262  15.968  0.4376  0.3388  0.2121
15803TIP3    H168900   2.462   4.264  16.058 -0.1636  0.4749  0.0062
15803TIP3    H268901   2.414   4.262  15.915  0.7642 -0.7412 -0.3097
15804TIP3   OH268902   6.059   5.706   0.985 -0.1610  0.1626  0.3642
15804TIP3    H168903   6.091   5.795   0.976 -0.4502  0.2013 -0.3565
15804TIP3    H268904   6.126   5.652   0.941 -0.9940  0.2345 -1.0571
15805TIP3   OH268905   0.120   2.789  14.252 -0.1529 -0.4102 -0.4284
15805TIP3    H168906   0.144   2.849  14.182  1.8141 -1.2065 -0.4909
15805TIP3    H268907   0.053   2.836  14.302  1.6440  2.0547 -0.1822
15806TIP3   OH268908   1.475   2.725  14.653  0.2457 -0.0882 -0.6602
15806TIP3    H168909   1.539   2.795  14.664 -0.2659  0.5556 -1.6395
15806TIP3    H268910   1.420   2.730  14.732  1.5304 -0.8238  0.3215
15807TIP3   OH268911   4.369   5.824   4.075  0.5355  0.4013  0.0695
15807TIP3    H168912   4.457   5.862   4.082  2.8694 -4.5389  2.9930
15807TIP3    H268913   4.371   5.774   3.994 -0.9877  2.7546 -1.5561
15808TIP3   OH268914   0.028   1.575   4.922 -0.3847  0.0533  0.3083
15808TIP3    H168915   0.067   1.505   4.975 -2.0899 -0.2592  1.2236
15808TIP3    H268916  -0.050   1.535   4.883  0.2807  0.5839 -1.6725
15809TIP3   OH268917   3.901   2.596  15.598  0.0525  0.0181  0.6394
15809TIP3    H168918   3.903   2.675  15.651  0.4476 -0.6788  1.7017
15809TIP3    H268919   3.828   2.609  15.538 -1.2354  0.3249  2.1858
15810TIP3   OH268920   5.376   2.540   0.605  0.0515  0.0334  0.1476
15810TIP3    H168921   5.307   2.478   0.631  1.6702 -2.1414 -0.4451
15810TIP3    H268922   5.329   2.620   0.584 -2.3233 -1.3505 -0.2345
15811TIP3   OH268923   3.448   3.284  13.243 -0.1454 -0.0231 -0.1810
15811TIP3    H168924   3.512   3.295  13.173  0.3162  0.7807  0.3487
15811TIP3    H268925   3.484   3.334  13.316 -2.0973  1.7566 -0.3517
15812TIP3   OH268926   5.672   2.498  16.376 -0.1597  0.1265  0.0203
15812TIP3    H168927   5.670   2.443  16.297  1.2485  0.1040 -0.0254
15812TIP3    H268928   5.750   2.553  16.365 -0.2846  0.5535  1.1185
15813TIP3   OH268929   5.283   1.907   4.761 -0.2868 -0.2807  0.7271
15813TIP3    H168930   5.306   1.997   4.784  0.3257 -1.1040  3.7734
15813TIP3    H268931   5.195   1.895   4.798 -0.3659 -0.9320  0.3411
15814TIP3   OH268932   2.576   5.784   1.898  0.0220  0.0990 -0.0118
15814TIP3    H168933   2.549   5.874   1.918 -0.2147  0.6440 -2.4611
15814TIP3    H268934   2.504   5.748   1.846  1.3420 -0.5075 -1.4988
15815TIP3   OH268935   4.924   3.391   3.164 -0.1179 -0.1605 -0.1726
15815TIP3    H168936   4.866   3.462   3.137 -0.2954 -0.1995  0.1046
15815TIP3    H268937   4.883   3.355   3.243  0.4075 -0.0338  0.1635
15816TIP3   OH268938   2.316   3.456   3.181 -0.1726 -0.1862  0.1195
15816TIP3    H168939   2.242   3.491   3.232  0.7709  0.6208  0.9647
15816TIP3    H268940   2.275   3.421   3.102 -1.4271  0.5675  0.4014
15817TIP3   OH268941   3.904   3.763  15.637  0.4880 -0.1995 -0.1832
15817TIP3    H168942   3.968   3.756  15.565  1.5946  0.5408  0.6983
15817TIP3    H268943   3.876   3.854  15.634 -0.9031 -0.6229 -0.8393
15818TIP3   OH268944   0.334   1.100  17.238 -0.3159 -0.5690  0.1709
15818TIP3    H168945   0.255   1.112  17.184  0.1258  0.7525 -0.2374
15818TIP3    H268946   0.396   1.056  17.180  0.1589  0.8538 -0.4424
15819TIP3   OH268947   6.381   4.974  10.782 -0.6268 -0.1859 -0.1598
15819TIP3    H168948   6.333   5.017  10.710 -1.5202  0.0368  0.5483
15819TIP3    H268949   6.444   5.040  10.811 -0.3694 -0.2205 -0.6317
15820TIP3   OH268950   5.900   1.017   1.945  0.2251 -0.4969 -0.3597
15820TIP3    H168951   5.833   1.085   1.937  2.0146  1.4135  0.1349
15820TIP3    H268952   5.852   0.935   1.931 -2.1720  0.7764 -0.1526
15821TIP3   OH268953   1.599   2.438  11.907  0.3397 -0.3473 -0.3246
15821TIP3    H168954   1.692   2.416  11.907  0.1427 -1.5148 -2.8696
15821TIP3    H268955   1.558   2.364  11.953  0.5905 -0.1375  0.2498
15822TIP3   OH268956   4.450   1.547  15.539 -0.5484 -0.2491  0.4377
15822TIP3    H168957   4.377   1.485  15.539 -1.3005  0.6026  1.0652
15822TIP3    H268958   4.480   1.548  15.448 -3.1164  1.4050 -0.5029
15823TIP3   OH268959   2.461   3.429   4.551 -0.5769  0.1483 -0.8082
15823TIP3    H168960   2.531   3.494   4.552  0.3393 -0.5706  3.6383
15823TIP3    H268961   2.380   3.481   4.549  0.1373  1.4013  0.7105
15824TIP3   OH268962   6.486   0.742  12.714  0.0361  0.3220 -0.3121
15824TIP3    H168963   6.447   0.724  12.628  0.5734  0.6730 -0.6349
15824TIP3    H268964   6.544   0.667  12.729 -1.5047 -0.7381  0.6426
15825TIP3   OH268965   0.897   0.200   6.474 -0.1203  0.0685 -0.6927
15825TIP3    H168966   0.803   0.220   6.464 -0.7455 -1.9708  0.5778
15825TIP3    H268967   0.911   0.200   6.568  1.5575  1.7948 -0.8935
15826TIP3   OH268968   4.193   0.552  16.675 -0.4524  0.2260 -0.2246
15826TIP3    H168969   4.211   0.645  16.685 -0.8379  0.5041 -1.8106
15826TIP3    H268970   4.151   0.545  16.589  1.1081 -1.6231 -0.9009
15827TIP3   OH268971   2.198   1.242   0.801 -0.4816 -0.1435  0.1463
15827TIP3    H168972   2.183   1.271   0.711 -0.5182  0.1688  0.2529
15827TIP3    H268973   2.276   1.187   0.795 -1.5186 -1.6578 -0.3891
15828TIP3   OH268974   5.405   2.320  11.726  0.8150  0.0296  0.3262
15828TIP3    H168975   5.445   2.384  11.666 -0.0778  1.3882  1.1167
15828TIP3    H268976   5.468   2.312  11.798  1.3693 -0.7493 -0.2230
15829TIP3   OH268977   5.197   1.109  14.252  0.2550  0.2002 -0.5912
15829TIP3    H168978   5.226   1.040  14.312 -1.1566 -0.1651 -0.2941
15829TIP3    H268979   5.248   1.094  14.172  2.5120  0.9808  0.6240
15830TIP3   OH268980   3.689   2.698  13.767 -0.3626  0.0615  0.4980
15830TIP3    H168981   3.679   2.725  13.676  1.3505  0.9667  0.5401
15830TIP3    H268982   3.682   2.778  13.818 -2.8512 -0.6219  1.3638
15831TIP3   OH268983   3.973   5.573   1.530 -0.2559 -0.2398 -0.2745
15831TIP3    H168984   4.024   5.492   1.526 -0.7106 -0.5805  0.5862
15831TIP3    H268985   3.922   5.565   1.610  1.1971  1.8192  0.9439
15832TIP3   OH268986   6.032   5.069  15.700  0.1172  0.1275  0.4934
15832TIP3    H168987   6.086   5.118  15.762  1.6026 -0.6662 -0.1064
15832TIP3    H268988   6.091   5.003  15.664 -0.3258  1.2784 -2.6790
15833TIP3   OH268989   1.652   1.577   3.994  0.0856 -0.3425 -0.4615
15833TIP3    H168990   1.689   1.652   3.948  1.4190 -1.0605 -0.6093
15833TIP3    H268991   1.587   1.615   4.054 -1.0453  0.6806 -2.2657
15834TIP3   OH268992   5.416   0.025   0.732 -0.0506 -0.3835 -0.3371
15834TIP3    H168993   5.445   0.093   0.671 -1.6529  0.8399  0.2040
15834TIP3    H268994   5.482   0.024   0.800  1.2116 -1.0294 -1.5323
15835TIP3   OH268995   3.187   1.833  14.448  0.0386 -0.5365  0.2093
15835TIP3    H168996   3.101   1.794  14.433 -1.0256  0.9602  2.0292
15835TIP3    H268997   3.198   1.833  14.543  0.7082  1.9554  0.2054
15836TIP3   OH268998   3.618   2.918  13.914  0.1237  0.2197 -0.0251
15836TIP3    H168999   3.544   2.883  13.863  0.6619  0.2722 -0.8620
15836TIP3    H269000   3.631   3.006  13.879 -0.5430  0.8867  1.3456
15837TIP3   OH269001   2.984   2.396   5.906 -0.4097 -0.1584 -0.4539
15837TIP3    H169002   2.893   2.411   5.932 -0.7228 -1.0992 -0.9515
15837TIP3    H269003   2.980   2.323   5.844  0.7289 -0.5071 -0.1595
15838TIP3   OH269004   1.289   0.036  15.978 -0.2807 -0.3441  0.3345
15838TIP3    H169005   1.276   0.087  15.898 -2.4219 -1.8023 -0.3243
15838TIP3    H269006   1.312   0.101  16.044  1.6626  0.8964 -1.4185
15839TIP3   OH269007   0.155   4.643  12.620  0.2605 -0.0091  0.5341
15839TIP3    H169008   0.161   4.547  12.617 -2.6938 -0.2870  0.1604
15839TIP3    H269009   0.217   4.673  12.554  2.2676 -1.5453  1.6059
15840TIP3   OH269010   3.449   0.149   2.865  0.2360  0.3887 -0.0378
15840TIP3    H169011   3.496   0.225   2.900  0.8695 -0.0368  0.0545
15840TIP3    H269012   3.517   0.097   2.823 -0.2808  0.1289 -0.5535
15841TIP3   OH269013   0.278   0.939  14.874 -0.0698  0.3304  0.1025
15841TIP3    H169014   0.227   1.020  14.878  1.1139  1.1140 -0.1014
15841TIP3    H269015   0.369   0.968  14.882  0.2881 -1.2321  3.3294
15842TIP3   OH269016   2.698   3.451   4.782  0.1452  0.0932  0.1087
15842TIP3    H169017   2.705   3.356   4.793 -0.0925  0.1107  0.4387
15842TIP3    H269018   2.604   3.468   4.787  0.2742  0.5106  1.5132
15843TIP3   OH269019   0.687   1.579  17.418 -0.6378 -0.3418 -1.0196
15843TIP3    H169020   0.755   1.523  17.454  0.5679  1.1597 -0.8677
15843TIP3    H269021   0.632   1.520  17.367 -0.1289 -1.8528  0.0946
15844TIP3   OH269022   2.518   6.011  15.364 -0.3865  0.5049 -0.2637
15844TIP3    H169023   2.479   6.076  15.306 -1.4358 -1.1231 -1.4818
15844TIP3    H269024   2.580   5.963  15.308  0.7091  0.7328  0.7241
15845TIP3   OH269025   3.188   5.092   0.026 -0.0960 -0.2473  0.3085
15845TIP3    H169026   3.097   5.103  -0.002  0.0891  0.4724 -0.0279
15845TIP3    H269027   3.209   5.173   0.072 -0.2040 -1.1636  2.0534
15846TIP3   OH269028   4.198   6.232  12.902  0.3528 -0.0366 -0.0218
15846TIP3    H169029   4.173   6.269  12.817 -0.3329 -0.5212 -0.0403
15846TIP3    H269030   4.125   6.174  12.925  0.8867 -0.5029  0.5305
15847TIP3   OH269031   5.993   1.340  15.242 -0.6609 -0.0048 -0.7226
15847TIP3    H169032   6.031   1.266  15.290 -2.7223 -1.5750 -1.3895
15847TIP3    H269033   5.981   1.408  15.309 -0.3620 -0.9014  0.2788
15848TIP3   OH269034   3.847   5.224  15.036 -0.6302 -0.4159  0.1859
15848TIP3    H169035   3.880   5.175  14.961  0.4453  0.1455  0.2857
15848TIP3    H269036   3.921   5.229  15.097 -0.6343  1.5204  0.0777
15849TIP3   OH269037   4.335   0.844  16.768 -0.2383 -0.2500 -0.2951
15849TIP3    H169038   4.247   0.881  16.778  0.3916  1.7649 -1.5352
15849TIP3    H269039   4.369   0.885  16.688  1.9166 -0.7629  0.2929
15850TIP3   OH269040   2.532   3.557  12.131  0.0418 -0.6749  0.5429
15850TIP3    H169041   2.530   3.599  12.217 -0.2138 -0.0338  0.2271
15850TIP3    H269042   2.528   3.463  12.150 -1.8958 -0.4951  1.1762
15851TIP3   OH269043   4.635   6.384  15.742  0.0956 -0.3931  0.0175
15851TIP3    H169044   4.682   6.397  15.660 -0.3910  1.9998  0.0406
15851TIP3    H269045   4.658   6.461  15.795  0.2260 -1.7579  2.0652
15852TIP3   OH269046   3.586   1.857  12.090  0.2613 -0.6500 -1.1379
15852TIP3    H169047   3.632   1.834  12.170 -0.1575  1.8104 -0.1029
15852TIP3    H269048   3.653   1.853  12.022  1.2308 -0.2874 -0.2214
15853TIP3   OH269049   6.641   2.097  13.997  0.1621  0.3115  1.1901
15853TIP3    H169050   6.665   2.101  13.904  0.4339 -0.2505  1.2321
15853TIP3    H269051   6.549   2.070  13.996 -0.2710  1.7214  1.0508
15854TIP3   OH269052   4.703   0.809  16.244  0.3093 -0.3367  0.0834
15854TIP3    H169053   4.667   0.792  16.331  1.0680 -0.6583  0.3408
15854TIP3    H269054   4.794   0.835  16.260  0.7789 -1.4576 -0.6783
15855TIP3   OH269055   4.093   0.375  17.320  0.3322 -0.1864 -0.3320
15855TIP3    H169056   4.140   0.301  17.281  1.0727 -0.5528  1.1939
15855TIP3    H269057   4.002   0.346  17.325  0.0534  0.1676 -2.4387
15856TIP3   OH269058   3.577   0.346   2.985 -0.0273 -1.1094 -0.3476
15856TIP3    H169059   3.653   0.315   3.034  0.1115  0.3908  0.4250
15856TIP3    H269060   3.505   0.343   3.048  0.1122  0.6667 -0.0600
15857TIP3   OH269061   6.227   0.521   2.706 -0.4382  0.4015  0.7588
15857TIP3    H169062   6.319   0.547   2.697 -0.5383  0.6340  0.3826
15857TIP3    H269063   6.231   0.432   2.740 -0.0429 -0.2177 -0.8382
15858TIP3   OH269064   6.120   0.196   6.459 -0.5771  0.2801 -0.0856
15858TIP3    H169065   6.197   0.232   6.502 -1.1263  0.0511  1.1412
15858TIP3    H269066   6.047   0.247   6.495 -1.3284 -1.6890  1.3122
15859TIP3   OH269067   5.088   0.799  12.620 -0.4967 -0.1826  0.4711
15859TIP3    H169068   5.019   0.737  12.642 -0.1272 -0.8476 -0.1787
15859TIP3    H269069   5.169   0.755  12.646 -0.2700  0.3035  0.6069
15860TIP3   OH269070   0.571   5.259  14.359 -0.8470  0.3160  0.9521
15860TIP3    H169071   0.630   5.286  14.288 -1.7054 -1.0897 -0.3647
15860TIP3    H269072   0.582   5.326  14.426  0.9428  1.0232  0.0243
15861TIP3   OH269073   3.988   0.411   1.791 -0.3153 -0.0817  0.1287
15861TIP3    H169074   3.983   0.325   1.749  0.5668  0.7988 -1.9454
15861TIP3    H269075   4.043   0.397   1.868 -0.8714 -1.5194  0.2998
15862TIP3   OH269076   6.262   3.429   4.320 -0.1661  0.0935  0.2673
15862TIP3    H169077   6.274   3.479   4.239  0.7296 -0.8341 -0.1871
15862TIP3    H269078   6.339   3.449   4.373  0.0173 -0.5092  0.2351
15863TIP3   OH269079   4.207   3.463   2.981 -0.6650  0.1349  0.5701
15863TIP3    H169080   4.132   3.446   2.925 -0.3783  0.1365  0.1847
15863TIP3    H269081   4.172   3.462   3.070 -1.2792  0.9449  0.3518
15864TIP3   OH269082   5.815   6.313   3.315 -0.5276 -0.3646 -0.4573
15864TIP3    H169083   5.780   6.350   3.395  1.3406  1.3371 -0.3413
15864TIP3    H269084   5.910   6.323   3.323 -0.1415 -2.1337 -1.9537
15865TIP3   OH269085   3.281   5.872  16.019  0.4021 -0.4534 -0.1235
15865TIP3    H169086   3.199   5.827  16.038 -0.2197 -0.0197 -1.6759
15865TIP3    H269087   3.314   5.830  15.940 -0.5201  2.1049 -2.0247
15866TIP3   OH269088   4.240   4.676   0.728 -0.7005 -0.6051 -0.9907
15866TIP3    H169089   4.333   4.686   0.747 -1.2717  1.3600  1.1850
15866TIP3    H269090   4.218   4.588   0.759 -0.2107  0.1672  1.7996
15867TIP3   OH269091   5.581   2.754   1.517  0.0815  0.1208  0.0294
15867TIP3    H169092   5.544   2.799   1.441 -0.8789 -0.5037  0.1128
15867TIP3    H269093   5.592   2.823   1.583 -1.1592  0.2918  0.0774
15868TIP3   OH269094   4.468   2.699  15.053 -0.4841  0.5442 -0.0689
15868TIP3    H169095   4.516   2.777  15.078  0.2438  1.0019 -2.5601
15868TIP3    H269096   4.430   2.666  15.134 -0.5400  3.2723  1.1102
15869TIP3   OH269097   4.067   3.491   5.407 -0.4534 -0.0399 -0.0866
15869TIP3    H169098   4.128   3.565   5.400 -0.5261  0.1443  1.0456
15869TIP3    H269099   4.112   3.419   5.364  0.0796  0.3908 -0.2663
15870TIP3   OH269100   0.778   4.328  14.518  0.3030 -0.8438  0.4314
15870TIP3    H169101   0.707   4.280  14.476 -1.9288  2.0349  0.5990
15870TIP3    H269102   0.792   4.283  14.601 -0.0515 -2.4848 -0.3530
15871TIP3   OH269103   3.778   1.478   2.136 -0.2498  0.0788  0.0756
15871TIP3    H169104   3.712   1.492   2.068  1.2381 -1.8075 -1.8988
15871TIP3    H269105   3.727   1.464   2.216 -2.2001 -0.4534 -1.1936
15872TIP3   OH269106   2.742   6.299   4.489 -0.1363 -0.1940  0.2162
15872TIP3    H169107   2.803   6.367   4.516  0.9368 -1.3134  0.6908
15872TIP3    H269108   2.791   6.245   4.427 -1.6051  0.5902 -1.7376
15873TIP3   OH269109   4.742   2.599   0.976 -0.0941 -0.1981 -0.3195
15873TIP3    H169110   4.670   2.596   0.913  0.7777  0.6663 -1.4099
15873TIP3    H269111   4.749   2.691   1.000 -0.3823 -0.5134  1.0445
15874TIP3   OH269112   3.124   6.015  13.350 -0.6216 -0.0213  0.4629
15874TIP3    H169113   3.102   5.927  13.317 -2.8763  0.1485  1.2736
15874TIP3    H269114   3.137   6.068  13.272  0.1843 -0.9296 -0.0449
15875TIP3   OH269115   0.353   0.905  11.520  0.4706 -0.2677  0.1284
15875TIP3    H169116   0.280   0.944  11.471 -0.0987 -0.7566  0.5729
15875TIP3    H269117   0.427   0.910  11.460  0.1075  0.3505 -0.2858
15876TIP3   OH269118   2.123   2.099  15.523  0.4838 -0.0723  0.3032
15876TIP3    H169119   2.051   2.109  15.585  1.1262 -0.1942  1.0699
15876TIP3    H269120   2.201   2.086  15.577  1.0056 -0.4966 -0.5243
15877TIP3   OH269121   2.848   0.585   0.206 -0.4719  0.0195 -0.1775
15877TIP3    H169122   2.789   0.634   0.263  0.6144  0.2375  0.7973
15877TIP3    H269123   2.817   0.495   0.210 -1.5011  0.3302 -0.7021
15878TIP3   OH269124   1.397   1.634   1.838 -0.2345 -0.2685  0.4025
15878TIP3    H169125   1.309   1.670   1.838  0.3943  1.3977 -1.3052
15878TIP3    H269126   1.440   1.673   1.763  1.5811 -2.0681  0.3984
15879TIP3   OH269127   5.849   4.362   5.576 -0.2897 -0.0675 -0.4202
15879TIP3    H169128   5.869   4.441   5.526 -0.2342  0.5382  0.5403
15879TIP3    H269129   5.759   4.340   5.551 -0.2016  0.1139 -0.9149
15880TIP3   OH269130   6.359   4.193  12.959  0.2875  0.1896 -0.6865
15880TIP3    H169131   6.302   4.125  12.995 -2.3356  1.7498 -1.6323
15880TIP3    H269132   6.416   4.146  12.898  0.4637 -1.5169  0.7007
15881TIP3   OH269133   3.057   6.578  16.745  0.1146  0.0742  0.1454
15881TIP3    H169134   3.133   6.610  16.697 -0.9505 -0.0322 -1.7069
15881TIP3    H269135   3.043   6.642  16.814  0.6390  1.2196 -0.7843
15882TIP3   OH269136   0.073   4.393  10.871 -0.7075  0.3862 -0.2605
15882TIP3    H169137   0.099   4.302  10.884 -0.3600  0.2444 -1.7268
15882TIP3    H269138   0.154   4.443  10.883 -0.6649  0.3872 -0.5482
15883TIP3   OH269139   1.940   1.282   4.608 -0.1417 -0.2178 -0.6286
15883TIP3    H169140   1.901   1.201   4.640  0.7976 -0.7686 -0.8242
15883TIP3    H269141   2.021   1.292   4.659  0.3266 -0.0252 -1.3862
15884TIP3   OH269142   3.536   4.581  12.064  0.0102 -0.4339  0.5359
15884TIP3    H169143   3.601   4.581  12.133  0.2519 -1.3608  0.3246
15884TIP3    H269144   3.468   4.520  12.094  1.0945 -2.4700 -0.8917
15885TIP3   OH269145   1.591   4.953  16.868 -0.1876 -0.8048 -0.1604
15885TIP3    H169146   1.620   4.865  16.893  0.5246 -0.9629 -1.4730
15885TIP3    H269147   1.542   4.985  16.944 -1.6106 -2.8385 -0.1601
15886TIP3   OH269148   0.708   3.182  12.198  0.1350  0.3488  0.1792
15886TIP3    H169149   0.771   3.249  12.168  3.6622 -2.2179  1.1449
15886TIP3    H269150   0.678   3.213  12.283  1.3863  0.9607  0.4261
15887TIP3   OH269151   3.593   0.452  13.740 -0.1508 -0.0417  0.3204
15887TIP3    H169152   3.628   0.535  13.771  2.2163 -0.7512 -0.2903
15887TIP3    H269153   3.502   0.472  13.718 -0.4183  1.7289  2.6125
15888TIP3   OH269154   0.353   3.743  16.733  0.6911 -0.2841  0.8037
15888TIP3    H169155   0.381   3.659  16.768  0.6698 -0.5006  0.3144
15888TIP3    H269156   0.264   3.755  16.765  0.1217 -1.1792 -0.3752
15889TIP3   OH269157   3.664   3.898  16.033 -0.6118 -0.2130  1.0022
15889TIP3    H169158   3.691   3.980  15.992  2.1789 -2.1050 -1.3101
15889TIP3    H269159   3.594   3.865  15.977  1.0328 -1.2613 -0.5314
15890TIP3   OH269160   6.394   4.856  12.608 -0.0323  0.1806  0.6140
15890TIP3    H169161   6.353   4.941  12.621  1.4465  1.1410 -0.5827
15890TIP3    H269162   6.378   4.808  12.690 -0.6826  1.6886  1.4058
15891TIP3   OH269163   4.114   2.159   0.384  0.7124  0.3028 -0.3733
15891TIP3    H169164   4.028   2.199   0.371 -0.2039 -2.1435 -2.9976
15891TIP3    H269165   4.176   2.225   0.354 -0.4238  1.2849 -0.6466
15892TIP3   OH269166   5.201   6.507   5.299 -0.5298 -0.2739  0.8114
15892TIP3    H169167   5.149   6.434   5.331 -2.8997  0.1998 -1.5396
15892TIP3    H269168   5.201   6.496   5.204  2.6011  0.5619  0.6016
15893TIP3   OH269169   5.769   0.877  13.014  0.1718  0.3371 -0.1636
15893TIP3    H169170   5.754   0.958  13.063  0.4548  0.4800 -0.3132
15893TIP3    H269171   5.801   0.815  13.080 -0.7405  0.1247  0.0970
15894TIP3   OH269172   0.832   1.415   7.094 -0.1574 -0.3654  0.1119
15894TIP3    H169173   0.886   1.434   7.017  0.0387  0.8869  0.5317
15894TIP3    H269174   0.840   1.493   7.149 -1.1893 -0.7768  0.8901
15895TIP3   OH269175   2.405   5.574   2.251 -0.1398 -0.0986 -0.3378
15895TIP3    H169176   2.322   5.621   2.241 -0.7706 -1.1460 -0.0910
15895TIP3    H269177   2.381   5.488   2.283  0.8953 -1.1167 -2.1622
15896TIP3   OH269178   1.789   6.582   0.260 -0.2422 -0.1576  0.2384
15896TIP3    H169179   1.848   6.626   0.322  0.9108 -1.9629  0.4750
15896TIP3    H269180   1.838   6.580   0.177 -1.7032  2.0880 -0.7904
15897TIP3   OH269181   1.708   5.136   5.730 -0.4401 -0.0400  0.2780
15897TIP3    H169182   1.620   5.103   5.713  0.0490 -1.4821  0.3463
15897TIP3    H269183   1.695   5.221   5.772 -1.7561  0.6038 -1.3344
15898TIP3   OH269184   1.858   6.724  14.513  0.0102  0.6770 -0.0404
15898TIP3    H169185   1.902   6.640  14.506 -1.7583 -0.5438  2.2668
15898TIP3    H269186   1.769   6.708  14.481 -0.1432  1.9010 -0.2947
15899TIP3   OH269187   2.003   3.922  14.888  0.4689  0.1756 -0.5767
15899TIP3    H169188   2.044   3.846  14.930  1.1236  0.9280  0.1790
15899TIP3    H269189   2.047   3.997  14.927  1.0528  0.9251 -2.5419
15900TIP3   OH269190   4.677   0.512  14.259  0.2946  0.0742 -0.5540
15900TIP3    H169191   4.747   0.512  14.194 -0.7100  0.4268 -1.6855
15900TIP3    H269192   4.598   0.530  14.208 -0.3805  1.5772  0.9315
15901TIP3   OH269193   0.567   4.496  15.083  0.1867  0.3175  0.0607
15901TIP3    H169194   0.602   4.521  14.997 -1.5877 -2.2442 -1.5567
15901TIP3    H269195   0.541   4.579  15.123  0.7942  1.5890 -1.9795
15902TIP3   OH269196   5.118   1.089   0.521  0.7848 -0.3207 -0.4869
15902TIP3    H169197   5.107   1.008   0.471  0.6680  0.3228 -1.5511
15902TIP3    H269198   5.030   1.115   0.545  0.8845 -0.9586  0.6328
15903TIP3   OH269199   4.426   2.309   0.489 -0.2547  0.2847  0.0081
15903TIP3    H169200   4.389   2.397   0.498  0.6927  0.6406  0.5183
15903TIP3    H269201   4.516   2.323   0.459  0.9050 -0.3259  2.8650
15904TIP3   OH269202   4.003   2.433   5.880 -0.3520 -0.4324 -0.0528
15904TIP3    H169203   4.043   2.365   5.932 -0.1819  0.3356  0.8536
15904TIP3    H269204   4.076   2.484   5.845 -0.4854  0.1070  0.4248
15905TIP3   OH269205   5.458   1.172  14.058  0.1741 -0.5872  0.3836
15905TIP3    H169206   5.513   1.124  14.120 -2.0562 -0.2962  2.7730
15905TIP3    H269207   5.454   1.261  14.093 -0.5483 -0.2198 -0.5908
15906TIP3   OH269208   5.340   0.921  13.407  0.4821 -0.2937 -0.5870
15906TIP3    H169209   5.365   0.914  13.499  0.5684  0.9343 -0.4941
15906TIP3    H269210   5.335   1.016  13.391 -3.8968 -0.3596 -0.6467
15907TIP3   OH269211   0.949   2.947  15.683 -0.3883 -0.1289  0.1091
15907TIP3    H169212   1.043   2.942  15.697 -0.3836 -0.5978 -0.0733
15907TIP3    H269213   0.926   3.038  15.702  0.0745 -0.0538  0.3082
15908TIP3   OH269214   4.652   1.338  13.381  0.3835  0.5856  0.3956
15908TIP3    H169215   4.564   1.324  13.347 -0.2615 -1.2825  2.5866
15908TIP3    H269216   4.699   1.257  13.362  0.8755  0.6267  1.3711
15909TIP3   OH269217   4.379   6.188  15.206  0.1324  0.0713  0.4369
15909TIP3    H169218   4.379   6.249  15.132 -1.5706 -1.4708 -0.9286
15909TIP3    H269219   4.287   6.167  15.221  0.5951 -1.3819  1.5284
15910TIP3   OH269220   6.270   5.344   5.476 -0.1224 -0.2581  0.3644
15910TIP3    H169221   6.281   5.386   5.391 -0.9688 -1.0484 -0.1469
15910TIP3    H269222   6.267   5.417   5.538 -0.1684  0.3587 -0.3533
15911TIP3   OH269223   2.047   2.843  14.504 -0.3378 -0.9402  0.7857
15911TIP3    H169224   2.017   2.813  14.418 -1.0540  1.1950  0.2278
15911TIP3    H269225   2.114   2.779  14.530 -1.8804 -3.0640 -0.1739
15912TIP3   OH269226   1.608   4.371   4.191  0.2780  0.1274 -0.1915
15912TIP3    H169227   1.667   4.332   4.255  0.7624  0.3331 -0.5022
15912TIP3    H269228   1.602   4.307   4.120 -2.1447 -1.1722  1.0786
15913TIP3   OH269229   1.129   2.709   2.873 -0.5447 -0.0705 -0.5112
15913TIP3    H169230   1.064   2.639   2.881 -0.5561 -0.0136 -0.0879
15913TIP3    H269231   1.208   2.666   2.841 -0.4351 -0.3478  0.1215
15914TIP3   OH269232   4.053   5.587   4.887  0.2209 -0.5138 -0.6137
15914TIP3    H169233   4.001   5.562   4.964  1.7283 -0.3073  0.5133
15914TIP3    H269234   4.050   5.683   4.887 -0.1376 -0.5206 -1.0888
15915TIP3   OH269235   3.699   3.168   2.458 -0.1802 -0.0802  0.1358
15915TIP3    H169236   3.659   3.245   2.498  1.9788  0.8917  0.5755
15915TIP3    H269237   3.685   3.098   2.522 -1.4896  0.1079  0.0784
15916TIP3   OH269238   3.136   5.196   1.655  0.3039  0.1373  0.0203
15916TIP3    H169239   3.095   5.178   1.740  1.1478  0.2354  0.4569
15916TIP3    H269240   3.197   5.267   1.672  0.8933 -0.2183 -0.5441
15917TIP3   OH269241   2.412   1.990   6.550  0.7193 -0.8433 -0.0417
15917TIP3    H169242   2.391   1.903   6.517 -0.2063 -0.7247  0.1888
15917TIP3    H269243   2.363   2.049   6.493  0.9517 -0.5036  0.1073
15918TIP3   OH269244   0.394   4.340   4.912 -0.4089 -0.4040  0.1167
15918TIP3    H169245   0.409   4.385   4.829 -0.1983 -0.8376 -0.0848
15918TIP3    H269246   0.451   4.384   4.975 -0.1886 -0.4022 -0.0840
15919TIP3   OH269247   4.653   4.147  16.425 -0.2627 -0.2225 -0.3807
15919TIP3    H169248   4.606   4.144  16.508 -3.3805 -0.1523 -1.9888
15919TIP3    H269249   4.624   4.069  16.378 -0.1959  0.7756 -2.1708
15920TIP3   OH269250   0.528   5.130  14.013 -0.1624  0.3582 -0.3848
15920TIP3    H169251   0.610   5.153  13.971 -1.0306  1.8413 -1.3712
15920TIP3    H269252   0.494   5.057  13.960  0.7467 -0.6179  0.3514
15921TIP3   OH269253   5.583   0.260  15.189  0.0610  0.0347 -0.2281
15921TIP3    H169254   5.647   0.315  15.232  0.6019 -0.7643  0.0112
15921TIP3    H269255   5.507   0.259  15.248 -0.7948  2.1608 -1.1817
15922TIP3   OH269256   6.180   1.563  15.179  0.1819  0.1327 -0.2270
15922TIP3    H169257   6.169   1.603  15.092  0.7004 -1.1908 -0.9415
15922TIP3    H269258   6.115   1.494  15.182  0.0864  0.2495  0.5053
15923TIP3   OH269259   2.035   0.354   5.812  0.1689  0.1789  0.0915
15923TIP3    H169260   1.993   0.362   5.898 -1.2093  0.7854 -0.6112
15923TIP3    H269261   2.127   0.334   5.832 -0.0527  0.6312  1.7043
15924TIP3   OH269262   4.011   4.213  12.572 -0.3703  0.3071  0.1252
15924TIP3    H169263   3.947   4.244  12.636  0.0136  0.2489  0.5436
15924TIP3    H269264   4.093   4.206  12.622 -0.3340 -0.8791 -0.0764
15925TIP3   OH269265   0.484   5.831  17.138  0.7190  0.1600  0.3093
15925TIP3    H169266   0.432   5.896  17.090  1.9852  0.3994 -0.7868
15925TIP3    H269267   0.419   5.781  17.187 -0.7955 -0.5850 -2.2246
15926TIP3   OH269268   3.159   4.273   6.455  0.1234  0.1310 -0.2269
15926TIP3    H169269   3.215   4.215   6.404 -0.2206 -1.7636  1.4284
15926TIP3    H269270   3.071   4.238   6.443 -0.4427  1.6954 -0.9583
15927TIP3   OH269271   3.252   5.541  16.846 -0.1296 -0.2493 -0.5362
15927TIP3    H169272   3.194   5.505  16.779 -0.0667  0.7098 -1.1326
15927TIP3    H269273   3.260   5.633  16.822 -0.2236  0.1389  0.8932
15928TIP3   OH269274   1.078   3.786   5.182 -0.0978 -0.2117 -0.1184
15928TIP3    H169275   0.994   3.758   5.145  0.1972  0.3776 -1.3059
15928TIP3    H269276   1.058   3.870   5.224 -0.0869  0.0374 -0.5897
15929TIP3   OH269277   4.336   4.888  12.686 -0.4846 -0.1292  0.3529
15929TIP3    H169278   4.365   4.858  12.601  0.3066  1.3943  0.0484
15929TIP3    H269279   4.272   4.957  12.666  2.7548  3.2896  0.7921
15930TIP3   OH269280   0.185   5.995  17.195  0.1802 -0.0906 -0.0531
15930TIP3    H169281   0.227   6.020  17.277  2.4517 -1.6542 -0.6304
15930TIP3    H269282   0.178   5.899  17.199  2.1127 -0.4415 -2.3589
15931TIP3   OH269283   4.544   4.683  16.213  0.6367  0.2142  0.6629
15931TIP3    H169284   4.479   4.652  16.275 -0.5250 -0.2390 -0.7148
15931TIP3    H269285   4.504   4.759  16.171 -0.0214 -1.3288 -1.7378
15932TIP3   OH269286   2.358   2.636  12.221  0.5679 -0.5193  0.4503
15932TIP3    H169287   2.305   2.712  12.194 -2.9019 -2.8348  0.0342
15932TIP3    H269288   2.382   2.593  12.140 -0.7878 -1.8245  0.6912
15933TIP3   OH269289   6.547   1.512  12.532  0.6852  0.2145  0.5197
15933TIP3    H169290   6.537   1.582  12.467 -0.2036 -0.4921 -0.1243
15933TIP3    H269291   6.541   1.557  12.616 -1.2838  0.7637  0.1382
15934TIP3   OH269292   3.905   3.879   5.024  0.4296  0.2976 -0.3106
15934TIP3    H169293   3.823   3.896   5.071  0.7750 -0.8560  0.7588
15934TIP3    H269294   3.961   3.953   5.047  0.3884  0.0422  0.6425
15935TIP3   OH269295   1.727   0.524  15.947 -1.0257 -0.0176 -0.3878
15935TIP3    H169296   1.796   0.469  15.984 -0.4946  0.9388  0.0924
15935TIP3    H269297   1.737   0.514  15.852  0.5800  1.0228 -0.3745
15936TIP3   OH269298   1.071   2.040  16.973 -0.5143  0.1444 -0.3299
15936TIP3    H169299   1.021   1.969  16.932 -0.5341 -0.2447  0.3354
15936TIP3    H269300   1.163   2.016  16.958 -0.4911 -0.7377  1.0034
15937TIP3   OH269301   4.898   2.760  12.272 -0.0116  0.0385  0.0379
15937TIP3    H169302   4.897   2.674  12.314  0.8681  0.4679  0.9883
15937TIP3    H269303   4.806   2.778  12.252 -0.1494 -1.3812 -0.7540
15938TIP3   OH269304   1.683   2.789   2.770 -0.1240  0.6528 -0.7328
15938TIP3    H169305   1.714   2.872   2.733 -0.4026  0.6928 -0.8783
15938TIP3    H269306   1.659   2.736   2.695  2.3066 -0.5002 -0.7930
15939TIP3   OH269307   5.879   0.726   0.103 -0.0460 -0.2839 -0.0373
15939TIP3    H169308   5.958   0.687   0.139  0.3692 -0.6998 -1.3663
15939TIP3    H269309   5.840   0.658   0.048 -0.2607  0.5493 -0.9626
15940TIP3   OH269310   4.291   4.542   3.690  0.1421 -0.3252 -0.0781
15940TIP3    H169311   4.380   4.557   3.722  0.0647 -2.0476  1.0506
15940TIP3    H269312   4.249   4.628   3.694  1.7178  0.5169 -0.6210
15941TIP3   OH269313   2.307   3.689  11.806 -0.1381  0.2879 -0.4452
15941TIP3    H169314   2.364   3.705  11.882 -1.2377 -1.4044  0.8142
15941TIP3    H269315   2.367   3.658  11.738  0.8127  1.3502 -0.1312
15942TIP3   OH269316   6.398   2.110   5.669 -0.3527  0.2064  0.5471
15942TIP3    H169317   6.315   2.144   5.702 -0.8575 -0.6931  0.2603
15942TIP3    H269318   6.398   2.134   5.576  0.5272  1.7175  0.9065
15943TIP3   OH269319   2.053   4.525  14.560 -0.1554 -0.7442 -0.0890
15943TIP3    H169320   1.980   4.465  14.572 -0.8106  0.0327 -0.1069
15943TIP3    H269321   2.063   4.568  14.644 -1.6556  1.2690 -0.8563
15944TIP3   OH269322   4.729   1.090   1.310 -0.1544 -0.9730  0.0185
15944TIP3    H169323   4.635   1.098   1.298 -0.3222 -0.7588  1.3342
15944TIP3    H269324   4.746   0.996   1.306 -0.6068 -1.1038  0.9160
15945TIP3   OH269325   5.204   2.800   3.421 -0.1760 -0.3261  0.2836
15945TIP3    H169326   5.279   2.777   3.475 -0.6617  0.3453  1.2588
15945TIP3    H269327   5.236   2.792   3.331  1.2001  0.3689  0.6850
15946TIP3   OH269328   5.172   0.873  15.259  0.0160  0.0292  0.1418
15946TIP3    H169329   5.080   0.880  15.286  0.2192  0.2825  0.7883
15946TIP3    H269330   5.168   0.855  15.165 -0.6742  1.9618 -0.2439
15947TIP3   OH269331   4.149   3.969  12.975  0.1581 -0.1667  0.3700
15947TIP3    H169332   4.183   3.906  13.038  2.1139  0.0258 -0.4201
15947TIP3    H269333   4.082   3.920  12.926  0.7826 -1.2526  0.5731
15948TIP3   OH269334   5.861   2.397  12.139 -0.3282  0.0826  0.7727
15948TIP3    H169335   5.797   2.418  12.207 -0.5850 -1.3827  1.0026
15948TIP3    H269336   5.935   2.359  12.186  0.5759  1.3643  0.4618
15949TIP3   OH269337   6.600   1.733   2.008 -0.2450  0.3691 -0.0084
15949TIP3    H169338   6.691   1.762   2.000  0.0790 -0.6155 -0.0207
15949TIP3    H269339   6.600   1.671   2.081 -1.4625  2.4379  1.8632
15950TIP3   OH269340   2.639   1.224   1.012 -0.0338 -0.4939 -0.8840
15950TIP3    H169341   2.649   1.312   1.048 -0.0670 -0.8979  0.1698
15950TIP3    H269342   2.635   1.167   1.089  1.0133 -1.5269 -1.5573
15951TIP3   OH269343   1.222   0.999   4.651  0.3000  0.1105 -0.0099
15951TIP3    H169344   1.231   0.952   4.568 -1.9591 -0.6385  0.0816
15951TIP3    H269345   1.285   1.071   4.645 -0.0885  0.3540 -2.5756
15952TIP3   OH269346   3.972   4.671  16.502 -0.2268 -0.1469 -0.3638
15952TIP3    H169347   4.040   4.736  16.521  0.4644 -1.5299  2.5433
15952TIP3    H269348   3.926   4.660  16.586 -0.3887 -3.2780 -0.7584
15953TIP3   OH269349   4.624   0.156  15.768 -0.4757 -0.0630 -0.4560
15953TIP3    H169350   4.649   0.221  15.833  0.4565 -1.6002  0.8022
15953TIP3    H269351   4.529   0.146  15.779 -0.5913  0.9226 -0.5314
15954TIP3   OH269352   1.515   0.602  11.696  0.1982  0.0446  0.4574
15954TIP3    H169353   1.536   0.611  11.603 -1.1928 -2.3124 -0.1599
15954TIP3    H269354   1.438   0.657  11.709 -0.2104 -0.3945 -0.0517
15955TIP3   OH269355   1.176   0.208   0.816 -0.1330 -0.0171 -0.0577
15955TIP3    H169356   1.136   0.284   0.860  2.1605  1.6565 -0.6909
15955TIP3    H269357   1.163   0.224   0.723  0.7222 -0.1679 -0.2135
15956TIP3   OH269358   4.233   4.692  16.136 -0.3214 -0.0442 -0.4149
15956TIP3    H169359   4.303   4.711  16.073  0.5896  1.3604  0.9415
15956TIP3    H269360   4.181   4.773  16.140 -1.6970 -0.8644 -0.9522
15957TIP3   OH269361   4.064   4.291   5.613 -0.8642 -0.1214 -0.6040
15957TIP3    H169362   4.155   4.264   5.624 -0.7766  0.3828 -0.0604
15957TIP3    H269363   4.032   4.240   5.539 -0.8409 -2.0281  0.6487
15958TIP3   OH269364   4.758   4.383  10.691  0.7216 -0.2147 -0.6617
15958TIP3    H169365   4.729   4.395  10.782  0.6657  0.8525 -0.8058
15958TIP3    H269366   4.852   4.364  10.698  0.6155 -0.6412 -0.3582
15959TIP3   OH269367   3.118   3.275   5.177 -0.1008 -0.0353 -0.0843
15959TIP3    H169368   3.167   3.331   5.237  0.8169 -1.8584  0.9547
15959TIP3    H269369   3.026   3.294   5.196  0.1888  0.1565  1.2060
15960TIP3   OH269370   4.066   0.415   4.071  0.0148  0.3401 -0.6238
15960TIP3    H169371   4.011   0.354   4.122 -0.7090 -0.2748 -2.0812
15960TIP3    H269372   4.062   0.497   4.120  0.3241 -0.5360  0.9360
15961TIP3   OH269373   0.330   6.392  13.300  0.0277  0.1148  0.2608
15961TIP3    H169374   0.421   6.388  13.273 -0.4235  0.6856 -1.4861
15961TIP3    H269375   0.326   6.339  13.380  1.6173 -1.0366 -0.3670
15962TIP3   OH269376   2.643   0.160  16.030  0.1252 -0.4214  0.3138
15962TIP3    H169377   2.550   0.184  16.038  0.2150  0.3739 -0.8806
15962TIP3    H269378   2.681   0.183  16.115 -0.6461 -0.1914  0.6044
15963TIP3   OH269379   3.340   5.227   1.400  0.6554 -0.6655 -0.9033
15963TIP3    H169380   3.292   5.309   1.387  2.2295  0.3149 -0.9166
15963TIP3    H269381   3.275   5.166   1.434 -0.2543  1.0730  0.7114
15964TIP3   OH269382   3.635   1.827  13.267 -0.2887  0.2138  0.4776
15964TIP3    H169383   3.553   1.875  13.254 -0.5539 -0.5511 -0.8090
15964TIP3    H269384   3.619   1.772  13.343 -0.9040  0.2180  0.3577
15965TIP3   OH269385   2.298   6.620  16.398  0.1967 -0.2708  0.0228
15965TIP3    H169386   2.327   6.590  16.484  0.3411  0.9238  0.3990
15965TIP3    H269387   2.341   6.704  16.386  1.1246 -0.9668 -1.7551
15966TIP3   OH269388   4.308   6.763  16.524  0.0369  0.0724  0.3895
15966TIP3    H169389   4.395   6.802  16.534  0.6346 -0.5112 -1.9262
15966TIP3    H269390   4.325   6.668  16.526 -0.7760 -0.0663  1.4412
15967TIP3   OH269391   3.491   1.225   3.914  0.0180  0.3797 -0.3672
15967TIP3    H169392   3.577   1.234   3.954 -0.5877  0.6669  0.9083
15967TIP3    H269393   3.502   1.260   3.825  1.1863  0.4831 -0.1920
15968TIP3   OH269394   5.972   0.158   4.339 -0.0596  0.2117  0.4381
15968TIP3    H169395   5.916   0.213   4.285  0.1029 -0.2603 -0.2277
15968TIP3    H269396   5.911   0.106   4.392 -0.2623 -0.3335 -0.3152
15969TIP3   OH269397   1.540   1.157  11.514  0.6966  0.8446  0.2553
15969TIP3    H169398   1.574   1.105  11.587  2.7149  1.0286 -0.4911
15969TIP3    H269399   1.603   1.229  11.504  0.0948  1.2110 -1.2144
15970TIP3   OH269400   2.778   1.655  14.058 -0.2473  0.2293  0.2918
15970TIP3    H169401   2.840   1.665  13.986 -0.3829 -0.4182  0.0798
15970TIP3    H269402   2.773   1.742  14.097 -2.0609  1.2538 -2.0012
15971TIP3   OH269403   4.515   5.182   2.570 -0.0364  0.0543 -0.4470
15971TIP3    H169404   4.532   5.105   2.625 -0.5305  0.5962  0.4843
15971TIP3    H269405   4.576   5.248   2.603 -2.1379  1.2553  1.3234
15972TIP3   OH269406   6.388   3.160  17.354 -0.2906 -0.0652 -0.0232
15972TIP3    H169407   6.402   3.175  17.448  0.3358  0.3398 -0.1799
15972TIP3    H269408   6.374   3.065  17.348 -1.5028  0.0507  0.6150
15973TIP3   OH269409   4.530   3.289  14.945 -0.2831 -0.6021  0.3530
15973TIP3    H169410   4.534   3.238  15.025  0.0272 -0.7874  0.2230
15973TIP3    H269411   4.438   3.311  14.934 -0.3219 -0.5552  0.7726
15974TIP3   OH269412   0.172   4.120   3.213 -0.0521 -0.0176 -0.0208
15974TIP3    H169413   0.088   4.081   3.235  0.1070 -0.7714 -0.7013
15974TIP3    H269414   0.214   4.135   3.298 -0.1728 -1.2382  0.2731
15975TIP3   OH269415   5.498   4.702  16.969 -0.6479  0.0035 -0.1175
15975TIP3    H169416   5.550   4.776  16.938  0.5429 -0.6883  0.1795
15975TIP3    H269417   5.473   4.655  16.889  0.1279 -0.2699 -0.2089
15976TIP3   OH269418   0.079   1.323   0.468 -0.7369 -0.6411 -0.7682
15976TIP3    H169419   0.140   1.327   0.394 -0.0689  0.6232 -0.1724
15976TIP3    H269420   0.003   1.374   0.441 -0.8889 -0.9458 -0.9238
15977TIP3   OH269421   6.010   6.746   2.614 -0.2951 -0.3541 -0.7669
15977TIP3    H169422   5.993   6.740   2.708 -0.9855  1.2524 -0.7684
15977TIP3    H269423   6.038   6.836   2.600  0.3256 -0.7173 -2.0375
15978TIP3   OH269424   0.387   0.097  17.111  0.1738  0.2635 -0.0507
15978TIP3    H169425   0.359   0.170  17.056  0.3140  2.5058  2.5897
15978TIP3    H269426   0.479   0.115  17.131  0.8036 -1.7541 -0.8796
15979TIP3   OH269427   2.082   0.084  12.960  0.4377  0.1883  0.3127
15979TIP3    H169428   2.090   0.003  13.011  3.5298 -1.2632 -2.1155
15979TIP3    H269429   2.164   0.131  12.978 -0.3045  1.6679 -0.0905
15980TIP3   OH269430   3.448   4.597  15.962  0.1778  0.0831  0.2725
15980TIP3    H169431   3.366   4.613  15.915 -0.0805  2.4034  1.4016
15980TIP3    H269432   3.511   4.574  15.894 -0.7832  0.8246 -0.9009
15981TIP3   OH269433   1.421   6.660  14.902 -0.3018 -0.0904  0.1406
15981TIP3    H169434   1.493   6.598  14.918  0.3007  0.7078  0.5926
15981TIP3    H269435   1.345   6.620  14.945 -0.0926 -0.8487 -0.1714
15982TIP3   OH269436   3.914   0.325   5.742 -0.0366  0.5098 -0.5731
15982TIP3    H169437   4.006   0.336   5.716  0.1622  0.1123 -0.0684
15982TIP3    H269438   3.902   0.387   5.814 -0.2527  0.7752 -0.8352
15983TIP3   OH269439   6.571   5.569  15.799 -0.3968 -0.2178  0.0218
15983TIP3    H169440   6.652   5.554  15.847 -0.4793 -2.3361 -0.3670
15983TIP3    H269441   6.523   5.487  15.808 -0.7569 -0.4529 -2.9386
15984TIP3   OH269442   1.487   4.731  13.075 -0.0041  0.6578  0.2335
15984TIP3    H169443   1.460   4.640  13.084  2.0636 -0.0536 -0.2795
15984TIP3    H269444   1.425   4.780  13.129 -1.4457 -0.9729  0.1528
15985TIP3   OH269445   5.507   4.600   3.831  0.2224 -0.3420  0.0568
15985TIP3    H169446   5.532   4.616   3.922 -1.0057  0.2461  0.2949
15985TIP3    H269447   5.552   4.518   3.809  1.5616  0.1611  0.7699
15986TIP3   OH269448   1.777   4.551  11.088  0.1939 -0.3089  0.3506
15986TIP3    H169449   1.789   4.459  11.112 -0.6435 -1.3342 -2.6582
15986TIP3    H269450   1.686   4.556  11.059  0.6675  1.0850 -0.9799
15987TIP3   OH269451   0.818   2.661   4.077 -0.0173  0.2091 -0.3016
15987TIP3    H169452   0.841   2.586   4.023 -0.2269  0.6500 -1.0124
15987TIP3    H269453   0.723   2.656   4.087  0.0912 -0.2935  0.6782
15988TIP3   OH269454   1.356   0.780   6.326  0.7871 -0.2926  0.4526
15988TIP3    H169455   1.397   0.701   6.360 -0.0499 -0.9399 -0.0121
15988TIP3    H269456   1.312   0.819   6.402  0.6063 -0.6589  0.5395
15989TIP3   OH269457   0.247   1.816  16.104 -0.1470 -0.3380 -0.3794
15989TIP3    H169458   0.209   1.894  16.143 -0.4835 -0.8821  0.3966
15989TIP3    H269459   0.172   1.757  16.089  0.4072 -1.7189  1.8493
15990TIP3   OH269460   0.848   6.426   1.489 -0.9819  0.0829 -0.2574
15990TIP3    H169461   0.920   6.478   1.523 -0.8460 -0.5187  0.3979
15990TIP3    H269462   0.774   6.446   1.545 -0.1809 -2.6633  2.0145
15991TIP3   OH269463   5.136   6.467   6.486  0.1450  0.1803 -0.2424
15991TIP3    H169464   5.210   6.523   6.509 -1.4753  2.0361  0.8118
15991TIP3    H269465   5.099   6.440   6.570 -0.3981 -0.7011 -0.7493
15992TIP3   OH269466   2.777   6.398  15.953  0.0206 -0.6427  0.0693
15992TIP3    H169467   2.739   6.321  15.995  1.5299 -1.4252  0.0635
15992TIP3    H269468   2.797   6.457  16.026 -2.2899  0.3381 -0.0149
15993TIP3   OH269469   2.419   6.350  16.952 -0.2965 -0.6042 -0.1596
15993TIP3    H169470   2.495   6.408  16.951 -0.0961 -0.8593 -2.0454
15993TIP3    H269471   2.347   6.403  16.919 -1.0545 -0.3001  1.8079
15994TIP3   OH269472   5.784   4.018  11.363  0.0711 -0.1392 -0.8460
15994TIP3    H169473   5.722   4.046  11.296 -0.5815  0.4939  0.0118
15994TIP3    H269474   5.777   4.083  11.432  1.0223 -0.5671 -0.3187
15995TIP3   OH269475   1.454   5.717  13.586  0.1754  0.1452  0.0824
15995TIP3    H169476   1.369   5.761  13.584  0.6575  1.1970  1.3514
15995TIP3    H269477   1.442   5.645  13.647  0.2071  0.3236  0.2999
15996TIP3   OH269478   1.904   5.757   2.379  0.2616 -0.0919 -0.6775
15996TIP3    H169479   1.815   5.792   2.372  0.3947  0.7513  1.2077
15996TIP3    H269480   1.960   5.834   2.390  1.1534 -0.6488 -1.1695
15997TIP3   OH269481   3.450   6.734  14.298 -0.2526 -0.2093 -0.6719
15997TIP3    H169482   3.418   6.820  14.327 -0.6280  0.1248 -2.0023
15997TIP3    H269483   3.537   6.752  14.263  0.4684 -0.7219  0.7948
15998TIP3   OH269484   6.494   4.192  12.129 -0.4694  0.5979 -0.3484
15998TIP3    H169485   6.525   4.260  12.069  1.3199  0.2124  0.0815
15998TIP3    H269486   6.570   4.173  12.184 -2.0089  0.8587  1.9832
15999TIP3   OH269487   2.819   2.371   5.522 -0.0771 -0.5511  0.6650
15999TIP3    H169488   2.891   2.393   5.463 -1.0325  1.8869  0.2645
15999TIP3    H269489   2.819   2.276   5.525  0.9153 -0.7510 -2.1417
16000TIP3   OH269490   6.055   2.903  17.320 -0.2289 -0.2143 -0.3828
16000TIP3    H169491   6.031   2.812  17.333 -0.6110 -0.0318  0.2190
16000TIP3    H269492   6.146   2.900  17.289 -0.4462 -0.8196 -0.9810
16001TIP3   OH269493   2.930   1.022   3.378  0.4331  0.0847  0.2644
16001TIP3    H169494   2.860   1.022   3.313  1.8563 -0.9659 -1.3783
16001TIP3    H269495   2.891   0.986   3.457 -0.8445 -0.5695 -0.6411
16002TIP3   OH269496   5.289   4.907  12.518  0.1894 -0.1137  0.2457
16002TIP3    H169497   5.374   4.947  12.536  0.3471  0.7521 -2.0854
16002TIP3    H269498   5.309   4.829  12.467 -0.3744 -0.4776  0.5701
16003TIP3   OH269499   4.922   6.036   1.626 -0.4451 -0.1049 -0.1075
16003TIP3    H169500   4.993   6.073   1.574  0.1942 -0.2277  0.6541
16003TIP3    H269501   4.932   5.942   1.616  0.4883 -0.1837  1.2307
16004TIP3   OH269502   2.179   0.895  17.260  0.4032 -0.1937 -0.6081
16004TIP3    H169503   2.107   0.957  17.275  1.9447  1.5967 -0.2015
16004TIP3    H269504   2.173   0.874  17.167  0.3421  1.2731 -0.9690
16005TIP3   OH269505   6.004   5.397   5.868  0.2642  0.0172  0.1069
16005TIP3    H169506   5.992   5.338   5.795 -1.2727 -0.7573  0.9354
16005TIP3    H269507   6.080   5.363   5.915  2.7942  1.8605 -2.2907
16006TIP3   OH269508   5.898   0.518   5.649 -0.6645  0.1157 -0.4170
16006TIP3    H169509   5.881   0.587   5.584  1.6079 -1.2317 -2.5973
16006TIP3    H269510   5.954   0.561   5.714 -1.8589  1.1115  0.0125
16007TIP3   OH269511   3.346   4.087   4.565  0.2181 -0.6042 -0.6159
16007TIP3    H169512   3.339   4.182   4.581  1.8765 -0.6029  0.3208
16007TIP3    H269513   3.266   4.065   4.518 -1.4138  0.8254  1.2892
16008TIP3   OH269514   3.975   3.181   2.374  0.5349  0.1884 -0.8609
16008TIP3    H169515   4.027   3.190   2.454 -0.0651 -1.0654 -0.3022
16008TIP3    H269516   3.884   3.186   2.403  0.2999 -0.7474 -1.3678
16009TIP3   OH269517   0.687   6.187   2.590  0.2837  0.4407  0.2907
16009TIP3    H169518   0.677   6.282   2.599 -1.3657  0.4734 -1.2646
16009TIP3    H269519   0.754   6.176   2.523 -0.9101  0.5888 -0.9696
16010TIP3   OH269520   1.851   2.015   0.751  0.8039 -0.6126 -0.0570
16010TIP3    H169521   1.789   1.944   0.734  0.1184 -0.2294  0.8133
16010TIP3    H269522   1.801   2.095   0.736  2.0185 -0.2332 -2.7603
16011TIP3   OH269523   6.213   1.685  12.699  0.0295  0.3941 -0.1868
16011TIP3    H169524   6.179   1.596  12.714  0.9410  0.2818  1.6004
16011TIP3    H269525   6.135   1.740  12.697 -0.4981 -0.3324 -0.2444
16012TIP3   OH269526   5.034   1.656  12.805  0.4980  0.4482 -0.1618
16012TIP3    H169527   5.003   1.702  12.727  0.3530  0.7673  0.0800
16012TIP3    H269528   5.048   1.726  12.869  2.6560  0.4454 -0.5644
16013TIP3   OH269529   3.444   2.916  16.931 -0.1605  0.2216 -0.6562
16013TIP3    H169530   3.479   2.925  16.843 -1.7615 -1.6062 -1.5548
16013TIP3    H269531   3.480   2.832  16.962 -0.8619  0.0839 -0.1990
16014TIP3   OH269532   2.818   5.027   6.107  0.0490 -0.9752  0.1885
16014TIP3    H169533   2.842   4.946   6.152  4.4692 -0.0729 -0.1271
16014TIP3    H269534   2.845   5.097   6.167 -0.3914  0.2814 -1.0234
16015TIP3   OH269535   5.433   4.843  12.231  0.0355  0.0161 -0.3420
16015TIP3    H169536   5.468   4.813  12.147  0.1796  0.2699 -0.3729
16015TIP3    H269537   5.404   4.763  12.275  2.3184 -0.4593  0.4584
16016TIP3   OH269538   3.396   3.367   2.585 -0.6477  0.5938 -0.2182
16016TIP3    H169539   3.373   3.301   2.520 -0.9655  0.1169  0.3727
16016TIP3    H269540   3.350   3.446   2.556  1.2309  1.1355 -1.9967
16017TIP3   OH269541   4.183   0.167  12.192  0.2095 -0.3017 -0.4154
16017TIP3    H169542   4.150   0.178  12.281 -0.5780 -0.3923 -0.6869
16017TIP3    H269543   4.138   0.089  12.159 -2.3359  1.7164 -2.1226
16018TIP3   OH269544   5.773   3.967   1.278  0.2563  0.0516 -0.3025
16018TIP3    H169545   5.783   3.971   1.182  0.1815 -1.6314 -0.4076
16018TIP3    H269546   5.836   3.901   1.305  0.1456  0.3941  0.8097
16019TIP3   OH269547   3.211   1.141   0.311  0.2148  0.0716 -0.6207
16019TIP3    H169548   3.219   1.109   0.221 -0.5921  0.5423 -0.8710
16019TIP3    H269549   3.225   1.236   0.304 -0.7712  0.2446 -0.3987
16020TIP3   OH269550   6.620   6.363   3.133 -0.1608  0.3031 -0.1303
16020TIP3    H169551   6.678   6.290   3.112 -1.3455 -1.0940  1.1597
16020TIP3    H269552   6.560   6.369   3.059 -0.1462 -0.1464 -0.1828
16021TIP3   OH269553   4.633   4.964  11.645 -0.4990  0.1619  0.8618
16021TIP3    H169554   4.587   5.036  11.687 -0.0594  2.8326 -2.7472
16021TIP3    H269555   4.568   4.924  11.587  0.0818 -0.2552  0.4827
16022TIP3   OH269556   1.483   3.889  15.615 -0.1586  0.3846 -0.7986
16022TIP3    H169557   1.549   3.839  15.567 -0.7613 -0.3174 -0.9189
16022TIP3    H269558   1.523   3.907  15.700 -0.0136 -0.5495 -0.6524
16023TIP3   OH269559   1.800   3.086   5.050 -0.3070 -0.4753  0.7065
16023TIP3    H169560   1.861   3.148   5.090  0.4947  0.2116 -1.4175
16023TIP3    H269561   1.736   3.142   5.006 -0.0721 -1.1315 -0.5156
16024TIP3   OH269562   4.485   1.436   4.321  0.0921  0.3193 -0.1092
16024TIP3    H169563   4.518   1.400   4.403  0.8890  1.1456 -0.0593
16024TIP3    H269564   4.557   1.425   4.259 -0.5739 -0.4928 -0.7769
16025TIP3   OH269565   4.416   2.035  11.231 -0.7766 -0.2843  0.4639
16025TIP3    H169566   4.510   2.019  11.241 -0.4005  0.6269 -1.2427
16025TIP3    H269567   4.410   2.129  11.210 -2.0423 -0.3851  0.3005
16026TIP3   OH269568   6.154   5.934   0.770 -0.6848 -0.1229  0.2253
16026TIP3    H169569   6.197   5.943   0.856  0.4598  0.5759 -0.3922
16026TIP3    H269570   6.223   5.900   0.713 -1.3687 -0.3217 -0.4913
16027TIP3   OH269571   6.519   2.773   4.589  0.4401  0.2498  0.4816
16027TIP3    H169572   6.610   2.798   4.574  1.2033 -1.2846  2.2164
16027TIP3    H269573   6.479   2.849   4.632  1.3704  0.3177  1.2527
16028TIP3   OH269574   1.580   6.582   4.808  0.5476  0.1255  0.1251
16028TIP3    H169575   1.671   6.575   4.781  1.4422 -0.0038  2.8474
16028TIP3    H269576   1.569   6.513   4.873 -1.0821  1.0104  0.8589
16029TIP3   OH269577   0.833   6.659  10.900  0.2602 -0.2047 -0.1070
16029TIP3    H169578   0.751   6.700  10.928  0.7368  1.0939 -0.5357
16029TIP3    H269579   0.816   6.631  10.810  0.8648  1.8752 -0.9290
16030TIP3   OH269580   0.886   6.637   0.023 -0.7095 -0.7713 -0.0724
16030TIP3    H169581   0.898   6.560  -0.032 -2.3750 -1.1863  0.0840
16030TIP3    H269582   0.933   6.616   0.104  0.5916 -0.7290 -0.8024
16031TIP3   OH269583   1.911   4.017   5.830  0.4266  0.0540  0.5881
16031TIP3    H169584   1.904   4.102   5.786 -0.1860 -0.8622 -1.2177
16031TIP3    H269585   2.005   4.004   5.843  0.6810  0.1524 -0.9687
16032TIP3   OH269586   0.179   1.547  17.487 -0.3314  0.3167  0.4196
16032TIP3    H169587   0.255   1.489  17.495 -0.1605  0.1102 -2.0789
16032TIP3    H269588   0.212   1.624  17.440 -1.7640 -0.1115 -1.4122
16033TIP3   OH269589   3.856   4.176   0.165  0.0496 -0.0480  0.0654
16033TIP3    H169590   3.827   4.244   0.226  1.0463 -0.4566  1.0281
16033TIP3    H269591   3.942   4.151   0.197  0.0064 -1.2547 -0.7188
16034TIP3   OH269592   2.797   1.078  14.267 -0.5011 -0.1204 -0.0611
16034TIP3    H169593   2.795   1.169  14.235  0.3631  0.3032  1.0363
16034TIP3    H269594   2.710   1.065  14.305 -0.4752  0.4064  0.1940
16035TIP3   OH269595   1.214   2.407   3.221  0.0848  0.6473 -0.6016
16035TIP3    H169596   1.195   2.500   3.210  0.0317  0.9867  1.8706
16035TIP3    H269597   1.207   2.392   3.315  2.3552 -1.3733 -0.6642
16036TIP3   OH269598   3.503   1.776   1.771 -0.5291  0.2634 -0.2071
16036TIP3    H169599   3.565   1.839   1.734 -0.5434  0.5291  0.2104
16036TIP3    H269600   3.456   1.741   1.695  0.2032 -0.0184 -0.5303
16037TIP3   OH269601   3.035   4.000  17.018 -0.2935  0.1747 -0.5027
16037TIP3    H169602   3.040   3.953  16.934  0.7752  0.9790 -0.9136
16037TIP3    H269603   3.062   4.089  16.997  1.3756  0.0588  0.9382
16038TIP3   OH269604   0.679   0.277   0.192 -0.3314  0.2486 -0.8816
16038TIP3    H169605   0.737   0.275   0.116 -2.2962 -1.5581 -2.4396
16038TIP3    H269606   0.715   0.211   0.252 -0.4028 -0.4108 -1.5536
16039TIP3   OH269607   0.774   1.176   3.843 -0.2633 -0.2600 -0.0859
16039TIP3    H169608   0.709   1.240   3.817  1.2377  1.8518  1.0481
16039TIP3    H269609   0.749   1.150   3.932 -0.6713 -0.9868 -0.4101
16040TIP3   OH269610   3.183   6.576  13.854  0.2794  0.0649 -0.3479
16040TIP3    H169611   3.201   6.571  13.947 -2.1019  2.1351  0.3448
16040TIP3    H269612   3.266   6.600  13.814  0.9705  0.9061  1.4986
16041TIP3   OH269613   3.364   1.554  11.162 -0.0829  0.2690 -0.0853
16041TIP3    H169614   3.397   1.643  11.166 -0.4917  0.4509 -0.6297
16041TIP3    H269615   3.425   1.508  11.104 -1.1508  0.7895 -1.6949
16042TIP3   OH269616   4.775   0.077  15.345 -0.0958 -0.4125  0.6520
16042TIP3    H169617   4.795   0.116  15.260  0.9710  0.1380  1.1417
16042TIP3    H269618   4.683   0.098  15.360 -0.4486 -0.9692 -0.5991
16043TIP3   OH269619   2.556   1.136  12.693  0.0763  0.3331 -0.3822
16043TIP3    H169620   2.603   1.126  12.776  0.3211  1.7710 -0.3091
16043TIP3    H269621   2.624   1.166  12.631  0.0958 -1.5719 -1.3632
16044TIP3   OH269622   4.042   6.661   6.310 -0.2609 -0.1631  0.3890
16044TIP3    H169623   4.053   6.715   6.232 -0.3105  0.5151  0.8371
16044TIP3    H269624   3.988   6.715   6.369 -1.3617 -1.2096  0.3715
16045TIP3   OH269625   2.408   5.287  11.334  0.1550  0.2422  0.0311
16045TIP3    H169626   2.318   5.288  11.368 -0.3573  1.8928 -1.2170
16045TIP3    H269627   2.398   5.306  11.241  1.7402 -0.6955 -0.3549
16046TIP3   OH269628   4.741   0.986  11.278 -0.3553  0.1463 -0.0578
16046TIP3    H169629   4.697   0.948  11.202 -0.4486 -1.2056  0.6403
16046TIP3    H269630   4.671   1.026  11.329 -0.2688  1.2116 -0.7585
16047TIP3   OH269631   2.175   4.291   3.834 -0.1798 -0.4283  0.0713
16047TIP3    H169632   2.091   4.250   3.855 -0.9434 -0.0834 -2.0737
16047TIP3    H269633   2.154   4.382   3.816  0.8262 -0.0981  0.4737
16048TIP3   OH269634   4.677   6.059  14.381 -0.2970  0.5995 -0.1992
16048TIP3    H169635   4.749   6.085  14.325 -1.0394  0.3854 -1.2744
16048TIP3    H269636   4.637   5.985  14.336 -1.3926  0.9268  0.1970
16049TIP3   OH269637   3.802   2.037  14.191 -0.2198 -0.9682 -0.0293
16049TIP3    H169638   3.712   2.071  14.187  0.6487  1.6131  0.4712
16049TIP3    H269639   3.795   1.958  14.245 -2.1814 -0.8201  0.0131
16050TIP3   OH269640   6.252   4.407   4.012  0.1237 -0.3210  0.4778
16050TIP3    H169641   6.301   4.448   3.941 -0.1504 -2.1661 -0.8325
16050TIP3    H269642   6.236   4.478   4.074  1.1583  1.1422 -0.8604
16051TIP3   OH269643   0.660   2.814  16.546  0.2147  0.4589 -0.0050
16051TIP3    H169644   0.566   2.804  16.561  0.4501 -1.8348  0.2455
16051TIP3    H269645   0.690   2.726  16.523  1.9152  1.6025 -2.5025
16052TIP3   OH269646   2.625   1.007  13.563 -0.0511 -0.2811 -0.6744
16052TIP3    H169647   2.596   0.950  13.635 -0.1902  1.1212  0.4373
16052TIP3    H269648   2.552   1.005  13.501 -0.5361 -0.4242 -0.1158
16053TIP3   OH269649   1.977   1.880   2.938  0.7416 -0.1659 -0.1454
16053TIP3    H169650   2.067   1.890   2.970  1.4065 -3.3084 -0.6959
16053TIP3    H269651   1.965   1.952   2.876  2.2119  1.3407  1.2081
16054TIP3   OH269652   1.672   2.412   4.141  0.3965  0.0281  0.1928
16054TIP3    H169653   1.734   2.398   4.068 -1.9281 -0.6810 -1.7740
16054TIP3    H269654   1.706   2.489   4.186  1.3867  1.1763 -2.2921
16055TIP3   OH269655   2.224   4.755   3.724 -0.0803 -0.1881  0.2305
16055TIP3    H169656   2.301   4.763   3.668 -0.7309 -1.2135 -0.8725
16055TIP3    H269657   2.166   4.826   3.697 -0.7065 -1.1237 -0.9527
16056TIP3   OH269658   0.995   0.823  17.267 -0.6811 -0.6840 -0.2441
16056TIP3    H169659   1.050   0.902  17.266 -1.2723 -0.2437 -2.0519
16056TIP3    H269660   1.057   0.750  17.270 -0.0971 -0.1740  0.3584
16057TIP3   OH269661   3.596   5.159   0.022 -0.2407 -0.3342 -0.3536
16057TIP3    H169662   3.544   5.111   0.086  1.3195  0.0686  1.2860
16057TIP3    H269663   3.655   5.093  -0.015 -0.8584 -0.4812 -1.0945
16058TIP3   OH269664   0.381   3.679   2.332 -0.2537  0.1609  0.0807
16058TIP3    H169665   0.375   3.751   2.269 -0.9577 -0.4242 -0.5460
16058TIP3    H269666   0.342   3.713   2.412 -2.1286 -0.0239 -0.6928
16059TIP3   OH269667   3.681   4.073   1.183 -0.4768 -0.0627 -0.0584
16059TIP3    H169668   3.639   4.112   1.106 -2.7395 -0.3402  0.9504
16059TIP3    H269669   3.679   3.979   1.167 -0.0920 -0.0749 -0.0516
16060TIP3   OH269670   3.887   1.504   4.506  0.6740 -0.0236  0.3773
16060TIP3    H169671   3.951   1.569   4.479  0.2044  0.1765 -0.2794
16060TIP3    H269672   3.924   1.464   4.585  2.4166 -1.0851 -0.9082
16061TIP3   OH269673   0.251   4.578   3.009  0.0673 -0.2414 -0.0580
16061TIP3    H169674   0.265   4.484   3.006  0.2773 -0.1882 -1.1121
16061TIP3    H269675   0.333   4.615   2.975 -0.0412  0.3210  0.2800
16062TIP3   OH269676   3.446   0.594  15.940  0.1140  0.3435  0.4011
16062TIP3    H169677   3.434   0.689  15.945  1.5420  0.6748 -1.2148
16062TIP3    H269678   3.534   0.578  15.976  0.5897 -0.1132 -0.8925
16063TIP3   OH269679   4.349   3.795  13.825 -0.1008 -0.1249 -0.6517
16063TIP3    H169680   4.265   3.762  13.856 -0.1279  1.2442  0.8879
16063TIP3    H269681   4.330   3.883  13.792  0.7760  0.4143  0.2062
16064TIP3   OH269682   4.910   4.185   3.253  0.0305 -0.1161 -0.3474
16064TIP3    H169683   4.891   4.271   3.291 -0.5453 -0.7737  0.9016
16064TIP3    H269684   4.992   4.159   3.294 -0.6696 -0.8945  0.6115
16065TIP3   OH269685   4.662   0.032  11.545 -0.3229 -0.1575 -0.0497
16065TIP3    H169686   4.609  -0.009  11.476 -0.0110  0.0211 -0.3998
16065TIP3    H269687   4.645  -0.020  11.623 -1.6717  0.3905  0.0444
16066TIP3   OH269688   3.361   6.054  11.123 -0.5651  0.2392 -0.3438
16066TIP3    H169689   3.268   6.069  11.108 -0.3485 -0.0453 -2.1280
16066TIP3    H269690   3.404   6.080  11.042  0.5775 -2.6946 -0.8132
16067TIP3   OH269691   1.054   4.717   4.055  0.2772  0.2778  0.4735
16067TIP3    H169692   1.048   4.635   4.104 -0.0593 -1.2543 -1.9304
16067TIP3    H269693   0.970   4.760   4.068 -0.1072 -0.4964  0.5847
16068TIP3   OH269694   5.777   2.998  15.242 -0.1162  0.3328 -0.3612
16068TIP3    H169695   5.783   2.975  15.149  0.0226  0.9386 -0.5111
16068TIP3    H269696   5.814   3.086  15.246  2.5857 -0.7463  0.7324
16069TIP3   OH269697   0.011   4.537   5.241 -0.6456  0.3428 -0.1170
16069TIP3    H169698   0.044   4.625   5.224 -0.0573  0.2611  0.5584
16069TIP3    H269699   0.054   4.482   5.176 -0.7186  0.4888 -0.2905
16070TIP3   OH269700   2.277   3.334   2.399  0.1497 -0.1302 -0.2603
16070TIP3    H169701   2.200   3.276   2.395  0.8719 -1.1787  0.5995
16070TIP3    H269702   2.347   3.279   2.434  0.7753  1.3676  0.9538
16071TIP3   OH269703   1.078   1.177   0.234 -0.2193 -0.2707 -0.1524
16071TIP3    H169704   1.137   1.141   0.167 -0.7473 -0.6802 -0.4045
16071TIP3    H269705   1.028   1.245   0.188 -0.1365 -0.1130 -0.0094
16072TIP3   OH269706   1.940   3.765  12.975  0.0707  0.2736 -0.3426
16072TIP3    H169707   1.908   3.771  12.885  0.4995 -0.0809 -0.5266
16072TIP3    H269708   1.904   3.682  13.008 -0.1070  0.4155 -0.1800
16073TIP3   OH269709   5.396   5.861   4.145 -0.2169 -0.1355 -0.4648
16073TIP3    H169710   5.432   5.896   4.064 -1.4625 -0.7787 -1.3265
16073TIP3    H269711   5.303   5.882   4.141 -0.9121 -2.9400 -0.7402
16074TIP3   OH269712   3.883   2.297   1.278 -0.6403 -0.0350 -0.2339
16074TIP3    H169713   3.861   2.290   1.371  1.2021 -1.7653  0.1331
16074TIP3    H269714   3.978   2.288   1.275 -0.7253 -0.7771 -2.3596
16075TIP3   OH269715   6.410   6.469   5.237 -0.3829 -0.0006 -0.2669
16075TIP3    H169716   6.412   6.441   5.146 -0.2784 -2.6548  0.4770
16075TIP3    H269717   6.317   6.467   5.260 -0.5627  2.0042 -0.6303
16076TIP3   OH269718   4.105   5.928   4.112  0.3491  0.1552  0.2859
16076TIP3    H169719   4.185   5.876   4.119 -0.9057 -1.8177  0.7926
16076TIP3    H269720   4.078   5.918   4.021  1.5009  2.2198 -0.3534
16077TIP3   OH269721   5.634   2.921  17.023 -0.1870 -0.7070 -0.0493
16077TIP3    H169722   5.688   2.995  17.052 -0.9186  0.0901 -0.6440
16077TIP3    H269723   5.695   2.847  17.017  0.1474 -0.7431  2.6943
16078TIP3   OH269724   0.562   5.123   3.488  0.0034  0.2182  0.2666
16078TIP3    H169725   0.509   5.049   3.459  0.8710  0.2627 -1.6022
16078TIP3    H269726   0.565   5.181   3.412  1.9304  0.6415  0.6141
16079TIP3   OH269727   6.500   3.624  15.407 -0.2949 -0.2449 -0.0695
16079TIP3    H169728   6.430   3.673  15.364  0.4323  0.9094 -0.0018
16079TIP3    H269729   6.480   3.632  15.501 -0.8580 -1.1678 -0.1007
16080TIP3   OH269730   1.849   0.781   1.083  0.0605  0.1691  0.1433
16080TIP3    H169731   1.871   0.732   1.004 -1.3287  0.6452 -0.5811
16080TIP3    H269732   1.763   0.818   1.065  0.5828  1.9808  1.0821
16081TIP3   OH269733   0.570   1.901   0.704 -0.2037 -0.2540  0.0705
16081TIP3    H169734   0.560   1.894   0.609 -0.8542 -0.6918  0.1645
16081TIP3    H269735   0.665   1.910   0.717 -0.1104 -0.1756 -0.6200
16082TIP3   OH269736   1.772   4.294   6.333  0.1271  0.2893  0.2789
16082TIP3    H169737   1.762   4.253   6.419 -1.3084  0.3641  0.1667
16082TIP3    H269738   1.825   4.372   6.350 -1.4088  1.1575  1.4176
16083TIP3   OH269739   3.819   4.335  15.552  0.2186  1.1256  0.4467
16083TIP3    H169740   3.739   4.312  15.600  1.2251 -0.1412  1.6073
16083TIP3    H269741   3.790   4.343  15.461 -0.9908 -0.8301  0.5946
16084TIP3   OH269742   0.761   5.575   5.268  0.4733 -0.4990 -0.6485
16084TIP3    H169743   0.789   5.522   5.343 -1.3659 -1.0516 -0.3022
16084TIP3    H269744   0.705   5.642   5.307 -1.0437 -1.1896 -1.5742
16085TIP3   OH269745   1.199   3.159  16.746 -0.1652 -0.5082  0.3915
16085TIP3    H169746   1.158   3.213  16.813  0.8584  2.6358 -1.3403
16085TIP3    H269747   1.131   3.145  16.681 -0.3853 -1.2149  0.7637
16086TIP3   OH269748   6.495   6.142  14.869  0.5030  0.8151  0.2633
16086TIP3    H169749   6.468   6.053  14.848 -1.1120  1.3787 -0.1994
16086TIP3    H269750   6.581   6.151  14.828  0.6453 -0.4791  0.2312
16087TIP3   OH269751   0.404   2.994   3.230  0.1663  0.3978  0.1532
16087TIP3    H169752   0.311   3.015   3.237  0.1352  0.0160  1.0943
16087TIP3    H269753   0.437   3.048   3.158 -1.0612 -0.4352 -1.0930
16088TIP3   OH269754   4.038   3.049  14.549  0.8071 -0.4874 -0.0308
16088TIP3    H169755   4.119   3.085  14.512  1.2431  1.6187  2.6386
16088TIP3    H269756   4.068   2.989  14.618  0.0669 -0.8442 -0.0110
16089TIP3   OH269757   1.126   4.285   0.542 -0.8014  0.8467  0.1187
16089TIP3    H169758   1.064   4.244   0.602 -0.0562  2.5563  2.1857
16089TIP3    H269759   1.208   4.236   0.554 -0.3553  1.8460  1.3811
16090TIP3   OH269760   2.053   5.066  14.377  0.1701  0.4300 -0.0119
16090TIP3    H169761   1.976   5.019  14.407  1.1197 -0.5782  0.9592
16090TIP3    H269762   2.072   5.028  14.291 -0.6642  1.0001 -0.4530
16091TIP3   OH269763   1.673   1.356  16.104 -0.3762  0.0720 -0.3041
16091TIP3    H169764   1.612   1.411  16.153 -2.2579 -2.0798 -0.0466
16091TIP3    H269765   1.757   1.367  16.149 -0.7878  2.2213  0.0622
16092TIP3   OH269766   1.760   3.200  16.740 -0.0202 -0.3394 -0.3358
16092TIP3    H169767   1.753   3.105  16.728 -1.2433 -0.3507  0.3240
16092TIP3    H269768   1.854   3.216  16.749  0.2610 -1.3921 -1.1289
16093TIP3   OH269769   1.781   5.726  14.309 -0.1935 -1.1471  0.2795
16093TIP3    H169770   1.801   5.819  14.317  0.0371 -1.2008  0.3441
16093TIP3    H269771   1.710   5.721  14.245 -0.0951 -0.9405  0.1555
16094TIP3   OH269772   2.268   2.658  13.713 -0.0542 -0.4349 -0.2015
16094TIP3    H169773   2.240   2.570  13.737  0.4583 -0.4760  0.2670
16094TIP3    H269774   2.363   2.656  13.722 -0.0895  0.3561  0.4676
16095TIP3   OH269775   4.266   1.487  11.402 -0.6506 -0.2317 -0.0017
16095TIP3    H169776   4.252   1.437  11.322  0.2067 -1.1826  0.4231
16095TIP3    H269777   4.339   1.545  11.381  1.9898 -2.9382  1.0963
16096TIP3   OH269778   5.395   1.199   4.532 -0.4678  0.7025 -0.0431
16096TIP3    H169779   5.469   1.204   4.471 -0.9039  0.4508 -0.6047
16096TIP3    H269780   5.392   1.286   4.572  0.1115  0.7251 -0.0415
16097TIP3   OH269781   1.893   0.466   5.019 -0.0175  0.4524 -0.3458
16097TIP3    H169782   1.945   0.528   4.967  0.2717  1.7650  1.4245
16097TIP3    H269783   1.807   0.466   4.977 -0.1322  2.3561 -0.1842
16098TIP3   OH269784   1.818   2.855  17.064 -0.1948 -0.6804  0.7639
16098TIP3    H169785   1.898   2.807  17.085  0.7384  0.6149  0.2512
16098TIP3    H269786   1.753   2.786  17.046  0.9680 -1.7545  0.5475
16099TIP3   OH269787   4.407   4.748   0.025 -0.6786  0.0033  0.2554
16099TIP3    H169788   4.405   4.838   0.055 -1.1500  0.8554 -2.1146
16099TIP3    H269789   4.353   4.748  -0.054  2.0159 -1.5690 -1.7669
16100TIP3   OH269790   0.335   1.364  16.611  0.1603 -0.3324  0.3246
16100TIP3    H169791   0.253   1.394  16.572  0.2938  2.7326  2.0822
16100TIP3    H269792   0.310   1.331  16.697  0.6027 -0.6642  0.3273
16101TIP3   OH269793   5.781   2.541  15.780  0.5279  0.2987  0.1606
16101TIP3    H169794   5.722   2.580  15.845 -1.3378 -0.0986 -1.2178
16101TIP3    H269795   5.724   2.511  15.710  2.4554  0.7452 -1.7318
16102TIP3   OH269796   3.064   5.870   5.592 -0.0903 -0.4184  0.1446
16102TIP3    H169797   3.111   5.787   5.584 -0.0478 -0.3253 -0.6619
16102TIP3    H269798   3.133   5.937   5.596 -0.0888 -0.4915  1.9974
16103TIP3   OH269799   1.673   5.176   5.159 -0.3744 -0.1313  0.2370
16103TIP3    H169800   1.663   5.115   5.232 -0.8331 -0.8196 -0.3904
16103TIP3    H269801   1.622   5.137   5.087  0.1507  0.4763 -0.4843
16104TIP3   OH269802   6.056   6.345  12.675  0.1924 -0.1658 -0.3473
16104TIP3    H169803   6.125   6.279  12.665  1.0973  0.5953  0.5992
16104TIP3    H269804   5.991   6.305  12.732  0.4338 -0.4763 -0.2902
16105TIP3   OH269805   5.971   4.084   0.725  0.1944  0.1742  0.2082
16105TIP3    H169806   5.878   4.092   0.747 -0.3406 -1.0431 -1.3875
16105TIP3    H269807   6.011   4.163   0.762 -1.7471  1.5178 -0.3783
16106TIP3   OH269808   4.751   3.897  17.197  0.2359 -0.2856 -0.3309
16106TIP3    H169809   4.697   3.958  17.145  1.0446 -0.0435 -0.9086
16106TIP3    H269810   4.740   3.813  17.152  0.4622 -0.2026 -0.5439
16107TIP3   OH269811   5.789   5.249  14.716  0.1800  0.6627 -0.8442
16107TIP3    H169812   5.752   5.318  14.662  1.3333  0.5261 -1.8648
16107TIP3    H269813   5.860   5.212  14.663  1.1768  0.3275  0.6408
16108TIP3   OH269814   2.112   5.310   4.242 -0.2708 -0.6562  0.3920
16108TIP3    H169815   2.118   5.214   4.246 -1.9145 -0.8940 -1.3461
16108TIP3    H269816   2.061   5.333   4.320  1.0995 -1.0404  1.4427
16109TIP3   OH269817   0.840   2.577   0.343 -0.7398 -0.4551 -0.2968
16109TIP3    H169818   0.840   2.525   0.262  0.4657  0.0301 -0.6306
16109TIP3    H269819   0.876   2.519   0.409  0.4188 -0.1368 -0.6260
16110TIP3   OH269820   5.793   0.325  12.930 -0.2906 -0.8569  0.2198
16110TIP3    H169821   5.850   0.306  13.004 -1.6125 -1.2139  1.1935
16110TIP3    H269822   5.802   0.419  12.916  1.2003 -1.0511 -0.2466
16111TIP3   OH269823   6.547   4.069  12.522 -0.1943  0.1912 -0.3145
16111TIP3    H169824   6.522   3.989  12.475  0.4958  0.0290 -0.4254
16111TIP3    H269825   6.615   4.107  12.467  1.1078 -0.3392  0.8694
16112TIP3   OH269826   5.328   0.036  13.926  0.5370 -0.1462  0.3573
16112TIP3    H169827   5.370  -0.050  13.928  1.2341  0.1200 -1.1765
16112TIP3    H269828   5.272   0.034  13.848  1.0623  0.9936 -0.0792
16113TIP3   OH269829   3.974   0.139   1.698 -0.1380 -0.0786 -0.2632
16113TIP3    H169830   4.038   0.076   1.733  2.4534  2.3432 -0.2458
16113TIP3    H269831   4.006   0.158   1.610 -1.6294  0.2676 -0.7453
16114TIP3   OH269832   4.939   6.241   2.178  0.1094 -0.3073  0.2624
16114TIP3    H169833   4.899   6.326   2.196 -0.7112 -0.9169  1.4066
16114TIP3    H269834   5.033   6.257   2.183 -0.0477  0.2631  1.8406
16115TIP3   OH269835   3.298   4.867  15.585 -0.0353  0.8785  0.5059
16115TIP3    H169836   3.292   4.891  15.677 -0.2386  0.2309  0.6713
16115TIP3    H269837   3.310   4.949  15.538  2.0375  1.0681  1.2800
16116TIP3   OH269838   3.006   0.750   2.672  0.3957 -0.3501  0.0519
16116TIP3    H169839   2.943   0.774   2.604  0.4325  0.3187  0.2457
16116TIP3    H269840   2.957   0.754   2.753  0.2337 -1.6030  0.0312
16117TIP3   OH269841   4.233   4.984  13.747 -0.1872 -0.5506  0.2179
16117TIP3    H169842   4.256   4.895  13.720 -0.2464 -1.8218  3.8620
16117TIP3    H269843   4.313   5.020  13.783 -0.5590  0.2825  0.2407
16118TIP3   OH269844   3.584   2.242  11.782 -0.3865  0.5838  0.7161
16118TIP3    H169845   3.670   2.230  11.743 -0.0931  2.0602  0.8451
16118TIP3    H269846   3.564   2.159  11.825  1.3852  0.5189  1.4869
16119TIP3   OH269847   0.306   4.544  16.119  0.3803 -0.4972  0.3029
16119TIP3    H169848   0.321   4.506  16.033 -0.6098 -0.3797  0.0658
16119TIP3    H269849   0.264   4.475  16.170 -0.7572  0.0224  0.0964
16120TIP3   OH269850   6.378   4.464  13.011 -0.0229 -0.2534  0.2361
16120TIP3    H169851   6.375   4.369  13.002 -0.6398 -0.1731 -0.4702
16120TIP3    H269852   6.302   4.486  13.064  0.1715 -0.1588  0.4784
16121TIP3   OH269853   4.836   5.034  14.507 -0.3214  0.2363  0.3056
16121TIP3    H169854   4.742   5.036  14.520 -0.4347  0.4830 -0.4672
16121TIP3    H269855   4.858   4.941  14.504 -0.9379  0.0888 -1.9351
16122TIP3   OH269856   5.527   3.562   0.419 -0.0402 -0.4978  0.0071
16122TIP3    H169857   5.529   3.553   0.515 -3.5899 -0.4832  0.2282
16122TIP3    H269858   5.526   3.472   0.387  1.0877 -0.5028 -0.0445
16123TIP3   OH269859   3.790   0.534   3.432  0.4089  0.1565 -0.3296
16123TIP3    H169860   3.744   0.515   3.513  0.0351 -1.4868 -0.8804
16123TIP3    H269861   3.827   0.449   3.405 -1.3116  0.1041 -2.9803
16124TIP3   OH269862   2.136   4.287  11.505  0.3153 -0.4110 -0.7292
16124TIP3    H169863   2.087   4.343  11.444 -1.4831 -2.7112 -1.5552
16124TIP3    H269864   2.076   4.215  11.524  0.9263 -0.0238  3.5723
16125TIP3   OH269865   2.077   0.731  15.086 -0.2846  0.0488  0.4416
16125TIP3    H169866   2.024   0.678  15.145  0.0737 -1.7180 -0.7396
16125TIP3    H269867   2.166   0.698  15.097  0.0374  0.7608  0.0464
16126TIP3   OH269868   4.532   3.825   6.024  1.1176 -0.1599  0.0995
16126TIP3    H169869   4.588   3.750   6.047  0.1469 -0.0625  3.2619
16126TIP3    H269870   4.587   3.902   6.041  1.2374 -0.1096 -0.5050
16127TIP3   OH269871   1.365   2.111   1.156  0.4259 -0.0347  0.1990
16127TIP3    H169872   1.365   2.111   1.060  1.4629 -1.9594  0.1409
16127TIP3    H269873   1.424   2.182   1.181  0.9924 -0.1979 -0.6321
16128TIP3   OH269874   2.622   1.170   0.434 -0.9202  0.1364  0.0331
16128TIP3    H169875   2.713   1.200   0.446 -0.6622 -0.7367  0.3333
16128TIP3    H269876   2.585   1.232   0.371 -0.1566  0.5900  0.0105
16129TIP3   OH269877   6.035   4.349  10.899 -0.5504  0.0736 -0.1716
16129TIP3    H169878   5.984   4.355  10.980  1.4537 -0.6944  1.2162
16129TIP3    H269879   6.123   4.377  10.923  0.6669 -2.2558 -1.4963
16130TIP3   OH269880   6.097   3.025  16.757  0.2208 -0.1661  0.0159
16130TIP3    H169881   6.163   2.965  16.790  1.1275 -0.6208 -2.4391
16130TIP3    H269882   6.133   3.112  16.774  1.0108 -0.3980 -0.4155
16131TIP3   OH269883   4.541   4.262   1.718 -0.1251  0.3528 -0.2085
16131TIP3    H169884   4.510   4.187   1.767  0.6750  0.3048  0.2493
16131TIP3    H269885   4.591   4.313   1.781  0.0223  0.8464 -0.7110
16132TIP3   OH269886   2.493   5.496  15.316 -0.5148 -0.6910  0.0243
16132TIP3    H169887   2.525   5.538  15.236 -0.2103  0.1190  0.5503
16132TIP3    H269888   2.570   5.453  15.353 -0.5250 -0.5993  0.1557
16133TIP3   OH269889   4.929   0.964  15.428 -1.0064  0.3245 -0.9262
16133TIP3    H169890   4.924   0.999  15.517 -1.6074 -0.3842 -0.6713
16133TIP3    H269891   4.852   0.908  15.419 -0.5625 -0.2046 -1.6354
16134TIP3   OH269892   2.351   3.008  16.088 -0.1186  0.0342  0.5547
16134TIP3    H169893   2.260   2.985  16.072 -0.7814  2.3908  0.5343
16134TIP3    H269894   2.352   3.046  16.176  1.0706 -0.9668  1.0054
16135TIP3   OH269895   3.803   1.445   1.039 -0.0918  0.1798 -0.3423
16135TIP3    H169896   3.742   1.425   1.110  2.6889  0.7379  2.4319
16135TIP3    H269897   3.785   1.536   1.017 -1.5625 -0.2555 -1.0088
16136TIP3   OH269898   4.720   3.095  11.538  0.5777 -0.5321  0.5764
16136TIP3    H169899   4.745   3.044  11.461  0.8854 -0.6147  0.7291
16136TIP3    H269900   4.627   3.078  11.549  0.0879  0.9283 -0.8684
16137TIP3   OH269901   5.928   0.665   3.714  0.1970 -0.1762 -0.0945
16137TIP3    H169902   6.005   0.608   3.722  1.6794  1.6157 -0.7085
16137TIP3    H269903   5.905   0.686   3.805  2.0726  1.2550  0.1121
16138TIP3   OH269904   1.570   3.467  13.039  0.0615  0.3702  0.2332
16138TIP3    H169905   1.520   3.514  12.972  2.0708  1.6907 -0.4449
16138TIP3    H269906   1.573   3.526  13.113  1.4929  0.8063 -0.1399
16139TIP3   OH269907   1.011   1.810   0.025  0.1551  0.0818  0.4416
16139TIP3    H169908   0.984   1.748   0.092  1.0081 -0.2235  0.5125
16139TIP3    H269909   0.929   1.843  -0.011 -0.3798 -2.3163 -0.7477
16140TIP3   OH269910   2.577   2.566  12.559  0.1783 -0.2331  0.5763
16140TIP3    H169911   2.481   2.564  12.567  0.0993  1.1273  0.2600
16140TIP3    H269912   2.604   2.630  12.625  0.9919 -1.4910  1.4945
16141TIP3   OH269913   5.914   5.195  16.269  0.1927  0.1728  0.6173
16141TIP3    H169914   5.921   5.189  16.174  4.0513 -0.7883  0.7857
16141TIP3    H269915   5.883   5.109  16.296 -0.1996  0.2073  0.2926
16142TIP3   OH269916   5.507   0.082   2.963  0.0344  0.6639  0.1271
16142TIP3    H169917   5.596   0.054   2.941  0.0906  1.2384 -0.4240
16142TIP3    H269918   5.518   0.142   3.037  0.0128  0.0574  0.6318
16143TIP3   OH269919   5.818   0.692   4.898 -0.1245 -0.3050  0.3717
16143TIP3    H169920   5.747   0.751   4.926  1.0635  1.6468 -0.5007
16143TIP3    H269921   5.843   0.725   4.812  0.7056 -2.0444 -0.0800
16144TIP3   OH269922   1.890   0.157  16.754  0.1093  0.3481  0.0500
16144TIP3    H169923   1.803   0.194  16.771 -0.9358 -2.3385  1.1794
16144TIP3    H269924   1.938   0.169  16.837  0.0800 -0.0028  0.1185
16145TIP3   OH269925   5.536   2.743  10.952 -0.0696  0.1021 -0.0963
16145TIP3    H169926   5.615   2.760  11.003 -1.0013  0.5522  1.2360
16145TIP3    H269927   5.537   2.649  10.936  1.1960  0.2270 -0.9052
16146TIP3   OH269928   2.715   5.606  11.955  0.9825 -0.4368  0.1436
16146TIP3    H169929   2.718   5.594  12.050  1.5985 -1.0790  0.0600
16146TIP3    H269930   2.669   5.689  11.941 -2.1198 -1.8913  0.8733
16147TIP3   OH269931   0.186   0.852  12.854 -0.3908  0.6340 -0.3065
16147TIP3    H169932   0.223   0.833  12.767 -1.2554  1.4786 -0.8674
16147TIP3    H269933   0.103   0.895  12.836 -1.8964 -1.5809  0.9390
16148TIP3   OH269934   6.481   1.750  13.146 -0.3044 -0.0455  1.1174
16148TIP3    H169935   6.462   1.664  13.182 -0.3154 -0.7155 -0.3899
16148TIP3    H269936   6.435   1.751  13.062 -0.9656  1.7519  1.4775
16149TIP3   OH269937   5.316   2.359   2.864  0.1377 -0.2079 -0.2693
16149TIP3    H169938   5.395   2.305   2.872  0.6285  0.4228 -0.7890
16149TIP3    H269939   5.294   2.356   2.771 -0.4776 -0.3975 -0.1245
16150TIP3   OH269940   4.923   2.478  11.446  0.6725  0.8584 -0.5869
16150TIP3    H169941   5.015   2.501  11.457  1.0315 -0.0073 -1.5883
16150TIP3    H269942   4.922   2.415  11.374 -0.6784  0.6578 -0.4314
16151TIP3   OH269943   0.635   6.727   4.836 -0.1710 -0.0986 -0.2939
16151TIP3    H169944   0.696   6.701   4.767 -1.0503 -0.7776 -0.8390
16151TIP3    H269945   0.685   6.717   4.917 -0.2334 -3.0199 -0.5054
16152TIP3   OH269946   6.591   0.171   0.128  0.1569  0.4081  0.5017
16152TIP3    H169947   6.640   0.091   0.107  0.7610  1.1333 -1.0448
16152TIP3    H269948   6.565   0.206   0.043  0.6924  2.3355  1.0826
16153TIP3   OH269949   5.393   1.409   0.639  0.0715  0.7373 -0.4790
16153TIP3    H169950   5.401   1.325   0.685 -1.1418  0.4537 -0.7480
16153TIP3    H269951   5.303   1.409   0.605  0.0395  2.1531 -0.4597
16154TIP3   OH269952   5.655   3.482   0.012 -0.1381  0.2187 -0.3111
16154TIP3    H169953   5.644   3.394   0.048 -1.8582  0.9480  1.0303
16154TIP3    H269954   5.721   3.471  -0.057  1.1581 -1.7382  1.1464
16155TIP3   OH269955   4.961   0.733   6.207 -0.8341  0.1367  0.2224
16155TIP3    H169956   4.990   0.699   6.122 -0.6050  1.0871 -0.0947
16155TIP3    H269957   4.970   0.828   6.199 -2.5336  0.3712  0.6751
16156TIP3   OH269958   3.097   1.990   5.135 -0.3200 -0.3371  0.3894
16156TIP3    H169959   3.086   1.953   5.223 -2.4646  0.8252  0.6770
16156TIP3    H269960   3.157   2.063   5.146 -1.6843  0.6993  1.2043
16157TIP3   OH269961   5.914   2.262   3.052 -0.5205  0.0348 -0.3537
16157TIP3    H169962   5.967   2.341   3.044 -1.0809  0.4518 -0.0964
16157TIP3    H269963   5.862   2.259   2.972 -1.0213  0.3337 -0.0505
16158TIP3   OH269964   2.809   5.169  15.387  0.4023  0.3083  0.7520
16158TIP3    H169965   2.875   5.201  15.447  1.5736  0.1647 -0.4165
16158TIP3    H269966   2.798   5.076  15.409  1.1843  0.1376  0.4448
16159TIP3   OH269967   3.259   4.625   3.241 -0.3155 -0.2512 -0.2727
16159TIP3    H169968   3.347   4.610   3.277 -0.1005  0.1908 -0.6074
16159TIP3    H269969   3.269   4.609   3.147 -0.7966 -1.0578 -0.1950
16160TIP3   OH269970   4.605   2.412   1.454  1.2581  0.2142 -0.4528
16160TIP3    H169971   4.629   2.468   1.381 -1.0617 -1.5438 -2.7795
16160TIP3    H269972   4.596   2.471   1.529  1.5259  2.4762 -2.1178
16161TIP3   OH269973   1.230   0.343  14.247 -0.0595  0.2530  0.4687
16161TIP3    H169974   1.177   0.348  14.326  1.0042 -0.7432  1.2789
16161TIP3    H269975   1.254   0.433  14.228 -1.1104  0.5945  0.7225
16162TIP3   OH269976   5.022   1.726   0.170  0.5214  0.2053 -0.4826
16162TIP3    H169977   4.947   1.783   0.154 -0.7182 -0.6635  1.7386
16162TIP3    H269978   5.099   1.779   0.148 -0.6458  2.1357 -0.1042
16163TIP3   OH269979   5.775   3.197  12.302  0.2996  0.2341  0.1675
16163TIP3    H169980   5.802   3.151  12.382 -1.6545  1.5792  1.6991
16163TIP3    H269981   5.790   3.290  12.322 -0.0993  0.5809 -1.0889
16164TIP3   OH269982   0.604   4.470   4.739 -0.1945  0.4025 -0.1536
16164TIP3    H169983   0.681   4.455   4.685  0.7051  1.6264  0.7319
16164TIP3    H269984   0.629   4.437   4.826 -0.9194  0.2192 -0.0024
16165TIP3   OH269985   3.808   6.365   1.552  0.0238  0.4434 -0.2522
16165TIP3    H169986   3.727   6.322   1.525 -1.1587  2.4405 -0.0802
16165TIP3    H269987   3.813   6.350   1.647  0.0162  0.0640 -0.3111
16166TIP3   OH269988   3.044   5.342  16.334 -0.4910 -0.3879  0.3707
16166TIP3    H169989   3.138   5.330  16.348 -0.3519  0.2667  0.0405
16166TIP3    H269990   3.030   5.435  16.350 -1.0425 -0.4362  0.1737
16167TIP3   OH269991   4.146   3.473   5.933  0.1999  0.5168  0.6859
16167TIP3    H169992   4.200   3.522   5.995  1.9181 -0.2303 -0.1690
16167TIP3    H269993   4.145   3.383   5.966  0.6437  0.2355 -0.0478
16168TIP3   OH269994   4.167   1.605  11.659  0.6794 -0.7660  0.4458
16168TIP3    H169995   4.181   1.689  11.702  3.8226 -0.1625 -1.4744
16168TIP3    H269996   4.231   1.603  11.588 -2.0124 -3.0920 -2.1820
16169TIP3   OH269997   5.473   4.828  11.956  0.2603  0.1751 -0.3850
16169TIP3    H169998   5.564   4.814  11.933  0.5062  1.6341 -0.3949
16169TIP3    H269999   5.438   4.883  11.886 -0.1107  1.1800  0.5656
16170TIP3   OH270000   2.849   5.184  11.439  0.3022 -0.2248 -0.1759
16170TIP3    H170001   2.761   5.148  11.428  0.0967  0.2745 -0.1861
16170TIP3    H270002   2.836   5.268  11.482  0.6885  0.3683 -1.1928
16171TIP3   OH270003   3.927   6.306  14.614 -0.7189  0.2398  0.0164
16171TIP3    H170004   3.966   6.282  14.531 -2.1456 -0.0086 -0.6100
16171TIP3    H270005   4.001   6.332  14.669  0.5491 -2.1709 -0.4185
16172TIP3   OH270006   3.007   1.661  16.131 -0.9486  0.0607  0.1306
16172TIP3    H170007   3.054   1.660  16.048 -0.3767  0.3528  0.4412
16172TIP3    H270008   3.005   1.569  16.159 -1.0408 -0.0224 -0.1478
16173TIP3   OH270009   0.001   0.832   1.280  0.4655  0.5494 -0.0091
16173TIP3    H170010  -0.034   0.811   1.367 -0.7354 -1.5669 -0.9317
16173TIP3    H270011   0.054   0.755   1.257  1.9707  1.7055 -0.5901
16174TIP3   OH270012   4.604   5.602   5.398 -0.7632 -0.5562  0.1165
16174TIP3    H170013   4.617   5.694   5.421  1.3615 -0.8210  0.1316
16174TIP3    H270014   4.622   5.554   5.479  1.8969 -1.1746 -0.7500
16175TIP3   OH270015   2.351   2.649  17.094 -0.1652 -0.0385 -0.3785
16175TIP3    H170016   2.372   2.727  17.042  0.6420  0.4650  0.6784
16175TIP3    H270017   2.392   2.577  17.046  0.3803  0.3885 -0.5686
16176TIP3   OH270018   5.141   1.601   5.926 -0.4746  0.6056  0.1624
16176TIP3    H170019   5.083   1.646   5.987  1.5645  3.1405  0.3933
16176TIP3    H270020   5.126   1.643   5.842 -1.3767 -1.0819 -0.5600
16177TIP3   OH270021   5.930   0.659  12.179  0.1046  0.2152 -0.4322
16177TIP3    H170022   5.933   0.667  12.084 -1.5450  0.0278 -0.5390
16177TIP3    H270023   5.840   0.632  12.198  0.5752 -0.3969  1.1417
16178TIP3   OH270024   2.400   4.547   0.014 -0.2316 -0.2412  0.4185
16178TIP3    H170025   2.374   4.620   0.070  0.8326  1.9633 -1.8064
16178TIP3    H270026   2.319   4.516  -0.026 -0.4555  1.2647 -0.3462
16179TIP3   OH270027   4.292   6.299   1.739 -0.0641 -0.1230 -0.2075
16179TIP3    H170028   4.237   6.222   1.723 -0.2832 -0.2765  1.2161
16179TIP3    H270029   4.380   6.272   1.711 -0.2794 -0.6301 -0.4011
16180TIP3   OH270030   2.017   5.729   2.858  0.4951 -0.5170  0.2045
16180TIP3    H170031   1.938   5.763   2.816  0.2602 -1.8324 -0.4897
16180TIP3    H270032   2.027   5.640   2.822 -0.5057 -2.3183  3.9196
16181TIP3   OH270033   4.028   5.174   2.424  0.2959  0.2306 -0.2788
16181TIP3    H170034   4.114   5.212   2.440  0.4574  0.9218 -2.4415
16181TIP3    H270035   4.006   5.201   2.335 -2.2610  0.2344  0.2756
16182TIP3   OH270036   1.464   5.903   1.732  0.6149  0.5765 -0.3565
16182TIP3    H170037   1.474   5.907   1.637  0.7962 -0.2447 -0.3825
16182TIP3    H270038   1.383   5.951   1.750  0.3425  0.3617 -0.9796
16183TIP3   OH270039   2.164   0.257   0.973  0.0767 -0.6916  0.1314
16183TIP3    H170040   2.137   0.345   0.996 -1.3656 -1.2389  0.6346
16183TIP3    H270041   2.147   0.250   0.879  1.3117 -0.0707 -0.1575
16184TIP3   OH270042   1.119   4.874  12.500  0.0814  0.2643  0.6010
16184TIP3    H170043   1.178   4.871  12.424  1.1895  0.6177  1.4122
16184TIP3    H270044   1.066   4.795  12.492  1.3054 -0.5648  0.3197
16185TIP3   OH270045   0.013   2.273  15.135 -0.4587  0.1570  0.2431
16185TIP3    H170046   0.082   2.207  15.141 -2.3236 -1.9697 -0.4081
16185TIP3    H270047   0.050   2.343  15.081  1.0573 -1.1004 -0.4058
16186TIP3   OH270048   0.194   3.151  13.250 -0.3398  0.4835 -0.0217
16186TIP3    H170049   0.283   3.183  13.265 -0.5569  0.9398  0.3383
16186TIP3    H270050   0.139   3.229  13.258 -0.6820  0.3850 -1.1985
16187TIP3   OH270051   0.653   4.096  13.296  0.0312  0.0907 -0.1266
16187TIP3    H170052   0.670   4.017  13.347  1.8244  0.1254 -0.6063
16187TIP3    H270053   0.695   4.081  13.212 -0.9780  0.9298 -0.8134
16188TIP3   OH270054   2.733   5.525  15.904 -0.7248  0.3035 -0.6843
16188TIP3    H170055   2.709   5.596  15.845 -0.3129 -0.8081 -2.2526
16188TIP3    H270056   2.680   5.451  15.876  1.0989 -0.8847 -1.2146
16189TIP3   OH270057   3.669   3.164   0.616  0.3628  0.0548 -0.0856
16189TIP3    H170058   3.727   3.235   0.588 -0.7153  0.2438 -2.0155
16189TIP3    H270059   3.698   3.088   0.566 -0.6775  0.0128 -0.6472
16190TIP3   OH270060   2.682   3.805  11.335 -0.0963  0.7772  0.5723
16190TIP3    H170061   2.669   3.830  11.244 -0.2390  1.9491  0.8916
16190TIP3    H270062   2.777   3.803  11.347 -0.0558  2.7505  0.9142
16191TIP3   OH270063   6.594   5.857  17.245  0.1355 -0.5019  0.5560
16191TIP3    H170064   6.514   5.873  17.295  0.4196  1.1952  0.5016
16191TIP3    H270065   6.663   5.852  17.312  0.3078  0.3650  0.4556
16192TIP3   OH270066   6.299   1.348  12.486  0.0903  0.3753  0.2137
16192TIP3    H170067   6.359   1.420  12.505 -0.7509  0.8829  1.0356
16192TIP3    H270068   6.357   1.274  12.468  0.9674  0.9858  0.4019
16193TIP3   OH270069   1.741   3.519  16.272  0.3161 -0.3183  0.1228
16193TIP3    H170070   1.666   3.523  16.331  0.8251  0.3481  0.7481
16193TIP3    H270071   1.817   3.536  16.328  1.0109 -1.5988 -0.3760
16194TIP3   OH270072   4.076   6.510   5.814  0.0274 -0.4755  0.4542
16194TIP3    H170073   4.042   6.574   5.751 -0.0397  1.6429  2.5398
16194TIP3    H270074   4.009   6.506   5.882 -0.3651 -3.4737  0.0323
16195TIP3   OH270075   6.559   4.381  14.377  0.1033 -0.4737  0.5204
16195TIP3    H170076   6.639   4.428  14.353 -1.8192  2.4139 -0.8138
16195TIP3    H270077   6.565   4.371  14.472  1.9047 -0.1018  0.4854
16196TIP3   OH270078   1.144   1.083  15.486  0.4057 -0.3291 -0.0595
16196TIP3    H170079   1.124   1.071  15.393  0.1586 -0.0367 -0.0453
16196TIP3    H270080   1.234   1.054  15.495 -0.6326 -3.9950  0.3127
16197TIP3   OH270081   2.287   3.121   4.964 -0.7841  0.0930  0.7608
16197TIP3    H170082   2.243   3.046   4.923 -1.5397  0.9565 -0.0519
16197TIP3    H270083   2.315   3.176   4.891 -1.1529  1.1136  1.3639
16198TIP3   OH270084   0.156   4.149  12.389 -0.7869  0.2357  0.7623
16198TIP3    H170085   0.233   4.118  12.339 -2.0320 -0.8167 -0.6093
16198TIP3    H270086   0.176   4.126  12.480 -0.0572 -1.3332  0.2477
16199TIP3   OH270087   3.641   0.785  12.162  1.0651 -0.1973  0.0072
16199TIP3    H170088   3.637   0.695  12.194 -2.9083 -0.6705 -1.3388
16199TIP3    H270089   3.590   0.836  12.225  0.0477  0.3401 -1.2025
16200TIP3   OH270090   0.352   4.331   3.129 -0.2893 -0.0596 -0.1054
16200TIP3    H170091   0.284   4.265   3.142  0.0126 -0.3758 -0.1105
16200TIP3    H270092   0.417   4.288   3.074  0.4897 -0.1701  0.8755
16201TIP3   OH270093   6.033   4.287   3.869 -0.1062  1.0300  0.1198
16201TIP3    H170094   6.097   4.311   3.935 -1.1849  0.3315  1.4891
16201TIP3    H270095   5.952   4.273   3.919 -0.4559 -1.6183 -1.0124
16202TIP3   OH270096   4.074   4.442  11.547  0.2175 -0.0371 -0.2842
16202TIP3    H170097   3.985   4.458  11.578  0.8157  1.1775  0.8939
16202TIP3    H270098   4.065   4.437  11.451 -1.2993 -1.3644 -0.1188
16203TIP3   OH270099   3.446   0.676   0.093  0.2582  0.6154 -0.0016
16203TIP3    H170100   3.384   0.645   0.028  0.4502 -0.7556  0.4331
16203TIP3    H270101   3.530   0.639   0.065  0.8261  2.1044 -0.3539
16204TIP3   OH270102   5.103   3.566   0.183  0.0650  0.7159 -0.1265
16204TIP3    H170103   5.156   3.505   0.236  0.4641  0.9574 -0.2417
16204TIP3    H270104   5.126   3.653   0.217 -0.1874  0.8288 -0.2469
16205TIP3   OH270105   1.388   6.200   4.589  0.2110  0.0440 -0.5328
16205TIP3    H170106   1.335   6.125   4.616 -0.5931  0.0102 -2.1188
16205TIP3    H270107   1.326   6.271   4.578  1.0431  1.1885  1.5995
16206TIP3   OH270108   1.086   5.173   5.240  0.3796 -0.2385 -0.2021
16206TIP3    H170109   1.025   5.230   5.195  0.7771 -0.9571 -1.7259
16206TIP3    H270110   1.172   5.200   5.209  0.8138  0.2445  1.3134
16207TIP3   OH270111   6.163   2.918  14.820  0.4561  0.0983 -0.1001
16207TIP3    H170112   6.211   2.835  14.824  0.2391 -0.2923 -3.2857
16207TIP3    H270113   6.230   2.985  14.809  0.5107  0.1174  0.3299
16208TIP3   OH270114   6.315   6.225   6.122 -0.2231 -0.6461 -0.0653
16208TIP3    H170115   6.278   6.195   6.205  0.4949 -1.6534 -0.0766
16208TIP3    H270116   6.359   6.307   6.143  1.2929 -1.6443  0.9505
16209TIP3   OH270117   2.245   5.465  17.258  0.1964 -0.0012  0.6242
16209TIP3    H170118   2.340   5.467  17.246  0.2257 -0.3992  0.7834
16209TIP3    H270119   2.213   5.539  17.207  0.4498 -0.7363 -0.6399
16210TIP3   OH270120   4.380   5.201  16.078 -0.2455  0.3157  0.1643
16210TIP3    H170121   4.378   5.106  16.064  1.5882 -0.0156  1.7185
16210TIP3    H270122   4.333   5.215  16.160  0.8946  0.5022  0.8195
16211TIP3   OH270123   0.837   0.092  16.525  0.4214 -0.0253 -0.2606
16211TIP3    H170124   0.886   0.020  16.565 -1.2723 -0.3580  1.3763
16211TIP3    H270125   0.752   0.053  16.503 -0.0507  1.1495 -0.5791
16212TIP3   OH270126   5.773   2.459   1.974  0.4947 -0.4872 -0.0885
16212TIP3    H170127   5.757   2.365   1.989 -0.6421 -0.1273  1.0933
16212TIP3    H270128   5.728   2.478   1.892 -1.4696 -0.4535  0.9547
16213TIP3   OH270129   0.198   1.316   1.496  0.2854 -0.0028 -0.4515
16213TIP3    H170130   0.153   1.344   1.417  0.0599  0.3582 -0.2027
16213TIP3    H270131   0.168   1.227   1.511  0.7878 -0.2887 -1.0964
16214TIP3   OH270132   2.265   1.861  13.657  0.7522 -0.7573  0.0610
16214TIP3    H170133   2.205   1.911  13.602  0.5485 -0.0135  0.9319
16214TIP3    H270134   2.295   1.789  13.601  0.0749 -0.3817 -0.8074
16215TIP3   OH270135   6.517   0.517   5.179 -0.2114  0.3457 -0.3527
16215TIP3    H170136   6.609   0.488   5.180  0.0448  0.8614 -2.6373
16215TIP3    H270137   6.522   0.610   5.202 -0.4211 -0.0841  1.5385
16216TIP3   OH270138   5.375   2.262  10.411 -0.0039  0.3207 -0.2048
16216TIP3    H170139   5.354   2.220  10.494  0.3455 -0.3680 -0.4568
16216TIP3    H270140   5.470   2.253  10.402 -0.3312 -2.3307 -2.0709
16217TIP3   OH270141   3.562   5.986   1.015 -0.1589 -0.6708  0.3156
16217TIP3    H170142   3.489   6.000   1.075 -0.7197  0.6517 -0.6103
16217TIP3    H270143   3.580   6.073   0.978  0.2783 -1.3924 -1.2851
16218TIP3   OH270144   0.086   5.167   2.429 -0.0847  0.4724 -0.2402
16218TIP3    H170145   0.126   5.237   2.481  3.2047  1.7894 -3.9774
16218TIP3    H270146   0.101   5.087   2.479  3.1640  1.5735  0.7973
16219TIP3   OH270147   6.518   0.206  16.522  0.0695  0.1066 -0.5343
16219TIP3    H170148   6.448   0.142  16.522  0.8940 -0.8219 -0.6923
16219TIP3    H270149   6.586   0.169  16.465  1.1482  0.4416  0.4738
16220TIP3   OH270150   3.965   3.671   3.312 -0.4779 -0.4273 -0.5110
16220TIP3    H170151   3.992   3.652   3.401  0.6018 -0.5294 -0.8442
16220TIP3    H270152   3.897   3.738   3.321 -1.3727 -1.4236  0.4463
16221TIP3   OH270153   0.813   0.326  14.702 -0.2935 -0.4977  0.2523
16221TIP3    H170154   0.718   0.337  14.706 -0.2481  1.9509 -2.2254
16221TIP3    H270155   0.846   0.368  14.781 -1.2255 -1.2184  1.0483
16222TIP3   OH270156   4.887   4.918  17.036 -0.1031  0.1473 -0.1319
16222TIP3    H170157   4.912   4.968  16.958  1.4752 -0.9235 -0.3522
16222TIP3    H270158   4.834   4.846  17.002 -0.7253  0.5335 -0.0153
16223TIP3   OH270159   3.227   6.260   1.325  0.4367  0.0779 -0.3243
16223TIP3    H170160   3.285   6.231   1.395  0.0903 -0.4726 -0.2597
16223TIP3    H270161   3.155   6.197   1.326 -0.9835  1.6325  0.6481
16224TIP3   OH270162   5.827   4.147   1.495 -0.0178 -0.1683 -0.7210
16224TIP3    H170163   5.892   4.114   1.433 -0.2644  1.4603 -1.9008
16224TIP3    H270164   5.743   4.121   1.458 -0.1143 -0.9842  0.0358
16225TIP3   OH270165   0.485   5.887   0.730  0.1804  0.2192  0.3524
16225TIP3    H170166   0.451   5.799   0.714  0.6203  0.2026 -0.5182
16225TIP3    H270167   0.542   5.877   0.807  0.5945 -0.3503 -0.0242
16226TIP3   OH270168   1.030   6.512  12.794 -0.2373 -0.0823  0.1499
16226TIP3    H170169   1.048   6.472  12.708 -3.8159 -0.9452 -0.3511
16226TIP3    H270170   1.003   6.601  12.774  2.0737  0.8248  0.7697
16227TIP3   OH270171   1.827   4.142   5.035  0.1903  1.1134 -0.6968
16227TIP3    H170172   1.774   4.132   4.956  0.1270  2.1151 -0.7903
16227TIP3    H270173   1.770   4.113   5.106 -0.0390  0.9829 -0.9328
16228TIP3   OH270174   6.291   4.595   1.674 -0.2526  0.9230 -0.0188
16228TIP3    H170175   6.254   4.507   1.669  0.3908  0.6619 -0.3208
16228TIP3    H270176   6.382   4.582   1.700 -0.4183  1.5731  0.9525
16229TIP3   OH270177   4.900   6.319   1.021  0.0214  0.5983  0.1761
16229TIP3    H170178   4.860   6.344   1.105  1.1785  0.6455  0.7315
16229TIP3    H270179   4.923   6.402   0.980  0.3227  0.5483  0.2446
16230TIP3   OH270180   2.088   1.247  11.948  0.0021  0.3742 -0.0021
16230TIP3    H170181   2.089   1.181  12.017  0.7464  2.6584  2.2931
16230TIP3    H270182   2.094   1.196  11.867 -0.4023 -2.3960  1.5856
16231TIP3   OH270183   6.142   6.094   4.701 -0.0277 -0.0582 -0.1444
16231TIP3    H170184   6.134   6.074   4.794 -1.8732  0.9223 -0.0507
16231TIP3    H270185   6.102   6.019   4.657  0.7697 -0.4829 -0.1634
16232TIP3   OH270186   3.930   0.781   3.558  0.5126  0.3815  0.3886
16232TIP3    H170187   3.984   0.829   3.621 -1.0142  2.4911  0.1868
16232TIP3    H270188   3.872   0.727   3.612 -0.7007  2.0777  0.8589
16233TIP3   OH270189   5.211   1.042   3.259  0.2540  0.0682  0.0744
16233TIP3    H170190   5.210   1.053   3.164 -1.8570  2.6919  0.2746
16233TIP3    H270191   5.134   0.987   3.277  0.2446  0.1590  0.3171
16234TIP3   OH270192   6.523   2.441  14.294  0.0327  0.0858 -0.4220
16234TIP3    H170193   6.494   2.531  14.278  2.4246  0.9306 -0.5201
16234TIP3    H270194   6.579   2.420  14.219  1.6783 -0.4422  0.8884
16235TIP3   OH270195   2.065   1.873  14.571 -0.1258 -0.1687 -0.2756
16235TIP3    H170196   2.119   1.946  14.600 -2.9139  2.4104 -1.1582
16235TIP3    H270197   2.116   1.831  14.502  1.2664  1.3560 -0.2240
16236TIP3   OH270198   6.056   0.414   5.143  0.3073 -0.2509 -0.0961
16236TIP3    H170199   6.101   0.496   5.164 -2.4481  1.0711  1.0563
16236TIP3    H270200   5.971   0.441   5.110 -0.7307 -2.6640  0.4084
16237TIP3   OH270201   6.487   6.242   3.505 -0.7140 -0.6453 -0.1703
16237TIP3    H170202   6.510   6.198   3.587 -0.8517 -1.9167 -0.7937
16237TIP3    H270203   6.571   6.272   3.470 -0.4129 -1.7392 -0.4526
16238TIP3   OH270204   4.402   6.319  14.379  0.7868 -0.2722 -0.0088
16238TIP3    H170205   4.414   6.291  14.470 -0.2803 -1.9105 -0.3265
16238TIP3    H270206   4.407   6.238  14.328 -2.6916 -0.0392 -0.9868
16239TIP3   OH270207   2.058   4.168   0.191 -0.1692 -0.1950  0.0219
16239TIP3    H170208   2.140   4.216   0.199 -0.6973  0.7179  0.1541
16239TIP3    H270209   2.084   4.077   0.179  0.8499  0.0374  0.3806
16240TIP3   OH270210   0.994   1.741  13.776 -0.0546  0.4723  0.2048
16240TIP3    H170211   0.983   1.824  13.729 -1.3326  0.8067  1.0501
16240TIP3    H270212   1.064   1.760  13.839 -0.6858  1.0851  0.7399
16241TIP3   OH270213   6.648   3.105   2.385  0.1155  0.0552 -0.1000
16241TIP3    H170214   6.669   3.138   2.297  2.2539  0.8570  0.6528
16241TIP3    H270215   6.565   3.147   2.407  0.3664  1.1270 -1.1075
16242TIP3   OH270216   1.056   2.166  14.107  0.1840 -0.0992  0.2771
16242TIP3    H170217   1.053   2.248  14.156  1.5504  0.4919 -0.5883
16242TIP3    H270218   0.970   2.160  14.066  0.1732  1.0437  0.1164
16243TIP3   OH270219   1.701   6.124  11.521 -0.7387 -0.1072 -0.5830
16243TIP3    H170220   1.641   6.131  11.595  0.4974 -1.4755  0.6168
16243TIP3    H270221   1.648   6.086  11.451 -1.5257 -0.3633  0.1339
16244TIP3   OH270222   1.908   1.632  17.015  0.3007  0.3990 -0.3063
16244TIP3    H170223   1.879   1.557  16.964 -0.4072  1.3454 -1.3288
16244TIP3    H270224   1.889   1.708  16.961 -1.1236  1.5166  1.6233
16245TIP3   OH270225   3.407   3.549   1.970 -0.2696 -0.3531 -0.4155
16245TIP3    H170226   3.335   3.597   1.930  0.1798  0.5865 -0.1322
16245TIP3    H270227   3.485   3.581   1.926  0.2163  0.5234  1.0080
16246TIP3   OH270228   1.633   0.854   1.941  0.1417 -0.2572 -0.5274
16246TIP3    H170229   1.723   0.854   1.908  0.0267 -2.0774 -0.9727
16246TIP3    H270230   1.579   0.854   1.862 -0.2782  1.2408 -0.2595
16247TIP3   OH270231   2.759   0.303  13.362  0.0658 -0.5529  0.0245
16247TIP3    H170232   2.809   0.234  13.405  0.5361 -0.4651 -0.3779
16247TIP3    H270233   2.680   0.259  13.330  0.6596 -1.0382 -0.7842
16248TIP3   OH270234   6.073   5.318   1.486  0.5801  0.2165 -0.2576
16248TIP3    H170235   6.082   5.352   1.575  1.8979  1.0109 -0.6694
16248TIP3    H270236   5.979   5.316   1.471  0.3955  1.5860  0.5846
16249TIP3   OH270237   0.455   4.358   3.667  0.0137 -0.5587 -0.0981
16249TIP3    H170238   0.444   4.435   3.612 -0.9247 -0.1559  0.6331
16249TIP3    H270239   0.456   4.391   3.757 -0.5311 -1.3922  0.2365
16250TIP3   OH270240   0.361   2.626   3.313  0.3365 -0.2924  0.0774
16250TIP3    H170241   0.362   2.533   3.338  2.2511  0.1043  1.7013
16250TIP3    H270242   0.346   2.625   3.218  1.2506 -2.3074 -0.0983
16251TIP3   OH270243   5.442   4.002  14.951 -0.3992  0.4484  0.3165
16251TIP3    H170244   5.365   4.057  14.955 -0.8285 -0.1524  0.5574
16251TIP3    H270245   5.501   4.045  14.889 -0.3216  1.6622  1.2134
16252TIP3   OH270246   0.892   5.285   3.650  0.0882 -0.4437 -0.1112
16252TIP3    H170247   0.954   5.245   3.589 -0.4367 -0.3105 -0.7414
16252TIP3    H270248   0.925   5.374   3.664 -0.4422 -0.0733 -1.1516
16253TIP3   OH270249   6.532   5.732   5.713 -0.6937 -0.1453  0.1338
16253TIP3    H170250   6.601   5.683   5.757 -0.9290 -0.9167 -0.3468
16253TIP3    H270251   6.485   5.667   5.660  0.1320  0.8824 -1.9602
16254TIP3   OH270252   5.245   0.393   4.591 -0.2073 -0.2710  0.2559
16254TIP3    H170253   5.184   0.415   4.521 -1.8869 -0.6955  1.5203
16254TIP3    H270254   5.191   0.391   4.670  0.8449 -3.5273  1.0527
16255TIP3   OH270255   6.167   5.454  11.719  0.3337  0.1963 -0.0802
16255TIP3    H170256   6.240   5.509  11.749  0.2471 -0.1969  0.8719
16255TIP3    H270257   6.117   5.436  11.798 -2.1124  2.2959 -1.0091
16256TIP3   OH270258   3.680   5.230  14.042  0.2315 -0.3102  0.5793
16256TIP3    H170259   3.706   5.298  13.979 -0.1090  2.4301  3.1695
16256TIP3    H270260   3.731   5.153  14.017  2.6562  1.6575 -1.0004
16257TIP3   OH270261   2.181   1.928   4.027  0.4826  0.0019 -0.2190
16257TIP3    H170262   2.176   1.859   3.961 -0.6090 -0.7726  0.6322
16257TIP3    H270263   2.228   1.887   4.100  1.1972  0.6714 -0.2920
16258TIP3   OH270264   2.111   0.305  12.300  0.0374  0.5227 -0.1456
16258TIP3    H170265   2.101   0.211  12.283  2.0494 -0.0231  1.2864
16258TIP3    H270266   2.024   0.341  12.287 -0.4243 -1.1802 -2.7121
16259TIP3   OH270267   4.286   2.801   3.416 -0.4365  0.5383 -0.2390
16259TIP3    H170268   4.346   2.874   3.435 -1.3563  0.9799  1.2024
16259TIP3    H270269   4.343   2.729   3.390  0.5807  1.4376 -0.6048
16260TIP3   OH270270   4.287   5.543   6.143 -0.4381 -0.7152 -0.1887
16260TIP3    H170271   4.321   5.474   6.200  0.8022 -0.2367 -0.3310
16260TIP3    H270272   4.302   5.511   6.054  2.7805  0.8531 -0.3564
16261TIP3   OH270273   1.459   3.877   2.239  0.5405 -0.6273  0.4545
16261TIP3    H170274   1.508   3.955   2.264  2.2611 -1.7477  0.7124
16261TIP3    H270275   1.445   3.830   2.322 -2.4119  0.3845  0.6641
16262TIP3   OH270276   5.501   2.815   4.074  0.3999  0.1448  0.2261
16262TIP3    H170277   5.506   2.727   4.111 -2.6087  0.3936  1.5760
16262TIP3    H270278   5.587   2.854   4.090  0.6075 -1.2636  3.2027
16263TIP3   OH270279   5.308   4.064   2.307  0.1067  0.4300 -0.6519
16263TIP3    H170280   5.388   4.090   2.354  1.0353 -2.4510 -0.4605
16263TIP3    H270281   5.307   4.119   2.229  1.5442  1.4482  0.0060
16264TIP3   OH270282   2.961   0.180   5.764 -0.5758  0.0509 -0.5570
16264TIP3    H170283   2.915   0.119   5.707  0.6761 -1.3118 -0.1817
16264TIP3    H270284   3.023   0.225   5.706 -0.4313 -0.1633 -0.5711
16265TIP3   OH270285   3.806   4.517  11.580  0.4869 -0.2426  0.0476
16265TIP3    H170286   3.722   4.544  11.545  1.3324  3.3765  0.4339
16265TIP3    H270287   3.798   4.528  11.675  1.4879  0.5645  0.0542
16266TIP3   OH270288   0.358   6.215  16.148  0.1893  0.3637 -0.3049
16266TIP3    H170289   0.383   6.244  16.060  2.3284 -0.0795  0.0909
16266TIP3    H270290   0.395   6.127  16.156  1.8993  1.1630  1.7073
16267TIP3   OH270291   2.995   3.437   3.814  0.3346 -0.3263  0.6040
16267TIP3    H170292   3.086   3.422   3.838  1.4044  1.3555 -1.9264
16267TIP3    H270293   2.979   3.529   3.837  0.4216  0.3875 -1.9232
16268TIP3   OH270294   2.522   5.984   4.898 -0.5489  0.4157 -0.6856
16268TIP3    H170295   2.491   6.040   4.969 -0.2038 -0.2954  0.0375
16268TIP3    H270296   2.471   5.904   4.906  1.4338 -0.8178  0.5896
16269TIP3   OH270297   5.874   0.198  11.014  0.3226 -0.3983  0.1227
16269TIP3    H170298   5.890   0.246  10.933 -1.0105  0.0753  0.1218
16269TIP3    H270299   5.895   0.260  11.083 -1.2587  0.1948  0.1210
16270TIP3   OH270300   6.496   3.220   6.113 -0.2296 -0.3369  0.2235
16270TIP3    H170301   6.500   3.126   6.131 -0.4296 -0.1637  1.2348
16270TIP3    H270302   6.434   3.254   6.178 -0.6941  0.3941 -0.5762
16271TIP3   OH270303   6.502   0.064   3.993  0.0597  0.2413 -0.3045
16271TIP3    H170304   6.500   0.059   4.089 -1.8608  2.1415 -0.1929
16271TIP3    H270305   6.513  -0.027   3.965 -0.0045 -0.4302  1.6886
16272TIP3   OH270306   2.436   3.286  15.962 -0.1321 -0.1419 -0.3565
16272TIP3    H170307   2.455   3.360  16.019 -2.0579 -0.6769  1.0615
16272TIP3    H270308   2.352   3.307  15.921 -1.7075 -2.3057  1.5602
16273TIP3   OH270309   2.560   3.940  14.165 -0.0974  0.2343  0.6080
16273TIP3    H170310   2.588   3.915  14.253 -0.5996 -1.0640  0.4180
16273TIP3    H270311   2.614   4.017  14.144  0.5726  0.0969  1.7400
16274TIP3   OH270312   1.899   4.355   1.356 -0.4765  0.1300 -0.1182
16274TIP3    H170313   1.857   4.383   1.275 -0.4240  1.6528  0.3428
16274TIP3    H270314   1.827   4.322   1.410 -0.6186 -0.1922 -0.4965
16275TIP3   OH270315   1.082   0.409   3.008 -0.4150  0.1265  0.1641
16275TIP3    H170316   1.131   0.328   3.025 -0.3799 -0.0431 -0.7183
16275TIP3    H270317   1.124   0.447   2.931 -0.7994  0.6889  0.2277
16276TIP3   OH270318   1.142   0.718   3.470  0.4191 -0.1718 -0.1860
16276TIP3    H170319   1.104   0.633   3.495 -0.9158  0.3548 -0.3603
16276TIP3    H270320   1.157   0.710   3.376  1.7803 -0.7630  0.0657
16277TIP3   OH270321   4.310   3.884  16.953  0.1334 -0.1286  0.5943
16277TIP3    H170322   4.257   3.810  16.983  0.4891 -0.6964 -0.1457
16277TIP3    H270323   4.250   3.936  16.900 -0.0507 -0.0156  0.9102
16278TIP3   OH270324   3.723   5.966  11.917 -0.1826  0.3410  0.3961
16278TIP3    H170325   3.635   6.002  11.921 -0.4969  0.2096 -2.6575
16278TIP3    H270326   3.718   5.883  11.964 -2.1319 -0.3700 -0.9730
16279TIP3   OH270327   1.932   5.492  16.393  0.1507  0.6090 -0.0888
16279TIP3    H170328   1.965   5.576  16.363 -1.2724  1.2691  0.1478
16279TIP3    H270329   1.903   5.508  16.483  0.6032 -0.3425  0.2492
16280TIP3   OH270330   5.938   3.228  15.183  0.4127  0.2693 -0.2990
16280TIP3    H170331   5.868   3.258  15.125 -1.2200  0.2310  1.5593
16280TIP3    H270332   6.005   3.297  15.178 -1.3479  2.1283  0.5509
16281TIP3   OH270333   5.232   4.922   1.646  0.2547 -0.2791  0.3214
16281TIP3    H170334   5.267   5.004   1.612  1.1211  0.8058  3.5035
16281TIP3    H270335   5.203   4.943   1.734 -1.2522 -3.0131  0.5906
16282TIP3   OH270336   3.610   0.654   0.845 -0.0534  0.1999 -0.2793
16282TIP3    H170337   3.613   0.576   0.900  0.9762  1.0793  0.9821
16282TIP3    H270338   3.665   0.633   0.769  0.6867 -0.1086  0.3345
16283TIP3   OH270339   6.006   0.507  16.859 -0.1120 -0.3035 -0.2871
16283TIP3    H170340   5.955   0.481  16.782  2.7391  0.4345 -2.5996
16283TIP3    H270341   5.970   0.453  16.930 -2.1895 -1.8144 -2.2991
16284TIP3   OH270342   0.740   3.958   2.795 -0.3345  0.2791  0.0888
16284TIP3    H170343   0.730   4.006   2.713 -1.0755 -1.4164 -0.8689
16284TIP3    H270344   0.661   3.979   2.846  0.3531  1.7124  0.6159
16285TIP3   OH270345   0.396   2.406   7.012 -0.0915 -0.2672  1.0512
16285TIP3    H170346   0.446   2.337   6.968 -0.2008  0.2510  0.0922
16285TIP3    H270347   0.451   2.430   7.087  2.6710  2.2894 -1.4860
16286TIP3   OH270348   1.201   2.980  17.101 -0.3994 -0.5840  0.3909
16286TIP3    H170349   1.196   2.890  17.067 -0.7290 -1.3255  2.3011
16286TIP3    H270350   1.273   3.019  17.052  0.7415 -2.3582  0.5518
16287TIP3   OH270351   5.918   3.425   4.625  0.4739 -0.1128  0.5820
16287TIP3    H170352   5.994   3.380   4.659  0.7959  0.7142  0.9903
16287TIP3    H270353   5.953   3.505   4.584 -0.2047  0.5552  1.2694
16288TIP3   OH270354   0.148   1.949  14.803 -0.0415  0.3184  0.4300
16288TIP3    H170355   0.116   2.039  14.797 -1.8988 -0.4043 -2.3907
16288TIP3    H270356   0.213   1.951  14.874 -0.0996  3.8083  0.5364
16289TIP3   OH270357   0.071   4.132   1.706 -0.1845 -0.3791 -0.1028
16289TIP3    H170358   0.123   4.111   1.782  0.2438  1.2384  0.0887
16289TIP3    H270359   0.046   4.047   1.669 -1.0148 -1.2168  2.2187
16290TIP3   OH270360   3.629   2.999   3.935  0.1604  0.9269 -0.3634
16290TIP3    H170361   3.609   2.923   3.990  1.0796  0.1559 -1.0696
16290TIP3    H270362   3.549   3.015   3.886  0.8154 -1.4574 -2.3872
16291TIP3   OH270363   5.422   5.769  17.001  0.7139 -0.2932 -0.1122
16291TIP3    H170364   5.379   5.690  16.966  0.6250 -0.8910  1.2838
16291TIP3    H270365   5.349   5.825  17.028  0.7832  0.1391 -0.8030
16292TIP3   OH270366   0.077   2.108  12.206 -0.1499  0.0395 -0.1099
16292TIP3    H170367   0.113   2.158  12.279 -2.1682  0.0966  0.9177
16292TIP3    H270368   0.140   2.036  12.194  1.6334  1.5220 -0.1591
16293TIP3   OH270369   1.921   5.934   0.291  0.1880 -0.0835 -0.6528
16293TIP3    H170370   1.881   5.927   0.377  0.2289 -1.0684 -0.7023
16293TIP3    H270371   1.876   6.007   0.249  0.0991  0.3366  0.1607
16294TIP3   OH270372   5.844   0.185  15.136  0.3739 -0.5369 -0.0342
16294TIP3    H170373   5.750   0.202  15.142  0.3253 -1.0502  0.8636
16294TIP3    H270374   5.851   0.091  15.122  0.7230 -0.2541 -1.9779
16295TIP3   OH270375   5.203   1.596   3.871  0.0055 -0.2387  0.2727
16295TIP3    H170376   5.183   1.578   3.779 -1.3783 -1.3345  0.7566
16295TIP3    H270377   5.289   1.637   3.869  0.9169 -2.0891 -1.3524
16296TIP3   OH270378   2.087   1.440   0.340 -0.0468  0.4578 -0.0333
16296TIP3    H170379   2.136   1.516   0.370 -0.2551  0.6679 -0.2170
16296TIP3    H270380   2.021   1.476   0.280 -0.6251  0.2198  0.4437
16297TIP3   OH270381   2.417   3.142  13.357 -0.3784 -0.7028  0.0453
16297TIP3    H170382   2.471   3.220  13.361 -0.3722 -0.7495  1.2189
16297TIP3    H270383   2.454   3.083  13.423 -0.9236 -1.3465 -0.2042
16298TIP3   OH270384   0.567   5.677   3.945 -0.6657 -0.3444  0.4386
16298TIP3    H170385   0.546   5.658   4.037 -0.4439  0.0817  0.5778
16298TIP3    H270386   0.493   5.641   3.896 -1.0620 -0.0774  0.8275
16299TIP3   OH270387   3.541   1.309  15.121 -0.5763 -0.0816 -0.3675
16299TIP3    H170388   3.590   1.383  15.085  1.0306 -0.3320  1.1773
16299TIP3    H270389   3.483   1.283  15.050  0.8101  0.8831 -1.9457
16300TIP3   OH270390   0.924   2.810   3.441 -0.4023  0.1893 -0.3591
16300TIP3    H170391   0.953   2.895   3.476 -0.2014  0.4497 -1.1361
16300TIP3    H270392   0.838   2.828   3.404 -0.1063  0.2104 -1.0674
16301TIP3   OH270393   6.756   3.618  14.814  0.3992 -0.0421  0.8585
16301TIP3    H170394   6.756   3.684  14.745 -0.4817 -0.9180 -0.0130
16301TIP3    H270395   6.814   3.549  14.782 -1.5846 -1.3941 -0.0025
16302TIP3   OH270396   0.726   2.540  16.567  0.2149 -0.1995  0.5642
16302TIP3    H170397   0.666   2.479  16.610 -2.2232  2.0230  0.5712
16302TIP3    H270398   0.745   2.500  16.482  0.2840 -1.8535  1.3394
16303TIP3   OH270399   6.663   4.060   3.085 -0.1117 -0.5670  0.0585
16303TIP3    H170400   6.600   4.091   3.150  1.1111 -2.1975  2.1633
16303TIP3    H270401   6.648   4.115   3.008 -2.9978  0.1202  0.9914
16304TIP3   OH270402   6.265   6.139   5.324 -0.0957  0.4541 -0.3725
16304TIP3    H170403   6.298   6.114   5.238  0.2334  0.0869 -0.1414
16304TIP3    H270404   6.331   6.200   5.358  0.8010 -0.8936  0.4265
16305TIP3   OH270405   6.277   3.080   5.086  0.2464 -0.2856  0.2806
16305TIP3    H170406   6.183   3.073   5.105  0.0742 -1.0681 -0.8108
16305TIP3    H270407   6.295   3.174   5.092 -1.0070  0.0902 -1.2735
16306TIP3   OH270408   3.016   0.052   4.396 -0.6218  0.2232 -0.4407
16306TIP3    H170409   3.064   0.067   4.478 -0.5523  1.2244 -0.6538
16306TIP3    H270410   2.966   0.132   4.383  0.0120  0.4275 -1.8098
16307TIP3   OH270411   5.628   4.415  16.350 -0.3284  0.2299  0.2421
16307TIP3    H170412   5.707   4.361  16.337 -0.3393  0.3277 -0.2514
16307TIP3    H270413   5.662   4.497  16.386 -0.4066 -0.4610  2.0115
16308TIP3   OH270414   0.627   5.576   1.030 -0.1157  0.0169 -0.5114
16308TIP3    H170415   0.640   5.482   1.013  0.5183  0.2990 -1.6697
16308TIP3    H270416   0.672   5.591   1.113  0.9098 -0.4549 -0.9632
16309TIP3   OH270417   4.757   5.273   1.525  0.0957  0.4059  0.1684
16309TIP3    H170418   4.797   5.301   1.607 -0.4165  0.3954  0.4280
16309TIP3    H270419   4.709   5.350   1.494 -0.2736  0.2088  0.2343
16310TIP3   OH270420   0.289   2.961   3.690  0.0369 -0.2996 -0.1205
16310TIP3    H170421   0.305   2.879   3.736 -2.5516  0.0676  1.6024
16310TIP3    H270422   0.300   2.939   3.598 -1.0985 -2.7187  0.2515
16311TIP3   OH270423   6.368   2.536   1.016  0.5207  0.2346 -0.2153
16311TIP3    H170424   6.273   2.545   1.011  0.2661 -1.4591  0.8045
16311TIP3    H270425   6.388   2.458   0.965  1.4247  0.7542 -0.6919
16312TIP3   OH270426   5.972   6.751   6.562  0.5558  0.0863  0.4838
16312TIP3    H170427   5.927   6.803   6.628 -0.9646  0.8079 -1.0346
16312TIP3    H270428   6.035   6.811   6.522  2.0003 -0.5511  1.7045
16313TIP3   OH270429   4.646   5.507  12.303  0.1779 -0.1656  0.4265
16313TIP3    H170430   4.727   5.457  12.310  0.8199  0.9574  1.2930
16313TIP3    H270431   4.671   5.587  12.257 -0.3301  0.4234  1.1713
16314TIP3   OH270432   6.230   0.365  13.354  0.8598 -0.0487 -0.4508
16314TIP3    H170433   6.272   0.395  13.273  0.5294 -1.0958 -1.0325
16314TIP3    H270434   6.292   0.303  13.393 -0.0627 -1.5932 -1.3077
16315TIP3   OH270435   3.314   3.785  14.616 -0.7364  0.1399 -0.1531
16315TIP3    H170436   3.347   3.701  14.647 -2.5823 -0.6711 -0.2495
16315TIP3    H270437   3.316   3.842  14.694  2.7464  0.8379 -0.5913
16316TIP3   OH270438   2.325   2.149  15.316 -0.3845  0.3275  0.3798
16316TIP3    H170439   2.384   2.217  15.350 -0.9253  0.3385  1.3113
16316TIP3    H270440   2.249   2.152  15.373 -1.1450  0.0609 -0.5954
16317TIP3   OH270441   4.225   1.001   4.619 -0.0572 -0.0842  0.1720
16317TIP3    H170442   4.235   1.054   4.540 -1.4191 -0.6989 -0.4359
16317TIP3    H270443   4.315   0.980   4.645  0.6018  3.2245  0.9517
16318TIP3   OH270444   5.415   3.382   4.505 -0.0535 -0.3194  0.2500
16318TIP3    H170445   5.384   3.472   4.516 -1.9307 -0.7896 -0.8022
16318TIP3    H270446   5.349   3.340   4.450  1.5857 -1.9307 -0.6028
16319TIP3   OH270447   3.569   0.858  13.283 -0.2913  0.1874 -0.5322
16319TIP3    H170448   3.523   0.852  13.199  0.8927  0.9221 -1.2543
16319TIP3    H270449   3.635   0.788  13.279  1.2929  1.6624 -1.2112
16320TIP3   OH270450   3.134   5.696  11.507  0.3368 -0.3551 -0.4115
16320TIP3    H170451   3.224   5.665  11.514  0.1927 -0.5754  0.5260
16320TIP3    H270452   3.100   5.655  11.427  0.9034 -0.6783 -0.4870
16321TIP3   OH270453   3.861   3.294   0.497 -0.2939 -0.0495 -0.2228
16321TIP3    H170454   3.885   3.386   0.485  0.0915 -0.0550  0.4258
16321TIP3    H270455   3.887   3.252   0.415 -0.5894  0.4407 -0.5735
16322TIP3   OH270456   6.043   4.518  15.729  0.3387  0.2289 -0.2536
16322TIP3    H170457   6.044   4.427  15.698  1.0008  0.3555 -0.6252
16322TIP3    H270458   6.121   4.558  15.689  0.0977  0.9394 -0.0322
16323TIP3   OH270459   5.246   5.387  17.080  0.7461 -0.5283  0.0021
16323TIP3    H170460   5.230   5.322  17.011  0.3225  0.4249 -0.8216
16323TIP3    H270461   5.232   5.471  17.037 -0.6809  0.0735  1.5314
16324TIP3   OH270462   3.047   2.466  13.232 -0.1715  0.3958 -0.0778
16324TIP3    H170463   3.126   2.420  13.205  0.0842 -0.2045  1.6009
16324TIP3    H270464   3.001   2.485  13.150  1.2952  0.0238 -1.0159
16325TIP3   OH270465   4.839   4.590   5.590 -0.2481  0.3128 -0.2140
16325TIP3    H170466   4.759   4.539   5.594 -1.5867  2.3454  0.7311
16325TIP3    H270467   4.847   4.615   5.498 -1.1146  0.6806 -0.1995
16326TIP3   OH270468   1.119   6.128  16.664  0.1147 -0.1404  0.1554
16326TIP3    H170469   1.061   6.127  16.740  0.2221 -1.2393  0.2355
16326TIP3    H270470   1.174   6.050  16.675  1.0259  0.4170 -0.3597
16327TIP3   OH270471   5.063   4.266  15.438 -0.6042 -0.0989  0.2205
16327TIP3    H170472   5.152   4.296  15.418 -0.3171 -1.3532 -0.4690
16327TIP3    H270473   5.007   4.337  15.406  0.1490  1.0798  1.3942
16328TIP3   OH270474   3.023   4.558   1.485 -0.0337  0.2087 -0.1630
16328TIP3    H170475   2.990   4.647   1.497  0.4345  0.3251  0.2969
16328TIP3    H270476   3.118   4.565   1.496 -0.1508 -0.6693  2.0655
16329TIP3   OH270477   4.486   3.140  13.791  0.9248  0.0312 -0.6280
16329TIP3    H170478   4.577   3.112  13.790  1.2327  0.6735  2.3677
16329TIP3    H270479   4.490   3.235  13.781  0.4568 -0.0383 -1.6709
16330TIP3   OH270480   4.739   5.440  17.439  0.0381  0.4514  0.2043
16330TIP3    H170481   4.674   5.417  17.506 -0.5003  0.9957 -0.1286
16330TIP3    H270482   4.767   5.529  17.461 -0.5122  0.8268 -0.5802
16331TIP3   OH270483   2.712   2.323  16.568  0.0525  0.3808  0.6903
16331TIP3    H170484   2.714   2.227  16.566  0.4506  0.3624  1.5410
16331TIP3    H270485   2.799   2.349  16.538 -0.9635  0.5802 -2.4661
16332TIP3   OH270486   6.708   2.224   0.649 -0.0899 -0.5165 -0.4001
16332TIP3    H170487   6.746   2.228   0.737  1.9224 -1.8273 -1.1481
16332TIP3    H270488   6.637   2.160   0.656 -0.4834 -0.0073  0.4316
16333TIP3   OH270489   2.624   5.086   5.117  0.3840 -0.4285  0.1843
16333TIP3    H170490   2.577   5.097   5.199  1.1729  1.2522  0.4482
16333TIP3    H270491   2.610   5.168   5.069  0.4272 -1.1489 -1.1086
16334TIP3   OH270492   1.824   1.916  13.696 -0.5862  0.5070 -0.0574
16334TIP3    H170493   1.879   1.928  13.774  1.5517 -1.1475 -1.2157
16334TIP3    H270494   1.735   1.907  13.731  0.1614  0.9527  2.0984
16335TIP3   OH270495   3.537   6.536   1.360  0.3618 -0.3640 -0.5540
16335TIP3    H170496   3.551   6.449   1.397  1.6918  0.0317 -0.0581
16335TIP3    H270497   3.556   6.525   1.267 -0.4503 -0.8039 -0.6785
16336TIP3   OH270498   1.767   5.671   5.518  0.0300 -0.0298 -0.2931
16336TIP3    H170499   1.772   5.723   5.438 -0.1890  0.6483  0.1210
16336TIP3    H270500   1.834   5.708   5.575 -1.1955  0.9014  0.6110
16337TIP3   OH270501   4.505   1.185  17.118  0.2146 -0.0244 -0.3158
16337TIP3    H170502   4.559   1.162  17.042 -1.2852 -1.5832 -0.9792
16337TIP3    H270503   4.567   1.192  17.190  1.3540 -1.5037 -1.0869
16338TIP3   OH270504   4.528   1.121   0.071 -0.0215  0.6951  0.8836
16338TIP3    H170505   4.525   1.176  -0.007 -0.7782  0.3675  0.6742
16338TIP3    H270506   4.502   1.034   0.040  0.6135  0.3456  1.3168
16339TIP3   OH270507   3.652   1.276   3.425  0.3627 -0.3934 -0.2725
16339TIP3    H170508   3.710   1.232   3.487 -1.8175 -0.3983  1.9262
16339TIP3    H270509   3.698   1.357   3.401  0.9019  0.1068  2.1915
16340TIP3   OH270510   0.094   2.794  15.027  1.0350 -0.0509 -0.7999
16340TIP3    H170511   0.165   2.855  15.049  0.8566  1.1185 -3.1191
16340TIP3    H270512   0.096   2.790  14.931 -0.9125 -1.3879 -0.8316
16341TIP3   OH270513   6.476   6.654  10.761  0.0730 -0.3145 -0.5045
16341TIP3    H170514   6.438   6.741  10.771 -0.6994 -0.6613 -0.3552
16341TIP3    H270515   6.506   6.651  10.670 -1.1376 -0.3679 -0.9074
16342TIP3   OH270516   6.068   1.416  14.582 -0.1141 -0.5171 -0.4578
16342TIP3    H170517   6.075   1.407  14.678 -1.9629 -0.3240 -0.2618
16342TIP3    H270518   6.099   1.504  14.563 -0.3535 -0.3140  0.0667
16343TIP3   OH270519   4.462   4.903  11.445 -0.2632  0.1392  0.1618
16343TIP3    H170520   4.511   4.865  11.372 -0.6671  0.3443 -0.2266
16343TIP3    H270521   4.370   4.892  11.420 -0.4401 -0.9005  1.2178
16344TIP3   OH270522   4.660   5.277   5.485 -0.2952  0.2823  0.0167
16344TIP3    H170523   4.725   5.308   5.422  0.0384  0.6427  0.5200
16344TIP3    H270524   4.649   5.184   5.466  1.3309 -0.0972  0.7231
16345TIP3   OH270525   4.763   4.843  12.588 -0.2679 -0.1931 -0.1096
16345TIP3    H170526   4.847   4.882  12.565 -0.0876 -0.4917  0.0394
16345TIP3    H270527   4.743   4.783  12.515  0.0666 -0.7705  0.2672
16346TIP3   OH270528   3.130   4.610  14.686  0.4840  0.1499 -1.0071
16346TIP3    H170529   3.082   4.664  14.749  0.9077 -0.6153 -0.0095
16346TIP3    H270530   3.066   4.593  14.616  0.1114  1.2861 -0.9663
16347TIP3   OH270531   3.388   2.265  11.367  0.1919 -0.0690  0.1130
16347TIP3    H170532   3.345   2.308  11.294  0.4315  0.8379  0.4890
16347TIP3    H270533   3.344   2.300  11.445  0.0125 -0.9378  0.4063
16348TIP3   OH270534   2.265   0.493   4.682 -0.1146 -0.2269  0.1542
16348TIP3    H170535   2.283   0.542   4.602  2.4111  0.4277  1.0288
16348TIP3    H270536   2.351   0.481   4.723 -1.2500 -1.0341  2.4981
16349TIP3   OH270537   0.135   5.249  15.107  0.2357 -0.3062 -0.3814
16349TIP3    H170538   0.186   5.228  15.185  0.3666  1.5384  0.0886
16349TIP3    H270539   0.176   5.328  15.072 -1.4497  0.4565 -0.7617
16350TIP3   OH270540   1.144   0.880   2.690  0.0639 -0.8833 -0.3345
16350TIP3    H170541   1.197   0.935   2.632 -0.7532  0.8584  0.4872
16350TIP3    H270542   1.128   0.800   2.640 -1.9976  1.1649 -3.2711
16351TIP3   OH270543   3.182   1.308   1.228 -0.5652  0.2157 -0.1095
16351TIP3    H170544   3.138   1.224   1.220 -0.6286  0.3881 -1.9014
16351TIP3    H270545   3.270   1.287   1.259 -0.9414 -0.3944  0.5603
16352TIP3   OH270546   0.108   0.393  17.227  0.2620 -0.2947 -0.3119
16352TIP3    H170547   0.055   0.361  17.154 -1.3314  0.5648  0.4241
16352TIP3    H270548   0.176   0.446  17.185  1.3079 -2.2995 -1.3459
16353TIP3   OH270549   2.289   5.708   1.845 -0.5261  0.9612  0.1628
16353TIP3    H170550   2.254   5.668   1.925 -0.1687 -1.3503 -0.7638
16353TIP3    H270551   2.213   5.714   1.787 -0.2161 -0.4433 -0.4484
16354TIP3   OH270552   3.153   1.271  16.462 -0.1824 -0.4590 -0.0908
16354TIP3    H170553   3.137   1.361  16.434  0.0347 -0.3744  0.0524
16354TIP3    H270554   3.225   1.241  16.408  0.9704  0.0701  1.0981
16355TIP3   OH270555   4.097   1.636   0.040  0.3631  0.4241 -0.0675
16355TIP3    H170556   4.074   1.727   0.060  0.5953  0.6830 -0.9281
16355TIP3    H270557   4.104   1.594   0.125  2.6786  1.8087  0.5433
16356TIP3   OH270558   2.386   1.118   5.589 -0.0877 -0.8454  0.0260
16356TIP3    H170559   2.341   1.197   5.557  1.1346 -0.2842 -0.3824
16356TIP3    H270560   2.382   1.057   5.515  1.4267 -0.0982 -0.7214
16357TIP3   OH270561   5.838   3.634   3.447 -0.1728  0.2016  0.1133
16357TIP3    H170562   5.783   3.556   3.451  1.5512 -1.0847  0.1047
16357TIP3    H270563   5.849   3.660   3.538 -0.9192  0.5780  0.1028
16358TIP3   OH270564   6.567   2.716   6.005  0.7571 -0.4869  0.5702
16358TIP3    H170565   6.654   2.705   6.044  0.2509 -1.3417  1.5012
16358TIP3    H270566   6.506   2.687   6.074 -0.2115 -1.0073 -0.4753
16359TIP3   OH270567   6.558   4.903  17.143  0.2424  0.1444  0.0020
16359TIP3    H170568   6.575   4.950  17.061  2.1118  0.1446  0.3491
16359TIP3    H270569   6.640   4.910  17.193 -0.8589  0.2013  1.9109
16360TIP3   OH270570   0.761   2.694   4.967  0.5862  0.2905  0.4765
16360TIP3    H170571   0.841   2.705   4.915  0.3891  0.9924  0.3046
16360TIP3    H270572   0.733   2.604   4.950 -0.9825  1.2435 -2.8231
16361TIP3   OH270573   1.995   0.000   2.665 -0.3605  0.3851  0.1874
16361TIP3    H170574   1.984   0.041   2.579 -2.7651 -1.6848 -0.6247
16361TIP3    H270575   1.923   0.035   2.717  0.2437  0.5535  0.9148
16362TIP3   OH270576   3.857   3.716   3.697  0.2690  0.2272  0.1012
16362TIP3    H170577   3.901   3.704   3.781 -0.0309 -0.0540  0.2193
16362TIP3    H270578   3.926   3.706   3.632  0.5201  0.5429  0.3187
16363TIP3   OH270579   5.177   2.176  11.063 -0.1399  0.0974 -0.2036
16363TIP3    H170580   5.224   2.095  11.047 -0.3611  0.4096 -2.9117
16363TIP3    H270581   5.215   2.239  11.001 -0.8807  1.6891  0.8810
16364TIP3   OH270582   1.471   6.507   2.375 -0.0595 -0.1504 -0.0400
16364TIP3    H170583   1.452   6.421   2.413 -2.4411  0.4253  0.2507
16364TIP3    H270584   1.495   6.489   2.285 -3.1953 -1.0637 -0.8192
16365TIP3   OH270585   6.303   3.612   4.119 -0.5070 -0.2846  0.0394
16365TIP3    H170586   6.236   3.674   4.147 -0.0771  0.2904 -0.1884
16365TIP3    H270587   6.295   3.608   4.024  0.1203  0.1885 -0.0398
16366TIP3   OH270588   2.221   4.537   4.039  0.4303 -0.4433 -0.5295
16366TIP3    H170589   2.229   4.450   4.079  1.7413  0.2389  0.8017
16366TIP3    H270590   2.295   4.543   3.979 -0.2776 -0.6208 -1.4523
16367TIP3   OH270591   6.762   2.639   2.398 -0.6844 -0.0290  0.2480
16367TIP3    H170592   6.765   2.675   2.309 -0.5451  0.0781  0.2962
16367TIP3    H270593   6.840   2.673   2.441  0.3761 -1.7161 -0.2158
16368TIP3   OH270594   4.330   4.531  16.357  0.3853  0.2160  0.0441
16368TIP3    H170595   4.273   4.464  16.394 -0.0126 -1.0143 -2.5547
16368TIP3    H270596   4.273   4.582  16.298  1.1329  1.5805  0.4468
16369TIP3   OH270597   5.894   6.142   2.292  0.3259 -0.5641 -0.4406
16369TIP3    H170598   5.865   6.119   2.380  0.4303 -0.6930 -0.4390
16369TIP3    H270599   5.821   6.191   2.254  1.2182  1.6645  0.5752
16370TIP3   OH270600   3.364   4.859  16.627 -0.4021  0.1234 -0.0943
16370TIP3    H170601   3.391   4.779  16.582 -0.0683  0.2958 -0.2017
16370TIP3    H270602   3.383   4.842  16.720  1.2758  0.7147 -0.3038
16371TIP3   OH270603   3.476   4.988   4.879  0.1726  0.0946 -0.7845
16371TIP3    H170604   3.484   5.084   4.881  3.3460 -0.0656 -0.8812
16371TIP3    H270605   3.526   4.962   4.802  1.3251 -1.7533  0.5238
16372TIP3   OH270606   2.877   5.058   2.227 -0.2415  0.0543 -0.3275
16372TIP3    H170607   2.831   5.116   2.289  0.5400 -1.0398  1.3507
16372TIP3    H270608   2.812   5.041   2.158 -1.3241  0.9262  0.4299
16373TIP3   OH270609   1.387   4.088   2.602  0.2437 -0.1063 -0.3947
16373TIP3    H170610   1.358   4.046   2.521  2.6127  0.7056 -1.7570
16373TIP3    H270611   1.459   4.033   2.633  1.1607  1.0683 -0.3711
16374TIP3   OH270612   6.748   0.795  11.482  0.5970  0.3436  0.1737
16374TIP3    H170613   6.728   0.737  11.555  1.8658  1.3608  1.3559
16374TIP3    H270614   6.694   0.761  11.410  1.0934 -2.1275  0.8724
16375TIP3   OH270615   6.758   0.448   6.131  0.0317  0.0361  0.0534
16375TIP3    H170616   6.816   0.524   6.129  0.4281 -0.1097  2.6095
16375TIP3    H270617   6.817   0.373   6.123 -0.1630 -0.0548 -0.5719
16376TIP3   OH270618   3.248   3.259  16.170  0.9541 -0.0883  0.1553
16376TIP3    H170619   3.307   3.213  16.231  2.1698 -3.7133 -3.2649
16376TIP3    H270620   3.306   3.318  16.122  0.2432  1.8184  1.5510
16377TIP3   OH270621   3.196   4.619  15.011 -0.0541  0.4554  0.2653
16377TIP3    H170622   3.220   4.555  15.077  0.2185  1.5508  1.2674
16377TIP3    H270623   3.280   4.657  14.984 -0.2749  0.9898  0.3214
16378TIP3   OH270624   3.297   6.598   1.490  0.0399 -0.3387  0.1481
16378TIP3    H170625   3.383   6.570   1.457  0.9433  0.9735  1.2671
16378TIP3    H270626   3.288   6.688   1.458 -1.6284 -0.9330 -1.2053
16379TIP3   OH270627   1.348   6.041  10.873  0.6962 -0.1350 -0.0820
16379TIP3    H170628   1.319   5.954  10.843  1.2540  0.5245 -2.8822
16379TIP3    H270629   1.435   6.051  10.835  0.1940  2.0476 -0.8177
16380TIP3   OH270630   3.608   6.095  13.198 -1.1648 -0.0100 -0.5267
16380TIP3    H170631   3.685   6.140  13.232 -0.6383 -0.9947 -0.3891
16380TIP3    H270632   3.622   6.003  13.219 -2.6158 -0.1493 -0.0640
16381TIP3   OH270633   4.066   3.396  11.012 -0.1664  0.0507 -0.3467
16381TIP3    H170634   4.057   3.388  10.917  1.5165  1.0487 -0.6221
16381TIP3    H270635   4.105   3.483  11.025 -0.4298 -0.0460  1.2694
16382TIP3   OH270636   6.339   0.202   2.590  0.1865  0.7255  0.6689
16382TIP3    H170637   6.263   0.255   2.564 -0.5322 -0.4246  0.3302
16382TIP3    H270638   6.397   0.264   2.634 -0.7200  1.7452  0.4918
16383TIP3   OH270639   0.552   4.604  17.379  0.2304 -0.0243 -0.1737
16383TIP3    H170640   0.592   4.663  17.443  1.7895 -0.4468 -0.7158
16383TIP3    H270641   0.461   4.632  17.375  0.4515  0.9946  1.1071
16384TIP3   OH270642   0.823   3.867  15.291 -0.4216 -0.0880 -0.3843
16384TIP3    H170643   0.819   3.863  15.196  0.2219  2.5639 -0.6057
16384TIP3    H270644   0.740   3.905  15.318 -0.4086 -0.3813  0.0966
16385TIP3   OH270645   5.343   4.709   1.082 -0.2170 -0.4784 -0.3010
16385TIP3    H170646   5.330   4.804   1.075 -2.6355 -0.8340 -1.6646
16385TIP3    H270647   5.318   4.674   0.997 -0.6329 -2.4541  0.5654
16386TIP3   OH270648   4.597   0.612   2.350  0.6308  0.1302  0.8558
16386TIP3    H170649   4.606   0.706   2.363 -0.0387  0.0439  2.1177
16386TIP3    H270650   4.520   0.602   2.295  0.5124  0.3187  0.9848
16387TIP3   OH270651   5.927   4.219   4.928  0.0282 -0.2647  0.7993
16387TIP3    H170652   5.949   4.154   4.860 -0.6656  0.4340 -0.1287
16387TIP3    H270653   5.845   4.258   4.897  1.1233  2.0605  0.5702
16388TIP3   OH270654   5.260   6.746   5.669 -0.2993 -0.2309 -0.0324
16388TIP3    H170655   5.216   6.784   5.592  0.2810  0.4693 -0.0192
16388TIP3    H270656   5.318   6.679   5.633 -2.2006 -2.0182  0.0276
16389TIP3   OH270657   3.175   2.159   2.844  0.1730  0.0141 -0.6777
16389TIP3    H170658   3.086   2.141   2.814 -0.2638  3.1388 -1.5387
16389TIP3    H270659   3.165   2.181   2.937  0.3107 -1.1466 -0.3706
16390TIP3   OH270660   5.961   5.625  12.675  0.8290  0.2335  0.0446
16390TIP3    H170661   5.920   5.705  12.708 -0.5889 -0.2495 -0.4937
16390TIP3    H270662   5.980   5.644  12.583  0.8114  0.0710  0.0076
16391TIP3   OH270663   0.292   6.171   1.957  0.1758  0.2048 -0.3532
16391TIP3    H170664   0.357   6.102   1.947  0.0946  0.1643 -0.6052
16391TIP3    H270665   0.344   6.252   1.955  0.2219  0.1718 -0.5225
16392TIP3   OH270666   3.288   1.531   3.675  0.3073 -0.2163 -0.1485
16392TIP3    H170667   3.254   1.621   3.672 -0.4486 -0.3408  2.1085
16392TIP3    H270668   3.211   1.476   3.663  0.2395 -0.5092  1.3758
16393TIP3   OH270669   4.609   3.795   3.178  0.3343 -1.0511 -0.1092
16393TIP3    H170670   4.521   3.813   3.212 -0.4384 -1.8454 -1.6131
16393TIP3    H270671   4.667   3.841   3.239 -1.2148  1.6509 -0.5154
16394TIP3   OH270672   5.318   3.811   6.215  0.1225 -0.6114 -0.1913
16394TIP3    H170673   5.287   3.841   6.301  2.4060  1.7682 -0.0681
16394TIP3    H270674   5.240   3.810   6.160 -1.1413 -0.7424  1.5217
16395TIP3   OH270675   3.532   3.043  17.175 -0.0046 -0.0067  0.8791
16395TIP3    H170676   3.621   3.011  17.160 -0.6324 -1.1498 -0.6283
16395TIP3    H270677   3.484   3.018  17.096 -1.6780  0.5677  1.6783
16396TIP3   OH270678   1.135   3.949   1.267  0.3206 -0.5827  0.4457
16396TIP3    H170679   1.222   3.916   1.243  1.0733  1.4007  0.2078
16396TIP3    H270680   1.074   3.889   1.226  1.5903 -1.5520 -0.0950
16397TIP3   OH270681   2.224   5.201  16.111  0.5064  0.0577 -0.7008
16397TIP3    H170682   2.249   5.132  16.172 -2.6191 -0.3166  0.3209
16397TIP3    H270683   2.254   5.282  16.152  3.1181 -0.4994 -1.3298
16398TIP3   OH270684   4.518   1.274  15.965 -0.1743 -0.9373 -0.1091
16398TIP3    H170685   4.576   1.199  15.950  0.2094 -0.1454 -3.1286
16398TIP3    H270686   4.530   1.330  15.888 -0.9998  1.9034  1.6699
16399TIP3   OH270687   0.562   5.771  11.956  0.4991 -0.2664  0.1540
16399TIP3    H170688   0.572   5.856  11.999  2.7328 -0.4368  0.0795
16399TIP3    H270689   0.624   5.773  11.883  0.7040 -2.0074  0.2282
16400TIP3   OH270690   1.622   5.502   2.106 -0.4989 -0.2277  0.5122
16400TIP3    H170691   1.574   5.541   2.033  0.3313  1.4148  0.7818
16400TIP3    H270692   1.667   5.427   2.068 -1.0779 -0.1562 -0.3576
16401TIP3   OH270693   2.964   0.903   6.125 -0.1267 -0.2716 -0.2688
16401TIP3    H170694   2.997   0.952   6.200  1.4497 -0.3233 -0.8885
16401TIP3    H270695   2.933   0.820   6.162 -1.0122  0.4051  0.5361
16402TIP3   OH270696   2.028   2.904   5.085 -0.2995 -0.3919  0.1757
16402TIP3    H170697   1.993   2.965   5.021  0.8763 -0.8998 -0.9877
16402TIP3    H270698   1.959   2.897   5.152 -1.5198  0.1972 -0.9809
16403TIP3   OH270699   4.684   0.121   3.486  0.2318  0.0024 -0.1167
16403TIP3    H170700   4.634   0.182   3.432  0.9430  0.3195 -0.4254
16403TIP3    H270701   4.683   0.161   3.573  1.1765  0.7721 -0.4371
16404TIP3   OH270702   0.245   0.208   3.958 -0.1903 -0.2175  0.6093
16404TIP3    H170703   0.208   0.210   4.047 -0.6430 -1.1556  0.4550
16404TIP3    H270704   0.211   0.287   3.916 -0.9947 -0.4126  0.8797
16405TIP3   OH270705   0.031   0.228  14.309 -0.2192 -0.2647  0.2408
16405TIP3    H170706   0.120   0.193  14.312 -0.2622 -0.3790  0.1686
16405TIP3    H270707  -0.010   0.195  14.389  0.0704  0.5012  0.7152
16406TIP3   OH270708   4.404   0.302  12.057 -0.1879 -0.3650  0.3718
16406TIP3    H170709   4.332   0.296  12.119 -0.9899  0.6640 -0.4159
16406TIP3    H270710   4.457   0.376  12.088  1.1783 -1.7727  1.5562
16407TIP3   OH270711   6.433   5.062   1.711  0.2801 -0.7278  0.2308
16407TIP3    H170712   6.476   4.991   1.664  0.3864 -1.6414  1.6346
16407TIP3    H270713   6.450   5.140   1.659  1.0476 -1.5676 -0.8056
16408TIP3   OH270714   6.423   6.123  13.523  0.5971  0.1432  0.1294
16408TIP3    H170715   6.505   6.085  13.557 -0.1758 -1.5025  0.2825
16408TIP3    H270716   6.405   6.197  13.580  0.3001 -1.4565  2.2640
16409TIP3   OH270717   1.366   3.951   5.323  0.2474  0.1316  0.0436
16409TIP3    H170718   1.371   3.983   5.233  0.4806  0.5634  0.2110
16409TIP3    H270719   1.444   3.986   5.365 -0.5045  0.9944  0.7545
16410TIP3   OH270720   4.078   0.539  15.321  0.0899  0.5960 -0.4931
16410TIP3    H170721   4.150   0.565  15.378  0.4712  0.7179 -1.0157
16410TIP3    H270722   4.059   0.617  15.270  1.0277 -0.0243 -1.8556
16411TIP3   OH270723   1.099   2.732   5.666  0.1456  0.3323  0.0384
16411TIP3    H170724   1.136   2.808   5.621  0.6952 -0.1472 -0.3334
16411TIP3    H270725   1.005   2.749   5.667  0.0654  0.2260 -1.6182
16412TIP3   OH270726   1.365   1.160   1.847 -0.1063 -0.1249  0.0309
16412TIP3    H170727   1.385   1.099   1.776  1.8056  1.1988 -0.6506
16412TIP3    H270728   1.282   1.128   1.883  0.3144 -2.5122 -0.9132
16413TIP3   OH270729   5.069   1.773  15.224 -0.2358 -0.3299 -0.1829
16413TIP3    H170730   5.023   1.826  15.160  0.4837  0.2182 -0.2598
16413TIP3    H270731   5.149   1.822  15.243  0.3973 -1.3393 -0.1801
16414TIP3   OH270732   5.174   2.361   0.684  0.9846  0.3359  0.0336
16414TIP3    H170733   5.219   2.277   0.689  0.0238 -0.4173 -2.5772
16414TIP3    H270734   5.081   2.340   0.699  0.7844  1.0081 -0.2205
16415TIP3   OH270735   4.465   5.866  14.259  0.2778 -0.3060  0.1986
16415TIP3    H170736   4.470   5.801  14.329  3.7703 -3.1116 -2.3104
16415TIP3    H270737   4.386   5.842  14.209  0.3839 -1.2758  0.4924
16416TIP3   OH270738   4.640   3.553   0.924 -0.0596 -0.0506  0.1045
16416TIP3    H170739   4.577   3.553   0.995 -0.1989 -0.3276 -0.0182
16416TIP3    H270740   4.672   3.643   0.920 -0.1830  0.0064  0.3993
16417TIP3   OH270741   3.475   0.880  17.170 -0.6307  0.1432  0.0406
16417TIP3    H170742   3.395   0.832  17.189 -1.5008  1.6280  0.3376
16417TIP3    H270743   3.465   0.911  17.080 -1.5924  2.4377  0.8645
16418TIP3   OH270744   5.946   4.497   4.999 -0.0009 -0.4609 -0.4784
16418TIP3    H170745   5.858   4.516   5.031  0.1773 -0.1217 -0.1738
16418TIP3    H270746   5.954   4.402   5.002 -0.8630 -0.6144 -1.8710
16419TIP3   OH270747   0.514   1.051   0.810 -0.5723  0.4571 -0.0248
16419TIP3    H170748   0.567   1.043   0.889 -1.3167  0.9993  0.5525
16419TIP3    H270749   0.558   0.996   0.745 -0.7627 -1.2571  1.2019
16420TIP3   OH270750   4.443   6.113   0.552  0.8730  0.1293  0.6245
16420TIP3    H170751   4.454   6.018   0.549 -1.1062 -0.1638  1.5485
16420TIP3    H270752   4.462   6.142   0.463  0.6516 -1.2420  0.1086
16421TIP3   OH270753   5.635   1.596  15.338  0.4015  0.3861 -0.9530
16421TIP3    H170754   5.682   1.517  15.310 -0.5178  0.1682 -1.9846
16421TIP3    H270755   5.562   1.602  15.276 -0.6542  0.9582  0.3187
16422TIP3   OH270756   0.251   6.412  13.609 -0.2281  0.6234 -0.1422
16422TIP3    H170757   0.322   6.355  13.637  0.4969  1.4509 -0.2564
16422TIP3    H270758   0.292   6.474  13.549 -0.9674  1.3135  0.0463
16423TIP3   OH270759   5.093   5.232   2.746 -0.6483 -0.2222  0.5190
16423TIP3    H170760   5.104   5.152   2.798  0.6864 -1.1573 -1.0920
16423TIP3    H270761   4.998   5.241   2.737 -0.8607 -0.9690  1.6743
16424TIP3   OH270762   5.424   5.283  15.548  0.3224 -0.2292  0.3838
16424TIP3    H170763   5.468   5.361  15.582  1.8305 -0.2740 -1.2825
16424TIP3    H270764   5.452   5.278  15.457 -3.0388 -0.4194 -0.7875
16425TIP3   OH270765   4.860   3.831  12.271  0.2442 -0.2066 -0.2539
16425TIP3    H170766   4.863   3.908  12.215  0.6855 -1.2974 -1.8273
16425TIP3    H270767   4.771   3.829  12.306  0.0404  0.6632 -0.7098
16426TIP3   OH270768   5.996   4.757   0.483  0.4817  0.1536  0.3550
16426TIP3    H170769   5.971   4.787   0.395 -0.8056  0.5206  0.8226
16426TIP3    H270770   5.946   4.813   0.542  0.2457 -1.0255  1.3055
16427TIP3   OH270771   4.536   3.570  14.345  0.1954  1.2053 -0.3047
16427TIP3    H170772   4.617   3.569  14.295  0.9879 -0.2754  0.9370
16427TIP3    H270773   4.512   3.478  14.353 -2.1938  1.6402 -1.4881
16428TIP3   OH270774   5.185   1.621  13.665 -0.2750  0.2814 -0.1216
16428TIP3    H170775   5.272   1.600  13.631 -0.1344 -0.3195  0.5708
16428TIP3    H270776   5.127   1.558  13.622 -0.1397 -0.2839  0.4929
16429TIP3   OH270777   5.014   3.836  14.586  0.6203 -0.0528 -0.4954
16429TIP3    H170778   5.068   3.915  14.595 -0.4279  0.7903 -1.4265
16429TIP3    H270779   5.027   3.789  14.669  2.3330  0.3889 -0.4748
16430TIP3   OH270780   2.005   1.894   3.551 -0.1462 -0.0695 -0.0899
16430TIP3    H170781   2.076   1.890   3.488  0.6774 -0.1530  0.8159
16430TIP3    H270782   1.945   1.825   3.525  1.2763 -1.5716  0.4774
16431TIP3   OH270783   0.825   5.186   1.395  0.0186  0.1746 -0.2472
16431TIP3    H170784   0.741   5.229   1.379  0.4433  1.3845  0.5798
16431TIP3    H270785   0.889   5.239   1.348  0.5962  0.6622  1.0446
16432TIP3   OH270786   2.522   6.240   3.192  0.1038  0.4402  0.0925
16432TIP3    H170787   2.613   6.263   3.208 -0.3145  1.6937  0.8927
16432TIP3    H270788   2.519   6.145   3.196  1.1831  0.4316  1.2109
16433TIP3   OH270789   0.929   3.709  15.570 -0.3482 -0.0258  0.2188
16433TIP3    H170790   0.950   3.777  15.506  0.3043 -0.2095  0.2226
16433TIP3    H270791   0.871   3.649  15.524 -0.0592 -0.0381 -0.1368
16434TIP3   OH270792   1.343   3.167   3.192 -0.3897 -0.0536 -0.1377
16434TIP3    H170793   1.251   3.185   3.209 -0.8281 -1.1473 -1.1510
16434TIP3    H270794   1.367   3.102   3.259  0.2074  1.6015  1.3129
16435TIP3   OH270795   3.147   5.630  13.446  0.3225 -0.6760 -0.2157
16435TIP3    H170796   3.203   5.694  13.490  1.4950 -0.7946 -1.4562
16435TIP3    H270797   3.193   5.547  13.456  0.8275 -0.6501 -1.9254
16436TIP3   OH270798   2.837   5.498   5.169 -0.1348  0.3971 -0.0787
16436TIP3    H170799   2.921   5.482   5.126  0.1379  1.6793 -0.0741
16436TIP3    H270800   2.826   5.424   5.228  0.6910 -0.1133 -0.5477
16437TIP3   OH270801   6.290   0.192  13.018  0.3420  0.3199  1.1004
16437TIP3    H170802   6.321   0.102  13.014 -0.6693 -0.0198  0.4038
16437TIP3    H270803   6.306   0.227  12.930 -0.9316  0.2226  0.8085
16438TIP3   OH270804   2.846   4.475  13.655 -0.8386 -0.2549  1.1514
16438TIP3    H170805   2.928   4.514  13.624 -0.8312 -1.6619 -0.7658
16438TIP3    H270806   2.780   4.505  13.593 -1.1465 -1.7595  0.7063
16439TIP3   OH270807   6.581   2.513   1.515 -0.2381  0.9446  0.4304
16439TIP3    H170808   6.592   2.470   1.430  0.5605 -0.7902  1.3516
16439TIP3    H270809   6.505   2.470   1.554  0.6065  0.2583  1.3944
16440TIP3   OH270810   3.897   3.955   6.713  0.0165  0.5028  0.3440
16440TIP3    H170811   3.891   4.047   6.690  1.0172 -0.1863 -3.2697
16440TIP3    H270812   3.808   3.929   6.734 -0.3267  2.1807  1.0951
16441TIP3   OH270813   0.695   2.432   0.542  0.1057 -0.3506 -0.8497
16441TIP3    H170814   0.749   2.506   0.568 -1.4505  1.2387 -1.9344
16441TIP3    H270815   0.756   2.370   0.501  1.6507 -0.3785  1.3552
16442TIP3   OH270816   6.007   4.238  12.454 -0.3145 -0.3842  0.0479
16442TIP3    H170817   5.985   4.195  12.536  0.7152  0.9453  1.0757
16442TIP3    H270818   6.039   4.168  12.397 -1.4052 -1.3804  0.6252
16443TIP3   OH270819   1.780   1.523   2.653  0.1780  0.0839  0.1043
16443TIP3    H170820   1.730   1.547   2.731  1.2462  1.7102  0.3371
16443TIP3    H270821   1.815   1.436   2.673 -0.7007 -0.1129  0.8496
16444TIP3   OH270822   2.627   5.739  11.084  0.2428 -0.0721 -0.3896
16444TIP3    H170823   2.709   5.779  11.114 -0.9187  1.5543  0.8094
16444TIP3    H270824   2.590   5.700  11.163 -1.3331  1.4558 -0.3238
16445TIP3   OH270825   3.342   3.957   4.050  0.5843 -0.1563  0.4083
16445TIP3    H170826   3.251   3.934   4.033  0.4195  1.3527 -0.9705
16445TIP3    H270827   3.393   3.904   3.988  0.5561 -0.0795  0.3204
16446TIP3   OH270828   2.255   2.056  17.316 -0.3883 -0.3851 -0.1969
16446TIP3    H170829   2.345   2.040  17.345 -0.4307  0.3207  0.3388
16446TIP3    H270830   2.222   1.969  17.293 -1.5017 -1.7301  5.1269
16447TIP3   OH270831   5.655   4.968   2.935 -0.2377 -0.2757  0.3202
16447TIP3    H170832   5.668   5.026   3.010  1.5128  0.1434 -0.2583
16447TIP3    H270833   5.646   4.881   2.974 -4.0289  0.3508  1.2856
16448TIP3   OH270834   1.384   6.657  14.607  0.6993 -0.1565 -0.4631
16448TIP3    H170835   1.356   6.748  14.599 -0.1667 -0.4701 -1.1972
16448TIP3    H270836   1.412   6.648  14.698 -0.0933  0.6086 -0.1254
16449TIP3   OH270837   6.522   4.105  13.177 -0.1227 -0.3664  0.5548
16449TIP3    H170838   6.524   4.165  13.103  0.3192 -0.1652  0.7289
16449TIP3    H270839   6.494   4.022  13.139  0.8310 -0.4555  0.0190
16450TIP3   OH270840   2.632   4.839   2.977  0.0470 -1.0902  0.2609
16450TIP3    H170841   2.639   4.796   2.892  2.8268 -2.5628  1.1161
16450TIP3    H270842   2.717   4.882   2.990 -0.6853  0.0109  1.8642
16451TIP3   OH270843   0.255   6.406  16.333  0.6116 -1.0459 -0.5588
16451TIP3    H170844   0.160   6.418  16.333  0.6879  0.2086 -2.8238
16451TIP3    H270845   0.275   6.378  16.244  2.4318 -0.6410 -0.3118
16452TIP3   OH270846   1.569   4.244  15.899  0.1955 -0.2569 -0.0201
16452TIP3    H170847   1.651   4.275  15.937 -0.1006  0.4547  0.0650
16452TIP3    H270848   1.592   4.217  15.810  0.6263 -0.5857  0.1927
16453TIP3   OH270849   3.330   2.408  11.112  0.0385 -0.0521  0.0280
16453TIP3    H170850   3.390   2.448  11.050 -0.9517  1.5500  0.0259
16453TIP3    H270851   3.306   2.324  11.073  1.4956 -0.2743 -0.4271
16454TIP3   OH270852   2.405   5.216  13.529 -0.0281 -0.5557 -0.0381
16454TIP3    H170853   2.309   5.222  13.531 -0.0850 -1.5550  0.8169
16454TIP3    H270854   2.426   5.144  13.589  1.1829 -1.2007 -1.1858
16455TIP3   OH270855   4.998   4.102  14.831 -0.0794 -0.8069  0.0167
16455TIP3    H170856   4.952   4.022  14.856 -0.1047 -0.5115  0.9704
16455TIP3    H270857   5.086   4.072  14.805 -0.5013 -1.2713 -0.8951
16456TIP3   OH270858   5.769   3.971  16.661 -0.3889 -0.2720 -0.0167
16456TIP3    H170859   5.836   3.962  16.729 -0.2742 -1.1921 -0.2392
16456TIP3    H270860   5.686   3.957  16.707 -0.3376 -0.4727  0.0165
16457TIP3   OH270861   1.377   1.363  11.449 -0.3045 -0.3916 -0.4882
16457TIP3    H170862   1.400   1.380  11.358  1.4987  1.3032  0.2038
16457TIP3    H270863   1.421   1.280  11.470  0.0233 -0.3350 -0.9246
16458TIP3   OH270864   4.038   4.895  16.124 -0.2964  0.3316  0.1041
16458TIP3    H170865   4.038   4.956  16.050 -0.5221 -1.2691 -1.2716
16458TIP3    H270866   3.945   4.873  16.137 -0.0744 -1.2283 -0.7511
16459TIP3   OH270867   2.480   4.711  14.589 -0.4999 -0.1106  0.3863
16459TIP3    H170868   2.473   4.651  14.515 -0.0771  0.9520 -0.5501
16459TIP3    H270869   2.572   4.708  14.615 -0.4518  0.2030  0.2628
16460TIP3   OH270870   0.581   3.198   3.377  0.2227  0.3920 -0.4443
16460TIP3    H170871   0.553   3.289   3.390  1.2461  0.6216  0.2665
16460TIP3    H270872   0.560   3.155   3.460  0.5268  0.1906 -0.4710
16461TIP3   OH270873   3.336   5.102  15.470  0.2346 -0.1086 -0.2507
16461TIP3    H170874   3.285   5.173  15.430 -0.1154 -0.0237  0.3358
16461TIP3    H270875   3.403   5.082  15.405  0.6422  1.0893 -0.2229
16462TIP3   OH270876   2.826   0.695   1.869  0.6385 -0.3663  0.0477
16462TIP3    H170877   2.823   0.687   1.774  1.2510  2.8647 -0.3677
16462TIP3    H270878   2.737   0.676   1.898  0.2956 -0.8032 -1.2295
16463TIP3   OH270879   4.168   2.329  17.300 -0.0519 -0.6814 -0.2964
16463TIP3    H170880   4.152   2.309  17.392  0.2392 -0.8045 -0.2719
16463TIP3    H270881   4.134   2.254  17.252 -0.2625 -0.5886 -0.2955
16464TIP3   OH270882   1.342   5.689  15.017  0.0853  0.3669 -0.1495
16464TIP3    H170883   1.424   5.668  14.973  0.9666  1.1382  1.0765
16464TIP3    H270884   1.350   5.781  15.042 -0.3359 -0.0472  1.6504
16465TIP3   OH270885   0.819   1.127  14.220 -0.0744  0.0342  0.2473
16465TIP3    H170886   0.902   1.145  14.265  0.6300  0.3736 -1.1066
16465TIP3    H270887   0.756   1.186  14.262  0.1511 -0.8263  1.8613
16466TIP3   OH270888   0.851   1.820  14.111  0.6279  0.0081  0.2596
16466TIP3    H170889   0.834   1.882  14.040 -1.1114  0.5429  1.0898
16466TIP3    H270890   0.898   1.748  14.069 -0.1428  0.4205 -1.3943
16467TIP3   OH270891   1.328   0.473   5.200  0.3261 -0.0088  0.4653
16467TIP3    H170892   1.252   0.432   5.159 -1.7471  1.2274  2.7477
16467TIP3    H270893   1.352   0.544   5.141 -1.7419  0.9170  0.6475
16468TIP3   OH270894   0.376   0.184  15.566 -0.4660 -0.4063  0.1500
16468TIP3    H170895   0.391   0.269  15.525 -0.9313 -1.6334 -2.8456
16468TIP3    H270896   0.446   0.129  15.533 -1.5924 -1.7919 -0.0225
16469TIP3   OH270897   2.537   5.557   5.089  0.4164 -0.5462  0.2074
16469TIP3    H170898   2.468   5.601   5.038  0.6024 -2.5165 -1.9469
16469TIP3    H270899   2.599   5.627   5.110 -0.7269  0.7431 -0.4828
16470TIP3   OH270900   0.885   1.418   4.199  0.5026  0.1802 -0.0554
16470TIP3    H170901   0.930   1.374   4.271  0.4980  1.0607  0.4964
16470TIP3    H270902   0.801   1.447   4.236 -1.4216 -2.9281 -1.4841
16471TIP3   OH270903   2.762   3.677   5.988 -0.6506 -0.1463 -0.1038
16471TIP3    H170904   2.782   3.667   6.081 -0.7605 -2.1955 -0.2498
16471TIP3    H270905   2.746   3.588   5.957 -1.7740  0.5935 -1.8416
16472TIP3   OH270906   6.460   6.089   3.721  0.1350 -0.0947 -0.2347
16472TIP3    H170907   6.501   6.003   3.707  0.2566 -0.0492 -0.1636
16472TIP3    H270908   6.374   6.069   3.757  0.8943 -0.1671  1.6934
16473TIP3   OH270909   5.983   3.916   5.942 -0.3520 -0.0607 -0.7121
16473TIP3    H170910   6.044   3.989   5.942  1.2858 -1.3740 -0.2254
16473TIP3    H270911   5.915   3.941   5.880  1.1099  1.1015 -1.9030
16474TIP3   OH270912   3.491   4.770  13.762 -0.2298 -0.3450  0.0304
16474TIP3    H170913   3.576   4.797  13.798 -1.1353  0.4724  1.6132
16474TIP3    H270914   3.513   4.695  13.706  1.6583  0.4413 -0.3864
16475TIP3   OH270915   5.299   0.106   1.227 -0.1390  0.3603  0.4253
16475TIP3    H170916   5.213   0.070   1.208 -0.1844 -0.1389  1.5234
16475TIP3    H270917   5.284   0.172   1.295  0.3445  0.2594  0.6373
16476TIP3   OH270918   6.014   5.980   6.002 -0.0614 -0.7795  0.3846
16476TIP3    H170919   6.002   6.007   6.093  0.9233  0.5854  0.1560
16476TIP3    H270920   6.050   5.892   6.007  1.3607 -0.1783  1.4033
16477TIP3   OH270921   5.519   3.639  15.778 -0.2632  0.0682 -0.0304
16477TIP3    H170922   5.480   3.726  15.777 -0.0572  0.1684  0.4236
16477TIP3    H270923   5.478   3.594  15.853 -1.6936 -0.8492 -1.3098
16478TIP3   OH270924   1.148   6.305   4.365 -0.0450 -0.2142  0.8518
16478TIP3    H170925   1.206   6.377   4.341  0.5437 -0.6267  1.0249
16478TIP3    H270926   1.113   6.329   4.450 -0.1892  0.0722  0.7109
16479TIP3   OH270927   3.873   3.427   5.163  0.2397  0.0735  0.2855
16479TIP3    H170928   3.934   3.431   5.236  1.9576 -0.2994 -1.0574
16479TIP3    H270929   3.795   3.473   5.194  2.7077  4.6469  0.6656
16480TIP3   OH270930   5.212   5.959  13.587  0.0669  0.7969 -0.1591
16480TIP3    H170931   5.271   5.935  13.658 -0.1003  1.3874  0.1884
16480TIP3    H270932   5.129   5.979  13.630 -0.4312 -0.1529 -0.6603
16481TIP3   OH270933   2.867   4.852  11.490  0.0237  0.1749 -0.3043
16481TIP3    H170934   2.867   4.935  11.537  1.1240  0.9005 -1.5272
16481TIP3    H270935   2.855   4.876  11.398  2.2767 -0.8197 -0.9382
16482TIP3   OH270936   6.626   5.582  12.713 -0.4631  0.4097  0.3003
16482TIP3    H170937   6.629   5.521  12.640  0.1887 -0.5690  1.1290
16482TIP3    H270938   6.532   5.592  12.731 -0.5607 -0.7247  0.4675
16483TIP3   OH270939   2.321   2.329  16.797  0.2285  0.0609  0.1598
16483TIP3    H170940   2.378   2.397  16.833  0.6427  0.3253 -0.9487
16483TIP3    H270941   2.365   2.300  16.717 -0.3103 -1.0030  0.2296
16484TIP3   OH270942   6.604   4.300  16.521 -0.5871 -0.2440 -0.3364
16484TIP3    H170943   6.700   4.303  16.529 -0.3185 -0.9765 -2.6553
16484TIP3    H270944   6.576   4.244  16.593  0.8724 -1.0995 -0.3911
16485TIP3   OH270945   4.195   4.861   0.134 -0.0819 -0.0147 -0.2194
16485TIP3    H170946   4.108   4.826   0.112  0.7786 -1.8283 -0.9242
16485TIP3    H270947   4.181   4.907   0.217 -2.2510  2.1255 -1.6203
16486TIP3   OH270948   1.301   1.124  11.717 -0.3894 -0.4152  0.2091
16486TIP3    H170949   1.242   1.079  11.776 -0.7878 -1.3030 -0.8355
16486TIP3    H270950   1.254   1.127  11.633 -0.3870  1.9629  0.2263
16487TIP3   OH270951   1.285   5.820   2.503  0.1395 -0.2387  0.0156
16487TIP3    H170952   1.314   5.738   2.543 -0.7014 -1.7460 -2.3094
16487TIP3    H270953   1.190   5.810   2.493 -0.4458  2.1595  2.0359
16488TIP3   OH270954   3.021   4.705   5.972 -0.9876 -0.5261 -0.1494
16488TIP3    H170955   3.115   4.687   5.966 -0.9562 -0.2849 -0.3617
16488TIP3    H270956   2.990   4.644   6.039 -0.5548 -0.1203  0.4306
16489TIP3   OH270957   0.634   6.143  11.645 -0.2624 -0.5624  0.2377
16489TIP3    H170958   0.685   6.225  11.646  1.7975 -1.7760 -0.0999
16489TIP3    H270959   0.561   6.161  11.703 -1.2764  2.3480 -1.6784
16490TIP3   OH270960   0.073   5.641   2.242  0.6034  0.0768 -0.3960
16490TIP3    H170961   0.006   5.578   2.268  1.7560 -0.7925  0.5589
16490TIP3    H270962   0.063   5.714   2.304  0.7282 -0.1869 -0.0622
16491TIP3   OH270963   1.261   1.452   3.715 -0.2042  0.0215  0.2955
16491TIP3    H170964   1.175   1.435   3.753  0.5124  0.6969  2.4127
16491TIP3    H270965   1.322   1.407   3.774  1.0051  1.2571  0.0497
16492TIP3   OH270966   3.642   2.436   2.758  0.2016 -0.5062 -0.7073
16492TIP3    H170967   3.716   2.380   2.781  1.0169  1.0194  0.4988
16492TIP3    H270968   3.568   2.396   2.804  0.7995 -0.5114  0.2786
16493TIP3   OH270969   6.646   5.475   2.356 -0.8055  0.3018  0.4113
16493TIP3    H170970   6.620   5.417   2.428 -1.6198  0.5920  0.3537
16493TIP3    H270971   6.625   5.563   2.388 -1.4060  0.4122 -0.2886
16494TIP3   OH270972   6.553   3.995  17.418 -1.0076 -0.1374  0.1094
16494TIP3    H170973   6.559   3.964  17.509  1.9280 -1.0060 -0.2557
16494TIP3    H270974   6.506   3.926  17.372  0.8112 -1.5976  0.3249
16495TIP3   OH270975   5.890   5.424   3.838  0.6997 -0.1208 -0.2513
16495TIP3    H170976   5.931   5.344   3.804  0.6068 -0.2996  0.0537
16495TIP3    H270977   5.821   5.392   3.896  0.3014  0.1802 -0.5543
16496TIP3   OH270978   3.784   4.765  16.161 -0.1738  0.1052  0.2930
16496TIP3    H170979   3.791   4.681  16.206  0.0257 -0.0168  0.0379
16496TIP3    H270980   3.770   4.829  16.231 -0.2988 -0.1358  0.4909
16497TIP3   OH270981   2.574   4.260  14.350 -0.0530 -0.2958 -0.3109
16497TIP3    H170982   2.617   4.328  14.298  0.0330  0.1811  0.3734
16497TIP3    H270983   2.646   4.214  14.394 -0.0713 -1.1514 -1.1314
16498TIP3   OH270984   1.698   3.191  14.026 -0.0847  0.2959  0.3280
16498TIP3    H170985   1.750   3.210  14.105  0.3824 -0.5144  0.2292
16498TIP3    H270986   1.723   3.260  13.964  1.9566 -0.8374 -0.2026
16499TIP3   OH270987   0.750   4.440   3.518 -0.5315  0.0218  0.8738
16499TIP3    H170988   0.785   4.412   3.433  1.5020 -0.4030  1.7834
16499TIP3    H270989   0.670   4.488   3.497  0.9895  1.7358 -1.4440
16500TIP3   OH270990   0.603   5.997   6.855  0.1261  0.2245  0.0851
16500TIP3    H170991   0.644   6.080   6.829  0.2230  0.5571  1.2500
16500TIP3    H270992   0.635   5.934   6.790  1.7038  0.6753  0.3613
16501TIP3   OH270993   5.430   6.180   1.568  0.4246 -0.8371 -0.5911
16501TIP3    H170994   5.480   6.146   1.494  2.1867 -2.7467  1.3261
16501TIP3    H270995   5.390   6.103   1.608  1.4384 -0.2489  1.7382
16502TIP3   OH270996   5.429   5.023  15.612  0.0138  0.0326 -0.6589
16502TIP3    H170997   5.384   4.997  15.692  0.3281 -3.1401 -1.3869
16502TIP3    H270998   5.415   5.118  15.607 -1.4160  0.1038  2.2330
16503TIP3   OH270999   6.210   2.286   6.146 -0.5326  0.1084  0.1265
16503TIP3    H171000   6.125   2.314   6.180 -0.7595  0.6570 -0.8564
16503TIP3    H271001   6.237   2.217   6.205 -1.1462  0.6881  1.1190
16504TIP3   OH271002   1.675   1.168   1.699  0.4796 -0.0319 -0.2306
16504TIP3    H171003   1.751   1.201   1.747 -0.5238  0.5459  1.0325
16504TIP3    H271004   1.652   1.238   1.639 -0.9257  1.1811  1.6112
16505TIP3   OH271005   5.770   4.748  11.705 -0.0805 -0.3540  0.0188
16505TIP3    H171006   5.684   4.762  11.665  0.5325  0.9996 -0.9145
16505TIP3    H271007   5.754   4.755  11.799 -0.9287  0.3381 -0.1598
16506TIP3   OH271008   6.126   3.291   4.742 -0.0560 -0.3258  0.1906
16506TIP3    H171009   6.117   3.199   4.767 -0.7771 -0.3059  0.0331
16506TIP3    H271010   6.165   3.333   4.819  0.6899 -0.8341  0.1042
16507TIP3   OH271011   1.997   5.232  13.526 -0.0928 -0.4229 -0.3566
16507TIP3    H171012   1.991   5.311  13.579 -1.5782 -0.4426 -0.4624
16507TIP3    H271013   1.951   5.165  13.576 -0.0560 -0.8681 -0.9029
16508TIP3   OH271014   1.766   1.199   6.113  0.0172  0.1961  0.0362
16508TIP3    H171015   1.696   1.215   6.177 -0.5326  1.8786 -0.9337
16508TIP3    H271016   1.798   1.111   6.135 -0.6842  0.3915  2.1024
16509TIP3   OH271017   5.741   2.196   2.099  0.4097  0.1646  0.4952
16509TIP3    H171018   5.696   2.149   2.169 -0.7572  0.5705  0.0270
16509TIP3    H271019   5.773   2.127   2.041 -0.6406 -0.0996  0.2100
16510TIP3   OH271020   4.885   4.048   3.567  0.8821  0.2831 -0.1935
16510TIP3    H171021   4.945   4.061   3.641  0.7835  2.6614 -0.4401
16510TIP3    H271022   4.936   4.076   3.491  1.1341 -2.5666 -1.1665
16511TIP3   OH271023   5.581   1.238   5.382 -0.2282 -0.1656  0.0603
16511TIP3    H171024   5.600   1.332   5.387 -0.5336 -0.0911 -0.1349
16511TIP3    H271025   5.522   1.222   5.455 -0.3166 -0.1710 -0.0124
16512TIP3   OH271026   1.022   2.638  12.009  0.3542  0.5165  0.2654
16512TIP3    H171027   1.065   2.670  11.931  1.7921  0.4845  1.0128
16512TIP3    H271028   0.944   2.693  12.018  0.4744  0.8914 -0.8525
16513TIP3   OH271029   4.719   3.156   4.615  0.7392  0.3290 -0.0746
16513TIP3    H171030   4.714   3.136   4.709 -1.4194  1.0306  0.0218
16513TIP3    H271031   4.637   3.202   4.596  1.3542  0.6565 -2.2177
16514TIP3   OH271032   3.634   1.902   4.060 -0.1562 -0.4038  0.6600
16514TIP3    H171033   3.620   1.808   4.067 -0.5039 -0.3675  0.4892
16514TIP3    H271034   3.568   1.941   4.118 -2.0103 -0.1634 -1.4326
16515TIP3   OH271035   3.147   4.722  16.335  0.6422 -0.1444  0.4018
16515TIP3    H171036   3.103   4.660  16.278  0.4491  0.4796 -0.1468
16515TIP3    H271037   3.075   4.765  16.383  0.5565  1.3270 -0.9587
16516TIP3   OH271038   2.568   4.854  17.061 -0.3954 -0.2640  0.0062
16516TIP3    H171039   2.490   4.813  17.099 -0.1712  0.0016  0.7737
16516TIP3    H271040   2.571   4.941  17.100 -1.3763  0.8872 -2.3022
16517TIP3   OH271041   6.597   2.502  16.141 -0.1053  0.0378 -0.2865
16517TIP3    H171042   6.525   2.443  16.165  0.8074 -1.8720 -1.9351
16517TIP3    H271043   6.564   2.552  16.067  0.2172 -0.7735 -0.9850
16518TIP3   OH271044   0.119   6.042  16.232 -0.1379  0.0470  0.1796
16518TIP3    H171045   0.202   6.090  16.228  0.0740 -0.3917 -1.7245
16518TIP3    H271046   0.131   5.979  16.303  1.3981 -0.3854 -0.4243
16519TIP3   OH271047   2.246   4.060  16.059 -0.2537  0.1649 -0.2343
16519TIP3    H171048   2.190   4.014  15.996 -1.3931  2.1641 -0.7802
16519TIP3    H271049   2.335   4.034  16.036 -0.8364 -1.7489 -0.4821
16520TIP3   OH271050   5.427   3.691  13.917 -0.1230 -0.1724  0.2031
16520TIP3    H171051   5.515   3.662  13.893  0.9655  1.6174  1.7774
16520TIP3    H271052   5.401   3.751  13.847  0.2233 -0.1221  0.1175
16521TIP3   OH271053   0.094   1.046  12.536 -0.1069  0.0154  0.0663
16521TIP3    H171054   0.031   1.117  12.546 -1.3227 -0.6287 -2.3177
16521TIP3    H271055   0.169   1.073  12.590 -1.7327  1.5677  1.7046
16522TIP3   OH271056   5.660   1.359  13.260 -0.5978 -0.0628  1.1847
16522TIP3    H171057   5.752   1.363  13.288 -0.2036 -0.3915 -0.0285
16522TIP3    H271058   5.625   1.283  13.305 -0.0889 -0.3340  1.1315
16523TIP3   OH271059   2.699   4.363  13.380  0.0517  0.1768 -0.2676
16523TIP3    H171060   2.727   4.446  13.343 -1.6427  1.1433  0.5430
16523TIP3    H271061   2.619   4.340  13.332  0.2353 -0.7563 -0.1585
16524TIP3   OH271062   5.260   6.616  12.430  0.1016  0.0991 -0.6891
16524TIP3    H171063   5.211   6.540  12.399  0.0187  0.4973 -1.5457
16524TIP3    H271064   5.349   6.602  12.399  0.3363 -0.1659  0.0745
16525TIP3   OH271065   6.146   4.536  13.121 -0.0957  0.0420 -0.3047
16525TIP3    H171066   6.215   4.548  13.186  1.7284  0.9826 -2.3133
16525TIP3    H271067   6.092   4.465  13.156  0.7163  0.5750  2.2537
16526TIP3   OH271068   6.504   0.666  13.382 -0.1375  0.6929 -0.7672
16526TIP3    H171069   6.591   0.696  13.355 -0.0305  0.9993 -0.1044
16526TIP3    H271070   6.454   0.660  13.300  0.6494  0.0177 -1.2121
16527TIP3   OH271071   6.032   4.897  11.482  0.5869  0.0851  0.1785
16527TIP3    H171072   6.049   4.970  11.541  1.0501 -0.0145  0.1719
16527TIP3    H271073   6.023   4.937  11.396  0.4694  0.1706  0.2295
16528TIP3   OH271074   0.538   4.769   1.744  0.3880 -0.2789 -0.1146
16528TIP3    H171075   0.522   4.741   1.654  2.2728  2.0581 -1.2568
16528TIP3    H271076   0.630   4.748   1.760  0.4505  0.5968  0.7784
16529TIP3   OH271077   5.721   0.127   0.067  0.2630  0.3044 -0.4457
16529TIP3    H171078   5.764   0.119   0.152  0.1328 -0.4105 -0.4464
16529TIP3    H271079   5.635   0.163   0.087  0.7370  1.4774 -0.4187
16530TIP3   OH271080   4.116   5.012  15.887  0.3420 -0.4386  0.0172
16530TIP3    H171081   4.051   4.988  15.820  1.2088  1.1627 -1.4884
16530TIP3    H271082   4.200   4.995  15.845  0.9070 -0.1573  1.0224
16531TIP3   OH271083   6.719   2.712  16.752 -0.7551 -0.2609 -0.2704
16531TIP3    H171084   6.739   2.770  16.825 -0.1734  0.0568 -0.6840
16531TIP3    H271085   6.799   2.710  16.699 -1.7489  0.9656 -1.9029
16532TIP3   OH271086   5.294   1.356  15.217  0.2333  0.1452 -0.2774
16532TIP3    H171087   5.254   1.310  15.292  1.2610  0.6061  0.5811
16532TIP3    H271088   5.360   1.294  15.185  2.4140  1.3374  1.5821
16533TIP3   OH271089   2.325   5.103  14.050 -0.0052  0.1935 -0.8753
16533TIP3    H171090   2.303   5.159  14.124 -0.5078 -1.2149  0.0799
16533TIP3    H271091   2.419   5.089  14.058 -0.1866 -0.6251  0.0157
16534TIP3   OH271092   0.810   1.031  13.895  0.3905 -0.1912  0.4695
16534TIP3    H171093   0.780   0.946  13.862  2.0459 -1.4060  1.9363
16534TIP3    H271094   0.869   1.064  13.827  0.4209 -0.6114  0.2912
16535TIP3   OH271095   2.736   2.858  16.888  0.4212 -0.3931 -0.2459
16535TIP3    H171096   2.683   2.895  16.959  0.6982  0.3898 -0.4410
16535TIP3    H271097   2.809   2.814  16.933  0.4171 -0.1838 -0.0320
16536TIP3   OH271098   6.310   2.874  17.250  0.0767  0.1849  0.2478
16536TIP3    H171099   6.340   2.832  17.169  0.0471  1.8945 -0.7220
16536TIP3    H271100   6.358   2.830  17.320 -0.7045 -2.0772 -0.5685
16537TIP3   OH271101   6.289   6.725  12.572  0.6089 -0.5079  0.4377
16537TIP3    H171102   6.225   6.714  12.642 -0.8451 -0.2461 -0.7881
16537TIP3    H271103   6.239   6.709  12.492  1.7276  1.1482 -0.6455
16538TIP3   OH271104   2.042   6.479  16.659  0.4837  0.3217 -0.3746
16538TIP3    H171105   2.073   6.396  16.621  0.6947 -0.0502  0.5696
16538TIP3    H271106   2.095   6.490  16.737 -0.2575  0.8201  0.0707
16539TIP3   OH271107   4.610   0.563  14.982 -0.4325 -0.1321 -0.0566
16539TIP3    H171108   4.695   0.585  15.021 -0.1722  1.9016 -1.5789
16539TIP3    H271109   4.632   0.517  14.901 -0.5500  2.4805 -1.7164
16540TIP3   OH271110   6.188   6.587  17.456  0.0459  0.2970  0.3210
16540TIP3    H171111   6.249   6.615  17.525  1.7155 -1.2771 -0.4459
16540TIP3    H271112   6.233   6.607  17.374 -1.2894  0.8001 -0.3254
16541TIP3   OH271113   6.557   0.235  14.846  0.7638  0.3626  0.4225
16541TIP3    H171114   6.539   0.293  14.772  0.9203  0.3633  0.3833
16541TIP3    H271115   6.652   0.220  14.841  0.6468 -0.3394  0.1016
16542TIP3   OH271116   0.175   3.656  14.546  0.2351 -0.5200  0.2249
16542TIP3    H171117   0.250   3.645  14.604  1.1208 -1.2925 -1.0251
16542TIP3    H271118   0.141   3.743  14.568  2.1004  0.2889  0.1555
16543TIP3   OH271119   4.380   6.081   3.670 -0.3742 -0.3615 -0.0613
16543TIP3    H171120   4.357   6.089   3.578 -1.1319  0.9528  0.2032
16543TIP3    H271121   4.435   6.003   3.676 -0.5096 -0.5853 -1.5770
16544TIP3   OH271122   0.810   6.176   4.918 -0.0470  0.4214  0.0054
16544TIP3    H171123   0.719   6.173   4.888 -0.3852 -2.0451  1.0409
16544TIP3    H271124   0.813   6.251   4.977 -0.8559  1.7273 -1.5032
16545TIP3   OH271125   0.353   4.470  14.741  0.1594  0.4364 -0.3324
16545TIP3    H171126   0.276   4.414  14.750  0.1989 -0.0038 -2.2801
16545TIP3    H271127   0.334   4.524  14.664  1.5176  0.7872 -0.4450
16546TIP3   OH271128   3.088   6.507  15.052 -0.1588 -0.2450  0.2906
16546TIP3    H171129   3.053   6.421  15.028 -0.5391 -0.0536  0.1534
16546TIP3    H271130   3.126   6.494  15.138 -2.1367 -0.0617  1.2510
16547TIP3   OH271131   4.334   4.153  17.312 -0.9895 -0.2361  0.5167
16547TIP3    H171132   4.388   4.159  17.391 -0.0801 -0.2818 -0.0724
16547TIP3    H271133   4.324   4.244  17.283 -1.7557 -0.1775  0.9634
16548TIP3   OH271134   2.189   3.330   3.886 -0.5745 -0.1304 -0.3455
16548TIP3    H171135   2.248   3.260   3.856 -0.3512 -0.2620  0.3653
16548TIP3    H271136   2.103   3.305   3.851 -0.7800 -1.5257  1.0069
16549TIP3   OH271137   1.351   1.189  12.162  0.3528  0.3553  0.0394
16549TIP3    H171138   1.406   1.267  12.170  0.1308  0.3948  1.3279
16549TIP3    H271139   1.264   1.223  12.138  0.4772  0.4189 -0.3346
16550TIP3   OH271140   0.855   3.643   5.458 -0.0926  0.0404  0.4094
16550TIP3    H171141   0.775   3.596   5.483 -1.1066  1.6171  0.3345
16550TIP3    H271142   0.859   3.717   5.520  0.1810  1.1046 -0.8353
16551TIP3   OH271143   4.437   1.662   2.510 -0.1268 -0.3442 -0.4248
16551TIP3    H171144   4.375   1.694   2.445  0.0443 -0.9141 -0.8787
16551TIP3    H271145   4.496   1.604   2.461  3.3961  3.2857 -0.9882
16552TIP3   OH271146   2.977   6.634   5.900 -0.2899  0.9513  0.2507
16552TIP3    H171147   2.961   6.653   5.993  0.1500 -0.8090  0.7325
16552TIP3    H271148   2.953   6.542   5.890  3.4441 -0.1112 -0.3906
16553TIP3   OH271149   1.985   6.043  16.825 -0.1898  0.1627  0.2489
16553TIP3    H171150   1.966   5.949  16.833 -0.4163  0.2298  0.5253
16553TIP3    H271151   2.063   6.056  16.879 -1.4217  0.5221  1.9916
16554TIP3   OH271152   2.535   5.226  16.210 -0.0106 -0.5224 -0.2635
16554TIP3    H171153   2.514   5.302  16.156 -1.8421 -1.7815 -1.3940
16554TIP3    H271154   2.519   5.151  16.154  3.0381 -1.8014  0.3809
16555TIP3   OH271155   0.746   3.914  13.462  0.5236 -0.1154  0.1567
16555TIP3    H171156   0.719   3.822  13.462 -0.6904  0.2301 -0.2410
16555TIP3    H271157   0.842   3.911  13.466  0.8045 -1.4992 -3.8124
16556TIP3   OH271158   5.736   6.347   1.641 -0.6700 -0.0826  0.0373
16556TIP3    H171159   5.734   6.289   1.717 -0.3499 -0.2197 -0.0567
16556TIP3    H271160   5.829   6.357   1.620 -0.6467  1.3107  0.6839
16557TIP3   OH271161   2.277   0.024  15.560  0.7458  0.2105 -1.0162
16557TIP3    H171162   2.353  -0.017  15.519  1.3007  1.2861 -1.1097
16557TIP3    H271163   2.250  -0.037  15.628  1.0583 -0.6631 -1.6539
16558TIP3   OH271164   4.809   2.526  17.451  0.5398 -0.5396  0.3747
16558TIP3    H171165   4.895   2.541  17.488  0.2452  0.1748  0.7914
16558TIP3    H271166   4.773   2.614  17.436  0.2534 -0.8177 -0.6759
16559TIP3   OH271167   2.705   0.356   0.860 -0.4287  0.8513  0.6471
16559TIP3    H171168   2.638   0.313   0.806 -0.3137  1.4968 -0.0189
16559TIP3    H271169   2.665   0.363   0.947 -0.0436 -1.6158  1.1157
16560TIP3   OH271170   4.240   3.458   2.292 -0.0972 -0.1502  0.9003
16560TIP3    H171171   4.233   3.551   2.272  0.1757 -0.1241  0.9171
16560TIP3    H271172   4.162   3.438   2.345 -0.7034 -0.1683  0.0258
16561TIP3   OH271173   0.475   1.807   0.000 -0.1373 -0.0398  0.5873
16561TIP3    H171174   0.430   1.803   0.085  0.6243  1.7541  1.1431
16561TIP3    H271175   0.567   1.789   0.021 -0.2165 -1.4336 -0.1751
16562TIP3   OH271176   6.649   4.394  13.268 -0.1788 -0.0551  0.0223
16562TIP3    H171177   6.668   4.340  13.192  1.5004 -0.6092  0.7934
16562TIP3    H271178   6.578   4.348  13.313  0.2588 -0.8500 -0.0914
16563TIP3   OH271179   5.786   3.338  13.438  0.6353  0.5392 -0.2084
16563TIP3    H171180   5.831   3.303  13.515  0.0946  0.2300 -0.0291
16563TIP3    H271181   5.695   3.351  13.466 -0.0779 -1.4934 -1.3517
16564TIP3   OH271182   3.527   4.879  13.154  0.2220 -1.2481 -0.5993
16564TIP3    H171183   3.613   4.904  13.187  0.2768 -2.4150  0.1642
16564TIP3    H271184   3.539   4.873  13.059 -0.0228  2.4373 -1.0314
16565TIP3   OH271185   4.637   2.605  13.700  0.6096  0.4759  1.0630
16565TIP3    H171186   4.604   2.690  13.672  0.1138 -0.6406 -2.2134
16565TIP3    H271187   4.581   2.580  13.773 -1.7699  1.3735 -0.3332
16566TIP3   OH271188   3.605   4.624  15.736  0.7060 -0.0508 -0.6571
16566TIP3    H171189   3.606   4.633  15.641  0.5491  1.8400 -0.5153
16566TIP3    H271190   3.652   4.702  15.768  0.5060 -0.5031  0.8159
16567TIP3   OH271191   3.024   2.477  12.920  0.4718  0.4571 -0.0695
16567TIP3    H171192   3.027   2.559  12.870 -1.4543  1.1637  0.8877
16567TIP3    H271193   3.113   2.466  12.953  0.6185  2.5823  0.3954
16568TIP3   OH271194   0.724   3.088   1.550 -0.4682  0.3082  0.4339
16568TIP3    H171195   0.663   3.016   1.565 -0.4310  0.1993  0.0612
16568TIP3    H271196   0.771   3.097   1.633  1.9418 -2.3523 -0.4545
16569TIP3   OH271197   3.550   3.820   5.363 -0.5830  0.7565 -0.0863
16569TIP3    H171198   3.616   3.881   5.330  1.9061 -1.7727 -0.1524
16569TIP3    H271199   3.559   3.823   5.458 -0.2239  0.2914 -0.1015
16570TIP3   OH271200   4.487   3.126   1.922 -0.4096  0.2128  0.3164
16570TIP3    H171201   4.434   3.179   1.982  1.3274  2.9727 -0.4090
16570TIP3    H271202   4.436   3.123   1.841 -0.6522  0.5524  0.4521
16571TIP3   OH271203   6.285   0.067   5.350 -0.1028  0.0287  0.2997
16571TIP3    H171204   6.339   0.083   5.273 -2.3008 -1.0802 -1.5895
16571TIP3    H271205   6.250   0.153   5.373  0.7198  0.3961  0.2203
16572TIP3   OH271206   5.781   4.299  13.469 -0.0873  0.1639  0.8034
16572TIP3    H171207   5.696   4.274  13.503  0.2282  0.3989  1.7840
16572TIP3    H271208   5.836   4.311  13.546  1.1990 -1.2404  0.1744
16573TIP3   OH271209   0.446   0.510  14.415  0.5044 -0.1179  0.8725
16573TIP3    H171210   0.460   0.424  14.376 -1.3094  0.9589 -2.6103
16573TIP3    H271211   0.503   0.569  14.366  0.1277  1.0008  1.7260
16574TIP3   OH271212   0.134   1.930   4.536 -0.1921  0.1983 -0.1800
16574TIP3    H171213   0.228   1.925   4.549 -0.3285 -2.7081  0.3798
16574TIP3    H271214   0.098   1.944   4.624 -0.3221  0.6363 -0.3004
16575TIP3   OH271215   5.383   1.280  16.327  0.3701  0.2208 -0.5412
16575TIP3    H171216   5.400   1.271  16.421  1.2300 -1.0674 -0.7926
16575TIP3    H271217   5.299   1.326  16.323  0.1187 -0.0467  0.8675
16576TIP3   OH271218   2.523   5.217  17.165  0.7612  0.2874 -0.0832
16576TIP3    H171219   2.544   5.293  17.220  2.2368 -0.0008 -0.1998
16576TIP3    H271220   2.529   5.142  17.225 -0.1159  0.2043 -0.0938
16577TIP3   OH271221   2.460   5.851  15.588  0.3240 -0.1511 -0.0290
16577TIP3    H171222   2.444   5.920  15.653 -1.7914 -0.6338  0.0475
16577TIP3    H271223   2.486   5.898  15.509  0.5799  0.6139  0.5009
16578TIP3   OH271224   5.788   1.439  16.170 -0.2088 -0.3750  0.5647
16578TIP3    H171225   5.805   1.398  16.255 -0.5441  0.6236  1.1168
16578TIP3    H271226   5.698   1.413  16.149  0.4540 -2.1427 -0.3818
16579TIP3   OH271227   2.694   2.007   4.921  0.0382 -0.2904 -0.1272
16579TIP3    H171228   2.644   2.066   4.864 -0.5033 -0.8107 -0.1928
16579TIP3    H271229   2.763   1.972   4.864 -0.1151 -0.3176 -0.2974
16580TIP3   OH271230   5.457   0.872   3.054 -0.2513  0.5965 -0.4091
16580TIP3    H171231   5.542   0.832   3.035  0.4890  1.7216  0.3882
16580TIP3    H271232   5.476   0.940   3.118 -1.3830  2.4227 -1.8693
16581TIP3   OH271233   2.998   0.261   0.329 -0.3353  0.5383 -0.0260
16581TIP3    H171234   2.976   0.354   0.330  0.2768  0.6911  0.0081
16581TIP3    H271235   2.915   0.216   0.340 -0.6711  1.0772 -0.3175
16582TIP3   OH271236   1.745   4.853  13.860  0.2551  0.2153 -0.0289
16582TIP3    H171237   1.802   4.777  13.868 -0.6134 -0.3843  0.6867
16582TIP3    H271238   1.785   4.906  13.791  2.4242  0.5072  1.3340
16583TIP3   OH271239   2.801   1.890   3.800  0.2969 -0.2816  1.1125
16583TIP3    H171240   2.729   1.913   3.858 -0.6773 -1.1823  0.3016
16583TIP3    H271241   2.839   1.974   3.775 -1.3330  0.3229  0.5014
16584TIP3   OH271242   4.011   6.146   3.538 -0.1258 -0.1463 -0.6280
16584TIP3    H171243   3.915   6.148   3.537 -0.2229 -0.9883  1.4944
16584TIP3    H271244   4.037   6.206   3.468 -2.2128  1.4755 -0.1171
16585TIP3   OH271245   2.954   2.507  16.784 -0.2907  0.9524  0.4889
16585TIP3    H171246   2.983   2.415  16.777 -1.4325  0.6730 -1.0589
16585TIP3    H271247   3.035   2.556  16.801  0.1622 -0.4522  2.7906
16586TIP3   OH271248   0.148   3.525  12.246  0.0198  0.2286 -0.1248
16586TIP3    H171249   0.097   3.490  12.173 -2.4073 -0.3078  1.7006
16586TIP3    H271250   0.133   3.619  12.244 -1.7979  0.0136  0.8191
16587TIP3   OH271251   2.611   2.287   3.860  0.1730 -0.3522  0.1031
16587TIP3    H171252   2.629   2.377   3.833 -0.9561 -0.6753 -1.8943
16587TIP3    H271253   2.534   2.262   3.810 -0.0146 -2.1787  1.2268
16588TIP3   OH271254   1.638   3.468   2.533 -0.4759  0.2058 -0.0783
16588TIP3    H171255   1.559   3.417   2.552 -0.1485 -0.4294 -0.3817
16588TIP3    H271256   1.706   3.402   2.523 -0.3524  0.5931 -2.1023
16589TIP3   OH271257   0.331   1.355   1.095 -0.0222  0.3605  0.2426
16589TIP3    H171258   0.389   1.391   1.028 -1.0706 -2.2720 -2.2795
16589TIP3    H271259   0.386   1.292   1.143  0.1187  0.5263  0.3007
16590TIP3   OH271260   3.887   1.605  12.883  0.1834 -0.5813 -0.2763
16590TIP3    H171261   3.970   1.653  12.880 -0.2231  0.2699  1.3149
16590TIP3    H271262   3.850   1.625  12.968 -1.6172 -1.0541 -0.8959
16591TIP3   OH271263   5.333   4.669  13.768 -0.4537 -0.5387  0.0929
16591TIP3    H171264   5.282   4.665  13.849  1.8219  1.0210  1.7040
16591TIP3    H271265   5.391   4.593  13.773  0.9652  0.5650  0.8874
16592TIP3   OH271266   5.256   3.499   2.197  0.4029  0.1112  0.5194
16592TIP3    H171267   5.225   3.576   2.149  1.4230  0.5899  0.6087
16592TIP3    H271268   5.198   3.428   2.168  1.3964  0.2226 -1.9689
16593TIP3   OH271269   5.793   3.698   2.401  0.0797 -0.2704 -0.4752
16593TIP3    H171270   5.699   3.712   2.389  0.0392  0.0760  0.2327
16593TIP3    H271271   5.799   3.614   2.447  0.2027 -1.1547 -2.0099
16594TIP3   OH271272   1.269   2.729   0.544 -0.0476  0.2598 -0.3633
16594TIP3    H171273   1.279   2.636   0.567 -1.0238 -0.0400 -1.0768
16594TIP3    H271274   1.290   2.776   0.625 -1.4379 -0.6742  0.5905
16595TIP3   OH271275   1.276   6.075  11.125  0.5463 -0.1535 -0.1046
16595TIP3    H171276   1.338   6.050  11.056  0.6516 -0.9685  0.2759
16595TIP3    H271277   1.287   6.170  11.133  0.8357 -0.1066 -0.9137
16596TIP3   OH271278   1.246   1.573  16.903  0.1383  0.1097 -0.0919
16596TIP3    H171279   1.205   1.625  16.834  0.8802 -0.3788 -0.9240
16596TIP3    H271280   1.337   1.564  16.875  0.5502  0.2224  1.1493
16597TIP3   OH271281   2.361   2.735   1.278  0.3455  0.2052  0.0767
16597TIP3    H171282   2.331   2.651   1.313  2.2447 -0.1313  1.0783
16597TIP3    H271283   2.363   2.722   1.183  2.2200 -1.5438  0.2684
16598TIP3   OH271284   0.366   4.271   1.008 -0.3231 -0.2541  0.2345
16598TIP3    H171285   0.285   4.320   0.997 -1.0334 -1.1662  1.2267
16598TIP3    H271286   0.342   4.181   0.987  0.2559 -0.6442  1.1926
16599TIP3   OH271287   0.622   6.332  12.260 -0.1656  0.0461  0.1343
16599TIP3    H171288   0.593   6.395  12.325 -1.2460 -1.9901  1.7590
16599TIP3    H271289   0.704   6.297  12.296 -0.0265 -0.1030 -0.3185
16600TIP3   OH271290   0.360   1.245   6.026  0.0660 -0.3186 -0.1158
16600TIP3    H171291   0.302   1.303   5.976 -2.2778 -0.2063  2.4824
16600TIP3    H271292   0.447   1.282   6.013 -1.1093  2.7760  0.0155
16601TIP3   OH271293   4.592   0.344   2.288  0.1223  0.1916  0.1130
16601TIP3    H171294   4.591   0.439   2.304  1.3953  0.2823 -0.2101
16601TIP3    H271295   4.523   0.309   2.345 -2.2601  1.5813 -1.7071
16602TIP3   OH271296   6.171   4.949   2.655  0.7358 -0.1615  0.2464
16602TIP3    H171297   6.159   4.897   2.734 -1.1753  1.6408  1.2106
16602TIP3    H271298   6.262   4.980   2.660  0.6690 -0.1466  1.6923
16603TIP3   OH271299   4.066   1.116   0.187  0.5028  0.2782  0.1441
16603TIP3    H171300   4.150   1.149   0.155  0.1215  0.2513 -0.9373
16603TIP3    H271301   4.000   1.171   0.142 -0.0521  0.5494  1.2587
16604TIP3   OH271302   4.394   2.527  15.603  0.5303 -0.2687 -0.4274
16604TIP3    H171303   4.331   2.460  15.579  0.7213 -0.9093  0.8034
16604TIP3    H271304   4.341   2.601  15.633  0.3307 -1.2989  1.9130
16605TIP3   OH271305   0.666   0.830  16.445 -0.4968  0.6230 -0.1555
16605TIP3    H171306   0.760   0.814  16.450 -0.4045  0.3090 -2.0400
16605TIP3    H271307   0.642   0.863  16.532  1.2652  0.3327  0.4765
16606TIP3   OH271308   3.060   5.898  12.983  0.1907  0.1008 -0.0297
16606TIP3    H171309   3.066   5.854  13.067 -1.8072 -0.0878  0.0794
16606TIP3    H271310   3.032   5.829  12.922  0.3515  0.5094 -0.5770
16607TIP3   OH271311   0.953   5.018   5.424  0.2663  0.3411 -0.4986
16607TIP3    H171312   0.973   5.075   5.350  1.8480 -0.7138 -0.9340
16607TIP3    H271313   0.914   5.076   5.490 -0.0762  1.5078 -1.6926
16608TIP3   OH271314   1.200   5.359  16.481  0.3251 -0.2842  0.6567
16608TIP3    H171315   1.184   5.422  16.551 -0.0899  0.5195 -0.1227
16608TIP3    H271316   1.223   5.414  16.405 -0.9240 -1.0072 -0.2774
16609TIP3   OH271317   5.990   0.868   3.938 -0.2155  0.1153  0.0131
16609TIP3    H171318   5.978   0.927   3.863 -1.7690  0.9253  0.8484
16609TIP3    H271319   6.084   0.848   3.937  0.0295  1.1345 -1.3783
16610TIP3   OH271320   2.408   0.499   6.717  0.1538 -0.1427 -0.0750
16610TIP3    H171321   2.398   0.593   6.700 -0.1982 -0.5619 -2.5666
16610TIP3    H271322   2.319   0.467   6.728  0.2568 -0.2590  0.4703
16611TIP3   OH271323   2.483   1.481   3.259 -0.0136 -0.1920 -0.4563
16611TIP3    H171324   2.437   1.453   3.180 -0.3337 -1.6700  0.2265
16611TIP3    H271325   2.498   1.575   3.246  1.9575 -0.7648 -3.2680
16612TIP3   OH271326   3.606   3.471   3.342  0.1634  0.8077  0.4033
16612TIP3    H171327   3.593   3.444   3.251  2.2679  0.3505  0.1857
16612TIP3    H271328   3.596   3.391   3.393 -1.7919  1.1976  0.7162
16613TIP3   OH271329   4.134   5.845  13.144  0.3571  0.3922 -0.4474
16613TIP3    H171330   4.141   5.883  13.056  1.4715  0.5123 -0.3252
16613TIP3    H271331   4.215   5.796  13.154 -0.3453 -0.7124  0.0216
16614TIP3   OH271332   2.293   3.259   2.055  0.2614 -0.2740 -0.2973
16614TIP3    H171333   2.385   3.266   2.028  0.2767 -1.8886 -0.7659
16614TIP3    H271334   2.281   3.330   2.118  1.8952 -0.1899 -0.0327
16615TIP3   OH271335   0.742   4.530  16.833  0.0729 -0.1638  0.3072
16615TIP3    H171336   0.684   4.554  16.905  0.9519  0.6406  0.7772
16615TIP3    H271337   0.693   4.551  16.754 -0.1737  0.7652  0.6979
16616TIP3   OH271338   4.499   1.552   3.466  0.2590  0.0125 -0.3883
16616TIP3    H171339   4.507   1.618   3.535 -0.0163  0.1568 -0.4935
16616TIP3    H271340   4.563   1.579   3.400 -0.5510  0.7538 -0.8964
16617TIP3   OH271341   1.467   1.037   0.380  0.4725 -0.4057  0.2205
16617TIP3    H171342   1.391   0.991   0.416  2.4426 -2.1271  2.5222
16617TIP3    H271343   1.435   1.125   0.362 -2.1642 -1.1656  0.6416
16618TIP3   OH271344   6.120   2.083   4.980 -0.2830  0.4342 -0.2154
16618TIP3    H171345   6.175   2.039   5.045 -0.7122 -2.0209 -1.3976
16618TIP3    H271346   6.034   2.089   5.022 -0.6566 -1.4874 -0.5941
16619TIP3   OH271347   0.255   2.070   4.938 -0.0127  0.4617 -0.1426
16619TIP3    H171348   0.184   2.006   4.931  0.0507  0.3578  0.1606
16619TIP3    H271349   0.303   2.045   5.017 -0.6167  1.5138  0.5914
16620TIP3   OH271350   0.152   1.746   5.831  0.2625  0.1682  0.3917
16620TIP3    H171351   0.088   1.817   5.827  1.0007  0.8192 -0.1617
16620TIP3    H271352   0.146   1.704   5.745  1.8064  1.3548 -0.3435
16621TIP3   OH271353   6.205   1.702  13.321  0.0054 -0.0663 -0.0314
16621TIP3    H171354   6.287   1.729  13.360  0.3195 -1.0781  0.0456
16621TIP3    H271355   6.190   1.763  13.249  0.6675  0.3046  0.1474
16622TIP3   OH271356   3.957   1.397   4.743 -0.1759 -0.3152  0.9955
16622TIP3    H171357   4.040   1.423   4.704 -0.1154 -2.6578 -0.6193
16622TIP3    H271358   3.982   1.343   4.818 -0.2295 -0.6929  0.7442
16623TIP3   OH271359   2.329   2.574  15.377 -0.0278 -0.6410  0.1319
16623TIP3    H171360   2.413   2.532  15.397  0.1109 -0.1706  0.5887
16623TIP3    H271361   2.313   2.555  15.285  1.0092 -0.0337 -0.1934
16624TIP3   OH271362   5.091   4.856   6.862  0.2822  0.0357  0.5701
16624TIP3    H171363   5.025   4.788   6.852 -0.0487 -0.0225  2.6319
16624TIP3    H271364   5.095   4.899   6.777 -0.8976 -1.2926 -0.2023
16625TIP3   OH271365   6.119   4.003   1.114 -0.1615  0.3974  0.2495
16625TIP3    H171366   6.130   3.917   1.072  1.1104  0.3612  0.6115
16625TIP3    H271367   6.117   3.984   1.207 -0.0835  0.7392  0.3227
16626TIP3   OH271368   2.946   0.480  17.038 -0.0793  0.0117 -0.7028
16626TIP3    H171369   2.915   0.508  16.952  1.8657  1.9426 -0.8678
16626TIP3    H271370   2.934   0.557  17.094  1.3845 -0.2286 -0.0142
16627TIP3   OH271371   0.251   4.428  14.288  0.0948 -0.4379  0.3904
16627TIP3    H171372   0.336   4.461  14.318 -1.0152  0.6219  2.6204
16627TIP3    H271373   0.187   4.477  14.340 -1.8991 -1.2167 -1.2162
16628TIP3   OH271374   0.708   5.058  14.475  0.0298 -0.1455 -0.1183
16628TIP3    H171375   0.633   5.009  14.507  0.0782 -0.8105 -0.9642
16628TIP3    H271376   0.681   5.150  14.479 -1.5224 -0.4414 -2.0233
16629TIP3   OH271377   6.205   3.286   5.263 -0.3407 -0.2911 -0.1952
16629TIP3    H171378   6.173   3.207   5.305 -0.1797 -0.4109 -0.2969
16629TIP3    H271379   6.127   3.329   5.229 -0.8721  1.3516  2.7874
16630TIP3   OH271380   1.706   2.586  10.981  0.6831  0.2389  0.0207
16630TIP3    H171381   1.751   2.614  10.902 -2.0586  1.2013 -1.3546
16630TIP3    H271382   1.681   2.495  10.963  1.1496  0.0560  0.3075
16631TIP3   OH271383   3.593   2.568   1.705 -0.3026 -0.2589  0.4304
16631TIP3    H171384   3.508   2.571   1.748  0.1877 -0.1984  1.4391
16631TIP3    H271385   3.621   2.477   1.714  0.1333 -0.0838  0.9382
16632TIP3   OH271386   5.615   3.199   5.839 -0.0632  0.2328 -0.2546
16632TIP3    H171387   5.605   3.220   5.932 -0.1566  0.4619 -0.3150
16632TIP3    H271388   5.693   3.248   5.812  2.1291 -2.5452  0.5213
16633TIP3   OH271389   0.187   0.115  11.199 -0.1946  0.0200  0.5008
16633TIP3    H171390   0.260   0.092  11.141 -0.6666  1.0335 -0.5225
16633TIP3    H271391   0.139   0.033  11.211 -0.5160 -0.0497 -1.1496
16634TIP3   OH271392   3.482   3.020  11.789  0.1969 -0.0970 -0.1127
16634TIP3    H171393   3.459   2.929  11.808 -1.1766  0.2026 -0.2366
16634TIP3    H271394   3.554   3.014  11.726 -0.8779 -1.1182 -1.2886
16635TIP3   OH271395   1.021   1.844   3.134 -0.4561 -0.3830  0.2394
16635TIP3    H171396   0.959   1.781   3.098 -1.2929 -0.3047  1.4937
16635TIP3    H271397   1.010   1.922   3.080 -0.6132 -0.7597 -0.2767
16636TIP3   OH271398   3.076   0.101  12.641 -0.2169 -0.1538  0.8838
16636TIP3    H171399   3.111   0.067  12.559 -0.5286  0.6873  0.3973
16636TIP3    H271400   3.093   0.195  12.638 -0.3148 -0.1013  1.7417
16637TIP3   OH271401   0.911   3.805  11.422  0.0362 -0.7461 -0.1403
16637TIP3    H171402   0.818   3.790  11.404 -0.0594  1.6081 -2.1220
16637TIP3    H271403   0.955   3.780  11.340  0.7969  0.7037 -0.2026
16638TIP3   OH271404   5.903   5.183  15.987 -0.2714 -0.4062  0.0818
16638TIP3    H171405   5.939   5.224  15.908  2.8505 -2.6412  0.1769
16638TIP3    H271406   5.835   5.124  15.954 -1.7395  1.4609 -0.4417
16639TIP3   OH271407   4.413   5.165  14.300  0.4374 -0.3235  0.8170
16639TIP3    H171408   4.323   5.147  14.329  1.2816 -1.7994  2.7372
16639TIP3    H271409   4.405   5.179  14.206 -1.8706  0.1189  1.0095
16640TIP3   OH271410   5.682   3.513   1.399  0.2464  0.1518  0.3247
16640TIP3    H171411   5.623   3.541   1.329  0.8933 -1.2649 -0.8449
16640TIP3    H271412   5.674   3.582   1.466 -2.5530  0.1383  0.1518
16641TIP3   OH271413   0.287   1.479   3.797 -0.5097  0.4649  1.0923
16641TIP3    H171414   0.269   1.537   3.724  1.7254 -0.0543  0.0475
16641TIP3    H271415   0.235   1.401   3.780 -0.7286  0.7282  0.5546
16642TIP3   OH271416   3.076   5.011  13.439  0.7041 -0.2289 -0.0936
16642TIP3    H171417   3.137   5.067  13.391 -1.4236  0.8688 -1.7004
16642TIP3    H271418   3.055   5.062  13.517  1.1665 -0.2217  0.0306
16643TIP3   OH271419   4.568   1.047  13.410  0.5919  0.1620 -0.1011
16643TIP3    H171420   4.592   0.980  13.345  0.7304 -0.1070  0.2222
16643TIP3    H271421   4.642   1.049  13.470  0.3101  0.1520  0.2508
16644TIP3   OH271422   1.342   3.634   4.997  0.2707  0.2400 -0.0426
16644TIP3    H171423   1.260   3.676   4.968 -0.9453 -1.0161  1.4182
16644TIP3    H271424   1.368   3.685   5.073  0.4398  0.1600 -0.0486
16645TIP3   OH271425   4.497   4.713  14.120 -0.3964  0.4663  0.0687
16645TIP3    H171426   4.473   4.683  14.208  0.4826  1.2666  0.5958
16645TIP3    H271427   4.557   4.785  14.135 -0.0336  0.4487 -1.2032
16646TIP3   OH271428   1.226   0.672   3.205  0.7747 -0.2464  0.2539
16646TIP3    H171429   1.277   0.730   3.148  0.9428 -2.2421 -1.7499
16646TIP3    H271430   1.192   0.605   3.147  0.1829 -1.9150  2.4017
16647TIP3   OH271431   2.595   6.438  12.822  0.0167 -0.0973  0.2653
16647TIP3    H171432   2.679   6.485  12.818  0.0394 -0.2280 -1.7077
16647TIP3    H271433   2.529   6.506  12.806 -0.0321 -0.4626 -1.2280
16648TIP3   OH271434   2.565   3.908   2.945 -0.5667 -0.9958 -0.1200
16648TIP3    H171435   2.639   3.849   2.961 -1.0248 -1.2988  0.9886
16648TIP3    H271436   2.550   3.950   3.030 -0.5398  0.3893 -0.7740
16649TIP3   OH271437   4.706   1.821  16.486 -0.3663  0.3792  0.2854
16649TIP3    H171438   4.710   1.728  16.509 -0.3883  0.4852  0.7342
16649TIP3    H271439   4.788   1.839  16.440 -0.5539  0.0381 -0.1888
16650TIP3   OH271440   3.973   0.687   4.789 -0.1106  0.0684  1.1994
16650TIP3    H171441   3.987   0.592   4.794 -0.7370  0.0074  1.9744
16650TIP3    H271442   3.884   0.700   4.821 -0.5052  0.8028 -0.1366
16651TIP3   OH271443   1.664   6.623  12.528  0.1130  0.2771  0.0576
16651TIP3    H171444   1.683   6.531  12.545  0.0164  0.3699  0.7117
16651TIP3    H271445   1.684   6.636  12.436 -2.0313 -0.9490 -0.6480
16652TIP3   OH271446   6.184   0.408   5.957  0.1893 -0.0526 -0.1936
16652TIP3    H171447   6.099   0.429   5.997  0.2743  0.2708 -0.1775
16652TIP3    H271448   6.168   0.329   5.906 -0.4942  0.8509 -1.4129
16653TIP3   OH271449   1.975   1.592   2.908  0.0033 -0.6413 -0.6364
16653TIP3    H171450   1.890   1.563   2.876 -0.1630 -0.8265 -0.0329
16653TIP3    H271451   1.960   1.682   2.937 -0.1754 -0.9253  0.1754
16654TIP3   OH271452   3.953   5.440  16.961 -0.2489 -0.3897 -0.2728
16654TIP3    H171453   3.955   5.521  16.910  0.4660 -1.0228 -1.2967
16654TIP3    H271454   3.949   5.470  17.052 -0.0907  0.7941 -0.6278
16655TIP3   OH271455   0.500   5.013  13.396 -0.6152 -0.1838 -0.2476
16655TIP3    H171456   0.433   4.945  13.398  0.5321 -1.3431 -0.2306
16655TIP3    H271457   0.574   4.973  13.349 -0.1596  1.2827 -0.8468
16656TIP3   OH271458   1.947   3.981   3.817 -0.1751  0.7443 -0.2384
16656TIP3    H171459   1.948   3.981   3.722 -1.0328 -0.6551 -0.2795
16656TIP3    H271460   1.971   4.070   3.842  1.0039  0.8773 -1.7358
16657TIP3   OH271461   5.203   2.751   1.513  0.3557 -0.3889 -0.1613
16657TIP3    H171462   5.196   2.685   1.444  0.8543 -0.0831 -0.5036
16657TIP3    H271463   5.203   2.834   1.467 -2.2750 -0.0086  0.3589
16658TIP3   OH271464   5.978   2.199   1.162  0.0940  0.0992  0.7051
16658TIP3    H171465   5.926   2.241   1.230 -0.1530 -0.4196  0.8456
16658TIP3    H271466   6.018   2.271   1.114 -1.5857  0.5802 -0.0772
16659TIP3   OH271467   2.014   5.977  11.404 -0.3198 -0.3585 -0.2922
16659TIP3    H171468   1.947   5.944  11.344  0.4511 -0.3883 -1.1604
16659TIP3    H271469   1.977   5.963  11.491 -0.1406 -3.3524 -0.5933
16660TIP3   OH271470   2.880   5.812   1.167  0.4455 -0.1940 -0.4576
16660TIP3    H171471   2.806   5.770   1.212 -0.9320  1.1108 -1.4124
16660TIP3    H271472   2.878   5.775   1.078  2.8178 -2.3459  0.2468
16661TIP3   OH271473   2.134   4.798   1.427 -0.6072  0.6460 -0.3532
16661TIP3    H171474   2.078   4.874   1.410 -0.8426  0.7867  0.9961
16661TIP3    H271475   2.097   4.757   1.505  1.8197  1.4346  1.3404
16662TIP3   OH271476   6.152   4.978  17.412 -0.0468 -0.2004 -0.4677
16662TIP3    H171477   6.211   4.903  17.413  0.1381 -0.0614 -0.7050
16662TIP3    H271478   6.149   5.008  17.503 -0.9336 -1.1226 -0.1782
16663TIP3   OH271479   5.864   5.345  12.295 -0.2622  0.6825  0.4382
16663TIP3    H171480   5.922   5.274  12.270 -1.2326 -0.2180  0.6832
16663TIP3    H271481   5.909   5.389  12.367  0.5870  0.6600 -0.0689
16664TIP3   OH271482   4.670   5.927  14.645 -0.0934  0.2820  0.5376
16664TIP3    H171483   4.702   5.984  14.575  0.3027  0.5798  0.9543
16664TIP3    H271484   4.612   5.865  14.601 -2.1506  2.2250  0.3056
16665TIP3   OH271485   6.457   5.424   1.871 -0.2746 -0.0274 -0.0532
16665TIP3    H171486   6.522   5.389   1.931 -0.4912  0.2816  0.3616
16665TIP3    H271487   6.379   5.371   1.886 -0.2795 -0.0602 -0.1856
16666TIP3   OH271488   1.361   1.403   1.617  0.6904  0.0350  0.6389
16666TIP3    H171489   1.281   1.446   1.588  1.0241  0.7346  0.7355
16666TIP3    H271490   1.333   1.345   1.689  0.3385  0.5861  0.9489
16667TIP3   OH271491   0.401   3.967   0.301 -0.5127  0.1291 -0.0002
16667TIP3    H171492   0.417   3.885   0.255 -3.2923 -0.0205 -0.9290
16667TIP3    H271493   0.410   4.035   0.234 -0.8941  0.2898  0.1046
16668TIP3   OH271494   0.151   6.192   5.696  0.2231 -0.0602  0.1530
16668TIP3    H171495   0.075   6.143   5.666  0.0252 -1.0231  2.0599
16668TIP3    H271496   0.189   6.138   5.765  1.3644  1.4056  0.7432
16669TIP3   OH271497   3.037   6.540   3.713  0.4867  0.1523  0.5176
16669TIP3    H171498   3.101   6.478   3.679  0.3617 -0.3854  1.2386
16669TIP3    H271499   3.089   6.613   3.748  0.6065  0.9330 -1.1850
16670TIP3   OH271500   5.694   5.872   0.893 -0.3855  0.1719  0.1267
16670TIP3    H171501   5.730   5.883   0.981  0.8139  0.4715 -0.3797
16670TIP3    H271502   5.616   5.927   0.893 -2.7006 -2.7768  2.1996
16671TIP3   OH271503   0.193   5.754  13.229  0.1900 -0.5733  0.6474
16671TIP3    H171504   0.209   5.769  13.136 -0.9641  2.2297  0.8046
16671TIP3    H271505   0.276   5.776  13.271  0.8284 -2.1985  0.2990
16672TIP3   OH271506   5.488   2.506  16.585 -0.5138  0.2568  0.4719
16672TIP3    H171507   5.409   2.454  16.569 -0.5100  0.2355  0.5195
16672TIP3    H271508   5.543   2.492  16.509 -2.2146  3.4015 -1.5797
16673TIP3   OH271509   5.140   4.631  16.455  0.1636  0.5434 -0.3372
16673TIP3    H171510   5.073   4.678  16.505  2.9257  2.2162  2.0778
16673TIP3    H271511   5.179   4.698  16.399  1.0379  0.0492 -0.3308
16674TIP3   OH271512   5.092   4.995  12.731 -0.0118 -0.2878 -0.2208
16674TIP3    H171513   5.037   5.032  12.661 -1.7610 -2.2055  0.0108
16674TIP3    H271514   5.143   4.927  12.687 -0.1196 -0.5832  0.1032
16675TIP3   OH271515   5.840   1.264  12.511  0.3593 -0.4624 -0.4145
16675TIP3    H171516   5.816   1.204  12.441 -1.5643 -1.4009  0.9656
16675TIP3    H271517   5.925   1.232  12.542 -0.2528 -1.9985 -0.2391
16676TIP3   OH271518   0.608   1.012   6.085 -0.4675  0.5084 -0.3635
16676TIP3    H171519   0.650   0.957   6.019  0.7265  0.9177  0.0289
16676TIP3    H271520   0.659   0.998   6.164 -1.7281  0.2257  0.4206
16677TIP3   OH271521   4.258   1.568  12.898 -0.3843  0.2973  0.2218
16677TIP3    H171522   4.308   1.522  12.965  0.9744  0.1115 -0.8790
16677TIP3    H271523   4.202   1.628  12.947 -1.0152 -1.3387  1.6205
16678TIP3   OH271524   5.006   3.043   4.543  0.0120  0.0073 -0.0074
16678TIP3    H171525   5.060   3.007   4.613  0.0449 -0.4272 -0.2496
16678TIP3    H271526   4.950   2.970   4.517 -2.2241  1.0097  1.6765
16679TIP3   OH271527   4.637   4.677   1.526  0.3619  0.0598  0.0287
16679TIP3    H171528   4.671   4.593   1.497 -3.6088 -1.1822 -1.6774
16679TIP3    H271529   4.670   4.740   1.461 -2.8737 -1.6269 -3.6523
16680TIP3   OH271530   2.224   3.266  17.403 -0.5531  0.7225 -0.2632
16680TIP3    H171531   2.245   3.321  17.477  0.0043  0.3557 -0.1384
16680TIP3    H271532   2.224   3.177  17.438 -0.3941  0.5556 -0.6685
16681TIP3   OH271533   6.090   1.943   0.468 -0.1628  0.0364 -0.5185
16681TIP3    H171534   6.064   1.951   0.560  1.0009  0.3483 -0.2062
16681TIP3    H271535   6.011   1.913   0.423 -1.1586  1.2268  0.3594
16682TIP3   OH271536   3.768   3.700  16.187 -0.7427  0.0029  0.3237
16682TIP3    H171537   3.831   3.715  16.257  1.4771 -1.1011 -1.3303
16682TIP3    H271538   3.763   3.784  16.141  0.8826 -0.3207 -0.5267
16683TIP3   OH271539   5.302   6.568  11.741  0.0405 -0.1203 -0.3761
16683TIP3    H171540   5.250   6.507  11.690 -2.1026  0.4293  1.0441
16683TIP3    H271541   5.300   6.533  11.830 -0.8684  1.7206  0.3743
16684TIP3   OH271542   3.509   3.712   0.937  0.3664  0.0436  0.2270
16684TIP3    H171543   3.602   3.721   0.960  0.7399 -0.4598 -1.0192
16684TIP3    H271544   3.506   3.636   0.879 -0.8111  0.1389  0.1532
16685TIP3   OH271545   1.029   1.232   5.871 -0.3870 -0.0825  0.2649
16685TIP3    H171546   1.006   1.186   5.789  0.2745  0.9918 -0.5516
16685TIP3    H271547   0.983   1.183   5.939  0.2197 -1.9132 -0.5738
16686TIP3   OH271548   3.648   1.314  16.678  0.0331  0.4043 -0.1189
16686TIP3    H171549   3.554   1.295  16.686  0.2436 -0.2315  1.2531
16686TIP3    H271550   3.686   1.231  16.648  0.2066  0.5478 -0.2949
16687TIP3   OH271551   4.945   4.508  15.285  0.0042  0.2253 -0.1725
16687TIP3    H171552   4.992   4.459  15.217  0.4029  0.3016  0.0420
16687TIP3    H271553   4.907   4.582  15.239 -1.8123 -1.0119 -0.7828
16688TIP3   OH271554   6.575   1.941  16.160  0.1447 -0.1517 -0.5863
16688TIP3    H171555   6.511   2.005  16.191  0.8803  0.1135  0.4306
16688TIP3    H271556   6.558   1.862  16.211  0.1192 -0.3350 -0.8749
16689TIP3   OH271557   2.786   6.235   4.888 -0.0829  0.2682 -0.4155
16689TIP3    H171558   2.850   6.246   4.818  1.6074 -0.3742  0.9560
16689TIP3    H271559   2.819   6.162   4.940 -1.2998  0.6960  1.0449
16690TIP3   OH271560   1.370   5.643  14.650  0.2638 -0.5779  0.0859
16690TIP3    H171561   1.309   5.631  14.723  0.5649 -0.9795  0.2782
16690TIP3    H271562   1.394   5.554  14.624 -0.8651 -0.4867 -1.3959
16691TIP3   OH271563   1.804   2.335  11.193  0.0239  0.0579  0.1499
16691TIP3    H171564   1.750   2.318  11.116  2.9457 -0.8897 -1.8412
16691TIP3    H271565   1.818   2.250  11.233 -0.3626  0.3718  0.9892
16692TIP3   OH271566   4.393   4.032  12.557  0.2505  0.1356  0.4900
16692TIP3    H171567   4.386   3.959  12.618  0.1578 -0.1565  0.1379
16692TIP3    H271568   4.316   4.086  12.576 -0.0846 -0.2498  0.2578
16693TIP3   OH271569   6.554   3.322   0.944 -0.0063 -0.1332 -0.3594
16693TIP3    H171570   6.500   3.378   1.000  0.0222 -0.5181  0.0527
16693TIP3    H271571   6.490   3.274   0.890 -0.0104  1.3350 -1.7608
16694TIP3   OH271572   1.403   6.747  12.488 -0.3547  0.0944 -0.7547
16694TIP3    H171573   1.388   6.710  12.401 -1.5115 -0.4969 -0.3256
16694TIP3    H271574   1.497   6.738  12.502 -0.5982 -3.1777 -0.4748
16695TIP3   OH271575   2.791   3.128  14.195  0.0507 -0.7077 -0.1505
16695TIP3    H171576   2.789   3.103  14.287 -0.8047 -0.6109 -0.1332
16695TIP3    H271577   2.754   3.053  14.149 -2.1376  0.3078 -0.1360
16696TIP3   OH271578   3.540   3.552   5.559  0.0192 -0.1985 -0.2707
16696TIP3    H171579   3.606   3.621   5.548 -0.0455  0.2412  1.6811
16696TIP3    H271580   3.459   3.600   5.574 -0.4953 -0.7349 -1.2668
16697TIP3   OH271581   0.759   0.630   0.413 -0.2064  0.6409 -0.0830
16697TIP3    H171582   0.826   0.580   0.366 -0.5693  0.3680 -0.3115
16697TIP3    H271583   0.806   0.707   0.445  0.6725 -0.4742  1.4289
16698TIP3   OH271584   1.006   0.394  15.326 -0.0984 -0.5909  0.1178
16698TIP3    H171585   1.098   0.368  15.324  0.2328  0.5597 -0.8055
16698TIP3    H271586   0.970   0.356  15.246  0.2966  1.3511 -1.0362
16699TIP3   OH271587   2.649   6.090   2.660  0.4021  0.5325 -0.6408
16699TIP3    H171588   2.680   6.019   2.603  0.1723  0.9541 -1.3028
16699TIP3    H271589   2.558   6.103   2.635  0.6197  1.4913 -0.9911
16700TIP3   OH271590   6.078   1.846  11.323  0.2855  0.4845  0.1640
16700TIP3    H171591   5.992   1.819  11.289 -0.3960  1.6212  0.9456
16700TIP3    H271592   6.133   1.852  11.245  0.3185 -2.4340 -0.1433
16701TIP3   OH271593   0.760   3.412  13.583 -0.0685 -0.0331  0.2608
16701TIP3    H171594   0.780   3.320  13.601 -2.7683 -0.5726  0.9248
16701TIP3    H271595   0.730   3.446  13.667  0.3158  1.2928 -0.1268
16702TIP3   OH271596   4.347   5.151   4.540 -0.4726  0.1451 -0.8772
16702TIP3    H171597   4.320   5.237   4.572 -1.6592 -0.0225 -1.3699
16702TIP3    H271598   4.293   5.089   4.589  2.3131 -0.5785  1.5566
16703TIP3   OH271599   2.099   5.051   1.112  0.1974  0.1125 -0.3143
16703TIP3    H171600   2.012   5.034   1.075  0.1234 -1.6617  0.5766
16703TIP3    H271601   2.159   5.010   1.049  0.4342  1.4070 -0.9719
16704TIP3   OH271602   2.456   0.105   3.794  0.0247 -0.1152  0.0765
16704TIP3    H171603   2.433   0.161   3.720  1.3232  0.8986  0.3951
16704TIP3    H271604   2.547   0.081   3.778 -0.2412 -1.4280  0.4134
16705TIP3   OH271605   1.963   0.978  15.264  0.2525 -0.6606 -0.1405
16705TIP3    H171606   1.913   0.902  15.292 -0.7398 -0.6505 -1.7510
16705TIP3    H271607   2.050   0.944  15.244  1.3240 -0.5267  3.5905
16706TIP3   OH271608   4.619   5.413   6.047  0.4201  0.6345 -0.1594
16706TIP3    H171609   4.664   5.421   5.963  0.7375  2.0173  0.1141
16706TIP3    H271610   4.526   5.417   6.025  0.4862  0.2771 -0.5110
16707TIP3   OH271611   6.003   4.511  14.627 -0.0327  0.5543  0.1337
16707TIP3    H171612   6.020   4.601  14.654 -1.6332  0.5859  1.1571
16707TIP3    H271613   5.989   4.517  14.532 -2.1874  1.7577  0.4716
16708TIP3   OH271614   4.493   1.093   5.414 -0.5323  0.4677  0.1424
16708TIP3    H171615   4.441   1.171   5.392  1.1178  1.4666 -0.3867
16708TIP3    H271616   4.579   1.110   5.376  0.4212 -0.8155  1.5976
16709TIP3   OH271617   5.167   1.132   2.954  0.0546 -0.1228  0.0230
16709TIP3    H171618   5.079   1.161   2.930  0.7844  0.9251 -1.6269
16709TIP3    H271619   5.203   1.206   3.003 -0.5264 -1.2363  2.2481
16710TIP3   OH271620   4.849   1.609   2.097 -0.0991 -0.4208  0.5060
16710TIP3    H171621   4.893   1.563   2.025  0.0467 -1.7456  1.4073
16710TIP3    H271622   4.757   1.611   2.070  0.1562  0.4053 -0.3754
16711TIP3   OH271623   4.766   4.799   4.425 -0.2621  0.4486 -0.6338
16711TIP3    H171624   4.816   4.878   4.406  0.2158  0.1940 -0.4822
16711TIP3    H271625   4.694   4.828   4.481 -0.2354  0.8140 -0.7925
16712TIP3   OH271626   1.541   6.405  13.961 -0.1493  0.4014 -0.5573
16712TIP3    H171627   1.553   6.500  13.956 -1.4777  0.5381 -1.7039
16712TIP3    H271628   1.558   6.375  13.872  1.7582 -0.6667  0.1137
16713TIP3   OH271629   5.761   5.975   6.223 -0.2632  0.2922  0.5324
16713TIP3    H171630   5.743   6.021   6.304  1.9367 -0.1830  1.3684
16713TIP3    H271631   5.796   5.890   6.251  3.4767  1.2307 -0.7367
16714TIP3   OH271632   2.997   2.379   3.784  0.1765 -0.9450  0.8176
16714TIP3    H171633   2.964   2.460   3.824  1.2630  0.4935 -1.0514
16714TIP3    H271634   3.084   2.368   3.822 -0.0145 -1.3297  1.1553
16715TIP3   OH271635   4.790   5.831   5.471  0.1755  0.0134 -0.1113
16715TIP3    H171636   4.816   5.742   5.448  0.1358  0.3634 -1.6143
16715TIP3    H271637   4.834   5.849   5.554  0.8617 -1.0988 -0.2235
16716TIP3   OH271638   5.537   2.093   2.935  0.1952 -0.1816  0.5830
16716TIP3    H171639   5.616   2.056   2.974  0.4852  0.5930  0.7417
16716TIP3    H271640   5.559   2.107   2.843  0.4036  0.4488  0.7216
16717TIP3   OH271641   6.116   2.778  12.530 -0.4408  0.0949 -0.3276
16717TIP3    H171642   6.060   2.789  12.607 -0.2123  0.8169 -0.2625
16717TIP3    H271643   6.154   2.864  12.515 -0.8882  0.0907 -1.5685
16718TIP3   OH271644   2.135   3.238   4.548 -0.1286 -0.5837 -0.3147
16718TIP3    H171645   2.133   3.154   4.502 -0.8727  0.0674 -1.5178
16718TIP3    H271646   2.046   3.273   4.538  0.1115  0.2643  0.3512
16719TIP3   OH271647   6.390   2.505  11.927  0.0890 -0.1694 -0.2725
16719TIP3    H171648   6.443   2.509  12.007 -1.7108 -0.0723  0.9919
16719TIP3    H271649   6.335   2.428  11.939 -0.5547  0.1345 -1.1843
16720TIP3   OH271650   1.458   2.643   2.526 -0.2223 -0.1228  0.8007
16720TIP3    H171651   1.402   2.714   2.496  3.9174  4.0467  1.7518
16720TIP3    H271652   1.509   2.618   2.449  0.5870  0.3176  1.1860
16721TIP3   OH271653   4.256   0.358  16.872  0.4864  0.0275 -0.4320
16721TIP3    H171654   4.274   0.431  16.812  1.3130  0.3340  0.1748
16721TIP3    H271655   4.165   0.370  16.898  0.7411  1.1126  0.0060
16722TIP3   OH271656   6.367   2.309  17.294  0.3525 -0.2194  0.6183
16722TIP3    H171657   6.437   2.321  17.229 -0.6274  2.3609 -0.0771
16722TIP3    H271658   6.413   2.277  17.372  1.9121 -1.0499 -0.5597
16723TIP3   OH271659   6.090   1.508  16.311  0.1623  0.2714  0.2250
16723TIP3    H171660   6.043   1.571  16.257 -0.3293  1.7296  2.2472
16723TIP3    H271661   6.170   1.554  16.336  0.2131 -0.2469  1.0249
16724TIP3   OH271662   3.819   1.797  16.743  0.3292  0.8908 -0.6578
16724TIP3    H171663   3.913   1.785  16.727  0.1494  0.1010 -1.1723
16724TIP3    H271664   3.786   1.708  16.760 -0.7165  0.8260 -2.6902
16725TIP3   OH271665   4.810   5.979   4.497 -0.3224  0.0590  0.2528
16725TIP3    H171666   4.717   5.957   4.497  0.2068 -2.5366  1.1754
16725TIP3    H271667   4.855   5.894   4.504  2.1093  1.2565  0.2710
16726TIP3   OH271668   1.009   4.381   5.730  0.3230 -0.1094 -0.2609
16726TIP3    H171669   1.073   4.370   5.659  1.2808 -0.4307  0.6272
16726TIP3    H271670   1.045   4.330   5.802  0.0472  1.2733  0.8892
16727TIP3   OH271671   3.289   1.909  15.245  0.2528 -0.7389  0.5231
16727TIP3    H171672   3.261   1.955  15.324  0.7454  0.7567 -0.1357
16727TIP3    H271673   3.332   1.976  15.192  1.1743 -2.0050 -0.4072
16728TIP3   OH271674   6.522   6.325  16.422 -0.1496 -0.1322  0.1407
16728TIP3    H171675   6.569   6.402  16.389  0.7855 -0.4404  0.7120
16728TIP3    H271676   6.573   6.296  16.497  0.3739 -2.2141 -0.9450
16729TIP3   OH271677   2.177   2.452  12.357 -0.6634  0.0419 -0.1242
16729TIP3    H171678   2.142   2.434  12.269 -0.8270 -3.4289  0.4803
16729TIP3    H271679   2.268   2.477  12.342 -0.9655  0.4972 -1.3308
16730TIP3   OH271680   3.205   3.307   2.126 -0.2996  0.2543  0.9756
16730TIP3    H171681   3.152   3.386   2.135 -1.6165 -0.5954  0.8252
16730TIP3    H271682   3.249   3.317   2.042 -1.6741  0.1201  0.2250
16731TIP3   OH271683   0.773   4.919  14.123  0.1485  0.3039 -0.1771
16731TIP3    H171684   0.721   4.887  14.050  0.0804  0.8023 -0.3463
16731TIP3    H271685   0.781   4.843  14.181  1.5751 -0.5820 -1.4604
16732TIP3   OH271686   0.157   0.959  11.320  0.3148 -0.0782  0.0520
16732TIP3    H171687   0.109   0.896  11.374 -0.5238  0.3169 -0.2286
16732TIP3    H271688   0.091   1.000  11.265  1.1312 -0.3932 -1.2160
16733TIP3   OH271689   0.398   6.439   0.068  0.2637 -0.2902 -0.3166
16733TIP3    H171690   0.411   6.429  -0.027 -1.3990  1.1859 -0.7473
16733TIP3    H271691   0.360   6.355   0.096 -0.2854 -0.3378 -1.1692
16734TIP3   OH271692   5.008   6.470   6.239 -0.0097  0.0646  0.1789
16734TIP3    H171693   5.069   6.536   6.206  0.7254 -0.3353  0.7002
16734TIP3    H271694   5.046   6.443   6.323 -1.4739  0.5814  1.0427
16735TIP3   OH271695   4.236   6.698   4.270  0.0103  0.0184 -0.4726
16735TIP3    H171696   4.282   6.778   4.244  1.9330 -0.5784  0.8784
16735TIP3    H271697   4.274   6.629   4.216 -0.3040 -0.2623 -0.3375
16736TIP3   OH271698   0.720   5.756   1.497 -0.3308  0.2044  0.2284
16736TIP3    H171699   0.736   5.817   1.569 -0.8161  0.4105  0.1664
16736TIP3    H271700   0.660   5.803   1.438  1.8444  0.9685 -1.5154
16737TIP3   OH271701   0.798   1.679  17.069  0.4742  0.4017 -1.2415
16737TIP3    H171702   0.821   1.586  17.073 -0.6092  0.1341 -0.5638
16737TIP3    H271703   0.727   1.688  17.133  1.4017  1.9621 -0.3925
16738TIP3   OH271704   1.513   5.016   5.023  0.0240  0.1561  0.9842
16738TIP3    H171705   1.421   5.025   4.997  0.7136  1.1850 -1.3710
16738TIP3    H271706   1.533   4.923   5.013 -0.1594  0.2875 -0.8225
16739TIP3   OH271707   4.374   5.409  17.324 -0.4509 -0.5243 -0.1216
16739TIP3    H171708   4.465   5.401  17.353 -0.7427  1.5156  1.5590
16739TIP3    H271709   4.363   5.338  17.261  1.0112 -3.6155  2.7963
16740TIP3   OH271710   2.028   0.546  15.521  0.2119 -0.0152 -0.9504
16740TIP3    H171711   2.107   0.521  15.569  1.5372  1.4314 -2.2666
16740TIP3    H271712   2.019   0.478  15.454 -0.6231 -1.0512  0.1577
16741TIP3   OH271713   0.233   3.085   4.434 -0.6073 -0.2127  0.2120
16741TIP3    H171714   0.243   3.049   4.523  1.5333 -1.5992 -0.5111
16741TIP3    H271715   0.323   3.093   4.402 -1.2474  1.8199 -1.2777
16742TIP3   OH271716   2.238   0.089   0.052 -0.2014  0.1581  0.4084
16742TIP3    H171717   2.143   0.091   0.063 -0.0855 -0.1699  1.5377
16742TIP3    H271718   2.252   0.029  -0.021 -0.9992  2.5849 -1.9313
16743TIP3   OH271719   1.177   2.387  16.894 -0.2649  0.1026 -0.0059
16743TIP3    H171720   1.083   2.375  16.882 -0.1644 -0.4881 -0.2317
16743TIP3    H271721   1.201   2.451  16.827 -0.1586 -1.2724 -1.3405
16744TIP3   OH271722   5.551   1.295  14.449  0.0538 -0.0986  0.0961
16744TIP3    H171723   5.462   1.310  14.480  0.4022  0.2316  0.9446
16744TIP3    H271724   5.570   1.204  14.472 -0.0880 -0.1919 -0.1530
16745TIP3   OH271725   6.089   1.468   1.652 -0.0965  0.0194 -0.0104
16745TIP3    H171726   6.178   1.498   1.673  1.2187 -2.0561 -2.1598
16745TIP3    H271727   6.060   1.528   1.583  0.8454 -1.0085 -1.3437
16746TIP3   OH271728   5.647   5.445   3.075 -0.4522 -0.6723  0.3394
16746TIP3    H171729   5.638   5.350   3.067 -0.1781 -0.5421 -3.4927
16746TIP3    H271730   5.558   5.478   3.060 -0.1055 -0.3382 -1.2081
16747TIP3   OH271731   2.462   4.001   3.193  0.2460 -0.8276  0.2250
16747TIP3    H171732   2.528   3.991   3.261  0.5792 -1.0914 -0.1267
16747TIP3    H271733   2.380   3.977   3.235  0.3509 -0.3508  0.7087
16748TIP3   OH271734   4.872   0.541  16.359  0.7041 -0.6913  0.8376
16748TIP3    H171735   4.911   0.580  16.437  1.1433  1.4248 -0.3644
16748TIP3    H271736   4.937   0.555  16.290  0.4733 -2.8070  0.1185
16749TIP3   OH271737   5.267   6.260  15.269 -0.6340 -0.0213 -0.7422
16749TIP3    H171738   5.234   6.174  15.244 -0.6927  0.0945 -1.0594
16749TIP3    H271739   5.320   6.289  15.195 -1.5865  0.7349 -1.1409
16750TIP3   OH271740   1.367   5.624  16.697  0.2487  0.0354 -0.7974
16750TIP3    H171741   1.435   5.676  16.654  0.0258  0.7467 -0.2895
16750TIP3    H271742   1.285   5.667  16.676  0.1857  0.8244  0.9089
16751TIP3   OH271743   2.514   0.552  14.284 -0.3695 -0.0451 -0.4153
16751TIP3    H171744   2.467   0.603  14.219  0.2674  0.8364 -0.2094
16751TIP3    H271745   2.567   0.617  14.331 -0.3772 -0.7487  0.5837
16752TIP3   OH271746   3.740   1.645   5.324 -0.3022 -0.3225 -0.0993
16752TIP3    H171747   3.785   1.577   5.275 -1.1109 -0.6652 -0.3765
16752TIP3    H271748   3.807   1.713   5.338 -0.0447 -0.2197 -1.6566
16753TIP3   OH271749   6.588   5.652  14.775 -0.9083 -0.2994  0.4887
16753TIP3    H171750   6.663   5.603  14.807 -0.0085  0.1811 -0.7949
16753TIP3    H271751   6.590   5.640  14.680 -0.7887  2.0211  0.1374
16754TIP3   OH271752   1.719   2.353   4.972  0.1998  0.3741 -0.1257
16754TIP3    H171753   1.803   2.322   5.004  0.1193 -1.5383 -1.5979
16754TIP3    H271754   1.693   2.421   5.035  2.2267  0.1358  1.0528
16755TIP3   OH271755   2.633   2.454  11.169  0.0204 -0.1611  0.0971
16755TIP3    H171756   2.590   2.438  11.253 -0.0279 -1.5287 -0.1756
16755TIP3    H271757   2.721   2.418  11.180  0.4371  0.7874 -0.0360
16756TIP3   OH271758   1.797   2.148  14.791  0.2354  0.2004  0.3515
16756TIP3    H171759   1.884   2.173  14.823 -0.1064  0.2213  1.3109
16756TIP3    H271760   1.792   2.053  14.806 -0.3934  0.4039  1.5748
16757TIP3   OH271761   0.145   6.506  14.356 -0.1780  0.0527 -0.2979
16757TIP3    H171762   0.192   6.587  14.374 -1.0511  0.2619  1.1793
16757TIP3    H271763   0.201   6.436  14.389 -0.4462  0.2330  0.5574
16758TIP3   OH271764   4.692   3.980   4.381 -0.0160  0.1484 -0.0429
16758TIP3    H171765   4.698   3.887   4.360 -0.2492 -0.6505  2.9365
16758TIP3    H271766   4.598   3.998   4.383 -0.0004  0.1887  0.3698
16759TIP3   OH271767   3.415   4.449   0.113 -0.3506  0.0112  0.6457
16759TIP3    H171768   3.420   4.535   0.156 -0.1244  0.5143 -0.3597
16759TIP3    H271769   3.321   4.430   0.108 -0.5149  1.0318 -0.6939
16760TIP3   OH271770   2.567   0.838  13.796  0.0966  0.2757 -0.1240
16760TIP3    H171771   2.513   0.778  13.745  1.0357  0.0543 -0.8847
16760TIP3    H271772   2.595   0.787  13.871  0.3203 -0.0262 -0.4091
16761TIP3   OH271773   1.114   4.294   4.638  0.6480  0.1962  0.5731
16761TIP3    H171774   1.138   4.366   4.698  2.1584 -0.4048  0.7284
16761TIP3    H271775   1.187   4.288   4.578  0.2839 -0.8762  0.2248
16762TIP3   OH271776   5.743   6.744   5.572  0.3830 -0.5343 -0.2247
16762TIP3    H171777   5.786   6.767   5.655 -0.6322  1.5853 -0.2308
16762TIP3    H271778   5.765   6.816   5.513  0.7768 -1.8234 -1.7301
16763TIP3   OH271779   4.256   4.961   1.791  0.6981 -0.6773  0.1133
16763TIP3    H171780   4.255   4.975   1.885  1.2983  0.2772 -0.0131
16763TIP3    H271781   4.348   4.962   1.767  0.5699 -1.2560 -0.4438
16764TIP3   OH271782   0.558   1.029   5.509 -0.3398  0.2175  0.1694
16764TIP3    H171783   0.526   0.965   5.446  0.6147  1.2370 -1.4359
16764TIP3    H271784   0.646   1.000   5.531 -0.1778  0.5860  0.0067
16765TIP3   OH271785   6.101   2.151   2.690  0.1428  0.0831  0.3879
16765TIP3    H171786   6.182   2.170   2.644 -1.8702  1.3290 -2.9827
16765TIP3    H271787   6.087   2.226   2.748  0.0147  1.3358 -1.2056
16766TIP3   OH271788   0.304   0.526   6.319 -0.3364  0.1321 -0.2498
16766TIP3    H171789   0.335   0.488   6.401 -0.9011 -0.1463 -0.1661
16766TIP3    H271790   0.360   0.603   6.306 -0.4700  0.3715  0.5673
16767TIP3   OH271791   5.817   3.117   1.946 -0.0162  0.4438  0.0113
16767TIP3    H171792   5.725   3.089   1.949  0.4088 -0.9832  0.5794
16767TIP3    H271793   5.867   3.038   1.965  1.3889  1.0003 -1.1656
16768TIP3   OH271794   3.335   5.170  12.169  0.0599 -0.2407 -0.3511
16768TIP3    H171795   3.275   5.096  12.157  0.3814 -1.2619  3.1222
16768TIP3    H271796   3.280   5.239  12.207  0.5135 -0.1302  0.1101
16769TIP3   OH271797   4.844   0.250  14.086  0.2655 -0.2719 -0.4075
16769TIP3    H171798   4.809   0.248  13.997  0.1992 -2.5404 -0.3906
16769TIP3    H271799   4.939   0.250  14.074  0.2575  0.2679 -0.4737
16770TIP3   OH271800   4.504   6.660  17.273 -0.4888 -0.2993 -0.3575
16770TIP3    H171801   4.454   6.732  17.234 -0.5803  0.6065  1.3450
16770TIP3    H271802   4.569   6.637  17.207 -2.3361 -0.6849 -2.1337
16771TIP3   OH271803   2.246   5.955  12.602  0.7829 -0.0414 -0.6816
16771TIP3    H171804   2.195   6.023  12.559 -2.2316 -0.5343  1.7242
16771TIP3    H271805   2.275   5.994  12.685  1.2175 -0.9012 -0.4027
16772TIP3   OH271806   6.580   0.181  11.251  0.1065 -0.2401 -0.1255
16772TIP3    H171807   6.639   0.233  11.306  0.2396 -1.3927  0.8784
16772TIP3    H271808   6.627   0.099  11.238 -0.1043 -0.1460 -1.6531
16773TIP3   OH271809   5.124   1.526  12.359 -0.5382 -0.3702 -0.1983
16773TIP3    H171810   5.077   1.493  12.282  1.9854  0.6228 -2.3122
16773TIP3    H271811   5.204   1.474  12.362 -1.4482 -1.9221  3.2099
16774TIP3   OH271812   1.531   1.782  13.943 -0.5904  0.2093 -0.3447
16774TIP3    H171813   1.573   1.697  13.961 -2.0305 -0.5271 -0.3600
16774TIP3    H271814   1.579   1.844  13.998  0.6361 -0.5574 -0.5035
16775TIP3   OH271815   2.385   3.953   4.826  0.3637  0.1473  0.6249
16775TIP3    H171816   2.323   4.009   4.872 -0.2516 -0.8522  1.0533
16775TIP3    H271817   2.471   3.987   4.850  0.0118  2.1153 -0.6882
16776TIP3   OH271818   6.703   5.743  17.008 -0.7887 -1.1409 -0.0171
16776TIP3    H171819   6.680   5.765  17.098 -0.2666 -0.0853 -0.1292
16776TIP3    H271820   6.686   5.649  17.001 -2.4182 -0.9233  0.6800
16777TIP3   OH271821   2.308   3.643  13.518  0.0818 -0.0252  0.3830
16777TIP3    H171822   2.280   3.728  13.551  1.2386 -0.0265  1.4844
16777TIP3    H271823   2.386   3.622  13.570 -0.1388 -1.7237  0.0941
16778TIP3   OH271824   6.334   2.407   3.733 -0.1231 -0.2846  0.1093
16778TIP3    H171825   6.304   2.435   3.647 -0.6206  0.7407  0.5902
16778TIP3    H271826   6.354   2.489   3.779  0.9915 -0.8505  0.6657
16779TIP3   OH271827   1.781   3.233   6.238 -0.3447  0.2623 -0.0428
16779TIP3    H171828   1.868   3.221   6.276 -0.3044  1.5122  0.3219
16779TIP3    H271829   1.725   3.255   6.313 -1.0636 -0.8432 -0.2247
16780TIP3   OH271830   5.047   4.929   6.599  0.2533 -0.7631 -0.0438
16780TIP3    H171831   5.112   4.938   6.529 -0.0537  1.9288 -0.0872
16780TIP3    H271832   4.971   4.889   6.556  1.6211 -3.5759 -0.0798
16781TIP3   OH271833   6.396   0.178  12.669 -0.1829  0.2968  0.1943
16781TIP3    H171834   6.354   0.100  12.633 -2.0139  0.1542  2.4268
16781TIP3    H271835   6.325   0.226  12.712  1.3426  1.9004  1.0438
16782TIP3   OH271836   4.186   2.207  15.667  0.5560  0.0999 -0.1943
16782TIP3    H171837   4.276   2.238  15.670  0.1538  1.5208 -1.5329
16782TIP3    H271838   4.193   2.113  15.653  1.8085  0.0604  0.5650
16783TIP3   OH271839   4.027   6.231   5.877  0.0638 -0.2914 -0.3502
16783TIP3    H171840   3.950   6.252   5.930  1.9333  1.8304  1.7304
16783TIP3    H271841   4.068   6.316   5.858  1.5812 -1.2971 -1.9461
16784TIP3   OH271842   3.941   2.305  16.689  0.2206 -0.2311 -0.2292
16784TIP3    H171843   3.997   2.236  16.724 -0.1499 -0.3750  0.0957
16784TIP3    H271844   3.871   2.259  16.642 -0.8504 -0.1637  1.2129
16785TIP3   OH271845   1.531   2.868  13.224  1.3035  0.0254  0.4236
16785TIP3    H171846   1.511   2.840  13.135  1.3148  0.2394  0.3514
16785TIP3    H271847   1.474   2.815  13.280  0.6735  0.4972  0.2375
16786TIP3   OH271848   1.997   3.610  14.137 -1.0225 -0.2042  0.3305
16786TIP3    H171849   2.009   3.680  14.073  1.1540  0.0224  0.9004
16786TIP3    H271850   2.005   3.529  14.087  0.3400 -0.0248  0.2164
16787TIP3   OH271851   6.705   5.771  11.463  0.6549  0.1386  0.3241
16787TIP3    H171852   6.732   5.769  11.371  0.8878 -2.4219  0.3628
16787TIP3    H271853   6.736   5.855  11.496  0.9194  0.9446 -1.8279
16788TIP3   OH271854   0.049   0.173  14.853  0.7289  0.0875 -0.3454
16788TIP3    H171855   0.084   0.095  14.895  1.1231 -1.0333 -2.5821
16788TIP3    H271856   0.108   0.244  14.881  0.7132 -0.4912  1.2427
16789TIP3   OH271857   3.211   3.212  17.389  0.4119  0.4941 -0.2036
16789TIP3    H171858   3.247   3.126  17.366  1.6212  0.8517  0.2652
16789TIP3    H271859   3.154   3.234  17.316  2.2764  0.5311 -1.7502
16790TIP3   OH271860   5.857   6.102  13.985  0.2847 -0.1754 -0.0502
16790TIP3    H171861   5.939   6.110  13.937  0.8041 -1.7714  0.5109
16790TIP3    H271862   5.796   6.062  13.922  0.1326  0.3716 -0.2528
16791TIP3   OH271863   6.414   3.440   1.154 -0.6112  0.4673 -0.1662
16791TIP3    H171864   6.335   3.408   1.109  0.4196  1.7032 -3.0916
16791TIP3    H271865   6.387   3.524   1.192 -0.6017  1.1873 -1.6889
16792TIP3   OH271866   5.759   6.637  15.129  0.0368 -0.9436 -0.1489
16792TIP3    H171867   5.840   6.600  15.163  0.0655 -0.2537  0.5562
16792TIP3    H271868   5.715   6.674  15.205  0.1250  0.6870 -0.8344
16793TIP3   OH271869   5.264   5.377   1.296  0.5857  0.7462 -0.3094
16793TIP3    H171870   5.195   5.354   1.358  0.2336 -0.6434 -1.1887
16793TIP3    H271871   5.335   5.316   1.315  1.3970  1.7979  0.2054
16794TIP3   OH271872   4.344   0.792  12.087 -0.0817 -0.4253  0.7311
16794TIP3    H171873   4.259   0.755  12.063  0.3919 -1.2837  0.3445
16794TIP3    H271874   4.349   0.873  12.036  0.4165 -1.6535 -1.2618
16795TIP3   OH271875   0.343   6.110   0.575  0.6338  0.3884  0.3392
16795TIP3    H171876   0.278   6.041   0.586 -0.0313  1.0067  0.4026
16795TIP3    H271877   0.427   6.064   0.572  0.1358 -0.5105 -0.6384
16796TIP3   OH271878   0.849   3.568  13.113  0.3213  0.3102 -0.5109
16796TIP3    H171879   0.756   3.562  13.131  0.3528 -0.0667 -0.4531
16796TIP3    H271880   0.854   3.618  13.031  0.0380 -0.0779 -0.7717
16797TIP3   OH271881   0.572   5.567  17.320  0.1682 -0.1798 -0.0981
16797TIP3    H171882   0.641   5.530  17.265 -0.3498 -2.9567  0.9812
16797TIP3    H271883   0.500   5.585  17.259  1.3323  1.5922 -1.0360
16798TIP3   OH271884   3.997   2.188   3.034 -0.7142 -0.0568  0.0622
16798TIP3    H171885   4.018   2.248   3.106 -1.3173  0.7610 -0.4352
16798TIP3    H271886   3.906   2.164   3.048 -0.0654 -2.0939  1.1249
16799TIP3   OH271887   2.346   0.473   1.969 -0.1369  0.2155 -0.1711
16799TIP3    H171888   2.380   0.535   1.904 -0.8336  2.6365  1.6321
16799TIP3    H271889   2.255   0.458   1.944 -0.1433  0.4261 -0.2729
16800TIP3   OH271890   6.191   3.816  12.553  0.4295 -0.1097 -0.0681
16800TIP3    H171891   6.157   3.906  12.545  2.1277  0.5686  0.0388
16800TIP3    H271892   6.221   3.794  12.466  0.5827 -0.3431  0.0447
16801TIP3   OH271893   4.499   4.601  13.134  0.0812 -0.1256  0.2241
16801TIP3    H171894   4.449   4.656  13.074  1.7420  1.3466  0.1157
16801TIP3    H271895   4.543   4.537  13.078  1.4222  1.0838 -0.1779
16802TIP3   OH271896   2.233   1.759   1.292 -0.2196  0.4270 -0.0144
16802TIP3    H171897   2.232   1.698   1.218 -1.1796 -0.2253  0.5161
16802TIP3    H271898   2.143   1.791   1.298 -0.9654 -1.8199  2.7045
16803TIP3   OH271899   4.420   1.041   4.082  0.0471  0.3591  0.3085
16803TIP3    H171900   4.339   1.071   4.123 -0.0405 -0.0406  0.4370
16803TIP3    H271901   4.430   1.096   4.005 -0.4747  0.2491  0.1604
16804TIP3   OH271902   6.725   2.039  17.335 -0.7223 -0.5315  0.2366
16804TIP3    H171903   6.808   2.032  17.383  1.6065  1.1148 -3.1146
16804TIP3    H271904   6.717   1.956  17.288 -0.4145 -0.3353 -0.1733
16805TIP3   OH271905   1.194   0.704  12.666  0.0546  0.0101 -0.1846
16805TIP3    H171906   1.288   0.696  12.682 -0.0456 -2.2002 -0.3544
16805TIP3    H271907   1.154   0.687  12.752 -0.2098  0.7891 -0.1456
16806TIP3   OH271908   2.678   4.074   3.683 -0.3484 -0.1965  0.7431
16806TIP3    H171909   2.723   4.104   3.762  0.3982  2.1886 -0.4755
16806TIP3    H271910   2.749   4.040   3.628 -0.6462 -0.3930  0.4810
16807TIP3   OH271911   0.855   4.726  15.898 -0.3075 -0.0615  0.3317
16807TIP3    H171912   0.800   4.752  15.973 -1.1559 -1.1293  0.0993
16807TIP3    H271913   0.901   4.648  15.928 -0.1375 -0.0982 -0.0256
16808TIP3   OH271914   2.999   6.436   0.419 -0.0510 -0.3503  0.1447
16808TIP3    H171915   2.973   6.377   0.348  0.7425 -2.3425  1.4257
16808TIP3    H271916   3.094   6.447   0.408  0.0140 -0.3644  0.6674
16809TIP3   OH271917   2.082   6.514  14.462 -0.3718 -0.4773  0.2543
16809TIP3    H171918   2.154   6.576  14.445  0.4061 -1.2473  0.6398
16809TIP3    H271919   2.081   6.456  14.386  0.2771 -1.2574  0.8188
16810TIP3   OH271920   5.696   5.035  16.388  0.5013  0.0317  0.2336
16810TIP3    H171921   5.662   5.021  16.299 -0.1481  0.5819  0.3875
16810TIP3    H271922   5.676   5.126  16.407 -1.5382 -0.6867  1.8501
16811TIP3   OH271923   0.102   1.373   5.088 -0.4555  0.2900 -0.4743
16811TIP3    H171924   0.157   1.299   5.113  0.5705  0.5928 -1.7155
16811TIP3    H271925   0.062   1.402   5.170  1.7869  0.4720  0.6271
16812TIP3   OH271926   5.857   6.246   0.114  0.2238  0.4518 -0.3014
16812TIP3    H171927   5.881   6.322   0.060  0.3299  0.3626 -0.3814
16812TIP3    H271928   5.805   6.191   0.056  1.5658 -0.3496 -0.7789
16813TIP3   OH271929   6.763   2.527  15.803  0.0472 -0.5930  0.1445
16813TIP3    H171930   6.698   2.551  15.738 -0.1234  0.4731  0.6798
16813TIP3    H271931   6.739   2.438  15.830 -0.8889 -0.4005 -0.0201
16814TIP3   OH271932   3.583   2.718   2.908 -0.2152  0.9774 -0.1632
16814TIP3    H171933   3.556   2.764   2.828  1.0307 -0.1196 -1.2886
16814TIP3    H271934   3.514   2.653   2.922 -0.0224  0.6093 -0.8683
16815TIP3   OH271935   2.034   0.763  14.496 -0.2643 -0.6182  0.5498
16815TIP3    H171936   1.995   0.716  14.422  0.5083 -0.2615 -0.0939
16815TIP3    H271937   1.967   0.759  14.564 -0.5532 -1.8969  0.2159
16816TIP3   OH271938   3.766   1.641  10.525  0.3481 -0.0320  0.3368
16816TIP3    H171939   3.782   1.547  10.520 -0.8132 -0.1880 -1.8976
16816TIP3    H271940   3.745   1.657  10.617 -0.7824 -2.2157  0.5276
16817TIP3   OH271941   3.034   4.658  11.412  0.5588  0.4230 -0.0898
16817TIP3    H171942   3.050   4.663  11.317  1.1873 -1.3901 -0.1082
16817TIP3    H271943   2.979   4.734  11.430 -0.4057  0.2709 -2.0922
16818TIP3   OH271944   5.694   1.630  12.523  0.0714 -0.2781 -0.5655
16818TIP3    H171945   5.640   1.550  12.521 -0.8892  0.2439  1.5943
16818TIP3    H271946   5.720   1.639  12.615 -0.5458  2.3357 -0.5706
16819TIP3   OH271947   2.699   3.990   4.461  0.0534  0.2640  0.2618
16819TIP3    H171948   2.607   3.966   4.451  0.1972 -0.9808  1.5512
16819TIP3    H271949   2.698   4.084   4.478 -0.9317  0.3753 -0.3608
16820TIP3   OH271950   0.550   6.698  14.645  0.1584 -0.1659 -0.1585
16820TIP3    H171951   0.525   6.790  14.644  0.7540  0.0497  1.5264
16820TIP3    H271952   0.626   6.694  14.704  0.2580 -1.7054 -0.3422
16821TIP3   OH271953   5.470   2.142   1.132 -0.1234  0.5239  0.1075
16821TIP3    H171954   5.484   2.212   1.196  0.4552  0.8938 -0.4077
16821TIP3    H271955   5.478   2.061   1.182 -2.1164  0.7992  0.9841
16822TIP3   OH271956   3.745   6.377  16.064  0.1920  0.4119  0.3356
16822TIP3    H171957   3.808   6.325  16.015 -1.1006  0.1346 -1.1415
16822TIP3    H271958   3.757   6.350  16.155  1.0357 -0.8682 -0.1202
16823TIP3   OH271959   5.993   5.408  12.523 -0.1819  0.4584 -0.3950
16823TIP3    H171960   5.950   5.465  12.587  0.3313 -0.7770  1.1270
16823TIP3    H271961   6.013   5.328  12.572 -0.3476 -0.8182 -2.2953
16824TIP3   OH271962   5.492   1.165  15.146  0.1808  0.4077  0.5208
16824TIP3    H171963   5.587   1.177  15.135  0.0887  0.9556  0.3420
16824TIP3    H271964   5.485   1.104  15.220  0.6876 -0.1485  0.1253
16825TIP3   OH271965   1.753   0.814  16.114  0.0923 -0.2181 -0.2676
16825TIP3    H171966   1.731   0.907  16.107  0.1573 -0.2310 -0.6745
16825TIP3    H271967   1.784   0.790  16.026 -1.1881 -0.9415 -0.5617
16826TIP3   OH271968   1.666   6.601  17.162  0.2786  0.4913  0.4851
16826TIP3    H171969   1.635   6.594  17.072  0.4032  2.2974  0.2789
16826TIP3    H271970   1.705   6.688  17.168  0.6151  0.2619  2.1855
16827TIP3   OH271971   0.294   3.246  16.040  0.3488  0.3340 -0.6892
16827TIP3    H171972   0.335   3.297  15.970 -0.2643  0.9103 -0.6368
16827TIP3    H271973   0.211   3.290  16.057 -0.2257 -0.7225 -0.6742
16828TIP3   OH271974   0.628   5.075   5.217  0.2625 -0.0436  0.6774
16828TIP3    H171975   0.654   5.007   5.279 -1.2602  0.6633  2.1689
16828TIP3    H271976   0.598   5.027   5.140  0.0573 -1.0243  1.3507
16829TIP3   OH271977   6.761   2.206   1.603  0.0052 -0.5493  0.1406
16829TIP3    H171978   6.814   2.280   1.633  0.3812 -0.9684  0.5309
16829TIP3    H271979   6.770   2.140   1.672 -0.6275 -0.8195 -0.0258
16830TIP3   OH271980   5.116   0.026  15.770  0.0298  0.0112 -0.1534
16830TIP3    H171981   5.199   0.037  15.817 -1.3556  0.2357  2.4594
16830TIP3    H271982   5.081  -0.057  15.804 -1.0597  0.2017 -0.7906
16831TIP3   OH271983   1.994   6.575   3.985 -0.4176 -0.2235  0.2488
16831TIP3    H171984   2.079   6.600   4.019  0.6338 -2.2244 -0.7246
16831TIP3    H271985   1.966   6.650   3.933 -0.1776  1.2199  2.1259
16832TIP3   OH271986   4.183   2.468  16.812  0.6692 -0.0368 -0.4083
16832TIP3    H171987   4.102   2.473  16.863  0.0804  0.9708 -1.4106
16832TIP3    H271988   4.219   2.382  16.833 -0.8231 -0.6316 -0.1696
16833TIP3   OH271989   1.981   3.596  16.869  0.4485  0.4319 -0.6137
16833TIP3    H171990   1.981   3.531  16.940 -0.4360  1.5905  0.5000
16833TIP3    H271991   2.056   3.572  16.815 -1.3064 -3.0683 -1.7602
16834TIP3   OH271992   3.503   5.872   3.412 -0.9882 -0.1476 -0.1251
16834TIP3    H171993   3.575   5.934   3.427  0.0586 -1.1894 -0.6781
16834TIP3    H271994   3.546   5.791   3.386 -2.4144 -0.2406 -2.5344
16835TIP3   OH271995   2.116   0.329   2.878 -0.2778  0.0395  0.3350
16835TIP3    H171996   2.142   0.239   2.898  3.6706  0.8787 -0.1708
16835TIP3    H271997   2.184   0.383   2.919 -2.5992  2.8743  0.7808
16836TIP3   OH271998   4.736   3.664  14.968  0.2098  0.3564 -0.2429
16836TIP3    H171999   4.724   3.601  14.898  1.4774 -1.7670  1.3288
16836TIP3    H272000   4.648   3.697  14.987 -0.7273 -1.9921 -0.2356
16837TIP3   OH272001   4.193   0.673  14.619 -0.5172 -0.0826 -0.4407
16837TIP3    H172002   4.129   0.710  14.557 -1.4397 -0.9822 -0.0536
16837TIP3    H272003   4.250   0.747  14.640 -2.5351  1.2721  0.6018
16838TIP3   OH272004   4.877   0.086   0.167 -0.0570  1.1202  0.0436
16838TIP3    H172005   4.807   0.115   0.226  0.4424  2.2933  0.0821
16838TIP3    H272006   4.843   0.101   0.079  0.2769  2.0531  0.0641
16839TIP3   OH272007   5.228   0.263   0.742  0.4226 -0.1865 -0.3251
16839TIP3    H172008   5.199   0.285   0.831  0.8496 -0.9509  0.0148
16839TIP3    H272009   5.273   0.179   0.752  0.9349 -0.0226 -1.1801
16840TIP3   OH272010   0.430   3.385   0.479 -0.6795 -0.2334  0.0418
16840TIP3    H172011   0.352   3.350   0.523 -0.5400  0.0517  0.5236
16840TIP3    H272012   0.491   3.311   0.478 -0.3528 -0.0022  1.1392
16841TIP3   OH272013   5.770   5.780   2.406  0.1597 -0.5408 -0.2847
16841TIP3    H172014   5.823   5.833   2.465 -0.9895 -1.0099  1.2413
16841TIP3    H272015   5.680   5.797   2.434 -0.2742 -3.0567  0.0975
16842TIP3   OH272016   2.693   2.067   5.223  0.5644  0.2920  0.5540
16842TIP3    H172017   2.625   2.127   5.194  1.5479  0.9287 -0.5117
16842TIP3    H272018   2.744   2.048   5.144  2.2264  0.6358  1.5038
16843TIP3   OH272019   2.253   5.226   2.688  0.2185 -0.4446  0.2120
16843TIP3    H172020   2.279   5.170   2.761 -0.8730 -0.8159  0.3270
16843TIP3    H272021   2.192   5.173   2.637 -1.2258  0.7807  0.5908
16844TIP3   OH272022   3.131   3.756   4.017 -0.4497 -0.3873 -0.0980
16844TIP3    H172023   3.139   3.783   3.926 -1.5389 -1.1291 -0.4328
16844TIP3    H272024   3.043   3.718   4.023 -0.4694 -0.1533  1.3084
16845TIP3   OH272025   3.982   1.204  16.198 -0.1340 -0.2252  0.0046
16845TIP3    H172026   3.977   1.299  16.183  0.0295 -0.1014  0.6961
16845TIP3    H272027   4.060   1.177  16.149  0.0796  0.0726  0.1730
16846TIP3   OH272028   4.674   0.767  16.526  0.7270 -0.1761  0.5799
16846TIP3    H172029   4.723   0.834  16.574  0.5926 -0.7146  1.4811
16846TIP3    H272030   4.693   0.685  16.571 -0.9132 -0.4207  0.9082
16847TIP3   OH272031   0.849   6.563  16.977 -0.7427 -0.4052 -0.3077
16847TIP3    H172032   0.831   6.635  16.917 -1.2646 -0.0948  0.2082
16847TIP3    H272033   0.905   6.503  16.927 -1.1154 -0.1237 -1.0769
16848TIP3   OH272034   2.090   4.466   4.474 -0.0737  0.4320  0.5735
16848TIP3    H172035   2.082   4.492   4.565 -2.4344 -0.3131  0.6471
16848TIP3    H272036   2.055   4.540   4.424  0.3121  0.4424  0.3048
16849TIP3   OH272037   5.650   4.902   5.180  0.1074 -0.0124  0.2185
16849TIP3    H172038   5.733   4.876   5.220  0.8021  0.4402 -0.8839
16849TIP3    H272039   5.669   4.907   5.086  0.0424  4.2509  0.2506
16850TIP3   OH272040   0.027   6.151   6.625 -0.1001 -0.0490 -0.1242
16850TIP3    H172041   0.098   6.186   6.572 -0.0562 -0.0619 -0.0735
16850TIP3    H272042   0.006   6.222   6.687  2.2683 -1.2588  2.2842
16851TIP3   OH272043   2.846   6.361  11.488  0.5790  0.4504 -0.4817
16851TIP3    H172044   2.796   6.359  11.570 -0.8942  0.5093 -1.3397
16851TIP3    H272045   2.844   6.453  11.461 -0.8244  0.1144 -1.6543
16852TIP3   OH272046   6.180   3.452   2.898  0.1673  0.3659 -0.1165
16852TIP3    H172047   6.206   3.365   2.929  1.0981  1.0766  1.1609
16852TIP3    H272048   6.085   3.455   2.912 -0.1207 -0.9455 -1.5112
16853TIP3   OH272049   6.139   3.531  13.695 -0.2146  0.5242 -0.0246
16853TIP3    H172050   6.116   3.496  13.609  1.1442 -0.0845 -0.1674
16853TIP3    H272051   6.143   3.454  13.752  0.3238  0.7402  0.2427
16854TIP3   OH272052   4.236   5.101  16.744  0.0763 -0.7410  0.2437
16854TIP3    H172053   4.303   5.142  16.691 -0.5052  0.5913  0.4946
16854TIP3    H272054   4.169   5.169  16.756 -1.0126 -1.8156  0.5308
16855TIP3   OH272055   4.233   2.935   6.105  0.8191  0.1980  0.8578
16855TIP3    H172056   4.230   2.924   6.200 -0.0775 -2.1800  0.6239
16855TIP3    H272057   4.141   2.946   6.080  1.0734  1.0469  0.2897
16856TIP3   OH272058   5.306   4.526  13.313  0.0140  0.1166  0.2305
16856TIP3    H172059   5.360   4.458  13.354 -1.0282 -2.4855 -2.3591
16856TIP3    H272060   5.366   4.571  13.254 -0.0193 -0.9538 -0.6432
16857TIP3   OH272061   5.216   3.394  16.690 -0.2151  0.4432  0.0753
16857TIP3    H172062   5.183   3.362  16.605 -0.6891 -1.2976  0.8662
16857TIP3    H272063   5.311   3.387  16.681 -0.2036  1.3397 -0.6887
16858TIP3   OH272064   3.721   5.914  16.365 -0.1807 -0.1311 -0.5187
16858TIP3    H172065   3.668   5.924  16.287 -0.2960  1.3881 -0.2837
16858TIP3    H272066   3.771   5.996  16.370  2.2739 -1.5278 -0.7858
16859TIP3   OH272067   0.696   4.629  12.246 -0.1995 -0.2156 -0.1845
16859TIP3    H172068   0.662   4.673  12.167 -1.0222 -1.4643 -0.5587
16859TIP3    H272069   0.650   4.545  12.248  0.5699 -0.6311  1.0791
16860TIP3   OH272070   1.402   0.146  17.109 -0.2500  0.1416  0.0960
16860TIP3    H172071   1.335   0.078  17.103 -0.4474  0.2480  0.9491
16860TIP3    H272072   1.409   0.180  17.020  1.3244 -2.3800 -0.8611
16861TIP3   OH272073   0.484   2.385  13.713  0.3593  0.1620  0.6016
16861TIP3    H172074   0.412   2.444  13.737  1.1992  0.7282  1.8021
16861TIP3    H272075   0.445   2.297  13.717 -0.5425  0.5246  0.1432
16862TIP3   OH272076   3.810   5.231   3.110  0.2487  0.1997  0.0604
16862TIP3    H172077   3.764   5.191   3.184 -0.6038  3.4952  1.5224
16862TIP3    H272078   3.902   5.233   3.138  0.3311 -0.7438 -0.0948
16863TIP3   OH272079   2.253   2.220  17.026  0.8235  0.7181  0.2289
16863TIP3    H172080   2.256   2.269  16.944  1.8045 -0.2558 -0.3535
16863TIP3    H272081   2.326   2.159  17.020  1.0838  0.8118  1.9714
16864TIP3   OH272082   5.942   6.000   1.809  0.1221  0.0294 -0.3674
16864TIP3    H172083   5.914   6.087   1.839  0.1748  0.0693 -0.4320
16864TIP3    H272084   6.028   6.015   1.771  0.1559 -0.0627 -0.3265
16865TIP3   OH272085   6.526   0.366   0.747 -0.7881  0.3165 -0.2057
16865TIP3    H172086   6.485   0.381   0.661 -3.4853 -0.2786  0.8919
16865TIP3    H272087   6.558   0.276   0.743 -2.9191 -0.5133  0.0912
16866TIP3   OH272088   1.937   0.636  11.412 -0.8686  0.7810  0.2995
16866TIP3    H172089   1.879   0.702  11.449 -0.6719  0.0591  2.0032
16866TIP3    H272090   1.881   0.559  11.401 -0.7382  0.7535 -0.1974
16867TIP3   OH272091   5.481   5.348   2.496  0.0702  0.3786  0.2537
16867TIP3    H172092   5.406   5.385   2.543 -1.0770 -2.7121  1.0667
16867TIP3    H272093   5.555   5.361   2.555 -0.3932  0.8766  0.7364
16868TIP3   OH272094   6.694   4.977   1.250  0.0644 -0.1465 -0.2105
16868TIP3    H172095   6.709   5.059   1.298  1.3802  1.0786 -2.5239
16868TIP3    H272096   6.599   4.967   1.249 -0.1457  1.5284 -0.0984
16869TIP3   OH272097   6.594   0.981   2.846 -0.0714  0.1823  0.0156
16869TIP3    H172098   6.613   1.073   2.825 -0.6843  0.0609 -1.1740
16869TIP3    H272099   6.550   0.984   2.930  2.3085  0.7281  1.3209
16870TIP3   OH272100   3.417   4.968   2.300 -0.1202  0.3959  0.2937
16870TIP3    H172101   3.408   4.998   2.390 -0.1291  0.0870  0.3962
16870TIP3    H272102   3.385   4.877   2.301 -3.3260  1.3813 -0.6719
16871TIP3   OH272103   3.212   5.905  16.365  1.1363  0.0299 -0.1672
16871TIP3    H172104   3.183   5.933  16.278  0.2824  0.6326  0.2963
16871TIP3    H272105   3.145   5.938  16.424  1.4228 -0.8404  0.6743
16872TIP3   OH272106   4.749   6.463   3.177  0.1796 -0.0961 -0.4991
16872TIP3    H172107   4.819   6.402   3.201 -0.4003 -0.2760  0.7816
16872TIP3    H272108   4.675   6.439   3.233  0.2071  2.3404  0.7386
16873TIP3   OH272109   5.759   5.439  16.079  0.2649  0.1350 -0.1927
16873TIP3    H172110   5.820   5.368  16.059  1.3119  0.8471  0.3646
16873TIP3    H272111   5.799   5.485  16.153 -1.8062 -0.4055  1.3546
16874TIP3   OH272112   6.038   4.671  12.657  0.2128 -0.1548 -0.6397
16874TIP3    H172113   6.066   4.614  12.585 -0.4062 -0.2770 -0.7899
16874TIP3    H272114   6.017   4.755  12.615  0.0675 -0.1572 -0.5744
16875TIP3   OH272115   0.162   2.294   2.627 -0.3003  0.7296 -0.6956
16875TIP3    H172116   0.098   2.240   2.672 -1.6643  1.2149 -1.9696
16875TIP3    H272117   0.158   2.378   2.672 -0.3164  0.6578 -0.5623
16876TIP3   OH272118   4.080   6.138  16.235  0.4655 -0.3957  0.0874
16876TIP3    H172119   4.071   6.045  16.256 -2.7218 -0.1708  0.2035
16876TIP3    H272120   4.159   6.165  16.282  0.4546 -2.6432  1.5784
16877TIP3   OH272121   4.301   1.812   1.444  0.2239  0.0200 -0.3456
16877TIP3    H172122   4.274   1.747   1.510 -2.0556  1.8445  0.6590
16877TIP3    H272123   4.255   1.786   1.364 -1.9548  1.1594  0.4592
16878TIP3   OH272124   5.798   2.203  14.154  0.4316 -0.4190  0.2800
16878TIP3    H172125   5.712   2.216  14.195  0.5547 -1.2958  0.8488
16878TIP3    H272126   5.800   2.267  14.082  0.4456  1.5650  1.9710
16879TIP3   OH272127   0.053   6.218   2.056 -0.4879  0.3324  0.2725
16879TIP3    H172128   0.029   6.309   2.038 -0.2197  0.6235  1.3285
16879TIP3    H272129   0.139   6.208   2.014 -1.1155  0.1411 -1.0233
16880TIP3   OH272130   4.289   1.563   2.994 -0.2405  0.1142 -0.2128
16880TIP3    H172131   4.342   1.484   3.000  0.7330  0.6328 -1.5781
16880TIP3    H272132   4.244   1.556   2.911  0.4415  1.3245 -0.7156
16881TIP3   OH272133   6.370   4.027  16.375 -0.6288 -0.1965 -0.0870
16881TIP3    H172134   6.299   4.088  16.357 -0.0143  0.2602 -1.0922
16881TIP3    H272135   6.416   4.019  16.291  0.9852  0.1679  0.7198
16882TIP3   OH272136   5.550   6.117  17.189  0.4450 -0.3563 -0.7210
16882TIP3    H172137   5.589   6.037  17.224 -0.8186 -1.7557 -2.3854
16882TIP3    H272138   5.460   6.094  17.170  0.1855  1.3340 -1.7441
16883TIP3   OH272139   1.324   0.622  15.485 -0.1824 -0.0401  0.2883
16883TIP3    H172140   1.305   0.538  15.528 -1.6717  0.2741  0.3177
16883TIP3    H272141   1.286   0.688  15.543 -0.5230  0.5287 -0.5538
16884TIP3   OH272142   2.196   1.409  15.085  0.2041 -0.1409 -0.2493
16884TIP3    H172143   2.268   1.442  15.139 -0.0928 -0.2583  0.2194
16884TIP3    H272144   2.148   1.350  15.142  1.1784 -2.0423 -1.2834
16885TIP3   OH272145   4.823   4.240  15.054  0.0293 -0.0054  0.1264
16885TIP3    H172146   4.852   4.187  14.979 -0.4450  1.7257 -1.3343
16885TIP3    H272147   4.894   4.302  15.069 -0.7507  1.0125 -0.2624
16886TIP3   OH272148   4.807   5.159  13.845 -0.1297 -0.1069 -0.1775
16886TIP3    H172149   4.818   5.198  13.931  0.0678  0.9800 -0.6873
16886TIP3    H272150   4.722   5.114  13.850 -0.4628  0.5702  0.3472
16887TIP3   OH272151   0.104   5.939  13.989  0.3066  0.7552  0.4594
16887TIP3    H172152   0.044   5.977  14.052 -1.5634 -0.0692 -0.7462
16887TIP3    H272153   0.089   5.845  13.994  1.1851  0.5588 -0.2020
16888TIP3   OH272154   2.053   4.988  15.266  0.7340 -0.1955  0.7109
16888TIP3    H172155   2.028   5.063  15.320 -0.0397 -1.1517  1.7303
16888TIP3    H272156   2.027   5.012  15.177 -0.8418  0.1757  1.2435
16889TIP3   OH272157   2.610   4.981   5.807 -0.4671  0.2096 -0.1168
16889TIP3    H172158   2.525   4.963   5.847  0.9486 -0.7165  2.7457
16889TIP3    H272159   2.597   4.960   5.714 -3.1260 -0.6884  0.3532
16890TIP3   OH272160   6.054   2.174   5.477  0.4636  0.4264 -0.4524
16890TIP3    H172161   6.109   2.182   5.399  1.0560 -0.4017 -0.1287
16890TIP3    H272162   6.068   2.085   5.508 -1.3256  0.0599 -0.5440
16891TIP3   OH272163   1.305   2.883   3.256 -0.1622  0.3978  0.4296
16891TIP3    H172164   1.399   2.887   3.269  0.0894 -0.3331 -0.9443
16891TIP3    H272165   1.268   2.904   3.341  1.2875 -2.3978  1.9050
16892TIP3   OH272166   5.303   4.431   1.579  0.3089  0.5156  0.5298
16892TIP3    H172167   5.297   4.336   1.569  0.7735  0.2982  2.1497
16892TIP3    H272168   5.396   4.449   1.584  0.2837  1.2300 -1.0166
16893TIP3   OH272169   3.797   0.296   0.430  0.9401 -0.0075  0.0780
16893TIP3    H172170   3.767   0.352   0.502  1.8955  0.1715  0.3578
16893TIP3    H272171   3.781   0.207   0.461  0.4023  0.0848  0.0779
16894TIP3   OH272172   3.129   3.419  13.832 -0.5462 -0.6909  0.3399
16894TIP3    H172173   3.196   3.483  13.806 -1.7796  0.8797  0.8574
16894TIP3    H272174   3.159   3.385  13.915 -0.1722 -0.3087  0.3653
16895TIP3   OH272175   5.875   5.437   4.613 -0.0339 -0.0608  0.0128
16895TIP3    H172176   5.938   5.381   4.568 -0.5894 -1.8571  1.3276
16895TIP3    H272177   5.806   5.376   4.643  0.7864  0.7166  4.1726
16896TIP3   OH272178   4.031   3.081   5.236 -0.2388 -0.0074  0.3595
16896TIP3    H172179   3.937   3.077   5.221 -0.2727  1.7320 -0.1022
16896TIP3    H272180   4.063   2.995   5.211 -1.6226 -0.4065 -0.1298
16897TIP3   OH272181   2.434   4.854   4.954  0.4447 -0.0650  0.2703
16897TIP3    H172182   2.496   4.915   4.996 -0.0051  0.2600  0.4722
16897TIP3    H272183   2.399   4.904   4.880  0.2922 -0.1842  0.2638
16898TIP3   OH272184   1.278   3.770   4.644  0.4922 -0.1151  0.1580
16898TIP3    H172185   1.240   3.837   4.587  1.5744 -0.9993 -1.7204
16898TIP3    H272186   1.208   3.750   4.707  0.0990  2.6297  0.7300
16899TIP3   OH272187   0.114   5.511  16.760  0.3554 -0.3193  0.2577
16899TIP3    H172188   0.120   5.587  16.702  0.6606 -1.5091 -1.3313
16899TIP3    H272189   0.076   5.546  16.841 -0.3456  1.3500 -0.7419
16900TIP3   OH272190   1.009   3.926   4.269 -0.2750 -0.1515 -0.2314
16900TIP3    H172191   0.927   3.906   4.223 -0.5942  0.1647  0.1937
16900TIP3    H272192   1.028   4.017   4.247  0.2942 -0.4076 -0.8250
16901TIP3   OH272193   1.192   3.964  15.132  0.0658  0.3899  0.0380
16901TIP3    H172194   1.194   4.055  15.159  0.7374  0.0226  1.3019
16901TIP3    H272195   1.215   3.915  15.211 -0.5794 -0.8913 -0.5374
16902TIP3   OH272196   5.811   1.922   3.559 -0.4016  0.2763 -0.0778
16902TIP3    H172197   5.900   1.953   3.574 -0.7331  1.6066 -0.7259
16902TIP3    H272198   5.823   1.835   3.519  0.5834  0.2658  0.2115
16903TIP3   OH272199   6.707   4.291  16.143 -0.5498 -0.6702  0.3667
16903TIP3    H172200   6.797   4.315  16.166 -0.4716 -0.3015 -0.2835
16903TIP3    H272201   6.686   4.216  16.199  0.4109 -1.2129  0.0151
16904TIP3   OH272202   1.746   4.111   6.531 -0.2081  0.1198  0.2459
16904TIP3    H172203   1.839   4.100   6.546 -0.1793  0.4262  0.2807
16904TIP3    H272204   1.722   4.037   6.474 -0.0076 -0.1282  0.4814
16905TIP3   OH272205   5.012   0.885  17.444 -0.0127 -0.0826  0.2443
16905TIP3    H172206   4.993   0.883  17.350  0.8227  0.9017  0.0449
16905TIP3    H272207   5.062   0.965  17.457  0.6841 -0.6776  1.3821
16906TIP3   OH272208   3.484   2.698  17.085  0.0346 -0.1288  0.4751
16906TIP3    H172209   3.558   2.644  17.058 -1.0331 -0.4785 -2.0439
16906TIP3    H272210   3.451   2.656  17.165 -0.5715 -3.1609 -1.2066
16907TIP3   OH272211   6.425   3.490  14.608 -0.1765  0.6862 -0.3357
16907TIP3    H172212   6.382   3.447  14.534  1.6200 -0.3124 -0.8914
16907TIP3    H272213   6.482   3.556  14.567  0.7992  0.1538  0.1132
16908TIP3   OH272214   1.670   3.400  13.843  0.0727 -0.4704 -0.4761
16908TIP3    H172215   1.725   3.417  13.766  0.3263  0.5965 -0.0791
16908TIP3    H272216   1.628   3.484  13.862  3.6987  0.8605  3.3965
16909TIP3   OH272217   3.699   6.096   3.802 -0.4190 -0.1027 -0.0675
16909TIP3    H172218   3.740   6.025   3.754  1.3556  0.1771  0.9589
16909TIP3    H272219   3.677   6.059   3.887 -0.1810  0.3737  0.2057
16910TIP3   OH272220   5.695   2.207   6.390  0.6175  0.2929  0.2426
16910TIP3    H172221   5.775   2.155   6.393 -1.3527 -3.2264 -1.4593
16910TIP3    H272222   5.678   2.232   6.481  2.6990 -0.3509  0.8519
16911TIP3   OH272223   6.393   6.232   1.344  0.5615 -0.3090  0.2354
16911TIP3    H172224   6.485   6.207   1.343  0.5976 -0.1698 -0.6423
16911TIP3    H272225   6.346   6.151   1.321  0.6058  0.1006 -1.3988
16912TIP3   OH272226   6.518   0.468  13.562 -0.3028  0.1341  0.0100
16912TIP3    H172227   6.567   0.391  13.533 -1.5732 -0.6727 -0.0805
16912TIP3    H272228   6.547   0.538  13.503 -0.9962 -0.8841 -1.6199
16913TIP3   OH272229   4.195   4.656   5.481 -0.0680  0.0719  0.1280
16913TIP3    H172230   4.106   4.622   5.495 -0.0429  0.1926  0.5828
16913TIP3    H272231   4.183   4.736   5.430  0.0089 -1.9512 -3.4102
16914TIP3   OH272232   3.830   4.526  16.341  0.2879 -0.5311  0.0690
16914TIP3    H172233   3.889   4.493  16.273  1.2402  0.0407  0.6021
16914TIP3    H272234   3.881   4.592  16.388 -1.7927  2.3827 -1.4672
16915TIP3   OH272235   0.075   0.200   4.948 -0.3973  0.2772 -0.6532
16915TIP3    H172236   0.115   0.238   5.026  1.0234  1.0150 -1.6843
16915TIP3    H272237   0.088   0.106   4.957  1.3231  0.4733 -0.7854
16916TIP3   OH272238   1.086   1.596   2.701  0.1860 -0.4642  0.4132
16916TIP3    H172239   1.028   1.584   2.626  1.8238 -0.5076 -0.9231
16916TIP3    H272240   1.120   1.508   2.719  1.0945 -0.1883  0.0898
16917TIP3   OH272241   2.706   1.616   0.201  0.3800  0.4851 -0.0125
16917TIP3    H172242   2.793   1.579   0.204  0.1462 -0.2536 -1.4056
16917TIP3    H272243   2.705   1.682   0.270  1.6558 -0.2745  0.7652
16918TIP3   OH272244   4.692   0.116  13.202  0.4817  0.0953  0.1590
16918TIP3    H172245   4.785   0.131  13.219  0.5777 -0.1125 -0.1681
16918TIP3    H272246   4.654   0.099  13.288  0.4427  1.7751  0.5149
16919TIP3   OH272247   1.276   0.981  15.928  0.4383 -0.0070 -0.5422
16919TIP3    H172248   1.369   0.984  15.950  0.4817 -0.4906 -0.6363
16919TIP3    H272249   1.260   1.059  15.876  0.6300  0.4611  0.0954
16920TIP3   OH272250   4.927   2.840  11.921  0.4934  0.3793 -0.2577
16920TIP3    H172251   5.010   2.815  11.962  1.3388 -0.5774 -2.3674
16920TIP3    H272252   4.951   2.908  11.857 -0.3401  0.1331 -0.8540
16921TIP3   OH272253   5.580   4.162  11.798  0.2817 -0.5083  0.0800
16921TIP3    H172254   5.622   4.153  11.884  0.3875  0.0732  0.0951
16921TIP3    H272255   5.574   4.072  11.765  0.9650 -0.6632  0.3546
16922TIP3   OH272256   5.707   0.941   3.306  0.8561  0.1952 -0.4917
16922TIP3    H172257   5.642   0.998   3.267  0.5800  0.4163  0.2688
16922TIP3    H272258   5.748   0.896   3.232  1.0166  1.3080 -1.1001
16923TIP3   OH272259   2.507   3.139  12.609 -0.0184  0.2361 -0.2111
16923TIP3    H172260   2.508   3.077  12.681 -1.1665 -0.4893 -0.7902
16923TIP3    H272261   2.468   3.091  12.536  3.0848  0.2253 -2.0119
16924TIP3   OH272262   5.979   6.012   1.262  0.4182 -0.2093  0.2398
16924TIP3    H172263   6.018   6.099   1.252  2.7357 -1.2776 -0.5948
16924TIP3    H272264   5.998   5.987   1.353 -1.8101  0.7959  1.0581
16925TIP3   OH272265   2.902   6.113  12.940  0.2671 -0.8834 -0.1081
16925TIP3    H172266   2.858   6.082  13.019 -1.8456  0.3319 -0.7175
16925TIP3    H272267   2.968   6.047  12.921 -0.3545 -2.0813  1.6974
16926TIP3   OH272268   4.448   5.745   2.846  0.1745 -0.4864 -0.0784
16926TIP3    H172269   4.472   5.834   2.872 -1.4579 -0.4523  1.4550
16926TIP3    H272270   4.524   5.692   2.872  0.3507  0.1819  0.8433
16927TIP3   OH272271   3.010   3.496   2.850 -0.2512 -0.5662 -0.6120
16927TIP3    H172272   2.952   3.443   2.795  0.1839 -2.4985  0.7139
16927TIP3    H272273   3.080   3.437   2.876  1.0629  1.0788 -0.2344
16928TIP3   OH272274   6.369   3.775  14.969 -0.0222 -0.0940 -0.1350
16928TIP3    H172275   6.317   3.722  14.909 -0.4678 -0.5084  0.5996
16928TIP3    H272276   6.353   3.736  15.055 -0.0309  0.9771  0.3640
16929TIP3   OH272277   1.023   0.424   0.887 -0.1116  0.3422  0.0026
16929TIP3    H172278   1.078   0.500   0.868  0.1718 -0.2293 -1.6438
16929TIP3    H272279   0.938   0.461   0.909  0.2671  1.1597  0.1329
16930TIP3   OH272280   3.053   5.932  13.700  0.5904 -0.6183  0.3317
16930TIP3    H172281   3.010   5.848  13.685 -0.9118  0.5041 -2.4413
16930TIP3    H272282   3.136   5.926  13.654  0.6383 -0.7165  0.4328
16931TIP3   OH272283   4.595   1.881  15.073 -0.2328 -0.0040  0.0912
16931TIP3    H172284   4.514   1.867  15.121  0.1219  0.6544  0.9157
16931TIP3    H272285   4.570   1.935  14.998 -0.5045  0.5154  0.5486
16932TIP3   OH272286   0.404   1.942   5.134 -0.3889 -0.1140  0.0011
16932TIP3    H172287   0.482   1.984   5.099 -0.9575  0.5172 -0.5448
16932TIP3    H272288   0.381   1.994   5.211 -0.1072 -0.4774  0.3340
16933TIP3   OH272289   6.325   1.981   1.526 -0.2026 -0.0943 -0.4628
16933TIP3    H172290   6.291   1.988   1.615 -0.3462  0.4220 -0.5524
16933TIP3    H272291   6.399   2.042   1.525  1.4125 -1.9526  0.0329
16934TIP3   OH272292   0.950   5.075  12.616  0.5043  0.7647 -0.2033
16934TIP3    H172293   1.006   5.001  12.591  1.5577  2.0420 -1.8441
16934TIP3    H272294   0.986   5.150  12.568 -1.3258  2.0909  0.3686
16935TIP3   OH272295   4.059   4.955   0.727 -0.1710  0.1721 -0.0049
16935TIP3    H172296   4.038   4.938   0.819  1.5358  0.9029  0.5780
16935TIP3    H272297   4.121   4.885   0.704 -0.0959  0.3648 -0.3897
16936TIP3   OH272298   1.199   1.238  11.223 -0.2374 -0.2237 -0.3841
16936TIP3    H172299   1.141   1.274  11.156 -0.6194 -0.1726 -0.0344
16936TIP3    H272300   1.272   1.300  11.227 -0.6482  0.2559 -0.1345
16937TIP3   OH272301   1.107   3.626   3.445  0.0661 -0.1143  0.2236
16937TIP3    H172302   1.164   3.687   3.493 -1.8006  2.7774 -0.9397
16937TIP3    H272303   1.020   3.644   3.480 -1.0241  0.4669 -2.5894
16938TIP3   OH272304   1.117   4.455  16.691  0.6327  0.4821 -0.1662
16938TIP3    H172305   1.074   4.495  16.767  0.0856 -0.5577  0.0942
16938TIP3    H272306   1.173   4.388  16.728 -1.2655 -1.5352 -0.7326
16939TIP3   OH272307   3.004   4.525   0.639  0.6842 -0.1874 -0.2691
16939TIP3    H172308   3.064   4.516   0.714  0.9801  0.0274 -0.4760
16939TIP3    H272309   2.993   4.620   0.629  1.7212 -0.1512 -1.3304
16940TIP3   OH272310   4.977   3.917  11.581 -0.2776 -0.2971  0.3435
16940TIP3    H172311   5.057   3.865  11.594 -0.8279 -0.9697  1.1144
16940TIP3    H272312   4.908   3.866  11.623 -1.1795  0.1280 -0.5826
16941TIP3   OH272313   6.300   5.168   2.904 -0.6853 -0.2156  0.0108
16941TIP3    H172314   6.300   5.181   2.999 -0.3603 -0.2265  0.0121
16941TIP3    H272315   6.225   5.219   2.873  0.4555  1.5603  0.0276
16942TIP3   OH272316   5.557   1.128   1.246 -0.3018 -0.3311 -0.2112
16942TIP3    H172317   5.563   1.116   1.341 -1.1553 -1.9261 -0.3325
16942TIP3    H272318   5.464   1.119   1.227 -0.4332  2.0091 -0.9882
16943TIP3   OH272319   4.357   3.817  10.953  0.1508 -0.1702  0.0274
16943TIP3    H172320   4.411   3.749  10.913  0.6451 -0.6304  1.4262
16943TIP3    H272321   4.419   3.879  10.990 -0.2766 -0.0482  0.5626
16944TIP3   OH272322   6.074   3.676   1.643 -0.1599 -0.1165  0.5050
16944TIP3    H172323   5.984   3.658   1.614  0.3201 -2.1797  0.1801
16944TIP3    H272324   6.095   3.761   1.604 -1.7312  0.0942  0.0451
16945TIP3   OH272325   3.918   4.779   0.068 -0.4390  0.6237  0.4165
16945TIP3    H172326   3.960   4.704   0.025  1.1548 -0.3693  3.4195
16945TIP3    H272327   3.829   4.749   0.087 -0.6673  0.5271 -0.6836
16946TIP3   OH272328   5.367   1.640  12.804 -0.6559 -0.2562 -0.1719
16946TIP3    H172329   5.397   1.691  12.729  1.2235 -0.1477  0.6015
16946TIP3    H272330   5.272   1.633  12.792 -1.2119  4.0731  0.0113
16947TIP3   OH272331   0.498   6.693  13.372  0.0573 -0.0377  0.4260
16947TIP3    H172332   0.592   6.684  13.391  0.2374  1.0374  0.1438
16947TIP3    H272333   0.489   6.783  13.341 -0.7624 -0.7271 -1.4738
16948TIP3   OH272334   5.206   6.674   6.126 -0.1275 -0.1174 -0.0448
16948TIP3    H172335   5.294   6.640   6.142  0.3401  0.8747 -0.4440
16948TIP3    H272336   5.218   6.743   6.061 -0.8686  1.6418  1.5908
16949TIP3   OH272337   1.735   0.276  12.659  0.1848 -0.0563 -0.3076
16949TIP3    H172338   1.641   0.291  12.655  0.3590  1.3494  0.1456
16949TIP3    H272339   1.773   0.364  12.656  1.4198 -0.5109  1.0548
16950TIP3   OH272340   3.689   0.178   0.142 -0.5689 -0.3569 -0.0810
16950TIP3    H172341   3.766   0.149   0.190  1.0516  1.7032 -1.2722
16950TIP3    H272342   3.699   0.274   0.137 -2.5947 -0.1571 -1.2884
16951TIP3   OH272343   5.624   1.373   1.561  0.4447  0.3428  0.2602
16951TIP3    H172344   5.705   1.336   1.527  0.0325 -1.6036  1.2435
16951TIP3    H272345   5.559   1.356   1.492  0.3322 -0.4975  0.5629
16952TIP3   OH272346   1.161   3.485  13.077  0.1470  0.6885  0.3119
16952TIP3    H172347   1.168   3.577  13.050  0.6366  0.4768 -0.3001
16952TIP3    H272348   1.100   3.446  13.014  0.5048  0.4263  0.1250
16953TIP3   OH272349   5.207   4.647   5.878  0.0739  0.4275 -0.3436
16953TIP3    H172350   5.294   4.685   5.870  0.4595 -0.2207  0.6109
16953TIP3    H272351   5.199   4.622   5.970 -0.6531 -0.6099 -0.6594
16954TIP3   OH272352   3.996   5.663   3.391  0.4003 -0.3789  0.3304
16954TIP3    H172353   4.080   5.649   3.347  0.8132  0.3280  0.8773
16954TIP3    H272354   3.976   5.578   3.430  0.9795 -0.4962  0.3857
16955TIP3   OH272355   2.671   0.024  16.861  0.2128 -0.2967 -0.1875
16955TIP3    H172356   2.719  -0.021  16.930 -2.1973 -0.0620  1.7643
16955TIP3    H272357   2.707   0.112  16.859  0.7908 -0.5240  0.2722
16956TIP3   OH272358   6.209   3.917   5.296 -0.2368  0.2608  0.1441
16956TIP3    H172359   6.144   3.856   5.332  0.0339 -0.6990 -0.9125
16956TIP3    H272360   6.196   3.998   5.345  0.9194 -1.2744  3.3003
16957TIP3   OH272361   1.200   0.115   0.304 -0.3239  0.0026  1.2059
16957TIP3    H172362   1.206   0.032   0.257 -0.5151 -0.2100  1.5549
16957TIP3    H272363   1.249   0.177   0.250 -1.5370  0.0422  0.0818
16958TIP3   OH272364   0.990   4.519  16.931  0.1446 -0.0141 -0.2405
16958TIP3    H172365   0.967   4.466  17.007  1.6238 -0.5336 -0.1245
16958TIP3    H272366   0.906   4.540  16.890 -0.6952  0.2826  1.5200
16959TIP3   OH272367   0.567   0.738   3.043 -0.3860 -0.1411 -0.2298
16959TIP3    H172368   0.541   0.782   2.962  0.0472  2.2483  0.8207
16959TIP3    H272369   0.530   0.793   3.113  1.0027 -0.9415  1.1977
16960TIP3   OH272370   3.110   3.124  15.091  0.6811  0.5356 -0.0979
16960TIP3    H172371   3.196   3.105  15.128  1.8619  2.6073 -1.5846
16960TIP3    H272372   3.122   3.206  15.043 -2.0096  0.6107 -0.7906
16961TIP3   OH272373   3.929   3.122   5.767 -0.2492  0.1731  0.7617
16961TIP3    H172374   4.014   3.118   5.809 -0.2130  1.7649  0.8677
16961TIP3    H272375   3.868   3.140   5.839 -0.7740 -1.4907  0.7744
16962TIP3   OH272376   2.396   0.005  12.323 -0.3099  0.5955 -0.5476
16962TIP3    H172377   2.313   0.044  12.294 -1.3979 -0.9127  0.4159
16962TIP3    H272378   2.387  -0.088  12.303  0.1692  0.0193  1.6597
16963TIP3   OH272379   3.562   6.060   2.645  0.1181  0.4644  0.6436
16963TIP3    H172380   3.577   6.036   2.737 -0.6051  0.0705  0.6711
16963TIP3    H272381   3.631   6.016   2.597  0.6215  0.8348  1.0219
16964TIP3   OH272382   6.488   2.458  13.925  0.1226 -0.5513 -0.5238
16964TIP3    H172383   6.542   2.437  13.849  1.1873  1.8870 -0.5376
16964TIP3    H272384   6.467   2.551  13.915 -0.5518 -0.3998  1.6658
16965TIP3   OH272385   0.556   2.018   2.887  0.1602 -0.2458  0.1054
16965TIP3    H172386   0.470   2.052   2.909  1.0336  1.8421  0.5839
16965TIP3    H272387   0.594   1.994   2.972  0.2346 -0.6742 -0.0491
16966TIP3   OH272388   5.523   1.220  11.642  0.3050  0.1009 -0.2978
16966TIP3    H172389   5.512   1.282  11.570  1.9755 -0.3459 -0.9939
16966TIP3    H272390   5.509   1.135  11.602  2.5407 -0.2530 -0.4857
16967TIP3   OH272391   4.537   4.987   1.743  0.1848  0.4344 -0.1833
16967TIP3    H172392   4.548   5.061   1.803 -0.0575 -0.0790  0.5055
16967TIP3    H272393   4.618   4.985   1.692  0.6353  0.5366  0.5133
16968TIP3   OH272394   4.323   0.022   2.437  0.1785 -0.3301  0.4962
16968TIP3    H172395   4.250  -0.001   2.380  0.2835 -0.7103  0.5147
16968TIP3    H272396   4.399  -0.022   2.398  0.3692 -0.0751  0.5726
16969TIP3   OH272397   5.024   2.973   3.751  0.1664 -1.1679 -0.3280
16969TIP3    H172398   5.083   3.010   3.686  0.1240 -0.9056 -0.2187
16969TIP3    H272399   5.027   2.879   3.735 -0.3290 -1.0584 -1.1152
16970TIP3   OH272400   4.228   3.146  11.917 -0.3103  0.5458 -0.2054
16970TIP3    H172401   4.225   3.057  11.884  1.2750  0.5672 -0.5069
16970TIP3    H272402   4.220   3.201  11.839 -0.7539  0.6586 -0.0811
16971TIP3   OH272403   3.961   1.636   3.039 -0.1232  0.0267 -0.3831
16971TIP3    H172404   3.950   1.585   2.959 -2.0212 -0.2128 -0.0090
16971TIP3    H272405   3.974   1.726   3.009  0.3937 -0.2409 -0.9737
16972TIP3   OH272406   5.819   0.012   3.362 -0.0458 -0.0944 -0.2942
16972TIP3    H172407   5.844  -0.059   3.421 -1.8042  0.6721  1.4777
16972TIP3    H272408   5.788  -0.032   3.283  1.1502 -1.1937 -0.1775
16973TIP3   OH272409   0.635   5.775   2.359  0.1904 -0.4219 -0.4046
16973TIP3    H172410   0.623   5.736   2.272  0.1407 -2.4942  0.4727
16973TIP3    H272411   0.585   5.857   2.356 -2.9216 -2.1793 -1.1906
16974TIP3   OH272412   4.053   6.140   5.536  0.5682  0.1392 -0.0889
16974TIP3    H172413   4.111   6.214   5.556 -1.0161  1.3141  0.3834
16974TIP3    H272414   3.994   6.174   5.468 -3.3082  1.1313  3.3552
16975TIP3   OH272415   1.588   3.410   1.207 -0.2519  0.4009 -0.4574
16975TIP3    H172416   1.570   3.328   1.253  0.0858  0.8299  0.4744
16975TIP3    H272417   1.661   3.389   1.148 -0.1705  0.0319 -0.2310
16976TIP3   OH272418   1.322   4.775  15.939 -0.2908  0.1646 -0.1908
16976TIP3    H172419   1.394   4.752  15.881 -0.3056 -0.4403  0.0299
16976TIP3    H272420   1.361   4.836  16.003  0.0623 -0.2833  0.0226
16977TIP3   OH272421   4.459   0.850   1.041 -0.1308 -0.2326 -0.1580
16977TIP3    H172422   4.495   0.923   0.990  0.5589 -0.4583  0.0048
16977TIP3    H272423   4.478   0.773   0.988  0.6082 -0.4709  0.4594
16978TIP3   OH272424   0.336   3.556   0.773  0.0419 -0.8102  0.3604
16978TIP3    H172425   0.400   3.512   0.717  0.5787  0.7685 -0.3339
16978TIP3    H272426   0.293   3.486   0.821  0.7872 -2.0810 -0.7663
16979TIP3   OH272427   0.462   5.426  14.048 -0.0168  0.1926  0.3142
16979TIP3    H172428   0.419   5.351  14.089 -1.4811  0.2764 -0.9811
16979TIP3    H272429   0.409   5.502  14.074 -0.0812  0.4319 -0.4697
16980TIP3   OH272430   3.225   0.587  15.440  0.5465 -0.2761 -0.0599
16980TIP3    H172431   3.201   0.674  15.472 -0.4177 -0.0972 -1.1911
16980TIP3    H272432   3.320   0.587  15.438  0.5474  0.9435 -0.5289
16981TIP3   OH272433   5.138   3.925   3.933  0.2225 -0.2893 -0.1185
16981TIP3    H172434   5.095   4.006   3.905 -0.4172 -0.6113 -0.0594
16981TIP3    H272435   5.213   3.917   3.874 -1.0338 -0.8902 -1.7104
16982TIP3   OH272436   1.276   5.788  10.796  0.5933 -0.0920 -0.3850
16982TIP3    H172437   1.240   5.785  10.707 -0.6481  0.1327  0.1045
16982TIP3    H272438   1.204   5.819  10.851  0.5631 -2.5179  1.0804
16983TIP3   OH272439   4.216   1.525   4.289 -0.2079  0.0600 -0.6923
16983TIP3    H172440   4.301   1.482   4.300 -0.4368 -0.4650 -0.9008
16983TIP3    H272441   4.196   1.515   4.196  0.0741  1.2901 -0.8997
16984TIP3   OH272442   6.057   1.775   0.940  0.3454 -0.3614  1.0045
16984TIP3    H172443   6.023   1.773   1.030  1.0183 -1.9962  1.2506
16984TIP3    H272444   6.113   1.852   0.938 -2.7122  2.0497  0.7827
16985TIP3   OH272445   2.971   2.680   3.972 -0.1363  0.5193  0.4014
16985TIP3    H172446   2.959   2.663   4.065 -0.2169  0.0860  0.3155
16985TIP3    H272447   3.059   2.717   3.965  0.5524 -0.9927  0.4753
16986TIP3   OH272448   4.551   0.722   1.312  0.0700 -0.0463 -0.0789
16986TIP3    H172449   4.640   0.753   1.295 -0.0577 -0.1703 -1.0010
16986TIP3    H272450   4.495   0.799   1.299  0.0549  0.1032  0.7792
16987TIP3   OH272451   1.988   3.997  16.518 -0.7351 -0.2829 -0.3454
16987TIP3    H172452   2.029   4.020  16.602  2.0975 -0.3272 -1.6150
16987TIP3    H272453   1.935   3.920  16.538 -2.4376  1.3114  1.9301
16988TIP3   OH272454   6.668   5.217  16.987 -0.3755 -0.1080  0.0768
16988TIP3    H172455   6.734   5.215  16.918 -1.3268  1.0603 -0.9094
16988TIP3    H272456   6.619   5.136  16.975 -0.6012  0.1324 -0.7097
16989TIP3   OH272457   3.671   3.304  14.096 -0.1980  0.8394  0.0432
16989TIP3    H172458   3.673   3.323  14.002 -1.1236  2.0282  0.2410
16989TIP3    H272459   3.591   3.346  14.128 -0.6560 -0.7609  1.1328
16990TIP3   OH272460   6.145   6.337  15.487  0.0027 -0.6546 -0.6639
16990TIP3    H172461   6.068   6.292  15.452 -0.6497 -1.2817  1.4127
16990TIP3    H272462   6.213   6.270  15.488 -0.2457 -0.9101  0.0694
16991TIP3   OH272463   4.227   3.487  15.128 -0.7822 -0.9097 -0.1889
16991TIP3    H172464   4.265   3.446  15.205 -0.7437  0.7574  0.7201
16991TIP3    H272465   4.239   3.422  15.058  0.3951 -1.9130  0.8911
16992TIP3   OH272466   1.594   4.465   3.719  0.6167  0.4092 -0.0038
16992TIP3    H172467   1.542   4.534   3.679  1.0284  0.2177 -0.9082
16992TIP3    H272468   1.632   4.505   3.797 -1.1721  0.4368  0.8918
16993TIP3   OH272469   6.282   1.682  14.495 -0.4362  0.2901  0.7719
16993TIP3    H172470   6.320   1.596  14.479  1.0418  0.7217  1.7734
16993TIP3    H272471   6.227   1.699  14.418 -2.8378 -2.6020  1.6417
16994TIP3   OH272472   5.803   3.702  11.330 -0.0689 -0.0898 -0.2991
16994TIP3    H172473   5.895   3.726  11.335 -0.5521  1.8693  0.0400
16994TIP3    H272474   5.756   3.785  11.343 -1.8871 -1.1722  0.3430
16995TIP3   OH272475   2.707   1.465   4.625  0.1437 -0.2337  0.7815
16995TIP3    H172476   2.687   1.373   4.641 -0.0973 -0.0558  1.5704
16995TIP3    H272477   2.780   1.464   4.564 -1.1249 -0.9218 -0.7867
16996TIP3   OH272478   6.187   2.353  13.908 -0.1363 -0.1459 -0.2830
16996TIP3    H172479   6.260   2.320  13.960  0.2683  0.8903 -0.1520
16996TIP3    H272480   6.156   2.429  13.957  0.3893  0.9883 -1.6207
16997TIP3   OH272481   2.789   1.700   1.946 -0.1284 -0.1432  0.6950
16997TIP3    H172482   2.866   1.714   1.891 -0.9292  0.4397 -0.2929
16997TIP3    H272483   2.761   1.610   1.927 -2.1521  0.9601 -2.1782
16998TIP3   OH272484   6.456   4.434  14.638 -0.0183  0.6771  0.0993
16998TIP3    H172485   6.375   4.390  14.660  0.1737  1.0858  1.7688
16998TIP3    H272486   6.434   4.527  14.637  0.2109  0.7333 -0.4922
16999TIP3   OH272487   1.942   6.338   2.655 -0.4834  0.0385 -0.4053
16999TIP3    H172488   2.009   6.369   2.594 -0.3505  3.9069  1.3801
16999TIP3    H272489   1.860   6.341   2.605  0.0581 -0.2586 -1.3329
17000TIP3   OH272490   0.867   1.518  14.292  0.3863  0.0557  0.3469
17000TIP3    H172491   0.821   1.500  14.210  0.4961 -0.1812  0.3359
17000TIP3    H272492   0.940   1.574  14.267 -0.8160  1.8251  0.5899
17001TIP3   OH272493   2.100   5.436  11.961  0.2067  0.0483  0.3233
17001TIP3    H172494   2.176   5.435  12.020  0.1961  0.4981  0.3471
17001TIP3    H272495   2.040   5.499  12.001  0.2477  0.4469 -0.2342
17002TIP3   OH272496   3.522   0.081  17.406  0.6022  0.0735 -0.0325
17002TIP3    H172497   3.440   0.034  17.398 -1.2091  3.0062 -0.0078
17002TIP3    H272498   3.542   0.081  17.500  0.5111 -0.4433 -0.0149
17003TIP3   OH272499   1.896   5.974  15.784  0.4683 -0.6250  0.0903
17003TIP3    H172500   1.954   5.999  15.712  0.3031  0.4394  0.3141
17003TIP3    H272501   1.954   5.940  15.851  0.7426 -0.4257 -0.0448
17004TIP3   OH272502   4.765   2.901  11.297 -0.0263 -0.1184 -0.5597
17004TIP3    H172503   4.721   2.815  11.303 -1.1078  0.2466 -2.4140
17004TIP3    H272504   4.763   2.922  11.204 -1.2906  2.6763 -0.0064
17005TIP3   OH272505   2.353   5.840   0.488 -0.2633 -0.0317  0.1885
17005TIP3    H172506   2.328   5.780   0.418  0.0755 -0.3537  0.3438
17005TIP3    H272507   2.280   5.902   0.493 -0.9087 -0.7996  0.4482
17006TIP3   OH272508   4.133   3.461  16.539  0.1337  0.9829 -0.1731
17006TIP3    H172509   4.106   3.493  16.453  1.0603  2.0047 -0.1032
17006TIP3    H272510   4.154   3.369  16.525  1.5520  1.4466 -1.3732
17007TIP3   OH272511   5.197   4.829  14.331 -0.1916  0.0846 -0.5003
17007TIP3    H172512   5.113   4.819  14.286 -1.3550  1.3580  1.3009
17007TIP3    H272513   5.176   4.820  14.424  1.9864 -1.4326 -0.0870
17008TIP3   OH272514   5.036   3.871   2.570  0.2764 -0.1066  0.6246
17008TIP3    H172515   4.941   3.878   2.557  0.2884 -0.2766  0.4588
17008TIP3    H272516   5.048   3.787   2.615  0.5877 -1.3732 -1.6870
17009TIP3   OH272517   1.509   3.064  14.597  0.0912  0.7231  0.6091
17009TIP3    H172518   1.556   3.146  14.582 -0.4912  0.8274 -0.7880
17009TIP3    H272519   1.455   3.053  14.519 -0.5269 -0.5288  1.1926
17010TIP3   OH272520   3.588   3.435   0.331 -0.2072  0.5607  0.5438
17010TIP3    H172521   3.612   3.460   0.421  0.4418  1.0194  0.2486
17010TIP3    H272522   3.624   3.347   0.320 -0.3491  0.4744  0.7540
17011TIP3   OH272523   5.000   0.109  13.598  0.1074 -0.0351  0.1155
17011TIP3    H172524   4.976   0.097  13.506  1.1520 -2.6244  0.0949
17011TIP3    H272525   4.930   0.067  13.647  0.8565 -1.0683  0.3466
17012TIP3   OH272526   0.993   2.239   1.188  0.0877  0.3263 -0.5835
17012TIP3    H172527   0.988   2.309   1.254 -1.1352 -1.0008  0.8113
17012TIP3    H272528   0.902   2.225   1.161  0.1963 -1.2433 -0.2220
17013TIP3   OH272529   0.051   5.227  11.784 -0.3518  0.5188 -0.4115
17013TIP3    H172530   0.091   5.270  11.859 -0.9525  1.6061 -0.6852
17013TIP3    H272531  -0.034   5.196  11.816  1.2320 -3.1965  0.6107
17014TIP3   OH272532   2.166   1.932  13.116  0.0618  0.0850  0.4768
17014TIP3    H172533   2.151   1.911  13.023  0.6817  2.7889 -0.3183
17014TIP3    H272534   2.260   1.947  13.122 -0.2896  2.5279  0.8691
17015TIP3   OH272535   1.910   1.153   4.223  0.0013  0.6748 -0.4957
17015TIP3    H172536   1.816   1.149   4.209 -0.3345  2.0818  1.1331
17015TIP3    H272537   1.935   1.063   4.243 -0.7971  0.1039 -1.8770
17016TIP3   OH272538   4.360   1.140  16.712 -0.0820 -0.2927  0.3676
17016TIP3    H172539   4.447   1.101  16.715 -0.2188 -1.2089 -3.0623
17016TIP3    H272540   4.326   1.130  16.801  3.1113 -0.2686  1.7170
17017TIP3   OH272541   4.976   3.478  17.477  0.3013 -0.3602 -0.1466
17017TIP3    H172542   5.008   3.493  17.566  1.3864  0.1090 -0.5988
17017TIP3    H272543   5.017   3.547  17.425 -0.3848 -0.5799 -1.0033
17018TIP3   OH272544   3.405   4.827   2.748  0.5190  0.5718 -0.8238
17018TIP3    H172545   3.340   4.822   2.817  1.6745  1.6444  0.3858
17018TIP3    H272546   3.390   4.912   2.706  1.9867  1.4962  0.4070
17019TIP3   OH272547   1.386   6.734  16.807  0.3343 -0.0582  0.2466
17019TIP3    H172548   1.298   6.759  16.835  0.3135 -1.3161  1.4426
17019TIP3    H272549   1.386   6.745  16.712 -1.2124 -0.3210  0.1913
17020TIP3   OH272550   0.536   1.649   4.959 -0.1197 -0.4673  0.3337
17020TIP3    H172551   0.615   1.636   4.907 -0.6176 -1.8043 -0.1339
17020TIP3    H272552   0.466   1.659   4.895 -0.7697 -2.2896  0.6861
17021TIP3   OH272553   1.969   5.118  12.257  0.1881  0.4646 -0.2737
17021TIP3    H172554   1.976   5.203  12.301 -0.1183 -0.6291  2.0318
17021TIP3    H272555   2.056   5.079  12.265 -0.2421 -0.3363  0.6781
17022TIP3   OH272556   6.677   3.153  10.794  0.3505 -0.4854 -0.4705
17022TIP3    H172557   6.606   3.217  10.801 -0.1504 -0.9447 -1.1968
17022TIP3    H272558   6.750   3.193  10.841  0.0585  0.6423 -0.9442
17023TIP3   OH272559   5.832   1.963   0.367 -0.2207  0.0944 -0.1156
17023TIP3    H172560   5.793   2.048   0.385 -0.9175 -0.3662  0.5912
17023TIP3    H272561   5.785   1.902   0.424  1.1996 -0.5512  0.4127
17024TIP3   OH272562   2.413   6.582  15.019 -0.2593  0.1490  0.0657
17024TIP3    H172563   2.507   6.584  15.040 -0.7728  0.7820  2.6350
17024TIP3    H272564   2.405   6.637  14.941  1.3409  1.3109  0.6639
17025TIP3   OH272565   1.619   2.251  16.375 -0.4863 -0.2900  0.1033
17025TIP3    H172566   1.620   2.343  16.402 -2.2362 -0.5879  1.3709
17025TIP3    H272567   1.699   2.214  16.411 -0.4515  0.4359  0.7936
17026TIP3   OH272568   6.367   6.305   1.870  0.6108  0.1699  0.0991
17026TIP3    H172569   6.422   6.377   1.837  0.4356  0.0581 -0.4554
17026TIP3    H272570   6.341   6.333   1.958 -1.8460  2.1882 -1.1241
17027TIP3   OH272571   0.165   1.409  11.059  0.2808  0.1376  0.1567
17027TIP3    H172572   0.161   1.384  11.152 -0.1801  1.9626  0.6763
17027TIP3    H272573   0.256   1.393  11.034  0.4260 -0.3412  0.9472
17028TIP3   OH272574   3.066   3.439   1.586  0.0137  0.5422  1.0356
17028TIP3    H172575   3.091   3.447   1.678  0.9400  2.0729  0.6807
17028TIP3    H272576   2.979   3.479   1.580  0.0548  0.6536  1.1999
17029TIP3   OH272577   4.161   5.867  15.996  0.3197  0.2700  0.2180
17029TIP3    H172578   4.104   5.849  16.070  0.9852 -0.9232  0.4633
17029TIP3    H272579   4.250   5.864  16.033  0.5612  2.6879 -0.0281
17030TIP3   OH272580   3.491   6.631  16.063 -0.1191  0.2821 -0.5080
17030TIP3    H172581   3.530   6.585  15.989 -0.3949 -1.0156  0.1161
17030TIP3    H272582   3.397   6.627  16.048 -0.2754 -1.4545  0.6970
17031TIP3   OH272583   6.008   0.424  17.440 -0.5300  0.4534 -0.2059
17031TIP3    H172584   5.958   0.504  17.418  1.4312  2.0780  0.9272
17031TIP3    H272585   6.095   0.440  17.406 -0.2645 -1.5634 -0.5706
17032TIP3   OH272586   4.083   1.530   1.658  0.0184 -0.8267  0.2269
17032TIP3    H172587   4.003   1.560   1.702 -0.1932  1.0823 -1.3232
17032TIP3    H272588   4.139   1.608   1.653  0.9498 -1.5219 -0.9066
17033TIP3   OH272589   5.283   5.702  15.712 -0.2576 -0.2645  0.1338
17033TIP3    H172590   5.211   5.671  15.767  0.4586 -1.0522  0.6555
17033TIP3    H272591   5.296   5.793  15.738 -0.0172 -0.5884  1.1959
17034TIP3   OH272592   6.340   3.005   0.958  0.4501  0.3491 -0.2188
17034TIP3    H172593   6.330   2.967   1.045  2.6543 -1.4193 -0.6483
17034TIP3    H272594   6.320   2.934   0.898  1.4727  0.7623 -1.0963
17035TIP3   OH272595   4.522   3.473   5.143 -0.1629  0.4299  0.7131
17035TIP3    H172596   4.514   3.424   5.224 -0.1728  1.2718  1.2274
17035TIP3    H272597   4.615   3.498   5.139 -0.1839  0.4857  0.5209
17036TIP3   OH272598   6.239   0.868  16.597 -0.5919  0.6862 -0.4704
17036TIP3    H172599   6.293   0.841  16.670 -1.1420  0.7313 -0.0402
17036TIP3    H272600   6.229   0.789  16.544 -0.3230  0.6136 -0.4089
17037TIP3   OH272601   0.176   1.595   2.360  0.3295 -0.5608 -0.6640
17037TIP3    H172602   0.212   1.625   2.444 -0.3154 -1.4699 -0.0354
17037TIP3    H272603   0.109   1.532   2.385 -0.2005 -0.4962 -1.8678
17038TIP3   OH272604   2.298   2.725  11.152  0.5817  0.1987  0.4439
17038TIP3    H172605   2.232   2.759  11.212 -0.8632 -0.2259 -0.8297
17038TIP3    H272606   2.289   2.779  11.074  0.0506 -1.3465 -0.6256
17039TIP3   OH272607   6.102   3.901   6.280  0.4869 -0.2524  0.2285
17039TIP3    H172608   6.102   3.979   6.225 -1.5632 -0.2283  0.1776
17039TIP3    H272609   6.088   3.934   6.368 -1.3123 -0.5716  0.0959
17040TIP3   OH272610   4.208   5.891   3.489 -0.9159 -0.1690  0.2840
17040TIP3    H172611   4.120   5.920   3.515 -1.1217 -1.2679  0.8918
17040TIP3    H272612   4.194   5.802   3.456 -0.0862 -0.2079  0.0357
17041TIP3   OH272613   3.669   1.566  16.444  0.5238 -0.0899 -1.2639
17041TIP3    H172614   3.711   1.597  16.524  0.6736 -0.7301 -1.0882
17041TIP3    H272615   3.732   1.503  16.407  0.7473  0.6847 -2.2276
17042TIP3   OH272616   3.433   2.170  12.052  0.1869 -0.5534  0.0053
17042TIP3    H172617   3.519   2.210  12.062 -0.3061  0.1037  1.9726
17042TIP3    H272618   3.416   2.126  12.136 -1.2192 -1.0199 -0.4863
17043TIP3   OH272619   1.307   4.517   2.370  0.2669 -0.5575 -0.4040
17043TIP3    H172620   1.300   4.542   2.461 -1.7564 -0.4138 -0.5585
17043TIP3    H272621   1.393   4.474   2.363  0.7244  0.0044  1.3865
17044TIP3   OH272622   2.551   4.472   2.057  0.1127 -0.0205 -0.3494
17044TIP3    H172623   2.545   4.399   1.995 -0.3795 -2.6002  2.5143
17044TIP3    H272624   2.642   4.473   2.085 -0.1433 -0.4410  0.5536
17045TIP3   OH272625   1.435   1.664  16.556  0.5012  0.3380  0.3534
17045TIP3    H172626   1.443   1.574  16.525  2.3687  0.7212 -0.3805
17045TIP3    H272627   1.426   1.655  16.651 -1.1981 -0.6677  0.1371
17046TIP3   OH272628   5.254   5.053   5.257 -0.5837 -0.3167 -0.2303
17046TIP3    H172629   5.174   5.005   5.236 -0.1976 -0.8910 -0.4073
17046TIP3    H272630   5.296   5.000   5.325 -1.1080  0.7721  0.9951
17047TIP3   OH272631   5.667   0.617   6.533  0.5604  0.0919  0.0153
17047TIP3    H172632   5.737   0.679   6.552  0.7511  0.1874 -0.9594
17047TIP3    H272633   5.702   0.532   6.562  1.1699  0.1059 -0.6389
17048TIP3   OH272634   5.575   3.654  13.529  0.5090 -0.4613 -0.0791
17048TIP3    H172635   5.510   3.724  13.534  0.8313 -0.2419  2.3907
17048TIP3    H272636   5.655   3.697  13.501  0.1928 -0.2546 -0.6656
17049TIP3   OH272637   3.649   6.634   6.163  0.3507 -0.0290  0.1308
17049TIP3    H172638   3.634   6.548   6.200  0.4694  0.5669  1.6088
17049TIP3    H272639   3.639   6.695   6.236  1.4784  1.1216 -0.6191
17050TIP3   OH272640   0.967   0.461  15.014  0.1554 -0.7814  0.2574
17050TIP3    H172641   1.003   0.549  15.006 -1.5122  0.0826  1.7655
17050TIP3    H272642   0.875   0.474  15.035  0.0797 -2.8745  1.4887
17051TIP3   OH272643   3.340   2.030   1.181  0.3574 -0.4320  0.3313
17051TIP3    H172644   3.311   2.082   1.106  0.5148 -1.5937 -0.5738
17051TIP3    H272645   3.435   2.034   1.177  0.4065  1.7024  2.0950
17052TIP3   OH272646   4.580   5.955  17.457 -0.7033 -0.6935  0.0747
17052TIP3    H172647   4.519   5.947  17.531 -1.4198  0.8626 -0.3033
17052TIP3    H272648   4.653   6.007  17.491  0.3454 -2.3477  0.4550
17053TIP3   OH272649   5.234   0.917  11.965  0.5057 -0.2117 -0.2953
17053TIP3    H172650   5.320   0.877  11.957 -0.7679 -2.9545 -1.6153
17053TIP3    H272651   5.173   0.850  11.933 -2.3261  0.7805  2.4968
17054TIP3   OH272652   6.076   3.659   5.888  0.0488 -0.2281  0.1897
17054TIP3    H172653   6.167   3.675   5.862  1.4005  0.6329  4.6378
17054TIP3    H272654   6.044   3.744   5.918 -2.1698 -0.5899 -0.9420
17055TIP3   OH272655   1.369   4.503  15.635  1.1262 -0.4361  0.1183
17055TIP3    H172656   1.432   4.487  15.564  1.3886 -0.8321  0.4416
17055TIP3    H272657   1.420   4.550  15.701  1.2236 -1.2058  0.6008
17056TIP3   OH272658   5.857   0.464  17.134  0.0858 -0.9266 -0.8172
17056TIP3    H172659   5.820   0.524  17.070  0.6027 -0.3191 -0.5572
17056TIP3    H272660   5.853   0.511  17.218  0.4348 -1.2710 -0.6005
17057TIP3   OH272661   3.740   2.457  10.948 -0.4731  0.2211 -0.5326
17057TIP3    H172662   3.823   2.411  10.963 -1.0089 -1.4048 -2.2019
17057TIP3    H272663   3.766   2.539  10.906  0.2558 -1.1084 -2.8257
17058TIP3   OH272664   0.957   1.187  13.241  0.9310 -0.1964  0.1315
17058TIP3    H172665   0.958   1.178  13.336 -1.8365 -1.3993  0.1554
17058TIP3    H272666   0.939   1.098  13.209 -1.0286  0.6451 -1.3225
17059TIP3   OH272667   2.459   6.437  14.726  0.0750  0.7066  0.0537
17059TIP3    H172668   2.494   6.418  14.814  1.9991 -1.3322 -1.0525
17059TIP3    H272669   2.364   6.431  14.736  0.3007 -0.5979  1.7745
17060TIP3   OH272670   6.203   1.883   4.381  0.8318  0.1761  0.0044
17060TIP3    H172671   6.169   1.864   4.294  0.7334  1.2003 -0.1899
17060TIP3    H272672   6.130   1.924   4.427  0.6428 -1.0381  0.8314
17061TIP3   OH272673   0.664   0.900  17.359  0.7473  0.2358 -0.1765
17061TIP3    H172674   0.708   0.978  17.324  2.8394 -1.3497 -1.3002
17061TIP3    H272675   0.680   0.905  17.453  1.9141  0.5762 -0.3702
17062TIP3   OH272676   6.304   2.037  17.520  0.3448 -0.1518  0.1752
17062TIP3    H172677   6.347   1.963  17.479  1.9533 -0.0281  1.5484
17062TIP3    H272678   6.374   2.100  17.537 -0.2509 -0.0940  2.8296
17063TIP3   OH272679   6.239   6.702   6.116  0.0369 -0.2343  0.3912
17063TIP3    H172680   6.212   6.663   6.199  0.2679 -0.2064  0.4809
17063TIP3    H272681   6.253   6.794   6.136 -1.1395  0.0299  0.0321
17064TIP3   OH272682   1.076   6.348   1.903  0.0981 -0.1464 -0.0795
17064TIP3    H172683   1.048   6.437   1.921  0.3907 -0.0111 -0.2711
17064TIP3    H272684   1.136   6.357   1.828  2.6665 -0.0823  1.8255
17065TIP3   OH272685   3.640   6.471   2.270 -0.0964 -0.0288  0.3024
17065TIP3    H172686   3.662   6.397   2.326  0.7906 -0.6630 -0.8367
17065TIP3    H272687   3.553   6.451   2.236  0.0623 -0.4670  0.1446
17066TIP3   OH272688   3.283   2.708   5.797  0.2044 -0.1731  0.2882
17066TIP3    H172689   3.292   2.791   5.843  1.4460 -0.4238  0.5588
17066TIP3    H272690   3.332   2.720   5.715  1.0342 -0.8418  0.6598
17067TIP3   OH272691   3.371   3.792  16.924  0.4966 -0.2420 -0.1582
17067TIP3    H172692   3.392   3.736  16.849 -0.7925 -3.2054  1.5048
17067TIP3    H272693   3.278   3.810  16.914  0.2664 -0.8435  0.8002
17068TIP3   OH272694   1.813   1.731   0.790 -0.1904 -0.1197  1.0201
17068TIP3    H172695   1.786   1.647   0.754  1.6803 -0.1836 -0.3833
17068TIP3    H272696   1.893   1.754   0.742 -0.0554  1.9608  2.0918
17069TIP3   OH272697   5.067   1.195   5.407  0.3284 -0.4617  0.5101
17069TIP3    H172698   5.014   1.251   5.464  0.0369 -0.4540  0.2347
17069TIP3    H272699   5.039   1.217   5.318  3.7187  2.6466 -0.0105
17070TIP3   OH272700   0.501   2.690  14.285 -0.1665  0.1772 -0.1437
17070TIP3    H172701   0.565   2.739  14.337 -0.1531  0.6236 -0.5726
17070TIP3    H272702   0.518   2.598  14.307  1.7542  0.1421 -1.4889
17071TIP3   OH272703   3.112   4.307  12.193 -0.0206  0.4736 -0.1600
17071TIP3    H172704   3.068   4.222  12.189  0.2138  0.2943  0.7520
17071TIP3    H272705   3.079   4.355  12.117  1.5928 -1.2544 -2.0656
17072TIP3   OH272706   4.747   4.267  16.736  0.7221 -0.1164  0.7450
17072TIP3    H172707   4.719   4.335  16.675 -0.4721 -0.4413  0.9073
17072TIP3    H272708   4.669   4.213  16.749  0.8313  0.1732  2.8699
17073TIP3   OH272709   1.700   1.722   1.318 -0.7933  0.1177 -0.5787
17073TIP3    H172710   1.651   1.707   1.400  0.2190 -0.0977  0.0070
17073TIP3    H272711   1.746   1.639   1.302  1.1085  0.9819  0.1012
17074TIP3   OH272712   5.450   1.667   4.169 -0.0567  0.2371 -0.9324
17074TIP3    H172713   5.424   1.588   4.217  1.9832 -0.6213 -1.1445
17074TIP3    H272714   5.426   1.739   4.227  2.4914 -0.7632  1.5663
17075TIP3   OH272715   1.863   5.751  16.077 -0.4876  0.1574  0.3844
17075TIP3    H172716   1.843   5.658  16.070  0.5728 -0.2405  2.0357
17075TIP3    H272717   1.778   5.793  16.090 -0.9039 -0.6648  0.4022
17076TIP3   OH272718   6.519   2.164  15.269 -0.5403  0.1577 -0.0246
17076TIP3    H172719   6.613   2.151  15.258 -0.8391 -1.7863 -0.5732
17076TIP3    H272720   6.490   2.090  15.321 -1.7078  1.0313  0.6293
17077TIP3   OH272721   4.109   1.171  12.405 -0.2807 -0.3281 -0.4126
17077TIP3    H172722   4.166   1.192  12.479  0.1097  1.1702 -1.0948
17077TIP3    H272723   4.033   1.229  12.417 -1.1105 -1.4300 -0.1785
17078TIP3   OH272724   2.608   1.064  16.274 -0.2010 -0.4152  0.3155
17078TIP3    H172725   2.526   1.102  16.243  0.6322  1.5838  0.4016
17078TIP3    H272726   2.673   1.089  16.208  0.5522 -1.0286  0.8004
17079TIP3   OH272727   3.053   5.697   5.231  0.2141  0.4981 -0.2088
17079TIP3    H172728   2.990   5.647   5.283 -0.4270  1.8692  0.3732
17079TIP3    H272729   3.035   5.671   5.140  1.4790 -2.0776  0.1811
17080TIP3   OH272730   4.787   5.715   0.593 -0.5452  0.7958  0.5188
17080TIP3    H172731   4.757   5.795   0.635 -0.3762  0.6697  0.8830
17080TIP3    H272732   4.882   5.714   0.608 -0.6675  0.0453  1.3788
17081TIP3   OH272733   1.824   0.832   4.011  0.2883 -0.0383  0.3735
17081TIP3    H172734   1.871   0.777   3.948  0.9390 -0.7054  1.4157
17081TIP3    H272735   1.734   0.802   4.007  0.0235  0.8734 -1.2390
17082TIP3   OH272736   1.462   6.535   1.787  0.2266  0.4533 -0.2853
17082TIP3    H172737   1.432   6.452   1.750  1.6034  0.3153 -1.1580
17082TIP3    H272738   1.483   6.515   1.878 -1.9920  0.5086  0.3128
17083TIP3   OH272739   3.921   0.029   0.199  0.3388 -0.3888  0.3034
17083TIP3    H172740   3.950   0.036   0.108 -2.6726  0.0711 -0.7209
17083TIP3    H272741   3.917  -0.066   0.215 -0.7642 -0.5141 -0.6426
17084TIP3   OH272742   5.061   1.886  11.778  0.2082  0.4461  0.6620
17084TIP3    H172743   5.099   1.952  11.720  0.1642 -0.4422 -0.4172
17084TIP3    H272744   4.989   1.848  11.727  0.1441 -0.3333  1.3127
17085TIP3   OH272745   1.980   1.372  11.594 -0.1302 -0.3518 -0.3429
17085TIP3    H172746   1.955   1.406  11.680  0.4798 -0.3123 -0.1768
17085TIP3    H272747   2.015   1.285  11.613  1.1202  0.1252 -0.4011
17086TIP3   OH272748   0.614   3.562   0.398 -0.3130  0.6984  0.0265
17086TIP3    H172749   0.620   3.614   0.478 -1.5896 -0.0269  0.6235
17086TIP3    H272750   0.549   3.494   0.418  0.8048 -0.7193 -0.9484
17087TIP3   OH272751   4.911   2.688   0.694  0.2305 -0.4900 -0.2883
17087TIP3    H172752   4.928   2.775   0.730  1.6497 -0.4836 -0.9036
17087TIP3    H272753   4.816   2.678   0.698 -0.2899  2.1959 -2.6242
17088TIP3   OH272754   6.446   3.600  13.011  0.0694 -0.0270  0.1043
17088TIP3    H172755   6.421   3.660  13.080  1.4769 -0.1005  0.7064
17088TIP3    H272756   6.410   3.639  12.931  2.7648  2.8230  0.1334
17089TIP3   OH272757   2.006   0.658   6.226 -0.0303  0.0251  0.1766
17089TIP3    H172758   2.091   0.642   6.184 -0.2769 -0.4948 -0.1317
17089TIP3    H272759   1.943   0.613   6.170 -0.1845 -2.4047  2.1351
17090TIP3   OH272760   0.902   2.331  13.424 -0.5257 -0.9202 -1.2835
17090TIP3    H172761   0.828   2.362  13.476  0.4742 -0.1501 -0.2602
17090TIP3    H272762   0.925   2.405  13.368  0.0702 -0.8123 -0.9022
17091TIP3   OH272763   4.287   1.967   4.776  0.0156  0.1716 -0.2267
17091TIP3    H172764   4.269   1.997   4.865 -1.3919 -0.5400 -0.2341
17091TIP3    H272765   4.382   1.961   4.770  0.1724  1.4717  0.8024
17092TIP3   OH272766   0.210   5.457   3.670  0.1548 -0.1868 -0.5703
17092TIP3    H172767   0.297   5.481   3.701  0.0210 -0.9821  0.4549
17092TIP3    H272768   0.206   5.362   3.680 -0.6407 -0.2269 -1.1251
17093TIP3   OH272769   0.095   3.123   1.707 -0.1659  0.3246 -0.5349
17093TIP3    H172770   0.187   3.103   1.724 -0.4985  0.5061  1.8395
17093TIP3    H272771   0.047   3.052   1.748 -1.1266  0.0951 -1.9795
17094TIP3   OH272772   2.733   4.355  11.872 -0.2634 -0.1169 -0.3516
17094TIP3    H172773   2.737   4.305  11.953  1.0613  0.7217  0.1220
17094TIP3    H272774   2.640   4.375  11.861 -0.8362 -2.4954 -0.4802
17095TIP3   OH272775   2.438   4.830   4.489 -0.5584 -0.1788 -0.3964
17095TIP3    H172776   2.410   4.912   4.447  0.4297  0.3051 -0.1586
17095TIP3    H272777   2.533   4.828   4.475 -0.7752 -2.2438 -2.0301
17096TIP3   OH272778   0.985   4.703   1.534  0.9135 -0.2958 -0.4079
17096TIP3    H172779   1.059   4.716   1.475  0.3547 -2.2423 -1.6226
17096TIP3    H272780   0.911   4.683   1.476 -0.1551 -0.1616  0.8582
17097TIP3   OH272781   1.830   4.038   0.829  0.2042  0.1683  0.1327
17097TIP3    H172782   1.818   4.125   0.792 -0.2945 -0.7998 -2.1615
17097TIP3    H272783   1.923   4.019   0.819  0.3582  0.4880  0.8486
17098TIP3   OH272784   2.646   5.095  12.067  0.3684 -0.1842  0.2969
17098TIP3    H172785   2.710   5.028  12.044 -1.3845 -1.4217 -1.2361
17098TIP3    H272786   2.679   5.175  12.026  0.9075 -0.8147 -0.5201
17099TIP3   OH272787   5.121   0.795  14.256  0.3180 -0.2443 -0.1973
17099TIP3    H172788   5.082   0.714  14.289 -2.6001  1.6987  1.6340
17099TIP3    H272789   5.198   0.809  14.312 -0.6983 -0.4568  1.3277
17100TIP3   OH272790   1.431   4.444  16.742  0.2927  0.0555  0.4999
17100TIP3    H172791   1.468   4.519  16.694 -3.6211  2.5821  0.9535
17100TIP3    H272792   1.409   4.480  16.828 -3.1471 -1.0634  0.2052
17101TIP3   OH272793   0.783   6.704  11.248 -0.0356  0.2850 -0.1859
17101TIP3    H172794   0.748   6.702  11.158 -2.6051 -0.0304  0.7187
17101TIP3    H272795   0.856   6.642  11.247 -0.6660 -0.5016 -1.8360
17102TIP3   OH272796   0.851   4.431   1.078 -0.3052  0.3359 -0.3339
17102TIP3    H172797   0.821   4.368   1.013  0.7730 -0.8415  0.2519
17102TIP3    H272798   0.859   4.380   1.159  1.3418  1.0164 -0.0261
17103TIP3   OH272799   3.399   5.865  13.047  0.0052 -0.2524  0.1771
17103TIP3    H172800   3.355   5.945  13.076  2.9280  0.8854  1.8506
17103TIP3    H272801   3.399   5.871  12.951 -2.6428  0.0460  0.1139
17104TIP3   OH272802   4.760   3.625   4.636  0.3565 -0.0079 -0.1673
17104TIP3    H172803   4.853   3.615   4.614  0.4207 -0.3190  0.2224
17104TIP3    H272804   4.743   3.553   4.697 -0.1223  0.0943 -0.1814
17105TIP3   OH272805   2.835   4.905  16.143  0.1772 -0.0642 -0.4020
17105TIP3    H172806   2.870   4.959  16.214  1.3785 -1.5735  0.2191
17105TIP3    H272807   2.893   4.924  16.069  0.2199 -0.0475 -0.3650
17106TIP3   OH272808   6.742   5.893  14.881 -0.0165 -0.6152  0.0480
17106TIP3    H172809   6.771   5.950  14.810 -0.0085  0.0719  0.5880
17106TIP3    H272810   6.694   5.822  14.838 -0.0295 -0.1938 -0.6348
17107TIP3   OH272811   6.072   6.615  12.683 -0.5452 -0.3017 -0.7106
17107TIP3    H172812   6.096   6.639  12.773 -0.0631 -1.5486 -0.4852
17107TIP3    H272813   6.056   6.520  12.687 -2.5351 -0.0478 -1.5090
17108TIP3   OH272814   4.740   6.580  17.188 -0.2773 -0.2938  0.5579
17108TIP3    H172815   4.817   6.633  17.207  0.0531 -0.0229 -1.2694
17108TIP3    H272816   4.772   6.516  17.123 -2.0929  1.5544 -2.4028
17109TIP3   OH272817   6.460   2.877   3.655 -0.4555  0.0951 -0.2803
17109TIP3    H172818   6.508   2.795   3.662 -0.6597  0.0460  0.5929
17109TIP3    H272819   6.445   2.905   3.745 -1.6682  0.3313 -0.5298
17110TIP3   OH272820   2.112   3.597   1.414 -0.1487  0.1563 -0.8546
17110TIP3    H172821   2.070   3.655   1.351 -0.6426  0.1083 -0.5800
17110TIP3    H272822   2.055   3.520   1.418 -0.1796  0.1976 -0.2886
17111TIP3   OH272823   1.305   4.993   5.235  0.0471 -0.0602 -0.7691
17111TIP3    H172824   1.270   4.908   5.259  0.4829  0.1447  0.6978
17111TIP3    H272825   1.232   5.054   5.248  0.3998  0.1124  0.5571
17112TIP3   OH272826   1.211   4.799  13.600  0.1784  0.4373  0.2169
17112TIP3    H172827   1.135   4.858  13.596 -0.0245  0.2799  1.5194
17112TIP3    H272828   1.181   4.719  13.557  0.0184  0.8109 -0.3753
17113TIP3   OH272829   2.228   6.465   5.407  0.6398 -0.1511 -0.3712
17113TIP3    H172830   2.133   6.464   5.398  0.4430  1.2830  1.1110
17113TIP3    H272831   2.260   6.498   5.323 -0.1890 -0.3626 -0.7759
17114TIP3   OH272832   3.305   2.157  12.823 -0.4352  0.2521  0.3244
17114TIP3    H172833   3.385   2.209  12.838  1.1561 -2.4514  2.1019
17114TIP3    H272834   3.250   2.213  12.768  2.3600  2.5652 -0.3718
17115TIP3   OH272835   1.777   0.351   3.803  0.5429  0.3223 -0.2437
17115TIP3    H172836   1.787   0.256   3.802 -0.4129  0.1845 -2.1627
17115TIP3    H272837   1.817   0.379   3.720  0.5525  1.5688  0.1685
17116TIP3   OH272838   1.507   0.726   3.586 -0.3793  0.4384 -0.0164
17116TIP3    H172839   1.426   0.764   3.619 -0.6382  1.0185 -1.2703
17116TIP3    H272840   1.486   0.697   3.497  0.5800 -0.0983 -0.0850
17117TIP3   OH272841   1.418   1.570  15.198  0.1300  0.3679 -0.2804
17117TIP3    H172842   1.451   1.615  15.119  1.1474 -0.0436 -0.1103
17117TIP3    H272843   1.487   1.584  15.263  0.2829 -1.0672 -0.0968
17118TIP3   OH272844   6.060   1.463  12.696 -0.2722  0.1651  0.4056
17118TIP3    H172845   5.994   1.402  12.731 -0.3993 -0.6845 -1.1652
17118TIP3    H272846   6.119   1.407  12.646  1.3421  0.9968  1.3092
17119TIP3   OH272847   2.732   3.953   0.412  0.1398 -0.2986  0.5829
17119TIP3    H172848   2.734   3.878   0.472  0.2482 -0.2369  0.6567
17119TIP3    H272849   2.823   3.962   0.383  0.1493 -0.1229  0.6645
17120TIP3   OH272850   5.386   5.716  14.018 -0.0144  0.0103  0.0294
17120TIP3    H172851   5.389   5.622  14.035 -0.1661 -0.1517 -0.8017
17120TIP3    H272852   5.421   5.756  14.098 -1.2433 -0.6847  0.9540
17121TIP3   OH272853   6.058   6.675   4.669  0.1333  0.0841  0.3807
17121TIP3    H172854   5.970   6.646   4.644  0.0129  1.5664 -1.0876
17121TIP3    H272855   6.116   6.632   4.605  0.0751  1.9162 -0.9869
17122TIP3   OH272856   2.540   5.459   0.912 -0.4513  0.7632 -0.5662
17122TIP3    H172857   2.458   5.426   0.949 -0.1591 -1.2893 -1.5917
17122TIP3    H272858   2.519   5.548   0.883 -2.1280  0.5274 -0.1807
17123TIP3   OH272859   5.604   3.893  15.419  0.0020 -0.6111 -0.4351
17123TIP3    H172860   5.585   3.977  15.463  0.9453 -0.9019  0.5616
17123TIP3    H272861   5.568   3.904  15.331  0.1916  0.8831 -0.3584
17124TIP3   OH272862   0.630   0.495  16.422 -0.2822 -0.3771 -0.2525
17124TIP3    H172863   0.561   0.432  16.447 -0.9608  0.1492 -0.7849
17124TIP3    H272864   0.598   0.579  16.454 -0.1620 -0.0345 -1.0179
17125TIP3   OH272865   6.029   3.682   4.544  0.3376 -0.2192 -0.5398
17125TIP3    H172866   6.025   3.774   4.567 -2.1632 -0.3709 -0.0570
17125TIP3    H272867   6.119   3.668   4.514  1.1052  2.0735  0.4860
17126TIP3   OH272868   2.964   3.493  15.243 -0.8804 -0.1223  0.1584
17126TIP3    H172869   3.032   3.434  15.275 -0.7461 -0.3073 -0.4532
17126TIP3    H272870   2.944   3.549  15.318 -0.3303 -0.3216  0.4619
17127TIP3   OH272871   4.330   0.843   3.116  0.1709 -0.1784  0.1635
17127TIP3    H172872   4.262   0.890   3.164 -0.3051 -1.7734  1.1221
17127TIP3    H272873   4.298   0.841   3.026 -1.1413 -1.0289  0.6275
17128TIP3   OH272874   6.613   5.870  14.561  0.0341 -0.3536  0.2476
17128TIP3    H172875   6.615   5.928  14.485  0.9810 -0.9390 -0.1776
17128TIP3    H272876   6.704   5.868  14.592 -0.7121  2.1827  3.1690
17129TIP3   OH272877   2.340   2.036   0.479 -0.6870 -0.0970  0.6276
17129TIP3    H172878   2.300   2.008   0.562  0.2166 -0.1615  1.0480
17129TIP3    H272879   2.267   2.039   0.418 -1.4569  0.3973  1.5365
17130TIP3   OH272880   0.722   2.174  14.361 -0.2234  0.5071  0.3759
17130TIP3    H172881   0.722   2.157  14.266 -0.4639  1.2169  0.2407
17130TIP3    H272882   0.805   2.137  14.392 -1.6726 -2.9991  0.5277
17131TIP3   OH272883   0.924   2.760   4.739  0.0022  0.1154  0.0228
17131TIP3    H172884   0.984   2.820   4.695 -0.4614 -0.3116 -1.2408
17131TIP3    H272885   0.837   2.786   4.708 -0.2108 -1.1639 -0.5314
17132TIP3   OH272886   3.666   1.530   6.265  0.2957  0.4949  0.2964
17132TIP3    H172887   3.740   1.513   6.323  0.4237 -1.2917 -0.3324
17132TIP3    H272888   3.705   1.554   6.181  0.1138  1.7739  0.5479
17133TIP3   OH272889   6.184   5.112   3.175  0.1444 -0.1072 -0.3866
17133TIP3    H172890   6.265   5.141   3.215 -0.4276 -0.1705  0.8611
17133TIP3    H272891   6.115   5.151   3.229 -0.6537 -1.2078 -0.5718
17134TIP3   OH272892   0.600   1.605  12.119  0.7435 -0.2221  0.3513
17134TIP3    H172893   0.620   1.562  12.202 -0.0535  1.2323  1.3445
17134TIP3    H272894   0.529   1.665  12.140  1.9551  1.7511 -0.8956
17135TIP3   OH272895   4.111   0.937  15.926  0.4226 -0.2761  0.2915
17135TIP3    H172896   4.192   0.963  15.881  0.0549  0.5656  0.0869
17135TIP3    H272897   4.140   0.910  16.013  0.9918 -0.5961  0.0058
17136TIP3   OH272898   2.802   1.446  12.806  0.4431  0.0826 -0.2644
17136TIP3    H172899   2.734   1.382  12.786  1.5177 -0.9763 -0.7275
17136TIP3    H272900   2.803   1.452  12.901  1.1407 -1.5797 -0.1283
17137TIP3   OH272901   4.790   5.613  16.573 -0.9819  0.3222  0.6963
17137TIP3    H172902   4.816   5.608  16.665 -0.4672 -1.3818  0.4953
17137TIP3    H272903   4.836   5.540  16.531 -0.0229  1.9002 -1.2247
17138TIP3   OH272904   3.259   2.586   5.299  0.0667  0.6612 -0.1531
17138TIP3    H172905   3.194   2.599   5.230 -0.6033 -0.3917  0.2513
17138TIP3    H272906   3.285   2.675   5.324  0.4813  1.0637 -1.8849
17139TIP3   OH272907   2.054   4.309  16.663  0.0279 -0.0017 -0.0065
17139TIP3    H172908   2.139   4.303  16.618  0.1174  1.6486 -0.0972
17139TIP3    H272909   2.049   4.229  16.715  0.4687 -1.4045 -2.0052
17140TIP3   OH272910   3.441   2.882  15.026  0.0686 -0.0812 -0.0192
17140TIP3    H172911   3.366   2.891  15.086 -1.6055 -1.6845 -1.7517
17140TIP3    H272912   3.489   2.965  15.036 -2.7604  1.6919  0.1098
17141TIP3   OH272913   2.463   3.221  14.909  0.1225  0.5423  0.3687
17141TIP3    H172914   2.463   3.151  14.843  0.3332  0.2469  0.6767
17141TIP3    H272915   2.403   3.286  14.875  1.1269  0.9522 -0.7041
17142TIP3   OH272916   4.557   1.373  16.536  0.1509 -0.7212  0.2211
17142TIP3    H172917   4.471   1.376  16.579 -0.3380 -0.0046 -0.7638
17142TIP3    H272918   4.537   1.376  16.442  1.2692  2.6011 -0.0648
17143TIP3   OH272919   0.822   0.441  15.498 -0.4483  0.0841 -0.1543
17143TIP3    H172920   0.808   0.352  15.531 -1.4372  0.8737  1.6902
17143TIP3    H272921   0.894   0.432  15.435  2.2235 -1.4199  2.8412
17144TIP3   OH272922   3.389   6.420   2.142 -0.4322  0.1011 -0.2478
17144TIP3    H172923   3.335   6.370   2.204  0.8777 -0.7896  0.2028
17144TIP3    H272924   3.368   6.382   2.056  0.3725 -1.0847  0.0641
17145TIP3   OH272925   6.120   5.734   3.029 -0.5364  0.1921 -0.1007
17145TIP3    H172926   6.134   5.796   3.101 -1.2087  0.0104  0.1968
17145TIP3    H272927   6.082   5.657   3.070 -0.1383 -0.2482 -0.5382
17146TIP3   OH272928   3.543   6.409   2.911 -0.3465 -0.4131  0.0566
17146TIP3    H172929   3.490   6.484   2.939  0.0230  0.0362 -0.4179
17146TIP3    H272930   3.594   6.443   2.837 -0.5992 -1.2938 -0.5399
17147TIP3   OH272931   2.473   1.953   1.936 -0.2094  0.2384  0.0182
17147TIP3    H172932   2.524   1.926   2.012 -0.3188 -0.0065  0.0035
17147TIP3    H272933   2.488   2.048   1.930 -0.8446  0.4036  0.8348
17148TIP3   OH272934   5.189   1.903  17.214 -0.2216 -0.9106 -0.3708
17148TIP3    H172935   5.178   1.855  17.132  1.0336 -0.1831 -0.9957
17148TIP3    H272936   5.190   1.995  17.189  1.3233 -0.7150  0.2898
17149TIP3   OH272937   6.674   4.514  12.841 -0.2232 -0.0904 -0.1622
17149TIP3    H172938   6.746   4.574  12.860 -1.1031  0.1948  2.6785
17149TIP3    H272939   6.597   4.570  12.833 -0.4006 -0.5169 -1.8518
17150TIP3   OH272940   2.548   0.206   1.573 -0.3511 -0.1101 -0.1050
17150TIP3    H172941   2.537   0.114   1.599 -2.3029  0.2261  0.4298
17150TIP3    H272942   2.547   0.255   1.655  1.2742  0.3780 -0.3446
17151TIP3   OH272943   4.696   4.666   1.081  0.5550  0.6554 -0.1074
17151TIP3    H172944   4.646   4.744   1.103  1.7119  0.8659  2.0227
17151TIP3    H272945   4.760   4.658   1.151  4.0956  0.8645 -3.0063
17152TIP3   OH272946   2.945   2.785  13.050  0.4046  0.1938  0.6179
17152TIP3    H172947   3.023   2.841  13.042 -1.3020  2.4896 -1.7386
17152TIP3    H272948   2.948   2.729  12.973 -1.1244  1.5799 -0.5068
17153TIP3   OH272949   1.435   4.156  14.954 -0.0883 -0.1603 -0.1332
17153TIP3    H172950   1.510   4.193  14.907 -0.2264 -0.4684 -0.5924
17153TIP3    H272951   1.437   4.200  15.039  0.1429  0.4158 -0.4334
17154TIP3   OH272952   1.056   6.139   5.576  0.3678 -0.1218 -0.4440
17154TIP3    H172953   1.000   6.182   5.511  0.3562  2.5318  1.1768
17154TIP3    H272954   1.144   6.172   5.559  0.4566  0.1621  0.4741
17155TIP3   OH272955   1.954   2.123  17.129  0.4592 -0.0381 -0.3242
17155TIP3    H172956   1.910   2.178  17.065 -0.6594 -0.4215  0.1031
17155TIP3    H272957   1.898   2.046  17.137 -0.0968  0.5285  2.0147
17156TIP3   OH272958   5.910   4.188  16.472  0.1180  0.1379  0.1145
17156TIP3    H172959   5.875   4.120  16.414  1.1496 -2.1541  2.0120
17156TIP3    H272960   5.832   4.227  16.512 -0.4793 -0.2773 -0.6102
17157TIP3   OH272961   5.587   3.434  15.593 -0.0323 -0.4347 -0.2082
17157TIP3    H172962   5.566   3.498  15.661 -0.7373  0.9524 -1.6494
17157TIP3    H272963   5.506   3.384  15.582 -0.2959  0.0925 -0.7643
17158TIP3   OH272964   1.590   5.398  12.938  0.0758  0.1248 -0.3684
17158TIP3    H172965   1.553   5.486  12.932 -1.4550 -0.5238 -1.0907
17158TIP3    H272966   1.674   5.404  12.893 -0.4085  1.0173 -1.1933
17159TIP3   OH272967   1.541   4.386   2.450  0.0629  0.1376  0.1021
17159TIP3    H172968   1.545   4.295   2.421 -0.0591  0.9899 -2.8939
17159TIP3    H272969   1.632   4.409   2.472  0.1181 -0.6200  0.7065
17160TIP3   OH272970   0.830   6.130   5.767 -0.2760  0.0840 -1.3963
17160TIP3    H172971   0.765   6.102   5.702  0.2389 -1.1514 -1.4034
17160TIP3    H272972   0.912   6.134   5.718 -0.4954  3.1314 -1.7721
17161TIP3   OH272973   5.178   0.948   6.134  0.4616 -0.1649  0.0308
17161TIP3    H172974   5.088   0.956   6.102  0.5933 -0.5061 -0.4425
17161TIP3    H272975   5.181   1.002   6.213 -0.2037 -0.2895  0.1448
17162TIP3   OH272976   5.339   0.477   1.241 -0.0581  0.2493 -0.3309
17162TIP3    H172977   5.291   0.558   1.256  1.9485  1.6358 -1.0348
17162TIP3    H272978   5.292   0.412   1.293 -0.4233  2.2929  2.1072
17163TIP3   OH272979   3.692   5.733   4.651  0.0369  0.1823  0.0677
17163TIP3    H172980   3.616   5.789   4.665  0.4725  0.5920  0.8521
17163TIP3    H272981   3.751   5.753   4.724  0.9613 -0.0312 -0.5987
17164TIP3   OH272982   1.006   5.064  12.304 -0.2917  0.3748 -0.2942
17164TIP3    H172983   1.012   5.029  12.215 -2.0054 -0.3344 -0.1565
17164TIP3    H272984   0.916   5.049  12.330 -0.3896  2.4549  0.8193
17165TIP3   OH272985   2.710   6.411  15.703  0.4195  0.6663  0.3731
17165TIP3    H172986   2.621   6.438  15.723  0.2354  0.6624 -0.3959
17165TIP3    H272987   2.755   6.411  15.788 -0.5496 -0.2527  0.9118
17166TIP3   OH272988   2.177   5.911  13.649 -0.1259  0.3863 -0.3894
17166TIP3    H172989   2.181   5.823  13.689 -1.1287  0.1894 -0.6846
17166TIP3    H272990   2.190   5.896  13.556  0.4278  0.6411 -0.3555
17167TIP3   OH272991   0.465   2.944   4.311 -0.1965 -0.0037  0.5764
17167TIP3    H172992   0.554   2.971   4.289  0.0177 -0.9777  0.1754
17167TIP3    H272993   0.472   2.911   4.401 -0.9853  3.5741  2.1428
17168TIP3   OH272994   3.620   4.587   4.954  0.4995 -0.3133  0.4115
17168TIP3    H172995   3.642   4.587   4.861  0.5188 -0.9601  0.4177
17168TIP3    H272996   3.541   4.641   4.959 -0.3160 -1.4142 -0.1733
17169TIP3   OH272997   0.333   3.233   4.905 -0.6447  0.1757  0.5093
17169TIP3    H172998   0.340   3.260   4.997 -0.4128  1.3520  0.1615
17169TIP3    H272999   0.247   3.191   4.899 -0.7946  0.3761  1.1881
17170TIP3   OH273000   0.703   1.899  16.543  0.8794 -0.3267  0.0325
17170TIP3    H173001   0.693   1.804  16.542  0.1997 -0.2669 -1.2457
17170TIP3    H273002   0.626   1.932  16.496  0.6255  0.9152  1.2556
17171TIP3   OH273003   2.110   2.819  15.398 -0.6818 -0.1200 -0.4348
17171TIP3    H173004   2.175   2.786  15.460 -0.7947  3.0799  1.6231
17171TIP3    H273005   2.026   2.808  15.443 -1.3091 -1.4865 -1.8312
17172TIP3   OH273006   2.694   3.433   1.716  0.4017 -0.4882  0.2220
17172TIP3    H173007   2.692   3.386   1.632  0.8628 -1.1812  0.5889
17172TIP3    H273008   2.605   3.466   1.726 -0.4089 -2.6091  0.6533
17173TIP3   OH273009   3.367   0.479   1.467 -0.1417  0.1510  0.0151
17173TIP3    H173010   3.280   0.449   1.441 -0.1074  0.8466 -0.9390
17173TIP3    H273011   3.369   0.571   1.441  1.2413 -0.1165 -0.9237
17174TIP3   OH273012   5.241   3.632   3.696 -0.0306  0.0192 -0.4033
17174TIP3    H173013   5.159   3.674   3.672  0.6136  0.3073 -2.3519
17174TIP3    H273014   5.304   3.704   3.703  0.5909 -0.3798 -1.5532
17175TIP3   OH273015   1.194   2.798   5.325 -0.4874  0.3415 -0.3086
17175TIP3    H173016   1.127   2.744   5.284 -0.5736 -0.0311  0.3166
17175TIP3    H273017   1.145   2.858   5.381 -0.3026  0.0338  0.1899
17176TIP3   OH273018   4.039   1.777   4.706 -0.1405  0.2413 -0.0561
17176TIP3    H173019   4.029   1.749   4.615 -1.8193  1.3703 -0.2571
17176TIP3    H273020   4.134   1.786   4.717  0.0902  0.4847 -1.8143
17177TIP3   OH273021   6.063   1.884  15.117  0.0046  0.0134 -0.4135
17177TIP3    H173022   6.015   1.841  15.046  0.3476 -1.8596  0.4519
17177TIP3    H273023   6.142   1.831  15.129 -0.3322 -0.0866  1.7665
17178TIP3   OH273024   5.051   6.162   5.018 -0.2166  0.0593  0.2658
17178TIP3    H173025   5.035   6.121   4.932 -1.5964 -1.2319  1.0855
17178TIP3    H273026   4.968   6.204   5.040  0.2464  0.6867  0.8137
17179TIP3   OH273027   1.868   4.829   4.616 -0.7617 -0.3587 -0.1879
17179TIP3    H173028   1.871   4.799   4.526 -1.3508 -1.2986  0.1023
17179TIP3    H273029   1.779   4.811   4.646  0.1496 -2.6388  1.4323
17180TIP3   OH273030   0.926   5.637   2.945 -0.3287 -0.3417 -0.1059
17180TIP3    H173031   0.835   5.661   2.924 -1.0106 -1.1595  1.6627
17180TIP3    H273032   0.920   5.600   3.033  1.5620 -1.4779 -0.4188
17181TIP3   OH273033   2.556   3.295   3.340 -0.1838  0.2331 -0.1083
17181TIP3    H173034   2.583   3.284   3.249 -0.2107  0.8611 -0.2015
17181TIP3    H273035   2.464   3.270   3.342 -0.1070 -0.0501 -0.1979
17182TIP3   OH273036   0.904   3.917  16.496 -0.1502 -0.1640 -0.3261
17182TIP3    H173037   0.902   4.011  16.483 -0.4294 -0.1747 -0.3675
17182TIP3    H273038   0.970   3.904  16.564 -2.8400  0.4626  2.7174
17183TIP3   OH273039   2.415   5.252  14.941 -0.0721 -0.5525  0.1415
17183TIP3    H173040   2.394   5.163  14.914  0.5603 -0.6489 -0.0362
17183TIP3    H273041   2.340   5.304  14.911 -1.2461 -1.2538  1.6854
17184TIP3   OH273042   1.647   4.677  17.070  0.0174  0.0829  0.5932
17184TIP3    H173043   1.617   4.744  17.132  0.4299  0.9854 -0.1604
17184TIP3    H273044   1.704   4.620  17.122 -1.8449 -0.8577  1.7161
17185TIP3   OH273045   3.427   1.739   2.986 -0.3617 -0.3476 -0.0766
17185TIP3    H173046   3.380   1.806   2.937  1.0398  0.9585  0.3083
17185TIP3    H273047   3.513   1.734   2.945  0.2652 -0.4058  1.1922
17186TIP3   OH273048   2.861   3.487  13.073 -0.1935 -0.3901  0.2756
17186TIP3    H173049   2.912   3.528  13.144  1.2170 -1.3502 -0.1355
17186TIP3    H273050   2.914   3.411  13.047 -1.6174 -1.1335 -0.5343
17187TIP3   OH273051   1.120   2.415  12.650 -0.5316 -0.0957 -0.2178
17187TIP3    H173052   1.057   2.386  12.716 -0.6806 -0.0250 -0.3293
17187TIP3    H273053   1.195   2.356  12.662 -0.2654  0.3697  0.4926
17188TIP3   OH273054   3.980   0.974   4.746 -0.1023  0.1150  0.2423
17188TIP3    H173055   4.047   1.005   4.684 -1.5921 -0.2600 -1.6625
17188TIP3    H273056   3.986   0.879   4.743 -0.0211  0.0999  0.8670
17189TIP3   OH273057   3.313   5.734   5.856  0.1649 -0.4147  0.0388
17189TIP3    H173058   3.227   5.733   5.815 -0.7423 -1.5350  1.8363
17189TIP3    H273059   3.304   5.797   5.928  0.8690 -0.5104  0.2184
17190TIP3   OH273060   1.304   2.167  11.459 -0.5370 -0.3317  0.3196
17190TIP3    H173061   1.357   2.136  11.532  1.2587 -0.4617 -0.9605
17190TIP3    H273062   1.256   2.090  11.430 -1.1603 -0.3096  1.2640
17191TIP3   OH273063   4.772   1.379   0.520 -0.2334  0.5479  0.3805
17191TIP3    H173064   4.844   1.427   0.480 -0.6407  2.5026  1.8312
17191TIP3    H273065   4.811   1.298   0.552  0.9142  0.7590 -0.4288
17192TIP3   OH273066   5.500   4.629  15.672 -0.0649  0.0532 -0.1738
17192TIP3    H173067   5.556   4.706  15.662  0.9949 -0.8254 -1.2136
17192TIP3    H273068   5.476   4.629  15.765  0.4081  1.2769 -0.0287
17193TIP3   OH273069   1.803   6.501   1.921  0.1514 -0.1395  0.4048
17193TIP3    H173070   1.798   6.437   1.850  1.2373 -0.3648  0.5087
17193TIP3    H273071   1.789   6.450   2.001  2.5903 -0.5810  0.6130
17194TIP3   OH273072   4.724   1.838  11.545  0.0932  0.0867 -0.3452
17194TIP3    H173073   4.754   1.868  11.460  1.2743  0.2823  0.1231
17194TIP3    H273074   4.761   1.900  11.608 -0.9164  0.0613  0.3113
17195TIP3   OH273075   3.065   4.214   4.888  0.1242 -0.0265 -0.0008
17195TIP3    H173076   3.098   4.233   4.976  0.3523 -0.3995 -0.0042
17195TIP3    H273077   2.989   4.158   4.902 -0.4357  0.7154 -0.0002
17196TIP3   OH273078   1.406   6.305  17.302  0.2181 -0.1930  0.1483
17196TIP3    H173079   1.313   6.315  17.320  0.6314  0.9715  1.9318
17196TIP3    H273080   1.410   6.251  17.223 -1.9772  1.3929 -1.1353
17197TIP3   OH273081   3.063   4.131   3.824 -0.2869 -0.8669  0.2708
17197TIP3    H173082   3.060   4.096   3.913  1.7090 -0.3604  0.5917
17197TIP3    H273083   3.143   4.095   3.786  0.4924  1.2607 -0.2691
17198TIP3   OH273084   5.067   1.789  13.145 -0.8261 -0.1413  0.0731
17198TIP3    H173085   5.011   1.711  13.140 -3.2088  1.5324 -3.3140
17198TIP3    H273086   5.013   1.854  13.191  0.3310  0.1944  1.0316
17199TIP3   OH273087   0.229   1.749   1.851  0.1746 -0.8893 -0.4173
17199TIP3    H173088   0.178   1.725   1.929  1.4654 -3.0090 -0.1537
17199TIP3    H273089   0.163   1.775   1.787 -0.9105  1.2457  1.4152
17200TIP3   OH273090   4.604   4.529   2.906 -0.3856 -0.1249  0.3175
17200TIP3    H173091   4.674   4.492   2.853  0.4417  0.7942  0.7233
17200TIP3    H273092   4.593   4.467   2.979 -0.8417 -0.8795 -0.3752
17201TIP3   OH273093   1.606   3.178   4.791  0.4307  0.2516 -0.4028
17201TIP3    H173094   1.512   3.167   4.805  0.7529 -0.3382  1.6900
17201TIP3    H273095   1.634   3.097   4.749  0.5260 -1.2451  2.3091
17202TIP3   OH273096   1.642   6.250   2.965  0.4985 -0.3186 -0.2453
17202TIP3    H173097   1.688   6.172   2.997  0.7171 -0.4613 -0.8850
17202TIP3    H273098   1.607   6.224   2.880 -0.8138 -0.2153  0.2541
17203TIP3   OH273099   3.367   2.835   5.045  0.3580 -0.5631  0.1972
17203TIP3    H173100   3.293   2.776   5.034  0.0263 -0.2684  0.7741
17203TIP3    H273101   3.434   2.803   4.984 -0.0227 -1.1895  0.1071
17204TIP3   OH273102   4.250   5.147  17.031  0.0957  0.2773 -0.5558
17204TIP3    H173103   4.234   5.217  16.968 -1.5172 -1.0162 -1.6605
17204TIP3    H273104   4.304   5.084  16.984  2.4541  1.1326  0.7646
17205TIP3   OH273105   1.887   1.520  15.676  0.1200 -0.0521 -0.3211
17205TIP3    H173106   1.930   1.459  15.736 -0.4691 -3.6086 -3.1787
17205TIP3    H273107   1.796   1.492  15.674 -0.9056  2.8932  0.3738
17206TIP3   OH273108   4.635   4.242  12.591 -0.4531  0.6117 -0.1314
17206TIP3    H173109   4.591   4.180  12.534  1.1065  0.2887 -1.0517
17206TIP3    H273110   4.724   4.208  12.599 -0.3025  1.2786  1.5743
17207TIP3   OH273111   0.636   3.765   1.846 -0.4660 -0.1602  0.6213
17207TIP3    H173112   0.689   3.752   1.768 -1.0854 -2.2063  0.4861
17207TIP3    H273113   0.627   3.678   1.884 -2.5065  0.3539  1.4436
17208TIP3   OH273114   5.245   2.375  14.482 -0.5473 -0.4195  0.3047
17208TIP3    H173115   5.330   2.421  14.483  0.9669 -3.0480  0.5353
17208TIP3    H273116   5.188   2.431  14.534  0.7322  1.9348 -0.6345
17209TIP3   OH273117   1.275   3.178   3.654  0.3993 -0.5971  0.0788
17209TIP3    H173118   1.339   3.109   3.636 -0.9907 -1.7698 -0.5826
17209TIP3    H273119   1.195   3.149   3.610 -0.6300  0.7692  0.9489
17210TIP3   OH273120   2.551   5.400  14.516 -0.0718 -0.6265  0.3072
17210TIP3    H173121   2.614   5.367  14.452 -0.6796 -0.8486 -0.1843
17210TIP3    H273122   2.528   5.323  14.568 -0.8504 -0.8093 -0.2962
17211TIP3   OH273123   1.174   1.770  16.709  0.0082 -0.2966  0.1691
17211TIP3    H173124   1.213   1.846  16.752 -1.0410  0.0981  0.4716
17211TIP3    H273125   1.116   1.808  16.642 -1.0645 -0.7991  0.7976
17212TIP3   OH273126   2.755   4.782  12.667 -0.3402 -0.4779 -0.6946
17212TIP3    H173127   2.801   4.707  12.703 -1.9309 -0.9400  0.4796
17212TIP3    H273128   2.732   4.756  12.578 -1.0299 -1.4796 -0.2420
17213TIP3   OH273129   5.134   1.864  16.150 -0.6908  0.2724  0.2141
17213TIP3    H173130   5.053   1.844  16.103 -0.1003  0.7116 -1.0277
17213TIP3    H273131   5.169   1.942  16.107 -0.4539  1.0968  1.8285
17214TIP3   OH273132   4.431   1.234  12.365 -0.4143  0.1627  0.1322
17214TIP3    H173133   4.394   1.298  12.304 -0.5500 -1.0672 -1.0990
17214TIP3    H273134   4.409   1.149  12.328  0.5470 -0.6141  1.2750
17215TIP3   OH273135   5.351   3.992  11.527  0.8564 -0.0342 -0.6286
17215TIP3    H173136   5.382   4.043  11.452 -0.4469  0.4602 -0.8547
17215TIP3    H273137   5.259   3.976  11.509  0.5274  0.0436  0.8488
17216TIP3   OH273138   1.351   0.035  13.059  0.2315  0.8482 -0.2843
17216TIP3    H173139   1.343   0.025  12.964  1.4140 -1.8713 -0.1832
17216TIP3    H273140   1.441   0.010  13.078  0.0919  1.6129  1.5549
17217TIP3   OH273141   2.008   4.906   3.640  0.0109  0.2824 -0.1204
17217TIP3    H173142   1.957   4.983   3.615  0.9656  0.8980 -0.2308
17217TIP3    H273143   1.985   4.840   3.575 -0.7459  0.5018 -0.0842
17218TIP3   OH273144   3.951   2.174   3.626 -0.5962 -0.4139  0.3918
17218TIP3    H173145   3.921   2.085   3.607 -0.1126 -0.4755 -0.0845
17218TIP3    H273146   4.021   2.191   3.563 -0.6217  0.2735  0.5358
17219TIP3   OH273147   5.606   1.773   2.495 -0.0510  0.3923 -0.1599
17219TIP3    H173148   5.650   1.822   2.425  0.1318  0.0859 -0.2619
17219TIP3    H273149   5.677   1.731   2.543 -0.2645 -1.3144 -1.2155
17220TIP3   OH273150   4.777   2.443   3.998 -0.6980  0.3480 -0.0864
17220TIP3    H173151   4.868   2.474   4.004  0.3920 -1.9395 -2.7796
17220TIP3    H273152   4.773   2.368   4.057 -0.4787 -0.2294 -0.7925
17221TIP3   OH273153   0.624   4.300   4.267  0.2321 -0.0543 -0.0524
17221TIP3    H173154   0.533   4.275   4.283  0.0655 -0.4752 -1.5048
17221TIP3    H273155   0.619   4.357   4.190  1.2305 -0.2707 -0.2795
17222TIP3   OH273156   5.903   3.734  13.728 -0.0328 -0.0224  0.2009
17222TIP3    H173157   5.948   3.650  13.738 -0.2642 -0.4110 -1.6105
17222TIP3    H273158   5.843   3.739  13.802  0.5960 -1.0665  0.7948
17223TIP3   OH273159   2.117   4.433  10.757 -0.4891 -0.5791  0.4326
17223TIP3    H173160   2.196   4.455  10.807 -2.0171 -0.1173  2.7903
17223TIP3    H273161   2.109   4.506  10.695  0.2812 -0.0049  0.9722
17224TIP3   OH273162   5.589   1.156   2.681  0.0726  0.1947  0.9758
17224TIP3    H173163   5.609   1.249   2.683 -2.3456  0.7873  0.4243
17224TIP3    H273164   5.540   1.140   2.761  0.4419 -0.6224  1.0497
17225TIP3   OH273165   4.475   6.418   2.847  0.4080 -0.5271  0.2469
17225TIP3    H173166   4.391   6.459   2.823  0.5046 -1.6715 -2.3763
17225TIP3    H273167   4.539   6.489   2.840  0.1428 -0.4001 -1.3664
17226TIP3   OH273168   1.985   0.361  13.801  0.2181 -0.2046  0.0744
17226TIP3    H173169   1.894   0.392  13.803  0.5986  0.9729 -0.1108
17226TIP3    H273170   1.981   0.280  13.751 -0.6921 -0.0111 -0.1902
17227TIP3   OH273171   0.822   2.987  16.393 -0.1278 -0.6591  0.5693
17227TIP3    H173172   0.847   2.935  16.317  1.1159 -0.4430  0.8061
17227TIP3    H273173   0.748   2.940  16.433  0.3272 -1.6826  0.2069
17228TIP3   OH273174   1.495   3.314   4.552  0.5539  0.5495  0.1829
17228TIP3    H173175   1.440   3.391   4.565 -1.3626 -0.6431 -0.4257
17228TIP3    H273176   1.560   3.318   4.622 -0.1780  2.1175  0.8105
17229TIP3   OH273177   0.884   1.079   0.712 -0.1986 -0.6888 -0.3256
17229TIP3    H173178   0.953   1.110   0.653 -0.5165  1.7245  0.4844
17229TIP3    H273179   0.922   1.085   0.799 -0.8020 -1.1957 -0.0163
17230TIP3   OH273180   2.197   3.637   4.797 -0.1520  0.1831  0.0808
17230TIP3    H173181   2.188   3.649   4.702 -1.1808 -0.8794  0.0171
17230TIP3    H273182   2.287   3.608   4.809 -0.1195 -0.0268 -0.6234
17231TIP3   OH273183   2.352   1.399   0.968 -0.6918 -0.0376  0.2519
17231TIP3    H173184   2.397   1.397   0.884 -1.6831  1.6674 -0.3675
17231TIP3    H273185   2.271   1.349   0.953 -1.3894  1.1743 -0.1706
17232TIP3   OH273186   6.158   1.463   4.837  0.1442 -0.1113 -0.3844
17232TIP3    H173187   6.199   1.525   4.777 -0.6081  2.2574  1.4026
17232TIP3    H273188   6.221   1.453   4.908 -0.4112 -0.0750  0.1235
17233TIP3   OH273189   1.173   4.370  14.441  0.1742  0.0195  0.4184
17233TIP3    H173190   1.179   4.353  14.535  1.3897 -3.5299 -0.1634
17233TIP3    H273191   1.263   4.380  14.412 -0.1902  1.1037 -0.4109
17234TIP3   OH273192   6.276   5.864   1.780 -0.3289  0.4190  0.2503
17234TIP3    H173193   6.197   5.814   1.755  0.1168  0.8486 -2.2555
17234TIP3    H273194   6.342   5.797   1.797 -0.2654  0.0577 -1.2471
17235TIP3   OH273195   1.409   6.632  13.797 -0.7960  0.4082 -0.1384
17235TIP3    H173196   1.434   6.597  13.711 -0.7637 -1.1611  0.4776
17235TIP3    H273197   1.320   6.665  13.785 -0.8247  0.1144 -0.7497
17236TIP3   OH273198   3.145   3.350  15.441  0.4720  0.3555  0.8182
17236TIP3    H173199   3.133   3.359  15.536 -0.3716  3.9031  0.5100
17236TIP3    H273200   3.235   3.379  15.426  0.0324  1.5419  0.3998
17237TIP3   OH273201   4.050   0.770   6.446  0.7768  0.0928 -0.5456
17237TIP3    H173202   3.998   0.843   6.479  1.5957  0.6185 -0.4060
17237TIP3    H273203   4.140   0.792   6.469  1.4196  0.5021 -3.1616
17238TIP3   OH273204   3.174   6.104   3.318  0.1893 -0.4687 -0.1273
17238TIP3    H173205   3.158   6.078   3.227  2.6286 -0.0354 -0.7705
17238TIP3    H273206   3.236   6.177   3.311  2.4415 -2.0144  1.8655
17239TIP3   OH273207   0.435   3.724   0.169 -0.0152 -0.0437  0.7150
17239TIP3    H173208   0.447   3.696   0.079 -1.4307 -0.3427  0.5974
17239TIP3    H273209   0.502   3.676   0.218  2.9179  2.4066 -0.4907
17240TIP3   OH273210   6.474   0.869   0.307  0.3350  0.4540  0.2207
17240TIP3    H173211   6.523   0.814   0.368  1.7231  0.7443 -0.5876
17240TIP3    H273212   6.400   0.903   0.358  1.3338  0.5145  1.6624
17241TIP3   OH273213   1.164   0.049  14.262  0.2749  0.9683  0.2616
17241TIP3    H173214   1.189   0.055  14.354 -2.5760  1.2094  1.1030
17241TIP3    H273215   1.158   0.140  14.233  2.6022  0.8934 -0.6752
17242TIP3   OH273216   1.188   1.721  16.404  0.2545  0.1138 -0.3373
17242TIP3    H173217   1.273   1.693  16.437 -0.8560  0.4873  3.1812
17242TIP3    H273218   1.186   1.815  16.420 -0.4754  0.2947 -1.3482
17243TIP3   OH273219   1.046   6.132  15.701 -0.2871  0.5020 -0.2574
17243TIP3    H173220   0.988   6.145  15.777 -0.5240  0.4749 -0.4328
17243TIP3    H273221   1.003   6.064  15.650 -0.1601  0.5667 -0.4501
17244TIP3   OH273222   0.773   0.458  13.847  0.4363 -0.3011  0.1024
17244TIP3    H173223   0.737   0.547  13.851 -0.0590 -0.4519 -0.6976
17244TIP3    H273224   0.864   0.468  13.875  0.3268  0.4291  0.2184
17245TIP3   OH273225   2.817   4.484   2.709  0.6407  0.2657 -0.0597
17245TIP3    H173226   2.869   4.541   2.653 -1.6339  1.3071 -1.2836
17245TIP3    H273227   2.790   4.540   2.782  0.2903  0.1089 -0.0631
17246TIP3   OH273228   5.229   0.298   1.006 -0.3859  0.1637  0.3043
17246TIP3    H173229   5.312   0.264   1.037 -0.1159 -1.2843 -1.8203
17246TIP3    H273230   5.163   0.243   1.047  0.0315 -3.0789 -2.8917
17247TIP3   OH273231   4.917   2.421  15.057  0.2385 -0.0466  0.1636
17247TIP3    H173232   4.827   2.394  15.077  0.4173 -0.7213  0.0831
17247TIP3    H273233   4.931   2.392  14.966  0.5582 -0.0021  0.1973
17248TIP3   OH273234   0.501   3.035   2.813 -0.7151  0.0499  0.0442
17248TIP3    H173235   0.554   3.085   2.875 -0.0229  0.4711 -0.8804
17248TIP3    H273236   0.466   2.962   2.866 -0.4879  0.6345  1.0265
17249TIP3   OH273237   0.857   2.141  11.376 -0.1745 -0.2901 -0.6518
17249TIP3    H173238   0.897   2.055  11.388  0.2992  0.2498  2.5950
17249TIP3    H273239   0.914   2.186  11.313  2.0297 -0.9732  0.7403
17250TIP3   OH273240   6.355   3.615   5.848  0.1311  0.1495 -0.0596
17250TIP3    H173241   6.421   3.548   5.866 -0.4380 -0.2461  0.6456
17250TIP3    H273242   6.400   3.698   5.861  1.3799 -0.0079 -2.7990
17251TIP3   OH273243   5.017   6.608   0.021 -0.5606 -0.4454  0.3796
17251TIP3    H173244   5.033   6.648  -0.065  1.8111 -1.3968  0.3146
17251TIP3    H273245   4.997   6.682   0.078 -1.8488  0.2383 -0.8782
17252TIP3   OH273246   2.654   4.412  15.809  0.1308 -0.5687  0.3126
17252TIP3    H173247   2.596   4.382  15.739 -0.4571  0.1642  0.4714
17252TIP3    H273248   2.625   4.365  15.887 -0.4503  0.0059  0.4525
17253TIP3   OH273249   3.629   2.772   1.208  0.1117  0.2462 -0.1418
17253TIP3    H173250   3.588   2.856   1.230 -0.2720 -0.2221  1.0488
17253TIP3    H273251   3.630   2.724   1.291  2.0975 -0.1921 -0.3808
17254TIP3   OH273252   4.478   3.230  13.391 -0.5818  0.3411  0.3960
17254TIP3    H173253   4.430   3.241  13.309 -0.6709  1.4319  0.5769
17254TIP3    H273254   4.412   3.208  13.455 -0.2751 -2.7095 -0.1815
17255TIP3   OH273255   6.295   4.572  16.864  0.5666  0.2535 -0.3132
17255TIP3    H173256   6.247   4.547  16.785 -0.3643  1.5376 -0.2045
17255TIP3    H273257   6.251   4.524  16.935  1.3804 -0.8725 -0.5559
17256TIP3   OH273258   6.383   2.224   1.979 -0.3863 -0.9005 -0.0854
17256TIP3    H173259   6.456   2.253   1.924  0.4201 -1.8203  0.4856
17256TIP3    H273260   6.403   2.258   2.066  0.3717 -2.7598  0.5064
17257TIP3   OH273261   5.790   2.377   4.864 -0.5116  0.2786  0.2872
17257TIP3    H173262   5.737   2.355   4.941  0.3996 -1.4568  0.4671
17257TIP3    H273263   5.783   2.300   4.807  1.7300  0.0055  0.3013
17258TIP3   OH273264   6.461   6.733   5.531  0.2885 -0.3962 -0.3376
17258TIP3    H173265   6.395   6.775   5.476  1.2089  0.6377 -0.6995
17258TIP3    H273266   6.411   6.693   5.602 -0.7397  0.1695 -0.7162
17259TIP3   OH273267   0.332   1.264  13.004 -0.2000  0.2260 -0.8153
17259TIP3    H173268   0.298   1.178  13.028 -1.3182  0.6751 -0.7038
17259TIP3    H273269   0.357   1.303  13.087  2.4032 -0.7913 -1.0408
17260TIP3   OH273270   2.530   6.155   5.973 -0.3510  0.2576  0.2495
17260TIP3    H173271   2.620   6.135   5.998 -0.2877  1.1910  0.8375
17260TIP3    H273272   2.479   6.082   6.007  0.2718 -0.7860 -0.9415
17261TIP3   OH273273   0.664   1.779   3.251 -0.0822 -0.2186  0.0932
17261TIP3    H173274   0.716   1.750   3.176  0.9067  3.6441 -0.9486
17261TIP3    H273275   0.713   1.748   3.328 -0.2421 -2.8490 -0.7941
17262TIP3   OH273276   1.184   0.526   2.386  0.0618 -0.1366  0.7981
17262TIP3    H173277   1.266   0.560   2.350  1.2994 -0.0364  3.4304
17262TIP3    H273278   1.176   0.438   2.349  1.1581  0.0066  0.1744
17263TIP3   OH273279   1.388   1.927  13.001 -0.0154  0.1863  0.0459
17263TIP3    H173280   1.432   1.901  13.082 -0.7591  0.4433  0.5497
17263TIP3    H273281   1.395   2.022  12.999 -0.5335  0.2334  0.1397
17264TIP3   OH273282   5.711   2.929   5.097 -0.3668 -0.1407  0.0950
17264TIP3    H173283   5.714   3.025   5.096 -0.9383 -0.1228  0.0117
17264TIP3    H273284   5.776   2.904   5.163 -0.9914  0.3456  0.9180
17265TIP3   OH273285   2.764   0.885   2.266  0.1613  0.3249 -0.3804
17265TIP3    H173286   2.753   0.979   2.254 -0.3383  0.5163  1.3030
17265TIP3    H273287   2.690   0.846   2.221  0.0759  0.7633 -0.6242
17266TIP3   OH273288   1.881   1.184   3.491  0.7441  0.2075  0.6478
17266TIP3    H173289   1.976   1.183   3.473  0.7188 -1.5237  0.5154
17266TIP3    H273290   1.863   1.099   3.530 -1.4303 -1.2511 -3.0461
17267TIP3   OH273291   5.820   3.744  13.442 -0.4506 -0.3001 -0.6443
17267TIP3    H173292   5.800   3.838  13.438 -0.5358 -0.3508 -2.3954
17267TIP3    H273293   5.883   3.736  13.513 -0.3442  1.1063 -0.5466
17268TIP3   OH273294   2.156   5.626  17.051 -0.3357  0.3847 -0.2125
17268TIP3    H173295   2.102   5.564  17.002 -0.4814  1.6219 -1.6685
17268TIP3    H273296   2.094   5.692  17.083  0.0308  0.6394 -0.0212
17269TIP3   OH273297   2.335   4.455   4.313 -0.1244  0.1699  0.0741
17269TIP3    H173298   2.315   4.385   4.252 -1.0711  1.9250 -1.7473
17269TIP3    H273299   2.268   4.448   4.381 -2.2175  1.1267 -1.7555
17270TIP3   OH273300   1.321   1.958   4.638 -0.3095  0.1495 -0.0525
17270TIP3    H173301   1.258   2.029   4.632 -0.5015  0.0944  1.0771
17270TIP3    H273302   1.406   2.002   4.634 -0.4219  0.5250  1.1290
17271TIP3   OH273303   1.209   0.943   0.560 -0.0700  0.0207 -0.2061
17271TIP3    H173304   1.172   1.031   0.553  1.5801  0.8544  0.8051
17271TIP3    H273305   1.223   0.930   0.654 -1.9367 -2.0931 -0.1402
17272TIP3   OH273306   1.032   2.208  16.108 -0.1465  0.2055 -0.3275
17272TIP3    H173307   1.072   2.274  16.164 -0.1422  0.5118 -0.6853
17272TIP3    H273308   0.953   2.181  16.155  0.4934 -0.4349  0.4034
17273TIP3   OH273309   0.000   0.202  11.670 -0.1978 -0.1357 -0.2245
17273TIP3    H173310   0.046   0.158  11.742 -0.7037 -0.8212 -0.3116
17273TIP3    H273311   0.014   0.146  11.594  1.8641  1.4873 -1.1444
17274TIP3   OH273312   4.236   4.568   5.745  0.4462 -0.2558  0.3103
17274TIP3    H173313   4.231   4.590   5.652 -0.7039 -0.5560  0.2811
17274TIP3    H273314   4.256   4.474   5.747  1.3709 -0.0645  0.3859
17275TIP3   OH273315   3.672   2.387  14.224  0.4263 -0.1348 -0.3895
17275TIP3    H173316   3.673   2.293  14.205 -1.0967 -0.8731  2.5894
17275TIP3    H273317   3.583   2.415  14.205  0.2984  0.2066  0.6180
17276TIP3   OH273318   2.125   1.188  15.240  0.4195 -0.1164  0.5356
17276TIP3    H173319   2.198   1.137  15.273  0.6210  0.9032  1.7362
17276TIP3    H273320   2.053   1.126  15.234  0.8706 -0.7151  1.1860
17277TIP3   OH273321   1.364   3.192   2.056 -0.3745  0.5744  0.1686
17277TIP3    H173322   1.444   3.154   2.020  0.4641  1.0642  1.4666
17277TIP3    H273323   1.360   3.280   2.018 -0.2950  0.5485  0.0998
17278TIP3   OH273324   1.378   1.695   2.709 -0.1739  0.1636  0.2499
17278TIP3    H173325   1.468   1.693   2.743  0.3473  3.4364 -0.6607
17278TIP3    H273326   1.324   1.692   2.788  0.9361  3.2428  1.2961
17279TIP3   OH273327   1.370   3.432   1.033  0.0255 -0.0423  0.1306
17279TIP3    H173328   1.440   3.398   1.089  0.6319  0.3258 -0.3844
17279TIP3    H273329   1.414   3.453   0.951 -0.8216 -0.4218 -0.4327
17280TIP3   OH273330   1.876   4.647  16.088  0.0969  0.3362  0.0261
17280TIP3    H173331   1.871   4.600  16.171  2.3747  0.1739  0.1376
17280TIP3    H273332   1.829   4.729  16.103  0.0864  0.1004  1.3362
17281TIP3   OH273333   4.937   4.772  14.213  0.1323 -0.2430 -0.7363
17281TIP3    H173334   4.911   4.720  14.137  0.2621 -1.2570 -0.1207
17281TIP3    H273335   4.865   4.834  14.226 -1.1768 -1.7993 -0.1511
17282TIP3   OH273336   0.280   4.741   1.985 -0.2438  0.2253 -0.2516
17282TIP3    H173337   0.332   4.820   1.970  0.3886 -0.3026 -0.9565
17282TIP3    H273338   0.250   4.716   1.897  0.2570 -0.7772 -0.1483
17283TIP3   OH273339   6.395   4.875   2.893 -0.2607 -0.1112 -0.4997
17283TIP3    H173340   6.390   4.970   2.885 -0.7653 -0.2763 -2.6209
17283TIP3    H273341   6.469   4.850   2.839 -0.9925 -1.0186 -1.1147
17284TIP3   OH273342   5.578   4.584   4.096  0.2264  0.5171  0.1575
17284TIP3    H173343   5.488   4.587   4.128 -0.1515 -1.3046 -0.5736
17284TIP3    H273344   5.609   4.496   4.120  1.8273  1.1070  0.3923
17285TIP3   OH273345   2.149   3.732   2.074  0.5082  0.6500 -0.4084
17285TIP3    H173346   2.205   3.669   2.119  0.0285 -0.3482 -1.1535
17285TIP3    H273347   2.130   3.799   2.139  2.0752  0.6991  0.0269
17286TIP3   OH273348   3.807   5.804  17.031 -0.2349  0.3195 -0.2166
17286TIP3    H173349   3.772   5.730  17.080 -0.7698  2.3263  2.7099
17286TIP3    H273350   3.732   5.863  17.020  0.2648  0.6598 -2.0946
17287TIP3   OH273351   4.630   5.359  16.933  0.6064 -0.9302 -0.4687
17287TIP3    H173352   4.604   5.418  16.862 -1.7332 -0.8628  0.3615
17287TIP3    H273353   4.621   5.411  17.013  1.4894 -1.5269  0.0447
17288TIP3   OH273354   4.960   4.820  13.127  0.1952  0.6237  0.1785
17288TIP3    H173355   5.006   4.755  13.180  0.2526 -0.5394 -1.2176
17288TIP3    H273356   5.019   4.896  13.126 -0.1658  0.9881  2.3637
17289TIP3   OH273357   6.201   1.756  12.320 -0.0958 -0.1745  0.2070
17289TIP3    H173358   6.114   1.729  12.348  0.3911 -2.1368 -0.0526
17289TIP3    H273359   6.210   1.722  12.231 -0.6722  3.8427 -1.5885
17290TIP3   OH273360   4.823   0.330  15.507  0.2199  0.3164  0.2596
17290TIP3    H173361   4.864   0.300  15.589  0.1095 -0.0327  0.1892
17290TIP3    H273362   4.800   0.249  15.461 -0.1903  0.5132  0.1183
17291TIP3   OH273363   0.558   1.400   5.604 -0.1826 -0.1309 -0.1694
17291TIP3    H173364   0.521   1.479   5.563  1.5709  0.0642 -1.5021
17291TIP3    H273365   0.636   1.381   5.552 -0.6641 -2.8891 -0.0071
17292TIP3   OH273366   0.675   0.998   5.003  0.0593 -0.4534  0.4383
17292TIP3    H173367   0.702   1.061   4.937 -0.1272 -0.0862  0.7092
17292TIP3    H273368   0.713   1.030   5.085 -1.0023 -0.0336  0.7913
17293TIP3   OH273369   0.863   6.636   6.285 -0.1953  0.3496  0.1780
17293TIP3    H173370   0.829   6.648   6.196 -1.0504 -0.6651  0.3527
17293TIP3    H273371   0.861   6.542   6.299  0.3995  0.4628  1.1047
17294TIP3   OH273372   0.449   1.193  13.690  0.1197  0.0308  0.2784
17294TIP3    H173373   0.531   1.238  13.670  0.5829 -0.6634  0.5544
17294TIP3    H273374   0.430   1.141  13.612  0.4517 -0.5370  0.5686
17295TIP3   OH273375   5.959   3.233  10.912  0.1862  0.5200 -0.5045
17295TIP3    H173376   5.906   3.312  10.908  1.1503  1.2000 -0.2900
17295TIP3    H273377   6.036   3.253  10.859  1.2478  0.3692  0.9039
17296TIP3   OH273378   1.131   4.853   1.108 -0.1695 -0.0592 -0.2244
17296TIP3    H173379   1.111   4.823   1.197 -1.3435  0.3201 -0.3373
17296TIP3    H273380   1.131   4.772   1.056  2.3935 -0.5430  0.3732
17297TIP3   OH273381   5.536   2.068   5.076 -0.3290 -0.4202 -0.3240
17297TIP3    H173382   5.547   2.091   4.983 -0.1780 -0.1044 -0.2315
17297TIP3    H273383   5.456   2.114   5.103 -0.0574 -0.0364 -0.1526
17298TIP3   OH273384   6.196   0.231   1.335  0.7125  0.5185  0.1724
17298TIP3    H173385   6.228   0.150   1.375  2.4572  1.7437  1.4350
17298TIP3    H273386   6.266   0.257   1.274 -0.8312 -0.0412 -1.9429
17299TIP3   OH273387   5.441   2.816   5.064  0.0347  0.3747  0.7766
17299TIP3    H173388   5.534   2.839   5.065  0.2967 -0.6211  2.0300
17299TIP3    H273389   5.417   2.810   5.157 -1.2763  0.5842  0.4658
17300TIP3   OH273390   3.280   4.540  11.920 -0.5458  0.3484 -0.4050
17300TIP3    H173391   3.359   4.591  11.935 -1.0229  0.7875  0.7217
17300TIP3    H273392   3.234   4.588  11.851  0.0353  0.2313 -0.8856
17301TIP3   OH273393   3.199   6.754   5.786  0.0940  0.8429  0.5911
17301TIP3    H173394   3.111   6.750   5.822 -2.0259 -2.1377 -3.9786
17301TIP3    H273395   3.199   6.831   5.729 -0.4361 -0.2789 -1.0052
17302TIP3   OH273396   2.413   6.318   2.808 -0.3836  0.0580 -0.0606
17302TIP3    H173397   2.388   6.226   2.814  0.2713 -0.1669 -0.6965
17302TIP3    H273398   2.392   6.353   2.895  0.3086 -0.9369  0.5397
17303TIP3   OH273399   6.503   4.019  16.131 -0.1057 -0.3350  0.3013
17303TIP3    H173400   6.572   4.001  16.195 -0.2801 -1.9219  0.0775
17303TIP3    H273401   6.526   3.965  16.056  0.2167  1.6382 -1.1229
17304TIP3   OH273402   5.134   0.711   4.691 -0.6166  0.1983  0.5214
17304TIP3    H173403   5.121   0.728   4.597  1.8084 -1.8696 -0.3090
17304TIP3    H273404   5.050   0.674   4.720 -0.6013 -1.7163 -1.5728
17305TIP3   OH273405   0.533   3.951  15.341 -0.7603 -0.0651  0.0979
17305TIP3    H173406   0.554   3.946  15.247  2.5034  1.8609  0.5848
17305TIP3    H273407   0.525   4.044  15.359 -2.6184 -0.4379  1.5981
17306TIP3   OH273408   3.352   0.659   0.366  0.1434 -0.0831 -0.0301
17306TIP3    H173409   3.376   0.647   0.274  2.6137  2.4568  0.1340
17306TIP3    H273410   3.266   0.700   0.363  0.9160  1.5648 -1.3597
17307TIP3   OH273411   6.030   0.410   6.165 -0.1182 -0.3273  0.5270
17307TIP3    H173412   5.989   0.455   6.238  0.0708  1.8992 -0.6685
17307TIP3    H273413   6.035   0.318   6.193  1.5386  0.6459  4.0399
17308TIP3   OH273414   5.839   6.625  12.044 -0.3351  0.0712 -0.2087
17308TIP3    H173415   5.804   6.695  12.100 -0.9075 -0.4015  0.0313
17308TIP3    H273416   5.771   6.612  11.977  0.2578  0.4961 -0.9125
17309TIP3   OH273417   0.957   4.926  13.009 -0.3724  0.0835  0.1284
17309TIP3    H173418   0.935   4.862  12.941  0.0593 -0.2539  0.3041
17309TIP3    H273419   1.043   4.899  13.041 -0.6245  0.1681  0.8907
17310TIP3   OH273420   0.034   0.425  15.337 -0.1577 -0.2404 -0.5271
17310TIP3    H173421   0.033   0.338  15.376 -0.0852 -0.4228 -0.9248
17310TIP3    H273422   0.115   0.427  15.285  0.9848  0.8142  1.1567
17311TIP3   OH273423   6.480   5.665  15.020  0.2745 -0.1507 -0.3835
17311TIP3    H173424   6.488   5.666  14.924  2.4358  0.2951 -0.2623
17311TIP3    H273425   6.532   5.589  15.047  0.9725  0.6143  0.4841
17312TIP3   OH273426   1.485   6.300  11.960 -0.3326 -0.0659  0.1616
17312TIP3    H173427   1.488   6.393  11.938 -1.3973 -0.2573 -0.8884
17312TIP3    H273428   1.408   6.291  12.016 -0.8547 -0.4657 -0.5986
17313TIP3   OH273429   2.444   4.154  11.181  0.2514 -0.0421 -0.0414
17313TIP3    H173430   2.497   4.178  11.105  1.0690  0.2031  0.5804
17313TIP3    H273431   2.509   4.135  11.249 -0.4576 -0.7068  0.4549
17314TIP3   OH273432   2.424   2.377  16.546  0.4322  0.0254 -0.0756
17314TIP3    H173433   2.518   2.361  16.555  0.1426 -0.9917  1.5101
17314TIP3    H273434   2.413   2.470  16.565  0.9883 -0.1157  0.9832
17315TIP3   OH273435   4.018   4.493  14.204 -0.4502 -0.4066 -0.2333
17315TIP3    H173436   4.013   4.587  14.222  0.6378 -0.1696 -1.0399
17315TIP3    H273437   4.108   4.480  14.173 -0.8688 -1.5561 -1.0041
17316TIP3   OH273438   3.938   2.674   6.213 -0.0297  0.3844  0.1276
17316TIP3    H173439   3.983   2.722   6.282  1.0401  0.8422 -0.8625
17316TIP3    H273440   4.006   2.618   6.174 -0.5831  0.2072 -0.6079
17317TIP3   OH273441   5.758   0.335   1.357 -0.7299  0.2289  0.2978
17317TIP3    H173442   5.771   0.391   1.281 -0.8202 -0.2892 -0.1034
17317TIP3    H273443   5.797   0.251   1.332  0.7417  0.5308  1.4401
17318TIP3   OH273444   2.025   1.242   3.075  0.2833 -0.1158  0.1479
17318TIP3    H173445   2.069   1.279   2.999  0.6981 -0.0938  0.3948
17318TIP3    H273446   2.079   1.268   3.150  0.6025 -1.2462  0.3278
17319TIP3   OH273447   1.859   5.443  10.973  0.7444 -0.0461 -0.2990
17319TIP3    H173448   1.807   5.377  10.926  0.6062  0.3156 -0.6625
17319TIP3    H273449   1.856   5.520  10.916  0.8873  0.2798  0.1335
17320TIP3   OH273450   5.925   5.147  12.768 -0.5308 -0.0358 -0.1843
17320TIP3    H173451   5.904   5.220  12.826 -1.3169 -1.9135  2.0595
17320TIP3    H273452   5.858   5.081  12.787  1.1272 -2.0199 -0.8595
17321TIP3   OH273453   0.158   0.516  13.496 -0.8495  0.4373 -0.3123
17321TIP3    H173454   0.155   0.604  13.534 -0.3405 -0.3836  1.7509
17321TIP3    H273455   0.068   0.499  13.468 -1.3480  0.9846  0.8577
17322TIP3   OH273456   0.952   0.857   3.578  0.4963 -0.6277 -0.2949
17322TIP3    H173457   0.876   0.863   3.521 -0.3122  0.4335  0.8636
17322TIP3    H273458   1.020   0.818   3.523 -0.3891 -0.0546 -1.8393
17323TIP3   OH273459   5.739   4.671   4.862  0.2660 -0.0508  0.2499
17323TIP3    H173460   5.724   4.763   4.880  1.8511  0.4335 -0.6469
17323TIP3    H273461   5.653   4.630   4.865 -0.3430  1.2722  1.6110
17324TIP3   OH273462   4.900   1.441  15.879 -0.3927 -0.0798  0.1346
17324TIP3    H173463   4.938   1.502  15.943 -0.2159  0.2129 -0.2483
17324TIP3    H273464   4.910   1.355  15.920  2.4657 -0.2704 -0.7373
17325TIP3   OH273465   0.328   2.167  11.920  0.4020 -0.0492 -0.7356
17325TIP3    H173466   0.269   2.100  11.885 -0.2512  1.3024 -2.3874
17325TIP3    H273467   0.411   2.152  11.876  0.5712 -0.4216 -0.2939
17326TIP3   OH273468   1.731   5.247  17.276 -0.2142  0.1492 -0.3486
17326TIP3    H173469   1.795   5.316  17.290  0.3869 -0.4997  0.1890
17326TIP3    H273470   1.701   5.223  17.364  0.1894 -0.8264 -0.4619
17327TIP3   OH273471   1.211   3.913  16.406  0.2031 -0.0988 -0.2690
17327TIP3    H173472   1.239   3.885  16.493  2.6355 -2.8143 -1.7402
17327TIP3    H273473   1.272   3.983  16.383  0.8192 -0.6850 -0.4670
17328TIP3   OH273474   5.376   2.849  13.316  0.0149  0.2560  0.1527
17328TIP3    H173475   5.292   2.877  13.353  0.1608  0.5649  0.2484
17328TIP3    H273476   5.401   2.774  13.369  0.8204  1.4292  1.4874
17329TIP3   OH273477   5.768   5.070   1.253  0.0728 -0.1125  0.4763
17329TIP3    H173478   5.782   4.978   1.229  0.1445  0.1276 -0.4116
17329TIP3    H273479   5.803   5.076   1.342  1.2947 -0.6422  0.0574
17330TIP3   OH273480   6.252   4.250  17.060 -0.4460  0.2919 -0.3433
17330TIP3    H173481   6.247   4.343  17.080 -2.4046  0.3972 -1.1024
17330TIP3    H273482   6.346   4.229  17.064  0.1400  2.5134 -1.2536
17331TIP3   OH273483   0.854   1.550   4.619 -0.2680 -0.0404  0.0024
17331TIP3    H173484   0.924   1.613   4.603 -0.5003  0.0436 -0.7132
17331TIP3    H273485   0.840   1.507   4.535 -1.3328  0.2051  0.0371
17332TIP3   OH273486   5.552   0.109   6.286  0.2226 -0.8282 -0.0294
17332TIP3    H173487   5.489   0.150   6.227  0.8165 -1.6451 -1.2693
17332TIP3    H273488   5.518   0.128   6.374  0.2829  1.9589 -0.5299
17333TIP3   OH273489   4.887   1.142   3.276 -0.1565  0.2104  0.2664
17333TIP3    H173490   4.871   1.047   3.270 -1.0272  0.4508 -3.2716
17333TIP3    H273491   4.963   1.150   3.334  0.0243 -2.6326  0.5711
17334TIP3   OH273492   5.039   5.443   1.500  0.0174 -0.0884 -0.6802
17334TIP3    H173493   4.954   5.482   1.482  0.4451  1.5437  0.6120
17334TIP3    H273494   5.064   5.477   1.586  2.0802 -0.3182 -1.1224
17335TIP3   OH273495   4.384   1.948  14.423  0.6993 -0.0374  0.1905
17335TIP3    H173496   4.326   1.910  14.488  1.2038 -0.0961  0.6111
17335TIP3    H273497   4.448   1.878  14.404  2.2849  0.9209  1.7513
17336TIP3   OH273498   4.593   1.675   5.952  0.6136  0.6185  0.1641
17336TIP3    H173499   4.598   1.770   5.957  0.1149  0.6564 -0.0224
17336TIP3    H273500   4.526   1.658   5.886  1.0395  0.1389 -0.1582
17337TIP3   OH273501   5.836   5.733   4.622  0.2570  0.3259 -0.1316
17337TIP3    H173502   5.850   5.639   4.638 -0.6059  0.5818  2.6859
17337TIP3    H273503   5.779   5.735   4.544  0.9647 -1.4264 -0.7490
17338TIP3   OH273504   5.437   3.758   6.713 -0.3448  0.0566  0.2727
17338TIP3    H173505   5.379   3.689   6.682 -1.6649  1.3508 -0.2932
17338TIP3    H273506   5.410   3.774   6.803 -1.0664  0.8264 -0.0677
17339TIP3   OH273507   5.105   4.278   4.656  0.1551  0.4452  0.1131
17339TIP3    H173508   5.154   4.354   4.625  0.0718  0.0811 -0.9319
17339TIP3    H273509   5.075   4.234   4.577 -0.9792  0.0746  0.7217
17340TIP3   OH273510   0.217   1.470   3.457 -0.4768 -0.0260 -0.1054
17340TIP3    H173511   0.196   1.536   3.390 -1.9395 -0.0901  0.2611
17340TIP3    H273512   0.312   1.464   3.455 -0.3016  2.0360 -0.2251
17341TIP3   OH273513   3.374   1.569  13.001 -0.7537  0.0950 -0.3059
17341TIP3    H173514   3.465   1.581  12.976 -0.5869 -1.9193 -0.8247
17341TIP3    H273515   3.377   1.527  13.087 -1.0587 -2.4564 -1.4545
17342TIP3   OH273516   0.838   4.415  13.036 -0.4867  0.1174 -0.5047
17342TIP3    H173517   0.760   4.373  12.999  0.4862 -1.6099 -0.6968
17342TIP3    H273518   0.809   4.449  13.120 -1.1306 -1.7507  0.0697
17343TIP3   OH273519   3.396   0.860   6.147  0.0978  0.4076 -0.1454
17343TIP3    H173520   3.469   0.811   6.183  0.6399  1.3235  0.0390
17343TIP3    H273521   3.434   0.943   6.119 -0.7226  0.5807 -0.7954
17344TIP3   OH273522   4.637   4.229  13.810  0.1443  0.0841  0.1770
17344TIP3    H173523   4.594   4.157  13.856 -0.5273  0.0831 -0.4297
17344TIP3    H273524   4.631   4.205  13.718  1.9224 -0.1603  0.0912
17345TIP3   OH273525   1.891   4.668   1.227 -0.3073  0.0196 -0.3902
17345TIP3    H173526   1.840   4.749   1.239 -0.2965 -0.2084  1.6261
17345TIP3    H273527   1.923   4.647   1.315  0.0884 -1.9381 -0.9499
17346TIP3   OH273528   3.779   6.056   2.180 -0.6536  0.3379  0.2602
17346TIP3    H173529   3.703   6.101   2.217 -0.1810 -0.8500  2.8674
17346TIP3    H273530   3.854   6.106   2.209 -0.3070  0.0093 -0.0487
17347TIP3   OH273531   4.165   1.758   1.201  0.4302 -0.0434  0.0829
17347TIP3    H173532   4.071   1.774   1.206  0.0677 -2.1394  1.4940
17347TIP3    H273533   4.196   1.814   1.130 -2.0661 -0.0388 -1.0933
17348TIP3   OH273534   1.742   1.956   2.009  0.3856 -0.2619  0.1414
17348TIP3    H173535   1.814   1.992   1.958  0.1949  0.9078  0.6542
17348TIP3    H273536   1.741   1.863   1.988  0.5295  0.1226 -1.6947
17349TIP3   OH273537   2.019   6.254  15.146 -0.2017  0.7580 -0.0389
17349TIP3    H173538   2.086   6.269  15.078 -0.8893  1.5721 -0.5598
17349TIP3    H273539   2.053   6.299  15.223  0.6829 -0.3437  0.2206
17350TIP3   OH273540   5.129   0.631  17.008  0.0809 -0.1955 -0.2078
17350TIP3    H173541   5.098   0.625  17.098 -1.1906 -0.8869 -0.6668
17350TIP3    H273542   5.215   0.588  17.009  0.0568 -0.2314  0.6644
17351TIP3   OH273543   0.887   2.790  12.512 -0.5308  0.4042 -0.7766
17351TIP3    H173544   0.969   2.740  12.505 -1.5247 -1.3121 -0.7531
17351TIP3    H273545   0.887   2.847  12.435  1.4762  1.7531  0.1370
17352TIP3   OH273546   1.392   4.469   0.561 -0.1690 -0.5544  0.3070
17352TIP3    H173547   1.485   4.470   0.539 -0.2390 -0.4330  0.0147
17352TIP3    H273548   1.379   4.386   0.608  0.4259  0.1975  1.8589
17353TIP3   OH273549   6.064   5.719   6.013 -0.1559  0.1671 -0.2418
17353TIP3    H173550   5.998   5.708   6.082 -0.9295 -0.9011 -1.1188
17353TIP3    H273551   6.142   5.676   6.047  0.4581  2.3066  1.2338
17354TIP3   OH273552   1.703   6.757   5.023  0.3756 -0.0925 -0.4842
17354TIP3    H173553   1.676   6.679   4.974  0.0628 -1.3877  1.6247
17354TIP3    H273554   1.652   6.828   4.984  0.0197 -1.0693 -1.8983
17355TIP3   OH273555   1.130   4.698  14.570 -0.2729  0.0690  0.2932
17355TIP3    H173556   1.089   4.620  14.609 -0.0165 -0.4759 -0.5252
17355TIP3    H273557   1.056   4.756  14.550 -0.5078 -0.1975  0.3826
17356TIP3   OH273558   1.659   2.987  15.795 -0.4577 -0.3691 -0.1952
17356TIP3    H173559   1.625   3.069  15.759 -2.6080 -1.5335 -0.9335
17356TIP3    H273560   1.675   3.007  15.888 -0.7524  0.9298 -0.3978
17357TIP3   OH273561   2.617   6.478   4.869 -0.0399 -0.4560 -0.0469
17357TIP3    H173562   2.652   6.522   4.947  0.7061 -0.7019 -0.2366
17357TIP3    H273563   2.675   6.403   4.855  0.3596  0.0544 -1.3282
17358TIP3   OH273564   4.098   0.137  13.480  0.1578 -0.2573 -0.2692
17358TIP3    H173565   4.059   0.149  13.393  0.4336 -0.7153 -0.4624
17358TIP3    H273566   4.039   0.183  13.540  0.9413  1.6554 -0.9096
17359TIP3   OH273567   0.658   6.245  16.310  0.3688  0.0672 -0.2015
17359TIP3    H173568   0.701   6.164  16.284 -1.4883 -1.2028  0.4130
17359TIP3    H273569   0.639   6.289  16.228  1.6455  0.0155 -0.5329
17360TIP3   OH273570   3.906   3.219   6.372 -0.3955 -0.0903  0.5314
17360TIP3    H173571   3.913   3.288   6.305 -2.4609  0.0135  0.3416
17360TIP3    H273572   3.985   3.166   6.360  0.1912  0.9970 -0.7508
17361TIP3   OH273573   6.527   5.676  15.540  0.1365 -0.6778 -0.8387
17361TIP3    H173574   6.531   5.645  15.631 -0.9198  0.2267 -0.4717
17361TIP3    H273575   6.536   5.596  15.488 -1.4231 -1.5061  0.0890
17362TIP3   OH273576   3.007   5.409  14.585 -0.6473  0.0864  0.3245
17362TIP3    H173577   3.070   5.448  14.646  0.1690  0.0576 -0.4733
17362TIP3    H273578   3.015   5.315  14.599  1.5066 -0.1230 -1.6029
17363TIP3   OH273579   1.541   4.946   2.688 -0.6594 -0.1745  0.6245
17363TIP3    H173580   1.484   4.869   2.682 -1.3225  0.3145  0.4251
17363TIP3    H273581   1.556   4.957   2.782 -2.4136  0.7381  0.8486
17364TIP3   OH273582   5.449   3.362   0.929 -0.1218 -0.3722  0.0548
17364TIP3    H173583   5.402   3.327   0.853  0.5399 -2.6542  0.6095
17364TIP3    H273584   5.541   3.362   0.902  0.0109 -0.2289  0.5006
17365TIP3   OH273585   3.201   4.223   3.219 -0.0785 -0.5223 -0.1006
17365TIP3    H173586   3.196   4.235   3.314 -2.2641 -1.1223 -0.0971
17365TIP3    H273587   3.162   4.302   3.182 -1.0193 -1.1296 -0.4312
17366TIP3   OH273588   0.746   4.665   2.124 -0.3171  0.0198 -0.3324
17366TIP3    H173589   0.692   4.610   2.067 -0.2571 -0.9563  0.5225
17366TIP3    H273590   0.757   4.613   2.204  0.5883  0.8599  0.1092
17367TIP3   OH273591   1.014   5.355  16.026  0.3355  0.5970 -0.2180
17367TIP3    H173592   1.026   5.442  15.987 -0.2932  1.4813  1.4562
17367TIP3    H273593   0.926   5.328  15.997  0.0967  0.9999  0.1215
17368TIP3   OH273594   1.285   0.943   4.396  0.2067  0.0595  0.5698
17368TIP3    H173595   1.231   0.977   4.325 -0.3194 -1.1987  0.3532
17368TIP3    H273596   1.371   0.929   4.356  0.2750  0.5812  0.5238
17369TIP3   OH273597   0.755   1.458   5.065  0.6445  0.1445  0.6452
17369TIP3    H173598   0.686   1.508   5.109  0.5638  0.2814  0.3715
17369TIP3    H273599   0.811   1.525   5.026  0.1279  0.0199 -0.3450
17370TIP3   OH273600   3.736   0.093  14.868  0.1607 -0.7949  0.1036
17370TIP3    H173601   3.739   0.046  14.785 -3.6486  0.7824 -1.1680
17370TIP3    H273602   3.732   0.024  14.934  2.5371 -2.0937 -0.9920
17371TIP3   OH273603   0.568   5.614  16.972 -0.2859  0.3089 -0.0258
17371TIP3    H173604   0.495   5.573  16.925 -0.3781  1.4374 -0.9171
17371TIP3    H273605   0.529   5.693  17.011  0.4162  0.8687 -0.4321
17372TIP3   OH273606   0.989   4.620  14.888  0.5843  0.3525  0.3457
17372TIP3    H173607   0.927   4.660  14.948 -1.0678  1.4109 -1.8990
17372TIP3    H273608   0.944   4.619  14.804  2.7581 -1.0454 -0.9188
17373TIP3   OH273609   6.548   2.406  12.837  0.0724 -0.3058 -0.0398
17373TIP3    H173610   6.556   2.411  12.742 -0.3190 -0.0036 -0.0641
17373TIP3    H273611   6.496   2.483  12.860 -1.5544 -1.4394  0.2159
17374TIP3   OH273612   6.266   4.817  17.033 -0.7633  0.0336  0.0477
17374TIP3    H173613   6.316   4.811  17.115 -1.7922  0.4599  0.7301
17374TIP3    H273614   6.301   4.746  16.979  1.3958  1.0325  0.0156
17375TIP3   OH273615   6.244   0.116  15.923  0.4433  0.4300  0.3983
17375TIP3    H173616   6.202   0.201  15.912  3.2032  1.8450 -0.3116
17375TIP3    H273617   6.251   0.081  15.834  1.9241  0.9014  0.2940
17376TIP3   OH273618   1.719   0.096   0.699  0.5267 -0.6973 -0.9613
17376TIP3    H173619   1.676   0.181   0.709  0.2487 -0.7937 -1.3402
17376TIP3    H273620   1.791   0.098   0.763 -0.8239 -1.0383  0.6669
17377TIP3   OH273621   2.736   0.770  15.044  0.3033 -0.1446  0.3151
17377TIP3    H173622   2.749   0.785  14.950 -2.7151  0.1945 -0.1526
17377TIP3    H273623   2.697   0.682  15.049 -1.4548  0.6235  0.9825
17378TIP3   OH273624   5.752   2.423   2.257 -0.9861  0.7586 -0.7238
17378TIP3    H173625   5.751   2.458   2.168  0.5424  0.7962 -0.7486
17378TIP3    H273626   5.792   2.337   2.249 -1.2744  0.5625 -0.1294
17379TIP3   OH273627   3.761   5.242   2.044 -0.5412  0.4606  0.3499
17379TIP3    H173628   3.808   5.270   1.965 -0.0774  1.0200  0.8167
17379TIP3    H273629   3.695   5.181   2.012 -0.1521  0.4393 -0.4377
17380TIP3   OH273630   1.304   2.813  16.267  0.2327 -0.1187 -0.4199
17380TIP3    H173631   1.381   2.822  16.211  0.1608  2.0555 -0.2770
17380TIP3    H273632   1.235   2.861  16.221 -0.4561 -0.2645  0.4296
17381TIP3   OH273633   0.591   1.133  12.671  0.7840 -0.5722  0.8578
17381TIP3    H173634   0.628   1.068  12.731  0.9483 -1.1965  0.1030
17381TIP3    H273635   0.619   1.103  12.584 -2.1538 -1.5607  0.1191
17382TIP3   OH273636   2.485   1.350   6.076 -0.1235 -0.2136 -0.2867
17382TIP3    H173637   2.567   1.371   6.121 -0.2947  1.3199 -0.6401
17382TIP3    H273638   2.507   1.352   5.983 -0.3054 -0.9949 -0.3530
17383TIP3   OH273639   1.737   3.967   3.588 -0.1010  0.5633  0.1561
17383TIP3    H173640   1.700   4.055   3.597  1.4514  1.2349  0.3345
17383TIP3    H273641   1.830   3.982   3.567  0.1126 -1.0322 -0.1711
17384TIP3   OH273642   5.556   3.176   5.318 -0.2919  0.1768  0.1870
17384TIP3    H173643   5.548   3.262   5.357 -1.1778  0.1065  0.1821
17384TIP3    H273644   5.647   3.150   5.333 -0.2077  0.8199  0.7792
17385TIP3   OH273645   5.803   6.647  14.504  0.3181 -0.2257 -0.2427
17385TIP3    H173646   5.723   6.696  14.486  0.7617  0.0836 -1.3923
17385TIP3    H273647   5.780   6.556  14.486 -0.8576 -0.7238  2.9969
17386TIP3   OH273648   1.475   4.664   0.249  0.0394  0.0703 -0.2872
17386TIP3    H173649   1.482   4.684   0.343 -2.0941 -1.4832  0.2735
17386TIP3    H273650   1.516   4.578   0.240 -0.2448 -0.0257 -0.6718
17387TIP3   OH273651   4.495   2.316   6.823 -0.0040  0.4373 -0.5169
17387TIP3    H173652   4.449   2.257   6.883  0.1619 -0.3747 -1.1734
17387TIP3    H273653   4.580   2.273   6.807 -0.1828  0.4493 -1.5972
17388TIP3   OH273654   2.848   2.557   6.548  0.6934  0.0083 -0.0024
17388TIP3    H173655   2.917   2.521   6.604 -0.4612 -0.5380  1.1235
17388TIP3    H273656   2.768   2.548   6.600 -0.3643 -0.1016 -1.5806
17389TIP3   OH273657   0.593   3.185  13.241  0.2756 -0.4139  0.4984
17389TIP3    H173658   0.532   3.201  13.169  0.4298 -2.0796 -0.0507
17389TIP3    H273659   0.562   3.241  13.312  0.5491  1.8506 -1.0526
17390TIP3   OH273660   2.609   6.745   3.047  0.6430  0.4796 -0.1192
17390TIP3    H173661   2.613   6.699   3.131  0.9943  0.3955 -0.1819
17390TIP3    H273662   2.655   6.827   3.062  1.0115  0.3105 -0.3300
17391TIP3   OH273663   6.504   2.023   0.613  0.4312 -0.0479 -0.2667
17391TIP3    H173664   6.492   2.070   0.531 -1.0908  2.5423  1.2963
17391TIP3    H273665   6.421   2.032   0.659  2.4499  2.6037  3.4125
17392TIP3   OH273666   0.396   0.904   4.951  0.1921  0.7367  0.0193
17392TIP3    H173667   0.341   0.889   5.027 -0.5807 -0.9634 -0.8182
17392TIP3    H273668   0.484   0.911   4.986 -0.3120  1.5997  1.2011
17393TIP3   OH273669   5.235   2.225  12.274  0.3848 -0.4646 -0.2726
17393TIP3    H173670   5.141   2.232  12.259  0.4026 -0.7948 -0.5588
17393TIP3    H273671   5.265   2.161  12.209  1.2511  1.5560 -1.9444
17394TIP3   OH273672   1.173   1.987   2.273 -0.4937 -0.3106  0.0093
17394TIP3    H173673   1.104   2.053   2.275  1.1038  1.4090  1.3174
17394TIP3    H273674   1.227   2.011   2.198  0.1523 -0.0553  0.5502
17395TIP3   OH273675   4.431   2.661   4.084  0.0359 -0.0838 -0.1262
17395TIP3    H173676   4.489   2.697   4.150  0.9367 -1.8608  0.1000
17395TIP3    H273677   4.475   2.679   4.001  1.0031 -1.5067  0.0499
17396TIP3   OH273678   3.259   4.540  15.546 -0.0199  0.5518  0.1594
17396TIP3    H173679   3.326   4.488  15.591  0.1776  0.5520 -0.1275
17396TIP3    H273680   3.209   4.581  15.616  2.4339  3.3733  0.4913
17397TIP3   OH273681   1.314   3.200  14.115  0.3080 -0.1398  0.3514
17397TIP3    H173682   1.233   3.161  14.084  1.2900 -2.0511  0.0208
17397TIP3    H273683   1.328   3.275  14.058  1.1917 -2.5800 -2.9495
17398TIP3   OH273684   2.541   6.387  14.087 -0.2951  0.4546 -0.1845
17398TIP3    H173685   2.500   6.381  14.174 -0.2666 -0.7423 -0.2333
17398TIP3    H273686   2.621   6.335  14.095  0.7132  1.9101 -0.3937
17399TIP3   OH273687   4.791   5.971  15.225  0.2761 -0.4427  0.0900
17399TIP3    H173688   4.717   6.027  15.202 -0.5412 -1.2664  0.5886
17399TIP3    H273689   4.844   5.966  15.146  0.3120  0.9313  0.0142
17400TIP3   OH273690   0.516   5.647   2.593 -0.1243  0.0466 -0.2360
17400TIP3    H173691   0.573   5.571   2.605  0.9587  0.6133 -1.4526
17400TIP3    H273692   0.567   5.706   2.537 -1.5074  1.0426 -0.4965
17401TIP3   OH273693   5.295   3.273   6.145 -0.3677 -0.6178 -0.2234
17401TIP3    H173694   5.274   3.214   6.073  0.8087  0.3312 -1.3812
17401TIP3    H273695   5.380   3.310   6.122  0.6634 -1.2166  2.2765
17402TIP3   OH273696   1.847   6.243  15.588  0.2803 -0.2149  0.4228
17402TIP3    H173697   1.921   6.182  15.580  0.6813  0.3850 -0.7020
17402TIP3    H273698   1.769   6.187  15.581  0.6431 -0.6433 -0.2844
17403TIP3   OH273699   2.763   4.222  13.080  0.3699  0.1744 -0.2573
17403TIP3    H173700   2.773   4.243  12.987  0.7695  1.7274  0.1110
17403TIP3    H273701   2.671   4.238  13.098  0.4918  0.7861 -0.1748
17404TIP3   OH273702   0.705   5.221  17.088 -0.1051  0.1051  0.3910
17404TIP3    H173703   0.710   5.143  17.144 -1.1072  1.2885  2.2453
17404TIP3    H273704   0.736   5.191  17.002  3.6257 -1.3245  2.0070
17405TIP3   OH273705   5.333   3.884   3.302 -0.6144  0.4688  0.3420
17405TIP3    H173706   5.289   3.876   3.217  0.8529 -0.3146 -0.3969
17405TIP3    H273707   5.305   3.807   3.351 -1.3151  0.8211  0.4987
17406TIP3   OH273708   0.338   6.683  14.355  0.3821  0.2772 -0.1472
17406TIP3    H173709   0.427   6.668  14.389  0.0225 -2.2540 -0.1690
17406TIP3    H273710   0.341   6.651  14.265 -0.3415  1.0873 -0.4752
17407TIP3   OH273711   5.818   5.636  15.885  0.3615 -0.3178 -0.4081
17407TIP3    H173712   5.770   5.582  15.948 -0.1670  0.1264 -0.4255
17407TIP3    H273713   5.761   5.639  15.808  0.3853  0.2698 -0.4066
17408TIP3   OH273714   6.459   0.042   2.869 -0.1258  0.4437  0.0852
17408TIP3    H173715   6.418   0.102   2.806 -0.4525 -1.2252 -1.3852
17408TIP3    H273716   6.391   0.025   2.934 -1.3315 -1.0623 -1.4705
17409TIP3   OH273717   3.497   5.462   1.970  0.0539  0.1826 -0.7878
17409TIP3    H173718   3.554   5.537   1.987 -2.1123  1.5510  0.8550
17409TIP3    H273719   3.545   5.387   2.005  1.2961  1.1089 -0.4268
17410TIP3   OH273720   5.139   4.614   0.318  0.0944  0.4788  0.0880
17410TIP3    H173721   5.143   4.557   0.395  0.0468  1.3376  0.7312
17410TIP3    H273722   5.175   4.560   0.247 -0.5034 -0.5668  0.5486
17411TIP3   OH273723   2.369   5.584   3.663  0.5108 -0.7219  0.1304
17411TIP3    H173724   2.313   5.662   3.668  0.2861 -0.9418  1.7902
17411TIP3    H273725   2.324   5.526   3.602 -0.7889 -0.6554  0.9807
17412TIP3   OH273726   5.476   1.150  11.337  0.4295  0.8214 -0.3444
17412TIP3    H173727   5.568   1.130  11.351  0.9701  1.4981 -2.5310
17412TIP3    H273728   5.475   1.204  11.258 -1.9054  0.1793 -0.8320
17413TIP3   OH273729   0.602   5.706  12.651  0.2160  0.5438  0.6692
17413TIP3    H173730   0.623   5.702  12.745  2.1569 -1.1149  0.2385
17413TIP3    H273731   0.519   5.659  12.644 -0.4653  1.5511  1.6627
17414TIP3   OH273732   4.242   2.417   3.445 -0.4140  0.4390 -0.1051
17414TIP3    H173733   4.203   2.382   3.365  0.0912  0.8664 -0.5501
17414TIP3    H273734   4.324   2.457   3.415  1.3009 -1.9986  1.0303
17415TIP3   OH273735   2.727   5.272   0.927 -0.9684 -0.0930 -0.2505
17415TIP3    H173736   2.678   5.354   0.938 -1.8631 -0.8254  1.8055
17415TIP3    H273737   2.685   5.212   0.988 -0.6658 -2.2672 -2.0568
17416TIP3   OH273738   0.332   3.865  11.028 -0.0172  0.2375 -0.6660
17416TIP3    H173739   0.244   3.897  11.046 -0.0152 -0.6123  1.0591
17416TIP3    H273740   0.356   3.817  11.106  2.8529  2.2589 -0.1532
17417TIP3   OH273741   0.382   3.001  13.697 -0.0977  0.2606  0.3041
17417TIP3    H173742   0.334   2.999  13.614 -0.5648  2.4769  0.4679
17417TIP3    H273743   0.420   2.914  13.704 -1.9107 -0.7092 -1.1230
17418TIP3   OH273744   6.142   2.558   4.609  0.5740  0.0122 -0.7833
17418TIP3    H173745   6.156   2.463   4.609  0.1328 -0.0621 -0.1462
17418TIP3    H273746   6.216   2.593   4.658  1.0689  0.0545 -1.5587
17419TIP3   OH273747   1.672   1.987  16.058 -0.0711  1.2678  0.3337
17419TIP3    H173748   1.617   2.064  16.041 -0.3731  1.6386  2.6564
17419TIP3    H273749   1.751   2.022  16.098 -0.2444  0.3723  1.5024
17420TIP3   OH273750   2.314   0.700   0.363 -0.2183 -0.1363  0.5427
17420TIP3    H173751   2.287   0.643   0.435 -2.8235  3.1010  2.4217
17420TIP3    H273752   2.235   0.710   0.310  1.0473 -0.6233 -1.5582
17421TIP3   OH273753   3.929   4.149   4.622 -0.0234 -0.2249  0.0836
17421TIP3    H173754   3.923   4.211   4.694 -2.2200  1.4868 -1.4188
17421TIP3    H273755   3.865   4.181   4.558  1.5849 -1.8190 -2.4926
17422TIP3   OH273756   1.596   1.468  17.104  0.2986 -0.1951  0.0523
17422TIP3    H173757   1.519   1.412  17.090 -0.7235  0.8293  1.2456
17422TIP3    H273758   1.622   1.494  17.016 -0.6244 -0.7131 -0.3983
17423TIP3   OH273759   2.150   1.619  12.848 -0.1182  0.4228 -0.3797
17423TIP3    H173760   2.125   1.616  12.755 -0.4012  1.9869 -0.3833
17423TIP3    H273761   2.173   1.528  12.869 -3.1897 -0.6361 -1.0817
17424TIP3   OH273762   1.789   3.634  13.647  0.2033 -0.7694 -0.0076
17424TIP3    H173763   1.827   3.714  13.612 -1.9980  0.3296 -0.0238
17424TIP3    H273764   1.832   3.564  13.598  0.4895  0.5080 -1.6894
17425TIP3   OH273765   3.063   5.136   1.910  0.4178 -0.9113  0.5744
17425TIP3    H173766   2.973   5.158   1.934  0.4802  2.8057 -1.8104
17425TIP3    H273767   3.116   5.186   1.972  0.7070 -0.0019 -0.3738
17426TIP3   OH273768   1.926   1.135   1.209  0.2185 -0.4540  0.1087
17426TIP3    H173769   1.835   1.112   1.191  0.1567 -2.0463  2.0652
17426TIP3    H273770   1.978   1.075   1.154  0.0694 -0.9000  0.4503
17427TIP3   OH273771   1.092   2.700  14.757 -0.0205  0.1233 -0.0898
17427TIP3    H173772   1.126   2.620  14.716 -1.4180 -0.3563 -0.3505
17427TIP3    H273773   1.059   2.670  14.842 -1.8283  0.1287 -0.7579
17428TIP3   OH273774   5.362   3.509  14.804 -0.5008  0.0045  0.5042
17428TIP3    H173775   5.365   3.543  14.714  1.2971  1.5304  1.0778
17428TIP3    H273776   5.305   3.570  14.850 -0.3635 -0.0059  0.6878
17429TIP3   OH273777   3.568   2.533  10.656 -0.0266 -0.2890 -0.1840
17429TIP3    H173778   3.537   2.507  10.743  0.2084 -0.4649 -0.1515
17429TIP3    H273779   3.632   2.466  10.632  0.8352  0.4353  0.0479
17430TIP3   OH273780   1.657   6.448   5.040 -0.4337 -0.0263 -0.0860
17430TIP3    H173781   1.744   6.421   5.009 -0.7703  0.7159 -1.8474
17430TIP3    H273782   1.674   6.496   5.121  0.3933 -3.1142  1.7119
17431TIP3   OH273783   0.817   5.383   2.125 -0.5502 -0.9859 -0.2832
17431TIP3    H173784   0.727   5.388   2.155 -0.9394 -2.2159 -1.1816
17431TIP3    H273785   0.866   5.353   2.202 -0.7851  0.1877  0.3585
17432TIP3   OH273786   2.963   0.594  12.891  0.4532  0.1727  0.1672
17432TIP3    H173787   2.945   0.653  12.818  0.7198  2.3469  1.7598
17432TIP3    H273788   3.027   0.532  12.856  0.6787  1.2395 -1.4104
17433TIP3   OH273789   3.547   6.673   1.793 -0.2552 -0.0142  0.7379
17433TIP3    H173790   3.451   6.674   1.789 -0.2948  2.4852  0.5137
17433TIP3    H273791   3.574   6.694   1.703  0.7334 -4.6973 -0.3159
17434TIP3   OH273792   5.152   3.716   0.657 -0.0130  0.1219 -0.4603
17434TIP3    H173793   5.133   3.643   0.599  0.7147 -0.2663 -0.2231
17434TIP3    H273794   5.091   3.785   0.630 -1.6553 -1.0242  0.2227
17435TIP3   OH273795   2.907   6.455  16.556 -0.2037 -0.2108  0.3861
17435TIP3    H173796   2.917   6.528  16.495 -0.4963 -0.0554  0.5254
17435TIP3    H273797   2.925   6.493  16.642 -1.3788 -0.0603  0.5798
17436TIP3   OH273798   3.860   3.326  16.582  0.2695 -0.1031 -0.1101
17436TIP3    H173799   3.877   3.420  16.586 -0.3187 -0.0297  0.7990
17436TIP3    H273800   3.947   3.286  16.585  0.5795  0.4149 -1.3828
17437TIP3   OH273801   5.841   5.875  17.062 -0.0358  0.7301 -0.1935
17437TIP3    H173802   5.852   5.884  16.967 -0.8741 -0.9413 -0.4916
17437TIP3    H273803   5.916   5.822  17.090  0.4646  1.6201  0.1600
17438TIP3   OH273804   2.209   4.317   5.706 -0.2354  0.2847 -0.0481
17438TIP3    H173805   2.222   4.411   5.692  1.0239 -0.1654 -2.4566
17438TIP3    H273806   2.278   4.291   5.767 -1.4333  1.0970  1.7450
17439TIP3   OH273807   3.861   2.687  11.874 -0.6878 -0.1467 -0.5251
17439TIP3    H173808   3.834   2.773  11.905  0.3280  0.0445 -0.1159
17439TIP3    H273809   3.890   2.702  11.784 -0.5179 -0.0492 -0.4568
17440TIP3   OH273810   5.981   5.256   5.228  0.4106 -0.0781  0.6002
17440TIP3    H173811   6.016   5.169   5.251  0.3063 -0.4652 -0.6651
17440TIP3    H273812   5.959   5.249   5.136 -0.0846  1.1530  0.6180
17441TIP3   OH273813   2.518   4.399   5.644 -0.0453 -0.0660  0.3500
17441TIP3    H173814   2.531   4.334   5.574 -2.0072  0.8328 -0.9197
17441TIP3    H273815   2.491   4.347   5.720 -1.2947 -0.7938 -0.5609
17442TIP3   OH273816   1.083   5.536  16.669  0.3281  0.4204 -0.5634
17442TIP3    H173817   1.038   5.479  16.732  2.9204 -1.4808 -0.2392
17442TIP3    H273818   1.047   5.623  16.686 -0.5381 -0.3462  2.1795
17443TIP3   OH273819   2.670   4.226   4.633  0.2821 -0.6386  0.1045
17443TIP3    H173820   2.764   4.235   4.646  0.1744  0.8282  0.0768
17443TIP3    H273821   2.631   4.254   4.716 -0.1266 -1.1360  0.0825
17444TIP3   OH273822   0.236   6.329   6.374  0.5321  0.7465 -0.0539
17444TIP3    H173823   0.298   6.363   6.309  2.1795 -0.3276  0.8935
17444TIP3    H273824   0.274   6.352   6.458 -0.6669  0.5481  0.5705
17445TIP3   OH273825   5.465   6.342   3.006 -0.5857 -0.4322 -0.1918
17445TIP3    H173826   5.545   6.396   3.006 -0.3735 -0.7136  1.0549
17445TIP3    H273827   5.496   6.253   2.991 -0.7984 -0.4089 -0.8282
17446TIP3   OH273828   2.638   2.893  14.115 -0.4289 -0.2682 -0.0190
17446TIP3    H173829   2.710   2.837  14.085  0.5265 -0.1054  1.8360
17446TIP3    H273830   2.579   2.834  14.162  0.3001  0.1374  1.4650
17447TIP3   OH273831   2.018   6.539  13.827 -0.3216  0.4393  0.2812
17447TIP3    H173832   2.103   6.523  13.869  0.0157 -0.5223 -0.7449
17447TIP3    H273833   1.968   6.459  13.842 -1.6638  1.5539  2.2236
17448TIP3   OH273834   6.052   3.307   2.628 -0.5687  0.3992 -0.9801
17448TIP3    H173835   6.049   3.282   2.535 -1.1831  0.8024 -1.0780
17448TIP3    H273836   6.144   3.298   2.652 -0.7356 -2.0107 -0.9843
17449TIP3   OH273837   0.676   5.482  16.632  0.1515 -0.9203  0.0406
17449TIP3    H173838   0.689   5.541  16.706 -0.8173 -1.3574  0.5681
17449TIP3    H273839   0.762   5.443  16.617  0.9414  0.9401 -0.6154
17450TIP3   OH273840   3.342   1.698  16.803  0.6555  0.3211  0.2249
17450TIP3    H173841   3.373   1.636  16.870 -0.1845 -1.5967 -1.0628
17450TIP3    H273842   3.353   1.651  16.720 -1.8451  1.1116 -0.6378
17451TIP3   OH273843   2.796   0.976  13.307 -0.3366  0.1224 -0.1656
17451TIP3    H173844   2.807   1.045  13.373 -0.3239  0.9873 -1.0402
17451TIP3    H273845   2.706   0.986  13.277 -0.0383  0.4072 -0.9900
17452TIP3   OH273846   0.282   4.900  16.484  0.4509 -0.2442  0.1626
17452TIP3    H173847   0.310   4.812  16.508 -0.5442 -0.5835  0.1191
17452TIP3    H273848   0.299   4.953  16.561  0.7764 -0.5337  0.2927
17453TIP3   OH273849   6.300   3.613  17.460 -0.3574 -0.2102 -0.4343
17453TIP3    H173850   6.372   3.670  17.487  0.5537 -1.1730 -0.7503
17453TIP3    H273851   6.314   3.532  17.510 -1.2683 -0.3892 -0.4516
17454TIP3   OH273852   1.051   4.125  16.343 -0.0450  0.0293 -0.0074
17454TIP3    H173853   1.137   4.163  16.327  0.6561 -1.7560 -0.8373
17454TIP3    H273854   1.070   4.033  16.364 -1.7266 -0.2818  0.2829
17455TIP3   OH273855   2.716   6.702   6.529 -0.6153  0.1604  0.0657
17455TIP3    H173856   2.749   6.760   6.598 -0.5937  2.2388 -1.5808
17455TIP3    H273857   2.784   6.704   6.461 -0.6894 -1.7230 -0.1159
17456TIP3   OH273858   0.141   3.623   4.999  0.0147  0.2483  0.4156
17456TIP3    H173859   0.113   3.692   5.060  1.7108  0.7421  0.6760
17456TIP3    H273860   0.061   3.573   4.981 -0.8187  1.0010  1.8738
17457TIP3   OH273861   4.057   2.786   3.240  0.3776 -0.0588  0.0301
17457TIP3    H173862   4.012   2.720   3.292 -2.2117  2.6922  1.6828
17457TIP3    H273863   4.135   2.807   3.291  0.4447 -0.8098  0.2483
17458TIP3   OH273864   4.256   5.113  11.498  0.5607  0.2951  0.0970
17458TIP3    H173865   4.313   5.072  11.563  0.9205 -1.1721 -1.0727
17458TIP3    H273866   4.315   5.138  11.427 -0.0224  0.3553 -0.3744
17459TIP3   OH273867   4.915   2.331  11.202  0.9126  0.3410  0.1851
17459TIP3    H173868   4.989   2.287  11.161  0.7763  0.8039 -0.5745
17459TIP3    H273869   4.849   2.337  11.134  0.3899  0.4499  0.6900
17460TIP3   OH273870   0.003   3.690   5.444 -0.0954 -0.3396  0.1123
17460TIP3    H173871   0.006   3.671   5.538  1.4725  3.1744  0.9435
17460TIP3    H273872  -0.087   3.720   5.429 -0.2204 -0.4379  0.6304
17461TIP3   OH273873   0.409   5.190   2.361  0.2382 -0.1592 -0.4858
17461TIP3    H173874   0.379   5.191   2.270 -0.4357 -0.8586 -0.2815
17461TIP3    H273875   0.360   5.118   2.402 -0.2559  0.8067  0.6913
17462TIP3   OH273876   2.302   5.196  17.008 -0.1009 -0.5830  0.2580
17462TIP3    H173877   2.337   5.222  16.923  1.2087 -0.2582  0.8604
17462TIP3    H273878   2.374   5.213  17.069 -1.7375  1.3346  1.7983
17463TIP3   OH273879   0.169   3.325  11.680  0.0087 -0.1513 -0.5921
17463TIP3    H173880   0.079   3.310  11.651 -0.3404 -0.9104  0.8223
17463TIP3    H273881   0.216   3.350  11.600 -0.9658 -1.8862 -1.7708
17464TIP3   OH273882   3.080   0.903   4.517  0.3022 -0.1308  0.2365
17464TIP3    H173883   3.107   0.984   4.559 -0.0513 -0.5407  1.2758
17464TIP3    H273884   3.071   0.926   4.424  4.3084  0.0394 -0.2965
17465TIP3   OH273885   6.051   1.233  16.265  0.6669  0.1628  0.2314
17465TIP3    H173886   6.054   1.328  16.271  0.2004  0.2360 -0.5635
17465TIP3    H273887   6.080   1.213  16.176 -0.9352 -0.3206 -0.2192
17466TIP3   OH273888   2.957   4.072   6.601  0.1374 -0.1389 -0.4072
17466TIP3    H173889   3.017   4.002   6.576 -0.3531 -0.5677 -0.4055
17466TIP3    H273890   2.911   4.038   6.678  1.1650  0.9045  0.7030
17467TIP3   OH273891   5.063   2.939  16.041  0.0751  0.1628 -0.0870
17467TIP3    H173892   4.996   3.007  16.043  0.4246  0.6499 -2.2730
17467TIP3    H273893   5.115   2.954  16.120 -1.0718  1.1581  0.4979
17468TIP3   OH273894   1.500   1.399  14.018  0.1851 -0.5151 -0.2329
17468TIP3    H173895   1.553   1.326  13.984  0.9711  0.3610 -0.9540
17468TIP3    H273896   1.420   1.396  13.966  0.5518 -0.3899 -0.8188
17469TIP3   OH273897   1.487   5.279   2.784 -0.0220  0.0362  0.3099
17469TIP3    H173898   1.424   5.207   2.777 -0.4754  0.4451  0.1913
17469TIP3    H273899   1.539   5.272   2.704  0.8503 -1.0117  0.9447
17470TIP3   OH273900   5.582   6.697   4.164 -0.2820  0.1879  0.4283
17470TIP3    H173901   5.612   6.654   4.084 -0.5583  0.1061  0.3645
17470TIP3    H273902   5.627   6.781   4.166 -0.4140  0.2661  0.0910
17471TIP3   OH273903   3.316   0.903   0.994  0.6200  0.1371 -0.2725
17471TIP3    H173904   3.256   0.896   0.920 -0.3142  3.1684  0.0611
17471TIP3    H273905   3.279   0.845   1.061 -0.9314  0.5904 -0.7128
17472TIP3   OH273906   3.803   5.342   0.674  0.0060 -0.4173  0.2268
17472TIP3    H173907   3.882   5.380   0.714  0.9643 -2.2721  0.2154
17472TIP3    H273908   3.785   5.264   0.726 -1.7746 -0.1146  0.1331
17473TIP3   OH273909   5.057   2.465   4.091  0.4599 -0.1286 -0.6449
17473TIP3    H173910   5.038   2.391   4.034 -0.0210 -1.2168  0.8655
17473TIP3    H273911   5.134   2.437   4.141  0.3912  0.4604 -0.2020
17474TIP3   OH273912   1.576   0.135  17.321 -0.2529  0.5132 -0.0770
17474TIP3    H173913   1.511   0.152  17.253  0.4244  0.9906 -0.6257
17474TIP3    H273914   1.550   0.051  17.359 -0.6029  0.2007 -0.9780
17475TIP3   OH273915   6.042   6.627  14.884  0.0803 -0.2227 -0.6416
17475TIP3    H173916   6.117   6.643  14.826 -0.4529 -0.3144 -1.3726
17475TIP3    H273917   5.977   6.585  14.828  0.2412 -2.0525  0.4512
17476TIP3   OH273918   1.879   2.434  15.239 -0.4951  0.1097  0.0141
17476TIP3    H173919   1.925   2.405  15.318 -0.7408  0.7521  0.3979
17476TIP3    H273920   1.835   2.515  15.265 -0.6254  0.2962 -0.7651
17477TIP3   OH273921   1.879   6.612   5.720 -0.0194  0.1094  0.5883
17477TIP3    H173922   1.907   6.697   5.755 -0.0504  0.2771  0.2077
17477TIP3    H273923   1.783   6.617   5.720 -0.0407 -0.2534  1.3713
17478TIP3   OH273924   2.637   3.392  16.492  1.0998  0.1394  0.2011
17478TIP3    H173925   2.635   3.434  16.406  0.1112 -0.0068  0.1441
17478TIP3    H273926   2.730   3.376  16.508  1.3863  1.2215 -0.3172
17479TIP3   OH273927   3.376   1.376   5.866 -0.2722 -0.1116 -0.0619
17479TIP3    H173928   3.446   1.399   5.927 -0.9811  2.2794 -0.0538
17479TIP3    H273929   3.412   1.394   5.780  0.2551 -2.1902 -0.3298
17480TIP3   OH273930   3.414   3.263  11.629  0.3748  0.0304  0.5039
17480TIP3    H173931   3.424   3.182  11.680  0.0007 -0.3351  0.0079
17480TIP3    H273932   3.405   3.331  11.695  4.2216  0.2365  1.0641
17481TIP3   OH273933   4.245   5.581   3.391  0.3960 -0.0549  0.2245
17481TIP3    H173934   4.294   5.623   3.320  1.7732  0.0408  1.1764
17481TIP3    H273935   4.258   5.487   3.377 -0.0080 -0.0616 -0.1038
17482TIP3   OH273936   1.374   6.260   3.691 -0.4084 -0.3406  0.0520
17482TIP3    H173937   1.391   6.216   3.608 -0.8232  1.5881 -1.1032
17482TIP3    H273938   1.294   6.218   3.724 -1.0692 -0.1638 -1.2499
17483TIP3   OH273939   1.982   1.085  17.266  0.3590  0.0502  0.1521
17483TIP3    H173940   1.911   1.028  17.239 -0.3299  1.5918 -1.5216
17483TIP3    H273941   1.978   1.086  17.361 -0.8033 -1.1869  0.1332
17484TIP3   OH273942   2.278   3.197   3.363  0.7668 -0.0528 -0.0696
17484TIP3    H173943   2.222   3.121   3.381 -1.0298  0.9947 -0.9224
17484TIP3    H273944   2.265   3.214   3.270  2.3409  0.3988 -0.2220
17485TIP3   OH273945   3.092   5.886   0.331  0.2710 -0.2433 -0.1708
17485TIP3    H173946   3.032   5.861   0.402  0.1948 -0.4969 -0.3207
17485TIP3    H273947   3.061   5.972   0.303 -0.4564 -0.6642 -0.6988
17486TIP3   OH273948   3.209   3.249   2.756  0.4434  0.3540  0.4301
17486TIP3    H173949   3.206   3.153   2.762 -1.4931  0.4230  1.3688
17486TIP3    H273950   3.294   3.267   2.716  1.0709 -1.7279  0.6497
17487TIP3   OH273951   2.356   0.156  12.097  0.3505  0.4031 -0.3986
17487TIP3    H173952   2.416   0.226  12.073  0.2527  0.7947  0.4534
17487TIP3    H273953   2.409   0.095  12.148  0.0508  0.7322  0.3249
17488TIP3   OH273954   2.942   2.475  11.533 -0.8357 -0.0361 -0.3371
17488TIP3    H173955   2.904   2.396  11.571 -0.3605  0.4819  1.2867
17488TIP3    H273956   3.029   2.449  11.503 -0.4084  0.0070  0.8219
17489TIP3   OH273957   0.185   5.581   5.988 -0.2573  0.3437 -0.3041
17489TIP3    H173958   0.217   5.495   5.959  0.1310  0.7045 -0.9884
17489TIP3    H273959   0.195   5.580   6.083 -0.3100 -0.3896 -0.2978
17490TIP3   OH273960   5.527   3.998   2.545 -0.1564  0.0118 -1.0013
17490TIP3    H173961   5.479   4.041   2.616 -0.0788 -1.0051 -0.3085
17490TIP3    H273962   5.619   4.002   2.572 -0.2730 -1.9086 -0.1489
17491TIP3   OH273963   0.996   1.382  11.418  0.4336  0.3759  0.9016
17491TIP3    H173964   1.015   1.295  11.453  0.1292 -0.4066 -0.7524
17491TIP3    H273965   0.974   1.366  11.326  1.5335  2.3381  0.2511
17492TIP3   OH273966   2.448   6.230  14.539  0.5787  0.4746  0.6094
17492TIP3    H173967   2.470   6.277  14.619  1.2931  0.0202  0.6844
17492TIP3    H273968   2.525   6.241  14.483  0.5664 -0.2298  0.4541
17493TIP3   OH273969   4.756   0.284   6.264 -0.2240  0.3518 -0.0601
17493TIP3    H173970   4.797   0.274   6.178 -1.4914  0.7041 -0.7261
17493TIP3    H273971   4.745   0.378   6.275 -2.5572  0.2338 -0.7719
17494TIP3   OH273972   2.327   5.993   4.057 -0.0953 -0.1307  0.0182
17494TIP3    H173973   2.382   6.018   4.131 -0.1999  2.0716 -0.5508
17494TIP3    H273974   2.358   6.049   3.985 -1.3971 -0.6652 -1.0007
17495TIP3   OH273975   1.815   4.359  11.502  0.3255 -0.9214 -0.4310
17495TIP3    H173976   1.786   4.295  11.567 -1.2651 -1.4990 -1.6653
17495TIP3    H273977   1.748   4.357  11.434 -0.3134  2.7310 -0.0925
17496TIP3   OH273978   2.280   1.835  12.291  0.4077  0.1625 -0.3846
17496TIP3    H173979   2.304   1.865  12.379  1.0081 -2.3035  0.3753
17496TIP3    H273980   2.185   1.846  12.286  0.2586 -0.4406  0.9021
17497TIP3   OH273981   2.271   6.599   5.188 -0.1280 -0.2621  0.1812
17497TIP3    H173982   2.366   6.614   5.181  0.0782 -1.6058 -0.2462
17497TIP3    H273983   2.248   6.554   5.107 -1.1635  0.1397  0.2425
17498TIP3   OH273984   4.802   3.507  12.106  0.2667 -0.6007 -0.2032
17498TIP3    H173985   4.803   3.509  12.201 -0.5298  0.0576 -0.1981
17498TIP3    H273986   4.816   3.598  12.079  2.3154 -1.0148 -0.7717
17499TIP3   OH273987   3.389   2.646   6.238 -0.4947 -0.5445 -0.0027
17499TIP3    H173988   3.382   2.572   6.297 -1.0037 -0.8573 -0.4446
17499TIP3    H273989   3.482   2.654   6.220 -0.0047  1.0257  2.6533
17500TIP3   OH273990   0.962   0.431  11.786 -0.4125  0.6723 -0.2901
17500TIP3    H173991   0.916   0.362  11.737  1.6656 -1.6299  0.8022
17500TIP3    H273992   0.949   0.408  11.878  1.8429  0.6216  0.0631
17501TIP3   OH273993   6.501   3.880   4.887 -0.1142 -0.6559 -0.1643
17501TIP3    H173994   6.452   3.885   4.805 -1.8093 -0.4960  0.8185
17501TIP3    H273995   6.444   3.921   4.952  1.0881 -0.9952  1.1577
17502TIP3   OH273996   5.037   1.810  13.498  0.5728  0.3613  0.0122
17502TIP3    H173997   5.111   1.757  13.526  0.5807  0.7956  0.8590
17502TIP3    H273998   4.989   1.828  13.579  0.0747  0.8811 -0.3894
17503TIP3   OH273999   3.396   4.300  11.598  0.4382 -0.3242  0.0682
17503TIP3    H174000   3.308   4.291  11.560  0.4015  1.1197 -0.2350
17503TIP3    H274001   3.381   4.303  11.693  0.1498 -0.0586  0.0161
17504TIP3   OH274002   0.303   6.364   0.688  0.6850 -0.2722 -0.5837
17504TIP3    H174003   0.350   6.289   0.651 -0.0198 -1.2223  0.3732
17504TIP3    H274004   0.357   6.440   0.667  1.9089 -1.1632 -0.7305
17505TIP3   OH274005   6.179   2.189   4.095  0.1957 -0.2825 -0.3297
17505TIP3    H174006   6.143   2.210   4.009 -0.2342 -1.1745 -0.3715
17505TIP3    H274007   6.104   2.192   4.154  0.3255 -0.6039 -0.1455
17506TIP3   OH274008   3.566   3.649  14.699  0.0641  0.3153 -0.4334
17506TIP3    H174009   3.588   3.707  14.626 -1.3344  2.0579  0.4444
17506TIP3    H274010   3.574   3.704  14.777  0.9774 -1.3485  0.7036
17507TIP3   OH274011   1.976   5.114  14.720 -0.4127  0.0462 -0.2762
17507TIP3    H174012   1.884   5.110  14.746 -0.2344  0.1010  0.3854
17507TIP3    H274013   1.984   5.050  14.649 -0.6389 -1.0601  0.6745
17508TIP3   OH274014   3.987   0.326   3.624 -0.5328 -0.2191  0.3141
17508TIP3    H174015   3.971   0.317   3.530  0.5509 -2.6060  0.2962
17508TIP3    H274016   3.931   0.259   3.664  2.1551 -2.2244  0.9592
17509TIP3   OH274017   2.083   2.983  12.370  0.5298  0.9378  0.3495
17509TIP3    H174018   2.014   2.999  12.434 -1.0366  0.0804 -1.0557
17509TIP3    H274019   2.079   2.889  12.354 -0.4432  1.3602 -2.3799
17510TIP3   OH274020   3.921   4.761  13.445  0.6374  0.4374 -0.1965
17510TIP3    H174021   3.996   4.820  13.444 -0.2701  1.6175 -0.1885
17510TIP3    H274022   3.866   4.790  13.372 -0.2296  0.1585  0.3247
17511TIP3   OH274023   6.172   5.143   4.298  0.1844 -0.1947 -0.1564
17511TIP3    H174024   6.241   5.104   4.350  0.1837 -0.7248 -0.5449
17511TIP3    H274025   6.153   5.078   4.230  1.6060  1.2926 -2.0830
17512TIP3   OH274026   2.786   5.891   2.484 -0.5164  0.5414  1.4069
17512TIP3    H174027   2.879   5.872   2.475 -0.2010  1.7834  1.8012
17512TIP3    H274028   2.752   5.819   2.537  0.4772  0.7080  2.3095
17513TIP3   OH274029   1.962   3.207  15.969 -0.3626 -0.2769 -0.2334
17513TIP3    H174030   1.994   3.236  16.055  0.7666 -3.1187  0.4126
17513TIP3    H274031   1.894   3.143  15.989  0.5194 -1.6336 -1.3991
17514TIP3   OH274032   3.856   5.880   4.196  0.1273 -0.2911 -0.1310
17514TIP3    H174033   3.945   5.900   4.166 -0.0585  2.4105  0.7863
17514TIP3    H274034   3.867   5.848   4.286  0.1684  0.9810  0.3390
17515TIP3   OH274035   0.217   6.752  17.309 -0.8678 -0.0112 -0.5910
17515TIP3    H174036   0.270   6.778  17.233  0.6915  1.6309  0.9449
17515TIP3    H274037   0.168   6.831  17.332 -0.2964 -0.0629  0.8864
17516TIP3   OH274038   3.131   4.368   0.171  0.1030 -0.3815  0.1049
17516TIP3    H174039   3.150   4.274   0.170  0.8709 -0.2416 -1.5042
17516TIP3    H274040   3.036   4.373   0.178  0.1051 -1.2505  0.9825
17517TIP3   OH274041   6.125   3.892  13.627 -0.3101  0.2290 -0.1391
17517TIP3    H174042   6.181   3.821  13.596 -0.8044  0.4093 -1.4768
17517TIP3    H274043   6.062   3.850  13.686 -0.6140 -0.4495 -0.9445
17518TIP3   OH274044   6.747   4.752  14.229 -0.6923 -0.1376  0.4959
17518TIP3    H174045   6.682   4.819  14.250  0.5324  1.0282  0.6689
17518TIP3    H274046   6.800   4.790  14.160 -0.6485 -1.3872 -0.1958
17519TIP3   OH274047   0.348   4.316  16.814 -0.3459  0.5004 -0.5529
17519TIP3    H174048   0.288   4.371  16.764 -0.2328  0.4489 -0.7461
17519TIP3    H274049   0.322   4.329  16.905  1.7014  3.3984 -0.2531
17520TIP3   OH274050   3.095   4.232   5.207  0.1220 -0.4901  0.5875
17520TIP3    H174051   3.051   4.316   5.209  0.2951 -0.1823 -2.7634
17520TIP3    H274052   3.164   4.239   5.272 -1.2471  1.0809  1.9456
17521TIP3   OH274053   5.000   6.332  11.193 -0.1372 -0.0930 -0.1339
17521TIP3    H174054   4.939   6.260  11.177  0.2653 -0.6916  0.8893
17521TIP3    H274055   5.087   6.292  11.184  0.1258  0.7097 -1.4179
17522TIP3   OH274056   3.793   3.365   1.003 -0.0699 -0.5869  0.0774
17522TIP3    H174057   3.742   3.288   0.980 -1.4707  0.4631 -0.5264
17522TIP3    H274058   3.878   3.331   1.032  0.5609 -2.1963 -3.2498
17523TIP3   OH274059   0.896   5.541   4.142 -0.5326 -0.3075  0.3459
17523TIP3    H174060   0.960   5.612   4.140 -0.5761 -0.2787 -0.5802
17523TIP3    H274061   0.881   5.524   4.235  0.3413  0.1133  0.5711
17524TIP3   OH274062   4.080   2.442   1.854  0.1589  0.2249  0.3648
17524TIP3    H174063   4.116   2.491   1.928 -0.1306  0.3284  0.4356
17524TIP3    H274064   4.145   2.374   1.837 -0.6127 -0.9363  1.8703
17525TIP3   OH274065   4.281   4.237  15.092  0.3771  0.1528 -0.5090
17525TIP3    H174066   4.277   4.195  15.177  1.3286 -0.9206 -0.9650
17525TIP3    H274067   4.337   4.180  15.039 -1.0377  0.2066 -2.1782
17526TIP3   OH274068   1.343   0.594  14.976 -0.3731  0.8860 -0.0919
17526TIP3    H174069   1.418   0.545  14.942 -1.5932 -0.7033 -0.6118
17526TIP3    H274070   1.336   0.567  15.068  0.4072  1.9926  0.3167
17527TIP3   OH274071   1.288   2.400  16.104 -0.0852  0.2797 -1.0397
17527TIP3    H174072   1.303   2.443  16.188 -0.3865 -1.0726 -0.2720
17527TIP3    H274073   1.202   2.432  16.076 -0.5458 -0.2115 -0.2234
17528TIP3   OH274074   0.144   4.317  13.442  0.2272  0.3372  0.6538
17528TIP3    H174075   0.085   4.392  13.441 -0.2948 -0.0762 -0.1391
17528TIP3    H274076   0.111   4.259  13.373  0.0932 -1.0267  1.8105
17529TIP3   OH274077   2.256   2.052   4.481  0.3736 -0.3742 -0.2183
17529TIP3    H174078   2.342   2.078   4.516  0.6932  0.9313 -1.8534
17529TIP3    H274079   2.193   2.085   4.545  0.9945  0.8652 -0.2065
17530TIP3   OH274080   3.309   2.775   1.539  0.5850 -0.1703  0.3237
17530TIP3    H174081   3.342   2.836   1.605  2.6575 -1.9085  1.0231
17530TIP3    H274082   3.269   2.705   1.589  0.4510 -0.5814 -0.3424
17531TIP3   OH274083   2.737   1.475  14.835  0.0519  0.4607  0.5121
17531TIP3    H174084   2.651   1.440  14.856 -0.0852  1.3076  1.4519
17531TIP3    H274085   2.797   1.402  14.849 -0.3334  0.3267  1.5234
17532TIP3   OH274086   0.049   0.192  15.489 -0.1406  0.0116 -0.1517
17532TIP3    H174087  -0.030   0.139  15.489 -0.0552 -0.2024  1.7238
17532TIP3    H274088   0.059   0.220  15.580  1.0750  1.3577 -0.6535
17533TIP3   OH274089   5.696   4.333  16.640  0.0754  0.0068 -0.1709
17533TIP3    H174090   5.732   4.349  16.727 -0.1759  1.1317 -0.2631
17533TIP3    H274091   5.627   4.399  16.630 -2.1126 -2.0897  0.0405
17534TIP3   OH274092   5.693   0.093   4.502  0.3248 -0.0568 -0.3203
17534TIP3    H174093   5.601   0.091   4.477  0.1506 -1.7084  0.3392
17534TIP3    H274094   5.701   0.171   4.558 -1.2138 -1.1319  1.4905
17535TIP3   OH274095   5.485   4.667   2.555  0.1517 -0.3225  0.3943
17535TIP3    H174096   5.464   4.629   2.470  0.9946 -1.9025  0.8591
17535TIP3    H274097   5.568   4.628   2.579  1.2653  2.0897  0.7956
17536TIP3   OH274098   0.196   6.292   2.666  0.1683 -0.5082 -0.1080
17536TIP3    H174099   0.129   6.298   2.599  0.9715  0.4686 -0.8542
17536TIP3    H274100   0.178   6.366   2.725  1.2539  0.5148 -0.9869
17537TIP3   OH274101   6.652   4.186   0.355  0.4704  0.8048  0.1150
17537TIP3    H174102   6.747   4.184   0.345  0.2848  0.1456 -2.0096
17537TIP3    H274103   6.621   4.109   0.307 -1.1343  0.9968  0.7857
17538TIP3   OH274104   0.354   1.804  11.241 -0.3420  0.3454  0.3132
17538TIP3    H174105   0.326   1.896  11.241 -2.1876 -0.1887  0.1868
17538TIP3    H274106   0.443   1.807  11.276 -0.2826  2.2020  0.1158
17539TIP3   OH274107   2.234   1.770   3.333  0.1659  0.0879 -0.5596
17539TIP3    H174108   2.164   1.724   3.287  1.9757 -1.9377 -1.4655
17539TIP3    H274109   2.227   1.861   3.305 -2.0561 -0.0734 -0.6289
17540TIP3   OH274110   0.643   1.281   6.010  0.2472  0.6810 -0.1829
17540TIP3    H174111   0.653   1.197   6.054  3.1909  1.8103  1.5686
17540TIP3    H274112   0.673   1.264   5.920  0.7674 -0.1570  0.1346
17541TIP3   OH274113   0.808   1.703   3.010 -0.2503 -0.1034  0.1109
17541TIP3    H174114   0.745   1.709   2.938 -0.7878 -0.1451  0.5659
17541TIP3    H274115   0.806   1.610   3.035 -2.0739  0.3376  1.9046
17542TIP3   OH274116   3.211   1.138  13.285 -0.1836 -0.2451 -0.1429
17542TIP3    H174117   3.289   1.193  13.290 -0.6456  0.3518  2.8909
17542TIP3    H274118   3.212   1.089  13.367 -2.5988 -0.7522 -0.3516
17543TIP3   OH274119   6.032   6.534   5.838 -0.1577  0.0597  0.0072
17543TIP3    H174120   5.937   6.537   5.845 -0.0578  0.1241  2.1018
17543TIP3    H274121   6.056   6.451   5.881  0.7773  0.6175  0.6075
17544TIP3   OH274122   3.028   2.330  17.442  0.1820  0.4278 -0.0420
17544TIP3    H174123   3.064   2.408  17.485 -0.4595  1.9018 -2.0266
17544TIP3    H274124   2.957   2.301  17.499  0.7118  1.0061  0.9399
17545TIP3   OH274125   3.644   6.739  14.637  0.1285 -0.3280  0.3396
17545TIP3    H174126   3.581   6.697  14.695 -0.1785  0.6009  0.6891
17545TIP3    H274127   3.638   6.690  14.555 -1.4813  0.1038  0.1716
17546TIP3   OH274128   5.041   2.309  11.733  0.1115  0.2053 -0.2017
17546TIP3    H174129   5.060   2.266  11.649 -0.3976  3.0140 -1.8768
17546TIP3    H274130   4.946   2.317  11.734 -0.0319 -1.1023  1.4272
17547TIP3   OH274131   5.194   1.734  14.466  0.0182 -0.5188 -0.1243
17547TIP3    H174132   5.283   1.768  14.468 -0.4792  0.8396  0.4114
17547TIP3    H274133   5.139   1.812  14.467 -1.1809 -1.3454  0.3278
17548TIP3   OH274134   5.122   3.932   3.118 -0.4674  0.2953 -0.0827
17548TIP3    H174135   5.072   4.005   3.083 -0.0677  0.5058 -0.2286
17548TIP3    H274136   5.086   3.855   3.074  1.3367  0.7213 -2.5858
17549TIP3   OH274137   3.062   0.286  13.774  0.1852  0.1983 -0.0402
17549TIP3    H174138   3.003   0.358  13.792 -1.2066 -1.4217  2.5093
17549TIP3    H274139   3.008   0.220  13.731  0.7923 -0.2826 -0.0936
17550TIP3   OH274140   0.608   0.868  11.813 -0.0558  0.2318  0.4836
17550TIP3    H174141   0.601   0.880  11.908 -0.4285  0.9939  0.3664
17550TIP3    H274142   0.698   0.839  11.799 -0.0151  0.0582  1.0708
17551TIP3   OH274143   2.482   1.716  14.987  0.1535  0.1163 -0.1692
17551TIP3    H174144   2.573   1.697  14.963  0.1902 -0.6329  0.5180
17551TIP3    H274145   2.444   1.631  15.007 -1.0140  0.3081 -1.4391
17552TIP3   OH274146   3.896   6.647   1.043 -0.7552 -0.1016 -0.1194
17552TIP3    H174147   3.801   6.655   1.052 -0.6842 -0.0718  0.7075
17552TIP3    H274148   3.931   6.724   1.089 -0.3021 -0.8181  0.7782
17553TIP3   OH274149   4.841   4.130   6.119 -0.2265 -0.1367 -0.5476
17553TIP3    H174150   4.816   4.055   6.066  1.0560 -1.0819  0.1341
17553TIP3    H274151   4.890   4.093   6.192  0.2498  1.3463 -0.0742
17554TIP3   OH274152   3.825   4.117   6.337  0.3849  0.5146 -0.1792
17554TIP3    H174153   3.896   4.132   6.275  0.1097 -0.4045 -0.7319
17554TIP3    H274154   3.859   4.149   6.421  1.4208  0.1351 -0.4434
17555TIP3   OH274155   6.008   4.015   4.139  0.3452 -0.2060  0.2217
17555TIP3    H174156   6.081   3.965   4.102  0.7807 -0.5051  1.4427
17555TIP3    H274157   5.990   3.974   4.224  0.2051  1.2142  0.9233
17556TIP3   OH274158   1.615   3.400  16.820  0.0503  0.9167  0.7978
17556TIP3    H174159   1.661   3.470  16.774  1.5975 -0.2185  0.5400
17556TIP3    H274160   1.660   3.320  16.793 -1.9126 -0.2363  0.7953
17557TIP3   OH274161   2.319   2.302   6.566 -0.9340 -0.2473  0.2255
17557TIP3    H174162   2.259   2.307   6.641 -1.5657  0.7182 -0.3153
17557TIP3    H274163   2.335   2.394   6.543  0.7963 -0.4824  0.3730
17558TIP3   OH274164   5.561   3.154  15.333 -0.4094 -0.1794  0.2077
17558TIP3    H174165   5.634   3.167  15.393 -0.5666  0.7366  0.2235
17558TIP3    H274166   5.565   3.229  15.273  0.1686 -1.4331 -1.3953
17559TIP3   OH274167   6.264   3.799  14.015 -0.4116  0.3140  0.2113
17559TIP3    H174168   6.204   3.869  13.990 -0.5521 -0.4825 -1.9307
17559TIP3    H274169   6.334   3.802  13.949  0.1740 -0.8203  0.7435
17560TIP3   OH274170   1.975   2.522   2.958  0.0552 -0.9228 -0.3717
17560TIP3    H174171   1.938   2.604   2.927 -0.7434 -1.0289  0.2841
17560TIP3    H274172   2.068   2.527   2.934  0.3096  0.7444  0.8173
17561TIP3   OH274173   2.137   4.329  13.783 -0.6208  0.3927  0.0485
17561TIP3    H174174   2.051   4.285  13.779  0.8507 -2.8903  0.8995
17561TIP3    H274175   2.187   4.276  13.845  1.7685  2.7628  0.2853
17562TIP3   OH274176   4.649   6.467   5.282  0.0818 -0.0280 -0.0652
17562TIP3    H174177   4.657   6.372   5.295 -0.6857 -0.1662 -0.5915
17562TIP3    H274178   4.672   6.480   5.190 -0.4944  0.2189 -0.1712
17563TIP3   OH274179   6.110   3.937  12.055 -0.6548 -0.6647 -0.2767
17563TIP3    H174180   6.176   3.870  12.039  0.6637  0.3651  0.5911
17563TIP3    H274181   6.150   4.019  12.026 -0.7805  0.2519  1.9100
17564TIP3   OH274182   5.991   5.468   0.819  0.6747 -0.3917  0.1072
17564TIP3    H174183   5.989   5.443   0.727 -0.2905  1.1497 -0.3265
17564TIP3    H274184   6.057   5.410   0.858  0.4444 -1.6908 -1.3422
17565TIP3   OH274185   5.239   2.725   4.096  0.2819  0.3082  0.3634
17565TIP3    H174186   5.249   2.637   4.131 -1.5449 -0.7959 -1.6367
17565TIP3    H274187   5.329   2.757   4.086  0.9432 -0.8248  2.2360
17566TIP3   OH274188   5.217   3.511  15.610  0.3309 -0.3452  0.0159
17566TIP3    H174189   5.253   3.600  15.610 -0.7682  0.1283  0.8849
17566TIP3    H274190   5.176   3.502  15.524 -1.6616  0.9423  0.7310
17567TIP3   OH274191   1.375   3.282   0.140 -0.0804 -0.1842 -0.1787
17567TIP3    H174192   1.376   3.193   0.105  0.4146 -0.6461  0.9656
17567TIP3    H274193   1.386   3.271   0.235 -1.8017  1.0111  0.1963
17568TIP3   OH274194   5.911   0.532  14.742  0.7952 -0.3100 -0.1085
17568TIP3    H174195   5.854   0.491  14.807 -1.3755  3.1970  0.4701
17568TIP3    H274196   5.934   0.461  14.682 -1.4712 -2.6001  1.5168
17569TIP3   OH274197   0.168   0.668  14.549 -0.0678 -0.1311  0.1172
17569TIP3    H174198   0.123   0.686  14.632 -0.4165 -0.6271  0.0436
17569TIP3    H274199   0.098   0.638  14.490  0.2975 -0.5268 -0.1208
17570TIP3   OH274200   0.362   1.127   3.858  0.0196 -0.1501  0.6681
17570TIP3    H174201   0.347   1.100   3.767  1.2954  0.1510  0.3579
17570TIP3    H274202   0.445   1.174   3.856  0.3030 -0.5459  2.0810
17571TIP3   OH274203   2.676   6.112  13.185  0.0354  0.7826  0.1239
17571TIP3    H174204   2.701   6.036  13.237 -1.0356  0.6759  0.5198
17571TIP3    H274205   2.586   6.094  13.158 -0.0053  1.6115 -0.3413
17572TIP3   OH274206   3.665   0.040   6.409  0.0196  0.4732 -0.3638
17572TIP3    H174207   3.583   0.020   6.454 -0.7046 -2.3562 -2.6540
17572TIP3    H274208   3.733   0.019   6.474 -1.0280 -1.1444  0.2890
17573TIP3   OH274209   3.702   0.603  15.243 -0.6427  0.0110  0.1974
17573TIP3    H174210   3.725   0.511  15.244 -0.9178 -0.0841 -0.9358
17573TIP3    H274211   3.607   0.604  15.259 -0.7261  0.0643 -0.3035
17574TIP3   OH274212   0.668   0.853   3.750 -0.3086  0.4454 -0.3341
17574TIP3    H174213   0.630   0.862   3.838  2.0039  0.2431  0.7845
17574TIP3    H274214   0.618   0.914   3.696 -0.7594  1.8459  1.5194
17575TIP3   OH274215   1.795   0.249  11.594  0.3679  0.3515 -0.0569
17575TIP3    H174216   1.853   0.187  11.637 -0.0493 -0.3727 -0.5259
17575TIP3    H274217   1.777   0.316  11.660  1.4768  0.4182  0.1902
17576TIP3   OH274218   2.118   2.332   4.810  0.3574 -0.4966  0.0710
17576TIP3    H174219   2.104   2.242   4.779 -1.1470 -0.2982  0.0821
17576TIP3    H274220   2.061   2.339   4.887  2.0039 -0.1406  1.3036
17577TIP3   OH274221   3.637   2.703   3.276 -0.8640  0.0135  0.0814
17577TIP3    H174222   3.698   2.630   3.263 -0.8434  0.1347 -0.5322
17577TIP3    H274223   3.694   2.781   3.279 -1.0356  0.2137 -1.2870
17578TIP3   OH274224   2.122   0.163  15.336 -0.0127 -0.1042 -0.4802
17578TIP3    H174225   2.077   0.081  15.357  0.1071  0.0676  0.4783
17578TIP3    H274226   2.186   0.138  15.269  1.2478 -1.1806  1.0374
17579TIP3   OH274227   2.558   5.284   1.581 -0.0540  0.5186 -0.4619
17579TIP3    H174228   2.529   5.307   1.669  0.1684 -0.6974 -0.0555
17579TIP3    H274229   2.610   5.360   1.553 -0.5450  1.1314  0.2482
17580TIP3   OH274230   3.502   6.499   1.069  0.6798  0.2742  0.0195
17580TIP3    H174231   3.414   6.467   1.086  0.7516  0.7151  1.3326
17580TIP3    H274232   3.543   6.430   1.017 -0.5866  0.2908 -1.0296
17581TIP3   OH274233   4.100   3.992  11.914  0.6647  0.0823  0.3305
17581TIP3    H174234   4.185   3.950  11.896  0.1708 -1.6365  1.7001
17581TIP3    H274235   4.071   4.024  11.828  2.5602  0.4798 -0.2105
17582TIP3   OH274236   2.019   5.619  12.803  0.2296  0.2274 -0.5922
17582TIP3    H174237   2.049   5.633  12.713  0.9538 -2.6685 -0.8880
17582TIP3    H274238   1.927   5.594  12.794 -0.1988  1.6190 -0.3319
17583TIP3   OH274239   3.051   2.522  17.108 -0.2964 -0.1481  0.4051
17583TIP3    H174240   3.091   2.519  17.022 -3.3564 -2.9012 -1.1519
17583TIP3    H274241   3.122   2.547  17.167  3.3812 -3.2560 -2.1917
17584TIP3   OH274242   2.946   2.553  13.613  0.2896 -0.2895 -0.0841
17584TIP3    H174243   3.038   2.570  13.594  0.0695 -0.0323 -0.9218
17584TIP3    H274244   2.898   2.620  13.565 -0.4999 -2.2847 -2.2366
17585TIP3   OH274245   2.976   6.190  13.825 -0.3919 -0.5970  0.1574
17585TIP3    H174246   2.979   6.255  13.754  0.0432  0.2615  0.9349
17585TIP3    H274247   3.028   6.117  13.793  1.4054  0.5502  0.3029
17586TIP3   OH274248   6.096   2.960   1.910 -0.1345 -0.1958 -0.7167
17586TIP3    H174249   6.078   2.935   1.820  1.4898 -2.4688 -0.4937
17586TIP3    H274250   6.144   3.042   1.903  0.7802 -0.8041 -2.0090
17587TIP3   OH274251   3.237   5.278   0.197  0.0363 -0.2016 -0.0326
17587TIP3    H174252   3.261   5.307   0.285 -1.3196 -0.1721  0.3548
17587TIP3    H274253   3.157   5.226   0.210 -1.0656  1.0672 -1.3921
17588TIP3   OH274254   0.109   3.514   6.619 -0.2292 -0.3969 -0.2677
17588TIP3    H174255   0.037   3.500   6.680 -0.2124 -1.7095 -0.5168
17588TIP3    H274256   0.113   3.434   6.568  0.4521  0.2555 -1.2769
17589TIP3   OH274257   0.412   6.172   1.245 -0.4195  0.3170 -0.2650
17589TIP3    H174258   0.495   6.219   1.258 -1.5755  2.7448 -1.1942
17589TIP3    H274259   0.416   6.141   1.155 -0.3838  0.1113 -0.1935
17590TIP3   OH274260   3.694   2.399   3.626 -0.0991  0.3183  0.1546
17590TIP3    H174261   3.620   2.445   3.666  1.9402  1.5056  2.8195
17590TIP3    H274262   3.681   2.307   3.650 -0.4796  0.5775  0.9555
17591TIP3   OH274263   6.750   0.527   4.945  0.3484 -0.3586 -0.1942
17591TIP3    H174264   6.806   0.604   4.937 -1.4535  1.0476 -0.0041
17591TIP3    H274265   6.702   0.523   4.862 -0.6332 -0.3721  0.3540
17592TIP3   OH274266   2.115   0.367  15.776  0.2809 -0.2532  0.3099
17592TIP3    H174267   2.189   0.321  15.736  1.3357  0.6546  1.1303
17592TIP3    H274268   2.155   0.422  15.843 -1.1884  0.0717  0.9572
17593TIP3   OH274269   1.876   0.790  15.837 -0.3695 -0.1808  0.1856
17593TIP3    H174270   1.829   0.837  15.768  0.7848 -1.2597 -1.4275
17593TIP3    H274271   1.872   0.698  15.809  0.5518 -0.5795  1.3037
17594TIP3   OH274272   1.645   2.840   4.973 -0.4004 -1.1183  0.0886
17594TIP3    H174273   1.569   2.829   5.030 -1.0786  2.1462 -0.0426
17594TIP3    H274274   1.698   2.907   5.015  2.1617 -2.7878 -0.2002
17595TIP3   OH274275   1.294   5.231  11.401  0.1174 -0.0314  0.0462
17595TIP3    H174276   1.229   5.205  11.336 -0.6626  2.6823 -0.3905
17595TIP3    H274277   1.272   5.180  11.479 -0.7911 -1.1511 -0.9062
17596TIP3   OH274278   5.587   0.610   2.692  0.2012 -0.1637  0.9161
17596TIP3    H174279   5.537   0.678   2.738  1.0234  1.5665 -0.6379
17596TIP3    H274280   5.521   0.544   2.668 -1.1503  1.4107  0.1029
17597TIP3   OH274281   3.815   4.296  17.080  0.4100 -0.1781 -0.5086
17597TIP3    H174282   3.776   4.322  17.163 -0.6951 -0.3350 -0.9609
17597TIP3    H274283   3.840   4.379  17.038 -1.8927  0.1716 -1.3632
17598TIP3   OH274284   3.051   3.441  13.338 -0.3389 -0.0740 -0.4760
17598TIP3    H174285   3.107   3.364  13.331  1.7404  1.3497 -0.5423
17598TIP3    H274286   2.964   3.406  13.359  0.5260 -2.4024 -0.4633
17599TIP3   OH274287   5.044   2.542  14.549  0.0852  0.6128 -0.1113
17599TIP3    H174288   4.974   2.583  14.497 -1.9893 -1.4526  0.8963
17599TIP3    H274289   4.999   2.505  14.624  2.8784  2.9808  3.0376
17600TIP3   OH274290   4.729   4.858  12.153  0.3463 -0.5298  0.0331
17600TIP3    H174291   4.728   4.829  12.061 -0.9541  0.2621 -0.2155
17600TIP3    H274292   4.653   4.915  12.161  1.6192  1.0916  1.0816
17601TIP3   OH274293   4.802   3.316   3.394  0.2451  0.1584  0.2315
17601TIP3    H174294   4.759   3.397   3.422 -1.5557 -1.0971  1.2328
17601TIP3    H274295   4.875   3.306   3.455  0.3249  0.8851  0.2644
17602TIP3   OH274296   0.896   5.226  15.218 -0.2115  0.0518 -0.6216
17602TIP3    H174297   0.924   5.192  15.303  1.9402 -0.6360 -1.5491
17602TIP3    H274298   0.822   5.283  15.238 -0.2812 -0.7354  1.6097
17603TIP3   OH274299   0.198   3.982  13.726  0.0137 -0.6450  0.6874
17603TIP3    H174300   0.132   3.931  13.772 -0.5287 -0.5279  0.0544
17603TIP3    H274301   0.164   3.989  13.637 -0.1577  1.2292  0.8736
17604TIP3   OH274302   1.640   1.313   1.444 -0.4042 -0.5363  0.2962
17604TIP3    H174303   1.607   1.402   1.451 -1.2468 -0.9179  1.4129
17604TIP3    H274304   1.576   1.267   1.390 -0.6597 -0.7831  0.8029
17605TIP3   OH274305   2.737   2.383  13.030  0.0022 -0.3835 -0.0929
17605TIP3    H174306   2.826   2.401  12.999  0.3869  0.3512  1.3447
17605TIP3    H274307   2.726   2.289  13.020  1.2452 -0.6007  0.4654
17606TIP3   OH274308   2.617   1.434  11.475  0.4495 -0.2343  0.5815
17606TIP3    H174309   2.643   1.409  11.387 -1.6971  1.2911 -0.5882
17606TIP3    H274310   2.605   1.351  11.521 -0.3187 -1.1596 -1.1921
17607TIP3   OH274311   0.279   4.873  11.880 -0.7594 -0.3108  0.0019
17607TIP3    H174312   0.227   4.918  11.814 -2.3929  0.1094  1.4986
17607TIP3    H274313   0.356   4.928  11.891 -1.1953  0.4219 -0.4677
17608TIP3   OH274314   5.882   0.080   6.813 -0.1367 -0.0745 -0.1364
17608TIP3    H174315   5.856   0.018   6.880 -0.6762  0.4104  0.1155
17608TIP3    H274316   5.804   0.090   6.758  0.5955 -1.2360 -1.4600
17609TIP3   OH274317   1.700   0.288  10.652  0.4276 -0.1773 -0.1349
17609TIP3    H174318   1.617   0.334  10.648 -0.8885 -2.2305  1.5419
17609TIP3    H274319   1.713   0.254  10.563  0.6034  1.8984 -0.9574
17610TIP3   OH274320   4.582   1.494   2.753  0.0958  0.1085  0.0600
17610TIP3    H174321   4.622   1.560   2.696  1.5381 -0.1061  0.7744
17610TIP3    H274322   4.565   1.420   2.694 -1.4137  1.0313 -0.7178
17611TIP3   OH274323   2.331   3.312   0.583  0.2595  0.2361  0.3211
17611TIP3    H174324   2.322   3.380   0.650 -1.2376  1.2360 -0.8571
17611TIP3    H274325   2.418   3.327   0.546 -0.0878  1.5805  0.0088
17612TIP3   OH274326   0.811   0.695   3.344  0.2475 -0.5645 -0.2637
17612TIP3    H174327   0.886   0.754   3.344  2.0031 -2.6424 -0.9546
17612TIP3    H274328   0.842   0.617   3.298 -1.9492 -2.0257  0.5482
17613TIP3   OH274329   3.807   5.767   2.895  0.0967  0.3740  0.1699
17613TIP3    H174330   3.881   5.714   2.864 -0.3958 -0.9551  1.1624
17613TIP3    H274331   3.848   5.845   2.933  0.9571 -0.0144  0.0722
17614TIP3   OH274332   3.627   5.803  13.320  0.2261  0.0971 -0.2794
17614TIP3    H174333   3.718   5.832  13.325 -0.5004  2.5170  0.2588
17614TIP3    H274334   3.591   5.821  13.407 -0.6543 -1.3268 -0.3133
17615TIP3   OH274335   1.695   4.986   4.024 -0.1699  0.1760  0.9173
17615TIP3    H174336   1.607   4.950   4.012 -0.6839  1.2876  1.2488
17615TIP3    H274337   1.681   5.069   4.070  1.0724  0.2519  1.1868
17616TIP3   OH274338   0.252   1.781   0.528  0.1312  0.2223  0.1802
17616TIP3    H174339   0.169   1.810   0.491  1.1049  2.1043 -0.6282
17616TIP3    H274340   0.296   1.736   0.455 -0.5559 -1.6985  0.8909
17617TIP3   OH274341   1.555   0.975  17.235 -0.6929  0.2600  0.2776
17617TIP3    H174342   1.624   0.917  17.203 -0.6558  0.1601  0.5375
17617TIP3    H274343   1.601   1.040  17.288 -0.7960  0.2054  0.4342
17618TIP3   OH274344   5.598   6.371  12.062 -0.2109  0.0916 -0.0430
17618TIP3    H174345   5.656   6.301  12.093  0.2233  0.5853  0.2714
17618TIP3    H274346   5.638   6.402  11.981 -0.5765 -0.2360 -0.3518
17619TIP3   OH274347   4.411   1.359   1.635 -0.9329 -0.5105  0.2177
17619TIP3    H174348   4.425   1.429   1.571 -0.6682 -1.0036 -0.2732
17619TIP3    H274349   4.480   1.372   1.700 -0.6016 -0.5947 -0.1177
17620TIP3   OH274350   3.824   0.484  11.105  0.1894  0.2966 -0.3282
17620TIP3    H174351   3.817   0.402  11.055 -0.1232  0.6706 -0.9178
17620TIP3    H274352   3.909   0.521  11.079  1.2464 -0.7668  1.4141
17621TIP3   OH274353   3.876   1.155   6.221  0.3981  0.4879 -0.2633
17621TIP3    H174354   3.864   1.097   6.297  0.3395  1.9354  0.8741
17621TIP3    H274355   3.794   1.147   6.172  0.0697  0.2101  0.3147
17622TIP3   OH274356   1.369   6.089   5.356  0.1109 -0.3710 -0.2707
17622TIP3    H174357   1.295   6.032   5.337  0.4242 -0.9322  0.1741
17622TIP3    H274358   1.394   6.125   5.271  0.6144 -1.7568 -0.7313
17623TIP3   OH274359   1.015   0.348  16.140 -0.5448 -0.6791 -0.4506
17623TIP3    H174360   0.990   0.267  16.096 -2.2610 -0.0562 -0.6808
17623TIP3    H274361   0.934   0.382  16.177  0.0325  1.2285 -0.8174
17624TIP3   OH274362   6.448   3.820  17.254  0.0771 -0.0262  0.7214
17624TIP3    H174363   6.402   3.751  17.303  1.8823 -1.1442  0.9411
17624TIP3    H274364   6.493   3.773  17.184  0.7585  1.0408  0.4255
17625TIP3   OH274365   3.583   6.658  12.153 -0.4465 -0.1275 -0.7547
17625TIP3    H174366   3.604   6.749  12.133 -1.3475  0.1830 -0.3314
17625TIP3    H274367   3.492   6.647  12.126 -1.1217 -0.2175  1.3289
17626TIP3   OH274368   4.415   1.233  13.564 -0.1542 -0.1795 -0.4463
17626TIP3    H174369   4.457   1.158  13.522 -1.4564 -0.6678 -0.9426
17626TIP3    H274370   4.396   1.294  13.492 -0.4226 -0.0365 -0.2595
17627TIP3   OH274371   0.622   0.576   0.641  0.2587 -0.1290 -0.8419
17627TIP3    H174372   0.620   0.593   0.547  0.5918  0.2322 -0.7871
17627TIP3    H274373   0.532   0.591   0.670  0.4871  1.3689 -0.8292
17628TIP3   OH274374   0.564   4.712  12.665  0.7888  0.0985 -0.0652
17628TIP3    H174375   0.583   4.648  12.596  0.8199 -0.1711  0.1913
17628TIP3    H274376   0.483   4.755  12.637  0.1713 -0.8127  0.2877
17629TIP3   OH274377   6.053   2.004  15.368  0.0632  0.1811 -0.0042
17629TIP3    H174378   6.064   1.949  15.291 -0.3515  0.5685 -0.3511
17629TIP3    H274379   6.138   2.045  15.382  0.5141 -0.9075  0.5504
17630TIP3   OH274380   6.691   1.623  11.890  0.1901 -0.2585 -0.3132
17630TIP3    H174381   6.742   1.582  11.820  1.1182  0.6407 -0.1688
17630TIP3    H274382   6.607   1.645  11.848  0.4441 -0.4315 -0.9270
17631TIP3   OH274383   0.403   5.239   5.149  0.6681  0.5072  0.2465
17631TIP3    H174384   0.444   5.201   5.072  1.1492  0.3100  0.5985
17631TIP3    H274385   0.459   5.213   5.222 -1.8598 -2.7662  1.2516
17632TIP3   OH274386   0.479   3.504   1.467 -0.0109 -0.0198 -0.4106
17632TIP3    H174387   0.515   3.426   1.424  0.2085  0.0065 -0.2751
17632TIP3    H274388   0.496   3.490   1.560  0.1281  0.2401 -0.3959
17633TIP3   OH274389   5.664   3.063   0.751  0.1638  0.2922  0.2486
17633TIP3    H174390   5.627   3.075   0.664  1.6228  0.2237 -0.4112
17633TIP3    H274391   5.590   3.040   0.807 -0.9753  1.4659 -0.7323
17634TIP3   OH274392   1.898   5.241   4.487 -0.3924 -0.1368  0.3200
17634TIP3    H174393   1.874   5.157   4.448 -1.4528  0.1313  0.3655
17634TIP3    H274394   1.881   5.230   4.580  2.5641 -0.9304  0.8848
17635TIP3   OH274395   3.135   5.148   5.779 -0.2427 -0.8283 -0.4724
17635TIP3    H174396   3.105   5.190   5.698  0.3681 -0.2863 -0.4272
17635TIP3    H274397   3.090   5.064   5.781 -0.7570 -0.5718 -1.0520
17636TIP3   OH274398   4.919   2.663   1.827 -0.3433  0.0733  0.1527
17636TIP3    H174399   5.008   2.697   1.814 -0.8354  1.1072 -0.6561
17636TIP3    H274400   4.900   2.680   1.919 -0.5448  1.9808 -0.2137
17637TIP3   OH274401   0.703   2.792  14.479  0.4501  0.1424 -0.3639
17637TIP3    H174402   0.792   2.767  14.501 -0.3323 -2.7153  0.0223
17637TIP3    H274403   0.650   2.759  14.551 -1.0280  0.8159 -1.0946
17638TIP3   OH274404   1.826   1.707   0.431 -0.0802  0.0478  0.2749
17638TIP3    H174405   1.760   1.772   0.409  2.2560  1.5790 -3.0343
17638TIP3    H274406   1.832   1.652   0.352  0.9941 -1.5270  1.3905
17639TIP3   OH274407   2.199   2.528  15.643  0.0234  0.2021 -0.0954
17639TIP3    H174408   2.116   2.504  15.683  0.9075 -2.1904  0.5055
17639TIP3    H274409   2.179   2.539  15.550 -1.2750  1.5756  0.3239
17640TIP3   OH274410   1.664   2.860  14.404 -0.0415 -0.2370 -0.0458
17640TIP3    H174411   1.699   2.771  14.393  0.3495  0.0793 -1.5752
17640TIP3    H274412   1.597   2.851  14.472  0.8543 -1.4556  0.7272
17641TIP3   OH274413   5.787   5.802  14.137 -0.4498  0.1484 -0.5959
17641TIP3    H174414   5.772   5.797  14.042 -0.4033  0.0940 -0.5995
17641TIP3    H274415   5.760   5.891  14.161  0.6581  0.5621 -0.8522
17642TIP3   OH274416   0.140   1.280  15.928  0.5084  0.3974  0.3606
17642TIP3    H174417   0.083   1.304  16.000 -1.6358 -0.6465 -0.9014
17642TIP3    H274418   0.110   1.334  15.854  1.6102  0.3086 -0.1784
17643TIP3   OH274419   3.744   0.129   1.050  0.4005  0.4487  0.4449
17643TIP3    H174420   3.840   0.127   1.047  0.6587  3.4032  2.3197
17643TIP3    H274421   3.723   0.106   1.140 -0.7769 -1.0742 -0.1796
17644TIP3   OH274422   5.694   2.429   5.657  0.0453 -0.8706 -0.0525
17644TIP3    H174423   5.715   2.458   5.746 -0.1652  0.7365 -0.4840
17644TIP3    H274424   5.778   2.423   5.613  0.2307 -2.5424  0.4712
17645TIP3   OH274425   6.216   0.531  14.874  0.1661  0.0450 -0.4913
17645TIP3    H174426   6.220   0.481  14.792 -0.5226  0.4614 -0.7910
17645TIP3    H274427   6.190   0.466  14.939 -0.9383  0.0205 -0.9181
17646TIP3   OH274428   5.302   3.775  16.189  0.3327 -0.3331  0.2047
17646TIP3    H174429   5.283   3.692  16.232 -0.6330 -0.7377 -0.9673
17646TIP3    H274430   5.397   3.775  16.178  0.1833 -2.2348 -1.6334
17647TIP3   OH274431   3.969   0.012   4.574  0.3593  0.5748 -0.1760
17647TIP3    H174432   4.047  -0.035   4.544  1.1113  3.5723 -3.6293
17647TIP3    H274433   3.987   0.031   4.666  1.3673 -2.9067  0.5170
17648TIP3   OH274434   4.317   6.405  13.711  0.2028  0.2976 -0.2047
17648TIP3    H174435   4.268   6.324  13.697  1.6576 -0.8032  0.7552
17648TIP3    H274436   4.281   6.467  13.648 -1.1332 -1.0188 -0.7726
17649TIP3   OH274437   5.667   1.385  15.767 -0.5172 -0.6080  0.0010
17649TIP3    H174438   5.699   1.331  15.839 -0.7784 -1.1463 -0.2825
17649TIP3    H274439   5.679   1.331  15.689 -1.3304 -0.5013 -0.2135
17650TIP3   OH274440   0.024   1.031  13.544  0.8315 -0.2154  0.1365
17650TIP3    H174441   0.073   0.977  13.606 -0.8860  0.6732  2.4267
17650TIP3    H274442   0.070   1.115  13.544 -0.3626  0.5016  2.0056
17651TIP3   OH274443   2.226   6.418  15.905  0.4556 -0.0587  0.4887
17651TIP3    H174444   2.154   6.473  15.935 -0.1189 -0.3086 -0.4131
17651TIP3    H274445   2.236   6.353  15.975 -0.0379  0.1140  0.7293
17652TIP3   OH274446   2.997   1.902   0.721  0.5889 -0.9981  0.3449
17652TIP3    H174447   2.981   1.890   0.814 -1.2888 -1.9105 -0.0674
17652TIP3    H274448   2.914   1.884   0.679  1.5797 -1.3401 -1.5919
17653TIP3   OH274449   5.847   6.306   4.820  0.0923  0.1405 -0.2761
17653TIP3    H174450   5.798   6.270   4.746 -1.0013  1.5355 -0.2865
17653TIP3    H274451   5.906   6.236   4.847 -2.6161 -2.0805  0.3816
17654TIP3   OH274452   2.790   6.042   1.347  0.3132 -0.2900  0.5182
17654TIP3    H174453   2.784   5.949   1.325 -4.0979 -0.3017  0.9619
17654TIP3    H274454   2.760   6.087   1.268  1.6440  0.7737  0.5793
17655TIP3   OH274455   2.280   5.199  14.513 -0.3935 -0.0027 -0.3522
17655TIP3    H174456   2.207   5.151  14.474  0.5978 -2.4939  0.6442
17655TIP3    H274457   2.262   5.197  14.607  1.0911 -0.9349 -0.0630
17656TIP3   OH274458   3.612   1.911  15.396 -0.0624 -0.2643  0.4053
17656TIP3    H174459   3.565   1.828  15.386  0.0503 -0.2917  0.0844
17656TIP3    H274460   3.630   1.918  15.489 -3.6043  1.3026  1.1391
17657TIP3   OH274461   6.703   4.202  11.819  0.2990 -0.9010 -0.5178
17657TIP3    H174462   6.773   4.206  11.884  0.0872 -0.5382 -0.3024
17657TIP3    H274463   6.636   4.262  11.854  0.6753  0.2346 -1.6536
17658TIP3   OH274464   2.580   4.237   5.421  0.2164  0.1891  0.0607
17658TIP3    H174465   2.622   4.319   5.393 -0.8178  0.7072 -0.0465
17658TIP3    H274466   2.647   4.170   5.411  1.4897  1.2141  1.3040
17659TIP3   OH274467   5.729   1.886  15.016  0.2382 -0.2569 -0.1184
17659TIP3    H174468   5.698   1.913  15.103  0.4227  2.2332 -0.7351
17659TIP3    H274469   5.656   1.905  14.958  1.0639  0.7402 -0.8684
17660TIP3   OH274470   5.688   2.586   3.270 -0.0937 -0.1236  0.4913
17660TIP3    H174471   5.664   2.612   3.181  0.0713  0.4449  0.6067
17660TIP3    H274472   5.608   2.550   3.307 -0.3796  0.3828  0.3755
17661TIP3   OH274473   4.417   4.790  12.430 -0.1178 -0.5206  0.7819
17661TIP3    H174474   4.360   4.811  12.356  0.7099 -0.4315  0.1440
17661TIP3    H274475   4.505   4.785  12.391  0.6075  1.2552  2.0226
17662TIP3   OH274476   1.269   4.390   4.233 -0.2573  0.4342  0.1132
17662TIP3    H174477   1.275   4.484   4.251 -0.2352  0.2035  1.4350
17662TIP3    H274478   1.340   4.373   4.171  1.9702  0.7426  2.4075
17663TIP3   OH274479   3.782   1.506  11.233  0.0871 -0.2004  0.0663
17663TIP3    H174480   3.708   1.474  11.181 -0.9198 -0.2049  1.4502
17663TIP3    H274481   3.859   1.472  11.188 -0.7259  0.0748 -1.5936
17664TIP3   OH274482   6.599   6.112   6.083  0.2779 -0.5956  0.7650
17664TIP3    H174483   6.614   6.070   6.168 -0.7394  3.1011  2.9975
17664TIP3    H274484   6.505   6.132   6.083  0.5258  0.7091 -0.5954
17665TIP3   OH274485   5.929   4.483  16.240  0.1136  0.1535 -0.3908
17665TIP3    H174486   5.940   4.485  16.335  1.2412 -1.0950 -0.4664
17665TIP3    H274487   6.015   4.507  16.205  0.0618 -0.6296 -1.0870
17666TIP3   OH274488   5.867   4.978   6.804  0.1535  0.3249 -0.4114
17666TIP3    H174489   5.792   5.021   6.763  0.5170  0.7873 -0.6053
17666TIP3    H274490   5.910   4.932   6.732  0.2009  0.2773 -0.3521
17667TIP3   OH274491   4.952   5.571  14.140 -0.1263  0.0786 -0.2263
17667TIP3    H174492   4.929   5.578  14.233  0.7027 -1.0260  0.0891
17667TIP3    H274493   4.982   5.658  14.116 -0.6447  0.4588  0.4597
17668TIP3   OH274494   1.864   2.377   3.635 -0.0411 -0.0871 -0.2576
17668TIP3    H174495   1.777   2.400   3.606  0.7752  0.3301 -2.5380
17668TIP3    H274496   1.891   2.305   3.578  1.3206  0.1674  0.0156
17669TIP3   OH274497   0.275   2.583   3.025 -0.3139 -0.0944  0.2489
17669TIP3    H174498   0.364   2.588   2.988 -0.2364 -2.0964  0.0429
17669TIP3    H274499   0.219   2.568   2.949 -0.7089  0.2293  0.4787
17670TIP3   OH274500   5.137   2.718   2.788  0.2751 -0.2185 -0.2973
17670TIP3    H174501   5.095   2.758   2.713 -0.6618 -0.3997  0.1188
17670TIP3    H274502   5.118   2.776   2.861  1.4231  0.1095 -0.2324
17671TIP3   OH274503   5.633   5.597   5.237  0.4031  0.0998 -0.1404
17671TIP3    H174504   5.582   5.603   5.318 -0.6840  0.8356 -0.8425
17671TIP3    H274505   5.609   5.512   5.200 -0.7347  0.6378 -0.7012
17672TIP3   OH274506   6.487   6.509   0.744  0.1167  0.1098 -0.6868
17672TIP3    H174507   6.556   6.499   0.810 -0.7805 -0.1467  0.2281
17672TIP3    H274508   6.420   6.445   0.769  0.5339 -1.3228 -2.8951
17673TIP3   OH274509   0.540   1.274   1.248 -0.1381  0.3925 -0.1236
17673TIP3    H174510   0.576   1.350   1.294 -3.5458  1.5199  1.0290
17673TIP3    H274511   0.525   1.209   1.316 -1.0155  0.3166 -0.3694
17674TIP3   OH274512   1.812   2.556   0.614 -0.0003  0.4481 -0.0151
17674TIP3    H174513   1.753   2.630   0.598 -1.1247 -0.5683 -0.8375
17674TIP3    H274514   1.818   2.550   0.709 -0.1566  1.3876  0.0635
17675TIP3   OH274515   0.563   4.603   1.536  0.1669  0.5133 -0.3434
17675TIP3    H174516   0.477   4.564   1.555  1.0635 -0.4446  2.0403
17675TIP3    H274517   0.625   4.532   1.549  1.6361  2.0377  1.6174
17676TIP3   OH274518   5.095   6.487  15.255 -0.4179 -0.0930  0.6239
17676TIP3    H174519   5.130   6.537  15.329  0.3926  0.7104 -0.2801
17676TIP3    H274520   5.133   6.400  15.265  1.0942  0.4928  0.2029
17677TIP3   OH274521   6.193   1.071  11.588  0.2268  0.1239  0.4121
17677TIP3    H174522   6.179   1.003  11.522  1.7640 -0.3106  0.4825
17677TIP3    H274523   6.276   1.047  11.629 -0.3657  0.7746  2.0461
17678TIP3   OH274524   3.583   6.266   1.479 -0.2178 -0.1075  0.7964
17678TIP3    H174525   3.581   6.179   1.439 -0.4685 -0.3702  1.3652
17678TIP3    H274526   3.515   6.262   1.546  1.0172 -0.0922  2.1001
17679TIP3   OH274527   0.815   6.726  15.317 -0.1234 -0.0147  0.0606
17679TIP3    H174528   0.880   6.670  15.358 -0.3860  0.7079  1.5573
17679TIP3    H274529   0.740   6.722  15.376 -1.3580 -0.6090 -1.4806
17680TIP3   OH274530   4.059   0.429   1.222 -0.5221  0.2675  0.5373
17680TIP3    H174531   4.105   0.510   1.241 -0.3491 -0.0582  1.5958
17680TIP3    H274532   3.972   0.441   1.259 -0.9117  0.4428 -0.4261
17681TIP3   OH274533   6.191   1.077  17.433 -0.1686  0.3752 -0.2965
17681TIP3    H174534   6.122   1.021  17.466 -1.4116  1.6089 -0.7168
17681TIP3    H274535   6.270   1.049  17.480 -0.6055 -2.0281 -0.8567
17682TIP3   OH274536   6.192   1.161   0.883 -0.3270 -0.5022  0.2432
17682TIP3    H174537   6.105   1.190   0.909 -0.5640 -0.5690 -0.4718
17682TIP3    H274538   6.248   1.238   0.899 -0.4843 -0.5014  0.8261
17683TIP3   OH274539   3.370   5.456  13.901 -0.7378  0.3400 -0.5999
17683TIP3    H174540   3.319   5.401  13.841  0.4158 -0.1173 -1.1747
17683TIP3    H274541   3.455   5.414  13.906 -0.0336  1.7229 -0.5394
17684TIP3   OH274542   4.765   4.496  11.736 -0.1625 -0.3508  0.1592
17684TIP3    H174543   4.693   4.520  11.677  1.2546  0.1519 -1.4574
17684TIP3    H274544   4.844   4.509  11.683  1.0961 -1.3890  1.7043
17685TIP3   OH274545   3.544   4.357   2.547 -0.4965 -0.0639  0.3599
17685TIP3    H174546   3.617   4.360   2.609  1.8104  2.9596 -2.1433
17685TIP3    H274547   3.493   4.436   2.565 -0.1053  0.5678 -1.1243
17686TIP3   OH274548   3.505   2.098  11.156  0.3184  0.2938 -0.2120
17686TIP3    H174549   3.486   2.146  11.237 -1.2037 -1.1453  0.3461
17686TIP3    H274550   3.448   2.138  11.091  1.1980  1.1382 -0.4891
17687TIP3   OH274551   1.594   2.763  13.840 -0.4608 -0.1311 -0.0245
17687TIP3    H174552   1.530   2.823  13.802 -0.4958 -0.5325 -0.6166
17687TIP3    H274553   1.612   2.798  13.927  1.2437  2.0396 -1.1702
17688TIP3   OH274554   3.518   6.736  16.846  0.0625 -0.3041  0.3915
17688TIP3    H174555   3.438   6.776  16.880 -0.9370 -0.6817 -1.3672
17688TIP3    H274556   3.531   6.779  16.761  1.8826 -0.0829  0.7453
17689TIP3   OH274557   4.588   4.261  14.724 -0.3494 -0.2398  0.3872
17689TIP3    H174558   4.575   4.181  14.774 -5.1835 -0.9714 -1.4661
17689TIP3    H274559   4.586   4.331  14.789  1.5649 -1.4072  1.8072
17690TIP3   OH274560   3.806   2.300  12.961 -0.4447  0.0425 -0.4393
17690TIP3    H174561   3.716   2.273  12.940  0.2902 -1.6108 -1.6381
17690TIP3    H274562   3.797   2.349  13.043 -2.4733  0.2137 -0.6944
17691TIP3   OH274563   2.365   0.520   1.698  0.3828  0.9602 -0.3451
17691TIP3    H174564   2.351   0.474   1.615 -0.2025  0.8419 -0.1824
17691TIP3    H274565   2.279   0.556   1.721  0.7487  1.8450 -0.2895
17692TIP3   OH274566   1.479   2.059  15.827 -0.1991 -0.0641  0.0515
17692TIP3    H174567   1.411   2.039  15.891 -0.8398 -0.1986 -0.6557
17692TIP3    H274568   1.432   2.092  15.750  0.6865  2.3933  0.4735
17693TIP3   OH274569   4.378   3.635   3.305  0.3176  0.2711 -0.2746
17693TIP3    H174570   4.294   3.591   3.292  0.4948 -0.3973  0.7697
17693TIP3    H274571   4.434   3.569   3.345  0.9017  1.1435  0.3926
17694TIP3   OH274572   0.689   3.545   3.327 -0.0409 -0.5754 -0.2887
17694TIP3    H174573   0.763   3.517   3.381 -0.5404 -2.1273 -0.3734
17694TIP3    H274574   0.612   3.513   3.374 -0.6596  0.7769 -0.3476
17695TIP3   OH274575   0.874   2.745  12.969  0.0604  0.4229  0.4203
17695TIP3    H174576   0.853   2.833  12.938  1.8565  0.5365 -0.6265
17695TIP3    H274577   0.969   2.739  12.960 -0.0820 -1.8419 -0.1578
17696TIP3   OH274578   4.770   1.799   0.414  0.4248 -0.3757  0.2373
17696TIP3    H174579   4.726   1.875   0.451  0.8212 -0.0533  0.0452
17696TIP3    H274580   4.755   1.805   0.320  1.2045 -0.0555  0.1306
17697TIP3   OH274581   5.313   2.230  15.439 -0.6693  0.0360  0.5756
17697TIP3    H174582   5.256   2.255  15.366 -0.8424  1.9151  1.3013
17697TIP3    H274583   5.259   2.172  15.493 -1.1418  0.0526  0.1258
17698TIP3   OH274584   5.748   0.948  13.874 -0.1976 -0.0285  0.9506
17698TIP3    H174585   5.683   1.014  13.849 -0.5665 -0.7741 -0.1322
17698TIP3    H274586   5.821   0.962  13.813  0.2727  0.1961  1.5516
17699TIP3   OH274587   1.225   0.833  13.434 -0.2258  0.0299  0.2796
17699TIP3    H174588   1.314   0.841  13.469  0.3768 -2.8025 -0.3387
17699TIP3    H274589   1.236   0.786  13.352 -2.3676 -1.5909  0.8252
17700TIP3   OH274590   5.000   3.658   6.346 -0.1128  0.2092 -0.4240
17700TIP3    H174591   5.061   3.725   6.376  1.6217 -0.6721 -1.7811
17700TIP3    H274592   4.920   3.705   6.323 -0.0474  1.3805  1.5360
17701TIP3   OH274593   3.096   5.024   2.806  0.2101 -0.1953 -0.6334
17701TIP3    H174594   3.090   5.030   2.710 -2.6617 -1.3463 -0.6239
17701TIP3    H274595   3.162   5.089   2.830  0.3718  0.7626 -3.3163
17702TIP3   OH274596   0.080   4.455   2.044 -0.0328 -0.2497 -0.2936
17702TIP3    H174597   0.142   4.446   2.117 -1.9959  0.0405  1.4986
17702TIP3    H274598   0.065   4.549   2.036 -2.8800 -0.4183  1.7506
17703TIP3   OH274599   5.643   3.734   5.756  0.0380  0.1072 -0.3502
17703TIP3    H174600   5.712   3.674   5.731 -0.1545 -1.3303  2.1522
17703TIP3    H274601   5.611   3.700   5.840 -2.5397  1.6844 -0.5615
17704TIP3   OH274602   4.504   1.571   1.461 -0.1774  0.3337 -0.0191
17704TIP3    H174603   4.535   1.554   1.372 -1.2884 -1.7362 -0.0676
17704TIP3    H274604   4.512   1.666   1.471  2.2437  0.3688 -1.4290
17705TIP3   OH274605   0.761   2.567  11.345 -0.0710 -0.0080  0.1195
17705TIP3    H174606   0.735   2.482  11.310  0.3436 -0.0996  0.0303
17705TIP3    H274607   0.685   2.624  11.329 -0.8269 -0.6580  1.2819
17706TIP3   OH274608   4.105   0.434   4.421  0.3413  0.3753 -0.1398
17706TIP3    H174609   4.048   0.438   4.498  2.3730 -1.7217  1.6197
17706TIP3    H274610   4.095   0.345   4.388  1.1578  0.5684 -0.9567
17707TIP3   OH274611   5.369   4.629  12.708  0.1825  0.3937  0.0393
17707TIP3    H174612   5.333   4.657  12.793  0.7692  0.8376  0.1492
17707TIP3    H274613   5.316   4.554  12.683 -1.2034  1.3678 -0.0772
17708TIP3   OH274614   4.258   6.004  17.105 -0.1788  0.6819 -0.5787
17708TIP3    H174615   4.325   5.986  17.171 -0.0190  0.7773 -0.7140
17708TIP3    H274616   4.211   6.081  17.138 -2.0968 -1.0296  0.9601
17709TIP3   OH274617   2.491   2.233  16.156 -0.1231  0.3050 -0.3120
17709TIP3    H174618   2.419   2.181  16.191  0.4645 -0.8066 -0.7035
17709TIP3    H274619   2.569   2.180  16.170  0.5600  1.2567 -0.3751
17710TIP3   OH274620   3.402   2.573   0.836 -0.3607 -0.1424 -0.8485
17710TIP3    H174621   3.388   2.498   0.894 -1.9665 -0.6668 -1.8559
17710TIP3    H274622   3.392   2.649   0.893 -2.9826 -0.6121 -0.5722
17711TIP3   OH274623   5.418   4.272   6.772 -0.0574  0.0584 -0.4839
17711TIP3    H174624   5.486   4.222   6.818  1.2659  3.4610  1.6631
17711TIP3    H274625   5.340   4.261   6.825  0.1588  0.0660 -0.1597
17712TIP3   OH274626   5.014   1.435  13.542  0.1882 -0.4895 -0.1450
17712TIP3    H174627   4.947   1.446  13.475  0.1629 -1.5623 -0.3156
17712TIP3    H274628   5.084   1.384  13.499  0.8696  0.1471  0.1846
17713TIP3   OH274629   2.351   1.511   5.647  0.3756 -0.6813  0.8691
17713TIP3    H174630   2.258   1.524   5.663  0.5219  1.2050  0.4070
17713TIP3    H274631   2.355   1.462   5.565 -0.2028 -3.0661  2.1698
17714TIP3   OH274632   1.020   1.458  15.227 -0.1707  0.2784  0.1309
17714TIP3    H174633   0.993   1.549  15.227  1.0131  0.6396  0.7050
17714TIP3    H274634   1.080   1.450  15.300 -0.2081 -0.9521  0.0492
17715TIP3   OH274635   5.853   3.071  13.323 -0.2388  0.0589  0.4865
17715TIP3    H174636   5.927   3.124  13.295 -0.5045  0.6295  0.8511
17715TIP3    H274637   5.777   3.128  13.310 -0.6186 -0.5224  0.1058
17716TIP3   OH274638   1.232   1.423   4.924 -0.2050 -0.3133 -0.1476
17716TIP3    H174639   1.204   1.420   4.833  0.7304  2.4162 -0.6254
17716TIP3    H274640   1.191   1.502   4.960 -1.2864 -1.7899  2.1236
17717TIP3   OH274641   3.617   1.130  12.595 -0.0617 -0.0490 -0.3423
17717TIP3    H174642   3.623   1.113  12.501  0.6526 -0.0994 -0.2975
17717TIP3    H274643   3.536   1.180  12.606  0.3379  0.8068 -1.1222
17718TIP3   OH274644   0.674   0.112   6.336 -0.0302  0.3921  0.5517
17718TIP3    H174645   0.712   0.168   6.269 -0.3285 -1.1359 -0.9680
17718TIP3    H274646   0.661   0.028   6.292 -1.4850 -0.2760  2.1484
17719TIP3   OH274647   4.179   0.887   6.207 -0.5568 -0.2233 -0.6899
17719TIP3    H174648   4.100   0.865   6.255 -0.7732  0.4904 -0.7097
17719TIP3    H274649   4.201   0.976   6.235  0.2085 -0.3896 -0.7233
17720TIP3   OH274650   3.694   2.042  12.849  0.2163 -0.2629  0.1072
17720TIP3    H174651   3.643   1.961  12.855 -0.0975 -0.0571  0.2255
17720TIP3    H274652   3.707   2.069  12.939  0.1820 -0.0956  0.0623
17721TIP3   OH274653   4.934   2.308   1.311 -0.6626  0.0250  0.0670
17721TIP3    H174654   5.016   2.294   1.264 -1.5059 -1.3865 -1.0637
17721TIP3    H274655   4.959   2.315   1.403  0.6028 -1.7076 -0.1116
17722TIP3   OH274656   4.741   2.305   3.701  0.2801  0.5786 -0.1973
17722TIP3    H174657   4.833   2.333   3.706  0.4714 -0.1688  0.6737
17722TIP3    H274658   4.694   2.368   3.755 -0.0737  2.2340 -2.2892
17723TIP3   OH274659   1.458   4.202   6.532 -0.2908  0.2088  0.1184
17723TIP3    H174660   1.553   4.185   6.535 -0.3278  0.0489  1.7125
17723TIP3    H274661   1.441   4.252   6.612 -1.8273 -1.4088  0.8671
17724TIP3   OH274662   6.375   6.127   0.249 -0.0294 -0.0606 -0.8291
17724TIP3    H174663   6.390   6.221   0.239  1.2344 -0.0816  0.4715
17724TIP3    H274664   6.281   6.116   0.236 -0.0409  1.2306 -1.9990
17725TIP3   OH274665   2.283   3.757   6.101  0.5648  0.0957  0.0389
17725TIP3    H174666   2.274   3.835   6.045  0.5330  0.3340  0.3753
17725TIP3    H274667   2.277   3.684   6.040 -0.0517  0.3404 -0.2081
17726TIP3   OH274668   5.665   0.331  16.790 -1.1142 -0.6057 -0.0963
17726TIP3    H174669   5.682   0.275  16.867  2.2378 -0.5422 -0.6707
17726TIP3    H274670   5.711   0.288  16.718 -3.3999 -0.1588 -1.9665
17727TIP3   OH274671   0.899   6.103   3.497 -0.1839 -0.5470  0.0347
17727TIP3    H174672   0.836   6.034   3.476 -0.5600 -0.2202  0.0905
17727TIP3    H274673   0.847   6.173   3.537 -0.1019  0.5452 -1.6672
17728TIP3   OH274674   2.345   0.468   0.793 -0.4768 -0.4058  0.1778
17728TIP3    H174675   2.339   0.505   0.882  1.5123 -1.1334  0.6522
17728TIP3    H274676   2.414   0.518   0.751 -0.8196 -0.6489 -0.6821
17729TIP3   OH274677   4.341   3.019  15.206 -0.0889  0.2061 -0.2607
17729TIP3    H174678   4.390   2.952  15.253 -1.6091 -1.2392 -0.6596
17729TIP3    H274679   4.379   3.020  15.118 -0.9911 -1.1982 -0.6928
17730TIP3   OH274680   3.311   2.603   1.312  0.0111 -0.1511 -0.3387
17730TIP3    H174681   3.350   2.651   1.386  0.3834  2.8136 -2.2513
17730TIP3    H274682   3.222   2.638   1.306 -1.1701 -2.7907  0.6025
17731TIP3   OH274683   1.849   2.334  12.388  0.0004  0.5246  0.0203
17731TIP3    H174684   1.887   2.295  12.309 -0.9525  1.4940 -0.9572
17731TIP3    H274685   1.844   2.428  12.368  0.8538  0.9699  1.7217
17732TIP3   OH274686   0.136   3.228   2.478  0.1098  0.0568 -0.4533
17732TIP3    H174687   0.081   3.241   2.402  0.1563  0.4031 -0.4321
17732TIP3    H274688   0.187   3.309   2.484  0.2765 -0.0662 -0.1964
17733TIP3   OH274689   5.813   5.265   6.225 -0.4766 -0.1784 -0.1465
17733TIP3    H174690   5.882   5.326   6.253  0.4284 -0.5911 -1.4023
17733TIP3    H274691   5.838   5.181   6.263 -0.2792 -0.3343 -0.6235
17734TIP3   OH274692   4.294   4.246  13.549 -0.0793 -0.0277  0.1277
17734TIP3    H174693   4.266   4.280  13.464  0.5988  2.4080  0.8012
17734TIP3    H274694   4.304   4.324  13.604  0.5734 -1.4447  2.1281
17735TIP3   OH274695   3.401   2.451   3.377  0.1092  0.6290  0.3025
17735TIP3    H174696   3.476   2.400   3.348 -0.3526 -0.5967  1.1563
17735TIP3    H274697   3.393   2.521   3.313 -0.6757 -1.7203 -2.3858
17736TIP3   OH274698   0.214   3.465   3.894 -0.4346 -0.1821  1.0480
17736TIP3    H174699   0.217   3.515   3.812 -2.1905 -1.7442 -0.0445
17736TIP3    H274700   0.286   3.500   3.946  1.0524  0.5344 -1.3468
17737TIP3   OH274701   1.087   5.285   4.081  0.0368 -0.1827 -0.5291
17737TIP3    H174702   1.127   5.296   4.168  0.4457 -1.5296 -0.5296
17737TIP3    H274703   1.128   5.353   4.028 -2.3427  2.6621  0.9630
17738TIP3   OH274704   2.867   5.206  11.103 -0.2582 -0.3054  0.1582
17738TIP3    H174705   2.890   5.299  11.091 -0.1461 -0.2965  0.4279
17738TIP3    H274706   2.772   5.207  11.115 -0.2918 -0.2526 -0.1128
17739TIP3   OH274707   3.128   1.967   5.955  0.0364  0.1339  0.2799
17739TIP3    H174708   3.181   2.047   5.949 -2.6774  2.1335  1.0779
17739TIP3    H274709   3.102   1.962   6.047  2.6002 -3.5269  1.0351
17740TIP3   OH274710   3.251   6.558  12.722  0.3231 -0.5774 -1.2206
17740TIP3    H174711   3.192   6.543  12.796  1.2442  2.3328  0.2487
17740TIP3    H274712   3.193   6.557  12.646 -1.1357 -0.7562 -0.1662
17741TIP3   OH274713   5.355   2.347   5.360 -0.1963 -0.1727  0.4576
17741TIP3    H174714   5.373   2.323   5.451 -0.2711 -2.1199  0.0050
17741TIP3    H274715   5.273   2.396   5.365 -0.1613 -0.1882  1.4558
17742TIP3   OH274716   5.399   3.051   1.595  0.7765  0.0650  0.8611
17742TIP3    H174717   5.402   3.146   1.581 -1.4033 -0.1868 -2.0759
17742TIP3    H274718   5.312   3.035   1.631  1.7264 -0.7689  3.0065
17743TIP3   OH274719   6.317   5.257  11.240  0.2688  0.2608 -0.2046
17743TIP3    H174720   6.314   5.353  11.240  1.4482  0.3101  0.0105
17743TIP3    H274721   6.386   5.236  11.177  0.0559 -0.4536 -0.2014
17744TIP3   OH274722   2.475   0.833   2.816 -0.5233  0.3201 -0.5535
17744TIP3    H174723   2.513   0.765   2.760  1.5876  1.7809 -0.9851
17744TIP3    H274724   2.444   0.900   2.756  0.0514  1.0460 -0.0546
17745TIP3   OH274725   1.793   3.854   0.502 -0.5396 -0.2008  0.4996
17745TIP3    H174726   1.753   3.846   0.589  2.9787 -3.2025  2.1193
17745TIP3    H274727   1.837   3.938   0.503 -0.6099 -0.1606  1.6130
17746TIP3   OH274728   5.191   0.405   6.022 -0.2469  0.3297  0.5798
17746TIP3    H174729   5.238   0.325   6.044  0.9304  0.8538  0.0560
17746TIP3    H274730   5.193   0.409   5.926  0.2240  1.2782  0.6193
17747TIP3   OH274731   0.097   6.395   5.415  0.3613 -0.1205 -0.7061
17747TIP3    H174732   0.021   6.387   5.358  0.3810 -0.1277 -0.7313
17747TIP3    H274733   0.071   6.460   5.481 -0.7533 -2.1743  1.0138
17748TIP3   OH274734   2.699   1.867   1.444  0.6336  0.2228 -0.0064
17748TIP3    H174735   2.631   1.906   1.499  0.4461  3.5128 -2.2695
17748TIP3    H274736   2.765   1.837   1.506 -0.4651  1.8566  2.1213
17749TIP3   OH274737   5.384   0.997  14.903  0.1301 -0.3390 -0.1190
17749TIP3    H174738   5.379   1.074  14.961 -1.3918 -1.7278  1.7044
17749TIP3    H274739   5.474   0.966  14.914  0.1776  0.0366  0.7050
17750TIP3   OH274740   6.565   4.565  16.192  0.7846  0.1469 -0.5906
17750TIP3    H174741   6.609   4.489  16.154 -1.2231 -1.3786  0.0030
17750TIP3    H274742   6.496   4.528  16.247 -0.3518  2.4213 -0.3915
17751TIP3   OH274743   5.051   4.591   4.655 -0.1243  0.1961  0.4261
17751TIP3    H174744   4.978   4.602   4.594  0.7062  0.2734 -0.5841
17751TIP3    H274745   5.124   4.560   4.601  0.6632  0.3457  1.3584
17752TIP3   OH274746   4.558   1.458   2.366 -0.4714 -0.7250 -1.2375
17752TIP3    H174747   4.503   1.385   2.392 -0.2542 -0.9756 -1.4734
17752TIP3    H274748   4.648   1.427   2.379 -0.3497  0.3965  1.2014
17753TIP3   OH274749   5.943   1.179   4.276  0.4152  0.4809  0.1368
17753TIP3    H174750   5.925   1.161   4.184  1.8488  1.2347 -0.3213
17753TIP3    H274751   5.942   1.275   4.282  3.3246  0.5766  0.2115
17754TIP3   OH274752   4.175   2.504  13.183  0.3372 -0.2368 -0.5981
17754TIP3    H174753   4.174   2.429  13.242  0.1508  0.0659 -0.2077
17754TIP3    H274754   4.176   2.466  13.095 -0.4290 -0.6952 -0.4129
17755TIP3   OH274755   5.129   4.722   1.304  0.0657 -0.9412 -0.0369
17755TIP3    H174756   5.163   4.636   1.330  1.7908 -0.3933 -0.3168
17755TIP3    H274757   5.205   4.768   1.269 -0.4148  1.3315  1.6629
17756TIP3   OH274758   5.235   1.583   3.563 -0.2220 -0.3303 -0.3221
17756TIP3    H174759   5.252   1.632   3.482 -1.9292 -0.8871 -1.0637
17756TIP3    H274760   5.145   1.552   3.553  0.0661 -1.7130  1.1213
17757TIP3   OH274761   3.484   2.327   6.344 -0.1324 -0.2033 -0.6675
17757TIP3    H174762   3.445   2.349   6.428  0.7731 -2.2693  0.3633
17757TIP3    H274763   3.416   2.276   6.299 -0.0871 -0.3206 -0.6009
17758TIP3   OH274764   5.847   1.420  14.866 -0.9824  0.3495 -0.4186
17758TIP3    H174765   5.769   1.397  14.917 -0.5775  0.0288  0.0689
17758TIP3    H274766   5.873   1.505  14.900  0.8281 -0.9942  1.8516
17759TIP3   OH274767   0.997   6.708   3.723 -0.0282 -0.4956  0.4830
17759TIP3    H174768   1.015   6.616   3.741 -1.0739 -0.5200  1.5032
17759TIP3    H274769   1.036   6.755   3.797  2.3815  0.1350 -1.0382
17760TIP3   OH274770   5.493   4.935   5.395 -0.2300  0.8160  0.6263
17760TIP3    H174771   5.509   4.854   5.443 -1.0872 -0.0282 -0.4586
17760TIP3    H274772   5.554   4.932   5.322 -1.8771 -0.0596 -0.7746
17761TIP3   OH274773   5.782   1.554   2.551 -0.2020 -0.1617 -0.1728
17761TIP3    H174774   5.795   1.502   2.630 -0.6259 -1.2997 -0.8318
17761TIP3    H274775   5.870   1.566   2.516 -0.1503 -0.9451 -0.3244
17762TIP3   OH274776   2.129   2.188  14.631  0.2143 -0.1409 -0.2387
17762TIP3    H174777   2.201   2.127  14.647  0.4355  0.0947 -0.3227
17762TIP3    H274778   2.112   2.228  14.716  1.1071  0.8039 -0.4937
17763TIP3   OH274779   1.603   4.118   1.717  0.4493  0.1650  0.4037
17763TIP3    H174780   1.669   4.048   1.714  1.4948  1.1573 -0.6100
17763TIP3    H274781   1.523   4.077   1.683  1.4659 -0.1424 -1.7426
17764TIP3   OH274782   2.163   3.751   0.342  0.2290  0.5884  0.3267
17764TIP3    H174783   2.171   3.786   0.431 -1.6066 -0.3492  0.9115
17764TIP3    H274784   2.170   3.656   0.353 -1.0688  0.3900 -0.3580
17765TIP3   OH274785   0.440   6.626   5.301  0.3388  0.1586  0.5271
17765TIP3    H174786   0.359   6.665   5.334  0.0009  2.1462 -2.2736
17765TIP3    H274787   0.411   6.558   5.241  0.9132 -2.2609  2.8187
17766TIP3   OH274788   4.140   0.049  15.393  0.1407  0.2484  0.1150
17766TIP3    H174789   4.155   0.040  15.299 -0.8603  0.1651 -0.0512
17766TIP3    H274790   4.152   0.142  15.411  1.2852  0.1133  0.0904
17767TIP3   OH274791   0.741   3.262  15.091  0.1728  0.0038  1.0921
17767TIP3    H174792   0.806   3.193  15.082 -0.2841 -0.5681  2.0356
17767TIP3    H274793   0.770   3.331  15.030 -0.0312 -1.4846 -0.7874
17768TIP3   OH274794   5.736   4.738  17.184  0.9563  0.2757 -0.1502
17768TIP3    H174795   5.694   4.747  17.098 -0.5020 -0.4459  0.4642
17768TIP3    H274796   5.737   4.827  17.218  0.2787  0.3713 -0.3508
17769TIP3   OH274797   5.583   2.654   0.764  0.1916  0.2121  0.1309
17769TIP3    H174798   5.488   2.663   0.751  0.1703 -1.3899 -1.1048
17769TIP3    H274799   5.592   2.606   0.846  0.1381  4.0181  2.6362
17770TIP3   OH274800   0.382   1.629   4.440 -0.0316  1.4020  0.1983
17770TIP3    H174801   0.350   1.539   4.430  0.3266  1.1451  1.1498
17770TIP3    H274802   0.346   1.677   4.366 -1.3432  0.7828  0.4199
17771TIP3   OH274803   3.620   5.491   1.017 -0.1514 -0.5829 -0.8620
17771TIP3    H174804   3.557   5.541   1.068  1.0453  1.7876 -1.5479
17771TIP3    H274805   3.573   5.464   0.938 -0.7629 -0.3147 -0.5883
17772TIP3   OH274806   4.883   5.039  11.050 -0.0891 -0.4105  0.1685
17772TIP3    H174807   4.932   4.962  11.077 -0.4919 -1.0196 -0.7480
17772TIP3    H274808   4.944   5.089  10.995  0.7963  0.9328  2.2604
17773TIP3   OH274809   3.074   6.253   1.661  0.1901 -0.0897  0.3795
17773TIP3    H174810   3.004   6.315   1.679 -2.2150 -2.0763 -1.4079
17773TIP3    H274811   3.050   6.174   1.708  0.4031 -1.2851 -1.3907
17774TIP3   OH274812   6.309   0.609   6.734 -0.2229  0.0363 -0.6381
17774TIP3    H174813   6.222   0.592   6.771 -0.2536  0.8419 -0.3219
17774TIP3    H274814   6.367   0.549   6.781 -0.4130  0.3895  0.0584
17775TIP3   OH274815   5.752   1.609   5.350 -0.0926 -0.0469  0.2091
17775TIP3    H174816   5.692   1.676   5.319 -0.0479  0.1055  0.4430
17775TIP3    H274817   5.752   1.542   5.282 -0.2197  0.1413  0.0236
17776TIP3   OH274818   3.799   3.661   0.717 -0.3689  0.1552  0.4254
17776TIP3    H174819   3.833   3.746   0.742  1.7013 -0.5476  0.1670
17776TIP3    H274820   3.841   3.642   0.633  1.0295 -2.0923  1.5474
17777TIP3   OH274821   5.674   3.301   2.308 -0.0040  0.3809 -0.1804
17777TIP3    H174822   5.654   3.272   2.219 -1.6902 -0.7673  0.5389
17777TIP3    H274823   5.628   3.385   2.317 -1.2046 -0.2854  0.1132
17778TIP3   OH274824   1.707   5.567  16.207 -0.0874  0.1152 -0.1633
17778TIP3    H174825   1.714   5.504  16.136  0.2845  1.1202 -1.0310
17778TIP3    H274826   1.775   5.540  16.270  0.8108  0.2838 -1.0391
17779TIP3   OH274827   0.335   0.416  13.241  0.4138 -0.2201 -0.3098
17779TIP3    H174828   0.249   0.458  13.232  1.0108  0.7648 -1.7873
17779TIP3    H274829   0.324   0.356  13.315 -1.6358 -0.3720 -0.6590
17780TIP3   OH274830   5.605   1.416  11.932 -0.1627 -0.6117 -0.1425
17780TIP3    H174831   5.599   1.379  11.843 -1.6343  3.4771 -2.0273
17780TIP3    H274832   5.513   1.425  11.960  0.1938 -0.0095  0.8953
17781TIP3   OH274833   2.904   4.833   5.246 -0.2253  1.0646 -0.1369
17781TIP3    H174834   2.901   4.813   5.152  0.1991  1.9613 -0.3529
17781TIP3    H274835   2.991   4.871   5.260 -0.3702  1.1546  0.5750
17782TIP3   OH274836   3.168   3.758  12.029 -0.2198  0.1740 -0.1672
17782TIP3    H174837   3.087   3.760  12.078  0.2538  0.5725  0.6128
17782TIP3    H274838   3.143   3.726  11.942 -1.0587 -0.5262  0.3247
17783TIP3   OH274839   2.558   4.956   3.884  0.0473 -0.2674 -0.1818
17783TIP3    H174840   2.561   4.905   3.965 -1.9850  0.4551  0.3959
17783TIP3    H274841   2.527   4.895   3.818 -0.0148 -0.4026 -0.0270
17784TIP3   OH274842   3.187   3.989  12.475  0.0442  0.0258  0.2082
17784TIP3    H174843   3.212   3.935  12.550 -1.2799  0.6909  1.1702
17784TIP3    H274844   3.261   3.983  12.414  0.3794 -1.9742  0.7675
17785TIP3   OH274845   4.830   4.859  15.499 -0.5460 -0.7999 -0.4708
17785TIP3    H174846   4.753   4.838  15.448  0.4475  0.3831 -2.5972
17785TIP3    H274847   4.881   4.917  15.443  2.1937 -1.9974  0.5859
17786TIP3   OH274848   3.160   0.023  11.574 -0.3606  0.1642 -0.2709
17786TIP3    H174849   3.098   0.092  11.548 -0.8291 -0.1827 -0.0766
17786TIP3    H274850   3.243   0.052  11.537  0.5038  3.1257  3.3745
17787TIP3   OH274851   4.194   3.949   3.778 -0.3941  0.1872  0.2450
17787TIP3    H174852   4.261   3.994   3.829  0.5701  0.2261 -0.9953
17787TIP3    H274853   4.238   3.871   3.745 -1.4170 -0.5572  0.6106
17788TIP3   OH274854   3.456   2.549   3.774 -0.6167  0.4470  0.4090
17788TIP3    H174855   3.398   2.473   3.777 -1.6384  1.1883 -0.1016
17788TIP3    H274856   3.405   2.618   3.731  1.4423  0.4241 -2.3980
17789TIP3   OH274857   0.547   1.379   4.572  0.0406 -0.0028 -1.0269
17789TIP3    H174858   0.459   1.344   4.560  0.5528 -1.7001 -0.2436
17789TIP3    H274859   0.547   1.413   4.662 -0.1512  1.1413 -1.4412
17790TIP3   OH274860   6.636   2.132   2.404  0.0169  0.2856 -0.1652
17790TIP3    H174861   6.669   2.113   2.316  0.2986  2.6918 -0.6675
17790TIP3    H274862   6.611   2.225   2.400  0.4798  0.5969  2.4219
17791TIP3   OH274863   3.649   2.560   6.377 -0.2764 -0.3506 -0.4198
17791TIP3    H174864   3.678   2.620   6.308  0.9370 -0.1122  0.2523
17791TIP3    H274865   3.697   2.589   6.455  1.7807 -3.2564 -0.4296
17792TIP3   OH274866   2.179   1.411   0.591 -0.7420 -0.4870 -0.2526
17792TIP3    H174867   2.267   1.435   0.621 -0.3907 -0.2533 -1.4238
17792TIP3    H274868   2.182   1.424   0.497 -2.2050  0.0143 -0.2431
17793TIP3   OH274869   6.522   4.949  14.129  0.0484 -0.1041  0.3631
17793TIP3    H174870   6.600   4.995  14.099 -0.2763 -0.3805 -0.9572
17793TIP3    H274871   6.470   5.016  14.174 -0.0289  0.6339 -0.7911
17794TIP3   OH274872   5.469   2.868   1.298 -0.1660 -0.6207  0.2528
17794TIP3    H174873   5.487   2.958   1.323  3.4437 -1.5528  1.6065
17794TIP3    H274874   5.500   2.861   1.207 -0.1696 -0.5762  0.2483
17795TIP3   OH274875   2.050   0.196  17.379 -0.2150  0.0758  0.1192
17795TIP3    H174876   2.113   0.269  17.384 -1.3886  1.1061  0.4030
17795TIP3    H274877   2.037   0.183  17.285  0.6464 -0.3659  0.0486
17796TIP3   OH274878   5.299   3.767  15.613 -0.2703  0.1273  0.5520
17796TIP3    H174879   5.215   3.807  15.638 -0.6173 -0.1807 -0.1155
17796TIP3    H274880   5.360   3.795  15.682 -0.9400  0.2738  1.0935
17797TIP3   OH274881   5.767   5.734  13.871  0.4786  0.1492  0.1597
17797TIP3    H174882   5.848   5.785  13.861  0.2340  0.4909 -0.1330
17797TIP3    H274883   5.759   5.686  13.789 -0.4725  1.3885 -0.5030
17798TIP3   OH274884   3.825   0.076   2.879 -0.0851 -0.4060 -0.5878
17798TIP3    H174885   3.766   0.093   2.952  2.3718 -3.2024  2.2992
17798TIP3    H274886   3.784   0.004   2.832 -0.7105  0.1063 -0.8482
17799TIP3   OH274887   6.410   1.623   6.419  0.1389  0.2638 -0.0414
17799TIP3    H174888   6.452   1.567   6.485 -2.1920 -0.1178  1.2037
17799TIP3    H274889   6.401   1.708   6.462 -2.4591 -0.3000  0.6554
17800TIP3   OH274890   0.849   0.187  16.840 -0.0308 -0.2229  0.2864
17800TIP3    H174891   0.792   0.251  16.883  0.1666 -1.8426  3.2622
17800TIP3    H274892   0.798   0.105  16.842  1.1272 -0.9739 -0.0574
17801TIP3   OH274893   6.677   0.251  13.473 -0.2296 -0.1856 -0.0839
17801TIP3    H174894   6.650   0.240  13.382 -2.9184  1.0417  0.4537
17801TIP3    H274895   6.642   0.173  13.518 -0.5125  0.0994  0.1930
17802TIP3   OH274896   2.721   4.149  16.233 -0.1641  0.0773  0.1490
17802TIP3    H174897   2.637   4.106  16.250 -1.1318  1.6235 -0.4163
17802TIP3    H274898   2.772   4.085  16.184 -0.3600 -1.5067  1.9435
17803TIP3   OH274899   1.877   1.089   6.783 -0.2858  0.3624 -0.1958
17803TIP3    H174900   1.815   1.152   6.820 -0.8990  0.6985 -1.7337
17803TIP3    H274901   1.825   1.010   6.767  0.1441 -0.0374  0.3474
17804TIP3   OH274902   2.445   0.940   0.463 -0.1684 -0.8368 -0.2522
17804TIP3    H174903   2.404   0.872   0.409 -0.2231 -2.8988  2.2063
17804TIP3    H274904   2.523   0.966   0.413 -2.1891  0.2653 -3.1130
17805TIP3   OH274905   0.510   6.692  13.051  0.0360  0.0434 -0.2175
17805TIP3    H174906   0.435   6.751  13.048  0.2943  0.5182  1.5835
17805TIP3    H274907   0.586   6.750  13.057  0.5021 -0.4529 -1.0806
17806TIP3   OH274908   2.772   4.771   2.022 -0.3099 -0.0883  0.0151
17806TIP3    H174909   2.723   4.709   2.075  1.1240 -0.9142  0.4306
17806TIP3    H274910   2.863   4.744   2.031  0.1030  0.4240 -1.9820
17807TIP3   OH274911   1.033   5.801   2.133  0.2427 -0.8699  0.7516
17807TIP3    H174912   0.978   5.723   2.125 -0.6233 -0.0910 -2.4641
17807TIP3    H274913   1.114   5.779   2.087  0.4612 -0.2740  0.8362
17808TIP3   OH274914   3.346   6.321  14.780  0.7939 -0.2739 -0.3000
17808TIP3    H174915   3.324   6.300  14.871 -0.2036  0.0950 -0.4345
17808TIP3    H274916   3.377   6.239  14.742  1.0036 -0.4789  0.3172
17809TIP3   OH274917   4.898   3.481   3.818  0.4314  0.2326 -0.1289
17809TIP3    H174918   4.828   3.424   3.850  0.4631  0.5591  0.5207
17809TIP3    H274919   4.873   3.569   3.845  2.0632  0.1443  1.9262
17810TIP3   OH274920   4.494   2.881   6.086 -0.1223 -0.9001 -0.0487
17810TIP3    H174921   4.491   2.828   6.166  0.7504 -0.3524  0.3630
17810TIP3    H274922   4.407   2.920   6.080 -0.7985 -2.3825 -0.3757
17811TIP3   OH274923   2.318   4.002  16.844  0.4145  0.1899 -0.1478
17811TIP3    H174924   2.385   3.981  16.778  0.2813  1.6400 -0.7802
17811TIP3    H274925   2.303   4.096  16.834 -2.5258 -0.2537 -0.7735
17812TIP3   OH274926   3.008   6.275  11.759 -0.0887  0.1581 -0.5134
17812TIP3    H174927   3.099   6.286  11.786 -0.9013 -0.8710  3.1371
17812TIP3    H274928   3.004   6.189  11.718  1.0205  1.4360 -3.6685
17813TIP3   OH274929   0.840   1.192   2.953  0.0513  0.0275 -0.1034
17813TIP3    H174930   0.855   1.182   2.859 -1.3446  0.5695 -0.4021
17813TIP3    H274931   0.827   1.102   2.985 -1.7803 -0.0280 -0.8713
17814TIP3   OH274932   5.207   5.957  15.622 -0.2148  0.0295 -0.0131
17814TIP3    H174933   5.246   6.044  15.615  0.6973 -0.3690 -0.0497
17814TIP3    H274934   5.116   5.973  15.647  0.1561  0.9582  0.7902
17815TIP3   OH274935   1.133   5.971   5.281  0.0085  0.3796  0.3617
17815TIP3    H174936   1.105   5.895   5.333  3.0496 -1.4736 -0.5013
17815TIP3    H274937   1.108   5.950   5.191 -0.2841  1.0471  0.2767
17816TIP3   OH274938   1.088   6.153  13.992 -0.1285  0.8446 -0.3906
17816TIP3    H174939   1.160   6.188  14.043 -1.9960  1.8094  1.7399
17816TIP3    H274940   1.085   6.207  13.913  0.0610  2.3389  0.5919
17817TIP3   OH274941   1.133   2.683  12.578 -0.3055 -0.1975 -0.3098
17817TIP3    H174942   1.226   2.704  12.586 -0.6169  1.2322 -0.2733
17817TIP3    H274943   1.130   2.587  12.585  1.3125 -0.4166 -1.8349
17818TIP3   OH274944   3.721   5.855  13.058  0.5575 -0.1178 -0.5135
17818TIP3    H174945   3.704   5.884  12.968 -1.1536 -1.6370 -0.7209
17818TIP3    H274946   3.636   5.826  13.091  1.0773  0.6960  1.7421
17819TIP3   OH274947   1.908   5.002  12.522  0.5511 -0.0219 -0.1819
17819TIP3    H174948   1.901   5.045  12.436 -1.0276  0.4934  0.1651
17819TIP3    H274949   1.862   5.061  12.581  1.2464 -0.5930  0.9566
17820TIP3   OH274950   3.312   3.222   2.386  0.3419  0.3766 -0.3597
17820TIP3    H174951   3.277   3.213   2.297  1.3606 -0.8554 -0.6705
17820TIP3    H274952   3.380   3.154   2.392  1.3161  1.3992  0.8611
17821TIP3   OH274953   6.167   1.104  14.534  0.0174  0.0786 -0.7204
17821TIP3    H174954   6.150   1.054  14.614 -0.3885  0.7574 -0.3716
17821TIP3    H274955   6.241   1.161  14.557  0.8020 -0.6890 -1.2693
17822TIP3   OH274956   2.067   5.957  15.270 -0.8324 -0.1742  0.0637
17822TIP3    H174957   2.098   5.888  15.329  0.2011 -0.7552 -1.1098
17822TIP3    H274958   2.136   6.023  15.272  0.6806 -1.4859 -2.5856
17823TIP3   OH274959   3.386   2.117  15.071  0.0172  0.3900  0.1814
17823TIP3    H174960   3.299   2.154  15.082  0.0700  1.2002 -1.7466
17823TIP3    H274961   3.412   2.142  14.982  1.9016 -0.4884  0.4321
17824TIP3   OH274962   0.220   1.815  13.989 -0.1325  0.7222  0.3398
17824TIP3    H174963   0.204   1.774  13.904  0.9766 -1.0328  0.9220
17824TIP3    H274964   0.164   1.766  14.050  0.4638  0.7293  0.9045
17825TIP3   OH274965   4.152   1.865   0.188  0.2574  0.1308  0.7399
17825TIP3    H174966   4.233   1.819   0.166 -0.6316 -0.4897 -1.5067
17825TIP3    H274967   4.179   1.955   0.206  1.4194  0.0352 -0.4154
17826TIP3   OH274968   5.014   0.675   1.286 -0.5732 -0.1103 -0.3726
17826TIP3    H174969   5.087   0.672   1.348 -1.6744 -0.5715  0.9474
17826TIP3    H274970   5.051   0.714   1.207  0.9904  0.0592  0.4132
17827TIP3   OH274971   4.285   5.918   6.142  1.1339 -0.1178  0.8419
17827TIP3    H174972   4.340   5.879   6.074 -1.4904 -0.3275 -1.3353
17827TIP3    H274973   4.230   5.845   6.172  0.6689  0.4960  1.5002
17828TIP3   OH274974   0.745   3.692   0.010  0.1447  0.3053  0.0356
17828TIP3    H174975   0.780   3.777  -0.017  0.9905 -0.1886 -0.4495
17828TIP3    H274976   0.731   3.700   0.104  2.8524  0.0971  0.5210
17829TIP3   OH274977   6.479   1.909   2.529  0.3152 -0.2099  0.0893
17829TIP3    H174978   6.537   1.979   2.498 -0.9169  0.5595 -0.5850
17829TIP3    H274979   6.417   1.897   2.457 -1.0505 -0.2003  1.2322
17830TIP3   OH274980   2.730   5.609   3.733  0.7126 -0.1345  0.7189
17830TIP3    H174981   2.760   5.521   3.755  0.4384 -0.0605  1.4388
17830TIP3    H274982   2.738   5.615   3.638 -2.1576 -2.0259  0.2394
17831TIP3   OH274983   5.455   4.538   2.312 -0.0772  0.6925  0.2322
17831TIP3    H174984   5.463   4.451   2.351 -2.3624  0.3125  0.0016
17831TIP3    H274985   5.537   4.552   2.266  0.5747 -1.0689  0.7901
17832TIP3   OH274986   3.024   3.995  14.208  0.0683  0.2679  0.2341
17832TIP3    H174987   3.084   4.047  14.155 -1.6303  0.6126 -1.4752
17832TIP3    H274988   3.067   3.986  14.292  3.2928 -0.9950 -1.3944
17833TIP3   OH274989   2.144   4.860  12.160 -0.3452  0.0160  0.3710
17833TIP3    H174990   2.097   4.799  12.217 -1.9442  0.2690 -0.6222
17833TIP3    H274991   2.174   4.806  12.087 -1.1524  0.2734 -0.1603
17834TIP3   OH274992   1.679   4.600  15.198  0.3135  0.3007 -0.0688
17834TIP3    H174993   1.697   4.507  15.207  0.1480  0.3514  0.8714
17834TIP3    H274994   1.630   4.607  15.116  0.2910 -0.4415 -0.1239
17835TIP3   OH274995   3.928   4.045  14.940  0.1723 -0.1551 -0.2344
17835TIP3    H174996   3.903   4.099  14.865 -1.0381  0.6780  0.7227
17835TIP3    H274997   3.889   3.959  14.921 -0.0963  0.0397 -0.5827
17836TIP3   OH274998   4.494   0.999  16.197 -0.6609 -0.0035  0.0265
17836TIP3    H174999   4.558   0.933  16.173  0.1969  0.9436 -0.3426
17836TIP3    H275000   4.533   1.045  16.272 -2.1156 -1.1693  1.5965
17837TIP3   OH275001   2.980   5.516  13.083  0.0411  0.1592 -0.3986
17837TIP3    H175002   2.914   5.461  13.126  0.2468  0.4214  0.2629
17837TIP3    H275003   3.049   5.456  13.056  0.8376  0.2048  1.3832
17838TIP3   OH275004   3.866   5.568  14.209  0.3069 -0.5753 -0.4173
17838TIP3    H175005   3.811   5.561  14.131  0.4225  0.4666 -0.6097
17838TIP3    H275006   3.884   5.478  14.234  0.0133 -0.9238 -1.4130
17839TIP3   OH275007   6.660   0.320   2.053 -0.1043 -0.1723 -0.1992
17839TIP3    H175008   6.621   0.248   2.103 -0.4557  1.4837  2.0822
17839TIP3    H275009   6.608   0.397   2.077  2.1382  1.4069 -0.0718
17840TIP3   OH275010   2.424   3.745  14.873  0.6086 -0.0985  0.5766
17840TIP3    H175011   2.435   3.668  14.817 -1.1638  1.4499 -2.1231
17840TIP3    H275012   2.344   3.727  14.923  0.4190 -0.1751  0.2457
17841TIP3   OH275013   3.252   2.782  10.882  0.0485  0.8005  0.4328
17841TIP3    H175014   3.251   2.687  10.868 -0.4106  0.9437 -0.6338
17841TIP3    H275015   3.167   2.801  10.921 -1.0141  1.0758 -1.8461
17842TIP3   OH275016   2.205   0.733  15.380  0.3705 -0.1299 -0.0530
17842TIP3    H175017   2.184   0.643  15.357  1.3621 -0.6018  0.8055
17842TIP3    H275018   2.168   0.745  15.467 -1.4477  0.9452 -0.9089
17843TIP3   OH275019   2.684   1.032   0.667 -0.0329  0.1193  0.3416
17843TIP3    H175020   2.727   0.948   0.653 -1.2647 -0.5199  0.2060
17843TIP3    H275021   2.664   1.064   0.579 -1.7605 -0.6636  0.4026
17844TIP3   OH275022   6.045   4.082  12.662 -0.6922 -0.5658 -0.4954
17844TIP3    H175023   6.132   4.108  12.631 -1.3444  2.7730  0.1170
17844TIP3    H275024   6.057   4.068  12.756 -1.1646  2.3199  0.0818
17845TIP3   OH275025   6.762   5.964  16.844 -0.0497 -0.2114  0.0903
17845TIP3    H175026   6.765   5.881  16.891  2.1458  0.8373  2.0128
17845TIP3    H275027   6.690   6.012  16.886  0.3597 -0.1858  0.7768
17846TIP3   OH275028   5.759   2.825  11.111  0.0024  0.4111  0.4337
17846TIP3    H175029   5.825   2.867  11.055  0.6768  0.4662  1.2536
17846TIP3    H275030   5.746   2.887  11.183 -3.3881  1.9958 -1.2992
17847TIP3   OH275031   0.267   4.878  15.742 -0.3291 -0.1354 -0.0253
17847TIP3    H175032   0.360   4.861  15.732 -0.2383  1.5171 -3.1310
17847TIP3    H275033   0.229   4.793  15.763  1.4942 -1.6967 -2.4721
17848TIP3   OH275034   0.550   1.375  13.457  0.4280 -0.1445 -0.2110
17848TIP3    H175035   0.571   1.462  13.424 -0.1894 -0.1056 -0.5140
17848TIP3    H275036   0.596   1.369  13.541 -0.0449  0.7195  0.1222
17849TIP3   OH275037   5.723   6.152   5.604 -0.1279  0.5132 -0.4583
17849TIP3    H175038   5.764   6.103   5.532  0.8259  2.3603 -1.2420
17849TIP3    H275039   5.790   6.152   5.673 -0.6473 -0.3892  0.0600
17850TIP3   OH275040   2.982   5.710   6.643  0.1646 -0.3569 -0.1532
17850TIP3    H175041   3.059   5.653   6.642  0.7213  0.3307  1.2565
17850TIP3    H275042   2.907   5.650   6.638  0.7655 -1.1233 -0.0461
17851TIP3   OH275043   4.628   5.959   5.763 -0.2032  0.5066  0.3822
17851TIP3    H175044   4.543   5.990   5.732  0.1594  0.3812 -0.7963
17851TIP3    H275045   4.692   6.015   5.719  0.3506 -0.0467  0.4588
17852TIP3   OH275046   1.033   6.175  11.299  0.3332 -0.6029 -0.0133
17852TIP3    H175047   1.015   6.141  11.212  0.7241  1.2169 -0.8479
17852TIP3    H275048   1.078   6.258  11.284  1.5336 -0.8317  1.9321
17853TIP3   OH275049   3.438   5.155  13.899 -0.3359 -0.0923  0.1462
17853TIP3    H175050   3.482   5.127  13.819 -0.6414 -0.3042  0.0496
17853TIP3    H275051   3.506   5.158  13.965  0.0088  0.5129 -0.2257
17854TIP3   OH275052   2.210   2.759   3.977  0.5507  0.2915  0.2146
17854TIP3    H175053   2.253   2.674   3.984  0.4578  0.3528  2.4998
17854TIP3    H275054   2.118   2.738   3.961  0.2177 -0.1774  2.4028
17855TIP3   OH275055   1.528   6.164  11.724 -0.2905 -0.3242  0.2081
17855TIP3    H175056   1.438   6.186  11.702 -0.0578 -0.7743 -1.2728
17855TIP3    H275057   1.524   6.136  11.816 -1.4547  0.6828  0.4934
17856TIP3   OH275058   2.545   3.173   1.497 -0.5782 -0.4062  0.2833
17856TIP3    H175059   2.466   3.179   1.443 -1.5048  0.3137  1.6746
17856TIP3    H275060   2.526   3.103   1.560  0.8525 -1.8765 -0.8262
17857TIP3   OH275061   4.443   5.640  15.379 -0.4134 -0.1265  0.2970
17857TIP3    H175062   4.526   5.673  15.412  0.1110 -0.3448 -0.7736
17857TIP3    H275063   4.396   5.718  15.351 -0.0112 -0.1080 -0.3394
17858TIP3   OH275064   2.734   3.035   3.732  0.6192 -0.1501 -0.6480
17858TIP3    H175065   2.811   3.087   3.710  0.5633 -0.2295 -1.0428
17858TIP3    H275066   2.746   3.012   3.824 -0.7216  2.9435  0.4338
17859TIP3   OH275067   2.080   2.913  11.235 -0.1574  0.3893  0.3530
17859TIP3    H175068   2.050   2.912  11.144  0.8952 -1.9477 -0.0568
17859TIP3    H275069   2.001   2.897  11.287 -0.9089  2.5727 -0.0287
17860TIP3   OH275070   6.367   5.462  11.517  0.1632 -0.7641 -0.4221
17860TIP3    H175071   6.372   5.474  11.422 -1.6559  1.1764 -0.3387
17860TIP3    H275072   6.279   5.490  11.540  0.6547 -0.9192  1.9093
17861TIP3   OH275073   0.901   2.070  16.633  0.2532 -0.2074 -0.2151
17861TIP3    H175074   0.896   2.080  16.728 -3.0061  1.8825 -0.4611
17861TIP3    H275075   0.844   1.995  16.614  2.0077 -1.5310 -0.5028
17862TIP3   OH275076   0.902   2.423   3.806  0.5381 -0.4859  0.1643
17862TIP3    H175077   0.997   2.411   3.808  0.4690 -1.0904  0.0978
17862TIP3    H275078   0.875   2.390   3.720  0.2773 -0.2376  0.1475
17863TIP3   OH275079   0.057   4.419  14.503 -0.0185 -1.0208 -0.0291
17863TIP3    H175080   0.078   4.474  14.578  0.6948 -1.7977  0.3586
17863TIP3    H275081   0.026   4.337  14.541  0.0762 -1.3208 -0.5921
17864TIP3   OH275082   1.283   6.054   2.630 -0.0384  0.6239 -0.3464
17864TIP3    H175083   1.283   5.978   2.572 -1.1269  0.8543 -0.6901
17864TIP3    H275084   1.191   6.062   2.657  0.3031  1.0515  0.7069
17865TIP3   OH275085   5.938   3.911   3.727  0.1520  0.4872  0.7336
17865TIP3    H175086   5.957   3.919   3.633 -0.3386 -0.5949  0.5290
17865TIP3    H275087   6.002   3.968   3.769 -0.2843  1.8044 -0.3167
17866TIP3   OH275088   5.432   5.774   3.873 -0.7975 -0.2311 -0.7503
17866TIP3    H175089   5.388   5.823   3.804  1.4764  0.4385 -1.8410
17866TIP3    H275090   5.515   5.820   3.886 -0.8884 -0.6943  2.0528
17867TIP3   OH275091   5.259   5.990   6.543 -0.6810  0.0542  0.4487
17867TIP3    H175092   5.183   6.010   6.597 -0.7304 -0.9929  0.7881
17867TIP3    H275093   5.304   6.073   6.534 -2.0609  0.7809 -0.0790
17868TIP3   OH275094   1.711   1.894  14.835 -0.1029 -0.0412  0.2198
17868TIP3    H175095   1.734   1.801  14.831 -1.3167 -0.3141 -2.4242
17868TIP3    H275096   1.637   1.903  14.775  0.4725  2.7779 -0.2082
17869TIP3   OH275097   3.668   0.327   3.844  0.0391 -0.4920 -0.0921
17869TIP3    H175098   3.681   0.410   3.799  0.2460 -1.5186 -2.0734
17869TIP3    H275099   3.581   0.334   3.883 -0.1251  0.4885 -0.6016
17870TIP3   OH275100   3.066   2.615   6.110 -0.5846  0.5630 -0.1339
17870TIP3    H175101   2.970   2.617   6.116 -0.6956 -2.2401  0.6325
17870TIP3    H275102   3.094   2.573   6.191  1.3408  1.5278 -0.2536
17871TIP3   OH275103   0.206   4.032  12.657  0.0750  0.4163  0.2476
17871TIP3    H175104   0.248   4.116  12.673 -0.1378  0.2434  1.8115
17871TIP3    H275105   0.265   3.967  12.696  0.3974 -0.2233 -1.2073
17872TIP3   OH275106   2.432   3.551   1.730  0.0862  0.0293 -0.4253
17872TIP3    H175107   2.397   3.518   1.813 -1.2172 -0.8850 -1.3066
17872TIP3    H275108   2.356   3.587   1.684  0.5366 -0.7351 -1.8031
17873TIP3   OH275109   3.786   3.431   1.969  0.6532  0.0989  0.0081
17873TIP3    H175110   3.737   3.442   1.887  0.5502 -1.5443 -0.1924
17873TIP3    H275111   3.730   3.470   2.036  1.2836  2.5533 -0.8171
17874TIP3   OH275112   2.270   5.008  16.291  0.0023 -0.0470 -0.1096
17874TIP3    H175113   2.190   4.962  16.265 -0.0064  0.2032 -0.5255
17874TIP3    H275114   2.268   5.006  16.387  0.5195 -1.8510 -0.0901
17875TIP3   OH275115   1.145   0.322   7.030  0.7659  0.4264 -0.0602
17875TIP3    H175116   1.199   0.399   7.012  2.7600 -0.9073 -0.1130
17875TIP3    H275117   1.204   0.247   7.017 -0.8302 -1.0875  0.8934
17876TIP3   OH275118   5.235   3.022   5.140 -0.2307  0.0895 -0.7220
17876TIP3    H175119   5.217   3.063   5.056  0.0599  0.8105 -0.4458
17876TIP3    H275120   5.329   3.004   5.139 -0.2499 -0.0242 -0.6047
17877TIP3   OH275121   2.059   0.047  13.981 -0.3079 -0.3924  0.1874
17877TIP3    H175122   2.071   0.094  14.063  0.3510 -2.1035  1.1308
17877TIP3    H275123   2.049  -0.044  14.007 -0.5618 -0.9135 -1.6136
17878TIP3   OH275124   2.225   1.932  13.940 -0.4805  0.0410  0.2111
17878TIP3    H175125   2.255   1.923  13.850 -0.8506 -2.4770  0.2803
17878TIP3    H275126   2.218   2.027  13.953  0.9813  0.5213 -1.9071
17879TIP3   OH275127   3.056   0.978  12.807 -0.0169 -0.4098 -0.2406
17879TIP3    H175128   3.076   1.028  12.728 -0.0430 -0.3684 -0.2214
17879TIP3    H275129   3.070   1.041  12.878  3.1926 -1.3253  0.0678
17880TIP3   OH275130   2.083   3.332  12.370 -0.4664 -0.1242  0.3842
17880TIP3    H175131   2.005   3.288  12.336  0.3752 -1.6321  0.3386
17880TIP3    H275132   2.146   3.330  12.298  0.6976 -1.7435  1.3795
17881TIP3   OH275133   1.758   6.530  16.656 -0.0429  0.4408 -0.2817
17881TIP3    H175134   1.851   6.510  16.661 -0.0583  0.4743  0.2635
17881TIP3    H275135   1.753   6.608  16.602  0.3357  1.0099  0.4976
17882TIP3   OH275136   1.336   1.588  14.165  0.1764 -0.1557 -0.6853
17882TIP3    H175137   1.395   1.541  14.106 -1.6582 -0.5070 -2.3816
17882TIP3    H275138   1.391   1.652  14.209  1.8268 -0.5509 -2.0584
17883TIP3   OH275139   1.352   6.120  13.662  0.2759 -0.1348 -0.4330
17883TIP3    H175140   1.417   6.099  13.729  0.4544  1.4480 -0.0669
17883TIP3    H275141   1.403   6.154  13.589 -0.0545  0.0848 -0.5655
17884TIP3   OH275142   5.255   5.654   2.487 -0.6905  0.1374 -0.2038
17884TIP3    H175143   5.238   5.705   2.566  0.9175  0.8240 -0.2729
17884TIP3    H275144   5.277   5.566   2.520 -0.7708  0.2149  0.0619
17885TIP3   OH275145   6.386   3.623   0.274  0.4048  0.0042  0.3891
17885TIP3    H175146   6.338   3.541   0.278  1.0584 -0.3703  0.6985
17885TIP3    H275147   6.423   3.633   0.362  1.7779 -0.2525 -0.1452
17886TIP3   OH275148   3.947   0.313  13.654 -0.6810  0.1166 -0.0553
17886TIP3    H175149   3.981   0.318  13.743  0.0861 -0.1743 -0.3257
17886TIP3    H275150   3.868   0.259  13.661 -0.7829  0.3396  0.4905
17887TIP3   OH275151   1.771   3.705   3.693  0.8731 -0.2972 -0.1836
17887TIP3    H175152   1.755   3.627   3.640 -1.1098 -0.9408  1.2281
17887TIP3    H275153   1.753   3.778   3.634 -0.4203 -0.9775 -0.6804
17888TIP3   OH275154   0.215   5.274   2.636 -0.5234  0.1641 -0.3979
17888TIP3    H175155   0.207   5.188   2.678  1.2507 -0.3597 -1.0339
17888TIP3    H275156   0.289   5.315   2.680 -1.2965  1.3523 -0.1733
17889TIP3   OH275157   5.908   2.663  12.355  0.0058  0.3485  0.0954
17889TIP3    H175158   5.860   2.674  12.437 -0.2475  0.8602 -0.1190
17889TIP3    H275159   5.992   2.706  12.372 -0.5861  1.7511 -0.3843
17890TIP3   OH275160   0.271   2.011   2.972  0.2229  0.8046  0.2988
17890TIP3    H175161   0.292   1.929   3.017  0.2688 -0.6241 -2.1476
17890TIP3    H275162   0.194   1.990   2.919  0.2650  2.3381 -0.4254
17891TIP3   OH275163   5.561   1.651   4.982 -0.0744 -0.3606  0.0782
17891TIP3    H175164   5.547   1.688   5.069  1.2246  0.6950 -0.1190
17891TIP3    H275165   5.473   1.633   4.949 -0.6321  0.1541  1.2174
17892TIP3   OH275166   6.067   4.594   3.261 -0.6781  0.0652  0.5914
17892TIP3    H175167   6.096   4.532   3.194 -1.4580 -0.4488  0.7184
17892TIP3    H275168   6.039   4.671   3.212 -0.0567  0.1839  0.4103
17893TIP3   OH275169   3.915   5.072   1.479 -0.7959 -0.2138 -0.1416
17893TIP3    H175170   3.859   5.148   1.464 -2.0439 -0.8962  0.8810
17893TIP3    H275171   3.897   5.013   1.406 -0.0408  0.3151 -0.7795
17894TIP3   OH275172   2.322   2.050  15.703  0.4847 -0.5271  0.6022
17894TIP3    H175173   2.271   2.009  15.773  1.8998 -1.7178  0.9945
17894TIP3    H275174   2.391   1.987  15.684  0.5651  0.0806 -1.4002
17895TIP3   OH275175   6.324   6.768   1.429  0.0018 -0.5169  0.1127
17895TIP3    H175176   6.240   6.731   1.457  0.0910 -2.0884 -1.5020
17895TIP3    H275177   6.375   6.692   1.400  2.0098  0.4004  1.0317
17896TIP3   OH275178   0.064   2.338  16.186 -0.2136  0.2920 -0.2513
17896TIP3    H175179  -0.027   2.359  16.205 -0.6178 -3.0866  2.5845
17896TIP3    H275180   0.065   2.316  16.093 -2.5491 -0.5163 -0.1435
17897TIP3   OH275181   1.995   3.113  12.872 -0.3418  0.2345  0.2291
17897TIP3    H175182   1.973   3.028  12.910 -0.5363  1.2483  2.5682
17897TIP3    H275183   2.089   3.122  12.887 -0.1830  0.1172 -0.6919
17898TIP3   OH275184   3.332   5.787   2.462 -0.0997 -0.0277  0.5151
17898TIP3    H175185   3.321   5.812   2.554 -1.2840 -3.7231  1.5463
17898TIP3    H275186   3.415   5.740   2.460  0.4710  0.9709 -0.6142
17899TIP3   OH275187   6.071   4.221  16.090  0.1363  0.7089  0.2473
17899TIP3    H175188   6.116   4.139  16.067  2.0062  1.4953  0.9605
17899TIP3    H275189   6.114   4.288  16.038 -2.6792  1.0896 -1.8510
17900TIP3   OH275190   0.458   3.224  15.815 -0.3568 -0.1277  0.2529
17900TIP3    H175191   0.445   3.135  15.848  1.0319 -0.0743  1.0447
17900TIP3    H275192   0.492   3.212  15.726  0.1302 -0.4168  0.4707
17901TIP3   OH275193   4.684   4.048   5.335  0.6991 -0.1990 -0.6915
17901TIP3    H175194   4.738   3.968   5.333  1.8425  0.5500 -0.4051
17901TIP3    H275195   4.634   4.044   5.254  0.3158 -1.4869 -0.4266
17902TIP3   OH275196   5.178   1.075   6.399  0.1482 -0.1068 -0.5764
17902TIP3    H175197   5.210   1.164   6.387 -0.1349  0.0441 -0.2338
17902TIP3    H275198   5.223   1.044   6.478 -2.0868  0.8650  1.2074
17903TIP3   OH275199   5.334   5.628   2.215  0.0312 -0.0813 -0.3693
17903TIP3    H175200   5.426   5.607   2.197 -0.3351  0.1978 -2.9137
17903TIP3    H275201   5.335   5.667   2.302  2.1944 -0.8901  0.0212
17904TIP3   OH275202   4.429   1.890   2.691  0.3179  0.2536  0.3740
17904TIP3    H175203   4.341   1.870   2.723 -0.2091 -0.1828 -1.2463
17904TIP3    H275204   4.441   1.832   2.615  2.0665  0.2082  0.6327
17905TIP3   OH275205   3.782   5.805   5.478  0.2721 -0.2623 -0.0006
17905TIP3    H175206   3.754   5.733   5.535  2.0344 -1.5746 -0.6807
17905TIP3    H275207   3.863   5.773   5.438  0.3609  1.5711 -1.4097
17906TIP3   OH275208   0.719   6.531  12.850  0.4890 -0.2206  0.0575
17906TIP3    H175209   0.699   6.625  12.855 -1.4535 -0.5492 -0.6083
17906TIP3    H275210   0.812   6.525  12.872  0.4478  1.7601  1.0031
17907TIP3   OH275211   5.426   1.018  13.050  0.0445  0.2689  0.5389
17907TIP3    H175212   5.491   1.025  13.120  0.2336 -1.7183  0.5985
17907TIP3    H275213   5.342   1.011  13.096 -0.3469  3.2113  0.4600
17908TIP3   OH275214   3.696   6.100  15.347  0.1265 -0.1108  0.5304
17908TIP3    H175215   3.675   6.186  15.384 -0.3792 -1.0501  2.5574
17908TIP3    H275216   3.731   6.050  15.420 -1.1126 -2.1535 -0.1870
17909TIP3   OH275217   4.685   0.835  15.483 -0.5876 -0.0568  0.1559
17909TIP3    H175218   4.722   0.798  15.563 -1.5465 -0.0457  0.6058
17909TIP3    H275219   4.641   0.762  15.440  0.7612 -0.3081 -0.8942
17910TIP3   OH275220   0.119   5.991  15.625 -0.7650 -0.6197 -0.7201
17910TIP3    H175221   0.177   5.915  15.613  0.3563  0.2887 -1.1935
17910TIP3    H275222   0.041   5.955  15.667  0.1074 -1.8890 -0.1362
17911TIP3   OH275223   2.026   0.065   3.436 -0.2333  0.6368 -0.5119
17911TIP3    H175224   2.031   0.070   3.341 -0.6927  0.2524 -0.5581
17911TIP3    H275225   1.983  -0.019   3.454 -0.3675  0.8167  0.0250
17912TIP3   OH275226   6.690   3.628   5.739  0.1629 -0.4579 -0.1300
17912TIP3    H175227   6.596   3.646   5.748 -0.1027 -1.8519  0.1002
17912TIP3    H275228   6.732   3.713   5.755 -1.0251  0.1007  0.1709
17913TIP3   OH275229   5.810   4.840   1.095  0.6380 -0.7112 -0.6748
17913TIP3    H175230   5.749   4.815   1.025 -0.0512 -3.2360  0.6987
17913TIP3    H275231   5.890   4.791   1.075  0.8765 -0.4321 -0.4053
17914TIP3   OH275232   1.467   2.409   5.816 -0.0175 -0.0589  0.2014
17914TIP3    H175233   1.531   2.438   5.881 -0.0682  2.0064 -0.5853
17914TIP3    H275234   1.402   2.479   5.814 -1.2734 -1.1963 -0.4236
17915TIP3   OH275235   4.392   1.368   5.025 -0.3752 -0.0890  0.1850
17915TIP3    H175236   4.392   1.370   4.930 -1.4734 -0.0993  0.1721
17915TIP3    H275237   4.442   1.289   5.047  0.4713  0.2822 -0.3529
17916TIP3   OH275238   5.021   5.763   4.518  0.0819  0.1130 -0.2567
17916TIP3    H175239   4.975   5.687   4.483 -0.6596  0.9136 -1.0773
17916TIP3    H275240   5.049   5.737   4.606  0.8399 -1.4899 -0.9496
17917TIP3   OH275241   2.469   0.222  17.488 -0.1845  0.6421  0.1147
17917TIP3    H175242   2.481   0.268  17.572 -1.5022 -0.4322  0.9332
17917TIP3    H275243   2.381   0.184  17.494  0.0143 -0.1366 -1.4374
17918TIP3   OH275244   0.573   2.681   6.956 -0.4344  0.2850 -0.1907
17918TIP3    H175245   0.632   2.755   6.970 -1.0539  1.3525 -2.7141
17918TIP3    H275246   0.486   2.716   6.977 -0.6611  0.1117 -0.8258
17919TIP3   OH275247   0.442   6.512  10.703 -0.2127  0.1911  0.1748
17919TIP3    H175248   0.415   6.598  10.736  0.9792  0.6182  0.0698
17919TIP3    H275249   0.360   6.463  10.696 -0.8342  1.0695  0.9358
17920TIP3   OH275250   0.613   0.872  15.968 -0.3818  0.1275  0.1333
17920TIP3    H175251   0.608   0.967  15.974  0.9027  0.1513  1.1762
17920TIP3    H275252   0.701   0.850  15.998 -0.2167 -1.3174 -1.2599
17921TIP3   OH275253   4.269   1.104  16.947 -0.0314 -0.2194 -0.2891
17921TIP3    H175254   4.194   1.046  16.953 -1.3903  1.4854  0.1059
17921TIP3    H275255   4.304   1.108  17.036  0.0210 -0.3922 -0.3030
17922TIP3   OH275256   0.807   3.646   2.086 -0.1370  0.2330 -0.0950
17922TIP3    H175257   0.765   3.565   2.060 -1.3019  0.6729  0.3721
17922TIP3    H275258   0.880   3.656   2.024 -0.6094 -0.6191 -0.8074
17923TIP3   OH275259   0.397   6.590  12.070 -0.6387  0.0692  0.0859
17923TIP3    H175260   0.442   6.664  12.111 -0.6555  0.4163 -0.5016
17923TIP3    H275261   0.304   6.613  12.074 -0.7115 -0.3050  0.6362
17924TIP3   OH275262   1.964   0.946  14.148  0.4210  0.2774 -0.4480
17924TIP3    H175263   1.948   0.857  14.116 -0.4448  0.0044  0.6726
17924TIP3    H275264   2.047   0.941  14.194  0.8535  0.2917 -1.2021
17925TIP3   OH275265   5.851   6.226   1.935 -0.6360  0.0018 -0.1359
17925TIP3    H175266   5.781   6.273   1.980 -1.3636  1.4508 -2.5952
17925TIP3    H275267   5.926   6.285   1.938 -0.4114 -0.2833 -0.0623
17926TIP3   OH275268   1.898   3.675   1.211  0.3950 -0.5945 -0.1726
17926TIP3    H175269   1.851   3.749   1.173 -1.3753 -0.1930  2.4862
17926TIP3    H275270   1.854   3.598   1.174  0.2376 -0.2812 -0.6507
17927TIP3   OH275271   5.848   5.307   1.102  0.2240  0.0687 -0.3698
17927TIP3    H175272   5.835   5.316   1.008 -1.3350 -1.4839 -0.3482
17927TIP3    H275273   5.821   5.218   1.122  2.5570 -0.3703  1.2543
17928TIP3   OH275274   3.346   0.645  13.070 -0.5857  0.3802 -0.3906
17928TIP3    H175275   3.329   0.603  12.985  0.5692 -0.0084 -0.4542
17928TIP3    H275276   3.272   0.705  13.082 -0.9048  0.2605 -1.5562
17929TIP3   OH275277   3.940   6.759  14.241  0.4954 -0.0671  0.5504
17929TIP3    H175278   4.024   6.801  14.221  2.1363 -2.1791  2.5091
17929TIP3    H275279   3.955   6.715  14.325 -2.4367 -0.9523  0.6923
17930TIP3   OH275280   1.697   3.763   3.186  0.2192  0.4032 -0.1147
17930TIP3    H175281   1.635   3.790   3.255  1.2235 -0.1137  1.0302
17930TIP3    H275282   1.773   3.820   3.200  0.2354  0.6554 -1.1588
17931TIP3   OH275283   3.985   0.082   6.111 -0.1919 -0.7715  0.6173
17931TIP3    H175284   3.964   0.051   6.022  0.9518 -2.0048  0.7363
17931TIP3    H275285   3.905   0.126   6.140  0.0699  1.5801 -1.7913
17932TIP3   OH275286   4.979   1.170  17.173  0.6669  0.1833 -0.8295
17932TIP3    H175287   5.063   1.215  17.178  1.2803 -0.6044 -3.0076
17932TIP3    H275288   5.000   1.078  17.187  0.3525 -0.1506 -2.4105
17933TIP3   OH275289   1.499   1.761  15.028 -0.1737  0.3125 -0.2547
17933TIP3    H175290   1.560   1.714  14.971 -1.0220  1.0984 -1.8999
17933TIP3    H275291   1.545   1.842  15.050  0.2581 -0.1058  0.4127
17934TIP3   OH275292   5.981   4.919  16.318 -0.0120  0.6294 -0.4153
17934TIP3    H175293   6.043   4.847  16.326  1.9925  2.3469  0.4014
17934TIP3    H275294   5.941   4.926  16.405  0.6446  1.1845 -0.1451
17935TIP3   OH275295   5.346   0.281  14.357  0.4662 -0.2065 -0.1579
17935TIP3    H175296   5.271   0.272  14.415  1.0135  1.7678  0.9142
17935TIP3    H275297   5.403   0.208  14.380  0.2768  0.0537  1.1948
17936TIP3   OH275298   1.047   3.691   1.944 -0.1247  0.5667  0.0778
17936TIP3    H175299   1.111   3.719   2.010  3.3410 -2.0640 -1.8189
17936TIP3    H275300   1.078   3.729   1.862 -0.2704 -1.6187 -1.0670
17937TIP3   OH275301   5.414   5.719   1.446 -0.6787  0.3318  0.0805
17937TIP3    H175302   5.500   5.742   1.409 -0.3053 -1.9857 -0.6637
17937TIP3    H275303   5.429   5.635   1.490 -2.5892 -0.2193 -0.2246
17938TIP3   OH275304   0.423   2.089  12.462  0.1740  0.0481 -0.3515
17938TIP3    H175305   0.491   2.130  12.515  2.4204 -2.1335 -1.3581
17938TIP3    H275306   0.408   2.004  12.504 -0.6328 -0.2310 -1.1683
17939TIP3   OH275307   2.764   1.695   5.708 -0.2992 -0.6477 -0.0689
17939TIP3    H175308   2.845   1.745   5.705  0.8602 -2.3146  1.2100
17939TIP3    H275309   2.792   1.603   5.702 -2.0877 -1.2623  0.2647
17940TIP3   OH275310   5.045   2.223   3.962 -0.3252  0.0234 -0.2091
17940TIP3    H175311   4.990   2.147   3.982  2.3542 -2.1158 -0.3987
17940TIP3    H275312   5.007   2.259   3.882 -3.2266  0.6044  1.2721
17941TIP3   OH275313   3.819   1.399   5.910 -0.2636  0.0962 -0.6567
17941TIP3    H175314   3.889   1.402   5.844 -0.4670  0.6016 -0.8549
17941TIP3    H275315   3.740   1.422   5.861 -0.6078 -0.7171 -0.4831
17942TIP3   OH275316   2.601   0.305   1.833  0.4242  0.2388  0.1257
17942TIP3    H175317   2.578   0.263   1.916 -0.6576  0.7627  0.1099
17942TIP3    H275318   2.559   0.391   1.836  2.8469  1.5211  0.2965
17943TIP3   OH275319   0.015   3.993  13.517 -0.4440 -0.0176 -0.0466
17943TIP3    H175320   0.017   4.004  13.422  0.9962 -0.9529 -0.1529
17943TIP3    H275321  -0.019   4.076  13.550  0.0226  0.7104 -1.3267
17944TIP3   OH275322   1.249   0.298   5.958  0.1323  0.0038 -0.0837
17944TIP3    H175323   1.284   0.315   5.871  0.1514  0.2133 -0.0365
17944TIP3    H275324   1.294   0.218   5.986 -0.2267 -0.3310 -0.4552
17945TIP3   OH275325   1.307   5.221  12.523  0.1305 -0.2184  0.3701
17945TIP3    H175326   1.370   5.288  12.498 -2.3117  2.1799  0.2407
17945TIP3    H275327   1.304   5.225  12.619 -0.6858  0.5638  0.3237
17946TIP3   OH275328   5.429   6.303   4.806 -0.4706  0.1952  0.0393
17946TIP3    H175329   5.383   6.345   4.733 -1.8880 -2.1461 -0.5217
17946TIP3    H275330   5.444   6.214   4.776  0.5520 -0.3262  1.9559
17947TIP3   OH275331   1.948   5.567   4.300 -0.0541  0.3365  0.1414
17947TIP3    H175332   1.936   5.608   4.386 -0.4592  0.2160  0.1459
17947TIP3    H275333   1.881   5.499   4.297 -1.9122  2.1369 -1.4100
17948TIP3   OH275334   4.948   6.155   3.846 -0.2635 -0.1146 -0.0032
17948TIP3    H175335   4.871   6.172   3.791 -0.1204  0.6687  0.0239
17948TIP3    H275336   5.004   6.232   3.833 -0.1534  0.0055  1.1216
17949TIP3   OH275337   6.628   0.596   0.895  0.6384  0.1246 -0.2219
17949TIP3    H175338   6.630   0.504   0.869  1.8030 -0.6670  2.3827
17949TIP3    H275339   6.720   0.621   0.905  0.3283  1.4814 -0.5605
17950TIP3   OH275340   4.868   2.301   3.289 -0.5520  0.2042 -0.4851
17950TIP3    H175341   4.813   2.229   3.260  1.5077 -1.1671 -1.2037
17950TIP3    H275342   4.936   2.309   3.222  1.0619  0.7331  1.1167
17951TIP3   OH275343   1.302   6.704  11.950 -0.5464  0.2939  0.2475
17951TIP3    H175344   1.217   6.733  11.916 -0.1414  2.6235  1.0509
17951TIP3    H275345   1.348   6.785  11.972  1.0477 -0.9707  1.8635
17952TIP3   OH275346   3.247   6.487  17.270 -1.0649 -0.2425 -0.7268
17952TIP3    H175347   3.314   6.455  17.331 -0.8520 -0.9631 -1.3257
17952TIP3    H275348   3.189   6.412  17.256 -0.5223 -0.4187 -2.1978
17953TIP3   OH275349   3.764   4.955  16.350 -0.0454  0.3632 -0.2806
17953TIP3    H175350   3.689   4.997  16.394 -0.1530 -1.8593  1.8735
17953TIP3    H275351   3.839   5.009  16.375 -0.5193  0.8004  0.2504
17954TIP3   OH275352   1.374   4.982   1.098  0.0698  0.2789  0.3722
17954TIP3    H175353   1.434   4.908   1.093  1.3181  1.1869  1.0712
17954TIP3    H275354   1.293   4.951   1.059  1.0024 -0.9973 -0.6253
17955TIP3   OH275355   0.215   3.366  10.534 -0.2085  0.1779 -0.0272
17955TIP3    H175356   0.263   3.296  10.578 -0.1526  0.0247 -0.3292
17955TIP3    H275357   0.131   3.327  10.511 -0.2629  0.2772  0.0002
17956TIP3   OH275358   3.320   0.775   1.836 -0.2636  0.2875 -0.5091
17956TIP3    H175359   3.286   0.710   1.898 -0.1322 -0.3205 -1.0725
17956TIP3    H275360   3.395   0.733   1.795  0.8138  1.3941  0.2674
17957TIP3   OH275361   5.229   3.527   6.028  0.1550 -0.1888 -0.3608
17957TIP3    H175362   5.223   3.495   5.938  0.6998 -1.8343  0.1538
17957TIP3    H275363   5.186   3.612   6.025  0.3199 -0.1117 -2.2115
17958TIP3   OH275364   2.965   1.898  16.277  0.1133 -0.0846 -0.5691
17958TIP3    H175365   3.021   1.958  16.228  0.6161 -0.0648  0.0181
17958TIP3    H275366   2.995   1.811  16.251  0.3314 -0.0743 -0.3566
17959TIP3   OH275367   4.590   0.808   3.162 -0.3505 -0.6796  0.3258
17959TIP3    H175368   4.586   0.837   3.253  0.4338 -1.5728  0.6648
17959TIP3    H275369   4.503   0.828   3.126 -0.3439  0.5716  0.9796
17960TIP3   OH275370   1.567   6.315  15.742 -0.4325  0.0291 -0.1377
17960TIP3    H175371   1.610   6.337  15.659 -0.9768 -1.0930 -0.7419
17960TIP3    H275372   1.599   6.381  15.803 -0.5288  1.3010 -1.3905
17961TIP3   OH275373   4.222   6.434   6.074  0.3670 -0.0728  0.0011
17961TIP3    H175374   4.273   6.458   5.996 -2.2400  0.8803 -1.5678
17961TIP3    H275375   4.153   6.501   6.078 -0.9108 -1.4093  1.8298
17962TIP3   OH275376   0.807   2.990  15.987  0.2677 -0.2896 -0.5938
17962TIP3    H175377   0.829   3.081  15.969  0.7520 -0.7794 -2.8705
17962TIP3    H275378   0.756   2.962  15.910  0.7199 -2.1154 -0.2800
17963TIP3   OH275379   0.536   2.064  17.395  0.5089 -0.5689 -1.2796
17963TIP3    H175380   0.488   1.985  17.420 -0.2981 -0.6802 -3.0022
17963TIP3    H275381   0.606   2.033  17.337  1.9681 -0.2711  0.2297
17964TIP3   OH275382   0.734   5.129  16.256  0.2415  0.9709 -0.0854
17964TIP3    H175383   0.713   5.109  16.348 -0.4716 -0.4603 -0.5355
17964TIP3    H275384   0.826   5.155  16.258  0.8828 -1.1700  0.7573
17965TIP3   OH275385   5.118   0.578   2.947  0.1527 -0.3055  0.1410
17965TIP3    H175386   5.150   0.668   2.952  0.1939 -0.2807 -0.5175
17965TIP3    H275387   5.150   0.546   2.863  0.4445 -1.0554  0.5391
17966TIP3   OH275388   3.783   1.310  16.380  0.4621  0.5668  0.8847
17966TIP3    H175389   3.721   1.248  16.341  0.5739  0.7542  0.4027
17966TIP3    H275390   3.856   1.255  16.410  0.1488  0.3652  1.3013
17967TIP3   OH275391   1.907   0.716   3.243 -0.6066  0.1054 -0.3098
17967TIP3    H175392   1.862   0.773   3.181  0.4648 -0.2092 -1.4165
17967TIP3    H275393   1.931   0.773   3.315 -1.8224  0.4912 -0.1736
17968TIP3   OH275394   4.094   1.398  15.464  0.4193 -0.4194 -0.0184
17968TIP3    H175395   4.035   1.426  15.394  0.2366  1.0634  0.6786
17968TIP3    H275396   4.093   1.302  15.459 -1.9105 -0.4593 -0.1613
17969TIP3   OH275397   4.967   3.452  13.746 -0.3568  0.0944 -0.3431
17969TIP3    H175398   4.902   3.387  13.719 -0.9429  0.3438  0.4457
17969TIP3    H275399   5.003   3.484  13.663 -0.2614 -1.0236 -0.7431
17970TIP3   OH275400   4.686   3.109  13.251 -0.2947  0.2137  0.1603
17970TIP3    H175401   4.641   3.089  13.169 -1.0010  1.5703  0.1937
17970TIP3    H275402   4.619   3.151  13.305 -0.0917 -1.4930  1.8048
17971TIP3   OH275403   0.005   2.024   2.620  0.6207  0.0863  0.0353
17971TIP3    H175404   0.078   1.981   2.575  0.5412 -0.9250  0.8337
17971TIP3    H275405  -0.048   2.061   2.549  1.7659  0.6270 -0.5630
17972TIP3   OH275406   5.899   6.493  16.744 -0.7732 -0.4618  0.2314
17972TIP3    H175407   5.842   6.509  16.820 -1.5677 -0.6797 -0.3103
17972TIP3    H275408   5.956   6.570  16.742 -0.6595 -0.5084  1.1224
17973TIP3   OH275409   3.266   0.192  13.509  0.5343  0.2421  0.1837
17973TIP3    H175410   3.330   0.126  13.535 -0.7361 -1.1478 -0.0583
17973TIP3    H275411   3.276   0.197  13.414 -1.3254 -1.8455 -0.2110
17974TIP3   OH275412   2.107   1.689   4.562 -0.0342 -0.0873  0.0894
17974TIP3    H175413   2.081   1.733   4.481 -0.1360  0.3667  0.3647
17974TIP3    H275414   2.029   1.640   4.588  0.2957 -1.0117 -0.5869
17975TIP3   OH275415   0.465   5.579   0.291  0.6279 -0.5891  0.3739
17975TIP3    H175416   0.393   5.614   0.343  0.4640  0.9544 -0.8106
17975TIP3    H275417   0.538   5.573   0.352  0.4788  1.3048  0.8052
17976TIP3   OH275418   2.349   2.729  13.422  0.4134 -0.3307  0.0852
17976TIP3    H175419   2.272   2.754  13.372  0.7576 -0.0947 -0.3264
17976TIP3    H275420   2.324   2.744  13.513  0.2432  0.4841 -0.0943
17977TIP3   OH275421   2.795   6.270   2.064 -0.6373 -0.3461 -0.1448
17977TIP3    H175422   2.780   6.216   1.986 -2.3101 -0.4527  0.2192
17977TIP3    H275423   2.737   6.345   2.054 -0.1010  0.1816  0.5167
17978TIP3   OH275424   3.572   1.608  10.305 -0.5179  0.4610 -0.7224
17978TIP3    H175425   3.627   1.630  10.380  0.0417 -0.7974 -0.7489
17978TIP3    H275426   3.487   1.586  10.343 -0.1591 -0.4350 -0.4287
17979TIP3   OH275427   2.789   5.556  13.339 -0.5252  0.0198 -0.4974
17979TIP3    H175428   2.697   5.536  13.359 -0.1579 -0.9486  0.2487
17979TIP3    H275429   2.838   5.522  13.413  0.4295  0.7345 -0.7894
17980TIP3   OH275430   4.660   2.115   1.782  0.3897  0.0017 -0.0919
17980TIP3    H175431   4.727   2.178   1.809  0.6137  0.5690 -1.8700
17980TIP3    H275432   4.641   2.136   1.691 -0.7724 -1.4355 -0.2345
17981TIP3   OH275433   1.756   1.748   3.087  0.1704  0.5819  0.2242
17981TIP3    H175434   1.686   1.804   3.121 -1.4787 -0.6632 -0.9616
17981TIP3    H275435   1.811   1.808   3.036 -0.7906  1.3736  0.0834
17982TIP3   OH275436   2.747   3.958  15.571 -0.5589  0.4480 -0.3139
17982TIP3    H175437   2.762   3.864  15.562 -1.5648  0.4043 -1.9470
17982TIP3    H275438   2.786   3.981  15.656  1.3138 -1.0793 -0.7086
17983TIP3   OH275439   3.730   5.838   6.338  0.3063 -0.0185 -0.1469
17983TIP3    H175440   3.797   5.887   6.385 -0.0496  0.9806 -0.6639
17983TIP3    H275441   3.756   5.842   6.246 -0.1142 -0.1826 -0.2781
17984TIP3   OH275442   0.076   1.082  14.454 -0.5067 -0.4966  0.2361
17984TIP3    H175443   0.011   1.048  14.516  0.4995 -2.2542  0.3759
17984TIP3    H275444   0.090   1.011  14.392  1.6715 -0.3679  0.5131
17985TIP3   OH275445   5.972   2.572   3.858  0.4895 -0.0654  0.5359
17985TIP3    H175446   6.002   2.562   3.949 -2.0188 -0.0692  1.4240
17985TIP3    H275447   5.883   2.539   3.858 -0.5054  2.3198 -1.3516
17986TIP3   OH275448   1.968   0.400  16.074 -0.2853  0.7261 -0.3874
17986TIP3    H175449   2.054   0.425  16.041 -0.5079  0.1256 -1.4654
17986TIP3    H275450   1.965   0.436  16.162  1.7930 -0.8507  0.4062
17987TIP3   OH275451   0.812   5.785  12.484 -0.2516 -0.5251  0.2990
17987TIP3    H175452   0.834   5.692  12.476 -2.0931 -0.8657 -2.4054
17987TIP3    H275453   0.745   5.788  12.552  1.2701 -0.8119  1.8760
17988TIP3   OH275454   2.573   6.234  12.526 -0.4493 -0.5499  0.1361
17988TIP3    H175455   2.604   6.319  12.494 -0.8796 -0.7210 -0.7844
17988TIP3    H275456   2.619   6.221  12.609  1.7958 -0.6876 -1.0425
17989TIP3   OH275457   0.373   1.389  13.241 -0.1530 -0.1970 -0.1803
17989TIP3    H175458   0.392   1.377  13.335  0.7747  0.1880 -0.3008
17989TIP3    H275459   0.332   1.476  13.236  1.0552  0.3937 -0.2656
17990TIP3   OH275460   2.248   1.028  12.051  0.4689 -0.8045 -0.2480
17990TIP3    H175461   2.239   0.956  11.988  2.3646  0.2629 -1.8869
17990TIP3    H275462   2.172   1.020  12.108 -1.5909 -1.6516 -2.8774
17991TIP3   OH275463   3.630   5.006   1.955 -0.3761  0.5714  0.0547
17991TIP3    H175464   3.603   4.920   1.985  2.0771 -0.1568  0.4011
17991TIP3    H275465   3.661   4.992   1.866  3.7256  0.0978  1.3207
17992TIP3   OH275466   4.124   1.805   6.101 -0.2125 -0.2807 -0.0336
17992TIP3    H175467   4.165   1.811   6.015  0.2911  1.8093  0.2860
17992TIP3    H275468   4.063   1.732   6.094 -0.7003  0.2763 -2.3995
17993TIP3   OH275469   6.379   0.682   1.141  0.1597  0.0798  0.3723
17993TIP3    H175470   6.425   0.657   1.061  0.1995  0.5141  0.2556
17993TIP3    H275471   6.329   0.760   1.116  1.8091  1.5017  1.3089
17994TIP3   OH275472   1.587   0.891   2.506  0.1332  0.2442  0.1235
17994TIP3    H175473   1.647   0.819   2.525 -1.6087 -1.2741  0.1541
17994TIP3    H275474   1.570   0.884   2.412 -2.1263 -1.1513  0.5741
17995TIP3   OH275475   6.714   0.794  13.273 -0.2416  0.7376 -0.0048
17995TIP3    H175476   6.806   0.784  13.298 -0.6977 -0.2239  1.3873
17995TIP3    H275477   6.702   0.888  13.264  0.5315  0.9803  1.2342
17996TIP3   OH275478   0.812   5.088   1.651  0.3390  0.0416 -0.3270
17996TIP3    H175479   0.834   5.127   1.566 -0.1657  0.1940 -0.3937
17996TIP3    H275480   0.857   5.143   1.715 -0.1602  0.5972 -0.4390
17997TIP3   OH275481   6.383   3.752  16.476 -0.1339  0.4770  0.2354
17997TIP3    H175482   6.295   3.724  16.503 -0.6681  0.2293 -1.6138
17997TIP3    H275483   6.376   3.847  16.465 -0.9449  0.1937 -2.3309
17998TIP3   OH275484   2.539   4.321   4.897  0.2270 -0.1089  0.8269
17998TIP3    H175485   2.578   4.268   4.967  3.7841  1.5225  0.3200
17998TIP3    H275486   2.533   4.409   4.935  0.1951  0.3580 -0.2360
17999TIP3   OH275487   4.331   0.628   3.317  0.4316  0.3229 -0.4789
17999TIP3    H175488   4.305   0.568   3.248  0.0776  1.3402 -1.2585
17999TIP3    H275489   4.320   0.715   3.279 -1.2974  0.9928  1.3606
18000TIP3   OH275490   0.872   1.659   6.896  0.1176 -0.2767  0.3711
18000TIP3    H175491   0.909   1.737   6.856  0.5363 -0.7958 -0.2750
18000TIP3    H275492   0.806   1.692   6.957 -0.8999  0.5311 -1.1116
18001TIP3   OH275493   4.313   1.621  16.465 -0.2692 -0.0553 -0.0117
18001TIP3    H175494   4.362   1.643  16.544  1.2050 -0.7044 -0.6974
18001TIP3    H275495   4.244   1.562  16.494 -0.2209  0.3285  0.8931
18002TIP3   OH275496   0.926   2.412   6.297  0.5127  0.6849 -0.0145
18002TIP3    H175497   1.013   2.375   6.314  0.5414  0.6125 -0.3155
18002TIP3    H275498   0.901   2.377   6.212 -0.4866 -0.5509  0.7486
18003TIP3   OH275499   5.525   0.458  12.001  0.2670 -0.5366 -0.1319
18003TIP3    H175500   5.513   0.501  11.917  2.6420 -2.0352 -1.3424
18003TIP3    H275501   5.481   0.373  11.991  0.4509 -0.6708  0.1914
18004TIP3   OH275502   3.653   4.333  16.458 -0.1409  0.0350 -0.8456
18004TIP3    H175503   3.644   4.282  16.377 -1.6123  1.5682 -1.7041
18004TIP3    H275504   3.728   4.390  16.442 -0.8005  0.7733 -1.4228
18005TIP3   OH275505   4.877   4.165  12.521 -0.0172  0.0491  0.2944
18005TIP3    H175506   4.953   4.145  12.575  1.0803 -1.7481 -1.7545
18005TIP3    H275507   4.914   4.202  12.440 -1.2916 -0.8128 -0.7226
18006TIP3   OH275508   0.933   2.328   6.047 -0.2527 -0.5406  0.1032
18006TIP3    H175509   0.878   2.386   5.995 -0.0778 -1.4627 -1.1456
18006TIP3    H275510   0.986   2.280   5.983  0.2333 -1.4501  1.1424
18007TIP3   OH275511   3.132   5.221   5.491 -0.1054 -0.0685 -0.0013
18007TIP3    H175512   3.113   5.265   5.408  1.9667  0.5114 -0.2364
18007TIP3    H275513   3.201   5.275   5.531  1.5594 -2.3118  0.3424
18008TIP3   OH275514   4.699   3.621  12.559 -0.1548  0.4152  0.6246
18008TIP3    H175515   4.624   3.562  12.566 -0.1666  0.5335  1.5865
18008TIP3    H275516   4.737   3.623  12.646  0.4259  1.0761  0.3709
18009TIP3   OH275517   3.529   0.669   4.496  0.0713  0.4444  0.2527
18009TIP3    H175518   3.480   0.641   4.573  0.6359 -0.7012  0.2176
18009TIP3    H275519   3.485   0.628   4.422 -1.3507  2.7068 -0.2385
18010TIP3   OH275520   6.587   5.170  12.295 -0.2191 -0.1196  0.5249
18010TIP3    H175521   6.506   5.146  12.251 -1.7431 -0.3988  3.2972
18010TIP3    H275522   6.656   5.143  12.234 -2.1334 -1.3505 -1.2219
18011TIP3   OH275523   2.197   3.544  16.741  0.0531 -0.2160 -0.1026
18011TIP3    H175524   2.214   3.599  16.665 -0.7740 -0.9157 -0.8123
18011TIP3    H275525   2.279   3.495  16.754  0.4014  0.3480 -0.1668
18012TIP3   OH275526   4.924   6.348  14.226  0.0341  0.0507  0.2431
18012TIP3    H175527   4.847   6.370  14.278  1.2263  0.6751  1.8450
18012TIP3    H275528   4.898   6.364  14.136 -2.1515 -1.1443  0.6081
18013TIP3   OH275529   1.009   2.426  16.316 -0.6932  0.2353  0.7333
18013TIP3    H175530   0.993   2.503  16.262 -1.0820  1.2006  2.1738
18013TIP3    H275531   0.921   2.396  16.341 -0.6140 -1.4337 -0.7767
18014TIP3   OH275532   2.788   2.949   0.723 -0.7069  0.1031 -0.0214
18014TIP3    H175533   2.873   2.914   0.748 -0.7804 -0.8989 -1.1026
18014TIP3    H275534   2.762   3.004   0.797  0.2484 -0.6748  0.9279
18015TIP3   OH275535   5.245   1.448  11.616  0.3003  0.1514  0.4239
18015TIP3    H175536   5.338   1.440  11.596  0.8008  3.1389  1.1297
18015TIP3    H275537   5.224   1.540  11.602 -2.8290 -0.5754 -0.6480
18016TIP3   OH275538   4.056   5.137  11.683  0.1852 -0.2734  0.0446
18016TIP3    H175539   4.023   5.227  11.679 -0.4568 -0.4102  1.7105
18016TIP3    H275540   4.122   5.133  11.613 -0.4029  1.2159 -0.6436
18017TIP3   OH275541   5.518   0.201  15.958  0.5010 -0.1279  0.5031
18017TIP3    H175542   5.588   0.168  16.014  0.7152  1.3151  1.1262
18017TIP3    H275543   5.443   0.145  15.978  0.6127  0.2626  2.1523
18018TIP3   OH275544   0.962   3.161  16.605 -0.6016  0.2705  0.5037
18018TIP3    H175545   0.949   3.106  16.528  1.3774  0.6087 -0.1179
18018TIP3    H275546   0.873   3.189  16.629 -1.1748  1.9154 -2.9485
18019TIP3   OH275547   4.358   5.368   4.917 -0.0092  0.0215  0.2240
18019TIP3    H175548   4.272   5.409   4.918 -1.7157 -3.1755  0.3796
18019TIP3    H275549   4.347   5.289   4.971  2.8778 -0.7982 -0.1953
18020TIP3   OH275550   3.429   0.036   1.331  0.1600 -0.4746  0.2151
18020TIP3    H175551   3.399   0.058   1.243  0.6560  0.2877  0.2221
18020TIP3    H275552   3.522   0.015   1.320  0.3725  0.2066  0.6336
18021TIP3   OH275553   3.107   5.579  14.350 -0.2865  0.4923 -0.3561
18021TIP3    H175554   3.139   5.544  14.267  0.9504 -1.3570  0.8445
18021TIP3    H275555   3.095   5.503  14.406 -1.1525  1.6855  1.1839
18022TIP3   OH275556   0.427   1.836  12.561  0.2191 -0.1354  1.1272
18022TIP3    H175557   0.423   1.860  12.654 -0.0060  0.5359  0.9480
18022TIP3    H275558   0.502   1.777  12.555  0.3596 -0.0231  1.6992
18023TIP3   OH275559   2.233   2.742  11.853 -0.2700 -0.6565 -0.0796
18023TIP3    H175560   2.301   2.802  11.822 -0.8048  0.2030  0.3650
18023TIP3    H275561   2.273   2.697  11.927 -0.4631  0.4807  0.7372
18024TIP3   OH275562   2.015   3.964  16.217 -0.4153 -0.2190 -0.1507
18024TIP3    H175563   2.095   4.010  16.191  0.0431 -0.6627  0.4761
18024TIP3    H275564   2.006   3.983  16.310  0.1722 -1.9744  0.2906
18025TIP3   OH275565   1.233   4.920  14.330 -0.0122 -0.7458  0.0171
18025TIP3    H175566   1.148   4.964  14.328  0.6334  0.5606 -1.1074
18025TIP3    H275567   1.290   4.978  14.279  1.4320 -1.8358  0.3413
18026TIP3   OH275568   2.581   4.204  10.959 -0.2895  0.1702  0.0430
18026TIP3    H175569   2.590   4.270  10.890 -2.2891 -0.2635 -0.6960
18026TIP3    H275570   2.633   4.130  10.929 -1.9076 -0.3885 -1.5515
18027TIP3   OH275571   1.957   6.131  14.754 -0.0090 -0.2040  0.3199
18027TIP3    H175572   2.050   6.151  14.745 -0.1680  0.4856  0.1624
18027TIP3    H275573   1.954   6.036  14.766  0.6855 -0.2864 -0.1123
18028TIP3   OH275574   6.156   4.597   4.193  0.3531 -0.0746  0.4555
18028TIP3    H175575   6.109   4.638   4.120  1.0401  1.5869  0.8997
18028TIP3    H275576   6.095   4.599   4.266  0.2594 -0.1663  0.3794
18029TIP3   OH275577   0.984   1.200  10.459  0.2821  0.3822  0.1760
18029TIP3    H175578   0.941   1.257  10.523  1.2620  1.3795 -0.0140
18029TIP3    H275579   0.977   1.112  10.497 -1.2055  0.6122  0.5096
18030TIP3   OH275580   2.649   5.394  15.040  0.3812  0.1046 -0.5763
18030TIP3    H175581   2.672   5.482  15.010  0.4457 -0.1035 -1.1586
18030TIP3    H275582   2.561   5.380  15.007 -0.3116  0.5951  0.9752
18031TIP3   OH275583   1.280   1.003  16.612  0.3647 -0.3889 -0.0650
18031TIP3    H175584   1.305   1.001  16.519  0.9198 -2.1048  0.0940
18031TIP3    H275585   1.292   1.095  16.638  2.0749 -0.2497 -1.1827
18032TIP3   OH275586   2.258   0.472   0.524  0.0478  0.0346  0.4543
18032TIP3    H175587   2.208   0.404   0.478 -0.2863  0.1140  0.6916
18032TIP3    H275588   2.316   0.424   0.583 -0.6544 -0.0393  1.0994
18033TIP3   OH275589   4.891   4.078   5.055  0.4263 -0.3984 -0.0999
18033TIP3    H175590   4.882   4.148   4.990 -0.0378 -1.2174 -0.9423
18033TIP3    H275591   4.815   4.088   5.112 -0.3894 -1.0300 -1.0438
18034TIP3   OH275592   4.628   0.093   1.888 -0.3669  0.0243 -0.0115
18034TIP3    H175593   4.603   0.003   1.909  0.4917  0.1699  1.8715
18034TIP3    H275594   4.713   0.086   1.846 -1.9326 -0.2406 -3.4728
18035TIP3   OH275595   1.546   3.396   2.186 -0.6976  0.2210  0.2540
18035TIP3    H175596   1.487   3.377   2.259 -0.2304 -0.7116  0.4043
18035TIP3    H275597   1.579   3.310   2.159  0.7027  0.7293  0.2714
18036TIP3   OH275598   0.988   5.869   6.262  0.3963 -0.9101 -0.0580
18036TIP3    H175599   0.999   5.824   6.346  0.8032 -1.0875 -0.2034
18036TIP3    H275600   1.002   5.962   6.282 -1.6568 -0.6663  0.4802
18037TIP3   OH275601   5.436   0.965  15.655  0.4944  0.3265 -0.2199
18037TIP3    H175602   5.398   1.039  15.703  0.7489 -0.3977  1.1509
18037TIP3    H275603   5.377   0.892  15.672  0.7694 -0.0301 -0.7594
18038TIP3   OH275604   6.388   2.208   3.915  0.2309  0.7527  0.5057
18038TIP3    H175605   6.298   2.209   3.949 -0.1023  0.4062 -0.3342
18038TIP3    H275606   6.387   2.268   3.841  0.6894  0.7357  0.4824
18039TIP3   OH275607   3.629   1.695  17.074  0.0015 -0.1561 -0.2898
18039TIP3    H175608   3.577   1.624  17.037 -0.3539 -0.5237  0.8630
18039TIP3    H275609   3.567   1.765  17.091  0.3820  0.5275 -1.5975
18040TIP3   OH275610   5.283   4.970   4.414  0.9189 -0.2243 -0.0373
18040TIP3    H175611   5.285   4.876   4.395 -3.7698 -0.1933 -1.9975
18040TIP3    H275612   5.295   4.976   4.509  1.9119 -2.6882  0.0656
18041TIP3   OH275613   5.830   5.498  12.075 -0.8915 -0.6302 -0.4253
18041TIP3    H175614   5.921   5.501  12.046 -0.1027  2.9091  1.7709
18041TIP3    H275615   5.829   5.433  12.145  0.8746  1.4086  1.6716
18042TIP3   OH275616   3.132   4.605   3.812  0.9348 -0.3516  0.7684
18042TIP3    H175617   3.114   4.533   3.872 -0.9471 -0.4484  0.1392
18042TIP3    H275618   3.129   4.684   3.867  0.0718 -0.5129  0.9605
18043TIP3   OH275619   5.742   3.827  12.997  0.1633  0.2825 -0.0001
18043TIP3    H175620   5.760   3.734  13.015  0.8943  0.2282 -0.9099
18043TIP3    H275621   5.827   3.870  13.007  0.4637  0.3621 -2.3776
18044TIP3   OH275622   4.271   0.014   6.535 -1.3367  0.1728 -0.6961
18044TIP3    H175623   4.181  -0.017   6.548 -1.0499 -0.5940 -0.5343
18044TIP3    H275624   4.326  -0.056   6.569 -0.6715  0.6626 -0.7505
18045TIP3   OH275625   5.054   4.474  15.624  0.1173  0.1580 -0.6066
18045TIP3    H175626   5.007   4.548  15.585  0.1465  0.6579  0.2873
18045TIP3    H275627   5.001   4.398  15.602 -1.1866  0.7207  0.4693
18046TIP3   OH275628   1.930   1.598   1.715  0.4098  0.2022  0.3309
18046TIP3    H175629   1.984   1.622   1.639  1.1204 -1.0025  0.4411
18046TIP3    H275630   1.935   1.503   1.720 -0.0759  0.2191  1.5700
18047TIP3   OH275631   3.068   2.831   6.683  0.5345  0.5596  0.5365
18047TIP3    H175632   3.004   2.762   6.698 -0.2286  0.8254 -1.2240
18047TIP3    H275633   3.037   2.905   6.735  1.2373 -0.2956  2.2626
18048TIP3   OH275634   4.993   5.953   5.917 -0.2409  0.4051 -0.4329
18048TIP3    H175635   4.919   6.008   5.945 -1.1651 -0.1980 -1.6277
18048TIP3    H275636   5.000   5.887   5.985 -0.0735  1.1150  0.2601
18049TIP3   OH275637   1.172   3.096   5.117 -0.7769  0.1322  0.0951
18049TIP3    H175638   1.139   3.130   5.201 -0.0034  3.2595 -0.7263
18049TIP3    H275639   1.253   3.051   5.140 -1.2776 -0.2539  1.1710
18050TIP3   OH275640   3.267   0.628   5.318 -0.2435 -0.1724 -0.3644
18050TIP3    H175641   3.299   0.639   5.407 -2.4848  2.4033  0.2576
18050TIP3    H275642   3.184   0.582   5.327 -0.1191 -0.5903 -1.2145
18051TIP3   OH275643   0.798   5.753   5.621  0.4359 -0.1284 -0.3136
18051TIP3    H175644   0.762   5.693   5.687  0.4123  0.9140  0.6632
18051TIP3    H275645   0.892   5.737   5.623  0.3511 -0.6913 -0.6413
18052TIP3   OH275646   1.322   2.427  11.771 -0.0220 -0.2584  0.2164
18052TIP3    H175647   1.379   2.467  11.836  0.0392  1.6590 -0.9429
18052TIP3    H275648   1.263   2.371  11.821 -0.2671  1.4891  1.9494
18053TIP3   OH275649   2.610   1.414  13.382  0.1462 -0.0632 -0.2378
18053TIP3    H175650   2.666   1.338  13.399 -0.5271 -0.8550 -1.4553
18053TIP3    H275651   2.613   1.464  13.464  1.7957 -0.6128  0.0834
18054TIP3   OH275652   2.475   2.598  11.512 -0.3191 -0.9724  0.4724
18054TIP3    H175653   2.508   2.531  11.452 -0.1668 -1.0713  0.6669
18054TIP3    H275654   2.538   2.670  11.505  0.6072 -1.6322  1.7359
18055TIP3   OH275655   2.640   3.765   5.338 -0.5033  0.3156  1.1528
18055TIP3    H175656   2.573   3.723   5.391 -2.2748 -0.5244 -1.5360
18055TIP3    H275657   2.717   3.708   5.345 -1.3133 -0.7740  1.3462
18056TIP3   OH275658   6.131   5.330  13.636 -0.1471 -0.3506  0.4836
18056TIP3    H175659   6.071   5.285  13.578  1.5173 -1.1867 -0.6540
18056TIP3    H275660   6.178   5.260  13.682  3.0345  0.0143 -1.8802
18057TIP3   OH275661   6.016   5.809   5.137 -0.8149  0.4299  0.3761
18057TIP3    H175662   5.979   5.775   5.218  1.0676  0.0881  1.1587
18057TIP3    H275663   5.970   5.763   5.067 -1.8141  0.0327  1.2746
18058TIP3   OH275664   0.516   3.195   3.050  0.3840  0.4306 -0.2078
18058TIP3    H175665   0.457   3.231   3.116 -0.2317  0.5490 -0.8120
18058TIP3    H275666   0.588   3.257   3.046  0.2779  0.5787  0.1465
18059TIP3   OH275667   5.470   0.595  16.069  0.4248  0.1061  0.2586
18059TIP3    H175668   5.520   0.523  16.107 -0.2336 -1.2425 -1.3158
18059TIP3    H275669   5.532   0.637  16.008 -0.1439 -1.3520 -1.4328
18060TIP3   OH275670   2.842   3.159   4.586 -0.5441 -0.2393 -0.3453
18060TIP3    H175671   2.770   3.207   4.626  0.5961  0.2620  1.1853
18060TIP3    H275672   2.900   3.135   4.659  0.7331 -0.8319 -1.4872
18061TIP3   OH275673   3.646   1.641  13.468  0.0179  0.3345  0.3239
18061TIP3    H175674   3.697   1.574  13.514  1.4152  2.0975  1.4662
18061TIP3    H275675   3.625   1.706  13.535  0.0980  1.8334 -1.0487
18062TIP3   OH275676   2.598   3.532  16.889 -0.1884 -0.5219 -0.3513
18062TIP3    H175677   2.622   3.455  16.941 -1.1033 -1.1687 -0.8587
18062TIP3    H275678   2.630   3.606  16.940  1.1728 -1.2524 -0.1009
18063TIP3   OH275679   3.985   0.182   2.068  0.0396  0.0951  0.0051
18063TIP3    H175680   3.959   0.116   2.004 -0.4910  1.7315 -1.5612
18063TIP3    H275681   4.060   0.226   2.027 -1.2704  2.1925 -0.2589
18064TIP3   OH275682   2.451   1.243   3.788  0.2086  0.2577  0.1323
18064TIP3    H175683   2.404   1.326   3.787  2.1486  1.4099 -1.0974
18064TIP3    H275684   2.388   1.180   3.751 -0.2551  1.8338 -1.9717
18065TIP3   OH275685   1.778   5.494  11.613 -0.1295 -0.4650 -0.0772
18065TIP3    H175686   1.856   5.512  11.559  1.7138 -0.9053  2.2604
18065TIP3    H275687   1.792   5.404  11.643 -0.3169  0.2395  2.2517
18066TIP3   OH275688   2.832   4.717   4.100  0.1163 -0.2961 -0.0696
18066TIP3    H175689   2.761   4.685   4.156 -0.9412  0.8998 -0.6872
18066TIP3    H275690   2.807   4.688   4.012  0.6020 -0.2009 -0.2386
18067TIP3   OH275691   4.055   2.843  13.398 -0.1645  0.2493  0.2332
18067TIP3    H175692   4.032   2.912  13.335 -1.4988 -0.4710 -0.1051
18067TIP3    H275693   4.020   2.875  13.482  1.4728  1.1338  0.6372
18068TIP3   OH275694   3.996   0.090  12.772 -0.1560 -0.4278  0.5363
18068TIP3    H175695   3.973   0.074  12.863 -2.5281  0.5480  0.1762
18068TIP3    H275696   4.055   0.018  12.749  1.1726 -0.2411  3.0414
18069TIP3   OH275697   4.312   2.051   6.127 -0.1014 -0.2346 -0.6139
18069TIP3    H175698   4.263   1.972   6.105 -3.7481  1.1639  1.5412
18069TIP3    H275699   4.342   2.037   6.216 -0.8032  0.7408 -0.2000
18070TIP3   OH275700   1.447   6.561   3.248  0.0356  0.4765 -0.4858
18070TIP3    H175701   1.464   6.655   3.250  0.6018  0.3632  0.2067
18070TIP3    H275702   1.387   6.550   3.173  1.7392  1.0887 -2.0137
18071TIP3   OH275703   4.139   1.994   5.281 -0.3158  0.2541 -0.2120
18071TIP3    H175704   4.110   1.907   5.252 -0.9251  0.5844 -0.6269
18071TIP3    H275705   4.092   2.055   5.224 -1.8993  0.9599  1.7229
18072TIP3   OH275706   2.805   1.344  16.269 -0.4571  0.1034 -0.3801
18072TIP3    H175707   2.779   1.316  16.357 -1.3482 -0.2816 -0.7574
18072TIP3    H275708   2.828   1.262  16.224 -0.6681  0.2305 -0.7199
18073TIP3   OH275709   2.941   5.290   4.428  0.2815  0.1490  0.3054
18073TIP3    H175710   2.980   5.203   4.414  1.3716  0.2749  2.1646
18073TIP3    H275711   2.847   5.274   4.431  0.3564 -0.6722 -1.1882
18074TIP3   OH275712   3.992   4.160   4.260 -0.4358 -0.6243  0.1212
18074TIP3    H175713   4.045   4.155   4.181 -0.5651 -1.3495  0.0745
18074TIP3    H275714   3.905   4.183   4.229 -0.1953  0.4054  0.1827
18075TIP3   OH275715   4.403   5.319   1.236 -0.3991  0.9073  0.1558
18075TIP3    H175716   4.431   5.252   1.298  0.3162  1.4175  0.3965
18075TIP3    H275717   4.389   5.272   1.154 -2.9360 -0.0765  1.0412
18076TIP3   OH275718   1.973   6.339   4.134  0.3021  0.1743  0.0979
18076TIP3    H175719   1.927   6.348   4.218  2.1565  0.7533  1.0955
18076TIP3    H275720   1.984   6.429   4.103 -1.4850 -0.0662 -1.4781
18077TIP3   OH275721   3.939   2.305  16.351 -0.4028  0.0733  0.1717
18077TIP3    H175722   3.990   2.384  16.334 -1.8712  1.1811  0.6699
18077TIP3    H275723   3.994   2.252  16.408  0.6063  0.7351 -0.1651
18078TIP3   OH275724   6.452   1.744   4.494  0.2045  0.3144 -0.2482
18078TIP3    H175725   6.426   1.753   4.586 -0.8895 -1.7841 -0.3074
18078TIP3    H275726   6.378   1.778   4.445 -1.4946 -3.1004 -0.3573
18079TIP3   OH275727   5.206   6.358  11.579  0.5322 -0.5245  0.2044
18079TIP3    H175728   5.126   6.355  11.527  0.8105  0.7906 -0.3358
18079TIP3    H275729   5.273   6.389  11.519  1.1626 -0.3372  0.9852
18080TIP3   OH275730   2.878   4.906   1.279  0.7543 -0.1398 -0.5365
18080TIP3    H175731   2.873   4.981   1.338  0.5565  0.8245 -1.7432
18080TIP3    H275732   2.876   4.944   1.191  1.4184 -1.5082 -1.1787
18081TIP3   OH275733   2.139   6.004  12.028  0.3160 -0.3453 -0.1864
18081TIP3    H175734   2.224   6.022  12.068  0.5710 -1.0934 -0.3734
18081TIP3    H275735   2.076   6.019  12.099  0.5229  0.9388 -0.2485
18082TIP3   OH275736   4.526   3.813   0.402  0.0887 -0.1482 -0.1735
18082TIP3    H175737   4.527   3.891   0.458  1.9754 -1.0231  1.1485
18082TIP3    H275738   4.464   3.754   0.445  0.2254 -0.1561  0.0150
18083TIP3   OH275739   6.225   3.387  12.923 -0.1872  0.4565  0.2347
18083TIP3    H175740   6.173   3.341  12.857 -0.5201  2.2157 -0.7910
18083TIP3    H275741   6.248   3.471  12.882  1.6454  0.6248  1.4652
18084TIP3   OH275742   1.872   6.051   5.812  0.1908  0.1563  0.1936
18084TIP3    H175743   1.914   6.099   5.740  0.2316  0.5439  0.4743
18084TIP3    H275744   1.872   6.112   5.885  1.1754 -0.6342  0.8802
18085TIP3   OH275745   5.561   4.479  14.961 -0.5332  0.0116 -0.6064
18085TIP3    H175746   5.626   4.425  14.915  0.1100 -0.5300  0.8663
18085TIP3    H275747   5.511   4.417  15.013  0.4164  0.7909  1.3565
18086TIP3   OH275748   3.409   2.215  13.964  0.0927 -0.2170  0.8638
18086TIP3    H175749   3.459   2.247  13.889 -1.6967 -0.4732 -0.5336
18086TIP3    H275750   3.383   2.126  13.939 -0.3891 -0.3810  1.8814
18087TIP3   OH275751   1.048   5.808   1.825  0.1077 -0.3373  0.2632
18087TIP3    H175752   1.005   5.741   1.879 -1.1145  0.6533  0.5621
18087TIP3    H275753   0.976   5.852   1.780  0.5091  2.6663  2.2380
18088TIP3   OH275754   4.615   3.328   2.933 -0.6527  0.0148  0.9326
18088TIP3    H175755   4.674   3.403   2.943  0.8283 -0.9258 -0.2663
18088TIP3    H275756   4.585   3.334   2.842 -1.7919  0.0161  1.2972
18089TIP3   OH275757   1.844   5.051  11.659 -0.4823 -0.3548  0.5467
18089TIP3    H175758   1.754   5.084  11.659 -0.0807  0.8310 -0.9446
18089TIP3    H275759   1.897   5.125  11.688  0.1938 -0.4249 -0.4783
18090TIP3   OH275760   1.630   3.317   3.999 -0.1255 -0.0011  0.8533
18090TIP3    H175761   1.548   3.268   4.000  0.4875 -1.1178 -0.4333
18090TIP3    H275762   1.604   3.407   3.977 -1.0630 -0.1670  1.2275
18091TIP3   OH275763   1.303   2.026   0.552  0.1488  0.6628  0.5025
18091TIP3    H175764   1.224   2.070   0.521 -0.3856  0.2040  1.1811
18091TIP3    H275765   1.340   1.986   0.473 -1.2114 -0.5173  0.4272
18092TIP3   OH275766   2.430   5.496  14.283 -0.1518  0.0560  0.2529
18092TIP3    H175767   2.476   5.458  14.358  0.4356  1.1633  0.4785
18092TIP3    H275768   2.498   5.514  14.219 -0.1346  2.2225  0.8016
18093TIP3   OH275769   5.808   3.200   5.115 -0.0478  0.5436  0.1942
18093TIP3    H175770   5.824   3.265   5.184  0.9031  0.7893 -0.2360
18093TIP3    H275771   5.784   3.251   5.038  1.7757  0.5143 -0.4555
18094TIP3   OH275772   6.353   6.515   2.703  0.3015  0.4572 -0.3916
18094TIP3    H175773   6.402   6.585   2.661  0.9183 -0.3561 -1.0505
18094TIP3    H275774   6.350   6.445   2.637  1.0479 -0.7404  0.8057
18095TIP3   OH275775   1.013   3.757   3.204 -0.3565  0.3149 -0.1925
18095TIP3    H175776   1.077   3.700   3.247 -0.2855 -0.5174 -1.3540
18095TIP3    H275777   1.036   3.754   3.112 -0.7448  1.7569 -0.3602
18096TIP3   OH275778   2.960   3.246  17.201  0.3403 -0.4016  0.0655
18096TIP3    H175779   2.900   3.175  17.223 -1.0680  0.5076 -0.7349
18096TIP3    H275780   2.904   3.322  17.188  1.5600  0.2360 -1.7670
18097TIP3   OH275781   3.337   0.736   2.480 -0.0585 -0.2029 -0.1778
18097TIP3    H175782   3.266   0.786   2.439 -0.7119  1.2198  2.4353
18097TIP3    H275783   3.310   0.644   2.470 -1.3331  0.2193 -0.8381
18098TIP3   OH275784   3.259   1.777  14.698  0.3346 -0.1457  0.6781
18098TIP3    H175785   3.295   1.709  14.754  1.5172  0.4297  0.6358
18098TIP3    H275786   3.182   1.809  14.746 -1.6747 -3.0263 -0.3359
18099TIP3   OH275787   3.111   0.674  12.316  0.1306  0.2454  0.4764
18099TIP3    H175788   3.055   0.752  12.325  0.1585  0.3294 -0.0363
18099TIP3    H275789   3.064   0.619  12.254 -0.6650 -0.8584  1.9934
18100TIP3   OH275790   0.999   1.214  14.615 -0.0961  0.1451  0.5068
18100TIP3    H175791   1.015   1.275  14.687 -1.9884  1.2260  0.0882
18100TIP3    H275792   0.933   1.258  14.561 -1.1617 -2.0357 -0.1034
18101TIP3   OH275793   0.969   5.839  12.802  0.4221 -0.6162  0.0608
18101TIP3    H175794   0.895   5.781  12.787 -0.9607  0.9766  0.4829
18101TIP3    H275795   0.930   5.924  12.822  2.3644  0.2996  0.2079
18102TIP3   OH275796   1.401   3.012   4.876  0.1660  0.0560  0.5091
18102TIP3    H175797   1.409   2.920   4.900 -0.2403  0.1824  1.1630
18102TIP3    H275798   1.441   3.059   4.949  0.6590  0.3909  0.0296
18103TIP3   OH275799   0.321   0.149   2.507  0.1518 -0.0516  0.8039
18103TIP3    H175800   0.309   0.057   2.532  0.1373 -0.3467 -0.2471
18103TIP3    H275801   0.392   0.180   2.563  0.6366 -0.9039  0.6772
18104TIP3   OH275802   0.788   0.654   4.141  0.3567 -0.1990  0.1552
18104TIP3    H175803   0.813   0.729   4.086  0.0376  0.3812  0.7729
18104TIP3    H275804   0.871   0.623   4.178  0.3545  0.9043  1.1826
18105TIP3   OH275805   1.489   0.134  13.727 -0.3826  0.1219  0.1737
18105TIP3    H175806   1.536   0.058  13.761  1.7305  0.8726 -0.8658
18105TIP3    H275807   1.478   0.116  13.634 -1.0083  0.5387  0.1616
18106TIP3   OH275808   1.567   5.435   4.618  0.4365  0.4004 -0.6266
18106TIP3    H175809   1.555   5.488   4.697  1.0621  0.5029 -0.5970
18106TIP3    H275810   1.483   5.390   4.606  0.4510  0.1242  0.2861
18107TIP3   OH275811   2.197   2.904  15.752 -0.2862  0.4566  0.0406
18107TIP3    H175812   2.169   2.991  15.726 -1.8178  0.7805  2.4439
18107TIP3    H275813   2.145   2.884  15.831  3.2608 -0.6831  2.3462
18108TIP3   OH275814   1.181   3.167   3.941  0.2215 -0.2793 -0.4162
18108TIP3    H175815   1.256   3.107   3.942 -0.0057 -0.5778 -0.8766
18108TIP3    H275816   1.194   3.218   3.861  0.8340  0.8345  0.3672
18109TIP3   OH275817   0.527   2.346  13.351 -0.1967  0.1203 -0.5981
18109TIP3    H175818   0.432   2.341  13.354 -0.1304 -1.7849 -0.8258
18109TIP3    H275819   0.557   2.287  13.420  0.8305  0.4621 -0.7319
18110TIP3   OH275820   5.398   4.588   2.801 -0.0810 -0.8103  0.3755
18110TIP3    H175821   5.429   4.654   2.738 -1.8811 -0.8999 -0.6623
18110TIP3    H275822   5.402   4.505   2.753 -0.9507 -0.9618  0.5480
18111TIP3   OH275823   0.629   4.802   0.032 -0.1730  0.5144  0.2217
18111TIP3    H175824   0.545   4.840   0.059  0.3519  1.1401  1.0007
18111TIP3    H275825   0.682   4.878   0.007 -0.2450  0.0414 -1.5131
18112TIP3   OH275826   5.055   5.285  16.619 -0.2866  0.1691 -0.0595
18112TIP3    H175827   5.143   5.250  16.632 -0.2291  0.4070  0.2012
18112TIP3    H275828   5.008   5.261  16.698 -0.1652  0.9210  0.2474
18113TIP3   OH275829   1.284   5.235  10.738  0.3996 -0.1520  0.3880
18113TIP3    H175830   1.356   5.199  10.790 -0.6475 -0.2607  1.8072
18113TIP3    H275831   1.208   5.184  10.763 -0.3336  0.4568 -0.5336
18114TIP3   OH275832   4.674   4.284   6.774 -0.2462 -0.5444 -0.0521
18114TIP3    H175833   4.581   4.268   6.789 -0.9013  0.8128 -2.2523
18114TIP3    H275834   4.695   4.232   6.696  0.1021  1.2417 -1.2079
18115TIP3   OH275835   0.829   1.148   7.016 -0.4449 -0.5092 -1.0065
18115TIP3    H175836   0.916   1.112   7.034 -0.3258  0.1223 -0.2808
18115TIP3    H275837   0.831   1.237   7.051 -1.6381 -0.7531 -0.2290
18116TIP3   OH275838   5.632   2.270  12.899 -0.4894 -0.1225  0.5518
18116TIP3    H175839   5.576   2.211  12.848  0.9449 -0.7892 -0.3076
18116TIP3    H275840   5.587   2.355  12.895 -1.9005 -0.8322  0.6912
18117TIP3   OH275841   2.566   0.171  14.580 -0.7443  0.5100 -0.1740
18117TIP3    H175842   2.634   0.220  14.626  0.9728 -0.9757 -0.9999
18117TIP3    H275843   2.516   0.238  14.532  0.8548  1.5517 -0.4431
18118TIP3   OH275844   3.406   4.642   5.423 -0.1410 -0.0548 -0.0533
18118TIP3    H175845   3.336   4.644   5.488  1.6717  1.9841  2.0161
18118TIP3    H275846   3.471   4.583   5.460  0.1836 -0.2556 -0.9089
18119TIP3   OH275847   4.186   1.158  17.314  0.3488 -0.0260 -0.5032
18119TIP3    H175848   4.119   1.226  17.311  0.7316  0.3149 -1.6421
18119TIP3    H275849   4.197   1.140  17.407  1.3964  2.6173 -0.0405
18120TIP3   OH275850   5.796   2.330  13.520  0.1152 -0.2969  0.0378
18120TIP3    H175851   5.765   2.419  13.533  0.5039  0.1139 -1.6099
18120TIP3    H275852   5.828   2.303  13.606  2.1945  2.0191  0.0863
18121TIP3   OH275853   1.305   1.461   3.273  0.1906 -0.0545  0.4462
18121TIP3    H175854   1.391   1.503   3.280 -0.0556  0.9718 -1.7607
18121TIP3    H275855   1.300   1.432   3.182 -1.2265 -1.4808  0.9238
18122TIP3   OH275856   1.027   6.450  11.709 -0.6445 -1.3195 -0.3767
18122TIP3    H175857   0.971   6.433  11.785  0.6257  0.0912  0.9527
18122TIP3    H275858   0.992   6.531  11.672  0.5230 -0.3531  0.5421
18123TIP3   OH275859   0.661   2.446  11.600  0.2561 -0.3640  0.7467
18123TIP3    H175860   0.620   2.490  11.525 -0.4730 -3.3960 -0.7696
18123TIP3    H275861   0.754   2.471  11.593 -0.1941  1.3803  0.3701
18124TIP3   OH275862   5.046   6.192  16.424 -0.3431 -0.1973  0.0619
18124TIP3    H175863   5.106   6.127  16.459  2.2719  2.2129  0.4189
18124TIP3    H275864   4.997   6.224  16.500  0.3290  0.1282  0.3658
18125TIP3   OH275865   4.121   3.760  14.204  0.4842 -0.2077 -0.2125
18125TIP3    H175866   4.103   3.672  14.237 -0.6401 -0.4170 -1.3092
18125TIP3    H275867   4.213   3.775  14.225  0.7662 -1.7477 -0.2172
18126TIP3   OH275868   0.925   2.880   0.010 -0.0721 -0.7809 -0.0486
18126TIP3    H175869   0.887   2.946   0.067 -3.3368 -1.6966 -0.9504
18126TIP3    H275870   0.961   2.929  -0.064  0.7581  0.1608  0.9694
18127TIP3   OH275871   5.897   5.889   0.710 -0.2683 -0.7885  0.4587
18127TIP3    H175872   5.984   5.914   0.741 -0.0866 -0.6864 -0.1183
18127TIP3    H275873   5.840   5.902   0.786  0.1168 -0.2589  0.6649
18128TIP3   OH275874   1.581   5.671  14.110  0.0438  0.5724  0.7371
18128TIP3    H175875   1.565   5.704  14.022 -0.1671 -2.4434 -0.4672
18128TIP3    H275876   1.621   5.585  14.097 -2.0849 -1.0237  3.4971
18129TIP3   OH275877   6.160   2.346  11.707  0.0899  0.0719  0.1695
18129TIP3    H175878   6.161   2.440  11.690  1.7804 -0.0749 -0.7662
18129TIP3    H275879   6.178   2.338  11.801 -1.0259  0.6888  0.4449
18130TIP3   OH275880   1.702   1.372   3.384  0.2679 -0.9001  0.0134
18130TIP3    H175881   1.701   1.380   3.289  1.1221  0.9350  0.1128
18130TIP3    H275882   1.772   1.310   3.403  0.9711 -0.2854 -0.5243
18131TIP3   OH275883   0.476   3.434  17.228  0.3589 -0.4650  0.5621
18131TIP3    H175884   0.509   3.462  17.143  0.9558 -1.2627  0.5229
18131TIP3    H275885   0.553   3.433  17.285  0.4624 -2.4770  0.4357
18132TIP3   OH275886   3.373   4.809  16.893 -0.0888  0.3202 -0.1082
18132TIP3    H175887   3.428   4.852  16.959  2.6381  0.3252 -2.2111
18132TIP3    H275888   3.294   4.783  16.941  0.6638  2.4560  2.5646
18133TIP3   OH275889   2.599   1.254  11.931  0.1879  0.1097  0.1252
18133TIP3    H175890   2.663   1.324  11.918 -0.4568  1.1473  2.0580
18133TIP3    H275891   2.527   1.296  11.978 -0.4959 -1.7011  0.7873
18134TIP3   OH275892   4.511   0.672   3.509 -0.5744  0.0573 -0.6916
18134TIP3    H175893   4.526   0.607   3.577  1.6460 -0.3948 -1.5170
18134TIP3    H275894   4.432   0.643   3.464 -0.2146 -1.4966 -0.3793
18135TIP3   OH275895   3.894   5.935  12.152  0.8829  0.2719  0.0106
18135TIP3    H175896   3.913   6.020  12.191  1.3635  0.6788 -1.0571
18135TIP3    H275897   3.800   5.922  12.165  0.9574  0.5714  0.9145
18136TIP3   OH275898   3.899   0.005   6.553  0.2624 -0.5996  0.0575
18136TIP3    H175899   3.939  -0.033   6.631  1.0095  0.3427  0.1518
18136TIP3    H275900   3.877   0.095   6.579  0.1301 -0.4063 -0.6909
18137TIP3   OH275901   6.666   2.363   5.229  0.2363 -0.2212 -0.2083
18137TIP3    H175902   6.687   2.455   5.210 -0.2728 -0.1776 -0.5691
18137TIP3    H275903   6.586   2.346   5.179 -1.3006 -0.0345  2.0591
18138TIP3   OH275904   0.654   5.476  11.423 -0.0074  0.4850 -0.5493
18138TIP3    H175905   0.584   5.416  11.447 -0.2880  0.2249 -1.9280
18138TIP3    H275906   0.615   5.563  11.427  0.5666  0.6923  2.0619
18139TIP3   OH275907   0.676   1.844   4.416  0.3575 -0.1941 -0.7076
18139TIP3    H175908   0.724   1.900   4.356  0.8235  1.6931  1.2988
18139TIP3    H275909   0.743   1.801   4.469 -0.0652  0.3366  0.2966
18140TIP3   OH275910   0.420   3.470  15.525 -0.5958 -0.3991 -0.3704
18140TIP3    H175911   0.371   3.497  15.603 -2.5117 -2.7503 -0.6388
18140TIP3    H275912   0.480   3.542  15.508  0.8235 -0.2356  3.9739
18141TIP3   OH275913   6.491   2.263   2.591 -0.2621  0.0192 -0.6329
18141TIP3    H175914   6.578   2.265   2.629  0.2263 -0.4824 -1.6803
18141TIP3    H275915   6.464   2.355   2.588 -0.4444  0.0541  1.1364
18142TIP3   OH275916   6.593   6.393  11.464 -0.4572 -0.2312 -0.5231
18142TIP3    H175917   6.688   6.399  11.456 -0.4503 -0.5221 -0.6739
18142TIP3    H275918   6.578   6.356  11.551 -0.5216  2.5081  0.7418
18143TIP3   OH275919   4.834   1.585  17.318 -0.2624 -0.6002 -0.1239
18143TIP3    H175920   4.824   1.668  17.365  1.3552 -2.2431  3.4610
18143TIP3    H275921   4.745   1.557  17.298 -0.8726  1.5258 -0.6875
18144TIP3   OH275922   6.424   3.060  13.564 -0.0934  0.3000 -0.2997
18144TIP3    H175923   6.484   3.007  13.511  2.1532  2.6373 -0.3265
18144TIP3    H275924   6.471   3.073  13.647 -1.6683  0.2261  0.6313
18145TIP3   OH275925   3.905   5.253   3.952  0.7105 -0.4611  0.7259
18145TIP3    H175926   3.927   5.305   4.029  0.2035  1.4667 -0.3608
18145TIP3    H275927   3.840   5.305   3.905 -2.2795 -3.5049  1.1021
18146TIP3   OH275928   1.573   4.482  13.775 -0.2791  0.1111 -0.2437
18146TIP3    H175929   1.580   4.415  13.842  2.0241 -1.5738 -2.0021
18146TIP3    H275930   1.652   4.535  13.785 -0.1263  0.1145 -1.3043
18147TIP3   OH275931   3.862   3.033   5.468 -0.2036 -0.6019 -0.6456
18147TIP3    H175932   3.815   3.072   5.395 -2.0021 -0.8968  0.3158
18147TIP3    H275933   3.856   3.097   5.538  3.8132  0.9131 -1.3918
18148TIP3   OH275934   2.416   0.768   1.585 -0.2856 -0.1894  0.5314
18148TIP3    H175935   2.388   0.680   1.609  1.1372 -0.7095  0.3679
18148TIP3    H275936   2.500   0.756   1.541  0.2553  1.2982  1.0800
18149TIP3   OH275937   0.008   5.069  14.135 -0.1651 -0.0407  0.1799
18149TIP3    H175938   0.091   5.033  14.166  1.1736  2.6415  0.0014
18149TIP3    H275939   0.023   5.163  14.132 -2.6587  0.3868 -1.5605
18150TIP3   OH275940   4.823   0.874  14.547  0.6229  0.1697 -0.6340
18150TIP3    H175941   4.855   0.934  14.480  4.4360 -1.2911 -0.4014
18150TIP3    H275942   4.795   0.931  14.619 -0.4959  1.6655 -2.1773
18151TIP3   OH275943   3.168   4.305  11.211 -0.3498  0.0619 -0.2685
18151TIP3    H175944   3.142   4.357  11.287 -1.4243 -1.2736  0.3319
18151TIP3    H275945   3.117   4.340  11.139  0.4337  1.1297 -0.3219
18152TIP3   OH275946   1.510   2.317   0.985  0.3240 -0.3329 -0.3384
18152TIP3    H175947   1.569   2.262   1.037  0.1063  0.7208  1.1049
18152TIP3    H275948   1.469   2.257   0.923 -0.3565 -1.9523  1.5748
18153TIP3   OH275949   4.576   0.036  16.953 -0.3584  0.3249 -0.1685
18153TIP3    H175950   4.562   0.131  16.950 -1.3070  0.1827 -2.8775
18153TIP3    H275951   4.505  -0.001  16.901  0.8523 -1.7716 -0.4501
18154TIP3   OH275952   5.793   0.324  12.540 -0.2281  0.7678 -0.0380
18154TIP3    H175953   5.758   0.398  12.491 -2.4045 -0.0993  0.1226
18154TIP3    H275954   5.738   0.318  12.618 -0.8897 -1.6984 -0.5965
18155TIP3   OH275955   1.501   3.505   5.601 -0.2111  0.2252 -0.1983
18155TIP3    H175956   1.406   3.521   5.605 -0.4055 -0.9024  0.0310
18155TIP3    H275957   1.522   3.467   5.686  0.7483  1.8753  0.3532
18156TIP3   OH275958   0.910   6.562   2.275 -0.3101  0.0798  0.0026
18156TIP3    H175959   0.832   6.602   2.235 -0.5251  0.5332  0.8455
18156TIP3    H275960   0.979   6.575   2.210 -0.4690  1.4993  0.0765
18157TIP3   OH275961   5.294   0.092  15.526  0.1737 -0.2655 -0.2560
18157TIP3    H175962   5.224   0.110  15.589 -0.9568 -0.6731 -1.3657
18157TIP3    H275963   5.316  -0.000  15.540  1.0249  0.0488  0.5886
18158TIP3   OH275964   4.034   4.173   6.192  0.3713  0.5866  0.1701
18158TIP3    H175965   4.067   4.243   6.136 -0.1634  0.9388  0.2917
18158TIP3    H275966   4.111   4.144   6.242  0.7481  0.5936 -0.3919
18159TIP3   OH275967   2.250   0.983   0.718  0.0977 -0.5564  0.1433
18159TIP3    H175968   2.276   1.020   0.633  0.8151 -0.8390  0.2330
18159TIP3    H275969   2.171   0.934   0.699  0.3229 -0.7226 -0.3955
18160TIP3   OH275970   1.042   5.401  13.285 -0.0801  0.0075 -0.1929
18160TIP3    H175971   0.979   5.366  13.348  0.0737  0.0841  0.0046
18160TIP3    H275972   1.034   5.344  13.209  1.4853 -1.6262  0.7995
18161TIP3   OH275973   0.553   1.372   3.776  0.4954  0.1837 -0.3822
18161TIP3    H175974   0.466   1.406   3.794  0.2049 -1.5489  1.8547
18161TIP3    H275975   0.612   1.443   3.800 -0.2427  0.6483  0.0930
18162TIP3   OH275976   4.546   4.790  14.961  0.0675  0.5156  0.0082
18162TIP3    H175977   4.535   4.849  15.036 -0.7721 -1.1763  1.2922
18162TIP3    H275978   4.510   4.707  14.991  3.6706 -1.5011 -0.7072
18163TIP3   OH275979   4.200   0.021   3.836 -0.4994  0.1185  0.3261
18163TIP3    H175980   4.179  -0.053   3.893  1.4008 -1.7823 -1.2796
18163TIP3    H275981   4.138   0.014   3.764 -0.8742  0.6558  0.5832
18164TIP3   OH275982   5.351   3.501   2.726  0.5795 -0.8417  0.0145
18164TIP3    H175983   5.444   3.519   2.719  0.1145  1.9679 -0.0451
18164TIP3    H275984   5.309   3.564   2.668 -1.3952 -1.6790  0.4247
18165TIP3   OH275985   5.232   5.796  14.345 -0.4155 -0.2019 -0.1661
18165TIP3    H175986   5.253   5.717  14.296 -0.4424  0.1522 -0.7568
18165TIP3    H275987   5.211   5.861  14.278 -2.0639 -0.1610  0.3456
18166TIP3   OH275988   6.325   0.186  11.267 -0.6165 -0.1098  0.3548
18166TIP3    H175989   6.420   0.184  11.259 -0.7793 -1.3877 -2.2186
18166TIP3    H275990   6.304   0.279  11.279  0.8757  0.3966 -0.6526
18167TIP3   OH275991   6.442   6.759  15.619  0.5269 -0.5017  0.7790
18167TIP3    H175992   6.488   6.811  15.553 -0.0484 -0.4404  0.4194
18167TIP3    H275993   6.390   6.696  15.569 -1.8280  1.1029  1.0333
18168TIP3   OH275994   4.361   0.941  12.345  0.1327  0.4940  0.1265
18168TIP3    H175995   4.390   0.872  12.286 -1.5058  1.1105 -1.4650
18168TIP3    H275996   4.284   0.904  12.389 -0.2504  1.0044 -0.1112
18169TIP3   OH275997   2.858   6.609  11.351 -0.1688 -0.1669 -0.2657
18169TIP3    H175998   2.886   6.568  11.269  0.1762 -1.2590  0.3727
18169TIP3    H275999   2.891   6.699  11.345 -0.6780 -0.0465 -1.5715
18170TIP3   OH276000   3.567   4.348  13.417  0.4003 -0.1000  0.2719
18170TIP3    H176001   3.542   4.293  13.344  0.0511  2.7368 -1.9144
18170TIP3    H276002   3.650   4.311  13.448  1.5560 -0.3517 -2.8160
18171TIP3   OH276003   0.339   5.916  12.997 -0.0450 -0.2023 -0.3234
18171TIP3    H176004   0.327   5.824  12.972  1.1846 -1.0286  1.8416
18171TIP3    H276005   0.252   5.944  13.027 -0.2052 -1.0095  0.0006
18172TIP3   OH276006   4.092   3.578  15.749  0.8799 -0.3129 -0.1709
18172TIP3    H176007   4.048   3.659  15.723  0.0687 -0.2366  1.3390
18172TIP3    H276008   4.089   3.523  15.671 -0.3481  0.3537 -0.6244
18173TIP3   OH276009   2.240   5.520   0.018  0.0374 -0.2007  0.3922
18173TIP3    H176010   2.259   5.474  -0.064 -2.0954  0.0920 -0.3330
18173TIP3    H276011   2.161   5.477   0.051 -0.0670  0.7651  1.4481
18174TIP3   OH276012   1.618   4.700   0.542  0.7622  0.1958 -0.0745
18174TIP3    H176013   1.592   4.752   0.618  1.4453 -0.5841  0.7190
18174TIP3    H276014   1.714   4.705   0.541  0.7930 -0.3080 -0.5103
18175TIP3   OH276015   5.617   3.386   2.734 -0.2036  0.9353  0.2753
18175TIP3    H176016   5.637   3.461   2.790  0.6688  0.6113  0.4090
18175TIP3    H276017   5.691   3.381   2.673  1.0003 -1.2548  1.7815
18176TIP3   OH276018   4.751   4.751   3.777 -0.3859 -0.2149  0.3215
18176TIP3    H176019   4.784   4.831   3.818  1.3670 -0.1959 -0.9929
18176TIP3    H276020   4.813   4.734   3.706 -2.4685 -1.0073 -1.4091
18177TIP3   OH276021   2.026   4.361   1.779  0.8141 -0.7359  0.0419
18177TIP3    H176022   2.063   4.333   1.862 -0.2174 -0.9055  0.4579
18177TIP3    H276023   1.936   4.388   1.800  0.2913 -1.4645 -1.1274
18178TIP3   OH276024   0.545   0.471   5.424 -0.9963  0.0021  0.0305
18178TIP3    H176025   0.621   0.460   5.367 -1.2690 -0.4371 -0.2517
18178TIP3    H276026   0.514   0.560   5.404  2.2362  2.2557  3.5787
18179TIP3   OH276027   0.127   4.940  12.448  0.5081 -0.0139  0.3237
18179TIP3    H176028   0.035   4.933  12.473  0.2597  2.3847  0.2429
18179TIP3    H276029   0.143   5.034  12.441  2.1872 -0.4058 -2.5369
18180TIP3   OH276030   3.243   3.379  13.036 -0.2621  0.2982 -0.7058
18180TIP3    H176031   3.281   3.313  13.094 -0.7599 -1.8069 -2.6221
18180TIP3    H276032   3.150   3.360  13.035 -0.5914  1.8215 -0.3823
18181TIP3   OH276033   2.839   0.870   1.092  0.4159  0.6301 -0.0595
18181TIP3    H176034   2.791   0.917   1.160 -4.9152 -0.5854 -2.4722
18181TIP3    H276035   2.869   0.790   1.134 -1.2458  0.6720  1.2989
18182TIP3   OH276036   4.536   1.566   3.981  0.1363  0.1762 -0.0828
18182TIP3    H176037   4.530   1.523   3.895 -0.3985 -0.9148  0.4832
18182TIP3    H276038   4.479   1.642   3.973  1.0791  0.8084 -1.0998
18183TIP3   OH276039   5.189   4.099   4.821 -0.1888  0.1069 -0.2834
18183TIP3    H176040   5.171   4.157   4.748  1.0607 -0.2344 -0.8885
18183TIP3    H276041   5.155   4.013   4.794 -2.0936  0.5146  0.6361
18184TIP3   OH276042   2.468   6.088  11.937  0.0276  0.2593 -0.8380
18184TIP3    H176043   2.426   6.120  11.857  0.1274  1.8752 -0.2682
18184TIP3    H276044   2.559   6.115  11.929 -0.1629  1.2825  0.2390
18185TIP3   OH276045   4.779   0.548   6.105 -0.0459 -0.2911 -0.2310
18185TIP3    H176046   4.852   0.536   6.044  1.1318  2.2931  0.5567
18185TIP3    H276047   4.731   0.623   6.072  0.0274  0.5335  1.3996
18186TIP3   OH276048   3.053   5.957   5.324 -0.0211 -0.0956 -0.0653
18186TIP3    H176049   3.095   5.877   5.296  0.8637  0.5473 -0.6138
18186TIP3    H276050   2.975   5.928   5.371  0.3239 -1.2667 -0.1929
18187TIP3   OH276051   2.798   1.386  15.606 -0.1257  0.1516  0.4357
18187TIP3    H176052   2.770   1.386  15.697  0.8212 -2.7634  0.8264
18187TIP3    H276053   2.851   1.465  15.597 -2.1977  1.7693  1.6814
18188TIP3   OH276054   1.946   1.110   1.865  0.5093  0.6248  0.2703
18188TIP3    H176055   1.923   1.019   1.850 -2.6594  0.9986  2.0443
18188TIP3    H276056   1.965   1.116   1.959  0.0906  1.8688  0.3027
18189TIP3   OH276057   6.241   3.001   0.098 -0.3055 -0.0350  0.4383
18189TIP3    H176058   6.284   2.919   0.124  0.3030  0.2942  0.4765
18189TIP3    H276059   6.181   3.020   0.171 -1.6341 -1.2683 -0.2760
18190TIP3   OH276060   2.243   3.983  13.204 -1.3027  0.2248  0.0687
18190TIP3    H176061   2.234   3.889  13.189  0.9933 -0.0091 -0.1932
18190TIP3    H276062   2.228   3.995  13.298  1.5098 -0.9341  0.7603
18191TIP3   OH276063   4.849   3.368  12.655  0.1339 -0.4491 -0.0288
18191TIP3    H176064   4.807   3.389  12.739 -2.0685 -0.0840 -1.1731
18191TIP3    H276065   4.820   3.279  12.635 -1.3530  0.3307 -1.5312
18192TIP3   OH276066   5.031   2.185  11.473 -0.1401  0.4598 -0.0383
18192TIP3    H176067   5.119   2.173  11.438 -0.2373  0.6617 -0.3562
18192TIP3    H276068   4.973   2.166  11.400 -0.3465  0.8133  0.0322
18193TIP3   OH276069   6.266   5.684  13.551 -0.4944  0.2326 -0.4187
18193TIP3    H176070   6.198   5.652  13.609 -0.4823  2.2539  0.7892
18193TIP3    H276071   6.225   5.755  13.502 -0.3058 -0.9848 -2.4591
18194TIP3   OH276072   3.646   0.800   6.297 -0.3265  0.4494  0.2091
18194TIP3    H176073   3.612   0.867   6.356 -1.5063  0.6428 -0.6387
18194TIP3    H276074   3.651   0.721   6.350 -0.1406  0.9165  0.8961
18195TIP3   OH276075   2.295   3.559   6.521 -0.1954 -0.2390 -0.4610
18195TIP3    H176076   2.267   3.474   6.488 -0.8047 -0.4808  0.6264
18195TIP3    H276077   2.216   3.597   6.560 -0.3144  1.4763 -2.1670
18196TIP3   OH276078   5.489   0.751  12.812  0.0581 -0.0274 -0.1655
18196TIP3    H176079   5.407   0.737  12.860  0.5844 -1.2558  0.4202
18196TIP3    H276080   5.537   0.814  12.866 -1.0097  1.7349 -1.1821
18197TIP3   OH276081   6.532   5.863   3.342 -0.2947 -0.1666  0.1074
18197TIP3    H176082   6.568   5.830   3.424 -1.3006  0.5719  0.8624
18197TIP3    H276083   6.472   5.795   3.312 -0.1910 -0.2794  0.1532
18198TIP3   OH276084   4.677   6.238   5.859 -0.1219 -0.4998  0.2562
18198TIP3    H176085   4.702   6.174   5.925  0.2644  0.5809  1.1965
18198TIP3    H276086   4.759   6.263   5.817 -0.1067  0.2430  0.7137
18199TIP3   OH276087   3.810   3.769  17.380 -0.2942  0.0419 -0.0514
18199TIP3    H176088   3.840   3.807  17.463  0.1943 -1.4548  0.5065
18199TIP3    H276089   3.721   3.739  17.399 -1.0069  1.5980 -0.7437
18200TIP3   OH276090   3.502   1.397  11.639 -0.2036  0.2359 -0.3484
18200TIP3    H176091   3.449   1.325  11.673 -1.0553  0.1913 -1.6897
18200TIP3    H276092   3.476   1.404  11.547  0.1528  2.0050 -0.3421
18201TIP3   OH276093   1.468   0.015  16.516 -0.1001 -0.0762  0.0361
18201TIP3    H176094   1.488   0.107  16.504 -1.5758 -0.0834 -3.6405
18201TIP3    H276095   1.503  -0.028  16.438 -0.8476 -2.4053  0.8902
18202TIP3   OH276096   3.750   2.708   5.164  0.7101  0.0032  0.5068
18202TIP3    H176097   3.732   2.712   5.070  2.7680 -2.0468 -0.0556
18202TIP3    H276098   3.697   2.635   5.196 -0.4291  1.0565  1.1029
18203TIP3   OH276099   6.245   5.177   3.921 -0.1719  0.2256  0.0397
18203TIP3    H176100   6.253   5.256   3.974  0.4406  0.1666  0.0424
18203TIP3    H276101   6.202   5.113   3.978 -0.2386  0.4112  0.1974
18204TIP3   OH276102   5.599   0.308   6.064 -0.1912  0.6921 -0.1875
18204TIP3    H176103   5.657   0.380   6.038 -0.0585  0.9079  0.6776
18204TIP3    H276104   5.584   0.259   5.983  0.4986  1.1334 -0.5938
18205TIP3   OH276105   2.574   1.765  13.856 -0.3971 -0.8085 -0.1966
18205TIP3    H176106   2.486   1.736  13.833 -0.5588 -0.4833  0.0028
18205TIP3    H276107   2.582   1.746  13.949 -0.4098 -0.4574 -0.1215
18206TIP3   OH276108   6.073   2.953   4.500 -0.0573 -0.1735  0.2498
18206TIP3    H176109   6.139   2.914   4.443 -1.0673  0.1209 -1.1887
18206TIP3    H276110   6.087   3.048   4.491  0.9667 -0.1245  1.9896
18207TIP3   OH276111   2.844   6.327  12.365 -0.1641  0.0185  0.8438
18207TIP3    H176112   2.808   6.251  12.318  1.9727  0.4528 -1.7563
18207TIP3    H276113   2.911   6.289  12.421 -0.7745 -0.2260  1.4243
18208TIP3   OH276114   6.281   2.919  12.166  0.9039 -0.3118 -0.1869
18208TIP3    H176115   6.294   2.888  12.076  2.5397  0.9422 -0.4310
18208TIP3    H276116   6.209   2.982  12.159 -0.5704 -1.9330 -0.1665
18209TIP3   OH276117   0.783   2.999   2.968 -0.6232 -0.6419 -0.1159
18209TIP3    H176118   0.836   3.032   2.895  2.5609 -2.8103  1.0049
18209TIP3    H276119   0.737   2.923   2.932  0.1135 -1.0746 -0.1662
18210TIP3   OH276120   1.788   6.494  10.802  0.3391  0.2530  0.3569
18210TIP3    H176121   1.730   6.570  10.796 -0.6221 -0.4734  0.2921
18210TIP3    H276122   1.744   6.434  10.862  1.0638 -0.2800  0.3738
18211TIP3   OH276123   3.343   0.214  15.003 -0.0310  0.1599 -0.0209
18211TIP3    H176124   3.341   0.246  14.913  0.0019  0.5610  0.1216
18211TIP3    H276125   3.257   0.175  15.017 -0.1221  0.3200 -0.1440
18212TIP3   OH276126   1.290   2.064  15.117 -0.4412  0.1906  0.2597
18212TIP3    H176127   1.264   1.986  15.165 -1.8274  0.6515  0.3081
18212TIP3    H276128   1.385   2.056  15.107 -0.6491 -1.8308 -0.3631
18213TIP3   OH276129   1.031   3.271  12.554 -0.2572  0.4338 -0.2072
18213TIP3    H176130   0.973   3.329  12.604 -0.3304  0.5714 -0.4525
18213TIP3    H276131   1.029   3.306  12.465 -0.2357  0.1052 -0.3369
18214TIP3   OH276132   0.797   5.168  13.943 -0.0858  0.4392  0.3033
18214TIP3    H176133   0.833   5.233  14.004  0.6352  0.5405 -0.2066
18214TIP3    H276134   0.812   5.084  13.985 -0.8828  0.5859  0.8987
18215TIP3   OH276135   3.474   3.193  16.850 -0.4362 -0.6396  0.1165
18215TIP3    H176136   3.513   3.254  16.912 -3.0694 -0.1443  1.4022
18215TIP3    H276137   3.401   3.153  16.898  1.0220 -4.7473 -0.6834
18216TIP3   OH276138   1.073   5.844  14.233  0.1972 -0.4126  0.6528
18216TIP3    H176139   1.070   5.796  14.149 -3.1161  0.1593  0.3122
18216TIP3    H276140   1.158   5.888  14.232 -0.3566  0.9703 -3.2803
18217TIP3   OH276141   2.177   1.800  17.186 -0.8514  0.3721  0.4952
18217TIP3    H176142   2.191   1.706  17.177 -2.2319  0.0431  1.4120
18217TIP3    H276143   2.197   1.836  17.100  0.6337 -0.6216  0.3933
18218TIP3   OH276144   0.946   2.471  13.742  0.4629 -0.1255  0.1399
18218TIP3    H176145   1.026   2.522  13.728  1.2784 -1.3529  0.1797
18218TIP3    H276146   0.882   2.511  13.682  1.2158  0.6021 -0.2060
18219TIP3   OH276147   4.786   1.344   1.243  0.1794  0.4724 -0.5434
18219TIP3    H176148   4.795   1.357   1.338 -1.6642  0.0069 -0.2647
18219TIP3    H276149   4.795   1.250   1.230  0.5573  0.5491 -0.8558
18220TIP3   OH276150   1.020   1.325   3.327  0.4007 -0.1403  0.1121
18220TIP3    H176151   1.057   1.258   3.270 -0.1978 -1.0002  0.7060
18220TIP3    H276152   1.095   1.379   3.353  0.6828  0.2922 -1.4757
18221TIP3   OH276153   6.291   6.278   4.221 -0.0864  0.0863  0.4710
18221TIP3    H176154   6.261   6.211   4.161  0.2217 -0.9440  1.4273
18221TIP3    H276155   6.363   6.237   4.269  1.7751  1.8923 -0.5858
18222TIP3   OH276156   4.897   1.169  16.098 -0.1505  0.0705  0.5257
18222TIP3    H176157   4.981   1.127  16.117  0.6839  1.2136 -0.4328
18222TIP3    H276158   4.840   1.098  16.070  0.3793 -0.7749  1.5197
18223TIP3   OH276159   1.198   6.647   0.162 -0.3592  0.5452 -0.5038
18223TIP3    H176160   1.242   6.586   0.102 -0.2383  0.5237 -0.3943
18223TIP3    H276161   1.217   6.611   0.249 -0.5640  0.5566 -0.4556
18224TIP3   OH276162   1.795   2.044  16.439  0.0881 -0.0493 -0.0793
18224TIP3    H176163   1.740   1.966  16.442 -1.3226  0.9196  2.1106
18224TIP3    H276164   1.867   2.025  16.500 -1.3096  0.9766  2.0244
18225TIP3   OH276165   2.979   4.562  17.478  0.1897 -0.3454 -0.4020
18225TIP3    H176166   2.992   4.566  17.573  0.7036  1.4326 -0.5038
18225TIP3    H276167   3.054   4.608  17.441 -0.5574 -0.0364 -1.6169
18226TIP3   OH276168   0.466   4.056  16.947 -0.1330  0.2717 -0.6485
18226TIP3    H176169   0.533   3.992  16.967  0.4657  1.5524  1.8950
18226TIP3    H276170   0.513   4.130  16.908 -0.2531  0.5836 -0.2193
18227TIP3   OH276171   2.561   2.364  11.408 -0.0732  0.5908  0.4122
18227TIP3    H176172   2.485   2.310  11.430  0.2230  0.3722  0.9095
18227TIP3    H276173   2.635   2.320  11.450  0.2012  1.2717  0.6473
18228TIP3   OH276174   0.272   5.012   0.771  0.1663 -0.0545  0.1303
18228TIP3    H176175   0.209   4.969   0.830 -2.1483  0.8753 -1.4953
18228TIP3    H276176   0.311   5.081   0.824 -0.0706 -0.7235  1.2264
18229TIP3   OH276177   1.199   0.261  11.795  0.2504 -0.3239 -0.6850
18229TIP3    H176178   1.134   0.317  11.751  1.1941  0.4268 -1.1542
18229TIP3    H276179   1.178   0.269  11.888 -0.2950 -0.0434 -0.8250
18230TIP3   OH276180   1.353   2.782  13.641 -0.0720 -0.1840  0.3927
18230TIP3    H176181   1.311   2.855  13.687  1.4418  0.9066  0.1198
18230TIP3    H276182   1.431   2.821  13.601  0.6858 -1.9299  0.1021
18231TIP3   OH276183   2.693   1.604   5.248 -0.3813  0.0290 -0.0356
18231TIP3    H176184   2.667   1.657   5.173 -1.2753  0.0002  0.2348
18231TIP3    H276185   2.619   1.610   5.308 -0.1912 -0.9293  0.3190
18232TIP3   OH276186   4.574   6.650  13.008  0.1515  0.0829  0.6592
18232TIP3    H176187   4.644   6.620  13.066 -0.2603 -1.4444  0.4157
18232TIP3    H276188   4.615   6.654  12.922 -0.5098 -2.9894  0.0858
18233TIP3   OH276189   1.377   0.397  13.347  0.1679 -0.1543  0.5042
18233TIP3    H176190   1.353   0.306  13.365  1.0522 -0.5070  0.0001
18233TIP3    H276191   1.467   0.391  13.315 -0.1138  0.7871 -0.5282
18234TIP3   OH276192   0.729   2.083   3.557  0.1315  0.0046 -0.3233
18234TIP3    H176193   0.783   2.118   3.486  0.8491  2.0648  1.1589
18234TIP3    H276194   0.777   2.103   3.637 -1.3221 -1.0019  0.8741
18235TIP3   OH276195   0.966   4.152   5.386 -0.9046 -0.2342  0.1791
18235TIP3    H176196   0.913   4.098   5.327  0.0186 -1.5722  0.5281
18235TIP3    H276197   0.915   4.158   5.466 -2.7257  2.5748 -1.0190
18236TIP3   OH276198   1.216   2.471   1.907  0.2156 -0.0045  0.2594
18236TIP3    H176199   1.162   2.394   1.922 -0.0093  0.1051  0.0063
18236TIP3    H276200   1.154   2.542   1.890  0.3922  0.3733  1.1055
18237TIP3   OH276201   1.804   0.063  14.135 -0.3433 -0.4844  0.0848
18237TIP3    H176202   1.730   0.123  14.126  0.2497  0.3412  0.4989
18237TIP3    H276203   1.880   0.121  14.143  0.5615 -1.3163 -1.8797
18238TIP3   OH276204   1.181   2.330   5.889 -0.0289  0.3573  0.9310
18238TIP3    H176205   1.267   2.294   5.912 -0.5454 -1.2940  0.3647
18238TIP3    H276206   1.199   2.422   5.867  1.9855 -0.4749 -1.3317
18239TIP3   OH276207   1.722   4.807  11.899 -0.2231 -0.3645 -0.0712
18239TIP3    H176208   1.749   4.880  11.956  0.8431 -1.0648  0.3533
18239TIP3    H276209   1.753   4.729  11.945 -0.6567 -1.0377 -0.9131
18240TIP3   OH276210   0.116   4.452   4.566 -0.2965 -0.0114 -0.6139
18240TIP3    H176211   0.063   4.379   4.598 -0.7231  0.3878 -0.3851
18240TIP3    H276212   0.130   4.507   4.644 -1.4303  1.0280 -1.0993
18241TIP3   OH276213   4.304   2.349  14.558 -0.1574  0.1107 -0.8045
18241TIP3    H176214   4.223   2.350  14.610 -0.5593  1.4344 -1.4054
18241TIP3    H276215   4.319   2.441  14.536  1.2397 -0.1817 -1.1376
18242TIP3   OH276216   1.491   0.652  15.978 -0.0759  0.3878 -0.1705
18242TIP3    H176217   1.490   0.689  16.066 -0.6329  1.3704 -0.5823
18242TIP3    H276218   1.551   0.578  15.985  0.1603  0.6597  0.9495
18243TIP3   OH276219   3.724   2.748   0.626 -0.5044 -0.1796 -0.0751
18243TIP3    H176220   3.746   2.684   0.693  0.2166 -0.7186 -0.8148
18243TIP3    H276221   3.677   2.698   0.559  2.3821 -0.5823 -1.9559
18244TIP3   OH276222   1.198   2.312   5.324 -0.0748 -0.3688 -0.2108
18244TIP3    H176223   1.252   2.239   5.354  0.2859 -0.0067  0.0479
18244TIP3    H276224   1.207   2.378   5.393 -0.4182 -0.0956 -0.4240
18245TIP3   OH276225   1.748   5.862  14.795 -0.2430 -0.0297  0.7363
18245TIP3    H176226   1.840   5.845  14.774 -0.3531 -0.7003  0.7730
18245TIP3    H276227   1.701   5.850  14.713 -0.5731 -1.9000  1.1405
18246TIP3   OH276228   2.280   4.446   1.613  0.3695  0.3238  0.6188
18246TIP3    H176229   2.371   4.472   1.628  0.8082 -0.7450 -0.1307
18246TIP3    H276230   2.258   4.392   1.689  1.1037 -1.2570 -0.2445
18247TIP3   OH276231   3.636   6.499   0.285 -0.0794  0.2203 -0.2540
18247TIP3    H176232   3.619   6.546   0.367  1.2744  1.2684 -0.5389
18247TIP3    H276233   3.557   6.515   0.232 -0.1562  1.1721  0.1184
18248TIP3   OH276234   1.861   5.153   3.615  0.0009 -0.3254 -0.0287
18248TIP3    H176235   1.902   5.228   3.658 -0.0458 -0.6181  0.5347
18248TIP3    H276236   1.779   5.187   3.579 -1.4203 -0.6975  2.6238
18249TIP3   OH276237   6.752   1.738  13.371 -0.2309  0.1075  0.1877
18249TIP3    H176238   6.695   1.693  13.434  0.2723  1.6551  1.8605
18249TIP3    H276239   6.829   1.682  13.364 -1.0716 -0.9975 -0.5268
18250TIP3   OH276240   3.919   4.013   0.512 -0.1541 -0.7829  0.1810
18250TIP3    H176241   3.939   3.974   0.597  1.7870 -1.1285 -0.3994
18250TIP3    H276242   3.863   4.088   0.533  0.6705 -0.5898  1.8087
18251TIP3   OH276243   5.426   1.094   2.884  0.5402  0.0220  0.0783
18251TIP3    H176244   5.335   1.103   2.913  0.6164  0.7343  0.1106
18251TIP3    H276245   5.451   1.006   2.912  0.0453  0.0357  0.5889
18252TIP3   OH276246   2.654   1.651   0.707  0.0160  0.8519 -0.0869
18252TIP3    H176247   2.646   1.701   0.789  0.8218  1.1656 -0.1900
18252TIP3    H276248   2.733   1.599   0.719 -0.7216 -0.3058 -0.0501
18253TIP3   OH276249   1.669   2.871  11.613 -0.0350  0.2746 -0.1110
18253TIP3    H176250   1.581   2.887  11.581 -0.1436  0.5421  0.3142
18253TIP3    H276251   1.659   2.801  11.677  0.2074 -0.3897 -0.7838
18254TIP3   OH276252   1.649   3.702  11.459 -0.5371 -0.2529  0.2543
18254TIP3    H176253   1.714   3.640  11.492  1.7884  2.2458  0.6980
18254TIP3    H276254   1.691   3.743  11.384 -0.8404  2.6153  1.5309
18255TIP3   OH276255   3.435   6.651   2.981  0.4091 -0.6351  0.0742
18255TIP3    H176256   3.410   6.740   2.957  1.2794 -0.3624  0.1721
18255TIP3    H276257   3.377   6.629   3.054  0.5533  0.0520  0.4034
18256TIP3   OH276258   0.022   1.988   2.101 -0.4034  0.4804  0.3518
18256TIP3    H176259   0.050   1.896   2.108  0.1839  0.7201  1.4739
18256TIP3    H276260  -0.071   1.984   2.082 -0.4596 -0.3600  0.7604
18257TIP3   OH276261   3.549   2.487   4.302 -0.1013 -0.2045  0.0767
18257TIP3    H176262   3.586   2.575   4.301 -0.0496 -0.2092  1.0203
18257TIP3    H276263   3.582   2.447   4.383  0.1515 -1.2134 -0.4955
18258TIP3   OH276264   2.119   6.455   0.284  0.4556  0.1051 -0.0301
18258TIP3    H176265   2.207   6.493   0.290  0.6414 -0.1254 -1.2049
18258TIP3    H276266   2.069   6.501   0.351  0.7786  2.1418 -1.1179
18259TIP3   OH276267   5.833   1.408  17.354  0.7471 -0.1221  0.1121
18259TIP3    H176268   5.752   1.365  17.381  0.6781 -0.7835 -1.0887
18259TIP3    H276269   5.895   1.336  17.341  1.4597  0.3556  0.7429
18260TIP3   OH276270   1.683   6.226   2.574  0.0456  0.5883 -0.6342
18260TIP3    H176271   1.598   6.258   2.547 -0.5479 -1.5144 -1.4630
18260TIP3    H276272   1.665   6.164   2.645  1.1008  1.7415  0.6994
18261TIP3   OH276273   3.501   0.719   4.966 -0.0460  0.0097 -0.5301
18261TIP3    H176274   3.453   0.802   4.967  1.2811  0.8805  2.4608
18261TIP3    H276275   3.564   0.729   4.895 -0.3669  1.3043 -0.6676
18262TIP3   OH276276   6.480   0.777  13.643  0.7005 -0.2776 -0.3543
18262TIP3    H176277   6.470   0.869  13.618  4.0077  0.6793  1.3549
18262TIP3    H276278   6.493   0.731  13.560 -1.7204  0.5670 -1.2963
18263TIP3   OH276279   1.872   6.711   5.407  0.1547 -0.2878  0.1983
18263TIP3    H176280   1.851   6.739   5.496  0.3917 -0.1826  0.2218
18263TIP3    H276281   1.890   6.792   5.359  2.3957 -0.4543  0.6671
18264TIP3   OH276282   4.137   3.808  12.209 -0.4722  0.4665 -0.0634
18264TIP3    H176283   4.189   3.880  12.243  2.4723 -2.4426  2.1918
18264TIP3    H276284   4.107   3.760  12.287 -1.7162 -1.1433 -1.4418
18265TIP3   OH276285   5.957   0.140  12.369 -0.0642 -0.8379  0.2163
18265TIP3    H176286   5.889   0.184  12.419  0.0338 -2.3633  1.7669
18265TIP3    H276287   6.037   0.187  12.390 -0.2771 -0.4457  0.1618
18266TIP3   OH276288   3.544   2.542  12.469 -0.0813 -0.1107  0.1538
18266TIP3    H176289   3.570   2.526  12.560 -0.7884 -0.4685  0.3022
18266TIP3    H276290   3.451   2.519  12.466 -0.0630 -0.1245 -0.6679
18267TIP3   OH276291   3.032   6.390  13.663  0.1248  0.4305  0.0495
18267TIP3    H176292   3.063   6.464  13.714  0.1694  0.0419  0.5883
18267TIP3    H276293   3.004   6.428  13.580 -1.8094  1.3493  1.0579
18268TIP3   OH276294   3.710   2.968  12.286  0.0079 -0.4919 -0.5883
18268TIP3    H176295   3.646   2.961  12.215 -1.7413 -0.4531  0.9161
18268TIP3    H276296   3.783   3.017  12.248 -0.6580 -0.9048 -2.4879
18269TIP3   OH276297   0.181   1.386  14.156 -0.1421 -0.3074 -0.4611
18269TIP3    H176298   0.239   1.339  14.215  0.8414 -0.5381 -1.5739
18269TIP3    H276299   0.112   1.323  14.134 -0.5768 -0.1823  0.4955
18270TIP3   OH276300   5.658   2.194  16.659 -0.5344  0.2417 -0.2655
18270TIP3    H176301   5.704   2.269  16.622  0.4245 -0.0043  0.3993
18270TIP3    H276302   5.709   2.169  16.736 -1.7828 -0.0331  0.5108
18271TIP3   OH276303   0.522   6.353  11.977  0.3621 -0.6012 -0.3080
18271TIP3    H176304   0.550   6.335  12.067 -0.6738 -0.7751 -0.0126
18271TIP3    H276305   0.453   6.418  11.986 -0.1726 -1.0737 -0.9286
18272TIP3   OH276306   3.879   1.482   0.689  0.2778  0.4925  0.1716
18272TIP3    H176307   3.960   1.483   0.638  0.4079  0.6447  0.3801
18272TIP3    H276308   3.870   1.391   0.719  0.9303  0.6953  1.0303
18273TIP3   OH276309   2.879   1.136  16.096  0.1443  0.4949  0.4967
18273TIP3    H176310   2.966   1.169  16.074 -0.0965  1.6917  1.2658
18273TIP3    H276311   2.849   1.093  16.016  0.1242  2.9190 -0.9024
18274TIP3   OH276312   4.945   4.258   1.774  0.6799  0.4794 -0.3803
18274TIP3    H176313   4.990   4.248   1.690  1.6010 -1.8131  0.2985
18274TIP3    H276314   4.885   4.183   1.778 -0.8280  1.6630  0.1722
18275TIP3   OH276315   2.205   4.364  12.972 -0.3184 -0.4265 -0.1106
18275TIP3    H176316   2.284   4.418  12.962 -0.3758 -0.1467  0.8310
18275TIP3    H276317   2.136   4.415  12.930 -0.5845  0.7705  1.6595
18276TIP3   OH276318   4.667   5.386   0.297  0.3957 -0.0971  0.6418
18276TIP3    H176319   4.725   5.310   0.286  0.8518  0.3155  0.1307
18276TIP3    H276320   4.594   5.369   0.237  0.4210 -0.2085  0.6431
18277TIP3   OH276321   0.016   2.148   3.589  0.0759 -0.1883  0.6256
18277TIP3    H176322  -0.018   2.215   3.529 -0.7304 -0.8578  0.3229
18277TIP3    H276323   0.057   2.198   3.660 -0.9326  0.6338  0.6531
18278TIP3   OH276324   4.459   4.825   3.824 -0.1921  0.0087 -0.4269
18278TIP3    H176325   4.413   4.876   3.757 -0.0736  0.1346 -0.4129
18278TIP3    H276326   4.545   4.808   3.787  0.4534  1.4643  0.3334
18279TIP3   OH276327   4.694   6.535  12.024 -0.0886  0.4421  0.3513
18279TIP3    H176328   4.743   6.519  11.943 -2.5648  1.0873 -1.3697
18279TIP3    H276329   4.673   6.448  12.057  0.7999  0.1787  0.2610
18280TIP3   OH276330   0.311   5.115  17.197  0.3748 -0.1130  0.1061
18280TIP3    H176331   0.386   5.090  17.252  0.2814  0.5419  0.5410
18280TIP3    H276332   0.321   5.209  17.185 -0.0455 -0.1277 -0.3502
18281TIP3   OH276333   1.886   2.883  16.302  0.5030 -0.6782 -0.9986
18281TIP3    H176334   1.965   2.835  16.279  0.9453 -0.2157 -0.4627
18281TIP3    H276335   1.917   2.965  16.339 -0.2401  0.6446 -3.1150
18282TIP3   OH276336   1.922   2.145  15.693  0.4488 -0.7955 -0.5606
18282TIP3    H176337   1.949   2.219  15.748  0.3796  0.0436 -1.6313
18282TIP3    H276338   1.847   2.108  15.739  0.4060 -0.1212 -0.0648
18283TIP3   OH276339   1.009   4.830   3.356  0.0837 -0.0556  0.1081
18283TIP3    H176340   1.075   4.794   3.297 -0.3349  0.5950 -0.7852
18283TIP3    H276341   0.934   4.771   3.347  0.0762 -0.0477  0.1172
18284TIP3   OH276342   4.359   4.149   2.929  0.0285  0.2111  0.1198
18284TIP3    H176343   4.382   4.208   2.857 -0.5067 -1.3270 -1.4048
18284TIP3    H276344   4.440   4.140   2.980  1.0229 -0.1510 -1.4379
18285TIP3   OH276345   2.816   5.487  12.348 -0.0025  0.1141 -0.3126
18285TIP3    H176346   2.759   5.544  12.399  0.9255  1.7064 -0.9706
18285TIP3    H276347   2.772   5.402  12.348 -1.0981  0.6466  1.2683
18286TIP3   OH276348   0.113   1.203  17.091 -0.4952 -0.0349 -0.1957
18286TIP3    H176349   0.071   1.268  17.148  1.5294 -0.1765  1.6249
18286TIP3    H276350   0.063   1.122  17.105 -0.7060  0.2178  0.5420
18287TIP3   OH276351   4.889   6.575   2.290  0.5655 -0.3463 -0.0658
18287TIP3    H176352   4.827   6.607   2.224  0.7017  0.0786  0.0077
18287TIP3    H276353   4.842   6.584   2.373  0.9399  0.5681  0.0614
18288TIP3   OH276354   5.907   1.151   6.078 -0.1361 -0.1167 -0.2113
18288TIP3    H176355   5.964   1.206   6.131  0.2739  0.2444 -0.9990
18288TIP3    H276356   5.841   1.119   6.139  1.3160 -1.1606  0.8799
18289TIP3   OH276357   2.870   4.946   3.829 -0.2245  0.4443  0.3496
18289TIP3    H176358   2.776   4.942   3.810  0.0494  1.4377 -1.5588
18289TIP3    H276359   2.905   5.004   3.761  1.4552  1.8563  2.2923
18290TIP3   OH276360   1.742   4.187  11.695 -0.0462  0.2733  0.6199
18290TIP3    H176361   1.773   4.104  11.731  1.0815  0.5193  0.2497
18290TIP3    H276362   1.687   4.162  11.621  3.4051 -0.1960 -2.0567
18291TIP3   OH276363   4.453   0.502   5.654 -0.9816  0.1873  0.1334
18291TIP3    H176364   4.462   0.546   5.739 -2.7740  2.5551 -0.7867
18291TIP3    H276365   4.380   0.547   5.612 -1.9356 -2.7329 -1.5933
18292TIP3   OH276366   5.992   4.385  13.716  0.2840 -0.0477 -0.2963
18292TIP3    H176367   5.981   4.429  13.799  1.4505 -0.3399  0.0443
18292TIP3    H276368   5.979   4.292  13.736  1.3201 -0.1994 -0.2583
18293TIP3   OH276369   2.398   0.540   3.201  0.4543  0.9630 -0.1213
18293TIP3    H176370   2.438   0.465   3.157  0.4330  0.5526  0.5390
18293TIP3    H276371   2.392   0.513   3.293 -3.3893  0.0852 -0.4880
18294TIP3   OH276372   2.332   0.599  15.116  0.4515  0.2635 -0.4410
18294TIP3    H176373   2.374   0.591  15.201 -0.8476 -1.8185  0.0711
18294TIP3    H276374   2.272   0.524  15.111 -1.4698  1.7893 -2.0824
18295TIP3   OH276375   5.299   4.942  15.375  0.2028  0.3967  0.5837
18295TIP3    H176376   5.293   5.013  15.311  0.4244 -0.2470 -0.1589
18295TIP3    H276377   5.351   4.979  15.447  1.0822  0.7005 -0.1942
18296TIP3   OH276378   2.397   3.160   3.838 -0.3962  0.2573 -0.1195
18296TIP3    H176379   2.405   3.209   3.756 -1.2485 -0.5511 -0.7062
18296TIP3    H276380   2.346   3.083   3.815 -0.7601  0.0738  1.2084
18297TIP3   OH276381   3.172   5.731   1.216  0.9230 -0.2909  0.6851
18297TIP3    H176382   3.097   5.783   1.186  0.5180  0.4114  2.7340
18297TIP3    H276383   3.187   5.667   1.146 -1.4151 -0.2734  0.0962
18298TIP3   OH276384   0.734   0.069  13.102  0.0038  0.0740  0.5354
18298TIP3    H176385   0.703   0.149  13.145  0.6295  0.2298  0.7137
18298TIP3    H276386   0.829   0.068  13.119  0.5645  0.9281 -2.0855
18299TIP3   OH276387   0.078   3.467  12.522  0.0487 -0.1614  0.4491
18299TIP3    H176388   0.094   3.555  12.557 -0.7587  0.1101  0.1710
18299TIP3    H276389   0.105   3.473  12.430 -3.6636  1.0274 -0.7376
18300TIP3   OH276390   2.755   2.367  14.944 -0.3260  0.6569  0.3818
18300TIP3    H176391   2.756   2.463  14.939  0.9244  0.5961 -1.5708
18300TIP3    H276392   2.687   2.341  14.882 -0.4088  0.2571  0.6371
18301TIP3   OH276393   2.033   2.533  15.902 -0.5620  0.2658 -0.7070
18301TIP3    H176394   2.040   2.622  15.938 -2.6136 -0.2089  1.0911
18301TIP3    H276395   2.098   2.482  15.950 -1.7852  0.1048  0.8487
18302TIP3   OH276396   2.472   2.730   3.397  0.5883 -0.0945  0.9418
18302TIP3    H176397   2.549   2.751   3.344 -0.2326  1.1527  0.1739
18302TIP3    H276398   2.495   2.758   3.485 -0.1268  3.6191  0.1399
18303TIP3   OH276399   0.991   4.997   6.141  0.0716 -0.0810  0.0052
18303TIP3    H176400   1.002   4.943   6.063 -1.4631  0.0963 -0.3581
18303TIP3    H276401   1.071   5.050   6.144 -0.1500  0.4556 -1.9005
18304TIP3   OH276402   1.591   1.561   1.003  0.2437  0.5845 -0.1764
18304TIP3    H176403   1.582   1.656   0.997  1.3270  0.7145  0.0790
18304TIP3    H276404   1.525   1.535   1.068 -0.6091  1.0472 -0.8350
18305TIP3   OH276405   2.331   4.238  13.975 -0.8888  0.1985  0.4117
18305TIP3    H176406   2.318   4.273  14.063  0.0126 -0.5755  0.8694
18305TIP3    H276407   2.425   4.243  13.961 -0.8965 -0.7266 -0.0638
18306TIP3   OH276408   2.632   0.113  14.261 -0.5431  0.1895  0.0740
18306TIP3    H176409   2.557   0.080  14.311 -0.7428  1.0947  0.3857
18306TIP3    H276410   2.599   0.190  14.216  0.0615  0.2796 -0.2178
18307TIP3   OH276411   3.640   1.868  15.694  0.3836 -0.6085 -0.1376
18307TIP3    H176412   3.644   1.959  15.723  0.2814 -0.1551 -1.4925
18307TIP3    H276413   3.723   1.830  15.722  0.6235  0.0304  0.0312
18308TIP3   OH276414   1.213   1.395   5.265  0.0743  0.1064  0.6462
18308TIP3    H176415   1.247   1.321   5.215  1.0358  1.1373 -0.2831
18308TIP3    H276416   1.246   1.381   5.354 -0.9766 -1.3182  0.8514
18309TIP3   OH276417   4.376   2.454  12.497 -0.6786 -0.6711  0.0875
18309TIP3    H176418   4.314   2.407  12.442  1.0802 -1.4976 -1.2935
18309TIP3    H276419   4.368   2.545  12.470 -2.6916 -0.4014  1.3795
18310TIP3   OH276420   1.997   1.033   2.132 -0.3618 -0.4046  0.1308
18310TIP3    H176421   2.070   0.970   2.131  0.3749  0.4272 -1.0669
18310TIP3    H276422   2.039   1.118   2.141 -1.0814  0.1683 -1.4668
18311TIP3   OH276423   4.354   0.497  10.649  0.3068  0.5599  0.0727
18311TIP3    H176424   4.430   0.473  10.596 -1.0370 -1.2999 -1.1359
18311TIP3    H276425   4.345   0.427  10.713 -1.5011 -0.3823 -1.1017
18312TIP3   OH276426   5.285   2.157   3.634 -0.2809 -0.0788  0.2484
18312TIP3    H176427   5.346   2.083   3.628 -0.7228 -0.5210  0.9709
18312TIP3    H276428   5.214   2.134   3.574 -0.5348 -0.3628  0.6529
18313TIP3   OH276429   6.056   0.440   3.423  0.5902 -0.1342 -0.0319
18313TIP3    H176430   6.033   0.533   3.417  0.6031 -0.1788 -0.8242
18313TIP3    H276431   6.016   0.400   3.346  1.4338 -0.6077 -0.2379
18314TIP3   OH276432   0.659   1.166  11.896 -0.1014  0.2041 -0.2314
18314TIP3    H176433   0.750   1.147  11.871 -0.2060 -1.2088  0.3808
18314TIP3    H276434   0.653   1.261  11.891  1.3165  0.3057 -0.6114
18315TIP3   OH276435   1.827   3.425   1.062  0.4918 -0.0252  0.1036
18315TIP3    H176436   1.921   3.418   1.077  0.5932 -1.9415 -1.1014
18315TIP3    H276437   1.817   3.419   0.967 -0.8839 -0.5450  0.2621
18316TIP3   OH276438   3.947   1.075   3.989 -0.0814  0.0602  0.1530
18316TIP3    H176439   3.910   0.988   4.005 -0.0842  0.4183  2.4418
18316TIP3    H276440   3.871   1.133   3.990 -0.0547  0.1422 -1.1626
18317TIP3   OH276441   1.501   2.415   3.869  0.0133  0.3784  0.3295
18317TIP3    H176442   1.475   2.405   3.961  0.4991 -0.3321  0.3921
18317TIP3    H276443   1.579   2.360   3.860 -0.3277  0.0423 -0.6382
18318TIP3   OH276444   3.775   2.861  17.330 -0.2879 -0.3611  0.2323
18318TIP3    H176445   3.708   2.929  17.340  1.2690  1.4631 -1.0332
18318TIP3    H276446   3.803   2.868  17.239  0.8431 -1.8670  0.4189
18319TIP3   OH276447   2.593   2.901   4.605 -0.3381  0.7923 -0.5369
18319TIP3    H176448   2.670   2.844   4.612 -0.8635  0.0350 -0.7930
18319TIP3    H276449   2.621   2.984   4.644  0.4854  0.4015 -0.2740
18320TIP3   OH276450   5.433   1.571   2.439 -0.7958  0.4592  0.3237
18320TIP3    H176451   5.456   1.529   2.355  1.5861 -1.3363  1.7478
18320TIP3    H276452   5.497   1.641   2.449  0.1534 -0.5308  1.4422
18321TIP3   OH276453   5.583   6.523  14.201  0.5080  1.1397  0.4100
18321TIP3    H176454   5.637   6.501  14.125  1.0142  0.7036  0.8894
18321TIP3    H276455   5.587   6.445  14.256  1.2896  1.9652  1.5510
18322TIP3   OH276456   5.734   1.955  14.314 -0.0246 -0.4044 -0.4642
18322TIP3    H176457   5.733   2.000  14.399 -2.5183  1.3482 -1.2838
18322TIP3    H276458   5.761   2.023  14.252 -2.4505 -0.3274 -1.5566
18323TIP3   OH276459   3.195   1.453   4.713  0.3017  0.5298 -0.2156
18323TIP3    H176460   3.189   1.546   4.735 -0.5366  0.6438 -0.8414
18323TIP3    H276461   3.288   1.437   4.701  0.6220  0.8867  1.5311
18324TIP3   OH276462   3.965   4.253  16.522  0.5335 -0.5589  0.0576
18324TIP3    H176463   4.006   4.208  16.448 -1.7196 -0.5328 -1.2905
18324TIP3    H276464   3.928   4.182  16.575  2.6636 -0.6240  1.5942
18325TIP3   OH276465   1.506   4.729  12.514 -0.0960 -0.6604 -0.0501
18325TIP3    H176466   1.562   4.671  12.564 -0.7883 -0.9203  0.4405
18325TIP3    H276467   1.551   4.741  12.431  2.4404  1.8671  1.4987
18326TIP3   OH276468   2.967   1.671  11.781 -0.3692 -0.1818 -0.1793
18326TIP3    H176469   2.907   1.746  11.777 -1.4206 -1.0143 -0.4742
18326TIP3    H276470   3.026   1.693  11.853 -1.1777  0.5648  0.2883
18327TIP3   OH276471   4.642   6.651   3.343  0.2500  0.0350  0.2134
18327TIP3    H176472   4.720   6.611   3.305 -0.1944  1.1637 -2.0636
18327TIP3    H276473   4.673   6.734   3.380  0.0530  0.7951 -1.2839
18328TIP3   OH276474   1.358   5.328   0.392 -0.1373  0.7985  0.0029
18328TIP3    H176475   1.389   5.410   0.432 -2.1213  1.4363  0.3425
18328TIP3    H276476   1.264   5.327   0.409 -0.0662 -1.9741  0.7306
18329TIP3   OH276477   6.609   3.733  13.189 -0.2205 -0.3613  0.3913
18329TIP3    H176478   6.525   3.729  13.236 -0.4081 -0.2958  0.0683
18329TIP3    H276479   6.591   3.792  13.115  0.5760  1.0344  1.2699
18330TIP3   OH276480   5.187   6.757   3.191  0.3274  0.3900 -0.2304
18330TIP3    H176481   5.219   6.765   3.281  0.1743 -0.8645 -0.0477
18330TIP3    H276482   5.137   6.837   3.176 -1.2221 -0.1905  1.4728
18331TIP3   OH276483   5.581   4.247   3.380 -0.0325  0.1649  0.2181
18331TIP3    H176484   5.613   4.337   3.375  1.5950 -0.4043 -0.1300
18331TIP3    H276485   5.515   4.242   3.311  1.0255  0.6545 -0.8712
18332TIP3   OH276486   4.779   2.963   0.720 -0.7989 -0.1570  0.3790
18332TIP3    H176487   4.740   3.031   0.664 -0.8126 -0.7715 -0.3828
18332TIP3    H276488   4.705   2.924   0.765 -1.1415 -1.4595 -1.2198
18333TIP3   OH276489   2.556   1.574   1.666 -0.5821 -0.6436  0.4451
18333TIP3    H176490   2.583   1.534   1.583  0.8057 -0.2969  0.7009
18333TIP3    H276491   2.472   1.533   1.686 -0.0107 -2.1997 -0.1423
18334TIP3   OH276492   3.241   6.416   0.644 -0.0342  0.3948  0.3606
18334TIP3    H176493   3.319   6.398   0.592  0.5892 -0.4066  1.5181
18334TIP3    H276494   3.201   6.492   0.602  1.6988  1.2040  0.1040
18335TIP3   OH276495   0.923   3.296   2.909  0.3314 -0.4411  0.3871
18335TIP3    H176496   1.001   3.241   2.904  1.1063  0.6321  0.2672
18335TIP3    H276497   0.854   3.244   2.868  1.2548 -0.9503 -0.5618
18336TIP3   OH276498   4.877   3.111  12.062  0.0656 -0.4164  0.1008
18336TIP3    H176499   4.844   3.170  11.994  0.1999 -1.0523 -0.5249
18336TIP3    H276500   4.841   3.026  12.040 -1.7092 -0.2572  2.0725
18337TIP3   OH276501   6.023   6.452   2.833  0.1799  0.8714  0.3297
18337TIP3    H176502   6.085   6.403   2.779  0.2994 -1.2787  2.2811
18337TIP3    H276503   6.077   6.498   2.897 -0.1020 -1.1221  2.1279
18338TIP3   OH276504   6.038   6.338  11.543 -0.0847  0.2302  0.5608
18338TIP3    H176505   5.960   6.314  11.493 -1.1772  0.2205  2.1954
18338TIP3    H276506   6.004   6.366  11.628  1.6873  0.4653  1.2251
18339TIP3   OH276507   4.911   6.107   2.480  0.5257 -0.1593 -0.8343
18339TIP3    H176508   4.844   6.154   2.529  0.9412 -1.0392  0.6733
18339TIP3    H276509   4.869   6.080   2.399 -0.6720  0.0359 -0.2881
18340TIP3   OH276510   5.061   1.000   2.046 -0.5283 -0.4237 -0.4210
18340TIP3    H176511   5.019   0.962   2.123  2.0967  2.5621  2.8797
18340TIP3    H276512   5.151   0.967   2.049  0.2995  1.6533 -0.6187
18341TIP3   OH276513   1.925   3.825  14.351  0.0581  0.0019  0.2429
18341TIP3    H176514   1.945   3.763  14.281  1.4605  1.6705 -0.9115
18341TIP3    H276515   1.991   3.807  14.418 -1.2336 -1.5386  1.1806
18342TIP3   OH276516   5.028   3.825  15.630  0.0336 -1.0072 -0.1265
18342TIP3    H176517   4.983   3.753  15.586 -2.7324 -0.0107  0.8193
18342TIP3    H276518   4.994   3.904  15.588  1.8973 -0.1848 -0.1678
18343TIP3   OH276519   1.723   2.115   2.990 -0.1965  0.8166 -0.3873
18343TIP3    H176520   1.735   2.064   2.909 -1.7585  1.9016 -1.3544
18343TIP3    H276521   1.804   2.164   3.000  0.9317 -1.0131  0.0009
18344TIP3   OH276522   2.338   0.982  13.925 -0.5272 -0.1248  0.3371
18344TIP3    H176523   2.360   0.925  13.851 -0.8271 -0.1922  0.2962
18344TIP3    H276524   2.376   1.067  13.902 -1.6461  0.1887 -0.4758
18345TIP3   OH276525   5.393   0.640   1.634 -0.3299  0.7090 -0.4132
18345TIP3    H176526   5.299   0.640   1.650 -0.1367  0.2901  0.8104
18345TIP3    H276527   5.413   0.551   1.608  0.2066 -0.1812  2.6407
18346TIP3   OH276528   1.679   3.898  16.398  0.0471  0.2977  0.0242
18346TIP3    H176529   1.741   3.908  16.326 -0.1921  2.8181  0.0715
18346TIP3    H276530   1.605   3.851  16.359 -0.4944  2.4261 -1.7102
18347TIP3   OH276531   4.759   4.135   2.268 -0.2311  0.2573  0.3724
18347TIP3    H176532   4.755   4.109   2.360 -2.0153 -0.5562  0.1122
18347TIP3    H276533   4.844   4.179   2.259  0.4651 -0.6167  2.1343
18348TIP3   OH276534   0.773   1.940  12.230  0.3675 -0.4242  0.2362
18348TIP3    H176535   0.689   1.907  12.260  1.0475 -1.9546  0.5907
18348TIP3    H276536   0.752   2.008  12.165 -1.1447 -1.8406 -0.8304
18349TIP3   OH276537   2.247   6.192   3.873  0.0558  0.0558 -0.1889
18349TIP3    H176538   2.307   6.255   3.833  0.2956  0.3402  0.6012
18349TIP3    H276539   2.176   6.183   3.809  1.5435 -1.2947 -1.7670
18350TIP3   OH276540   6.177   4.930  12.320  0.0315 -0.4881 -0.4135
18350TIP3    H176541   6.106   4.869  12.300  0.5481 -1.0574 -0.5556
18350TIP3    H276542   6.164   4.954  12.412 -0.3366 -0.5999 -0.4377
18351TIP3   OH276543   0.653   6.045  13.853 -0.1634  0.4652  0.0820
18351TIP3    H176544   0.630   6.029  13.761 -0.1487  2.2705 -0.2748
18351TIP3    H276545   0.629   6.137  13.868 -1.2313 -0.1126  2.2359
18352TIP3   OH276546   3.450   4.683   4.026 -0.1217  0.4964 -0.2792
18352TIP3    H176547   3.440   4.588   4.024  0.7641  0.4070 -1.6738
18352TIP3    H276548   3.411   4.709   4.110  0.0542 -1.1350  0.3510
18353TIP3   OH276549   2.358   1.021  13.495  0.2516 -0.2564  0.2853
18353TIP3    H176550   2.290   0.987  13.554 -0.6622  0.1807 -0.4882
18353TIP3    H276551   2.328   1.110  13.474  0.8079 -0.2413 -0.4615
18354TIP3   OH276552   2.995   3.003  12.526 -0.7984 -0.7313  0.5062
18354TIP3    H176553   3.024   2.932  12.468 -0.0341  0.6583 -0.8828
18354TIP3    H276554   2.900   3.002  12.518 -0.6775  0.0734 -1.6417
18355TIP3   OH276555   5.119   1.356   6.321  0.1876 -0.4075 -0.1278
18355TIP3    H176556   5.097   1.446   6.345  1.0669 -0.7684  2.3262
18355TIP3    H276557   5.037   1.308   6.328  0.4322 -0.5494  2.7242
18356TIP3   OH276558   5.894   6.497   1.237 -0.5384 -0.3272  0.6063
18356TIP3    H176559   5.858   6.513   1.150 -0.7874  2.2513  1.0868
18356TIP3    H276560   5.987   6.518   1.229 -0.7589  0.9795  1.1397
18357TIP3   OH276561   0.239   1.691  12.391 -0.1132 -0.1572 -0.2850
18357TIP3    H176562   0.217   1.621  12.453 -0.9692  0.8206  0.5524
18357TIP3    H276563   0.320   1.728  12.425 -0.2496 -0.0251 -0.1033
18358TIP3   OH276564   0.641   4.643  13.123  0.4478 -0.5266  0.0447
18358TIP3    H176565   0.621   4.688  13.042  2.2185 -1.0688 -0.7442
18358TIP3    H276566   0.571   4.578  13.133  1.3430 -1.9346 -2.2369
18359TIP3   OH276567   3.943   3.939  13.362 -0.9492 -0.0991  0.0426
18359TIP3    H176568   3.895   3.982  13.291 -1.9597  1.5386  1.6473
18359TIP3    H276569   3.977   4.011  13.415  0.7227 -1.2770  0.6308
18360TIP3   OH276570   4.562   3.423   1.584  0.1708 -0.0269  0.1126
18360TIP3    H176571   4.544   3.350   1.642  1.3315 -0.9609 -0.6532
18360TIP3    H276572   4.489   3.484   1.599 -0.5460 -1.0867  1.1403
18361TIP3   OH276573   4.990   1.262   0.265  0.2785  0.1594  0.0562
18361TIP3    H176574   4.959   1.176   0.296 -0.3434  0.9372  1.6875
18361TIP3    H276575   5.011   1.247   0.173 -0.2387 -1.6401  0.1806
18362TIP3   OH276576   0.029   1.659  16.032 -0.0832  0.2897  0.5024
18362TIP3    H176577   0.008   1.568  16.054 -0.2087  0.6372  1.9600
18362TIP3    H276578   0.072   1.654  15.947 -0.4838 -1.0878  0.3553
18363TIP3   OH276579   4.780   0.568   4.020  0.5646 -0.6156 -0.4634
18363TIP3    H176580   4.795   0.491   4.075  1.7221 -0.2349 -0.2345
18363TIP3    H276581   4.809   0.541   3.933 -1.6572 -1.3626 -1.0501
18364TIP3   OH276582   5.161   6.045  12.970 -0.2784  0.1865 -0.1851
18364TIP3    H176583   5.203   5.992  13.037 -0.2710 -0.2279 -0.5072
18364TIP3    H276584   5.117   6.115  13.018  2.3330  1.7697  0.0594
18365TIP3   OH276585   6.618   4.479   5.973  0.0353 -0.1046 -0.2619
18365TIP3    H176586   6.525   4.468   5.954 -0.0505  0.1184  0.0177
18365TIP3    H276587   6.634   4.418   6.045  0.3957 -1.0749 -1.1421
18366TIP3   OH276588   0.942   0.750  15.740 -0.1248 -0.5378  0.3225
18366TIP3    H176589   0.942   0.845  15.739  0.9115 -0.4718  1.9473
18366TIP3    H276590   0.923   0.727  15.831  1.7131 -1.7942  0.4602
18367TIP3   OH276591   4.318   6.032  13.219  0.2053 -0.5752 -0.0805
18367TIP3    H176592   4.312   6.077  13.304  1.5096 -2.3580  1.0213
18367TIP3    H276593   4.247   5.969  13.220  0.5198 -0.9330 -0.0986
18368TIP3   OH276594   5.383   1.136  15.992 -0.0129 -0.3167  0.5439
18368TIP3    H176595   5.343   1.144  16.079 -1.8663 -0.4501 -0.2546
18368TIP3    H276596   5.424   1.049  15.992 -2.2287 -1.4240  0.4514
18369TIP3   OH276597   5.772   2.044  12.638  0.2390 -0.7331  0.4888
18369TIP3    H176598   5.679   2.053  12.617  0.6480  0.6849 -0.8895
18369TIP3    H276599   5.810   2.004  12.559  1.3361  2.0127 -0.4973
18370TIP3   OH276600   6.732   5.906   4.683  0.5308 -0.2080  0.4843
18370TIP3    H176601   6.640   5.904   4.710  0.6757 -2.6049  0.9754
18370TIP3    H276602   6.733   5.864   4.597  1.1787 -0.2343  0.5022
18371TIP3   OH276603   4.625   1.794   2.895 -0.5876  0.0841 -0.0357
18371TIP3    H176604   4.630   1.851   2.818  0.9929 -1.1942 -0.9486
18371TIP3    H276605   4.575   1.718   2.865 -1.0607  0.1473  0.5892
18372TIP3   OH276606   0.752   0.840  17.073  0.4397 -0.2644  0.2698
18372TIP3    H176607   0.778   0.784  17.001  1.5755  0.7095 -0.1066
18372TIP3    H276608   0.817   0.822  17.142  0.1798 -0.1826  0.5392
18373TIP3   OH276609   5.180   2.048  16.647  0.0877 -0.1509 -0.8636
18373TIP3    H176610   5.245   2.063  16.578 -0.0769 -1.3298 -1.3005
18373TIP3    H276611   5.232   2.019  16.722  0.2110  0.5690 -0.6598
18374TIP3   OH276612   3.539   3.754  13.540 -0.4841  0.2052  0.0531
18374TIP3    H176613   3.543   3.714  13.453 -1.5437 -2.4785  1.1275
18374TIP3    H276614   3.541   3.848  13.523 -0.3021 -0.2215 -2.8297
18375TIP3   OH276615   2.974   5.785  14.116 -0.1001 -0.5936 -0.0214
18375TIP3    H176616   3.053   5.839  14.109 -0.9134  0.6656  0.0860
18375TIP3    H276617   2.988   5.732  14.194  1.0117 -1.0438 -0.5095
18376TIP3   OH276618   6.174   3.270  13.522  0.2738  0.0789 -0.2601
18376TIP3    H176619   6.266   3.247  13.507 -0.2230 -1.8916 -0.6838
18376TIP3    H276620   6.140   3.292  13.435  0.2855  0.5239 -0.1501
18377TIP3   OH276621   3.891   2.267   1.570  0.3489  0.1287  0.3584
18377TIP3    H176622   3.856   2.297   1.654  0.5499 -0.6650  0.7383
18377TIP3    H276623   3.897   2.172   1.579 -0.7825 -0.1114 -1.0061
18378TIP3   OH276624   2.322   3.042   0.501  0.2284 -0.0384  0.4279
18378TIP3    H176625   2.315   3.127   0.544 -1.8046  0.1718 -0.2218
18378TIP3    H276626   2.376   3.058   0.424 -2.4512  1.4519 -1.3245
18379TIP3   OH276627   3.171   6.646   4.775  0.1729  0.7838 -0.2185
18379TIP3    H176628   3.186   6.737   4.749 -2.4655  1.0742 -0.9884
18379TIP3    H276629   3.081   6.627   4.747  0.2003 -1.6711  1.0632
18380TIP3   OH276630   6.162   5.506   3.860 -0.0044 -0.3795  0.2584
18380TIP3    H176631   6.072   5.472   3.856 -0.2686  0.3475 -0.0266
18380TIP3    H276632   6.176   5.547   3.775  0.0445  0.8957  0.8554
18381TIP3   OH276633   5.735   2.371   2.869 -0.4478  0.1677 -0.6434
18381TIP3    H176634   5.723   2.452   2.918 -0.9394 -0.4397  0.2682
18381TIP3    H276635   5.684   2.383   2.790  0.3477  1.1600 -1.0311
18382TIP3   OH276636   1.338   4.926   0.416  0.2566 -0.0676  0.0678
18382TIP3    H176637   1.315   4.835   0.433 -0.9908  0.1779 -0.1693
18382TIP3    H276638   1.342   4.934   0.321  0.6806  0.0528  0.0934
18383TIP3   OH276639   5.408   0.677  16.892  0.2863  0.4889  0.3954
18383TIP3    H176640   5.434   0.672  16.984  0.2964  0.5826  0.3967
18383TIP3    H276641   5.314   0.696  16.895 -0.1106 -1.2747  0.4142
18384TIP3   OH276642   2.731   4.412   2.331  0.3973  0.3422  0.1788
18384TIP3    H176643   2.758   4.328   2.367 -0.0719 -0.7713 -1.9445
18384TIP3    H276644   2.787   4.424   2.254 -0.1299  1.5825 -0.0360
18385TIP3   OH276645   6.304   2.663   4.795  0.0980  0.2972 -0.0926
18385TIP3    H176646   6.268   2.615   4.870  0.6586 -1.8030 -1.0986
18385TIP3    H276647   6.353   2.734   4.835 -1.2822  0.4612  1.4523
18386TIP3   OH276648   2.747   3.456  11.578  0.0260  0.1826 -0.0457
18386TIP3    H176649   2.738   3.381  11.637  1.7944  0.5287  0.7440
18386TIP3    H276650   2.839   3.454  11.551 -1.0465 -0.9101 -4.1669
18387TIP3   OH276651   0.468   4.060   5.714  0.1128 -0.3205 -0.1764
18387TIP3    H176652   0.519   3.980   5.700  0.4903  0.1685 -1.8070
18387TIP3    H276653   0.397   4.034   5.773  0.9580 -1.5452  0.3219
18388TIP3   OH276654   6.113   2.719  13.319 -0.1165  0.4319  0.0249
18388TIP3    H176655   6.205   2.693  13.313 -0.3771 -0.2323 -1.7705
18388TIP3    H276656   6.112   2.790  13.384  1.7184  0.7094 -0.1946
18389TIP3   OH276657   1.983   1.501   1.424 -0.1597 -0.1770  0.0857
18389TIP3    H176658   1.938   1.500   1.339  0.2842  1.7516 -0.2184
18389TIP3    H276659   1.958   1.418   1.465 -3.2158  0.3202 -0.4789
18390TIP3   OH276660   0.043   3.035   5.520 -0.0874  0.5023  0.5903
18390TIP3    H176661  -0.052   3.026   5.525  0.0700 -2.2351 -0.0342
18390TIP3    H276662   0.076   2.989   5.597  0.7688  0.2978  0.1107
18391TIP3   OH276663   5.356   3.619  15.163 -0.7962 -0.3400  0.0833
18391TIP3    H176664   5.348   3.682  15.235 -1.6393 -1.2158  0.7870
18391TIP3    H276665   5.396   3.669  15.092  0.1728  0.5251  1.1899
18392TIP3   OH276666   0.372   1.935  14.950 -0.0815 -0.4012  0.7061
18392TIP3    H176667   0.419   2.016  14.966 -0.8106  0.7345 -2.2324
18392TIP3    H276668   0.436   1.877  14.910 -0.7779  0.9249 -2.7027
18393TIP3   OH276669   3.775   1.848  11.891 -0.1751  0.2557 -0.4486
18393TIP3    H176670   3.811   1.759  11.883  1.8610  0.8698  1.1542
18393TIP3    H276671   3.849   1.906  11.873 -0.5061  1.5822  1.9940
18394TIP3   OH276672   0.017   6.230   4.425  0.4444  0.0088  0.1704
18394TIP3    H176673   0.111   6.234   4.444  0.3047  2.3495  0.6117
18394TIP3    H276674  -0.025   6.257   4.507 -0.5200  0.9099 -0.6027
18395TIP3   OH276675   0.596   2.194   3.952  0.1971  0.2672 -0.2083
18395TIP3    H176676   0.508   2.190   3.916 -0.3799 -1.1652  1.2470
18395TIP3    H276677   0.636   2.270   3.909 -0.5575 -0.9991 -3.4551
18396TIP3   OH276678   2.674   4.585  16.571  0.3099  0.0602  0.1923
18396TIP3    H176679   2.725   4.631  16.639  0.5216  0.9728 -0.5696
18396TIP3    H276680   2.661   4.650  16.503  0.2196 -0.8936 -0.7164
18397TIP3   OH276681   0.916   4.460   6.252  0.1125  0.5141  0.1531
18397TIP3    H176682   1.004   4.486   6.278  1.3019 -1.4184 -1.6838
18397TIP3    H276683   0.890   4.526   6.187  1.9072 -0.9956 -2.2740
18398TIP3   OH276684   0.483   4.921  12.280 -0.3225 -0.3259 -0.3082
18398TIP3    H176685   0.510   4.869  12.205 -0.7674 -0.1185 -0.6172
18398TIP3    H276686   0.565   4.951  12.320 -0.0397 -1.7967  0.2713
18399TIP3   OH276687   3.412   6.384  16.553 -0.1836 -0.3479  0.1281
18399TIP3    H176688   3.352   6.324  16.509  1.7939 -1.4738 -1.1763
18399TIP3    H276689   3.475   6.409  16.486  1.4886 -0.1403  1.6782
18400TIP3   OH276690   0.444   2.452   2.722 -0.0133 -0.2249 -0.2233
18400TIP3    H176691   0.453   2.531   2.775 -1.5829 -0.1342 -0.0390
18400TIP3    H276692   0.410   2.386   2.783 -0.4232 -0.5289 -0.7668
18401TIP3   OH276693   2.112   0.510  16.643  0.0199 -0.2200  0.1493
18401TIP3    H176694   2.195   0.481  16.605  0.2453  1.0090 -0.3591
18401TIP3    H276695   2.090   0.589  16.594 -1.3946 -0.4508  0.3768
18402TIP3   OH276696   6.006   6.286   5.955  0.3106  0.1587 -0.2013
18402TIP3    H176697   6.074   6.221   5.936  1.1115  1.2686 -1.3181
18402TIP3    H276698   5.976   6.264   6.043  3.7301  0.9530  1.3411
18403TIP3   OH276699   6.478   4.563  14.951  0.1490  0.0573 -0.4225
18403TIP3    H176700   6.382   4.567  14.943 -0.0998 -0.8769  1.3804
18403TIP3    H276701   6.500   4.474  14.926  0.2230 -0.4704  1.3593
18404TIP3   OH276702   4.950   3.584  16.334 -0.2003 -0.1710 -0.4264
18404TIP3    H176703   5.043   3.572  16.351 -0.3527 -0.7015  0.1069
18404TIP3    H276704   4.944   3.610  16.242  0.4328 -0.6479 -0.6033
18405TIP3   OH276705   6.233   4.143  13.569 -0.9052  0.1513 -0.6924
18405TIP3    H176706   6.276   4.138  13.654 -1.3840  1.0504 -0.3950
18405TIP3    H276707   6.194   4.057  13.557 -0.5871 -0.0756 -0.1403
18406TIP3   OH276708   3.202   2.147   5.608 -0.4725 -0.4954  0.6048
18406TIP3    H176709   3.207   2.214   5.676 -1.1735 -0.6270  0.8008
18406TIP3    H276710   3.167   2.194   5.532 -2.6682 -0.9728  1.2545
18407TIP3   OH276711   2.129   5.346   1.574 -0.2874 -0.0244 -0.3883
18407TIP3    H176712   2.089   5.261   1.589 -0.7480 -0.4713 -3.4566
18407TIP3    H276713   2.223   5.331   1.584 -0.4007 -0.7374 -0.3335
18408TIP3   OH276714   2.412   4.787  10.791  0.5177  0.0356 -0.0372
18408TIP3    H176715   2.465   4.756  10.864  0.0653 -0.5634  0.0376
18408TIP3    H276716   2.359   4.712  10.765  1.3119 -0.0410 -1.5758
18409TIP3   OH276717   3.959   3.567  12.821 -0.4524  0.2866  0.2539
18409TIP3    H176718   4.031   3.623  12.791 -1.2083  1.4376  0.5236
18409TIP3    H276719   3.880   3.620  12.808 -0.9217  0.5969  3.4840
18410TIP3   OH276720   6.612   2.524  17.216  0.2030 -0.3194  0.0569
18410TIP3    H176721   6.700   2.557  17.232  0.7714 -0.9589 -1.5500
18410TIP3    H276722   6.618   2.430  17.232 -0.4399 -0.2268  0.8843
18411TIP3   OH276723   3.147   4.433  13.569  0.2412 -0.0352  0.2202
18411TIP3    H176724   3.223   4.474  13.528 -0.1467 -0.5840 -1.0767
18411TIP3    H276725   3.182   4.353  13.608  0.3707 -0.1581 -0.1486
18412TIP3   OH276726   0.124   2.630  11.660  0.0194 -0.2413 -0.4277
18412TIP3    H176727   0.093   2.639  11.750  2.9246  0.5337  0.5971
18412TIP3    H276728   0.106   2.715  11.620 -0.0028 -0.1169 -0.1546
18413TIP3   OH276729   4.073   2.794   2.948 -0.2248  0.6680  0.2816
18413TIP3    H176730   4.078   2.828   3.038  1.7059 -2.5901  1.5766
18413TIP3    H276731   4.009   2.723   2.953 -2.2158  2.1664 -1.7227
18414TIP3   OH276732   4.950   2.475  14.782  0.4308  0.2287 -0.0870
18414TIP3    H176733   4.948   2.570  14.785  0.8384  0.2274  0.4662
18414TIP3    H276734   5.044   2.453  14.788  0.2325 -0.2601  2.3869
18415TIP3   OH276735   4.612   2.942   2.107  0.0365  0.2920 -0.0606
18415TIP3    H176736   4.586   3.010   2.045 -1.2104 -0.6618 -0.6156
18415TIP3    H276737   4.538   2.936   2.168  1.0928  0.9762  1.3634
18416TIP3   OH276738   0.191   4.141  15.000  0.2519 -0.3065  0.1655
18416TIP3    H176739   0.156   4.204  14.936  2.4521  0.4585 -0.3595
18416TIP3    H276740   0.260   4.095  14.953  1.2996 -0.3838  1.7052
18417TIP3   OH276741   1.074   6.181   6.029 -0.0742 -0.4421  0.2231
18417TIP3    H176742   1.093   6.096   6.070  0.7014 -1.3995 -1.9221
18417TIP3    H276743   1.123   6.244   6.081 -0.3346 -1.3540  1.6267
18418TIP3   OH276744   0.025   2.034  13.472 -0.2200  0.3512 -0.4281
18418TIP3    H176745   0.096   1.983  13.511 -0.3695  0.9620  0.6878
18418TIP3    H276746  -0.035   1.969  13.435 -0.1204 -0.2673  0.4721
18419TIP3   OH276747   4.687   1.148   2.611 -0.1407  0.0797 -0.2398
18419TIP3    H176748   4.744   1.221   2.635 -0.0387  0.4116 -1.4224
18419TIP3    H276749   4.620   1.187   2.555  0.3612 -0.8421 -1.5329
18420TIP3   OH276750   3.682   6.345  15.597  0.0037  0.1297  0.1094
18420TIP3    H176751   3.631   6.373  15.673  0.0829  0.1739  0.1465
18420TIP3    H276752   3.773   6.359  15.622  0.2039 -2.3917  1.0279
18421TIP3   OH276753   0.782   4.263   6.100  0.3538  0.1555  0.0659
18421TIP3    H176754   0.863   4.229   6.063  0.7410 -0.2166  1.2290
18421TIP3    H276755   0.810   4.325   6.168 -0.3205 -0.4672  0.9309
18422TIP3   OH276756   3.003   4.586   5.489  0.1880  0.5383 -0.1892
18422TIP3    H176757   3.030   4.538   5.410 -0.9325 -0.9783  0.2848
18422TIP3    H276758   3.086   4.611   5.531  0.9641 -2.4359  0.3462
18423TIP3   OH276759   6.631   5.364  15.148 -0.0708  0.2025  0.3291
18423TIP3    H176760   6.582   5.318  15.080 -0.5408  0.1132  0.7217
18423TIP3    H276761   6.718   5.324  15.146 -0.1502  0.0443 -0.0649
18424TIP3   OH276762   6.475   1.532   2.849 -0.2619 -0.3405  0.6060
18424TIP3    H176763   6.542   1.463   2.855  0.2468  0.2091  1.4912
18424TIP3    H276764   6.500   1.583   2.773  0.6267  0.1458  1.2020
18425TIP3   OH276765   2.448   2.508  14.751  0.1339 -0.2497 -0.2228
18425TIP3    H176766   2.404   2.514  14.836  1.8610  0.6626  0.6767
18425TIP3    H276767   2.454   2.414  14.734 -0.8371 -0.4274  0.3279
18426TIP3   OH276768   6.407   5.811  12.869 -0.1580 -0.0818  0.4633
18426TIP3    H176769   6.453   5.763  12.938  0.0996 -0.2075  0.2090
18426TIP3    H276770   6.395   5.899  12.905 -0.8855 -0.4051  1.0471
18427TIP3   OH276771   4.237   3.033   1.240  0.2376 -0.5199 -0.2978
18427TIP3    H176772   4.261   2.968   1.175 -0.7041 -0.7668 -0.4210
18427TIP3    H276773   4.154   3.001   1.276  0.5388 -0.1840  0.7383
18428TIP3   OH276774   4.847   1.044   2.975  0.0152  0.2636  0.0903
18428TIP3    H176775   4.767   0.992   2.965  0.3283 -0.4262  1.0047
18428TIP3    H276776   4.897   0.997   3.042  1.5615  0.2187 -1.0428
18429TIP3   OH276777   4.151   1.559   2.352  0.5220 -0.0869 -0.2336
18429TIP3    H176778   4.100   1.482   2.378  0.5335 -0.8126 -2.2026
18429TIP3    H276779   4.219   1.524   2.294  0.4379  1.4154 -1.2816
18430TIP3   OH276780   1.632   2.256   4.484 -0.3540 -0.3128 -0.1625
18430TIP3    H176781   1.581   2.289   4.558  1.0450  1.3650  0.1198
18430TIP3    H276782   1.718   2.235   4.520 -0.0894 -0.8308 -1.0465
18431TIP3   OH276783   6.509   1.025   4.957  0.3241  0.0192 -0.0685
18431TIP3    H176784   6.563   1.030   5.036  1.2002  2.1227 -0.7141
18431TIP3    H276785   6.559   1.073   4.891  0.4432 -3.1389 -2.4676
18432TIP3   OH276786   4.444   0.113  11.851  0.2049  0.4476  0.0662
18432TIP3    H176787   4.451   0.199  11.892 -1.6500  0.7645 -0.1845
18432TIP3    H276788   4.465   0.051  11.921 -1.5849  1.0257  1.1950
18433TIP3   OH276789   3.240   0.464  14.530  0.2401 -0.1666 -0.3163
18433TIP3    H176790   3.182   0.515  14.587  0.4814 -0.1309 -0.1042
18433TIP3    H276791   3.257   0.522  14.455  0.7194  0.1644  0.0441
18434TIP3   OH276792   0.864   0.874   3.993  0.3717 -0.4096 -0.6453
18434TIP3    H176793   0.777   0.903   3.964 -0.4895  0.0845  2.1259
18434TIP3    H276794   0.925   0.919   3.935 -1.1566 -1.9371 -3.6983
18435TIP3   OH276795   4.451   4.785  17.060 -0.2458  0.4187  0.1318
18435TIP3    H176796   4.484   4.872  17.036  1.5417 -0.1870  0.2502
18435TIP3    H276797   4.485   4.771  17.149  0.9124 -1.0659 -0.5150
18436TIP3   OH276798   6.506   5.589  13.713 -0.0572  0.0035 -0.2114
18436TIP3    H176799   6.561   5.515  13.688 -1.4004 -1.7847  1.7035
18436TIP3    H276800   6.434   5.587  13.650  0.4868  0.4350 -0.8615
18437TIP3   OH276801   5.776   0.076  13.888  0.8119  0.0521 -0.0192
18437TIP3    H176802   5.770   0.054  13.981  1.6724  1.5287  0.4164
18437TIP3    H276803   5.779   0.171  13.886 -0.0265  0.0694 -1.6384
18438TIP3   OH276804   0.314   6.247   2.903 -0.4599 -0.2184  0.2530
18438TIP3    H176805   0.402   6.212   2.917 -0.4895 -0.7958 -0.8949
18438TIP3    H276806   0.297   6.232   2.810 -1.6597  0.1547  0.3983
18439TIP3   OH276807   5.084   6.215  13.175  0.0598 -0.1740 -0.3502
18439TIP3    H176808   5.161   6.160  13.193 -0.4691 -0.2637  1.9396
18439TIP3    H276809   5.094   6.289  13.234 -0.3927  1.1008 -1.8115
18440TIP3   OH276810   2.143   2.891  12.687 -0.4357 -0.0047 -0.1524
18440TIP3    H176811   2.076   2.825  12.671 -0.1489 -0.0213 -1.4251
18440TIP3    H276812   2.107   2.971  12.650  0.0439  0.0831 -0.4443
18441TIP3   OH276813   3.537   1.792  12.424 -0.1730  0.6272 -0.3034
18441TIP3    H176814   3.501   1.879  12.405  1.5472  1.0740 -1.7714
18441TIP3    H276815   3.630   1.800  12.405 -0.1222 -1.7957 -1.4419
18442TIP3   OH276816   5.070   1.248  11.654 -0.5854  0.0917  0.1784
18442TIP3    H176817   4.996   1.285  11.605 -0.0426  1.8365  0.6083
18442TIP3    H276818   5.146   1.300  11.625  0.8875 -2.7573 -1.5816
18443TIP3   OH276819   4.915   0.915  15.078  0.0821 -0.3999 -0.2496
18443TIP3    H176820   4.995   0.895  15.029 -0.2295  0.4750 -1.1337
18443TIP3    H276821   4.940   0.986  15.136  0.5839 -1.7545  1.2782
18444TIP3   OH276822   0.033   2.203   5.435  0.1911 -0.1394  0.3655
18444TIP3    H176823  -0.030   2.259   5.391  0.3585 -0.0981  0.1764
18444TIP3    H276824   0.119   2.237   5.409  0.3341  1.3384  2.5221
18445TIP3   OH276825   5.387   3.275   0.665  0.1980 -0.0139 -0.5004
18445TIP3    H176826   5.440   3.225   0.604  1.1165  0.4356 -0.0812
18445TIP3    H276827   5.308   3.222   0.677  0.5681 -0.7071 -1.0909
18446TIP3   OH276828   3.504   2.789  11.200 -0.2791  0.6196 -0.7147
18446TIP3    H176829   3.544   2.866  11.160  2.8374 -0.4452  0.1051
18446TIP3    H276830   3.503   2.724  11.129  1.0252  0.1472 -0.3227
18447TIP3   OH276831   5.214   5.162   4.235  0.3711  0.2364 -0.4252
18447TIP3    H176832   5.149   5.199   4.293 -1.0133 -1.2172 -0.9688
18447TIP3    H276833   5.262   5.100   4.290  1.6866  1.6487  0.0989
18448TIP3   OH276834   4.003   0.534  16.159  0.4018 -0.3721  0.3036
18448TIP3    H176835   4.006   0.600  16.091 -1.1870 -0.6676 -0.0868
18448TIP3    H276836   4.092   0.533  16.196  0.8411  0.9086 -0.6684
18449TIP3   OH276837   1.540   5.346  11.324 -0.4766 -0.1338  0.1799
18449TIP3    H176838   1.549   5.337  11.229 -1.6552 -0.7355  0.1181
18449TIP3    H276839   1.463   5.294  11.346  1.5639 -2.6781  1.8999
18450TIP3   OH276840   3.309   2.243   3.123 -0.5515  0.6318  0.1794
18450TIP3    H176841   3.346   2.166   3.167  0.7480  1.1844  0.0950
18450TIP3    H276842   3.243   2.276   3.184 -2.3256 -1.4766 -0.5010
18451TIP3   OH276843   5.171   6.261   1.000  0.2153 -0.2659 -0.6869
18451TIP3    H176844   5.085   6.300   1.019 -0.9388 -2.3908 -1.2211
18451TIP3    H276845   5.170   6.178   1.049  2.7169  0.4292  0.7279
18452TIP3   OH276846   2.073   2.476  16.331 -0.1378 -1.0971 -0.4397
18452TIP3    H176847   2.024   2.395  16.319 -1.4952 -0.4143  0.3138
18452TIP3    H276848   2.146   2.469  16.268 -1.2830 -2.0637 -1.7250
18453TIP3   OH276849   1.505   3.286  12.601  0.2843 -0.2628 -0.1240
18453TIP3    H176850   1.436   3.259  12.661 -0.8545  2.1514 -0.2080
18453TIP3    H276851   1.459   3.308  12.520  0.8260  2.7950  0.2599
18454TIP3   OH276852   3.720   3.205   3.477 -0.8635  0.0263  0.0107
18454TIP3    H176853   3.755   3.183   3.390 -2.0693  2.1767 -1.0935
18454TIP3    H276854   3.767   3.147   3.537  0.8172 -0.7508 -1.9434
18455TIP3   OH276855   5.910   6.526   2.457  0.0705 -0.1268 -0.3088
18455TIP3    H176856   5.815   6.521   2.453  0.0046 -0.4388  1.1090
18455TIP3    H276857   5.929   6.567   2.541  1.1745  2.2085 -1.5938
18456TIP3   OH276858   6.153   6.512   4.471 -0.2728  0.2481 -0.0750
18456TIP3    H176859   6.209   6.447   4.514  0.1413 -0.2789 -1.3634
18456TIP3    H276860   6.105   6.462   4.405 -1.5768  0.8736  0.3632
18457TIP3   OH276861   3.581   4.836   2.536  0.4913 -0.1859  0.3327
18457TIP3    H176862   3.598   4.841   2.630 -0.1618 -1.2892  0.5320
18457TIP3    H276863   3.644   4.896   2.497  1.6135 -0.6474  1.3733
18458TIP3   OH276864   5.208   6.676  13.665 -0.1477  0.0054 -0.5292
18458TIP3    H176865   5.155   6.752  13.643  0.0103  0.6136  1.0801
18458TIP3    H276866   5.290   6.689  13.619 -0.2399  0.6629 -0.5165
18459TIP3   OH276867   4.358   0.367  15.286  0.2782  0.3892  0.0286
18459TIP3    H176868   4.338   0.442  15.230 -1.4836  0.0987  0.2057
18459TIP3    H276869   4.272   0.334  15.313  1.0317 -1.4039  0.3497
18460TIP3   OH276870   0.024   2.930  11.619  0.4740 -0.1400 -1.1699
18460TIP3    H176871  -0.018   3.004  11.663  0.8645 -1.3572  1.4348
18460TIP3    H276872   0.069   2.969  11.545  0.1845  2.1578 -0.2171
18461TIP3   OH276873   3.940   1.368   2.431 -0.2327  0.8193 -0.2854
18461TIP3    H176874   3.848   1.388   2.414 -0.9637 -0.7641  1.4943
18461TIP3    H276875   3.938   1.302   2.500  2.1732 -0.8116 -1.6209
18462TIP3   OH276876   2.340   3.570   2.234  0.5654  0.3757  0.5487
18462TIP3    H176877   2.280   3.526   2.294  0.8609  1.4373  1.6603
18462TIP3    H276878   2.418   3.514   2.234  0.1545 -0.2141  0.2639
18463TIP3   OH276879   0.772   4.086  11.784 -0.1946 -0.0124 -0.5488
18463TIP3    H176880   0.715   4.126  11.718 -0.2393 -2.5383 -2.1714
18463TIP3    H276881   0.849   4.056  11.734 -0.3058 -2.1651  0.4483
18464TIP3   OH276882   3.973   1.429  14.790 -0.1363 -0.5942 -0.1628
18464TIP3    H176883   3.965   1.434  14.694  0.6730 -2.0069 -0.3339
18464TIP3    H276884   3.916   1.356  14.815 -4.0255  2.5131  1.0378
18465TIP3   OH276885   4.726   2.851  16.797 -0.0045  0.1076 -0.1957
18465TIP3    H176886   4.701   2.941  16.816 -0.3442 -0.1192  0.4665
18465TIP3    H276887   4.675   2.827  16.719 -0.8106  0.1113  0.3171
18466TIP3   OH276888   3.248   0.277   5.049  0.8139 -0.1885 -0.2788
18466TIP3    H176889   3.172   0.276   4.991  0.1932 -0.5731  0.5221
18466TIP3    H276890   3.272   0.369   5.056 -0.3964  0.0932  0.4850
18467TIP3   OH276891   6.094   1.489  17.154 -0.2573  0.4157  0.3312
18467TIP3    H176892   6.001   1.501  17.172 -0.2830  1.6911 -0.5270
18467TIP3    H276893   6.101   1.494  17.059  0.3045 -2.7888  0.0979
18468TIP3   OH276894   1.887   2.474  15.698  0.3691  0.0288 -0.2660
18468TIP3    H176895   1.921   2.470  15.788 -2.3662 -0.6372  0.8544
18468TIP3    H276896   1.860   2.565  15.687 -0.6273 -0.2051  0.1605
18469TIP3   OH276897   5.188   5.133  13.779  0.3586 -0.4590  0.0068
18469TIP3    H176898   5.207   5.107  13.869  1.7079  0.7641  0.1279
18469TIP3    H276899   5.112   5.081  13.754  0.1982 -1.1146  1.7117
18470TIP3   OH276900   6.128   6.607   1.792  0.3103  0.6093 -0.1080
18470TIP3    H176901   6.206   6.659   1.809 -0.0449  0.9966  0.3474
18470TIP3    H276902   6.161   6.528   1.748  1.0260  0.4898  0.6270
18471TIP3   OH276903   0.007   2.486  11.383  0.0231 -0.5009  0.2266
18471TIP3    H176904  -0.072   2.438  11.359 -1.0075  1.3858 -0.3826
18471TIP3    H276905   0.079   2.425  11.365 -1.2021 -1.7889 -0.4867
18472TIP3   OH276906   4.353   0.391   0.142  0.1194  0.0396  0.0615
18472TIP3    H176907   4.343   0.408   0.236  0.1666 -1.2106  0.3186
18472TIP3    H276908   4.265   0.404   0.106  0.1058  0.5474  0.2709
18473TIP3   OH276909   0.478   4.259   1.451 -0.2158 -0.6192  0.4517
18473TIP3    H176910   0.481   4.313   1.372 -1.9920 -1.6453 -0.3710
18473TIP3    H276911   0.567   4.260   1.484  0.0852  1.7631 -0.2379
18474TIP3   OH276912   4.497   5.438   0.076  0.1602  0.6358 -0.1861
18474TIP3    H176913   4.403   5.424   0.073  0.3013 -0.2782 -0.4052
18474TIP3    H276914   4.507   5.532   0.058 -0.7125  0.7837  0.0499
18475TIP3   OH276915   3.663   3.543   2.446  0.2964 -0.4357  0.4785
18475TIP3    H176916   3.625   3.507   2.366  3.3934  0.4323 -1.5669
18475TIP3    H276917   3.606   3.616   2.469 -0.7792 -0.8316 -0.7847
18476TIP3   OH276918   3.117   5.989   0.985 -0.1613  0.0554  0.0430
18476TIP3    H176919   3.033   6.004   0.941 -0.1954 -1.3539 -0.4142
18476TIP3    H276920   3.174   6.059   0.953 -1.0045  0.7213 -0.0352
18477TIP3   OH276921   6.385   5.330  15.654  0.2623 -0.9211  0.0788
18477TIP3    H176922   6.468   5.324  15.701 -0.1731  3.0897  1.8618
18477TIP3    H276923   6.318   5.324  15.723 -0.7754 -1.2851 -0.9261
18478TIP3   OH276924   0.379   0.141   0.697  0.3051  0.1222 -0.1054
18478TIP3    H176925   0.458   0.118   0.649  0.2394  0.8420 -0.5624
18478TIP3    H276926   0.309   0.095   0.651  0.3171  0.3571 -0.3603
18479TIP3   OH276927   4.090   5.322  12.762  0.0597  0.2066  0.0300
18479TIP3    H176928   4.047   5.256  12.818  0.6486 -0.9848 -0.8747
18479TIP3    H276929   4.074   5.405  12.807 -0.5583 -0.5643  1.3084
18480TIP3   OH276930   4.018   3.654  15.991  0.2657 -0.0741  0.0941
18480TIP3    H176931   4.045   3.617  15.907  1.5520 -1.7275  1.1889
18480TIP3    H276932   3.931   3.617  16.006 -1.4113  2.6418 -1.8569
18481TIP3   OH276933   1.241   6.579  17.371  0.0678 -0.1207 -0.1366
18481TIP3    H176934   1.237   6.674  17.373 -2.6187 -0.1739  0.1805
18481TIP3    H276935   1.216   6.555  17.281  2.3639 -0.5543 -0.7288
18482TIP3   OH276936   1.967   2.355  15.479  0.0315 -0.0754  0.1361
18482TIP3    H176937   2.017   2.277  15.503  1.6319  0.5320 -1.0883
18482TIP3    H276938   1.953   2.400  15.562  1.2114 -0.4535  0.5663
18483TIP3   OH276939   6.226   4.730   0.049 -0.2712  0.0184  0.0367
18483TIP3    H176940   6.315   4.757   0.070 -0.0780 -1.2960  1.0597
18483TIP3    H276941   6.237   4.652  -0.005 -0.7988 -0.0153 -0.0271
18484TIP3   OH276942   4.596   0.324   0.672 -0.6549  0.0798  0.3271
18484TIP3    H176943   4.651   0.352   0.599 -0.6968  0.5520  0.4736
18484TIP3    H276944   4.647   0.347   0.750 -0.3103 -1.0322  0.4474
18485TIP3   OH276945   3.194   1.596  15.915 -0.4965 -0.1003  0.4416
18485TIP3    H176946   3.262   1.553  15.967 -0.1961  0.5958  0.6383
18485TIP3    H276947   3.209   1.689  15.929  0.3158  0.1446 -1.8233
18486TIP3   OH276948   1.634   5.039   1.313 -0.0649 -0.8439 -0.8832
18486TIP3    H176949   1.657   5.036   1.220 -0.1019  1.1568 -1.0095
18486TIP3    H276950   1.620   5.132   1.331 -0.6994 -1.2537  0.9815
18487TIP3   OH276951   1.063   4.086   0.971  0.6381 -0.4520  0.0454
18487TIP3    H176952   0.977   4.045   0.960  0.6443 -0.3091 -0.5444
18487TIP3    H276953   1.125   4.013   0.967  0.5631 -0.5232  0.1873
18488TIP3   OH276954   1.176   2.969   3.478 -0.0456  0.0262  0.7868
18488TIP3    H176955   1.094   3.018   3.484 -0.9085 -1.2223 -0.3543
18488TIP3    H276956   1.178   2.915   3.556 -1.0227 -0.9530  0.1646
18489TIP3   OH276957   1.681   3.040   2.661 -0.1586 -0.2137  0.5301
18489TIP3    H176958   1.681   3.136   2.658 -2.0097 -0.1881 -2.6755
18489TIP3    H276959   1.618   3.019   2.731 -1.2324  0.9598 -0.0513
18490TIP3   OH276960   0.786   5.174  14.861  0.3321 -0.3085 -0.2843
18490TIP3    H176961   0.861   5.115  14.850  0.2153 -0.4539 -0.3073
18490TIP3    H276962   0.815   5.257  14.825  0.7446 -0.1600  0.3723
18491TIP3   OH276963   0.267   6.451   3.474 -0.0470  0.0556 -0.1857
18491TIP3    H176964   0.312   6.375   3.439 -0.9082 -0.7937  0.5035
18491TIP3    H276965   0.337   6.513   3.494  0.8854 -1.3540  1.1723
18492TIP3   OH276966   6.129   1.380   0.435 -0.4828 -0.4515 -0.2062
18492TIP3    H176967   6.194   1.433   0.482 -2.4025  0.7698  1.2321
18492TIP3    H276968   6.142   1.291   0.468 -0.0453 -0.0820  0.6536
18493TIP3   OH276969   3.961   3.588   1.465 -0.0981  0.2874  0.3389
18493TIP3    H176970   3.979   3.682   1.470  0.1165  0.1927  1.7475
18493TIP3    H276971   3.889   3.581   1.403  1.7613  1.0874 -2.0925
18494TIP3   OH276972   1.449   4.273   1.219 -0.5533  0.6125  0.3890
18494TIP3    H176973   1.506   4.198   1.237  0.4251  1.1813 -0.2398
18494TIP3    H276974   1.364   4.234   1.202  0.2295 -0.5019 -1.2698
18495TIP3   OH276975   4.002   4.863  17.178  0.5589 -0.4312 -0.1745
18495TIP3    H176976   3.948   4.803  17.126  0.3378  0.0799 -0.5334
18495TIP3    H276977   3.948   4.940  17.192  0.4372 -0.7403  1.2321
18496TIP3   OH276978   4.160   1.259   1.982 -0.2565 -0.0749 -0.2067
18496TIP3    H176979   4.094   1.324   1.957 -0.9336 -0.3188  0.8771
18496TIP3    H276980   4.191   1.223   1.898 -0.7476  0.7681 -0.7699
18497TIP3   OH276981   0.972   4.937   1.346  0.1918 -0.1715 -0.2115
18497TIP3    H176982   0.922   5.016   1.369 -0.5977 -0.7818  0.2188
18497TIP3    H276983   0.943   4.872   1.410  2.2191 -0.3082  0.6548
18498TIP3   OH276984   4.897   0.046   5.573  0.1950 -0.3496 -0.5611
18498TIP3    H176985   4.804   0.031   5.585  0.0869  0.6490 -0.0567
18498TIP3    H276986   4.935   0.033   5.660  0.5158 -0.6273 -0.7388
18499TIP3   OH276987   1.890   1.044  13.564  0.2514 -0.0659 -0.1114
18499TIP3    H176988   1.817   1.016  13.619  1.9107 -1.5136  1.4688
18499TIP3    H276989   1.893   1.139  13.575 -1.0310 -0.0411  0.2147
18500TIP3   OH276990   5.206   1.731   0.873 -0.4611  0.2185 -0.1601
18500TIP3    H176991   5.165   1.718   0.787 -0.7610 -2.1661  0.3028
18500TIP3    H276992   5.144   1.695   0.935  1.4716 -1.8281  0.7112
18501TIP3   OH276993   6.115   6.499   5.148  0.2486 -0.0332  0.4628
18501TIP3    H176994   6.088   6.415   5.183  1.7028 -0.9953 -0.5789
18501TIP3    H276995   6.108   6.489   5.053  1.1160  0.7595  0.2962
18502TIP3   OH276996   4.816   3.566   1.263  0.2517 -0.2007 -0.1927
18502TIP3    H176997   4.890   3.518   1.224  0.9146  0.8150 -0.2164
18502TIP3    H276998   4.766   3.499   1.309  1.4546 -0.8411  0.2234
18503TIP3   OH276999   4.877   4.024   4.714 -0.4063  0.2095  0.3317
18503TIP3    H177000   4.854   4.098   4.769 -1.1975  1.2528 -1.3171
18503TIP3    H277001   4.891   3.952   4.775 -2.3253  1.0099  1.8281
18504TIP3   OH277002   0.112   4.436  15.213  0.3443  0.4439  0.0089
18504TIP3    H177003   0.056   4.399  15.282  0.0404 -1.0600 -1.0109
18504TIP3    H277004   0.180   4.370  15.199  1.7002  1.7105  0.3652
18505TIP3   OH277005   5.548   4.012   4.586 -0.2383  0.2969  0.5683
18505TIP3    H177006   5.514   4.087   4.538  0.9077  0.8162  0.5414
18505TIP3    H277007   5.623   3.983   4.534 -1.7350 -2.0564 -0.4539
18506TIP3   OH277008   5.334   1.092  17.407  0.6965 -0.1659  0.1358
18506TIP3    H177009   5.287   1.136  17.336 -1.0218 -3.1531 -0.7302
18506TIP3    H277010   5.365   1.164  17.462 -0.8911  2.1517 -1.7602
18507TIP3   OH277011   2.563   2.324   0.506  0.0507 -0.2497 -0.1594
18507TIP3    H177012   2.641   2.339   0.453  0.5019 -1.7369  0.0402
18507TIP3    H277013   2.491   2.322   0.443  0.5688 -1.9136 -0.7409
18508TIP3   OH277014   2.358   1.313  12.018  0.0625  0.2312 -0.1618
18508TIP3    H177015   2.352   1.262  12.099 -1.1774  0.0576 -0.3420
18508TIP3    H277016   2.283   1.284  11.966 -0.4023  1.8780 -0.4772
18509TIP3   OH277017   3.077   6.666  15.395 -0.7176 -0.3828 -0.1086
18509TIP3    H177018   3.140   6.608  15.436  0.3896  0.3145 -0.7791
18509TIP3    H277019   2.992   6.636  15.427 -0.1376 -1.9888  0.0093
18510TIP3   OH277020   2.271   0.881   1.369  0.3740 -0.2786 -0.8039
18510TIP3    H177021   2.326   0.838   1.434  0.3681  0.4371 -0.3109
18510TIP3    H277022   2.199   0.819   1.354  1.0950 -1.0416 -1.1603
18511TIP3   OH277023   3.545   4.095   1.742  0.0971  0.7058  0.4356
18511TIP3    H177024   3.564   4.107   1.835  1.4138 -0.5075  0.3631
18511TIP3    H277025   3.606   4.027   1.714 -0.8072  0.4998 -1.1486
18512TIP3   OH277026   2.407   6.703  14.142 -0.2059 -0.0288  0.5510
18512TIP3    H177027   2.349   6.667  14.209  0.2439 -0.9577  0.4584
18512TIP3    H277028   2.492   6.711  14.185 -0.5619  2.2283  0.9783
18513TIP3   OH277029   3.383   3.104  12.896  0.5204  0.7503  0.2673
18513TIP3    H177030   3.460   3.159  12.881  0.5645  0.5329 -0.3313
18513TIP3    H277031   3.330   3.115  12.817 -0.0620  0.8993  0.6762
18514TIP3   OH277032   0.839   6.279   4.546 -0.1511  0.8041 -0.4382
18514TIP3    H177033   0.778   6.338   4.591 -0.4580  0.2108 -0.0603
18514TIP3    H277034   0.789   6.245   4.472  0.1810  1.3787 -0.9249
18515TIP3   OH277035   3.207   3.753   1.016 -0.7765  0.5295 -0.1215
18515TIP3    H177036   3.226   3.670   1.062 -0.6732  0.5938 -0.0462
18515TIP3    H277037   3.246   3.742   0.930  0.2154  0.9202  0.2628
18516TIP3   OH277038   5.417   3.500  11.155  0.2753 -0.5277 -0.0703
18516TIP3    H177039   5.482   3.560  11.118  0.1772 -0.9002 -0.8466
18516TIP3    H277040   5.466   3.420  11.173  0.4187 -0.2207  1.0251
18517TIP3   OH277041   3.761   3.781  17.097  0.3086 -0.0586  0.1047
18517TIP3    H177042   3.813   3.766  17.176  0.1118 -0.3896  0.1700
18517TIP3    H277043   3.696   3.846  17.124 -0.1720 -0.6581  0.3935
18518TIP3   OH277044   0.566   0.786  14.394  0.0487  0.4268  0.2554
18518TIP3    H177045   0.608   0.840  14.461  2.8316  0.1421 -1.1044
18518TIP3    H277046   0.607   0.814  14.312 -0.4469 -1.8106 -0.8400
18519TIP3   OH277047   0.432   2.001  12.818  0.2156  0.6816 -0.0231
18519TIP3    H177048   0.412   1.915  12.852 -0.2073  0.5275 -0.6341
18519TIP3    H277049   0.465   2.050  12.893 -0.2518  0.2187  0.4916
18520TIP3   OH277050   5.425   5.080   5.787 -0.3066  0.5460  0.3268
18520TIP3    H177051   5.511   5.120   5.786 -0.3048  0.5213 -0.6036
18520TIP3    H277052   5.371   5.135   5.730 -1.0856  0.9317  1.3907
18521TIP3   OH277053   6.096   6.156   0.256 -0.1419  0.1728 -0.1204
18521TIP3    H177054   6.042   6.088   0.297 -0.0588 -1.1492 -2.0740
18521TIP3    H277055   6.032   6.220   0.223 -0.3081  0.2951  0.4278
18522TIP3   OH277056   3.953   0.971   0.387 -0.0510 -0.3891  0.0602
18522TIP3    H177057   4.012   1.000   0.318  0.4598 -0.1536  0.5826
18522TIP3    H277058   3.893   1.044   0.399  0.8150  0.2138  0.9085
18523TIP3   OH277059   4.689   1.604  16.219  0.3246  0.2968  0.1082
18523TIP3    H177060   4.664   1.615  16.127  1.1151  0.4004 -0.0978
18523TIP3    H277061   4.655   1.518  16.242 -0.7753  0.6932  0.0235
18524TIP3   OH277062   1.881   3.155   4.248 -0.2698 -0.0923  0.1310
18524TIP3    H177063   1.963   3.124   4.286  1.3951  2.4835 -1.0466
18524TIP3    H277064   1.855   3.087   4.186  0.4993 -1.3432  1.1505
18525TIP3   OH277065   1.675   3.423   5.004 -0.1057 -0.2520 -0.8595
18525TIP3    H177066   1.726   3.416   4.923  1.1194 -1.9525 -0.0045
18525TIP3    H277067   1.592   3.381   4.984  0.3228 -0.9819 -1.1605
18526TIP3   OH277068   5.266   5.399   0.624 -0.7711 -0.1090  0.0163
18526TIP3    H177069   5.243   5.348   0.701  0.6404  1.3271  1.4578
18526TIP3    H277070   5.361   5.407   0.627 -0.8233  1.3687 -0.9512
18527TIP3   OH277071   0.121   1.216   3.419 -0.7935 -0.3864 -0.4264
18527TIP3    H177072   0.168   1.298   3.412  0.9031 -0.9720  2.2956
18527TIP3    H277073   0.044   1.237   3.471 -1.0587 -0.2852 -0.8584
18528TIP3   OH277074   4.590   2.951  14.076 -0.3066  0.1783  0.2917
18528TIP3    H177075   4.654   3.006  14.121 -1.1151  2.1990 -0.8668
18528TIP3    H277076   4.536   3.013  14.027 -2.2003 -1.5689  0.0245
18529TIP3   OH277077   4.689   6.661   1.605  0.2122 -0.5446  0.4006
18529TIP3    H177078   4.611   6.625   1.647  0.7061 -1.1154  0.8634
18529TIP3    H277079   4.753   6.669   1.676  0.8864 -1.0016 -0.1305
18530TIP3   OH277080   1.876   0.186   4.851 -0.0087 -0.0902 -0.2207
18530TIP3    H177081   1.867   0.145   4.937  0.3662 -3.1709 -1.5497
18530TIP3    H277082   1.968   0.176   4.829 -0.3401 -0.4438 -1.4958
18531TIP3   OH277083   2.975   5.726  17.220 -0.2919  0.1919  0.2787
18531TIP3    H177084   2.953   5.776  17.298  0.7615 -0.5923  1.1138
18531TIP3    H277085   3.013   5.645  17.253  1.3920  0.3799 -1.0101
18532TIP3   OH277086   6.306   4.658   2.586  0.2562 -0.7356 -0.2434
18532TIP3    H177087   6.268   4.743   2.606 -0.8166 -1.1493 -0.4870
18532TIP3    H277088   6.345   4.670   2.499 -0.2449 -0.6028 -0.4530
18533TIP3   OH277089   2.914   1.950   4.766  0.1557 -0.5366  0.3272
18533TIP3    H177090   2.919   1.874   4.708 -0.7426 -1.2519  1.1366
18533TIP3    H277091   2.982   1.935   4.831  1.1567  0.2605 -0.5233
18534TIP3   OH277092   1.429   0.845   3.074 -0.1854 -0.0611  0.2147
18534TIP3    H177093   1.508   0.791   3.080  1.7033  2.0717 -2.6120
18534TIP3    H277094   1.462   0.935   3.065 -2.9140  0.9121 -1.2641
18535TIP3   OH277095   0.734   1.921   1.701  0.2412 -0.0645 -0.1277
18535TIP3    H177096   0.725   1.856   1.770  0.2791  0.1023  0.0373
18535TIP3    H277097   0.711   1.875   1.620  1.5519 -0.6429 -0.1886
18536TIP3   OH277098   3.875   0.998   2.839 -0.0095  0.0151  0.0133
18536TIP3    H177099   3.808   1.046   2.791 -0.8301  0.5848  1.6478
18536TIP3    H277100   3.828   0.959   2.913  1.0435 -1.5412 -0.0807
18537TIP3   OH277101   6.349   2.089  16.278  0.1882  0.1335  0.4895
18537TIP3    H177102   6.253   2.095  16.280  0.1999  0.4878  0.1390
18537TIP3    H277103   6.373   2.071  16.368 -0.1866  0.4578  0.6606
18538TIP3   OH277104   3.865   2.829  11.270  0.4361  0.0759  0.4524
18538TIP3    H177105   3.808   2.882  11.215  0.9867 -0.6294 -0.8278
18538TIP3    H277106   3.951   2.871  11.264  0.2396  0.7014  1.7690
18539TIP3   OH277107   3.127   1.532   0.518 -0.2431 -0.1122  0.0242
18539TIP3    H177108   3.164   1.459   0.468 -2.6553 -1.7546  0.4678
18539TIP3    H277109   3.184   1.539   0.595  0.1284 -1.4313 -0.1012
18540TIP3   OH277110   0.065   3.122  16.939 -0.1721  0.8946  0.3746
18540TIP3    H177111   0.074   3.212  16.973  0.0238  0.4009  1.6955
18540TIP3    H277112  -0.016   3.090  16.977 -1.2966  1.1552 -1.6940
18541TIP3   OH277113   5.922   4.035  17.397  0.4024  0.7591  0.1019
18541TIP3    H177114   5.927   3.942  17.419  1.1069  0.1756 -2.2176
18541TIP3    H277115   6.012   4.059  17.375  0.2026  1.9573  0.5495
18542TIP3   OH277116   1.645   1.382  15.807  0.2684 -0.6049  0.2374
18542TIP3    H177117   1.676   1.379  15.898  0.0232  1.0752  0.3943
18542TIP3    H277118   1.588   1.458  15.803  1.4769  0.2729 -1.7016
18543TIP3   OH277119   5.723   4.062  14.885 -0.9802 -0.1051  0.0932
18543TIP3    H177120   5.742   3.974  14.918  1.7737  0.3291 -0.0956
18543TIP3    H277121   5.705   4.114  14.964  2.1039  0.1304  0.7907
18544TIP3   OH277122   6.325   0.270  14.454 -0.0475  0.1808  0.5516
18544TIP3    H177123   6.285   0.236  14.374  0.6533  0.4731  0.0628
18544TIP3    H277124   6.403   0.216  14.466  0.1366  0.4917  0.7450
18545TIP3   OH277125   4.995   4.936  13.877 -0.1508  0.2520 -0.2479
18545TIP3    H177126   4.919   4.993  13.864 -1.3917 -1.3457 -0.3883
18545TIP3    H277127   4.961   4.848  13.861  2.0942 -0.4184 -1.8754
18546TIP3   OH277128   4.933   5.696  10.751 -0.0897 -0.1099 -0.4251
18546TIP3    H177129   4.841   5.689  10.727 -0.1318  0.0706 -0.3103
18546TIP3    H277130   4.964   5.605  10.754 -0.4837 -0.2221  0.4093
18547TIP3   OH277131   3.806   4.320  13.646  0.5423  0.2557  0.1518
18547TIP3    H177132   3.833   4.228  13.645  0.6476  0.2701  1.0737
18547TIP3    H277133   3.831   4.352  13.733 -2.7944  0.1605  1.2863
18548TIP3   OH277134   4.110   5.723  11.279 -0.2527 -0.1983 -0.2501
18548TIP3    H177135   4.027   5.694  11.318  0.3027 -1.1260  0.2618
18548TIP3    H277136   4.084   5.792  11.217 -1.4564 -0.7885 -0.4344
18549TIP3   OH277137   4.973   0.394   2.039  0.1282  0.3995 -0.4061
18549TIP3    H177138   4.980   0.303   2.066  1.6052  0.6648  0.1957
18549TIP3    H277139   4.921   0.392   1.959 -0.4575 -0.8835 -0.0156
18550TIP3   OH277140   6.160   3.176  12.053 -0.4621  0.2571 -0.3425
18550TIP3    H177141   6.071   3.141  12.061 -0.8357  1.5105  2.0234
18550TIP3    H277142   6.151   3.253  11.999 -0.4341 -0.6935 -1.7463
18551TIP3   OH277143   0.180   1.889   2.466 -0.2515 -0.1637  0.2752
18551TIP3    H177144   0.171   1.839   2.385 -0.1810  0.6306 -0.2264
18551TIP3    H277145   0.254   1.848   2.512  2.0029  1.4862 -1.6421
18552TIP3   OH277146   5.114   3.763   6.002  0.5693  0.6579 -0.6401
18552TIP3    H177147   5.039   3.738   5.948 -0.0679  0.2875  0.3949
18552TIP3    H277148   5.107   3.858   6.010 -0.1796  0.5579 -0.0044
18553TIP3   OH277149   0.119   2.261  17.081 -0.0831  0.0167 -0.0461
18553TIP3    H177150   0.196   2.250  17.025  0.5527  1.1351  0.5660
18553TIP3    H277151   0.147   2.229  17.167  0.1210  1.4910  0.4722
18554TIP3   OH277152   4.124   1.909  16.222 -0.3788  0.1556  0.1100
18554TIP3    H177153   4.063   1.922  16.149  1.5208  2.2357 -1.2412
18554TIP3    H277154   4.194   1.854  16.186  0.5903  1.2198  0.3013
18555TIP3   OH277155   3.867   1.290   3.675  0.2018 -0.2322 -0.3014
18555TIP3    H177156   3.846   1.280   3.768  0.4702  1.6995  0.0089
18555TIP3    H277157   3.932   1.221   3.658  1.5198  0.5159  1.4167
18556TIP3   OH277158   5.518   0.096  12.072 -0.2194  0.8174  0.5820
18556TIP3    H177159   5.475   0.041  12.138 -1.0423  0.4601 -0.2332
18556TIP3    H277160   5.483   0.066  11.988  1.2652  0.8427 -0.0958
18557TIP3   OH277161   3.113   4.377  12.696 -0.2595  0.0473  0.2641
18557TIP3    H177162   3.117   4.340  12.608 -1.8698  0.5226 -0.0489
18557TIP3    H277163   3.192   4.431  12.703 -0.7611  1.0962 -1.4384
18558TIP3   OH277164   0.597   6.335  14.306 -0.3264 -0.0769  0.6076
18558TIP3    H177165   0.658   6.394  14.351 -1.2145  1.7558 -0.4891
18558TIP3    H277166   0.633   6.248  14.322  1.2812  0.7633  1.9410
18559TIP3   OH277167   3.882   2.829   5.856 -0.3496 -0.0998 -0.4210
18559TIP3    H177168   3.809   2.768   5.870  0.1380 -0.5226  0.4173
18559TIP3    H277169   3.850   2.892   5.792 -1.4243 -0.3245 -0.1216
18560TIP3   OH277170   4.135   4.608   6.761  0.4103 -0.1617 -0.0160
18560TIP3    H177171   4.165   4.605   6.670 -0.4145 -1.6596 -0.2781
18560TIP3    H277172   4.161   4.694   6.793  1.3949  0.0890 -1.4344
18561TIP3   OH277173   3.216   2.736  15.623 -0.6917  0.2795 -0.0412
18561TIP3    H177174   3.306   2.745  15.593  0.1093 -0.3933  1.9808
18561TIP3    H277175   3.198   2.642  15.616  0.1096 -0.1929  2.9149
18562TIP3   OH277176   2.661   4.660   5.677 -0.0943 -0.4312 -0.5008
18562TIP3    H177177   2.643   4.575   5.638 -0.5280 -0.4788 -0.2075
18562TIP3    H277178   2.688   4.640   5.767 -1.1260 -0.2245 -0.1240
18563TIP3   OH277179   1.548   0.394   3.391 -0.2113  0.2291  0.1834
18563TIP3    H177180   1.551   0.327   3.460  0.0980 -1.0334 -1.0131
18563TIP3    H277181   1.627   0.378   3.339 -1.0315  0.3538 -1.1641
18564TIP3   OH277182   4.520   1.751   3.241 -0.0641 -0.1078  0.2685
18564TIP3    H177183   4.492   1.818   3.179 -0.3249 -0.0595  0.4356
18564TIP3    H277184   4.559   1.683   3.187  0.5155  0.3245  0.1198
18565TIP3   OH277185   5.546   4.962   2.378 -0.3078  0.1499 -0.2021
18565TIP3    H177186   5.465   5.012   2.369 -0.5169  0.2004  1.6579
18565TIP3    H277187   5.614   5.029   2.385 -0.4584  0.1799  1.1505
18566TIP3   OH277188   3.632   5.502  13.418 -0.7222 -0.2312 -0.3672
18566TIP3    H177189   3.649   5.425  13.363 -0.4537 -0.4378 -0.0031
18566TIP3    H277190   3.632   5.575  13.356 -1.6977 -0.5995 -0.8210
18567TIP3   OH277191   0.001   1.383  16.816 -0.1335  0.0780 -0.1422
18567TIP3    H177192  -0.073   1.379  16.756  0.0746 -0.7616 -0.3634
18567TIP3    H277193  -0.019   1.317  16.882  0.1666  0.2178  0.0921
18568TIP3   OH277194   1.430   4.069   5.070  0.3061  0.2104  0.4047
18568TIP3    H177195   1.411   4.008   4.999 -0.7905  0.0512  0.8160
18568TIP3    H277196   1.422   4.156   5.031  2.4634  0.1291 -0.3323
18569TIP3   OH277197   1.575   3.688  16.607 -0.3278 -0.6434 -0.1405
18569TIP3    H177198   1.495   3.729  16.642  1.4636  0.9433  2.4210
18569TIP3    H277199   1.612   3.755  16.550  0.0390 -0.6747  0.0614
18570TIP3   OH277200   1.082   1.281  16.214 -0.1139  0.1649  0.8406
18570TIP3    H177201   1.063   1.216  16.146  0.6650 -0.0184  0.7895
18570TIP3    H277202   1.019   1.351  16.198  0.9154  0.7233 -0.8943
18571TIP3   OH277203   1.234   6.064  17.153 -0.0848  0.3995 -0.3585
18571TIP3    H177204   1.159   6.109  17.114 -2.2009 -2.9965 -0.5736
18571TIP3    H277205   1.267   6.008  17.083  1.8152  0.7982  0.1737
18572TIP3   OH277206   3.453   1.243   2.418 -0.3124 -0.0196 -0.0954
18572TIP3    H177207   3.454   1.157   2.460 -1.5123 -0.0038  0.0098
18572TIP3    H277208   3.503   1.231   2.338 -1.4896 -1.1589 -0.6958
18573TIP3   OH277209   2.237   2.956  14.799  0.0389  0.4846  0.0287
18573TIP3    H177210   2.181   3.021  14.842 -0.5263 -0.1562  0.2660
18573TIP3    H277211   2.249   2.990  14.711  2.2178  2.4673  0.9759
18574TIP3   OH277212   6.012   3.322  17.115  0.4732  0.7829  0.1182
18574TIP3    H177213   6.105   3.335  17.134  1.0818 -0.4049 -1.7567
18574TIP3    H277214   6.003   3.227  17.109 -0.6645  0.9334 -0.6778
18575TIP3   OH277215   6.075   1.963   1.282 -0.1694 -0.2355  0.1339
18575TIP3    H177216   6.070   1.958   1.377 -1.8156  0.7152  0.1510
18575TIP3    H277217   6.049   2.053   1.261 -0.7891 -0.6890 -1.2381
18576TIP3   OH277218   0.203   6.414   5.140  0.5902 -0.0840  0.7220
18576TIP3    H177219   0.277   6.356   5.127 -0.1735 -0.8280 -0.5671
18576TIP3    H277220   0.179   6.404   5.232  0.6827 -1.5544  0.5986
18577TIP3   OH277221   0.866   5.502   3.227  0.5402 -0.5547  0.1631
18577TIP3    H177222   0.829   5.522   3.313  1.9010  1.0158  0.4400
18577TIP3    H277223   0.898   5.412   3.235 -1.0203 -1.0936  0.6653
18578TIP3   OH277224   2.666   4.764  14.057  0.2090 -0.1389  0.2076
18578TIP3    H177225   2.727   4.836  14.047 -0.1150  0.2270  0.8073
18578TIP3    H277226   2.691   4.701  13.989  0.0227  0.8632 -0.8157
18579TIP3   OH277227   0.068   1.353   2.380  0.0179 -0.1187 -0.3169
18579TIP3    H177228   0.140   1.323   2.326  0.6869 -0.5709  0.8099
18579TIP3    H277229   0.061   1.289   2.451 -1.5144 -0.1099 -0.4117
18580TIP3   OH277230   4.364   5.436   1.638 -0.1403 -0.5799 -0.7374
18580TIP3    H177231   4.343   5.377   1.565  1.4215 -0.1916 -1.5409
18580TIP3    H277232   4.312   5.515   1.620  0.1088 -0.5492 -1.3609
18581TIP3   OH277233   1.577   3.762  10.592  0.0178  0.3691 -0.1777
18581TIP3    H177234   1.506   3.799  10.643  0.4493  0.7749  0.1381
18581TIP3    H277235   1.535   3.724  10.515 -0.5792  0.2309  0.2122
18582TIP3   OH277236   0.887   0.277   0.009 -0.4676 -0.0185  0.0180
18582TIP3    H177237   0.970   0.322  -0.010 -0.3321 -0.7317 -1.1796
18582TIP3    H277238   0.875   0.217  -0.065 -2.3220  0.4526 -0.1104
18583TIP3   OH277239   2.928   2.675   0.160  0.3525  0.0615 -0.0286
18583TIP3    H177240   2.859   2.733   0.129 -1.2351 -2.0903 -0.7004
18583TIP3    H277241   2.905   2.657   0.251 -0.3265 -1.1176 -0.4221
18584TIP3   OH277242   3.956   2.888  13.644 -0.2329 -0.4753 -1.0719
18584TIP3    H177243   3.922   2.966  13.689  0.6670 -1.2286  1.0662
18584TIP3    H277244   3.976   2.827  13.715  1.1928 -1.8054 -2.5437
18585TIP3   OH277245   2.155   3.658   5.613 -0.0074 -0.2321  0.9474
18585TIP3    H177246   2.063   3.679   5.631 -0.5075 -0.2161 -1.3133
18585TIP3    H277247   2.204   3.710   5.676 -1.5016  0.9741  1.1828
18586TIP3   OH277248   2.174   1.932  16.292  0.4249 -0.0491  0.7957
18586TIP3    H177249   2.256   1.922  16.243 -0.7396 -0.1724 -1.2641
18586TIP3    H277250   2.174   2.023  16.320  0.1471  0.6878 -1.4262
18587TIP3   OH277251   4.092   2.678   0.610  0.6069 -0.6923  0.4960
18587TIP3    H177252   4.046   2.722   0.682 -0.5052  0.1565 -0.6739
18587TIP3    H277253   4.040   2.600   0.593  1.3968 -1.3838  1.2035
18588TIP3   OH277254   1.879   1.105   2.383 -0.1990  1.1612  0.2140
18588TIP3    H177255   1.891   1.060   2.300 -2.3743 -1.1685  1.0282
18588TIP3    H277256   1.926   1.188   2.373  0.4263  0.5346 -2.9346
18589TIP3   OH277257   4.475   6.183  15.616 -0.3392 -0.3548  0.0219
18589TIP3    H177258   4.538   6.249  15.645  0.5634 -1.0742 -0.2533
18589TIP3    H277259   4.406   6.185  15.682 -0.2832  0.7939  0.0669
18590TIP3   OH277260   6.400   4.646  16.536  0.2899  0.3863 -0.0015
18590TIP3    H177261   6.381   4.581  16.468 -0.7376  0.2636  0.3940
18590TIP3    H277262   6.461   4.602  16.594  1.2722  0.5311 -0.8940
18591TIP3   OH277263   1.775   5.828  11.024  0.9703  0.2765  0.0303
18591TIP3    H177264   1.775   5.920  10.999 -1.5665 -0.2295 -2.4207
18591TIP3    H277265   1.763   5.781  10.941  0.0990 -2.1323  1.4171
18592TIP3   OH277266   0.194   2.242  12.408 -0.0285  0.5094  0.4152
18592TIP3    H177267   0.158   2.250  12.496 -0.1032 -0.3471  0.4711
18592TIP3    H277268   0.266   2.180  12.417  0.5429  1.0970  0.0299
18593TIP3   OH277269   1.956   1.068   2.663  0.2695 -1.0088  0.5602
18593TIP3    H177270   1.945   1.059   2.569  3.2395  0.6146 -0.0702
18593TIP3    H277271   2.019   1.000   2.687  0.4358 -0.6726  1.1077
18594TIP3   OH277272   0.648   0.413   3.193  0.4508 -0.1565  0.1734
18594TIP3    H177273   0.603   0.490   3.226  0.8171 -0.5275  1.6445
18594TIP3    H277274   0.739   0.441   3.182  0.0875  0.3279 -1.8609
18595TIP3   OH277275   2.452   6.030   5.505  0.6355  0.5570  0.2347
18595TIP3    H177276   2.505   6.102   5.471  0.8377  0.8415  1.1302
18595TIP3    H277277   2.373   6.031   5.451  0.3584  1.8502  0.6192
18596TIP3   OH277278   0.495   0.572  13.096 -0.5726  0.1138 -0.3161
18596TIP3    H177279   0.433   0.541  13.162 -2.2120  1.8909 -0.9261
18596TIP3    H277280   0.534   0.492  13.060 -1.2765 -0.9746  1.2385
18597TIP3   OH277281   3.256   3.946  15.904 -0.3151  0.2577  0.1078
18597TIP3    H177282   3.225   3.983  15.822 -2.0186  0.4041  0.7623
18597TIP3    H277283   3.246   4.017  15.968 -1.7912 -0.6699  0.9848
18598TIP3   OH277284   2.544   3.467   6.117  0.5353 -0.1765 -0.0882
18598TIP3    H177285   2.451   3.489   6.124  0.0666 -2.2327  0.7495
18598TIP3    H277286   2.582   3.497   6.200  0.3798 -0.4224  0.0717
18599TIP3   OH277287   1.751   5.909  12.188 -0.1427  0.7671  0.1622
18599TIP3    H177288   1.688   5.837  12.201 -0.1779  0.6872 -0.4358
18599TIP3    H277289   1.706   5.969  12.129  0.3236  0.7313 -0.2369
18600TIP3   OH277290   4.765   5.335  15.162  0.3984 -0.5244  0.0894
18600TIP3    H177291   4.802   5.424  15.163  0.3728 -0.4965 -0.6719
18600TIP3    H277292   4.673   5.347  15.182  0.9911 -0.7306  3.4865
18601TIP3   OH277293   4.370   6.109  14.197  0.5407  0.3308 -0.0608
18601TIP3    H177294   4.386   6.020  14.227 -0.0724  0.0737 -0.4850
18601TIP3    H277295   4.288   6.104  14.148 -0.9437  1.6137  2.1466
18602TIP3   OH277296   3.201   0.351   5.357  0.1909  1.1907 -0.1112
18602TIP3    H177297   3.288   0.380   5.330 -0.1970  1.3797 -1.2129
18602TIP3    H277298   3.174   0.289   5.289 -0.5075  1.0774  0.2516
18603TIP3   OH277299   4.232   3.738  11.302 -0.2553  0.1941  0.0094
18603TIP3    H177300   4.265   3.823  11.275 -0.9601  1.2418  2.2071
18603TIP3    H277301   4.294   3.707  11.368 -0.1123 -0.9428 -0.6227
18604TIP3   OH277302   3.307   1.177  13.817 -1.2709 -0.4001  0.3022
18604TIP3    H177303   3.292   1.083  13.814 -2.3620 -0.2157 -0.9826
18604TIP3    H277304   3.242   1.214  13.758 -1.2540  1.2193  1.2189
18605TIP3   OH277305   2.451   1.082   1.578 -0.5425  0.4611  0.3484
18605TIP3    H177306   2.449   1.008   1.518  2.7736 -0.4037  1.0783
18605TIP3    H277307   2.359   1.096   1.603 -1.5413 -1.7340 -1.7571
18606TIP3   OH277308   0.101   3.663  17.196 -0.2451 -0.0716  0.8706
18606TIP3    H177309   0.096   3.567  17.202  1.0117 -0.1201  1.4023
18606TIP3    H277310   0.122   3.692  17.285 -0.5808  0.7058  0.7066
18607TIP3   OH277311   1.686   1.586  14.857  0.2883 -0.7750  0.4442
18607TIP3    H177312   1.635   1.514  14.894 -0.7767 -0.8318 -1.0175
18607TIP3    H277313   1.766   1.545  14.825 -0.8418 -1.6093 -1.5044
18608TIP3   OH277314   6.683   1.566   2.235 -0.0001  0.1990 -0.0035
18608TIP3    H177315   6.755   1.515   2.272 -0.5588 -0.1422  0.6221
18608TIP3    H277316   6.610   1.552   2.294 -1.3791 -1.5340 -1.9641
18609TIP3   OH277317   5.611   3.222   4.050 -0.2564  0.2121 -0.3514
18609TIP3    H177318   5.579   3.157   4.112 -1.9690  0.4341 -0.9416
18609TIP3    H277319   5.607   3.305   4.097 -0.5509  0.2385 -0.4228
18610TIP3   OH277320   2.573   1.015   4.029 -0.5596 -0.0428 -0.2024
18610TIP3    H177321   2.567   1.087   4.092 -1.6136 -0.4005  0.1275
18610TIP3    H277322   2.509   1.038   3.961 -1.2272 -0.8663  0.1255
18611TIP3   OH277323   6.547   4.005   0.982 -0.2030 -0.2342 -0.1259
18611TIP3    H177324   6.626   4.057   0.964 -0.6455  0.5662  0.1694
18611TIP3    H277325   6.577   3.937   1.042  0.6527 -1.1065 -1.4725
18612TIP3   OH277326   3.020   4.520   2.256 -0.1469 -0.0601 -0.2111
18612TIP3    H177327   2.992   4.596   2.205 -1.6055 -0.4762 -0.0750
18612TIP3    H277328   3.011   4.446   2.195  0.5961 -0.2140 -0.1366
18613TIP3   OH277329   5.129   6.281  11.855  0.1696  0.3683  0.4519
18613TIP3    H177330   5.197   6.341  11.886 -0.9707  1.4026  1.0242
18613TIP3    H277331   5.157   6.257  11.766  1.8203 -0.0997  1.0558
18614TIP3   OH277332   1.001   5.057   0.553  0.0648  0.0138  0.0644
18614TIP3    H177333   1.038   5.091   0.634  0.3093  0.5099 -0.2508
18614TIP3    H277334   1.054   5.096   0.484 -0.5496  0.1093 -0.3615
18615TIP3   OH277335   6.436   0.132   1.163 -0.6200  0.0894 -0.2610
18615TIP3    H177336   6.495   0.081   1.108  0.5223  1.5264 -0.4384
18615TIP3    H277337   6.473   0.125   1.251 -1.1229 -0.3206 -0.0764
18616TIP3   OH277338   1.041   3.390  11.856 -0.2683  0.3459  0.8529
18616TIP3    H177339   1.085   3.473  11.838  0.2334 -0.2887 -1.1257
18616TIP3    H277340   1.103   3.341  11.910 -0.7605  1.3776  2.4350
18617TIP3   OH277341   3.715   1.905  16.509  0.0807 -0.0668 -0.3834
18617TIP3    H177342   3.721   1.864  16.595 -2.2509  0.0309 -0.1238
18617TIP3    H277343   3.704   1.998  16.527  1.8400  0.2728 -0.8885
18618TIP3   OH277344   0.999   0.140   6.233 -0.2206 -0.3370 -0.1817
18618TIP3    H177345   0.951   0.124   6.315  0.2892 -1.5311 -0.0952
18618TIP3    H277346   0.942   0.198   6.182 -0.4850  0.5320  1.0616
18619TIP3   OH277347   6.143   4.698   2.057 -0.5444 -0.3407 -0.5645
18619TIP3    H177348   6.097   4.755   2.117 -0.2941 -0.6007 -0.1197
18619TIP3    H277349   6.173   4.755   1.987  0.6805  0.2888  0.4354
18620TIP3   OH277350   3.689   0.021  14.208 -0.1685 -0.3179 -0.6413
18620TIP3    H177351   3.784   0.008  14.212  0.1338  0.4989 -3.0964
18620TIP3    H277352   3.677   0.116  14.219 -1.2078 -0.7436  4.0767
18621TIP3   OH277353   3.785   5.182  11.875 -0.7063  0.1981  0.3672
18621TIP3    H177354   3.797   5.217  11.963 -1.4994  0.9821  0.1891
18621TIP3    H277355   3.698   5.214  11.849 -0.8836 -0.8026 -0.3399
18622TIP3   OH277356   1.817   6.278   1.752  0.4173 -0.4275  0.3638
18622TIP3    H177357   1.740   6.223   1.769 -0.5675  0.2914 -1.4938
18622TIP3    H277358   1.887   6.239   1.806 -0.6492 -2.4933  0.3442
18623TIP3   OH277359   4.254   2.813   2.562 -0.6090 -0.2234  0.0846
18623TIP3    H177360   4.186   2.881   2.562  0.3315  0.7481  0.2619
18623TIP3    H277361   4.226   2.751   2.628 -1.1626  0.3411  0.3903
18624TIP3   OH277362   1.950   4.992   1.356 -0.1926  0.5560  0.7509
18624TIP3    H177363   1.927   5.083   1.376  1.4474  0.9314  1.0663
18624TIP3    H277364   2.014   4.999   1.286 -0.2344 -0.3879  0.6102
18625TIP3   OH277365   5.762   4.894  13.531  0.6543 -0.5446  0.3809
18625TIP3    H177366   5.770   4.840  13.609  3.9142  1.6503  1.7655
18625TIP3    H277367   5.839   4.871  13.478  0.7524  0.9484 -0.1571
18626TIP3   OH277368   2.428   4.003  15.001  0.0974  0.1359 -0.6313
18626TIP3    H177369   2.449   4.071  14.937  0.8783  0.3874 -0.1202
18626TIP3    H277370   2.452   3.921  14.957 -0.3159  0.2302 -1.0367
18627TIP3   OH277371   2.814   5.398  14.376 -0.2743  1.0168 -0.3027
18627TIP3    H177372   2.863   5.408  14.294  2.0732 -2.3608  0.4715
18627TIP3    H277373   2.879   5.371  14.440 -2.2371  2.3430  2.4529
18628TIP3   OH277374   5.457   0.117  14.972  0.6357  0.5353  0.1213
18628TIP3    H177375   5.437   0.033  15.014 -0.8360  0.0476 -1.4380
18628TIP3    H277376   5.491   0.172  15.042  0.2621 -0.9106  1.4771
18629TIP3   OH277377   6.323   4.513   3.740 -0.4676  0.5105  0.3291
18629TIP3    H177378   6.268   4.559   3.677  1.3340  0.0748 -1.6976
18629TIP3    H277379   6.358   4.438   3.692  0.0715 -0.5370  2.2261
18630TIP3   OH277380   1.796   2.717  15.701 -0.2398 -0.3691 -0.0272
18630TIP3    H177381   1.702   2.732  15.715  0.1223  1.1037  1.0534
18630TIP3    H277382   1.822   2.786  15.640  0.5615  0.6914  1.4507
18631TIP3   OH277383   1.428   6.710   5.457  0.0183 -0.1516 -0.3837
18631TIP3    H177384   1.423   6.765   5.379 -1.4267  0.5582  0.1739
18631TIP3    H277385   1.460   6.769   5.526  0.1721 -0.4691 -0.1826
18632TIP3   OH277386   2.316   6.441  17.404  0.1039  0.5731 -0.0608
18632TIP3    H177387   2.399   6.403  17.375 -0.0816  0.0980  0.0242
18632TIP3    H277388   2.282   6.378  17.467 -0.5151  0.5677 -0.3919
18633TIP3   OH277389   4.913   2.022   5.876  0.1151  0.0080 -0.1737
18633TIP3    H177390   4.829   1.993   5.911 -0.0587  1.7343  0.9576
18633TIP3    H277391   4.895   2.047   5.786 -0.3337 -0.6215 -0.2668
18634TIP3   OH277392   2.890   5.781   4.321  0.4048 -0.1322 -0.0276
18634TIP3    H177393   2.839   5.706   4.291  0.4964  0.3549 -1.5092
18634TIP3    H277394   2.957   5.743   4.378 -0.3904 -1.0009  0.3554
18635TIP3   OH277395   4.088   3.866  13.605  0.7737  0.3977 -0.0993
18635TIP3    H177396   4.103   3.850  13.698  2.6274  1.2675 -0.2155
18635TIP3    H277397   4.076   3.779  13.567  0.2758  0.0190  0.9015
18636TIP3   OH277398   1.540   1.146  16.568  0.1979  0.1407  0.2896
18636TIP3    H177399   1.636   1.140  16.562  0.0622 -1.4993 -1.2879
18636TIP3    H277400   1.520   1.127  16.659  1.3960  1.2142  0.8031
18637TIP3   OH277401   6.640   1.853   6.570 -0.0025  0.6357 -0.2276
18637TIP3    H177402   6.638   1.832   6.663  0.1081 -0.8418 -0.5213
18637TIP3    H277403   6.619   1.946   6.565  1.1151  1.0141  1.3510
18638TIP3   OH277404   3.948   6.590   3.874 -0.1844 -0.2492 -0.5862
18638TIP3    H177405   4.031   6.553   3.901  1.0047  0.9833 -2.3227
18638TIP3    H277406   3.901   6.517   3.833  0.3093 -0.8038 -0.1613
18639TIP3   OH277407   1.127   1.402  15.803 -0.3571  0.6174  0.0166
18639TIP3    H177408   1.117   1.496  15.819 -0.1878  0.5415  0.6170
18639TIP3    H277409   1.040   1.365  15.821 -0.6210  0.7456 -0.9438
18640TIP3   OH277410   5.033   4.791  11.927 -0.2661 -0.8236 -0.3238
18640TIP3    H177411   5.072   4.858  11.983 -0.7437 -1.1293  0.3900
18640TIP3    H277412   4.952   4.831  11.896 -0.2536 -0.8452 -0.3837
18641TIP3   OH277413   2.615   0.743   3.053  0.5939 -0.2283 -0.3747
18641TIP3    H177414   2.581   0.778   2.971 -2.1747  0.2887  0.8934
18641TIP3    H277415   2.546   0.685   3.085  0.9765  0.6237  2.2314
18642TIP3   OH277416   6.756   5.382  13.025 -0.7676  0.1313 -0.2632
18642TIP3    H177417   6.849   5.374  13.005 -0.6917 -0.1096  0.1828
18642TIP3    H277418   6.727   5.293  13.043 -0.5121  0.4629  2.0891
18643TIP3   OH277419   1.556   2.247  16.987  0.1304  0.1178 -0.5497
18643TIP3    H177420   1.472   2.269  17.028  0.5265  1.6059 -0.4885
18643TIP3    H277421   1.591   2.177  17.041 -0.5101  0.3207  0.1492
18644TIP3   OH277422   5.955   6.635  14.250  0.0543  0.3601 -0.3751
18644TIP3    H177423   5.864   6.658  14.233 -0.2181 -0.2058  0.2614
18644TIP3    H277424   5.960   6.625  14.345  0.9468  1.0495 -0.3276
18645TIP3   OH277425   1.540   5.841   5.673 -0.2952  0.2169  0.2458
18645TIP3    H177426   1.557   5.861   5.581  2.6816  2.2001  1.0974
18645TIP3    H277427   1.542   5.926   5.717  0.1288 -0.8249  2.3659
18646TIP3   OH277428   6.216   5.343  15.044  0.2517  0.6427 -0.1473
18646TIP3    H177429   6.134   5.340  15.093  0.5401  1.3791  0.3927
18646TIP3    H277430   6.197   5.395  14.966 -0.5419 -1.5212 -1.5163
18647TIP3   OH277431   3.735   4.226  15.949  0.7442 -0.1584  0.0777
18647TIP3    H177432   3.772   4.312  15.928 -0.0040  0.3154  0.6516
18647TIP3    H277433   3.694   4.197  15.868 -0.5267  0.8308  0.3341
18648TIP3   OH277434   0.381   4.333   4.576  0.1483  0.5667  0.1574
18648TIP3    H177435   0.294   4.374   4.575 -0.4919 -0.7157 -1.2850
18648TIP3    H277436   0.441   4.405   4.556 -0.5009  1.5383  1.4575
18649TIP3   OH277437   0.076   5.618   3.504  0.4522  0.1961  0.4193
18649TIP3    H177438   0.104   5.540   3.551  0.9625 -0.2029 -0.5271
18649TIP3    H277439   0.021   5.665   3.567  0.3845 -0.7665  1.1013
18650TIP3   OH277440   4.343   2.071   0.121 -0.7876 -0.3384 -0.2402
18650TIP3    H177441   4.394   2.146   0.152 -1.6692 -0.0881  0.6301
18650TIP3    H277442   4.374   2.057   0.031 -1.2636  1.6699 -0.7667
18651TIP3   OH277443   2.687   3.682   0.564 -0.3646  0.1678  0.1986
18651TIP3    H177444   2.669   3.601   0.613  0.7452 -0.9528 -1.1541
18651TIP3    H277445   2.611   3.692   0.506 -0.3508 -0.0937  0.1322
18652TIP3   OH277446   1.220   5.030  17.290  0.1497  0.0796  0.0037
18652TIP3    H177447   1.258   4.942  17.291  1.6065  0.6729 -0.4213
18652TIP3    H277448   1.128   5.016  17.270 -0.0048 -1.4564  1.5679
18653TIP3   OH277449   2.695   2.941   1.269  0.1027 -0.1679 -0.0481
18653TIP3    H177450   2.629   3.009   1.287  0.9388  0.4982  0.6064
18653TIP3    H277451   2.650   2.859   1.287 -1.4081  0.0793 -2.3064
18654TIP3   OH277452   5.985   4.522   3.741  0.6072 -0.7525  0.1083
18654TIP3    H177453   6.022   4.437   3.766 -0.4196 -0.9628  0.9907
18654TIP3    H277454   5.985   4.573   3.822  1.9021  0.3820 -0.5634
18655TIP3   OH277455   4.193   4.975   1.445  0.6632 -0.2103 -0.1219
18655TIP3    H177456   4.119   4.978   1.505  2.6949 -0.6315  2.5843
18655TIP3    H277457   4.222   4.884   1.445  1.5438  0.0490 -0.6839
18656TIP3   OH277458   4.985   0.861   3.267 -0.5923 -0.4088 -0.0290
18656TIP3    H177459   4.947   0.823   3.347  1.6518 -0.1572  1.2562
18656TIP3    H277460   5.019   0.785   3.219  0.7272 -0.3757  0.7913
18657TIP3   OH277461   0.845   6.346  16.530 -0.3381 -0.2037 -0.0896
18657TIP3    H177462   0.940   6.340  16.541 -0.3208  0.2052  0.0021
18657TIP3    H277463   0.829   6.318  16.440  0.0994  1.7731 -0.8345
18658TIP3   OH277464   6.467   5.080   6.418  0.0838  0.1338 -0.0785
18658TIP3    H177465   6.381   5.102   6.454 -0.6968 -0.2993 -1.5735
18658TIP3    H277466   6.477   4.986   6.436  0.3032  0.2093  0.1994
18659TIP3   OH277467   2.928   5.985  16.748 -0.0330  0.5520 -0.7487
18659TIP3    H177468   2.876   5.988  16.667 -1.1621  2.1668 -0.0313
18659TIP3    H277469   2.899   6.062  16.797  1.2687  0.0938  0.8157
18660TIP3   OH277470   1.106   6.208  13.724 -0.3078 -0.4030  0.0004
18660TIP3    H177471   1.196   6.177  13.716 -0.5517 -1.2022  0.2400
18660TIP3    H277472   1.057   6.161  13.657 -0.1781  1.6685 -1.6624
18661TIP3   OH277473   4.719   2.014  15.419 -0.2766  0.5580 -0.4292
18661TIP3    H177474   4.672   1.931  15.429  0.5320  0.1304 -0.0730
18661TIP3    H277475   4.701   2.062  15.500  0.4002  0.1279 -0.0156
18662TIP3   OH277476   6.608   4.071  15.670 -0.0602 -0.3146  0.2717
18662TIP3    H177477   6.568   4.153  15.641  0.8308  0.0937  0.1533
18662TIP3    H277478   6.642   4.091  15.758 -0.9895 -0.9572  0.7988
18663TIP3   OH277479   0.454   0.490   5.869  0.3498 -0.2124 -0.2625
18663TIP3    H177480   0.396   0.561   5.840  1.8590  0.1390 -2.6668
18663TIP3    H277481   0.482   0.447   5.789  0.9493 -2.4080  1.0406
18664TIP3   OH277482   2.710   5.489   1.191  0.0982  0.0115  0.3500
18664TIP3    H177483   2.631   5.534   1.220 -0.0206 -0.5685  0.9673
18664TIP3    H277484   2.681   5.400   1.169  0.4018  0.0921 -0.4223
18665TIP3   OH277485   4.129   0.165   6.834  0.2919 -0.5696  0.3267
18665TIP3    H177486   4.063   0.215   6.785 -0.4588  0.4082  2.2413
18665TIP3    H277487   4.106   0.074   6.818 -0.2181 -0.2721 -0.7491
18666TIP3   OH277488   3.527   3.657  16.307  0.1179 -0.3269  0.3061
18666TIP3    H177489   3.543   3.690  16.396 -0.0658  1.4072 -0.2699
18666TIP3    H277490   3.605   3.682  16.258 -0.6151  0.5022 -0.4752
18667TIP3   OH277491   6.056   1.890  15.887  0.0920  0.4535  0.2642
18667TIP3    H177492   6.108   1.970  15.883 -0.1147  0.7265  2.0270
18667TIP3    H277493   6.113   1.822  15.850  1.3016  0.9434  1.1639
18668TIP3   OH277494   4.852   4.571  13.339 -0.2011  0.2672 -0.3236
18668TIP3    H177495   4.932   4.622  13.354  0.7180 -1.0379 -0.6886
18668TIP3    H277496   4.784   4.638  13.327  1.4969  1.6115 -4.2436
18669TIP3   OH277497   2.691   3.688  16.627  0.7071  0.1069  1.0786
18669TIP3    H177498   2.671   3.595  16.619  1.5866 -0.2230  2.4662
18669TIP3    H277499   2.618   3.732  16.583 -0.0122 -1.2065  0.9118
18670TIP3   OH277500   4.163   3.235  10.279  0.5225  1.1799  0.0836
18670TIP3    H177501   4.098   3.297  10.312 -1.3600 -0.6757  0.0988
18670TIP3    H277502   4.224   3.223  10.352 -1.0887  0.4478  1.3859
18671TIP3   OH277503   3.558   1.134   1.558  0.7723  0.0385  0.0226
18671TIP3    H177504   3.531   1.085   1.636 -1.0992 -1.7749 -1.6353
18671TIP3    H277505   3.649   1.107   1.543 -0.3632 -3.6602 -1.1826
18672TIP3   OH277506   3.986   3.912  10.510  0.1982 -0.4161 -0.1041
18672TIP3    H177507   3.967   3.914  10.604  0.2257  0.8246 -0.1088
18672TIP3    H277508   4.081   3.905  10.505  0.0817 -2.7433 -0.0719
18673TIP3   OH277509   4.913   2.778   5.991 -0.0331  0.7791  0.1543
18673TIP3    H177510   4.973   2.765   6.064 -0.6358  1.0155  0.7025
18673TIP3    H277511   4.927   2.870   5.965  0.6593  0.5057 -0.4736
18674TIP3   OH277512   5.669   3.992  15.862 -0.6298 -0.0390 -0.4544
18674TIP3    H177513   5.712   3.985  15.948 -0.4878  2.3161 -0.2575
18674TIP3    H277514   5.700   3.916  15.814  1.0766 -0.2517  0.8509
18675TIP3   OH277515   2.649   3.584   4.257 -0.1942  0.8089 -0.8669
18675TIP3    H177516   2.557   3.564   4.239 -0.3073  0.3938  0.0984
18675TIP3    H277517   2.650   3.612   4.349  0.7761 -0.2097 -0.5458
18676TIP3   OH277518   4.391   4.969  15.803  0.3091 -0.2483 -0.1393
18676TIP3    H177519   4.367   4.973  15.711  1.2792  0.8652 -0.3627
18676TIP3    H277520   4.486   4.981  15.804  0.1279  1.5452  1.0831
18677TIP3   OH277521   4.837   6.444  15.555  0.4346 -0.5822 -0.2015
18677TIP3    H177522   4.914   6.423  15.607  0.1926 -0.4017  0.2390
18677TIP3    H277523   4.834   6.377  15.487  1.9405  0.3601 -1.2787
18678TIP3   OH277524   4.387   0.523   3.801  0.5330  0.3673  0.1702
18678TIP3    H177525   4.324   0.543   3.732  1.6766  1.5159 -0.5907
18678TIP3    H277526   4.360   0.438   3.835 -0.4915  0.1220 -1.1966
18679TIP3   OH277527   4.672   5.763  15.376  0.0672 -0.1995  0.4734
18679TIP3    H177528   4.733   5.731  15.442  0.7486 -2.9895 -1.3333
18679TIP3    H277529   4.718   5.835  15.333  1.0423 -0.6244  0.7811
18680TIP3   OH277530   2.109   2.556   1.129  0.1320  0.3473  0.0733
18680TIP3    H177531   2.084   2.577   1.039  0.6940  0.4999 -0.0482
18680TIP3    H277532   2.026   2.531   1.171  0.1674 -2.1248 -1.1392
18681TIP3   OH277533   0.158   2.502  13.192 -0.1444 -0.0255 -0.1098
18681TIP3    H177534   0.091   2.521  13.259 -0.3552 -0.9407 -0.0514
18681TIP3    H277535   0.113   2.517  13.109 -0.2336 -0.0327 -0.0631
18682TIP3   OH277536   3.985   0.655  13.954 -0.2775 -0.3206 -0.1286
18682TIP3    H177537   4.060   0.620  13.905 -1.9093 -2.4740 -1.2861
18682TIP3    H277538   3.966   0.587  14.018 -2.5144 -0.9077 -1.3050
18683TIP3   OH277539   1.942   5.487  16.965 -0.6151 -0.1175  0.0380
18683TIP3    H177540   1.955   5.404  17.012 -1.3427 -0.1485  0.1955
18683TIP3    H277541   1.855   5.479  16.926 -0.1115 -0.0140 -1.1720
18684TIP3   OH277542   5.541   4.033   0.230  0.1672  0.2222 -0.0155
18684TIP3    H177543   5.535   3.966   0.298  1.6333  0.4527  0.3744
18684TIP3    H277544   5.605   3.998   0.168  1.6914  1.6377  0.6940
18685TIP3   OH277545   5.644   6.252   2.221  0.8417  0.0393 -0.0198
18685TIP3    H177546   5.626   6.325   2.162 -0.6049 -1.1701 -1.1569
18685TIP3    H277547   5.567   6.249   2.279  1.9153  0.7612  1.5067
18686TIP3   OH277548   5.444   6.333   3.871 -0.1817  0.6479  0.1214
18686TIP3    H177549   5.453   6.377   3.955 -2.8394  0.7739  0.4303
18686TIP3    H277550   5.445   6.403   3.806 -0.5906  0.7874  0.2683
18687TIP3   OH277551   0.701   2.865   1.374  0.0600  0.2432  0.2002
18687TIP3    H177552   0.693   2.804   1.447  0.3894  1.4778  1.2868
18687TIP3    H277553   0.620   2.853   1.324  0.0613 -0.9759  0.4462
18688TIP3   OH277554   6.015   6.405  17.181 -0.5499  0.4920  0.5499
18688TIP3    H177555   5.941   6.350  17.157 -0.2146  0.8379 -1.4815
18688TIP3    H277556   5.984   6.494  17.167  0.8766  0.6248 -2.7765
18689TIP3   OH277557   5.570   6.659   1.054  0.5658  0.5444 -0.3953
18689TIP3    H177558   5.636   6.596   1.025  1.2352  1.7015 -1.4880
18689TIP3    H277559   5.591   6.740   1.007 -0.4209  1.5255  0.7706
18690TIP3   OH277560   4.279   3.859   0.130  0.2646 -0.3530 -0.0767
18690TIP3    H177561   4.291   3.876   0.224 -0.4195  0.1201 -0.0685
18690TIP3    H277562   4.368   3.844   0.097  0.7035  1.2396  0.3075
18691TIP3   OH277563   0.019   0.796   4.510  0.3684  0.0680 -0.0756
18691TIP3    H177564   0.049   0.813   4.421 -0.8465  0.2289 -0.4809
18691TIP3    H277565   0.096   0.811   4.566  0.4999  2.6116 -0.8250
18692TIP3   OH277566   4.395   4.625   0.297 -0.1603 -0.6971  0.0698
18692TIP3    H177567   4.371   4.668   0.215  0.0041 -0.4943  0.1271
18692TIP3    H277568   4.407   4.533   0.273  1.0625 -0.4461 -0.3801
18693TIP3   OH277569   0.388   5.564   1.943  0.5351  0.3215  0.2507
18693TIP3    H177570   0.457   5.498   1.950  0.5217  0.1962 -0.6094
18693TIP3    H277571   0.308   5.513   1.929  0.1890  0.4475  1.6622
18694TIP3   OH277572   3.334   4.321   1.669  0.3679 -0.0637  0.2836
18694TIP3    H177573   3.411   4.372   1.645 -0.6719  1.0920 -0.7091
18694TIP3    H277574   3.370   4.237   1.700  1.9893  0.2394 -0.6473
18695TIP3   OH277575   1.380   0.736   5.066 -0.2023  0.2134 -0.4304
18695TIP3    H177576   1.316   0.785   5.015 -1.1168 -1.6850 -1.1891
18695TIP3    H277577   1.412   0.799   5.131 -0.9523  1.9312 -1.6361
18696TIP3   OH277578   1.062   6.572   1.608  0.0067 -0.1495  0.4088
18696TIP3    H177579   1.122   6.637   1.571  2.1944  0.1795  3.9478
18696TIP3    H277580   1.116   6.493   1.616 -1.5736 -1.3848 -0.6739
18697TIP3   OH277581   4.712   5.533  13.988  0.2864  0.0627  0.3674
18697TIP3    H177582   4.793   5.527  14.038 -0.5249  1.9691  2.0349
18697TIP3    H277583   4.674   5.618  14.012 -3.0868 -1.4617  1.1136
18698TIP3   OH277584   2.776   5.324  14.797 -0.1293  0.2993  0.0370
18698TIP3    H177585   2.751   5.291  14.883  1.7057  0.6156  0.7378
18698TIP3    H277586   2.709   5.289  14.738 -0.9902 -0.5710  1.4598
18699TIP3   OH277587   1.608   3.391  15.595 -0.2933 -0.3074 -0.2643
18699TIP3    H177588   1.566   3.434  15.521 -2.1086  0.9595  1.3844
18699TIP3    H277589   1.682   3.447  15.617  0.4068 -0.8289 -1.2457
18700TIP3   OH277590   0.817   5.758  17.097 -0.0429 -0.0856  0.4985
18700TIP3    H177591   0.781   5.830  17.045 -0.6235 -1.2722 -0.8194
18700TIP3    H277592   0.760   5.684  17.077  1.5487 -1.3491  0.4592
18701TIP3   OH277593   0.802   3.053   1.840  0.0024 -0.1693  0.2905
18701TIP3    H177594   0.890   3.072   1.872 -0.2041 -0.3257  0.9572
18701TIP3    H277595   0.800   2.958   1.829  0.2060 -0.0830 -0.6061
18702TIP3   OH277596   3.211   1.185   0.052  0.1832  0.4559  0.0453
18702TIP3    H177597   3.213   1.263  -0.005  0.1232 -0.9754 -2.0352
18702TIP3    H277598   3.290   1.137   0.028  0.4020  0.0185  1.5670
18703TIP3   OH277599   3.241   5.371   0.818  0.1463 -0.4935 -0.2979
18703TIP3    H177600   3.333   5.343   0.816  0.2998 -0.0550  0.3697
18703TIP3    H277601   3.241   5.453   0.767  0.5095  0.5528  1.3112
18704TIP3   OH277602   0.466   2.038   1.625 -0.0753  0.3398  0.3053
18704TIP3    H177603   0.549   2.059   1.581 -0.8503 -0.8484 -1.8600
18704TIP3    H277604   0.458   1.943   1.616 -1.8285  0.4733  0.1446
18705TIP3   OH277605   3.676   4.244   4.480  0.3504  0.1851  0.5685
18705TIP3    H177606   3.585   4.265   4.501  0.1854 -0.7324  0.8111
18705TIP3    H277607   3.691   4.284   4.394 -0.2915  0.3056  0.5116
18706TIP3   OH277608   3.694   2.935   2.613  0.4229  0.1970  0.5237
18706TIP3    H177609   3.763   2.869   2.613  0.7746  0.5119  2.1487
18706TIP3    H277610   3.615   2.889   2.640  0.2553  0.0844 -0.1408
18707TIP3   OH277611   2.590   3.934  16.727  0.1175  0.4366  0.2072
18707TIP3    H177612   2.628   3.847  16.714 -0.1262  0.1166  1.4855
18707TIP3    H277613   2.600   3.951  16.820 -3.1003  0.1693  0.7360
18708TIP3   OH277614   6.379   5.891  14.092  0.0989 -0.1569 -0.4617
18708TIP3    H177615   6.322   5.814  14.103 -0.7089  0.5355  0.4379
18708TIP3    H277616   6.436   5.868  14.018 -0.7197 -1.2587 -0.7909
18709TIP3   OH277617   3.485   4.878  12.849 -0.1140 -0.5451 -0.0223
18709TIP3    H177618   3.411   4.822  12.871  0.1385 -1.2468 -0.9067
18709TIP3    H277619   3.483   4.884  12.753  0.2654  0.4042  0.0130
18710TIP3   OH277620   1.131   4.081   2.299 -0.4703  0.3317  0.6221
18710TIP3    H177621   1.173   3.996   2.312 -0.6818  0.0726 -0.2684
18710TIP3    H277622   1.043   4.070   2.335 -1.1458 -0.4630 -1.1181
18711TIP3   OH277623   3.765   4.175  14.507 -0.7385  0.5558  0.9099
18711TIP3    H177624   3.688   4.178  14.451 -1.2174  0.2236  1.5407
18711TIP3    H277625   3.793   4.267  14.515 -0.5728  0.5846  0.0046
18712TIP3   OH277626   3.592   0.220   0.853 -0.8361  0.2935 -0.2994
18712TIP3    H177627   3.669   0.235   0.798 -2.1949  2.9228 -1.6945
18712TIP3    H277628   3.627   0.188   0.936  1.5110 -1.1520 -1.7397
18713TIP3   OH277629   2.726   0.042  13.881 -0.2183  0.0368 -0.1092
18713TIP3    H177630   2.818   0.016  13.871 -0.1729 -0.4003  1.2807
18713TIP3    H277631   2.678  -0.040  13.875 -0.4863  0.2043 -0.2731
18714TIP3   OH277632   1.271   3.653  16.899 -0.0976 -0.8595  0.5150
18714TIP3    H177633   1.207   3.585  16.924 -1.3420 -0.4222 -1.2604
18714TIP3    H277634   1.300   3.627  16.811  0.5446  0.1160  0.4239
18715TIP3   OH277635   3.246   3.631  11.691  0.3349  0.3825 -0.0703
18715TIP3    H177636   3.238   3.634  11.595  0.2357  0.2059 -0.0682
18715TIP3    H277637   3.338   3.613  11.707  0.5479  1.3992 -0.1126
18716TIP3   OH277638   2.197   1.373  13.018 -0.7103 -0.0951  0.0694
18716TIP3    H177639   2.126   1.314  13.046  1.1475 -2.0605  0.9097
18716TIP3    H277640   2.247   1.322  12.955  0.1582  1.1442 -0.2782
18717TIP3   OH277641   3.935   3.043   0.236 -0.6171 -0.1275 -0.2572
18717TIP3    H177642   3.917   2.967   0.291  2.2536  0.3112  1.4748
18717TIP3    H277643   3.965   3.006   0.153 -1.4437 -0.8460 -0.2437
18718TIP3   OH277644   4.462   4.508  12.541  1.1284 -0.3014  0.5270
18718TIP3    H177645   4.464   4.466  12.455  0.8139  0.6544  0.0360
18718TIP3    H277646   4.459   4.602  12.521 -2.3948 -0.0775  1.4703
18719TIP3   OH277647   0.955   1.817   4.461  0.1709  0.1457  0.2235
18719TIP3    H177648   1.007   1.884   4.416  1.3631  0.6065  2.1445
18719TIP3    H277649   0.972   1.736   4.412 -1.2091  1.1550 -2.0611
18720TIP3   OH277650   1.367   1.688   4.544  0.2132 -0.0590 -0.0169
18720TIP3    H177651   1.358   1.721   4.455 -0.8248  0.5737  0.3013
18720TIP3    H277652   1.370   1.767   4.599  1.0188 -0.4350  0.5043
18721TIP3   OH277653   6.455   5.873   5.951  0.2135 -0.0679 -0.4227
18721TIP3    H177654   6.479   5.836   5.866 -0.6177 -0.6740 -0.3999
18721TIP3    H277655   6.528   5.850   6.009 -0.5196 -2.1745 -0.2715
18722TIP3   OH277656   1.006   0.195  15.001  0.0776 -0.1409  0.0594
18722TIP3    H177657   1.079   0.201  15.062 -0.4363 -0.8199  0.7682
18722TIP3    H277658   0.980   0.286  14.984  1.4183  0.1368 -0.6415
18723TIP3   OH277659   4.807   4.245   4.858 -0.0265 -0.3643 -0.2675
18723TIP3    H177660   4.722   4.266   4.821  0.3131 -0.4198 -1.1100
18723TIP3    H277661   4.853   4.329   4.862  0.2261 -0.4725 -0.7475
18724TIP3   OH277662   1.384   3.530  15.205 -0.5011 -0.6345 -0.3741
18724TIP3    H177663   1.298   3.500  15.176 -0.5527 -2.2182  1.2322
18724TIP3    H277664   1.366   3.612  15.252 -1.2816 -1.3594  0.6446
18725TIP3   OH277665   5.511   4.433  14.137  0.3643  0.0038 -0.0515
18725TIP3    H177666   5.426   4.390  14.127  0.4187  0.0375 -0.7345
18725TIP3    H277667   5.499   4.495  14.208 -0.2292  0.1070 -0.2371
18726TIP3   OH277668   1.331   4.157  16.342  0.0019  0.3041  0.5335
18726TIP3    H177669   1.388   4.161  16.266  0.4760  0.2740  0.8794
18726TIP3    H277670   1.375   4.210  16.408 -0.7189  0.8566  0.5898
18727TIP3   OH277671   6.629   4.132  13.988  0.0588 -0.1424  0.0979
18727TIP3    H177672   6.674   4.106  13.908  0.0341 -1.2086  0.4201
18727TIP3    H277673   6.696   4.177  14.040 -0.1646  1.4586 -0.9086
18728TIP3   OH277674   3.501   4.181  17.520 -0.3468  0.7597  0.2451
18728TIP3    H177675   3.565   4.208  17.453 -0.9837 -0.1451 -0.7775
18728TIP3    H277676   3.463   4.262  17.551 -1.2851  1.1727 -1.7840
18729TIP3   OH277677   3.022   5.247  12.996 -0.3821 -0.2186  0.5262
18729TIP3    H177678   3.040   5.164  12.952 -0.2137  0.6591 -1.1687
18729TIP3    H277679   2.932   5.239  13.027 -0.8638 -0.5624 -0.8581
18730TIP3   OH277680   1.451   3.884  12.166 -0.2701 -0.1270 -0.8240
18730TIP3    H177681   1.439   3.831  12.245  0.1226  1.1119  0.0928
18730TIP3    H277682   1.374   3.941  12.163 -0.2896 -0.1757 -1.3434
18731TIP3   OH277683   2.759   3.156  15.923 -0.4872 -0.2087  0.1865
18731TIP3    H177684   2.844   3.193  15.946  0.6084 -1.7843 -1.1163
18731TIP3    H277685   2.752   3.168  15.828 -0.4532 -2.4770 -0.1596
18732TIP3   OH277686   3.085   2.460  14.568 -0.6520  0.6699  0.5042
18732TIP3    H177687   3.134   2.465  14.485 -0.3817 -0.8116  0.5588
18732TIP3    H277688   3.000   2.426  14.543 -0.3885 -0.3016  0.8957
18733TIP3   OH277689   1.984   4.147  14.374 -0.3767  0.0098 -0.1898
18733TIP3    H177690   1.890   4.140  14.390 -0.2201  0.5119  1.1174
18733TIP3    H277691   2.023   4.139  14.461  0.7631  0.3220 -0.6581
18734TIP3   OH277692   5.966   4.530  14.366 -0.0206  0.0271 -0.1531
18734TIP3    H177693   6.054   4.494  14.366  0.4809  1.1425  1.2689
18734TIP3    H277694   5.914   4.468  14.314  0.9001 -2.4306  1.6540
18735TIP3   OH277695   0.414   0.160  16.667 -0.2136 -0.5847 -0.5252
18735TIP3    H177696   0.437   0.091  16.605 -1.1806 -2.7046  1.2878
18735TIP3    H277697   0.454   0.132  16.750 -0.7203  1.0154  0.3070
18736TIP3   OH277698   1.318   2.470  16.377  0.0514  1.0583  0.4537
18736TIP3    H177699   1.231   2.508  16.373 -0.3428  0.1162 -0.4321
18736TIP3    H277700   1.304   2.381  16.412  0.9018  1.5423  2.1664
18737TIP3   OH277701   2.508   0.573   1.272 -0.3172 -0.1506  0.0126
18737TIP3    H177702   2.600   0.557   1.297 -0.3408  1.5342  1.3765
18737TIP3    H277703   2.457   0.523   1.336 -0.3434  1.0939  0.9974
18738TIP3   OH277704   2.759   3.331  16.217 -0.2059  0.0484  0.0017
18738TIP3    H177705   2.846   3.304  16.247  0.1878 -0.7608 -1.7540
18738TIP3    H277706   2.775   3.409  16.163 -0.2676 -1.2287 -1.9601
18739TIP3   OH277707   0.333   6.717   0.065 -0.4774  0.1889  0.7654
18739TIP3    H177708   0.351   6.625   0.044 -1.6441  0.2116 -0.4813
18739TIP3    H277709   0.324   6.760  -0.020  2.0466  1.9239  1.2757
18740TIP3   OH277710   1.475   5.435  12.473 -0.5284  0.2172 -0.5349
18740TIP3    H177711   1.545   5.499  12.487 -1.1736  1.2945 -1.9024
18740TIP3    H277712   1.413   5.480  12.415 -2.6797 -0.4455  1.0880
18741TIP3   OH277713   4.256   1.475   3.338  0.3343  0.0762  0.0732
18741TIP3    H177714   4.205   1.547   3.377  0.9426  1.1627 -1.0467
18741TIP3    H277715   4.347   1.499   3.354  0.5382 -0.6359 -0.0028
18742TIP3   OH277716   0.284   5.555   4.809 -0.3263 -0.3410  0.5258
18742TIP3    H177717   0.308   5.599   4.727  0.2364 -0.3843  0.6599
18742TIP3    H277718   0.189   5.549   4.806 -0.2715 -1.2369 -0.5953
18743TIP3   OH277719   4.555   5.201   0.884  0.5407  0.3413 -0.3475
18743TIP3    H177720   4.470   5.213   0.927  0.8716 -1.3976  0.8597
18743TIP3    H277721   4.604   5.281   0.906  0.1711  0.1566  1.2885
18744TIP3   OH277722   1.958   2.587  11.200 -0.3548 -0.1412  0.0998
18744TIP3    H177723   1.946   2.493  11.190 -2.8977 -0.0111  1.2162
18744TIP3    H277724   2.026   2.597  11.266  1.6829 -1.0981 -1.7282
18745TIP3   OH277725   6.130   4.058  14.739  0.0224 -0.1338  0.0685
18745TIP3    H177726   6.113   4.032  14.648  1.7793 -0.8017 -0.1100
18745TIP3    H277727   6.071   4.003  14.790  0.8817 -1.7202 -0.5519
18746TIP3   OH277728   6.635   1.302  14.076  0.2993  0.2319  0.1102
18746TIP3    H177729   6.606   1.393  14.074  0.5082  0.3088  0.4774
18746TIP3    H277730   6.589   1.260  14.003  0.1445  0.6126 -0.0116
18747TIP3   OH277731   5.828   1.918  13.039 -0.2034  0.2542 -0.4480
18747TIP3    H177732   5.782   1.897  13.120 -0.3624 -0.1084 -0.6277
18747TIP3    H277733   5.759   1.922  12.972  0.1967 -2.7977 -1.2195
18748TIP3   OH277734   5.361   4.145   3.863 -0.0603  0.2660 -0.4703
18748TIP3    H177735   5.362   4.237   3.889  1.7172  0.7166 -1.9097
18748TIP3    H277736   5.359   4.147   3.767  2.1066 -1.0930 -0.6221
18749TIP3   OH277737   3.946   2.808  16.734  0.1222 -0.3342  0.4552
18749TIP3    H177738   3.986   2.785  16.818  2.7377 -0.1024 -0.6211
18749TIP3    H277739   3.943   2.726  16.685 -1.8423 -0.5645  0.8613
18750TIP3   OH277740   5.690   1.967   6.049  0.5490 -0.2156 -0.1750
18750TIP3    H177741   5.662   1.960   6.141  0.2916  0.8975 -0.1543
18750TIP3    H277742   5.678   1.879   6.014  2.1372 -1.0684  1.2688
18751TIP3   OH277743   6.591   3.000   0.251  0.4433 -0.2506  0.2678
18751TIP3    H177744   6.588   2.933   0.182 -0.8259  0.0168  0.0387
18751TIP3    H277745   6.537   2.964   0.321 -0.4066  0.6045  0.0661
18752TIP3   OH277746   4.089   5.306   3.226  0.2263 -0.3480  0.1758
18752TIP3    H177747   4.147   5.310   3.302 -0.7073  2.3857  0.8698
18752TIP3    H277748   4.124   5.372   3.166  0.3866 -1.7924 -1.3863
18753TIP3   OH277749   3.460   2.119   1.759  0.0808  0.4837  0.4993
18753TIP3    H177750   3.524   2.048   1.766 -0.8018 -0.2177  1.6611
18753TIP3    H277751   3.399   2.089   1.691 -0.5525 -0.0921  1.3118
18754TIP3   OH277752   5.465   0.985  16.327  0.2914 -0.5357 -0.1476
18754TIP3    H177753   5.561   0.981  16.323  0.3571  0.7899 -0.4615
18754TIP3    H277754   5.445   1.079  16.324 -0.9433 -0.6647  2.1299
18755TIP3   OH277755   2.704   6.447  13.182 -0.1306 -0.2473  0.4302
18755TIP3    H177756   2.757   6.378  13.221  1.3588  0.3553 -0.4391
18755TIP3    H277757   2.762   6.490  13.120 -1.5273  0.7267 -0.2669
18756TIP3   OH277758   5.545   2.044  15.454  0.0175 -0.9179  0.5834
18756TIP3    H177759   5.596   2.049  15.536  3.1101  0.8343 -1.2361
18756TIP3    H277760   5.493   2.124  15.454  2.2415  0.6248 -0.3572
18757TIP3   OH277761   6.595   1.689  16.264 -0.4451  0.7392  0.5275
18757TIP3    H177762   6.512   1.653  16.295 -0.7061  2.0033  1.4129
18757TIP3    H277763   6.623   1.630  16.194 -0.4986 -1.5333  2.2995
18758TIP3   OH277764   5.716   4.105  16.299  0.1157 -0.1558  0.4209
18758TIP3    H177765   5.627   4.073  16.286  0.5257 -1.6218  0.9579
18758TIP3    H277766   5.753   4.112  16.211 -0.0350 -1.1062  0.2661
18759TIP3   OH277767   4.084   4.671  12.927  0.1897 -0.5071  0.3587
18759TIP3    H177768   4.040   4.640  13.006 -0.1981 -2.1727 -0.4646
18759TIP3    H277769   4.013   4.702  12.870  0.2409 -1.3493 -0.1841
18760TIP3   OH277770   1.064   4.603   1.037 -0.2004  0.2405  0.0302
18760TIP3    H177771   0.990   4.579   0.980 -0.1317  0.5697 -0.2027
18760TIP3    H277772   1.132   4.539   1.015  0.0089  0.6784 -0.6423
18761TIP3   OH277773   0.471   4.941  14.334 -0.7370  0.0371 -0.7510
18761TIP3    H177774   0.563   4.954  14.310 -0.6291 -0.0668 -0.4083
18761TIP3    H277775   0.461   4.989  14.416 -0.2278 -2.2222  0.7347
18762TIP3   OH277776   3.872   1.050   3.448  0.0536  0.2612 -0.0153
18762TIP3    H177777   3.938   1.093   3.502  0.3967 -1.0671  0.6744
18762TIP3    H277778   3.904   0.960   3.439 -0.4971  0.1943 -1.6208
18763TIP3   OH277779   6.541   6.318   2.237 -0.6771 -0.4689  0.2149
18763TIP3    H177780   6.610   6.367   2.191  0.0793  0.0011  1.7759
18763TIP3    H277781   6.460   6.365   2.217 -0.0966  0.8838  0.8929
18764TIP3   OH277782   0.892   4.860  16.853  0.3111  0.0972 -1.0958
18764TIP3    H177783   0.937   4.845  16.936  0.9170  0.9403 -1.2609
18764TIP3    H277784   0.870   4.773  16.821 -2.0981 -0.2159  1.0997
18765TIP3   OH277785   1.594   2.006  17.148  0.0415 -0.4693 -0.4238
18765TIP3    H177786   1.540   1.930  17.124 -1.3368 -0.1433  1.4224
18765TIP3    H277787   1.610   1.996  17.242  0.0472  1.3689 -0.1809
18766TIP3   OH277788   0.352   5.290   4.520 -0.4234 -0.1544 -0.3069
18766TIP3    H177789   0.259   5.307   4.505 -0.6595  0.3829  1.4714
18766TIP3    H277790   0.363   5.196   4.506 -1.4451 -0.3888  0.3784
18767TIP3   OH277791   5.033   1.585  16.061 -0.0720  0.3435 -0.4734
18767TIP3    H177792   4.999   1.613  16.146  1.3154  0.8620 -0.0448
18767TIP3    H277793   5.121   1.553  16.081 -0.6269 -1.8735 -1.3670
18768TIP3   OH277794   2.883   2.076   2.020  0.5020 -0.4377  0.0981
18768TIP3    H177795   2.858   2.067   1.927  3.1938  0.5378 -0.8039
18768TIP3    H277796   2.938   1.999   2.037  1.9809  0.6092  0.1440
18769TIP3   OH277797   3.815   2.441  13.708  0.3832  0.3450 -0.0946
18769TIP3    H177798   3.855   2.442  13.622 -1.1134 -0.6121 -0.8556
18769TIP3    H277799   3.783   2.530  13.722 -0.6264  0.1669 -1.1736
18770TIP3   OH277800   0.689   2.646  11.822  0.0350 -0.0069 -0.2304
18770TIP3    H177801   0.762   2.688  11.778  0.9419 -0.5376  0.7220
18770TIP3    H277802   0.684   2.559  11.783  0.5979 -0.3445  0.4419
18771TIP3   OH277803   2.678   3.482   2.427  0.0183 -0.4162  0.0892
18771TIP3    H177804   2.739   3.408   2.418  1.3242  0.3489  1.9261
18771TIP3    H277805   2.591   3.442   2.424  0.6450 -1.7805 -0.7813
18772TIP3   OH277806   0.338   4.770  15.140  0.3327 -0.1772  0.0469
18772TIP3    H177807   0.361   4.761  15.233  1.8683  3.6829  0.2178
18772TIP3    H277808   0.243   4.763  15.138  0.3744 -2.1487  1.5653
18773TIP3   OH277809   5.167   4.068  13.300 -0.5635  0.5197 -0.1489
18773TIP3    H177810   5.210   4.055  13.215 -0.3369  1.0217 -0.1137
18773TIP3    H277811   5.203   4.150  13.333 -1.0063  0.5723  0.2185
18774TIP3   OH277812   5.130   0.339   2.352  0.4351  0.0084 -0.5023
18774TIP3    H177813   5.154   0.376   2.266  0.2786 -1.0852 -1.0276
18774TIP3    H277814   5.097   0.252   2.332 -2.7547  0.9118  0.3231
18775TIP3   OH277815   0.727   1.972  17.187  0.1466  0.2980  0.6475
18775TIP3    H177816   0.701   1.950  17.098  0.0862 -2.8973  1.3590
18775TIP3    H277817   0.801   2.031  17.176 -0.6903  1.0669 -1.4676
18776TIP3   OH277818   3.356   4.668   1.274 -0.5558 -0.2414 -0.4123
18776TIP3    H177819   3.427   4.732   1.275 -0.9997  0.2673  1.1929
18776TIP3    H277820   3.278   4.720   1.257 -0.6020 -0.7794 -2.0173
18777TIP3   OH277821   1.978   2.523   1.578  0.1071 -0.2640 -0.0398
18777TIP3    H177822   1.941   2.443   1.541 -0.4640  0.4625 -1.1018
18777TIP3    H277823   1.912   2.591   1.559  0.2801  0.3468  1.3968
18778TIP3   OH277824   4.269   2.964  13.823 -0.3453  0.1496 -0.2826
18778TIP3    H177825   4.345   3.019  13.805  1.8627 -1.9048  1.9936
18778TIP3    H277826   4.283   2.885  13.771 -1.1839 -0.0583 -0.2129
18779TIP3   OH277827   0.680   4.775   1.143  0.0796  0.0529 -0.1623
18779TIP3    H177828   0.632   4.743   1.066  2.2219 -2.6818 -0.4943
18779TIP3    H277829   0.724   4.854   1.112  2.8892 -2.2833 -2.7008
18780TIP3   OH277830   6.006   4.364  14.042  0.1049  0.0467 -0.6768
18780TIP3    H177831   5.948   4.438  14.057 -0.6886 -0.8283  0.8421
18780TIP3    H277832   6.094   4.402  14.042 -0.2415  0.9356  0.6495
18781TIP3   OH277833   0.537   0.894   0.307 -0.3199  0.1388  0.0563
18781TIP3    H177834   0.615   0.936   0.344 -0.3303  1.1203 -0.9684
18781TIP3    H277835   0.469   0.962   0.311 -0.9433 -0.4844  0.3119
18782TIP3   OH277836   3.734   1.301   2.967  0.2676  0.6205  0.0504
18782TIP3    H177837   3.789   1.227   2.994  1.4476  0.6263 -2.0550
18782TIP3    H277838   3.652   1.289   3.014  0.9978 -1.1357  0.9616
18783TIP3   OH277839   1.174   6.134  14.447  0.0855 -0.2425  0.7854
18783TIP3    H177840   1.183   6.220  14.490  0.2865 -0.3482  0.9579
18783TIP3    H277841   1.080   6.126  14.431  0.2613  0.9126 -1.1174
18784TIP3   OH277842   3.514   1.337   3.676  0.3450 -0.8028 -0.4102
18784TIP3    H177843   3.456   1.411   3.690  0.9414 -0.0104 -1.9227
18784TIP3    H277844   3.535   1.340   3.583  1.6398 -1.9381 -0.1879
18785TIP3   OH277845   1.193   1.056   6.342 -0.2987 -0.0875 -0.5026
18785TIP3    H177846   1.272   1.104   6.366  1.1721 -1.7124 -1.7644
18785TIP3    H277847   1.176   0.998   6.416 -0.2846  0.2583 -0.2326
18786TIP3   OH277848   3.757   3.516  12.127  0.7458 -0.4112  0.3158
18786TIP3    H177849   3.849   3.498  12.144  1.0263  2.3928  2.6919
18786TIP3    H277850   3.750   3.612  12.132 -2.1356 -0.4283 -0.9225
18787TIP3   OH277851   0.089   3.893  14.687 -0.2178 -0.0890  0.2424
18787TIP3    H177852   0.149   3.961  14.658 -0.6212 -0.7626 -2.5020
18787TIP3    H277853   0.009   3.939  14.711  0.5098  0.6057  1.3988
18788TIP3   OH277854   4.145   4.597  16.796 -0.2263  0.1162 -0.4140
18788TIP3    H177855   4.192   4.678  16.776 -0.6429  0.2312 -0.9335
18788TIP3    H277856   4.082   4.621  16.864  0.7287 -0.1274  0.5857
18789TIP3   OH277857   5.193   2.658  14.992  0.7968 -0.0588  0.3419
18789TIP3    H177858   5.138   2.662  15.070 -1.2123 -1.9081 -0.8342
18789TIP3    H277859   5.280   2.682  15.021 -0.4883  2.3921  2.4802
18790TIP3   OH277860   1.691   2.410  16.581 -0.0539  0.1476  0.1964
18790TIP3    H177861   1.771   2.454  16.610 -0.3025 -0.1607  1.4001
18790TIP3    H277862   1.696   2.323  16.620 -0.8768  0.0504  0.0985
18791TIP3   OH277863   2.512   2.908  16.748  0.1649  0.6561 -0.1222
18791TIP3    H177864   2.586   2.864  16.790 -0.7283 -1.8548 -0.9670
18791TIP3    H277865   2.444   2.912  16.816  0.5133  1.4746  0.1829
18792TIP3   OH277866   1.350   2.292   0.326  0.5677 -0.5068 -0.6187
18792TIP3    H177867   1.305   2.240   0.260  2.6637 -0.3439 -2.2876
18792TIP3    H277868   1.415   2.342   0.277  0.2151  1.9560  1.1987
18793TIP3   OH277869   4.904   2.064  17.520  0.5719 -0.2185 -0.5422
18793TIP3    H177870   4.957   2.108  17.453  0.5075 -0.9580 -1.0916
18793TIP3    H277871   4.936   2.100  17.603  0.6379  0.7316 -0.9631
18794TIP3   OH277872   1.955   1.026  12.144 -0.5161  0.1509  0.0366
18794TIP3    H177873   1.893   0.983  12.204 -1.7113 -1.0905 -1.9402
18794TIP3    H277874   1.901   1.090  12.096  0.4263  1.1863  0.3321
18795TIP3   OH277875   3.125   0.486   1.731  0.3533  0.3025 -0.2193
18795TIP3    H177876   3.141   0.528   1.816  1.8993  2.3484 -1.4375
18795TIP3    H277877   3.035   0.454   1.737  0.7335 -0.5019  2.5213
18796TIP3   OH277878   3.077   5.695   3.849 -0.4400  0.4143  0.4881
18796TIP3    H177879   3.169   5.672   3.865  0.1210  2.8484  1.0815
18796TIP3    H277880   3.074   5.721   3.758 -0.5225  0.4868  0.5121
18797TIP3   OH277881   4.836   5.665  13.314 -0.0890 -0.3471  0.1198
18797TIP3    H177882   4.748   5.656  13.350 -1.0634 -0.7931 -2.1934
18797TIP3    H277883   4.894   5.645  13.388 -1.8963 -0.0872  1.6950
18798TIP3   OH277884   0.307   3.478   5.171 -0.3066 -0.8035  0.0792
18798TIP3    H177885   0.387   3.528   5.183 -1.2726  0.4887  1.4615
18798TIP3    H277886   0.255   3.530   5.109 -1.0921 -0.3269  1.1077
18799TIP3   OH277887   0.187   4.533  13.077 -0.3854 -0.1160 -0.0808
18799TIP3    H177888   0.122   4.594  13.043 -0.4943 -0.5145 -0.6056
18799TIP3    H277889   0.262   4.543  13.018 -0.8620 -1.3715 -0.9476
18800TIP3   OH277890   5.058   3.263   2.512  0.0495  0.3669 -0.6774
18800TIP3    H177891   4.972   3.230   2.536  0.8493 -1.0242  0.4416
18800TIP3    H277892   5.113   3.246   2.588  1.1558  1.9356 -1.0626
18801TIP3   OH277893   6.398   3.452   1.686 -0.0786 -0.0833 -0.0369
18801TIP3    H177894   6.310   3.416   1.697 -0.3094  0.1320 -1.1031
18801TIP3    H277895   6.430   3.413   1.605  0.8645 -0.2551  0.4068
18802TIP3   OH277896   3.886   1.763   6.495 -0.0615 -0.0243  0.0513
18802TIP3    H177897   3.861   1.815   6.571  0.9778  1.8556 -0.8500
18802TIP3    H277898   3.838   1.803   6.422  0.1651 -0.8210 -0.5462
18803TIP3   OH277899   3.693   1.833  11.023  0.6684  0.0172  0.5186
18803TIP3    H177900   3.707   1.908  10.965 -0.2493 -0.4642 -0.3484
18803TIP3    H277901   3.614   1.854  11.072 -1.3382 -1.5439 -1.7874
18804TIP3   OH277902   6.570   6.571  14.046 -0.9334 -0.1653 -0.3573
18804TIP3    H177903   6.530   6.539  14.127 -0.8745  1.8909  0.5315
18804TIP3    H277904   6.663   6.580  14.067 -1.1950  2.2370  0.0453
18805TIP3   OH277905   2.557   1.687   6.303  0.2508  0.3468  0.7796
18805TIP3    H177906   2.549   1.757   6.238 -1.7397 -1.8105 -1.4919
18805TIP3    H277907   2.479   1.695   6.357 -0.3339 -0.5113  0.0726
18806TIP3   OH277908   5.459   1.638   0.822  0.1918 -0.3786  0.1404
18806TIP3    H177909   5.379   1.686   0.843  0.7913  0.7848 -0.1210
18806TIP3    H277910   5.434   1.577   0.752 -0.4542  0.0330  0.0091
18807TIP3   OH277911   0.291   3.299   6.112 -0.5826 -0.3316  0.3584
18807TIP3    H177912   0.228   3.371   6.119 -1.4019 -1.0061  0.0565
18807TIP3    H277913   0.327   3.290   6.201  0.1703  0.9852  0.2268
18808TIP3   OH277914   5.157   6.314   4.628 -0.3251 -0.2548  0.8872
18808TIP3    H177915   5.088   6.247   4.631 -1.4734  0.6997 -1.7190
18808TIP3    H277916   5.216   6.284   4.559  1.0535 -0.2628  2.0351
18809TIP3   OH277917   4.328   5.450  12.946  0.2975 -0.0642  0.0367
18809TIP3    H177918   4.342   5.378  12.884 -0.8906  0.4146 -0.8238
18809TIP3    H277919   4.376   5.524  12.907  1.1742 -0.2572  0.7112
18810TIP3   OH277920   2.503   3.673  14.144 -0.6164 -0.3081 -0.1425
18810TIP3    H177921   2.512   3.766  14.125 -2.6090 -0.3084 -1.3307
18810TIP3    H277922   2.562   3.631  14.080  0.0417  0.1031  0.1820
18811TIP3   OH277923   2.152   3.308  14.235 -0.0917  0.0713  0.2097
18811TIP3    H177924   2.234   3.329  14.280  0.2033 -1.0074  0.1884
18811TIP3    H277925   2.170   3.328  14.143  0.0035  0.2342  0.2612
18812TIP3   OH277926   1.549   6.312  12.491  0.0540  0.3541 -0.3518
18812TIP3    H177927   1.544   6.371  12.416 -0.0952  0.0616 -0.5754
18812TIP3    H277928   1.626   6.258  12.474  0.0334  0.3040 -0.2863
18813TIP3   OH277929   2.937   1.926  15.227 -0.4924  0.2478  0.5094
18813TIP3    H177930   2.987   1.904  15.148  1.3416  0.3309  1.5741
18813TIP3    H277931   2.911   2.017  15.214  0.2531  0.4288  0.2212
18814TIP3   OH277932   1.084   2.032   4.311  0.0023  0.2377  0.0893
18814TIP3    H177933   1.089   1.982   4.229 -0.8416 -1.2821  0.9077
18814TIP3    H277934   1.027   2.106   4.291 -0.2616 -0.1597 -0.6722
18815TIP3   OH277935   3.163   5.477   6.030 -0.6013 -0.0844 -0.6602
18815TIP3    H177936   3.251   5.490   5.993 -0.6180 -0.8644 -1.0004
18815TIP3    H277937   3.179   5.435   6.114 -0.6660 -0.9960 -1.0882
18816TIP3   OH277938   3.283   6.073   5.553  0.4999 -0.1143  0.4132
18816TIP3    H177939   3.357   6.066   5.614  1.0972  0.5005 -0.2252
18816TIP3    H277940   3.314   6.132   5.485 -0.6244  0.2435  0.1901
18817TIP3   OH277941   4.868   1.733  15.671 -0.0923 -0.4723 -0.2352
18817TIP3    H177942   4.906   1.684  15.598 -1.2368 -0.2050 -1.0257
18817TIP3    H277943   4.888   1.824  15.653 -0.2825 -0.4150 -0.1626
18818TIP3   OH277944   6.177   1.115  13.593  0.2390  0.1079  0.2668
18818TIP3    H177945   6.214   1.078  13.513 -0.1537  1.6629 -0.6813
18818TIP3    H277946   6.214   1.203  13.597 -1.6854  0.9491  0.4087
18819TIP3   OH277947   5.922   0.389  11.196  0.4379 -0.2724 -0.1804
18819TIP3    H177948   5.860   0.396  11.269  1.8919 -0.7241  1.1629
18819TIP3    H277949   5.991   0.452  11.217  1.2864 -0.9838 -0.7269
18820TIP3   OH277950   5.774   2.190  14.533 -0.4173 -0.3230  0.1124
18820TIP3    H177951   5.686   2.167  14.562 -0.4289 -0.2074  0.1698
18820TIP3    H277952   5.793   2.274  14.575 -0.3560 -0.2521 -0.0531
18821TIP3   OH277953   2.655   1.256   4.824  0.3926  0.4944  0.0148
18821TIP3    H177954   2.700   1.323   4.876 -0.8606  1.3659  0.0005
18821TIP3    H277955   2.724   1.220   4.768  1.4219  0.6504  1.1434
18822TIP3   OH277956   2.738   1.023   5.147  0.2827  0.1428 -0.8088
18822TIP3    H177957   2.678   0.981   5.085  0.4858 -1.2267 -0.1232
18822TIP3    H277958   2.822   1.024   5.102  0.0067  1.0273 -1.3304
18823TIP3   OH277959   0.784   4.146  14.743 -0.4828  0.1479  0.1502
18823TIP3    H177960   0.833   4.141  14.825  2.8896  0.2326 -1.6946
18823TIP3    H277961   0.783   4.056  14.709 -2.0469  0.0705  0.3103
18824TIP3   OH277962   2.659   2.149   6.671  0.1475  0.2220 -0.4051
18824TIP3    H177963   2.721   2.077   6.677 -0.4904 -0.2589  0.7949
18824TIP3    H277964   2.580   2.110   6.632 -0.3469  0.1565  0.6395
18825TIP3   OH277965   0.045   6.031  11.273 -0.1078 -0.0590 -0.2440
18825TIP3    H177966   0.057   6.063  11.184  2.0268  1.2804  0.4346
18825TIP3    H277967   0.055   5.936  11.266  0.0982  0.0325 -1.4273
18826TIP3   OH277968   4.165   3.933   2.019 -0.2125  0.0544 -0.5429
18826TIP3    H177969   4.155   3.973   2.105  0.4021  2.2516 -1.4082
18826TIP3    H277970   4.132   4.000   1.958 -0.1452 -1.2236 -2.0463
18827TIP3   OH277971   1.494   3.082  16.593  0.0909 -0.0524 -0.3742
18827TIP3    H177972   1.432   3.013  16.570  0.4727 -0.1061 -1.2656
18827TIP3    H277973   1.562   3.037  16.643 -0.4679 -0.0291  0.4253
18828TIP3   OH277974   3.413   3.360  14.708  0.2025  0.1862  0.5121
18828TIP3    H177975   3.415   3.292  14.641 -0.1565 -0.0487  0.7350
18828TIP3    H277976   3.441   3.440  14.663  0.3578 -0.0529  0.1846
18829TIP3   OH277977   0.941   6.263   2.138  0.3074 -0.1245  0.2729
18829TIP3    H177978   0.868   6.292   2.083 -0.9660 -2.3785  0.6708
18829TIP3    H277979   1.017   6.260   2.080 -0.3266  0.4709 -0.5949
18830TIP3   OH277980   0.436   1.596  16.089  0.5719 -0.4769  0.0654
18830TIP3    H177981   0.380   1.664  16.127  0.9925 -0.8815  1.4568
18830TIP3    H277982   0.394   1.576  16.005  0.8525  2.0112 -0.7604
18831TIP3   OH277983   5.881   4.109  13.692  0.1791  0.6467  0.0753
18831TIP3    H177984   5.872   4.039  13.757  0.9483 -0.2432 -0.7340
18831TIP3    H277985   5.964   4.090  13.649  0.1637  1.8029 -0.4914
18832TIP3   OH277986   0.881   1.125  16.321  0.4734  0.0442  0.3624
18832TIP3    H177987   0.811   1.122  16.255  0.6238 -1.6205  0.2161
18832TIP3    H277988   0.957   1.160  16.274  0.0778  0.6761  0.1826
18833TIP3   OH277989   3.281   6.583  14.499 -0.0218 -0.1006 -0.5164
18833TIP3    H177990   3.347   6.539  14.445  0.0682  0.4551 -0.8690
18833TIP3    H277991   3.231   6.636  14.438 -0.8833 -0.6028 -0.2693
18834TIP3   OH277992   4.610   6.469   4.267  0.0882 -0.2307  0.2164
18834TIP3    H177993   4.695   6.491   4.228  0.4050  0.6404  1.3083
18834TIP3    H277994   4.625   6.387   4.313  1.1799  1.1880  2.6458
18835TIP3   OH277995   6.759   2.644  14.007  0.4341  0.5215  0.0509
18835TIP3    H177996   6.718   2.566  14.043 -0.8029  1.0875 -0.0825
18835TIP3    H277997   6.751   2.710  14.075 -0.3525  1.1010 -0.5807
18836TIP3   OH277998   2.507   0.637   5.569 -0.0091  0.0889 -0.0507
18836TIP3    H177999   2.439   0.612   5.507  0.0881 -0.8116  0.1984
18836TIP3    H278000   2.586   0.595   5.537 -0.0569 -0.7777  0.9332
18837TIP3   OH278001   4.185   5.673   5.791 -0.2881 -0.1976  0.2298
18837TIP3    H178002   4.216   5.687   5.702 -2.1333  1.2978 -0.2411
18837TIP3    H278003   4.157   5.582   5.793  1.5134 -0.8066 -0.1003
18838TIP3   OH278004   0.375   4.965   0.137  0.2078  0.1655 -0.5300
18838TIP3    H178005   0.305   4.901   0.127 -2.0967  2.7208 -2.5151
18838TIP3    H278006   0.402   4.957   0.228  0.0213 -3.4429 -0.6502
18839TIP3   OH278007   1.150   3.683   6.100  0.2601 -0.3830  0.0903
18839TIP3    H178008   1.069   3.714   6.140 -0.1939 -0.8864 -0.4295
18839TIP3    H278009   1.186   3.621   6.163  0.4827  0.1679  0.5218
18840TIP3   OH278010   4.512   4.103   4.839 -0.0860  0.1630 -0.0395
18840TIP3    H178011   4.514   4.007   4.841  1.1734  0.1284 -1.2604
18840TIP3    H278012   4.446   4.123   4.772 -0.5177  0.1774  0.3791
18841TIP3   OH278013   1.726   5.380   3.424  0.4039 -0.0055  0.4445
18841TIP3    H178014   1.654   5.353   3.367  0.7748  0.9057 -0.4890
18841TIP3    H278015   1.686   5.390   3.510 -0.6589  0.7927 -0.1278
18842TIP3   OH278016   0.682   4.035   1.947 -0.1479  0.1564  0.4756
18842TIP3    H178017   0.645   4.015   2.033 -0.0841 -0.1213  0.4380
18842TIP3    H278018   0.661   3.959   1.893 -1.0331  0.7283 -0.0224
18843TIP3   OH278019   4.932   4.564  13.763  0.0626  0.1650  0.0991
18843TIP3    H178020   5.000   4.506  13.729  0.7091  1.5357 -0.9989
18843TIP3    H278021   4.906   4.618  13.689 -3.1367 -1.0924  0.1244
18844TIP3   OH278022   6.637   2.481   0.060 -0.0137 -0.7333  0.4034
18844TIP3    H178023   6.662   2.398   0.099  0.1177 -0.1905  1.5153
18844TIP3    H278024   6.544   2.471   0.041 -0.0698 -1.0328  0.8173
18845TIP3   OH278025   6.087   0.341  15.592 -0.1074 -0.4085  0.2979
18845TIP3    H178026   6.007   0.325  15.541 -0.5071  0.4919  0.6185
18845TIP3    H278027   6.122   0.423  15.556  0.2538 -0.4023  0.6625
18846TIP3   OH278028   3.841   2.708   3.675 -0.2580 -0.3231 -0.4196
18846TIP3    H178029   3.750   2.722   3.649 -0.0638  0.5854 -0.6705
18846TIP3    H278030   3.836   2.672   3.763 -0.8508  2.5142  0.8473
18847TIP3   OH278031   2.161   1.674  15.933 -0.3088  0.0507  0.0619
18847TIP3    H178032   2.254   1.664  15.912 -0.8101 -0.6700 -2.1380
18847TIP3    H278033   2.142   1.600  15.990  0.3081 -0.2763 -0.1409
18848TIP3   OH278034   3.561   0.942   3.469  0.0737  0.0416 -0.1451
18848TIP3    H178035   3.652   0.971   3.457  0.1177 -0.1000 -0.1501
18848TIP3    H278036   3.532   0.920   3.380 -0.0176  0.2396 -0.1656
18849TIP3   OH278037   1.308   2.290  17.128 -0.4762  0.8824  0.2274
18849TIP3    H178038   1.277   2.303  17.039 -1.5111 -0.3070  0.3715
18849TIP3    H278039   1.246   2.339  17.183 -0.5553  0.6349  0.3610
18850TIP3   OH278040   3.075   0.575  11.509 -0.4749  0.2931 -0.0644
18850TIP3    H178041   3.074   0.627  11.590 -0.3237 -0.3930  0.3911
18850TIP3    H278042   3.159   0.597  11.468  1.5012 -2.4366  2.0761
18851TIP3   OH278043   1.097   4.177   4.176 -0.0790 -0.1436 -0.6833
18851TIP3    H178044   1.152   4.245   4.214  0.2428 -0.6859 -0.1530
18851TIP3    H278045   1.039   4.223   4.115  0.0588  0.6102 -0.2517
18852TIP3   OH278046   1.508   3.715  16.314  0.3070  0.2630  0.1856
18852TIP3    H178047   1.431   3.709  16.370  0.1818  0.3007  0.0185
18852TIP3    H278048   1.486   3.663  16.236  0.3583  0.4663  0.0336
18853TIP3   OH278049   5.758   6.672  17.403 -0.2273  0.1837 -0.0849
18853TIP3    H178050   5.774   6.759  17.439 -0.8980 -0.2424  1.3272
18853TIP3    H278051   5.674   6.645  17.442 -0.6490 -0.5966 -1.4671
18854TIP3   OH278052   0.991   4.966  10.638 -0.6649 -0.2787  0.4514
18854TIP3    H178053   0.934   5.018  10.581 -0.4990  0.6854  1.1395
18854TIP3    H278054   1.014   5.026  10.709  1.5114 -0.5124 -0.0078
18855TIP3   OH278055   3.414   1.636  17.282  0.1968  0.2759 -0.2154
18855TIP3    H178056   3.437   1.715  17.234  4.4862 -0.6602 -0.1361
18855TIP3    H278057   3.450   1.649  17.369  0.1490 -1.3738  0.0953
18856TIP3   OH278058   1.134   5.778   6.037 -0.5813 -0.2505  0.8409
18856TIP3    H178059   1.065   5.769   6.103 -3.9483 -2.7128 -2.5786
18856TIP3    H278060   1.163   5.688   6.021  0.7885  0.3729 -0.4033
18857TIP3   OH278061   4.424   6.344   0.868  0.3347 -0.0002 -0.4968
18857TIP3    H178062   4.492   6.366   0.804  0.5057 -0.6519 -0.5427
18857TIP3    H278063   4.470   6.340   0.952  0.0410  1.2603 -0.2443
18858TIP3   OH278064   5.799   0.475   5.039  0.0312 -0.8940  0.0478
18858TIP3    H178065   5.795   0.408   4.970  2.8149 -1.0709 -0.0752
18858TIP3    H278066   5.810   0.558   4.991 -1.2627 -0.5906  0.2458
18859TIP3   OH278067   5.760   0.622  16.675  0.4857  0.1505  0.1883
18859TIP3    H178068   5.716   0.585  16.751 -0.1738  0.5363 -0.0028
18859TIP3    H278069   5.728   0.571  16.600 -0.5520  1.1855 -0.0955
18860TIP3   OH278070   4.189   0.075   0.221  0.2326 -0.0497  0.0772
18860TIP3    H178071   4.195   0.169   0.204 -0.6547 -0.3747 -2.3510
18860TIP3    H278072   4.098   0.061   0.246  0.2369 -0.3276 -0.0576
18861TIP3   OH278073   2.693   0.945   1.903 -0.3422  0.1739  0.3190
18861TIP3    H178074   2.765   0.887   1.879  0.3188  1.6355 -1.4641
18861TIP3    H278075   2.615   0.889   1.903  0.5237 -1.0559  0.4155
18862TIP3   OH278076   2.973   2.847   2.789 -0.1584  0.1825  0.3406
18862TIP3    H178077   2.970   2.764   2.742 -1.2665  0.0577  0.5974
18862TIP3    H278078   2.917   2.906   2.738 -2.2534 -0.2543  1.9855
18863TIP3   OH278079   2.233   2.169   3.133 -0.1888 -0.1044 -0.4172
18863TIP3    H178080   2.293   2.200   3.065  2.2163  0.1657  1.6852
18863TIP3    H278081   2.182   2.246   3.156 -0.7183 -0.0889 -1.5849
18864TIP3   OH278082   5.587   4.919   1.500 -0.1696 -0.2467 -0.2537
18864TIP3    H178083   5.543   4.958   1.576  0.6449 -0.9353  0.6027
18864TIP3    H278084   5.555   4.829   1.498  0.7969 -0.6108  0.0824
18865TIP3   OH278085   3.810   3.829   5.874  0.1272 -0.2070 -0.2194
18865TIP3    H178086   3.878   3.763   5.889 -0.7270 -0.8357  1.1332
18865TIP3    H278087   3.849   3.911   5.907  0.3940 -0.4724  0.1324
18866TIP3   OH278088   5.157   6.435  12.994  0.1913 -0.3892 -0.1837
18866TIP3    H178089   5.252   6.426  12.992  0.2284  0.0656 -0.5198
18866TIP3    H278090   5.129   6.370  13.058  0.6204 -1.3557 -0.9592
18867TIP3   OH278091   6.228   0.858   0.138  0.3437  0.1612  0.2750
18867TIP3    H178092   6.302   0.854   0.199  0.5796  1.0929  0.0609
18867TIP3    H278093   6.157   0.898   0.189  0.0121 -0.5986  0.4354
18868TIP3   OH278094   5.361   4.295  16.310  0.3348 -0.0179 -0.0400
18868TIP3    H178095   5.362   4.203  16.286 -1.2351  0.5261 -2.5498
18868TIP3    H278096   5.453   4.321  16.307  0.8653 -1.5582  1.2479
18869TIP3   OH278097   3.150   3.880  16.777  0.2677 -0.0031 -0.4724
18869TIP3    H178098   3.065   3.916  16.752  0.8289  0.9442 -1.0954
18869TIP3    H278099   3.178   3.830  16.700 -0.0225 -0.8856 -0.0131
18870TIP3   OH278100   6.164   4.979  11.944  0.7186 -0.2472  0.0819
18870TIP3    H178101   6.100   4.977  11.873 -1.1311  1.5063  1.5970
18870TIP3    H278102   6.155   4.894  11.988 -1.9486  0.5865  1.3324
18871TIP3   OH278103   5.047   5.559   5.123 -0.6545  0.2833  0.0662
18871TIP3    H178104   5.002   5.513   5.052  0.3325  1.6158 -1.5003
18871TIP3    H278105   5.060   5.648   5.089 -0.8498  1.2143  2.2560
18872TIP3   OH278106   5.686   4.274   1.241 -0.2283  0.3330  0.1842
18872TIP3    H178107   5.699   4.354   1.291  1.8886 -0.9227  1.8197
18872TIP3    H278108   5.767   4.263   1.191  0.1458 -1.4576  1.0863
18873TIP3   OH278109   6.314   0.193   6.230 -0.0558 -0.2996 -0.4578
18873TIP3    H178110   6.264   0.208   6.310 -2.4452 -1.3719 -1.6608
18873TIP3    H278111   6.379   0.263   6.229 -2.0641  1.6985  0.8027
18874TIP3   OH278112   5.213   0.535  12.623  0.2652  0.0209 -0.1947
18874TIP3    H178113   5.287   0.495  12.577  0.0301  1.1322 -1.6239
18874TIP3    H278114   5.205   0.485  12.704 -0.1504 -2.9408 -1.9154
18875TIP3   OH278115   5.730   6.486   0.933  0.4273  0.0642 -0.5725
18875TIP3    H178116   5.652   6.454   0.888  0.2820 -0.2992 -0.0617
18875TIP3    H278117   5.800   6.475   0.868  0.1717 -0.1943 -0.8107
18876TIP3   OH278118   6.635   6.482  12.341 -0.3881  0.0663  0.9648
18876TIP3    H178119   6.728   6.457  12.345 -0.0427  1.3816  1.6376
18876TIP3    H278120   6.622   6.539  12.417 -2.2068 -1.5155  1.9222
18877TIP3   OH278121   2.605   5.539  12.553  0.0424  0.0982 -0.1403
18877TIP3    H178122   2.664   5.612  12.575 -1.1427  1.1584 -0.3852
18877TIP3    H278123   2.653   5.461  12.581  0.5505  1.0768  1.9110
18878TIP3   OH278124   3.147   2.445   1.027  0.0463 -0.3009 -0.1552
18878TIP3    H178125   3.188   2.471   1.110 -0.8424  0.5802  0.0305
18878TIP3    H278126   3.055   2.432   1.050 -0.9703  3.2778 -1.6007
18879TIP3   OH278127   6.713   0.229   1.502  0.7013  0.3360  0.3632
18879TIP3    H178128   6.704   0.289   1.576  0.0526 -0.0162  0.5801
18879TIP3    H278129   6.733   0.144   1.542  1.1955  0.3116  0.0806
18880TIP3   OH278130   6.665   2.863   1.026 -0.4052 -0.5850 -0.2630
18880TIP3    H178131   6.693   2.952   1.046  1.1137 -1.4085  1.5628
18880TIP3    H278132   6.597   2.844   1.091 -0.6059 -0.8259 -0.5396
18881TIP3   OH278133   4.881   0.628   4.787  0.8810  0.1835  0.0105
18881TIP3    H178134   4.912   0.541   4.761  1.1965  0.1566  0.4709
18881TIP3    H278135   4.881   0.626   4.882  1.9689  1.0606  0.0471
18882TIP3   OH278136   0.514   5.324   4.294 -0.0096 -0.8585  0.3215
18882TIP3    H178137   0.444   5.344   4.357 -1.5105  0.3720 -1.6321
18882TIP3    H278138   0.505   5.230   4.278 -0.7741 -0.8438  0.6194
18883TIP3   OH278139   4.793   2.106   5.655  0.4372  0.1041 -0.0740
18883TIP3    H178140   4.794   2.201   5.645  0.3770  0.1522  0.3576
18883TIP3    H278141   4.701   2.083   5.660  0.4192 -0.0884 -1.1670
18884TIP3   OH278142   1.888   5.556  13.529  0.1354  0.5311  0.2171
18884TIP3    H178143   1.904   5.526  13.440 -1.0081 -0.7214  0.4037
18884TIP3    H278144   1.970   5.538  13.575 -0.1492 -1.4282  0.0555
18885TIP3   OH278145   2.971   5.609   2.771 -0.5222  0.2647 -0.6187
18885TIP3    H178146   3.058   5.570   2.766 -2.0122 -3.8458  1.0953
18885TIP3    H278147   2.980   5.683   2.831  2.1803  1.8278 -2.6991
18886TIP3   OH278148   5.372   2.643  13.095  0.0977  0.0273 -0.1608
18886TIP3    H178149   5.279   2.643  13.073  0.1300  1.6795 -0.3998
18886TIP3    H278150   5.388   2.728  13.135  1.4358 -0.3730  0.2135
18887TIP3   OH278151   4.303   0.586  13.943  0.8208 -0.3972 -0.4615
18887TIP3    H178152   4.279   0.659  14.000  0.3192 -1.7233  1.1148
18887TIP3    H278153   4.398   0.581  13.948  0.7476 -0.9281  0.8878
18888TIP3   OH278154   5.916   1.688   3.448 -0.3974 -0.1571  0.4579
18888TIP3    H178155   6.001   1.730   3.436 -0.9326  0.5980 -0.9844
18888TIP3    H278156   5.911   1.623   3.377 -1.8301  1.2717 -0.8551
18889TIP3   OH278157   3.882   2.938  13.020 -0.0899  0.3276  0.1567
18889TIP3    H178158   3.892   2.974  13.108 -0.4450  2.5604 -0.6283
18889TIP3    H278159   3.845   3.011  12.969  3.5576  0.4707 -2.7210
18890TIP3   OH278160   2.818   0.311  14.623  0.3865  0.0642  0.6358
18890TIP3    H178161   2.810   0.313  14.718 -1.7711 -0.2758  0.5060
18890TIP3    H278162   2.802   0.402  14.596 -1.1653 -0.2249  0.5013
18891TIP3   OH278163   4.205   0.133  11.564  0.5395  0.1498  0.5289
18891TIP3    H178164   4.267   0.138  11.490 -0.0545 -0.0445  0.0077
18891TIP3    H278165   4.206   0.041  11.589 -0.0668  0.0074  0.0516
18892TIP3   OH278166   1.466   3.721  11.919  0.2935  0.0649 -0.2344
18892TIP3    H178167   1.470   3.719  11.824  1.4962 -0.1990 -0.1956
18892TIP3    H278168   1.439   3.810  11.940  0.0044  0.1192 -0.8143
18893TIP3   OH278169   0.735   1.543  14.031  0.3323  0.2610  0.0243
18893TIP3    H178170   0.645   1.512  14.038  0.4321 -0.5138 -1.6198
18893TIP3    H278171   0.782   1.472  13.987  1.6188  0.8884  0.3337
18894TIP3   OH278172   2.493   2.144   2.358  0.3195 -0.1151  0.0467
18894TIP3    H178173   2.522   2.233   2.338  0.3574 -0.5250 -1.9191
18894TIP3    H278174   2.397   2.148   2.354  0.3221 -0.1721 -0.0660
18895TIP3   OH278175   0.697   0.740   5.060  0.0346  0.5802 -0.3973
18895TIP3    H178176   0.677   0.831   5.038  0.4379  0.4786 -1.2424
18895TIP3    H278177   0.751   0.744   5.138  0.5374  1.1037 -0.7687
18896TIP3   OH278178   1.722   1.451  16.561  0.6981 -0.7511 -0.0647
18896TIP3    H178179   1.765   1.371  16.592 -0.8509 -1.4629  0.3321
18896TIP3    H278180   1.658   1.472  16.629 -0.4639 -0.4473 -1.2017
18897TIP3   OH278181   0.881   2.159   3.336 -0.5154 -0.5846  0.3238
18897TIP3    H178182   0.877   2.229   3.271  1.5441 -0.7359 -0.0489
18897TIP3    H278183   0.918   2.085   3.288 -0.2588 -1.1253  1.3310
18898TIP3   OH278184   6.066   4.498  11.567  0.1409 -0.1091  0.2252
18898TIP3    H178185   6.039   4.409  11.589 -1.3369  0.3583  0.4070
18898TIP3    H278186   6.144   4.513  11.620  0.8030 -1.5189 -0.3097
18899TIP3   OH278187   6.246   5.122   6.223  0.1450 -0.0557  0.3237
18899TIP3    H178188   6.217   5.173   6.298 -0.1815 -1.7666  1.4221
18899TIP3    H278189   6.341   5.124   6.228  0.1243 -0.1228  0.7606
18900TIP3   OH278190   4.872   2.391  15.684  0.2234 -0.0503 -0.2000
18900TIP3    H178191   4.783   2.423  15.700  0.1604 -0.3912  0.1472
18900TIP3    H278192   4.913   2.460  15.632  0.0319  0.5252  0.3910
18901TIP3   OH278193   4.567   4.020  15.873  0.0774 -0.2210 -0.0913
18901TIP3    H178194   4.473   4.028  15.890  0.3008  1.8545  0.4589
18901TIP3    H278195   4.586   3.929  15.893 -1.5209 -0.2850  1.5242
18902TIP3   OH278196   0.033   4.274  14.145 -0.1057 -0.3853  0.2537
18902TIP3    H178197  -0.031   4.342  14.165 -2.1871 -2.3349  0.5907
18902TIP3    H278198   0.110   4.297  14.198 -0.8454  1.5046  0.5825
18903TIP3   OH278199   2.607   6.539   6.108  0.2291 -0.3808 -0.9707
18903TIP3    H178200   2.605   6.466   6.170 -2.0348  0.0712 -0.4101
18903TIP3    H278201   2.595   6.499   6.023  2.7821 -0.9534 -1.1387
18904TIP3   OH278202   4.807   6.125   0.797 -0.9422  0.5098  0.3155
18904TIP3    H178203   4.834   6.128   0.888 -0.8348 -0.7979  0.3512
18904TIP3    H278204   4.740   6.193   0.789 -0.4052  1.1525  1.1676
18905TIP3   OH278205   3.593   6.005  13.820 -0.6139  0.2402  0.5834
18905TIP3    H178206   3.549   6.000  13.905 -0.0407 -2.0512  0.7866
18905TIP3    H278207   3.639   5.922  13.811 -0.9017  0.2773 -2.1192
18906TIP3   OH278208   0.435   0.665  13.421  0.5671 -0.3635  0.3619
18906TIP3    H178209   0.465   0.711  13.500  1.2401 -0.2708  0.0572
18906TIP3    H278210   0.472   0.715  13.348  0.9210 -1.1089  0.0181
18907TIP3   OH278211   0.882   0.877   4.793  0.6285 -0.0790 -0.0061
18907TIP3    H178212   0.969   0.835   4.790  0.7748  0.0871  1.2734
18907TIP3    H278213   0.853   0.865   4.884  0.4508  2.1354  0.2907
18908TIP3   OH278214   1.139   2.427  17.299  0.1630  0.1319 -0.1603
18908TIP3    H178215   1.098   2.495  17.246  0.5969  2.2851  2.0430
18908TIP3    H278216   1.067   2.368  17.322 -0.2903 -0.0346 -1.8659
18909TIP3   OH278217   4.377   1.538  14.742  0.3928  0.1207 -0.0475
18909TIP3    H178218   4.461   1.566  14.778 -0.1372  0.1898  1.1975
18909TIP3    H278219   4.316   1.544  14.816 -0.4746 -1.0092 -0.6370
18910TIP3   OH278220   5.598   3.841   5.113  0.4213 -0.2074 -0.2416
18910TIP3    H178221   5.682   3.862   5.154  0.0188  0.3227  0.3270
18910TIP3    H278222   5.617   3.839   5.019  0.5453  2.5967 -0.3501
18911TIP3   OH278223   6.473   6.022  14.305  0.1767 -0.1035 -0.3888
18911TIP3    H178224   6.403   6.052  14.363  1.2114  0.0449  0.8488
18911TIP3    H278225   6.429   5.970  14.238 -1.0129 -0.9164  0.9620
18912TIP3   OH278226   5.607   4.928  16.628  0.0532  0.0557 -0.1248
18912TIP3    H178227   5.638   4.995  16.567 -1.3555  1.5562  0.6960
18912TIP3    H278228   5.512   4.939  16.628 -0.0030 -0.0147  2.1377
18913TIP3   OH278229   3.574   0.332   4.464 -0.2992  0.1887  0.0227
18913TIP3    H178230   3.561   0.324   4.559 -2.0924  0.3742 -0.1745
18913TIP3    H278231   3.498   0.382   4.434 -0.2026 -0.6155 -1.6405
18914TIP3   OH278232   1.731   6.376  11.747  0.2096  0.0308 -0.3041
18914TIP3    H178233   1.694   6.463  11.729 -1.9493  0.3027  4.1715
18914TIP3    H278234   1.657   6.316  11.737  0.6491 -0.6800  0.5694
18915TIP3   OH278235   6.737   3.621  15.680  0.0324 -0.0509 -0.3120
18915TIP3    H178236   6.643   3.603  15.688 -0.1970 -0.1171 -2.4585
18915TIP3    H278237   6.744   3.675  15.601  1.9274 -1.2562 -1.0416
18916TIP3   OH278238   4.218   1.546   0.651  0.1242  0.2061 -0.3801
18916TIP3    H178239   4.228   1.452   0.669  2.5784  0.1560 -1.5322
18916TIP3    H278240   4.249   1.556   0.561 -1.4135  1.9479 -0.7637
18917TIP3   OH278241   1.513   1.113   3.103  0.1783 -0.5708 -0.1049
18917TIP3    H178242   1.517   1.076   3.191 -1.2953  1.6028  0.9583
18917TIP3    H278243   1.584   1.177   3.101 -0.7048  0.4280  0.0462
18918TIP3   OH278244   3.272   1.672  12.527  0.1361 -0.2018  0.5713
18918TIP3    H178245   3.257   1.753  12.574  2.0849  1.2751 -1.1567
18918TIP3    H278246   3.363   1.677  12.499  0.1342 -2.7083 -0.1517
18919TIP3   OH278247   1.881   4.781   3.407 -0.0349 -0.3694  0.3965
18919TIP3    H178248   1.814   4.849   3.402  0.9438  0.5346 -1.0847
18919TIP3    H278249   1.873   4.734   3.324  1.1261 -0.2663  0.2080
18920TIP3   OH278250   2.969   5.439  11.348 -0.4321  0.1859 -0.0668
18920TIP3    H178251   2.922   5.455  11.266 -2.4088 -1.8138  0.5554
18920TIP3    H278252   2.922   5.492  11.412 -1.3177 -1.0731  0.3794
18921TIP3   OH278253   0.370   6.536  14.775 -0.0322 -0.2022 -0.6708
18921TIP3    H178254   0.405   6.621  14.747 -0.9528  0.4208  0.0171
18921TIP3    H278255   0.397   6.528  14.866  1.1334 -1.2519 -1.0722
18922TIP3   OH278256   2.726   0.413   1.539 -0.0348 -0.2593 -0.3571
18922TIP3    H178257   2.660   0.344   1.537  1.2395 -1.5355 -1.8838
18922TIP3    H278258   2.795   0.379   1.597 -0.2349  0.6114  0.4190
18923TIP3   OH278259   3.245   3.435  10.585  0.8308 -0.1597  0.4482
18923TIP3    H178260   3.257   3.494  10.510  1.2546  1.2935  1.5976
18923TIP3    H278261   3.156   3.402  10.576  0.6150  0.5837 -0.2852
18924TIP3   OH278262   6.736   1.928  13.170  0.1834  0.1718 -0.1270
18924TIP3    H178263   6.656   1.950  13.123 -0.0013  1.3244  0.6872
18924TIP3    H278264   6.719   1.842  13.208  0.1231 -0.5146 -1.6534
18925TIP3   OH278265   0.830   5.488  12.745 -0.4509  0.4817  0.2593
18925TIP3    H178266   0.835   5.417  12.809 -2.0650 -0.7421 -0.8866
18925TIP3    H278267   0.760   5.545  12.778 -0.8142  0.2199 -0.0529
18926TIP3   OH278268   1.113   6.517   4.012 -0.0331  0.0791 -0.0658
18926TIP3    H178269   1.089   6.497   3.921 -1.1213  0.0595  0.2141
18926TIP3    H278270   1.186   6.458   4.031 -1.5717 -1.9186 -0.0530
18927TIP3   OH278271   1.150   1.114  11.472 -0.2226  0.1091 -0.0768
18927TIP3    H178272   1.097   1.041  11.439 -0.9321  0.2876  0.6217
18927TIP3    H278273   1.174   1.164  11.394 -0.9210 -0.0977 -0.4344
18928TIP3   OH278274   0.883   4.008   3.692  0.1103 -0.3804  0.2280
18928TIP3    H178275   0.881   4.067   3.768  2.1870 -0.0006  0.0557
18928TIP3    H278276   0.828   4.051   3.626 -0.0539  0.3237  0.8148
18929TIP3   OH278277   5.102   1.548  15.065 -0.2363  0.2265 -0.4422
18929TIP3    H178278   5.095   1.609  15.139 -1.7130  1.1936 -1.3386
18929TIP3    H278279   5.140   1.469  15.104  0.2333  1.1458  1.0793
18930TIP3   OH278280   6.146   6.030  16.853 -0.2594 -0.6139  0.2865
18930TIP3    H178281   6.176   6.019  16.943  0.4640 -1.8077 -0.0809
18930TIP3    H278282   6.119   6.122  16.848  0.1573 -0.4035  1.5796
18931TIP3   OH278283   1.386   4.906  10.790  0.2957  0.2882  0.3380
18931TIP3    H178284   1.397   4.980  10.851 -1.4170  0.9772 -0.1362
18931TIP3    H278285   1.450   4.922  10.721  0.0696  1.2482  0.3355
18932TIP3   OH278286   6.547   0.310   6.267 -0.9120 -0.2228  0.5294
18932TIP3    H178287   6.602   0.343   6.196 -0.6630 -1.6306  0.0282
18932TIP3    H278288   6.586   0.347   6.347 -0.3061  0.2130  0.0398
18933TIP3   OH278289   0.196   1.922  11.868  0.8072 -0.4541  0.6372
18933TIP3    H178290   0.113   1.913  11.916  0.2819  1.1742  0.0912
18933TIP3    H278291   0.245   1.843  11.891  0.1520 -0.2536  3.0026
18934TIP3   OH278292   4.362   3.165   1.665 -0.3563 -0.0402 -0.2176
18934TIP3    H178293   4.294   3.115   1.619  1.1801 -0.9860 -1.5836
18934TIP3    H278294   4.322   3.250   1.681 -1.0370  0.3764 -3.3622
18935TIP3   OH278295   5.416   3.106  16.740 -0.1950  0.4291 -0.2979
18935TIP3    H178296   5.498   3.146  16.768 -1.6665  3.1191  0.5120
18935TIP3    H278297   5.378   3.071  16.821 -0.5915  0.6445 -0.3909
18936TIP3   OH278298   0.191   4.554  16.769  0.4851  0.3218 -0.0303
18936TIP3    H178299   0.180   4.618  16.839 -2.5836  0.5308 -0.5589
18936TIP3    H278300   0.201   4.607  16.690  1.0388  0.1049 -0.1090
18937TIP3   OH278301   6.664   6.493   2.070 -0.3359  0.2630 -0.2329
18937TIP3    H178302   6.638   6.506   1.979 -1.9913  2.1443  0.4442
18937TIP3    H278303   6.680   6.581   2.104  1.7535 -0.4642  0.9430
18938TIP3   OH278304   0.030   4.604  15.488 -0.4448  0.0752 -0.4232
18938TIP3    H178305   0.076   4.607  15.571 -1.1870 -0.6463  0.0382
18938TIP3    H278306  -0.012   4.689  15.480  1.2368  0.8868 -1.0391
18939TIP3   OH278307   0.676   4.226   5.870  0.2442 -0.1880 -0.1595
18939TIP3    H178308   0.722   4.234   5.954  0.6870 -0.4390 -0.3734
18939TIP3    H278309   0.642   4.314   5.853 -0.0536 -0.1868  0.3940
18940TIP3   OH278310   6.304   6.623   0.912  0.0750 -0.5870  0.0737
18940TIP3    H178311   6.351   6.700   0.943  1.5336 -1.9517  1.4894
18940TIP3    H278312   6.357   6.591   0.839 -1.6350  0.8377 -1.8691
18941TIP3   OH278313   1.560   1.149  16.961 -0.0115  0.3663  1.0136
18941TIP3    H178314   1.654   1.166  16.955  0.1644 -0.0176  2.4906
18941TIP3    H278315   1.548   1.109  17.046 -1.3962 -0.5232  0.4276
18942TIP3   OH278316   5.100   1.854  13.823 -0.5069 -0.3560  0.3415
18942TIP3    H178317   5.153   1.780  13.792  0.4404 -0.1438  1.3662
18942TIP3    H278318   5.023   1.813  13.861  0.2360 -0.8715  1.3440
18943TIP3   OH278319   2.399   1.870  12.023 -0.2791  0.0191 -0.2339
18943TIP3    H178320   2.350   1.871  12.105  0.8727  1.1815  0.4751
18943TIP3    H278321   2.472   1.811  12.039  1.2431  1.9655  0.4313
18944TIP3   OH278322   1.470   1.658  15.819  0.0050 -0.5228  0.3985
18944TIP3    H178323   1.394   1.716  15.814  0.7812  0.7025  2.1214
18944TIP3    H278324   1.544   1.713  15.793  0.6411 -0.9844  1.1997
18945TIP3   OH278325   4.235   2.373   0.264  0.1215  0.0020 -0.0717
18945TIP3    H178326   4.330   2.370   0.255  0.2837  1.9959  0.4046
18945TIP3    H278327   4.203   2.312   0.198  1.7251 -1.2288  0.2104
18946TIP3   OH278328   2.666   4.642   5.256 -0.0893  0.4759 -1.0367
18946TIP3    H178329   2.739   4.703   5.243 -0.5490  1.0389 -1.0232
18946TIP3    H278330   2.700   4.575   5.315  0.3515  0.8461 -0.8699
18947TIP3   OH278331   1.981   2.230  13.249 -0.2856 -0.4917  0.3441
18947TIP3    H178332   2.053   2.218  13.311 -0.5343 -0.3397  0.6596
18947TIP3    H278333   1.905   2.194  13.293 -0.6716  0.5334  0.5415
18948TIP3   OH278334   0.779   2.447  12.016 -0.1937  0.1253  0.0068
18948TIP3    H178335   0.733   2.529  11.998 -1.1676  0.1202  2.1818
18948TIP3    H278336   0.786   2.444  12.112  2.9067 -0.6911 -0.1469
18949TIP3   OH278337   1.860   0.122   0.969  0.3003  0.2178  0.9151
18949TIP3    H178338   1.831   0.187   1.033  0.7251  0.6652  0.6553
18949TIP3    H278339   1.952   0.107   0.989  0.5080  0.5570  0.2502
18950TIP3   OH278340   0.867   3.653   3.552  0.0259  0.0529  0.5632
18950TIP3    H178341   0.815   3.588   3.599  0.2435  0.4229  1.3448
18950TIP3    H278342   0.826   3.737   3.574  0.5992  0.3000  0.7380
18951TIP3   OH278343   5.864   3.058  12.070 -0.5540  0.8089 -0.2731
18951TIP3    H178344   5.782   3.053  12.022 -1.2392  3.1449  0.5152
18951TIP3    H278345   5.843   3.110  12.148  1.7867  2.1165 -0.4090
18952TIP3   OH278346   5.473   2.157   6.147  0.0965 -0.0850  0.3253
18952TIP3    H178347   5.498   2.079   6.098  0.3736  0.6932 -0.8130
18952TIP3    H278348   5.535   2.161   6.220  1.0542 -0.1238 -0.4591
18953TIP3   OH278349   3.835   2.905   2.265 -0.2302  0.5120  0.7014
18953TIP3    H178350   3.890   2.920   2.188  0.3942 -1.9201  0.5880
18953TIP3    H278351   3.884   2.944   2.338 -0.4672  2.1587  0.0231
18954TIP3   OH278352   4.800   1.179  11.878 -0.1493  0.3133  0.2346
18954TIP3    H178353   4.793   1.250  11.815 -0.2756 -1.4547 -1.8522
18954TIP3    H278354   4.892   1.152  11.874 -0.4991 -0.8646 -0.4691
18955TIP3   OH278355   5.461   6.342  12.306 -0.5311  0.4810 -1.0039
18955TIP3    H178356   5.533   6.392  12.346 -0.2139  0.3426 -1.3919
18955TIP3    H278357   5.488   6.332  12.214  0.1366 -1.7151 -0.6124
18956TIP3   OH278358   2.316   3.976  14.668  0.2448 -0.7041 -0.4986
18956TIP3    H178359   2.337   3.903  14.726  0.1994 -1.7268 -1.7218
18956TIP3    H278360   2.294   3.935  14.584 -1.1141  0.6329 -0.8588
18957TIP3   OH278361   4.261   0.855  16.166  0.5238  0.4338 -0.4171
18957TIP3    H178362   4.274   0.769  16.205  0.8243  0.5525 -0.2539
18957TIP3    H278363   4.342   0.902  16.183 -0.4172  1.5151  1.4923
18958TIP3   OH278364   4.816   3.334  11.191 -0.6948 -0.6099 -0.2056
18958TIP3    H178365   4.820   3.252  11.142  0.0468 -0.8466  0.2366
18958TIP3    H278366   4.902   3.341  11.232 -1.6666 -0.9675  1.9928
18959TIP3   OH278367   2.702   4.130   2.105 -0.0587  0.2336 -0.6428
18959TIP3    H178368   2.746   4.078   2.038  0.8334  1.9423 -1.4456
18959TIP3    H278369   2.773   4.180   2.147 -0.7607  0.1316  0.7346
18960TIP3   OH278370   6.295   1.396  13.527 -0.2255  0.0266 -0.3981
18960TIP3    H178371   6.261   1.344  13.454 -0.4359 -2.8610  1.5509
18960TIP3    H278372   6.390   1.388  13.520 -0.2568 -1.0644  0.0875
18961TIP3   OH278373   0.648   3.461  16.209 -0.1054 -0.1258  0.0634
18961TIP3    H178374   0.601   3.529  16.258  1.3635  0.0282  1.3473
18961TIP3    H278375   0.671   3.396  16.275  1.5576 -0.1288 -0.4836
18962TIP3   OH278376   5.638   2.842  13.994 -0.0056 -0.1211 -0.3199
18962TIP3    H178377   5.630   2.748  13.978  1.8063 -0.2314 -0.7473
18962TIP3    H278378   5.682   2.876  13.916 -0.1075  0.9884  0.0881
18963TIP3   OH278379   0.944   5.160   4.937 -0.2489 -0.0943  0.3914
18963TIP3    H178380   1.020   5.184   4.884  0.5895 -2.6581  0.3071
18963TIP3    H278381   0.939   5.228   5.004  2.0336  0.2231  0.3040
18964TIP3   OH278382   6.715   0.900   6.652  0.2997 -0.1846  0.1243
18964TIP3    H178383   6.622   0.891   6.634  0.1473  0.6184  0.4568
18964TIP3    H278384   6.735   0.830   6.714 -0.1582 -0.1511  0.3097
18965TIP3   OH278385   0.857   1.351  15.892 -0.6540  0.5244 -0.5243
18965TIP3    H178386   0.785   1.407  15.922 -1.4198 -1.6283  2.0593
18965TIP3    H278387   0.819   1.294  15.826 -1.0681  0.1192  0.0545
18966TIP3   OH278388   6.649   2.723   0.183  0.1000 -0.4531  0.7408
18966TIP3    H178389   6.651   2.634   0.148 -0.3560 -0.4026  0.5812
18966TIP3    H278390   6.722   2.726   0.245 -0.6776 -1.3558  1.7340
18967TIP3   OH278391   1.478   2.976  15.038  0.2128  0.1287 -0.4609
18967TIP3    H178392   1.433   2.954  15.120  1.7089 -3.3676 -0.4072
18967TIP3    H278393   1.532   3.053  15.060 -1.0429  0.6052  1.1620
18968TIP3   OH278394   1.317   0.036   0.562 -0.3032  0.0386  0.2281
18968TIP3    H178395   1.246   0.071   0.508 -0.9399  0.6063  1.3710
18968TIP3    H278396   1.397   0.071   0.524 -0.7342  0.3803 -0.3696
18969TIP3   OH278397   1.083   3.322   0.507  0.4971  0.3674  0.3871
18969TIP3    H178398   1.011   3.264   0.484 -0.3841  0.7718  1.9412
18969TIP3    H278399   1.063   3.405   0.463  0.0279  0.4576  0.7601
18970TIP3   OH278400   4.280   0.615   4.699 -0.1764  0.5737 -0.3691
18970TIP3    H178401   4.189   0.588   4.685 -0.3251  0.1395  1.2596
18970TIP3    H278402   4.283   0.641   4.791  1.2274  1.1349 -0.5575
18971TIP3   OH278403   1.780   4.022  12.233 -0.5272  0.0077 -0.3343
18971TIP3    H178404   1.693   4.062  12.223 -0.2705  0.6394 -0.0808
18971TIP3    H278405   1.817   4.065  12.310  0.4772  0.5796 -1.1218
18972TIP3   OH278406   0.015   3.379  17.268  0.5494  0.1886 -0.5175
18972TIP3    H178407  -0.015   3.421  17.348 -1.5119  0.8786 -1.5966
18972TIP3    H278408   0.031   3.288  17.293  0.2780  0.4744  0.7440
18973TIP3   OH278409   6.695   4.557  17.482 -0.1680  0.3317  0.2595
18973TIP3    H178410   6.600   4.559  17.469  0.0779  3.5508 -1.9082
18973TIP3    H278411   6.705   4.556  17.577 -2.3819  1.3618  0.5699
18974TIP3   OH278412   1.414   6.517   4.106  0.3560  0.1635 -0.0977
18974TIP3    H178413   1.381   6.427   4.096  1.9279 -0.7060  1.8291
18974TIP3    H278414   1.481   6.526   4.039 -0.9385  0.5348 -1.3944
18975TIP3   OH278415   5.749   1.111  15.060 -0.2862 -0.4363 -0.1636
18975TIP3    H178416   5.844   1.110  15.071 -0.3311  0.6128  0.4103
18975TIP3    H278417   5.720   1.028  15.099  0.5697 -1.8879 -2.4028
18976TIP3   OH278418   6.241   1.806  11.530  0.2877  0.0944  0.2579
18976TIP3    H178419   6.259   1.897  11.555 -1.4622  0.6994 -0.5321
18976TIP3    H278420   6.188   1.813  11.451  1.6681 -1.6856 -0.8770
18977TIP3   OH278421   5.484   2.499  11.081  0.0061 -0.2375 -0.2709
18977TIP3    H178422   5.398   2.460  11.069  0.5043 -1.7474  0.7569
18977TIP3    H278423   5.483   2.534  11.170 -0.1270  1.3971 -0.8734
18978TIP3   OH278424   4.365   6.110  12.250 -0.1429  0.3462  0.2395
18978TIP3    H178425   4.430   6.168  12.291 -1.6528  1.9830  0.4665
18978TIP3    H278426   4.376   6.125  12.156 -1.2427  1.8977  0.3261
18979TIP3   OH278427   2.023   1.090  16.694  0.4057 -0.1634 -0.5236
18979TIP3    H178428   2.042   1.049  16.610  0.3288 -0.4397 -0.4079
18979TIP3    H278429   2.108   1.106  16.734  0.4398 -2.8507  0.7006
18980TIP3   OH278430   4.953   0.832   4.031 -0.2104 -0.0822  0.2150
18980TIP3    H178431   5.031   0.853   4.081 -0.7001 -1.3161  1.5473
18980TIP3    H278432   4.881   0.841   4.093 -0.8500 -1.5139 -0.2725
18981TIP3   OH278433   1.385   2.130   0.841  0.4605 -0.5641 -0.2602
18981TIP3    H178434   1.321   2.147   0.772  0.0610  0.0312  0.2421
18981TIP3    H278435   1.430   2.051   0.813 -1.5729 -1.9444  0.1269
18982TIP3   OH278436   5.782   4.640   6.264  0.3624 -0.4881 -0.9054
18982TIP3    H178437   5.715   4.639   6.333  0.8393  0.8141 -0.3769
18982TIP3    H278438   5.859   4.678   6.307  1.6254 -2.3722 -1.3618
18983TIP3   OH278439   0.626   5.249   5.813  0.1252  0.8342  0.0698
18983TIP3    H178440   0.674   5.328   5.836  2.3776 -0.2798 -0.5638
18983TIP3    H278441   0.572   5.231   5.890 -2.4740  4.3096 -0.6638
18984TIP3   OH278442   0.288   6.146   4.257 -0.0622  0.0125 -0.3264
18984TIP3    H178443   0.277   6.161   4.163 -1.8757  0.5419 -0.0583
18984TIP3    H278444   0.233   6.070   4.276  0.4588 -0.2236  0.2866
18985TIP3   OH278445   5.585   5.316  12.497  0.6118 -0.4275 -0.5261
18985TIP3    H178446   5.655   5.362  12.542 -0.4616  1.5760 -0.7976
18985TIP3    H278447   5.604   5.329  12.404 -0.6158  1.0091 -0.6080
18986TIP3   OH278448   0.551   0.984   4.341  0.3029  0.4959 -0.0767
18986TIP3    H178449   0.541   1.014   4.431 -2.1324  0.2756 -0.1987
18986TIP3    H278450   0.585   0.895   4.348 -2.1281 -0.4485  0.8288
18987TIP3   OH278451   6.485   0.540  17.495 -0.0988  0.5326  0.7637
18987TIP3    H178452   6.555   0.534  17.560  0.4891  0.2862  0.1285
18987TIP3    H278453   6.499   0.624  17.452  1.5043 -0.6203 -1.1881
18988TIP3   OH278454   5.059   5.211   2.218  0.5740 -0.4388 -0.2132
18988TIP3    H178455   5.013   5.237   2.298 -0.2076  0.3477 -0.8960
18988TIP3    H278456   4.992   5.212   2.151  1.8513  2.4980 -1.6219
18989TIP3   OH278457   4.325   4.749  12.947  0.8875 -0.0176 -0.7736
18989TIP3    H178458   4.235   4.716  12.943  0.3433  0.5484  3.0168
18989TIP3    H278459   4.331   4.811  12.873 -1.8145 -0.0915 -1.1642
18990TIP3   OH278460   2.538   3.016   5.752 -0.4821 -0.1952  0.3518
18990TIP3    H178461   2.621   2.972   5.768 -0.2734 -0.6099 -1.6126
18990TIP3    H278462   2.553   3.107   5.778  0.0851 -0.5878  1.4327
18991TIP3   OH278463   4.329   5.660  12.533 -0.0110 -0.0051  0.5052
18991TIP3    H178464   4.365   5.719  12.467  0.7746 -1.1565 -0.1432
18991TIP3    H278465   4.296   5.717  12.602  0.8816  1.1703 -0.0127
18992TIP3   OH278466   0.222   2.348   4.354 -0.6259 -0.6717  0.2604
18992TIP3    H178467   0.285   2.362   4.284  0.6641 -2.2236  1.0477
18992TIP3    H278468   0.138   2.333   4.310  0.0833 -1.2329 -0.9210
18993TIP3   OH278469   2.790   2.808  12.219 -0.1752  0.4422 -0.5204
18993TIP3    H178470   2.834   2.747  12.159  1.3703  0.9627  0.0265
18993TIP3    H278471   2.833   2.792  12.304 -0.2796  1.7517 -0.2069
18994TIP3   OH278472   5.059   2.550  15.552  0.2208  0.3918  0.2080
18994TIP3    H178473   5.149   2.520  15.567  0.7488  1.7364 -0.1624
18994TIP3    H278474   5.043   2.613  15.622 -0.4955  0.0612  0.3510
18995TIP3   OH278475   4.344   6.022   5.684 -0.1126  0.0403  0.3935
18995TIP3    H178476   4.264   6.035   5.632 -0.9483 -1.9905  1.0693
18995TIP3    H278477   4.323   6.060   5.769 -0.5836 -0.9309  0.7277
18996TIP3   OH278478   4.767   4.878  14.757  0.6237  0.1814  0.5204
18996TIP3    H178479   4.716   4.935  14.814 -0.7753  0.8485 -1.2817
18996TIP3    H278480   4.701   4.823  14.713  1.0981  2.1984 -3.1468
18997TIP3   OH278481   6.301   4.055   6.645  0.5879 -0.7578 -0.0427
18997TIP3    H178482   6.228   4.003   6.613 -0.4840  1.4030 -1.3427
18997TIP3    H278483   6.270   4.091   6.729  0.1747  0.0321 -0.5188
18998TIP3   OH278484   0.411   1.713   4.712 -0.0083  0.0497  0.1253
18998TIP3    H178485   0.374   1.690   4.626 -0.2216 -1.5772  0.6099
18998TIP3    H278486   0.464   1.791   4.696  1.3961 -1.2060 -1.8802
18999TIP3   OH278487   2.805   4.355  12.810  0.2077 -0.2471  0.2112
18999TIP3    H178488   2.720   4.354  12.766 -0.2371 -0.2106  1.0474
18999TIP3    H278489   2.869   4.341  12.740 -0.5797 -1.8218 -0.2437
19000TIP3   OH278490   3.376   4.742  13.339  0.0354 -0.9102  0.1702
19000TIP3    H178491   3.316   4.690  13.285  0.5607  0.8019 -2.2277
19000TIP3    H278492   3.422   4.798  13.276  1.4398  0.5022  2.3343
19001TIP3   OH278493   1.159   4.341  13.714  0.1956  0.0298  0.1701
19001TIP3    H178494   1.189   4.432  13.723  0.4897  0.2152 -2.1353
19001TIP3    H278495   1.089   4.333  13.779  1.7387  1.1521  2.0734
19002TIP3   OH278496   6.758   4.626   3.524  0.3245 -0.2793 -0.3046
19002TIP3    H178497   6.684   4.677   3.490  0.1578 -0.2282  0.1291
19002TIP3    H278498   6.779   4.565   3.454  0.7387  0.5993 -0.9718
19003TIP3   OH278499   2.734   4.766  15.482  0.4815  0.5300 -0.1411
19003TIP3    H178500   2.829   4.761  15.477  0.3531 -2.2581 -2.7474
19003TIP3    H278501   2.708   4.812  15.403 -0.3468 -0.2276 -0.3308
19004TIP3   OH278502   0.622   4.288  16.839 -0.0084 -0.3313 -0.0762
19004TIP3    H178503   0.532   4.311  16.815 -0.6197 -1.1602  1.2636
19004TIP3    H278504   0.674   4.365  16.817 -0.7886 -0.3390 -2.1622
19005TIP3   OH278505   5.536   5.002   0.936 -0.4935  0.2567 -0.2318
19005TIP3    H178506   5.530   4.961   1.022  0.0313  0.3849 -0.1244
19005TIP3    H278507   5.459   4.972   0.889  0.2992 -1.5452 -0.4685
19006TIP3   OH278508   0.098   1.921   5.429  0.0752  0.6550  1.0259
19006TIP3    H178509   0.189   1.938   5.453  0.4032  3.7336 -1.7578
19006TIP3    H278510   0.053   2.003   5.445 -2.1254 -0.5826  1.6040
19007TIP3   OH278511   5.862   5.856  11.997 -0.5169 -0.5516  0.1333
19007TIP3    H178512   5.881   5.816  11.912  1.7976 -0.1920  0.3966
19007TIP3    H278513   5.929   5.820  12.055 -1.2520  0.2000  1.4875
19008TIP3   OH278514   1.166   0.681   1.103 -0.6378  0.3003 -0.1234
19008TIP3    H178515   1.081   0.637   1.097 -0.2829 -0.6341  1.0651
19008TIP3    H278516   1.169   0.715   1.193 -0.9667  2.9817 -1.0682
19009TIP3   OH278517   4.924   0.727   5.688 -0.4149  0.4515 -0.0891
19009TIP3    H178518   5.000   0.770   5.649  0.3184 -1.9201 -1.4836
19009TIP3    H278519   4.849   0.774   5.651  0.3147  1.8822  0.1574
19010TIP3   OH278520   4.619   3.006   3.950 -0.2517  0.3531 -0.1862
19010TIP3    H178521   4.629   2.916   3.921  0.5907  0.1601  0.6537
19010TIP3    H278522   4.556   3.044   3.889 -0.3500 -0.6983 -0.7623
19011TIP3   OH278523   3.853   4.200   3.905  0.0076  0.2636  0.6273
19011TIP3    H178524   3.930   4.247   3.873  0.0471 -0.6769 -0.7690
19011TIP3    H278525   3.887   4.115   3.933 -0.5252 -0.2784 -0.2952
19012TIP3   OH278526   5.719   0.264   4.884  0.4618 -0.3382 -0.0264
19012TIP3    H178527   5.666   0.184   4.885 -0.4401  0.2415  1.5598
19012TIP3    H278528   5.720   0.291   4.792 -0.3153 -1.4590 -0.3849
19013TIP3   OH278529   1.275   6.099   4.989  0.0800  0.3809 -0.5752
19013TIP3    H178530   1.211   6.170   4.984  0.8243  1.1229  0.1434
19013TIP3    H278531   1.334   6.115   4.915 -1.0277 -0.8098 -1.7755
19014TIP3   OH278532   3.917   1.194   2.215 -0.0067  0.0787 -0.3670
19014TIP3    H178533   3.954   1.223   2.298  0.3013 -1.2329 -0.0224
19014TIP3    H278534   3.925   1.270   2.157 -0.2787  1.0224  0.8030
19015TIP3   OH278535   0.181   3.901   1.339  0.1556 -0.0899 -0.3520
19015TIP3    H178536   0.114   3.840   1.370  0.9279 -0.0239  1.5403
19015TIP3    H278537   0.261   3.849   1.338  0.4275  0.3293 -0.8262
19016TIP3   OH278538   2.189   3.446   0.368  0.0062  0.1557 -0.3118
19016TIP3    H178539   2.264   3.425   0.424 -0.8433 -0.0557  0.7736
19016TIP3    H278540   2.149   3.362   0.346 -0.8367  0.3460  0.4331
19017TIP3   OH278541   4.273   4.756  13.585  0.1338 -0.4994  0.4240
19017TIP3    H178542   4.246   4.665  13.597 -1.9560  0.0317  0.2160
19017TIP3    H278543   4.264   4.773  13.491 -0.2340  0.0965  0.5534
19018TIP3   OH278544   2.362   0.864  16.419  0.4268  0.3101 -0.0346
19018TIP3    H178545   2.448   0.840  16.385  0.0150 -0.8581 -0.3216
19018TIP3    H278546   2.308   0.876  16.342  0.0384 -0.1543  0.1615
19019TIP3   OH278547   4.391   0.123   2.136 -0.9817  0.2931 -0.3079
19019TIP3    H178548   4.427   0.194   2.190  0.0268 -1.0241  0.8192
19019TIP3    H278549   4.296   0.139   2.137 -0.8349  1.2457  0.4857
19020TIP3   OH278550   2.946   4.955   5.816  0.0804  0.5517 -0.2732
19020TIP3    H178551   2.907   4.916   5.738  0.1081  0.7018 -0.3621
19020TIP3    H278552   2.980   4.881   5.866 -3.0171  0.0604  1.3570
19021TIP3   OH278553   5.974   4.951  14.352  0.3981 -0.4912  0.9888
19021TIP3    H178554   5.985   5.046  14.353  1.4835 -0.5300 -1.1773
19021TIP3    H278555   6.062   4.916  14.341 -0.1771 -1.5952 -0.5909
19022TIP3   OH278556   2.904   3.694  15.053 -0.0524 -0.1705  0.0993
19022TIP3    H178557   2.942   3.611  15.082  4.0063  1.4104 -0.1187
19022TIP3    H278558   2.933   3.758  15.118  0.3801  1.7142 -1.8331
19023TIP3   OH278559   0.487   3.000  17.169  0.1821 -0.1002  0.7333
19023TIP3    H178560   0.577   2.980  17.193  0.5292  0.9306  0.3421
19023TIP3    H278561   0.478   2.965  17.080  0.7829  1.3859  0.0569
19024TIP3   OH278562   0.885   2.851   6.753  0.4321  0.2156 -0.8003
19024TIP3    H178563   0.850   2.890   6.833  0.3041  0.0368 -0.7677
19024TIP3    H278564   0.953   2.911   6.725  0.7299  0.0930 -0.3516
19025TIP3   OH278565   0.354   5.053   4.313  0.1673 -0.4110 -0.0008
19025TIP3    H178566   0.266   5.063   4.276  0.3341 -1.3983 -0.6896
19025TIP3    H278567   0.345   4.981   4.375  0.4328 -0.3168  0.1494
19026TIP3   OH278568   3.790   4.807   1.379 -0.0117 -0.2951  0.4738
19026TIP3    H178569   3.832   4.726   1.409  1.0758  0.2957  0.5975
19026TIP3    H278570   3.723   4.778   1.318  0.7786 -1.2680  0.0385
19027TIP3   OH278571   0.494   3.780   1.606  0.1131 -0.0782  0.3160
19027TIP3    H178572   0.546   3.780   1.686  1.5804 -0.5527 -0.6054
19027TIP3    H278573   0.448   3.864   1.607  1.3365  0.6052  0.8932
19028TIP3   OH278574   4.026   3.182   3.873 -0.2677 -0.7981 -0.5962
19028TIP3    H178575   4.015   3.275   3.855 -0.0016 -0.0849  2.3800
19028TIP3    H278576   4.056   3.144   3.791 -0.9880  1.6076 -2.0515
19029TIP3   OH278577   1.542   6.585  12.786 -0.0342  0.0388  0.0810
19029TIP3    H178578   1.607   6.541  12.841  0.1737 -0.8553 -0.8556
19029TIP3    H278579   1.593   6.632  12.721 -0.2699 -2.3282 -1.9486
19030TIP3   OH278580   0.616   5.142   4.547  0.4033  0.2647  0.0915
19030TIP3    H178581   0.659   5.109   4.626 -1.6183 -2.9264  0.0399
19030TIP3    H278582   0.567   5.218   4.576  0.8104 -0.0142  1.6088
19031TIP3   OH278583   3.573   5.594   1.389  0.1175  0.1665 -0.0523
19031TIP3    H178584   3.640   5.641   1.341 -0.3750  0.8945 -0.0407
19031TIP3    H278585   3.621   5.536   1.448  0.7224  0.0535 -0.6482
19032TIP3   OH278586   5.182   6.706  11.063  0.0025  0.5340  0.4094
19032TIP3    H178587   5.128   6.663  10.997 -1.5899  0.7557  1.5007
19032TIP3    H278588   5.155   6.798  11.060 -0.1791  0.5272  1.4039
19033TIP3   OH278589   6.534   5.812  15.231 -0.4600 -0.1340  0.2563
19033TIP3    H178590   6.490   5.757  15.166  1.1404 -1.6422  0.3874
19033TIP3    H278591   6.556   5.892  15.183 -0.9615 -0.4425 -0.5145
19034TIP3   OH278592   6.230   1.683  16.692 -0.0068  0.4650  0.5282
19034TIP3    H178593   6.183   1.601  16.710  0.4020 -0.2304 -1.4173
19034TIP3    H278594   6.189   1.718  16.613  2.7221 -0.2324 -1.3234
19035TIP3   OH278595   0.830   4.146   5.646 -0.8132  0.4432 -0.3333
19035TIP3    H178596   0.878   4.226   5.666 -1.1022  0.5661 -0.1098
19035TIP3    H278597   0.777   4.130   5.724  0.1442 -0.6410  0.1277
19036TIP3   OH278598   3.475   4.331   4.961  0.1954  0.7150 -0.3185
19036TIP3    H178599   3.480   4.252   4.907  1.1098 -0.2790  1.1471
19036TIP3    H278600   3.548   4.385   4.931 -0.6325  1.1930 -1.5560
19037TIP3   OH278601   4.972   2.043   5.120  0.1473  0.6171  0.2994
19037TIP3    H178602   5.059   2.005   5.124 -0.8440 -1.9690 -0.8284
19037TIP3    H278603   4.946   2.054   5.211  1.4027  0.8835  0.6432
19038TIP3   OH278604   2.447   0.053   3.396 -0.0652  0.0962  0.3033
19038TIP3    H178605   2.399   0.058   3.313 -0.2845 -0.7765  0.3661
19038TIP3    H278606   2.434  -0.037   3.425 -0.4578  0.5425  1.5757
19039TIP3   OH278607   5.309   3.113  12.614 -0.1260 -0.3868 -0.0167
19039TIP3    H178608   5.268   3.037  12.571 -1.4674  0.1084  0.3643
19039TIP3    H278609   5.307   3.182  12.547 -0.1949 -0.2720  0.1043
19040TIP3   OH278610   4.168   2.822   1.883 -0.2302 -0.3903  0.2800
19040TIP3    H178611   4.153   2.914   1.902 -1.3707 -0.6647  0.8072
19040TIP3    H278612   4.142   2.812   1.791 -2.5553 -0.6473  0.8978
19041TIP3   OH278613   0.523   2.878  16.907 -0.5478  0.3762 -0.1203
19041TIP3    H178614   0.461   2.870  16.834 -1.5187  1.1902  0.5807
19041TIP3    H278615   0.556   2.789  16.919 -2.3346 -0.3033  0.1094
19042TIP3   OH278616   1.636   4.027   2.448  0.0251 -0.4577 -0.1318
19042TIP3    H178617   1.720   4.073   2.445 -0.8985  1.7680  2.9447
19042TIP3    H278618   1.630   3.994   2.537 -1.9092 -1.6033 -0.6276
19043TIP3   OH278619   5.489   6.473   4.526 -0.5602  0.0874  0.0327
19043TIP3    H178620   5.567   6.430   4.491  1.0102  1.0454  2.0843
19043TIP3    H278621   5.425   6.470   4.455  0.9125 -1.8098 -1.3216
19044TIP3   OH278622   4.067   6.150   1.161 -0.0812 -0.3871 -0.0684
19044TIP3    H178623   4.104   6.067   1.132  0.3975 -0.2106  0.0237
19044TIP3    H278624   4.111   6.167   1.244  0.2360  0.2273 -0.3557
19045TIP3   OH278625   2.331   3.107  12.383  0.1561  0.2788  0.1673
19045TIP3    H178626   2.236   3.097  12.388 -0.0066  0.8988 -1.2037
19045TIP3    H278627   2.346   3.201  12.377  1.0613  0.4213  2.9766
19046TIP3   OH278628   5.751   0.854   3.025 -0.1556  0.2361  0.1494
19046TIP3    H178629   5.795   0.819   2.947  1.8896 -0.2634  1.4331
19046TIP3    H278630   5.788   0.942   3.035  1.0263 -0.3859  1.5426
19047TIP3   OH278631   0.726   1.581  11.478 -0.0407 -0.3718  0.3112
19047TIP3    H178632   0.816   1.574  11.510 -0.2884  0.6740  1.2769
19047TIP3    H278633   0.706   1.674  11.483 -0.9668 -0.5193 -0.5061
19048TIP3   OH278634   0.332   5.866  15.894  0.1677  0.2458  0.0743
19048TIP3    H178635   0.388   5.943  15.904  0.8969 -0.3039  0.3566
19048TIP3    H278636   0.321   5.857  15.799  1.1888 -0.0674 -0.0287
19049TIP3   OH278637   3.329   4.936   5.961  0.5237 -0.4764  0.9700
19049TIP3    H178638   3.253   4.950   6.017  1.4343  0.8892  1.9235
19049TIP3    H278639   3.319   4.847   5.928 -2.6327  0.3443 -0.7172
19050TIP3   OH278640   4.562   3.674  10.773 -0.7689  0.2922 -0.6820
19050TIP3    H178641   4.576   3.769  10.772  2.3344  0.0218  2.2841
19050TIP3    H278642   4.642   3.637  10.737 -0.5984 -1.1989  1.0816
19051TIP3   OH278643   2.587   3.609  16.119  0.1990  0.0819 -0.4326
19051TIP3    H178644   2.569   3.662  16.042  1.0446 -0.1817 -0.8256
19051TIP3    H278645   2.683   3.605  16.124  0.3301  2.5670  2.3140
19052TIP3   OH278646   4.200   0.613  17.010 -0.0570 -0.7324 -0.3205
19052TIP3    H178647   4.267   0.549  16.985  3.3116 -0.5017  6.0501
19052TIP3    H278648   4.248   0.696  17.018 -2.0521  0.3843  0.7264
19053TIP3   OH278649   6.599   0.289   6.572  0.2502  0.3025  0.2973
19053TIP3    H178650   6.654   0.362   6.544  1.1476 -0.1277  0.9137
19053TIP3    H278651   6.660   0.217   6.587 -0.5047 -0.2527  0.7598
19054TIP3   OH278652   4.597   4.177   0.400  0.0185 -0.3124  0.0734
19054TIP3    H178653   4.652   4.255   0.388 -0.1813 -0.4101 -1.9486
19054TIP3    H278654   4.637   4.130   0.473  0.4704  1.3915  0.9741
19055TIP3   OH278655   6.317   1.577   2.273 -0.1470 -0.3261  0.0121
19055TIP3    H178656   6.293   1.488   2.247 -0.8485  0.1397 -1.0370
19055TIP3    H278657   6.369   1.566   2.352  0.0187 -1.6849 -0.2584
19056TIP3   OH278658   6.202   3.640   1.911  0.1068  0.3715 -0.3684
19056TIP3    H178659   6.150   3.596   1.978  1.7949  0.4833  1.1084
19056TIP3    H278660   6.159   3.619   1.829  0.9032 -4.3508  0.1460
19057TIP3   OH278661   2.508   4.097   6.648  0.0604 -0.5227  0.2594
19057TIP3    H178662   2.483   4.099   6.556  1.3285 -0.2813 -0.0969
19057TIP3    H278663   2.438   4.047   6.690 -0.2995 -1.0508 -0.9099
19058TIP3   OH278664   3.019   0.468  11.806 -0.5268  0.0411  0.2444
19058TIP3    H178665   2.947   0.464  11.742  0.3643 -1.5303 -0.7382
19058TIP3    H278666   3.050   0.378  11.811 -0.4292  0.1530  2.7981
19059TIP3   OH278667   4.743   6.102  17.093  0.1679 -0.3691 -0.2541
19059TIP3    H178668   4.667   6.045  17.103 -0.0933  0.3235  2.6836
19059TIP3    H278669   4.706   6.190  17.094  0.9272 -0.0531  0.1589
19060TIP3   OH278670   2.813   4.917   4.285 -0.4017 -0.4333 -0.3178
19060TIP3    H178671   2.831   4.834   4.240 -0.0426  0.6680 -2.2842
19060TIP3    H278672   2.790   4.978   4.215  0.0766  1.3453  1.0164
19061TIP3   OH278673   4.106   2.907  12.107 -0.3033 -0.0172  0.8335
19061TIP3    H178674   4.091   2.909  12.013 -0.2528 -1.1241  0.7861
19061TIP3    H278675   4.200   2.918  12.117  0.1842 -3.0887  0.5318
19062TIP3   OH278676   5.081   5.564   0.189 -0.5004  0.4467  0.4394
19062TIP3    H178677   5.053   5.473   0.191 -1.7201  0.7061 -1.6307
19062TIP3    H278678   5.174   5.561   0.210 -0.2110 -1.4344 -0.8386
19063TIP3   OH278679   3.996   2.725  16.995 -0.0621  0.2673 -0.1066
19063TIP3    H178680   4.012   2.636  17.026  1.9107 -0.6627 -3.2610
19063TIP3    H278681   4.033   2.782  17.063  0.5314 -1.3913  1.0240
19064TIP3   OH278682   1.463   0.105  14.225 -0.1798  0.1771  0.2715
19064TIP3    H178683   1.391   0.168  14.217 -0.7283 -0.3013  1.2491
19064TIP3    H278684   1.423   0.020  14.208  0.1202 -0.1001  0.9143
19065TIP3   OH278685   0.460   5.411  15.432 -0.8535 -0.2401 -0.4151
19065TIP3    H178686   0.383   5.407  15.376 -1.8714  0.0854  0.9145
19065TIP3    H278687   0.439   5.476  15.499  1.0247  0.6938 -0.6368
19066TIP3   OH278688   4.640   4.173  11.487 -0.1755 -0.3206 -0.2425
19066TIP3    H178689   4.669   4.256  11.448  0.7481 -0.2727  0.4994
19066TIP3    H278690   4.671   4.106  11.426  0.0109 -0.1672 -0.3180
19067TIP3   OH278691   4.434   4.605  11.891  0.4006  0.5324 -0.0475
19067TIP3    H178692   4.457   4.610  11.799 -2.3207  1.2854 -0.7666
19067TIP3    H278693   4.365   4.539  11.896  1.5682 -0.6489  1.7394
19068TIP3   OH278694   4.085   6.462  11.071 -0.4581 -0.1103 -0.1226
19068TIP3    H178695   4.003   6.442  11.116 -1.4525  0.8854 -1.4167
19068TIP3    H278696   4.063   6.459  10.978  1.2185 -0.7670 -0.5405
19069TIP3   OH278697   4.397   4.059   3.920  0.3164 -0.0682 -0.1809
19069TIP3    H178698   4.462   4.019   3.977 -0.2750  2.1525  2.2229
19069TIP3    H278699   4.443   4.132   3.878 -0.1751  0.4805  0.2239
19070TIP3   OH278700   4.937   5.721  13.797  0.2765  0.1255 -0.0951
19070TIP3    H178701   5.015   5.757  13.838  0.0195 -1.0172  1.5233
19070TIP3    H278702   4.869   5.730  13.864 -0.9531  0.9674 -1.4164
19071TIP3   OH278703   0.602   5.725  17.523  0.1573 -0.1296 -0.4186
19071TIP3    H178704   0.593   5.667  17.447 -1.3183 -1.5612  0.7578
19071TIP3    H278705   0.648   5.672  17.588 -1.1697 -0.0015  0.6645
19072TIP3   OH278706   5.000   3.602   4.491 -0.0443 -0.6425  0.8107
19072TIP3    H178707   5.025   3.529   4.434 -1.9642 -0.3454 -0.5089
19072TIP3    H278708   5.074   3.663   4.486  0.4102 -1.2520 -0.2822
19073TIP3   OH278709   6.285   1.611  12.039  0.5718 -0.2757 -0.0985
19073TIP3    H178710   6.240   1.547  12.095 -0.1669  0.3727  0.0583
19073TIP3    H278711   6.378   1.589  12.048  0.4072 -0.6454  0.8138
19074TIP3   OH278712   3.904   5.905  15.216 -0.2153 -0.4589 -0.0149
19074TIP3    H178713   3.876   5.994  15.193 -0.8928 -0.6366  0.1012
19074TIP3    H278714   3.828   5.867  15.259  0.1019 -1.0719  0.0063
19075TIP3   OH278715   3.179   2.214  15.732 -0.0184  0.6851  0.1175
19075TIP3    H178716   3.123   2.162  15.673 -1.8019  1.5854  0.9232
19075TIP3    H278717   3.117   2.260  15.788  1.5923 -0.1744  2.7754
19076TIP3   OH278718   2.054   4.645   0.099  0.3522  0.1454  0.0272
19076TIP3    H178719   2.077   4.593   0.176  0.4112  2.1088  1.4149
19076TIP3    H278720   1.991   4.710   0.132  0.0494  0.7714 -1.6860
19077TIP3   OH278721   2.691   4.402   4.065 -0.0609  0.3730  0.2633
19077TIP3    H178722   2.701   4.464   3.993 -0.2093  1.4362  1.1298
19077TIP3    H278723   2.663   4.456   4.139  0.8844 -0.5629  1.3425
19078TIP3   OH278724   6.309   4.511   3.156  0.4310  0.1222 -0.4587
19078TIP3    H178725   6.322   4.480   3.066 -2.4546  0.0815 -0.9526
19078TIP3    H278726   6.293   4.605   3.147  0.3648  0.1604  0.0312
19079TIP3   OH278727   4.204   2.282   3.828 -0.3185 -0.2047 -0.3292
19079TIP3    H178728   4.270   2.285   3.759 -0.6621 -1.4482 -0.7294
19079TIP3    H278729   4.247   2.321   3.904  0.8038 -0.7957 -0.6425
19080TIP3   OH278730   4.970   1.456  12.600 -0.6517  0.4575 -0.0410
19080TIP3    H178731   5.017   1.520  12.653 -0.8942  0.5024  0.1188
19080TIP3    H278732   5.017   1.456  12.516  2.6621 -2.8634  1.5031
19081TIP3   OH278733   4.895   6.576   1.208 -0.1045 -0.0319 -0.5978
19081TIP3    H178734   4.843   6.533   1.276  0.0295  1.3796  0.4338
19081TIP3    H278735   4.830   6.604   1.143 -0.3659 -0.3945 -0.4953
19082TIP3   OH278736   4.989   0.506  12.474  0.2815  0.4159  0.5847
19082TIP3    H178737   5.025   0.474  12.391 -0.0475 -0.8443  0.9058
19082TIP3    H278738   5.066   0.523  12.529  0.4907 -1.8370  1.1113
19083TIP3   OH278739   5.007   2.662   4.317 -0.3719 -0.1313  0.3543
19083TIP3    H178740   5.096   2.696   4.315 -1.0716  1.7793 -0.3797
19083TIP3    H278741   5.008   2.590   4.254 -0.0073  1.7692 -1.9577
19084TIP3   OH278742   1.449   4.195  16.887 -0.0405 -0.1855  0.2036
19084TIP3    H178743   1.372   4.178  16.941 -0.7431 -0.3605 -0.8346
19084TIP3    H278744   1.429   4.276  16.841  1.4111  1.1135  1.6960
19085TIP3   OH278745   0.917   1.233   2.467  0.6890 -0.2198  0.3577
19085TIP3    H178746   0.981   1.212   2.399  1.5687  1.7059  0.5306
19085TIP3    H278747   0.919   1.157   2.526 -0.4941 -2.1876 -1.9726
19086TIP3   OH278748   1.757   6.419   0.971  0.0366  0.4838  0.0021
19086TIP3    H178749   1.699   6.452   0.903 -3.3731 -0.9499  1.9509
19086TIP3    H278750   1.713   6.441   1.053  1.3534 -2.1583  1.5619
19087TIP3   OH278751   2.154   3.728  13.263 -0.7558  0.0033  0.1000
19087TIP3    H178752   2.190   3.652  13.218 -0.5832  0.0267  0.1987
19087TIP3    H278753   2.173   3.713  13.355 -1.2453 -0.1178  0.1864
19088TIP3   OH278754   6.118   0.444   3.930 -0.1849  0.5381  0.6255
19088TIP3    H178755   6.144   0.407   3.846 -0.2040 -0.8108  1.1838
19088TIP3    H278756   6.023   0.458   3.922  0.2573  3.6276 -0.7230
19089TIP3   OH278757   6.293   3.884   1.821  0.0158  0.0329  0.1103
19089TIP3    H178758   6.210   3.931   1.806  0.2575  0.2531 -0.5704
19089TIP3    H278759   6.266   3.796   1.845 -0.4196  0.0598 -0.2584
19090TIP3   OH278760   1.407   5.057   1.487 -0.3958  0.5313  0.0394
19090TIP3    H178761   1.460   5.039   1.409 -1.1778  3.0311 -1.1595
19090TIP3    H278762   1.361   4.975   1.504  1.3545 -0.7112 -0.8264
19091TIP3   OH278763   5.762   5.148  15.666 -0.3942 -0.0511 -0.8442
19091TIP3    H178764   5.790   5.239  15.655 -1.5938  0.1665 -2.6097
19091TIP3    H278765   5.843   5.099  15.681  0.0907  1.5446  2.6585
19092TIP3   OH278766   4.305   1.177   4.436 -0.1460 -0.6674 -0.0048
19092TIP3    H178767   4.228   1.169   4.380 -0.5527  2.5281 -0.0936
19092TIP3    H278768   4.347   1.258   4.408  1.6007 -0.7569  2.0422
19093TIP3   OH278769   0.066   6.071   0.619 -0.8158  0.2297 -0.4088
19093TIP3    H178770   0.016   6.013   0.676 -3.1460  0.5554 -1.9704
19093TIP3    H278771   0.009   6.148   0.609  0.0155  0.6470 -2.2308
19094TIP3   OH278772   1.180   5.884   6.592  0.1870  0.1969  0.1405
19094TIP3    H178773   1.201   5.960   6.647 -0.1930  0.1691  0.3282
19094TIP3    H278774   1.249   5.883   6.526  1.3322 -0.4473  1.2971
19095TIP3   OH278775   5.562   3.151  11.598  0.2895 -0.1658  0.3195
19095TIP3    H178776   5.480   3.196  11.577  0.6602 -0.8412 -3.2015
19095TIP3    H278777   5.535   3.069  11.640 -0.6983  0.3638  0.7558
19096TIP3   OH278778   6.255   2.030  13.708 -0.1421  0.3941 -0.1336
19096TIP3    H178779   6.269   2.073  13.624 -0.8607 -0.3020 -0.6300
19096TIP3    H278780   6.288   1.941  13.696  0.8267  0.6146  0.7061
19097TIP3   OH278781   2.674   1.728   2.190 -0.0354  0.4696 -0.5379
19097TIP3    H178782   2.712   1.728   2.102  1.8967  0.0276  0.2233
19097TIP3    H278783   2.653   1.819   2.207 -0.2690  0.5861 -1.3852
19098TIP3   OH278784   0.944   6.525   5.300  0.3671 -0.1251 -0.0607
19098TIP3    H178785   0.984   6.481   5.225  0.2851 -0.2595 -0.0260
19098TIP3    H278786   0.898   6.455   5.348  0.3587 -0.0284  0.0746
19099TIP3   OH278787   1.966   0.101   4.138 -0.6414 -0.2568  0.6786
19099TIP3    H178788   1.923   0.084   4.054 -1.4195  0.2016  0.9716
19099TIP3    H278789   1.898   0.083   4.204 -0.0643 -0.5429  1.2119
19100TIP3   OH278790   2.713   6.069   0.123 -0.3956 -0.2792 -0.4796
19100TIP3    H178791   2.653   6.028   0.186  0.1385  0.4426  0.5393
19100TIP3    H278792   2.674   6.155   0.106  1.4987  1.2894  2.1609
19101TIP3   OH278793   1.828   1.184  12.829  0.3560 -1.0302  0.2986
19101TIP3    H178794   1.847   1.199  12.736  0.4877 -0.7130  0.3745
19101TIP3    H278795   1.753   1.240  12.848  0.0040 -1.4846  0.2599
19102TIP3   OH278796   1.540   5.696  10.812 -0.3580  0.0123 -0.5787
19102TIP3    H178797   1.546   5.669  10.904  1.4224 -1.2415 -0.9959
19102TIP3    H278798   1.447   5.699  10.794 -0.7329 -0.3324  1.1044
19103TIP3   OH278799   4.735   5.344   1.038 -0.3598  0.1000  0.2803
19103TIP3    H178800   4.805   5.409   1.035  1.0751 -1.4043 -1.1460
19103TIP3    H278801   4.772   5.270   1.086 -1.1795 -0.5008  0.0159
19104TIP3   OH278802   5.570   3.617   4.726 -0.0259 -0.2283  0.0369
19104TIP3    H178803   5.543   3.526   4.737 -2.1781 -0.0971 -2.8470
19104TIP3    H278804   5.500   3.656   4.672  0.8177  3.1461  1.1545
19105TIP3   OH278805   4.683   3.701   4.895  0.7615 -0.0528 -0.3591
19105TIP3    H178806   4.731   3.623   4.924  1.4246  0.2280 -0.6961
19105TIP3    H278807   4.705   3.709   4.802 -1.2812 -0.9068 -0.9805
19106TIP3   OH278808   6.202   6.212  11.698  0.3289  0.2420  0.1442
19106TIP3    H178809   6.147   6.247  11.768  1.5786  2.2235  0.2109
19106TIP3    H278810   6.156   6.235  11.618 -1.2067 -2.2022  0.2072
19107TIP3   OH278811   2.329   4.405  16.554 -0.3771 -0.4818 -0.2250
19107TIP3    H178812   2.359   4.477  16.498 -0.8480  0.7837  1.0942
19107TIP3    H278813   2.390   4.333  16.535  0.4695  0.4466 -1.1530
19108TIP3   OH278814   6.007   0.700   6.612  0.7455  0.2458  0.6977
19108TIP3    H178815   6.043   0.754   6.541  1.5699 -1.9468 -0.6363
19108TIP3    H278816   5.942   0.757   6.654 -0.9057  1.2133 -2.7821
19109TIP3   OH278817   5.562   0.608  11.757  0.2097 -0.2718 -0.2645
19109TIP3    H178818   5.598   0.696  11.745  2.2483 -1.0418 -0.3314
19109TIP3    H278819   5.579   0.564  11.673  0.1704 -1.0329  0.1164
19110TIP3   OH278820   3.556   3.020   2.970 -0.2220 -0.5213  0.3625
19110TIP3    H178821   3.520   3.026   3.059  2.4375 -0.9182  1.5819
19110TIP3    H278822   3.558   2.926   2.951  0.6127 -0.5457  0.5387
19111TIP3   OH278823   4.006   1.367   3.178  0.1715  0.6012 -0.0046
19111TIP3    H178824   3.968   1.447   3.141 -0.6369  0.3935  0.3541
19111TIP3    H278825   4.100   1.374   3.159 -0.1002  0.8829 -1.3514
19112TIP3   OH278826   3.257   2.944  17.260  0.5568  0.0782 -0.1964
19112TIP3    H178827   3.193   2.893  17.210  0.3677 -1.0721  1.1591
19112TIP3    H278828   3.340   2.899  17.247  0.1905 -1.3661  1.9355
19113TIP3   OH278829   0.796   0.469  17.071  0.3637  0.3951 -0.0530
19113TIP3    H178830   0.770   0.535  17.006  1.4588  1.7916  0.8532
19113TIP3    H278831   0.874   0.507  17.113  0.5438 -1.1338  1.0625
19114TIP3   OH278832   4.710   2.025  11.922 -0.4750 -0.1202 -0.0947
19114TIP3    H178833   4.770   2.037  11.848  0.7840 -0.9031  0.7613
19114TIP3    H278834   4.760   1.973  11.985 -2.0191 -0.6475  0.7271
19115TIP3   OH278835   2.415   0.347  14.434  0.0728 -0.2673 -0.2390
19115TIP3    H178836   2.473   0.406  14.385  0.6770 -1.4422 -0.9824
19115TIP3    H278837   2.338   0.400  14.453  0.5943  0.7628 -0.8750
19116TIP3   OH278838   6.075   4.019   1.738 -0.3537  0.3369  0.2810
19116TIP3    H178839   5.992   3.981   1.766  0.6320 -0.9535  1.5272
19116TIP3    H278840   6.082   3.996   1.645 -1.3086  0.3455  0.1982
19117TIP3   OH278841   3.544   0.384   1.250 -0.0082 -0.0386  0.2785
19117TIP3    H178842   3.617   0.334   1.287  0.9677  1.5001  0.5588
19117TIP3    H278843   3.499   0.421   1.327  0.3420  0.9077  0.0415
19118TIP3   OH278844   2.457   5.560   4.143 -0.6655 -0.1272  0.5987
19118TIP3    H178845   2.371   5.602   4.144 -0.2116  0.8520  0.1000
19118TIP3    H278846   2.458   5.509   4.062 -0.2270  1.1092 -0.2103
19119TIP3   OH278847   3.049   0.081  16.017 -0.3695 -0.3771 -0.2019
19119TIP3    H178848   3.142   0.093  16.033  0.1113 -1.6610 -1.6857
19119TIP3    H278849   3.008   0.164  16.043  1.3073  0.5598 -0.4524
19120TIP3   OH278850   5.400   1.457  16.692 -0.2459 -0.2461  0.2225
19120TIP3    H178851   5.439   1.541  16.668  2.0548 -1.1558  0.5160
19120TIP3    H278852   5.307   1.467  16.673  0.3844  1.3896 -2.4286
19121TIP3   OH278853   4.003   5.972  13.453 -0.4674  0.5939  0.1549
19121TIP3    H178854   3.956   6.039  13.502  0.2302 -2.0014  4.9364
19121TIP3    H278855   4.095   5.987  13.475 -0.2496 -1.4770  0.8153
19122TIP3   OH278856   2.340   2.788   5.693 -0.0504 -0.0952 -0.3908
19122TIP3    H178857   2.336   2.877   5.660 -0.2758  0.3530  0.7729
19122TIP3    H278858   2.280   2.738   5.639 -1.3845  0.8824  0.1458
19123TIP3   OH278859   1.286   3.991  12.903  0.1575  0.0605 -0.3330
19123TIP3    H178860   1.295   4.008  12.997  0.5508  1.5512 -0.6236
19123TIP3    H278861   1.373   4.006  12.867 -0.6685  2.8962 -1.4040
19124TIP3   OH278862   0.826   5.744  14.212 -0.2163  0.3015 -0.1526
19124TIP3    H178863   0.827   5.822  14.157 -0.2611  0.9056  0.6861
19124TIP3    H278864   0.911   5.744  14.256 -0.7862  0.7035  0.9708
19125TIP3   OH278865   6.521   3.031  11.924  0.2427  0.3236 -0.2042
19125TIP3    H178866   6.537   2.972  11.850  0.0650 -0.8393  0.6558
19125TIP3    H278867   6.447   3.085  11.895 -1.2095 -1.5039 -0.1437
19126TIP3   OH278868   6.101   4.585   5.843  0.5508 -0.1769 -0.0804
19126TIP3    H178869   6.157   4.613   5.915  1.2738  0.0619 -0.7278
19126TIP3    H278870   6.055   4.665   5.816 -0.9477 -0.5740  1.1512
19127TIP3   OH278871   4.211   0.360   0.924  0.0318 -1.0527  0.2738
19127TIP3    H178872   4.130   0.404   0.947 -0.0012  0.1514 -1.8487
19127TIP3    H278873   4.280   0.413   0.965 -0.1840 -1.2729  0.9259
19128TIP3   OH278874   2.609   4.248   1.544  0.0380 -0.4482  0.2357
19128TIP3    H178875   2.672   4.249   1.472 -1.5699  1.0850 -1.2269
19128TIP3    H278876   2.562   4.166   1.533 -0.3849 -0.0977 -0.6639
19129TIP3   OH278877   3.173   0.996   2.367  0.1291  0.4439 -0.2741
19129TIP3    H178878   3.202   1.056   2.298 -2.7162  2.1760 -0.1123
19129TIP3    H278879   3.132   0.924   2.320  0.5410  0.2816 -0.3971
19130TIP3   OH278880   2.574   5.423   0.512 -0.6867  0.0023  0.3157
19130TIP3    H178881   2.637   5.487   0.479 -0.0950 -1.0474 -0.6417
19130TIP3    H278882   2.509   5.476   0.559  0.1822  1.2269  0.1932
19131TIP3   OH278883   3.853   4.826   6.153 -0.0938 -0.4494 -0.4310
19131TIP3    H178884   3.846   4.823   6.248 -0.6550  0.1059 -0.4481
19131TIP3    H278885   3.925   4.767   6.132  0.2738 -0.2931  0.3641
19132TIP3   OH278886   6.120   0.170   4.613  0.1287  0.1961 -0.2897
19132TIP3    H178887   6.079   0.088   4.641 -0.8491  0.9348  0.5500
19132TIP3    H278888   6.175   0.195   4.687  1.9874 -0.6682 -1.3189
19133TIP3   OH278889   3.225   4.108   2.129 -0.1030 -0.4340 -0.3336
19133TIP3    H178890   3.303   4.067   2.092  0.2625  0.5613 -0.7259
19133TIP3    H278891   3.212   4.065   2.213  2.4606  1.1623  0.9964
19134TIP3   OH278892   0.685   6.110   0.285  0.5396 -0.3741  0.1082
19134TIP3    H178893   0.692   6.057   0.364  1.1302  0.2609  0.4920
19134TIP3    H278894   0.599   6.087   0.248  1.6012 -3.1045 -0.8669
19135TIP3   OH278895   0.572   2.469   4.921 -0.0329 -0.0890 -0.4978
19135TIP3    H178896   0.606   2.405   4.859  0.2155  1.6916 -2.2862
19135TIP3    H278897   0.497   2.509   4.877  0.3210  1.4393  0.1981
19136TIP3   OH278898   3.175   2.309   2.554 -0.7416  0.2076 -0.0485
19136TIP3    H178899   3.228   2.255   2.494 -0.7531  0.9065 -0.7023
19136TIP3    H278900   3.216   2.296   2.639 -0.2070 -0.1549 -0.3472
19137TIP3   OH278901   5.916   1.417   6.762 -0.6093  0.3002 -0.1047
19137TIP3    H178902   5.960   1.378   6.837  0.0860 -0.2534 -0.8009
19137TIP3    H278903   5.904   1.346   6.700 -1.2142  0.7463 -0.5202
19138TIP3   OH278904   0.686   4.035   4.169  0.1323  0.2196  0.5764
19138TIP3    H178905   0.715   4.111   4.218  0.9742  0.8395 -0.8051
19138TIP3    H278906   0.595   4.021   4.196 -1.6182  4.4115 -2.2021
19139TIP3   OH278907   2.533   3.746  11.936 -0.5280 -0.2658  0.3809
19139TIP3    H178908   2.536   3.665  11.988  0.1880 -1.6867 -1.7612
19139TIP3    H278909   2.599   3.734  11.869  0.0591  2.4364  0.3826
19140TIP3   OH278910   4.833   5.265   2.055 -0.5476 -0.6308 -0.1300
19140TIP3    H178911   4.797   5.297   2.138 -0.1258 -0.4778  0.0014
19140TIP3    H278912   4.855   5.345   2.006 -1.5464 -0.7126 -0.7371
19141TIP3   OH278913   5.802   5.136  16.711 -0.1309  0.1517  0.3029
19141TIP3    H178914   5.732   5.190  16.674 -1.8896 -1.8654  0.4882
19141TIP3    H278915   5.818   5.174  16.797  0.1713  1.6008 -0.3549
19142TIP3   OH278916   5.396   4.104   2.003 -0.4774 -0.2553 -0.5049
19142TIP3    H178917   5.477   4.093   1.954 -0.2010 -0.4876  0.0084
19142TIP3    H278918   5.371   4.195   1.986  1.0833  0.5312  1.1355
19143TIP3   OH278919   3.115   6.313  14.329 -0.1208  0.3494  0.2155
19143TIP3    H178920   3.090   6.311  14.237 -0.9870 -0.1134  0.4486
19143TIP3    H278921   3.096   6.403  14.357  2.7471  1.3891 -0.7043
19144TIP3   OH278922   3.908   0.417  11.589 -0.8204  0.3223 -0.5276
19144TIP3    H178923   3.993   0.438  11.627  0.3985 -3.2493 -0.9864
19144TIP3    H278924   3.912   0.452  11.500 -0.1543  0.8235 -0.3067
19145TIP3   OH278925   0.821   5.727   0.677  0.3481 -0.0784  0.2526
19145TIP3    H178926   0.888   5.781   0.635 -0.3265  0.4104 -0.2116
19145TIP3    H278927   0.866   5.688   0.753  0.4677  2.3039  1.4909
19146TIP3   OH278928   1.654   2.047  11.979  0.1118  0.8738  0.0793
19146TIP3    H178929   1.612   2.112  12.035 -1.1802  1.4604 -1.4882
19146TIP3    H278930   1.745   2.074  11.974 -0.2093  2.0296  0.2137
19147TIP3   OH278931   2.202   3.557  12.902 -0.2546  0.0291  0.0322
19147TIP3    H178932   2.172   3.473  12.866  0.8281  0.3205 -1.6685
19147TIP3    H278933   2.149   3.622  12.856  0.8118  0.3909 -0.7241
19148TIP3   OH278934   4.252   3.614  12.936 -0.4664 -0.1436 -0.2324
19148TIP3    H178935   4.233   3.636  13.027  0.4664 -2.6195  0.6452
19148TIP3    H278936   4.313   3.681  12.907 -1.7564  1.4108  0.5269
19149TIP3   OH278937   4.297   6.269  12.627 -0.1104  0.1000 -0.0378
19149TIP3    H178938   4.326   6.342  12.683 -0.0515  1.5210 -1.8099
19149TIP3    H278939   4.377   6.233  12.591 -0.2426  0.3430 -0.5745
19150TIP3   OH278940   4.612   0.166  14.231 -0.0545  0.4558  0.1158
19150TIP3    H178941   4.692   0.189  14.279 -0.7418  1.1241  0.9830
19150TIP3    H278942   4.588   0.247  14.185 -0.3360  0.3173  0.0183
19151TIP3   OH278943   2.185   3.742   3.855  0.5066 -0.1560 -0.1136
19151TIP3    H178944   2.152   3.720   3.767  1.6728 -0.1416 -0.5700
19151TIP3    H278945   2.122   3.806   3.888  0.2955  0.1897 -1.1337
19152TIP3   OH278946   5.797   3.446   2.541  0.3652 -0.1051  0.3916
19152TIP3    H178947   5.890   3.436   2.559  0.3903  0.3430  0.5338
19152TIP3    H278948   5.778   3.381   2.474  0.9875  0.4330 -0.3214
19153TIP3   OH278949   1.946   3.046   1.238 -0.5728 -0.0093 -0.2575
19153TIP3    H178950   2.003   2.973   1.263 -0.7425 -0.3401 -0.8236
19153TIP3    H278951   1.892   3.062   1.315  1.7077  1.7263  1.1154
19154TIP3   OH278952   4.349   1.881  13.535 -0.4262 -0.4063  0.4251
19154TIP3    H178953   4.387   1.943  13.597 -0.4238 -0.5815  0.6026
19154TIP3    H278954   4.294   1.824  13.589 -1.1159 -0.0230  0.1421
19155TIP3   OH278955   1.042   0.175   3.582 -0.0475 -0.5414 -0.0419
19155TIP3    H178956   1.045   0.209   3.671  1.9541 -0.6569 -0.0260
19155TIP3    H278957   1.042   0.080   3.592 -1.2873 -0.5766 -0.1710
19156TIP3   OH278958   1.662   5.882   1.038 -0.5361 -0.4297 -0.7881
19156TIP3    H178959   1.631   5.880   1.129  1.9900 -0.2115  0.1528
19156TIP3    H278960   1.649   5.793   1.007 -0.3080 -0.8382  0.2237
19157TIP3   OH278961   6.486   0.181  10.878  0.4313  0.3039 -0.2050
19157TIP3    H178962   6.572   0.190  10.919  0.8927 -0.3404 -1.0129
19157TIP3    H278963   6.461   0.270  10.855  1.5142  0.3648 -1.2232
19158TIP3   OH278964   2.027   3.102   6.349  0.4580 -0.0344 -0.1013
19158TIP3    H178965   2.102   3.110   6.290  0.0858  0.7052 -0.4937
19158TIP3    H278966   2.030   3.012   6.379  0.1912 -0.6848 -1.8908
19159TIP3   OH278967   3.386   0.776  15.709 -0.0806 -0.8611 -0.1962
19159TIP3    H178968   3.298   0.790  15.673 -0.2295  1.5306  0.9060
19159TIP3    H278969   3.438   0.848  15.675  0.7759 -0.7936  1.1700
19160TIP3   OH278970   3.252   3.689  15.236  0.3692 -0.4840 -0.4815
19160TIP3    H178971   3.161   3.717  15.228  0.4507 -0.0929 -0.1039
19160TIP3    H278972   3.303   3.762  15.201  0.6302  0.3607  1.5038
19161TIP3   OH278973   0.519   0.542   2.743 -0.1405  0.4363  0.0771
19161TIP3    H178974   0.512   0.461   2.693  0.6630  1.6378 -2.0921
19161TIP3    H278975   0.594   0.528   2.801  1.5144  0.4202 -1.9729
19162TIP3   OH278976   1.871   3.858   0.161 -0.4060 -0.0757 -0.4674
19162TIP3    H178977   1.932   3.843   0.233 -2.1734  0.6798  1.2664
19162TIP3    H278978   1.892   3.790   0.097  0.3478 -1.6400  1.3608
19163TIP3   OH278979   5.444   6.153   5.577  0.0180 -0.5038  0.3219
19163TIP3    H178980   5.431   6.220   5.645  0.3386  1.0001 -1.0172
19163TIP3    H278981   5.539   6.147   5.568 -0.0222 -0.8361  0.1432
19164TIP3   OH278982   5.504   0.725   1.016 -0.2012 -0.0200 -0.2140
19164TIP3    H178983   5.479   0.812   0.985 -1.2939  0.2662  1.3850
19164TIP3    H278984   5.440   0.666   0.977 -1.0627  0.2325  0.8015
19165TIP3   OH278985   3.872   5.416  13.261  0.0294  0.6044  0.2500
19165TIP3    H178986   3.964   5.429  13.242 -0.3554  0.4309 -1.9929
19165TIP3    H278987   3.830   5.497  13.231 -0.7927 -0.2501 -0.9948
19166TIP3   OH278988   6.349   2.678   6.608 -0.0113  0.3503  0.1749
19166TIP3    H178989   6.262   2.639   6.612 -0.3845  1.1016 -0.3142
19166TIP3    H278990   6.394   2.632   6.538  0.0570 -0.1789  0.5650
19167TIP3   OH278991   5.770   4.868   0.016 -0.0711  0.2282  0.0375
19167TIP3    H178992   5.682   4.848   0.048 -0.6891  0.5000 -1.4154
19167TIP3    H278993   5.756   4.918  -0.064  1.4112  0.0058 -0.3946
19168TIP3   OH278994   4.135   3.081   5.543  0.0800  0.3480 -0.3215
19168TIP3    H178995   4.122   3.030   5.622  1.8343  0.9966  0.4489
19168TIP3    H278996   4.062   3.058   5.486  0.3636 -2.3877  0.2865
19169TIP3   OH278997   0.101   1.959   6.216  0.0642  0.4049  0.6542
19169TIP3    H178998   0.061   1.873   6.231 -1.0237  0.3614 -1.9552
19169TIP3    H278999   0.184   1.955   6.262 -0.4788 -1.6100  1.5851
19170TIP3   OH279000   5.151   0.451   5.765 -0.3699 -0.2775 -0.4252
19170TIP3    H179001   5.092   0.411   5.702 -0.7452  0.1827 -0.3723
19170TIP3    H279002   5.217   0.496   5.712  0.3681 -1.3851 -0.4905
19171TIP3   OH279003   0.921   5.832  17.371 -0.5547 -0.2703  1.0013
19171TIP3    H179004   1.013   5.849  17.350 -1.0067  1.1972  0.0621
19171TIP3    H279005   0.882   5.806  17.288 -1.2697  0.4605  1.0968
19172TIP3   OH279006   5.265   1.368   3.034  0.2191 -0.8540  0.2295
19172TIP3    H179007   5.194   1.422   3.066  1.4386  0.2137  1.2443
19172TIP3    H279008   5.275   1.393   2.942 -0.7162 -1.0461  0.0675
19173TIP3   OH279009   3.844   2.891  12.541 -0.6404 -0.3205 -0.0543
19173TIP3    H179010   3.797   2.902  12.458  1.7134 -0.7455 -1.5264
19173TIP3    H279011   3.781   2.917  12.607 -2.0921  1.6545 -2.0655
19174TIP3   OH279012   0.910   2.700  11.627  0.6890 -0.1411  0.8403
19174TIP3    H179013   0.889   2.636  11.559  0.4843  1.7453 -0.9627
19174TIP3    H279014   1.006   2.702  11.629  0.7274  0.7657 -0.4372
19175TIP3   OH279015   1.154   0.725   4.178  0.7823 -0.2958  0.4055
19175TIP3    H179016   1.178   0.705   4.088 -1.6872  1.1991 -0.7057
19175TIP3    H279017   1.154   0.641   4.223  0.4666 -1.3213 -1.4269
19176TIP3   OH279018   0.424   2.336  11.485 -0.2448  0.0341  0.2796
19176TIP3    H179019   0.356   2.351  11.551  0.4993  1.7246  0.7089
19176TIP3    H279020   0.498   2.301  11.534  0.3615  1.4325  0.4015
19177TIP3   OH279021   2.780   3.980  14.784 -0.1979  0.3088  0.5248
19177TIP3    H179022   2.736   3.895  14.784  0.2462  0.0628 -0.9670
19177TIP3    H279023   2.766   4.014  14.873 -0.4737 -1.2637  1.1112
19178TIP3   OH279024   0.865   4.770  12.438 -0.2030 -0.1663  0.0856
19178TIP3    H179025   0.843   4.860  12.463  0.0841  0.0787 -0.5198
19178TIP3    H279026   0.820   4.757  12.354  1.5621  0.2023 -0.9742
19179TIP3   OH279027   0.365   2.062  12.167 -0.1495  0.2385  0.4587
19179TIP3    H179028   0.383   2.129  12.233  0.3707 -0.0818  0.6395
19179TIP3    H279029   0.358   2.111  12.085 -0.4707  0.5964  0.6943
19180TIP3   OH279030   4.362   4.730   5.934  0.2494  0.0989  0.0130
19180TIP3    H179031   4.445   4.723   5.887  0.1470  0.5481 -0.2433
19180TIP3    H279032   4.300   4.682   5.879  0.1561  0.5169 -0.2531
19181TIP3   OH279033   2.742   5.003   5.405  0.7879 -0.1057 -0.4079
19181TIP3    H179034   2.680   4.945   5.449 -2.2176  2.7130 -0.5201
19181TIP3    H279035   2.792   4.946   5.347 -2.7693 -2.4782 -1.4740
19182TIP3   OH279036   2.096   6.544  12.309 -0.3910 -0.6593 -0.0270
19182TIP3    H179037   2.119   6.479  12.242  0.9278  0.7076 -0.9499
19182TIP3    H279038   2.056   6.492  12.379 -0.2233 -2.3509 -1.1216
19183TIP3   OH279039   0.810   5.450  15.761  0.5119  0.2005 -0.6237
19183TIP3    H179040   0.904   5.439  15.752  0.4435 -1.0008 -0.0364
19183TIP3    H279041   0.773   5.401  15.687  0.2919 -1.4686  0.5320
19184TIP3   OH279042   3.927   0.305   5.402 -0.1522  0.1698  0.4108
19184TIP3    H179043   3.926   0.334   5.493 -0.6659  0.7755  0.2212
19184TIP3    H279044   4.020   0.295   5.382  0.0314  1.1899  0.6537
19185TIP3   OH279045   3.705   2.714   4.307 -0.1016  0.4105  0.2990
19185TIP3    H179046   3.786   2.737   4.261 -0.2075  0.1470 -0.0290
19185TIP3    H279047   3.696   2.780   4.376 -0.2876  1.2288 -0.4825
19186TIP3   OH279048   3.135   3.727   4.298 -0.3681  0.3777  0.0369
19186TIP3    H179049   3.112   3.703   4.208  0.4187 -1.0121  0.1808
19186TIP3    H279050   3.110   3.652   4.351  2.2242 -0.2597  0.4959
19187TIP3   OH279051   6.538   4.190  15.194 -0.2012  0.2108 -0.0977
19187TIP3    H179052   6.578   4.103  15.182 -2.0513 -0.5759 -0.9031
19187TIP3    H279053   6.602   4.250  15.156  0.0471 -1.0487 -1.8394
19188TIP3   OH279054   5.029   4.273  14.503 -0.3106 -0.3666 -0.1003
19188TIP3    H179055   5.107   4.219  14.512  0.1806  0.2766 -0.4733
19188TIP3    H279056   5.061   4.357  14.471 -1.2331 -0.3226 -0.9600
19189TIP3   OH279057   4.996   6.527  10.922 -0.0782 -0.2371 -0.0955
19189TIP3    H179058   4.935   6.585  10.876 -2.3315 -3.4856 -1.6605
19189TIP3    H279059   4.949   6.501  11.001  1.9934  1.8868  2.0112
19190TIP3   OH279060   6.462   5.233   0.216  0.0728  0.3415 -0.3939
19190TIP3    H179061   6.460   5.235   0.312 -0.3996  4.1050 -0.3282
19190TIP3    H279062   6.553   5.213   0.194  0.5866  1.0768  0.9216
19191TIP3   OH279063   6.219   4.692  14.205  0.3224 -0.7810  0.3549
19191TIP3    H179064   6.302   4.678  14.250 -0.0316  0.8425  1.5858
19191TIP3    H279065   6.199   4.608  14.164  2.1946 -1.4033  0.6534
19192TIP3   OH279066   5.810   5.733   2.778  0.3244 -0.3465 -0.1464
19192TIP3    H179067   5.832   5.815   2.823 -0.4393 -0.2947  0.1475
19192TIP3    H279068   5.726   5.751   2.735  1.2136 -0.2671 -1.9553
19193TIP3   OH279069   5.727   4.517   1.379  0.2903 -0.1777 -0.5481
19193TIP3    H179070   5.797   4.540   1.439 -0.7288  0.6910  0.3483
19193TIP3    H279071   5.696   4.600   1.345  0.4894 -0.6311 -1.8833
19194TIP3   OH279072   5.942   4.487   0.224 -0.3762 -0.3582 -0.1033
19194TIP3    H179073   5.906   4.434   0.153 -0.9879 -0.8549  0.5678
19194TIP3    H279074   5.929   4.577   0.195 -2.0602 -0.5235  0.0533
19195TIP3   OH279075   4.275   4.130  16.753 -0.4666 -0.1942 -0.5079
19195TIP3    H179076   4.244   4.166  16.837 -3.2623 -1.8338 -0.7228
19195TIP3    H279077   4.283   4.206  16.696  0.7526  0.8697  0.9935
19196TIP3   OH279078   1.821   3.380   4.776  0.6435 -0.9330  0.7978
19196TIP3    H179079   1.867   3.402   4.695 -0.4060  1.8846  0.8214
19196TIP3    H279080   1.759   3.312   4.751  1.1162 -0.9080 -0.5156
19197TIP3   OH279081   0.975   4.490   0.141 -0.1024 -0.3490  0.0728
19197TIP3    H179082   0.948   4.518   0.054  1.0758  0.2666 -0.1159
19197TIP3    H279083   0.991   4.572   0.189  0.9723 -0.6717  0.2948
19198TIP3   OH279084   2.044   1.165   0.418  0.3065 -0.1854  0.3606
19198TIP3    H179085   2.030   1.259   0.404  1.0422 -0.1641 -0.2686
19198TIP3    H279086   2.119   1.160   0.476 -0.2204 -0.3770  1.0391
19199TIP3   OH279087   5.148   4.477   4.206 -0.2510  0.2820  0.5169
19199TIP3    H179088   5.196   4.523   4.275  0.8795  0.1468 -0.1502
19199TIP3    H279089   5.096   4.545   4.163 -1.0022  0.3584  1.5107
19200TIP3   OH279090   3.746   5.932   5.039 -0.3254 -0.3632  0.1448
19200TIP3    H179091   3.816   5.867   5.044  0.1300  0.1510  0.5867
19200TIP3    H279092   3.734   5.962   5.130  0.0605  0.7757 -0.1634
19201TIP3   OH279093   3.233   4.523   1.860  0.2028  0.4248 -0.2585
19201TIP3    H179094   3.253   4.464   1.787 -1.0361  0.3823 -0.5888
19201TIP3    H279095   3.242   4.469   1.938  0.7154  0.2506 -0.4302
19202TIP3   OH279096   1.643   6.087   2.115  0.0736 -0.1799 -0.2979
19202TIP3    H179097   1.549   6.101   2.132  0.0418  0.6139 -1.0685
19202TIP3    H279098   1.672   6.031   2.187 -1.3285 -1.7163 -0.8649
19203TIP3   OH279099   0.183   0.901   3.391 -0.1357  0.6672  0.1250
19203TIP3    H179100   0.207   0.952   3.314 -1.3235  1.1855  0.0741
19203TIP3    H279101   0.125   0.959   3.441 -1.8826 -0.7499 -0.1515
19204TIP3   OH279102   3.724   3.127   5.255  0.8594  0.5148 -0.1528
19204TIP3    H179103   3.663   3.053   5.255  0.7400  0.6143 -0.3077
19204TIP3    H279104   3.674   3.201   5.221  1.4686  0.2510 -1.7104
19205TIP3   OH279105   1.182   4.408   3.391  0.5053 -0.0890  0.6065
19205TIP3    H179106   1.136   4.392   3.473  0.6570  0.0177  0.7135
19205TIP3    H279107   1.242   4.334   3.382 -2.1620 -2.2105 -1.3336
19206TIP3   OH279108   1.502   1.676  17.378 -0.9365 -0.1437  0.0101
19206TIP3    H179109   1.532   1.589  17.405 -0.6273 -0.2413 -0.6331
19206TIP3    H279110   1.441   1.703  17.447  0.8698  0.2146  1.5622
19207TIP3   OH279111   0.152   0.237  13.672 -0.0706  0.4168  0.3443
19207TIP3    H179112   0.109   0.198  13.747  0.5009 -0.3256  0.2954
19207TIP3    H279113   0.086   0.235  13.602  0.2499 -1.4033  0.0485
19208TIP3   OH279114   0.578   1.920   2.170 -0.3267  0.1028 -0.4545
19208TIP3    H179115   0.617   1.833   2.156 -3.1016 -1.1697 -1.1257
19208TIP3    H279116   0.559   1.922   2.264  1.9162  1.0689  0.0374
19209TIP3   OH279117   5.096   0.560  13.238  0.0816 -0.5639 -0.0388
19209TIP3    H179118   5.058   0.511  13.311 -3.6412  0.6729 -0.9563
19209TIP3    H279119   5.085   0.652  13.263  0.1805 -0.1430 -1.4657
19210TIP3   OH279120   3.865   4.320  12.157  0.4671  0.1542 -0.3124
19210TIP3    H179121   3.931   4.359  12.100  1.3437 -0.7572  0.0569
19210TIP3    H279122   3.844   4.236  12.116 -2.5375  1.5360 -1.9579
19211TIP3   OH279123   1.915   0.980  11.817  0.2396 -0.1886  0.3729
19211TIP3    H179124   1.954   0.969  11.731  1.3198  0.6526  0.7336
19211TIP3    H279125   1.849   0.910  11.823 -1.2921  0.9386 -1.9038
19212TIP3   OH279126   6.723   2.622  15.202  0.1387 -0.4181 -0.1896
19212TIP3    H179127   6.771   2.672  15.136 -1.9871 -0.4952 -1.9319
19212TIP3    H279128   6.721   2.533  15.168 -2.2400 -0.1760 -0.9023
19213TIP3   OH279129   3.137   4.115  15.699 -0.1556 -0.1277  0.1958
19213TIP3    H179130   3.081   4.162  15.761  1.0077  0.7913  0.5903
19213TIP3    H279131   3.093   4.031  15.686 -1.9098  0.7697  0.0565
19214TIP3   OH279132   4.105   6.200  15.233  0.0317  0.0820  0.0329
19214TIP3    H179133   4.067   6.257  15.300 -1.7111 -0.5631 -0.3395
19214TIP3    H279134   4.038   6.196  15.164  0.0587 -2.3589  0.0398
19215TIP3   OH279135   1.117   1.335  12.075  0.1338  0.0911 -0.4528
19215TIP3    H179136   1.057   1.364  12.006 -0.5880  2.1902  0.9707
19215TIP3    H279137   1.183   1.405  12.080  0.7941 -0.5709  0.2623
19216TIP3   OH279138   3.643   5.393  11.139  0.1535  0.0772 -0.6804
19216TIP3    H179139   3.708   5.454  11.103  1.0347 -0.5619 -0.2356
19216TIP3    H279140   3.670   5.308  11.104  0.0530 -0.3131  0.1642
19217TIP3   OH279141   1.564   2.494  16.872 -0.2026  0.3171  0.3339
19217TIP3    H179142   1.498   2.468  16.808  0.4090 -1.1086  0.2378
19217TIP3    H279143   1.591   2.411  16.912 -0.5765  1.1567  2.4487
19218TIP3   OH279144   2.259   1.159   4.017 -0.3436 -0.1002  0.5753
19218TIP3    H179145   2.242   1.070   4.046  0.4030 -0.0572  1.1672
19218TIP3    H279146   2.205   1.214   4.074 -0.2954 -0.1328  0.6518
19219TIP3   OH279147   5.152   0.925   5.791 -0.0701 -0.4238 -0.0126
19219TIP3    H179148   5.079   0.974   5.829  0.5879 -0.5116  1.4481
19219TIP3    H279149   5.205   0.899   5.867  0.9123 -1.2646 -0.9580
19220TIP3   OH279150   2.807   4.784  16.753  0.3438  0.3422 -0.5433
19220TIP3    H179151   2.843   4.859  16.800  1.1065 -0.9579  1.0247
19220TIP3    H279152   2.753   4.739  16.818 -0.2856 -0.3515 -1.5263
19221TIP3   OH279153   3.471   0.950   0.417  0.0053  0.2503  0.6710
19221TIP3    H179154   3.488   1.042   0.439 -2.1870  0.5485  1.2891
19221TIP3    H279155   3.393   0.927   0.467 -0.3405 -1.5336 -0.5957
19222TIP3   OH279156   1.068   0.993   4.220 -0.4216 -0.0357  0.0142
19222TIP3    H179157   0.988   0.985   4.272  1.1183 -1.4049  2.3586
19222TIP3    H279158   1.094   0.903   4.201  0.3136  0.3982 -1.1538
19223TIP3   OH279159   5.991   4.820  13.438 -0.1493 -0.3033  0.2084
19223TIP3    H179160   5.955   4.799  13.352 -1.1758 -1.8492  0.9609
19223TIP3    H279161   6.056   4.751  13.454  0.5293  0.3690  0.4044
19224TIP3   OH279162   4.294   3.893   2.507 -0.0586 -0.3236 -0.0076
19224TIP3    H179163   4.242   3.823   2.547 -0.3549 -0.9145 -1.3720
19224TIP3    H279164   4.303   3.958   2.576 -0.4960 -1.3257  1.0356
19225TIP3   OH279165   0.824   4.512   2.323  0.1646 -0.4404  0.6260
19225TIP3    H179166   0.875   4.453   2.267  0.7318  1.2838 -0.7912
19225TIP3    H279167   0.887   4.545   2.387  0.5913  0.6975 -0.3242
19226TIP3   OH279168   6.721   2.765   3.437  0.2307  0.1905 -0.5623
19226TIP3    H179169   6.745   2.812   3.516  0.4910  0.2623 -0.6842
19226TIP3    H279170   6.709   2.833   3.371 -0.5695  0.1799 -0.4369
19227TIP3   OH279171   4.216   6.465  17.385  0.3694  0.4741  0.0823
19227TIP3    H179172   4.305   6.456  17.350  0.3741 -3.6535  0.7051
19227TIP3    H279173   4.230   6.489  17.477  0.8625 -0.2728  0.2114
19228TIP3   OH279174   6.450   0.539   2.149  0.1472  0.4944  0.3843
19228TIP3    H179175   6.422   0.622   2.111 -1.4471  0.5696  1.5850
19228TIP3    H279176   6.372   0.507   2.196  0.4283 -2.1248 -0.7753
19229TIP3   OH279177   1.755   4.106   0.065  0.2535  0.5973  0.8561
19229TIP3    H179178   1.835   4.158   0.074  0.1057  1.0852 -0.4731
19229TIP3    H279179   1.776   4.023   0.108  1.8518  0.3258 -0.3505
19230TIP3   OH279180   4.230   1.239   5.676  0.0162 -0.0077 -0.2069
19230TIP3    H179181   4.325   1.251   5.666 -0.1030  2.1468  0.6652
19230TIP3    H279182   4.202   1.316   5.726 -2.3536 -0.0557 -1.3475
19231TIP3   OH279183   4.393   0.397  11.394  0.5053  0.7273 -0.1409
19231TIP3    H179184   4.470   0.411  11.448  0.8425  0.1391 -0.4598
19231TIP3    H279185   4.377   0.303  11.397  1.1435  0.5257 -1.8690
19232TIP3   OH279186   2.439   3.030   1.254 -0.0074 -0.0954  0.1686
19232TIP3    H179187   2.359   3.082   1.245 -1.3887 -1.4375  3.2433
19232TIP3    H279188   2.414   2.941   1.230  1.5395  0.0054 -2.1118
19233TIP3   OH279189   1.561   4.047  11.535 -0.2404 -0.0851 -0.3352
19233TIP3    H179190   1.617   3.987  11.487 -0.7755 -1.8259  1.1168
19233TIP3    H279191   1.508   4.090  11.468 -0.7245 -2.1614 -1.3389
19234TIP3   OH279192   0.807   5.986  16.644 -0.1139  0.0376 -0.5263
19234TIP3    H179193   0.841   6.016  16.560 -0.1371 -0.7315 -0.8152
19234TIP3    H279194   0.713   5.979  16.631 -0.0984 -0.2515 -0.4932
19235TIP3   OH279195   6.518   6.344  14.231  0.2340  0.6927  0.7346
19235TIP3    H179196   6.477   6.316  14.149  0.1384 -2.2852  1.6883
19235TIP3    H279197   6.611   6.352  14.209 -0.0799  2.2076 -0.1700
19236TIP3   OH279198   1.802   0.135  13.847  0.3330 -0.4507 -0.2680
19236TIP3    H179199   1.878   0.110  13.900 -0.7557  0.7873  2.0081
19236TIP3    H279200   1.746   0.183  13.907 -3.2158 -2.9360 -1.2694
19237TIP3   OH279201   5.543   6.110  13.008 -0.0333  0.1946 -0.4675
19237TIP3    H179202   5.626   6.112  12.961  0.2764 -0.7427  0.0140
19237TIP3    H279203   5.542   6.025  13.052 -0.5471  0.8246  0.7947
19238TIP3   OH279204   1.924   2.051   1.014  0.3114 -0.1621  0.1563
19238TIP3    H179205   1.928   1.958   1.034  1.0282 -0.1641  0.0471
19238TIP3    H279206   1.901   2.054   0.921 -0.9288 -0.1930  0.4400
19239TIP3   OH279207   0.847   2.817   5.710 -0.4810  0.1834 -0.0295
19239TIP3    H179208   0.835   2.895   5.655  0.6993  0.9647  0.7656
19239TIP3    H279209   0.765   2.809   5.758 -0.4591  1.2282  0.2098
19240TIP3   OH279210   1.644   2.946   4.666 -0.1877  0.2765 -0.0747
19240TIP3    H179211   1.611   2.886   4.733 -1.8324  1.3310  0.1140
19240TIP3    H279212   1.696   2.891   4.607 -0.2017 -0.9895  1.0536
19241TIP3   OH279213   1.781   0.783  16.428  0.5781  0.3070 -0.3281
19241TIP3    H179214   1.767   0.817  16.339  0.9401  3.8707  0.8057
19241TIP3    H279215   1.698   0.801  16.473  1.6112  2.1521  0.9726
19242TIP3   OH279216   0.164   3.509  15.992 -0.1747  0.8344 -0.2149
19242TIP3    H179217   0.180   3.502  16.086  0.0006 -0.9653 -0.3482
19242TIP3    H279218   0.076   3.546  15.986 -0.0813  1.2310  0.6404
19243TIP3   OH279219   6.332   3.209  11.677 -0.0300  0.4661  0.2952
19243TIP3    H179220   6.279   3.274  11.724 -1.5795  0.1379 -0.9081
19243TIP3    H279221   6.279   3.187  11.600  0.6100 -1.9500  0.4780
19244TIP3   OH279222   3.871   0.502  14.866 -0.1636  0.3248  0.2757
19244TIP3    H179223   3.951   0.525  14.913  0.8565 -1.1168 -0.6714
19244TIP3    H279224   3.818   0.456  14.931 -0.0484  0.8940  0.7864
19245TIP3   OH279225   1.690   1.140  17.410  0.0113  0.3432  0.3087
19245TIP3    H179226   1.690   1.231  17.381  0.4928  0.2685  0.0759
19245TIP3    H279227   1.781   1.121  17.433  0.2243 -0.5403 -1.1332
19246TIP3   OH279228   5.931   6.246   5.195  0.4048 -0.4057  0.0570
19246TIP3    H179229   5.914   6.214   5.106  0.2501 -1.1345  0.3436
19246TIP3    H279230   5.957   6.169   5.244  0.1946 -0.0597  0.7246
19247TIP3   OH279231   5.499   5.516  14.949  0.0212  0.1417  0.1081
19247TIP3    H179232   5.429   5.496  15.012 -1.8951  2.8348 -0.9550
19247TIP3    H279233   5.466   5.485  14.865 -1.0759  3.3616 -0.7929
19248TIP3   OH279234   4.618   3.302  11.361 -0.1179 -0.0757 -0.2446
19248TIP3    H179235   4.673   3.358  11.307  1.4286 -2.5491 -1.4481
19248TIP3    H279236   4.679   3.248  11.410 -1.5210 -0.4772  1.1599
19249TIP3   OH279237   4.051   6.159   4.227 -0.1207  0.4805  0.2752
19249TIP3    H179238   4.146   6.171   4.223 -0.3123  2.5282  0.9896
19249TIP3    H279239   4.037   6.071   4.192  2.3219 -1.2532  3.1305
19250TIP3   OH279240   4.869   5.362   0.524 -0.0588  0.0479  0.2187
19250TIP3    H179241   4.915   5.364   0.608  0.8837 -0.7166 -0.2656
19250TIP3    H279242   4.921   5.305   0.469 -0.9034  0.1924 -0.7670
19251TIP3   OH279243   5.870   1.219  14.667  0.4680 -0.4819  0.1469
19251TIP3    H179244   5.812   1.256  14.734  0.5300  0.6609 -0.4118
19251TIP3    H279245   5.916   1.148  14.712  0.1294 -0.0709  1.1663
19252TIP3   OH279246   4.872   6.230   3.279 -0.2996 -0.1448  0.2741
19252TIP3    H179247   4.792   6.179   3.289 -0.5948  0.4702  1.3414
19252TIP3    H279248   4.911   6.229   3.367  1.3439 -1.1732 -0.4253
19253TIP3   OH279249   1.141   5.661  14.426  0.4466  0.7129 -0.4747
19253TIP3    H179250   1.090   5.697  14.354  0.1157  0.2223 -0.4907
19253TIP3    H279251   1.232   5.666  14.396  0.6625  3.5160  0.3741
19254TIP3   OH279252   4.893   3.295  13.009 -0.0968  0.3166  0.1353
19254TIP3    H179253   4.854   3.208  13.001  1.1881 -0.3423  0.6533
19254TIP3    H279254   4.984   3.278  13.031  0.4106  1.7948 -0.6610
19255TIP3   OH279255   3.216   5.787  15.459 -0.3337 -0.4636  0.4582
19255TIP3    H179256   3.277   5.717  15.435 -0.0725 -0.0260 -0.1851
19255TIP3    H279257   3.270   5.865  15.463 -1.2651  0.6416 -3.4852
19256TIP3   OH279258   2.732   1.373  14.220 -0.6882 -0.3582  0.0138
19256TIP3    H179259   2.684   1.381  14.138 -1.1128 -1.0924  0.1842
19256TIP3    H279260   2.814   1.419  14.204 -2.0219  2.2865  0.2082
19257TIP3   OH279261   3.519   6.107   5.023  0.1470 -0.4204  0.4554
19257TIP3    H179262   3.547   6.015   5.026 -0.4031 -0.6130 -0.1286
19257TIP3    H279263   3.433   6.104   4.982  1.4824  0.6579 -2.7727
19258TIP3   OH279264   2.243   3.996  11.336  0.2041 -0.2062  0.3558
19258TIP3    H179265   2.299   3.919  11.343 -0.2475 -0.5826 -0.0414
19258TIP3    H279266   2.301   4.065  11.304  0.6280 -0.3577  0.7820
19259TIP3   OH279267   4.244   5.916  12.613  0.2257  0.0930  0.0788
19259TIP3    H179268   4.278   5.978  12.678 -0.1442 -1.3644  1.7512
19259TIP3    H279269   4.202   5.971  12.547  0.3962  1.6338  1.1969
19260TIP3   OH279270   4.601   5.478  12.649 -0.1238 -0.2422 -0.1514
19260TIP3    H179271   4.556   5.560  12.671 -0.5773  0.0249 -1.8761
19260TIP3    H279272   4.579   5.464  12.557  3.2617 -0.1548 -1.0940
19261TIP3   OH279273   1.746   5.655  17.259  0.3354 -0.0007 -0.1711
19261TIP3    H179274   1.804   5.583  17.285 -0.8797 -0.7685  0.5625
19261TIP3    H279275   1.659   5.624  17.284 -0.3312  1.3063 -0.8204
19262TIP3   OH279276   2.236   0.403  17.336  0.1846 -0.2743 -0.2562
19262TIP3    H179277   2.324   0.386  17.372  0.8578 -1.0582 -2.1318
19262TIP3    H279278   2.243   0.490  17.297 -0.8955  1.0964  2.3977
19263TIP3   OH279279   5.166   5.659  17.221  0.0336  0.2450 -1.1979
19263TIP3    H179280   5.254   5.626  17.236  0.2496  0.7051 -1.4300
19263TIP3    H279281   5.127   5.663  17.309 -0.1458 -1.0068 -1.2059
19264TIP3   OH279282   5.896   5.486   1.978  0.2527  0.4484  0.1930
19264TIP3    H179283   5.802   5.500   1.966 -0.2101 -0.5719  2.1113
19264TIP3    H279284   5.923   5.558   2.035  0.3710  0.0931  0.5917
19265TIP3   OH279285   2.432   6.082   2.101  0.3936  0.0001 -0.9225
19265TIP3    H179286   2.457   6.034   2.180 -2.4392 -0.6108 -0.2920
19265TIP3    H279287   2.494   6.155   2.096  1.1438 -0.4135  1.3937
19266TIP3   OH279288   3.301   1.965  14.247 -0.1775  0.7000  0.2378
19266TIP3    H179289   3.269   1.908  14.318 -2.5089 -0.4643 -1.6206
19266TIP3    H279290   3.333   1.905  14.181  1.8766  1.7783  0.1862
19267TIP3   OH279291   2.061   4.532   1.047 -0.0408 -0.2638 -0.0153
19267TIP3    H179292   2.112   4.494   1.119 -1.1690 -1.4586  0.1906
19267TIP3    H279293   2.005   4.598   1.089  1.9954  1.8583 -0.3877
19268TIP3   OH279294   2.969   1.104  16.850  0.0380  0.1984  0.5621
19268TIP3    H179295   2.964   1.095  16.755  0.9543  0.2272  0.5039
19268TIP3    H279296   2.987   1.015  16.881  0.6979  0.3458  0.6253
19269TIP3   OH279297   0.739   6.196  13.572  0.3131 -0.2736  0.1540
19269TIP3    H179298   0.692   6.263  13.622  2.3788  1.2433  0.1811
19269TIP3    H279299   0.670   6.143  13.533 -1.3990  1.2760  0.9213
19270TIP3   OH279300   1.241   5.478  16.246  0.0476  0.0374 -0.1791
19270TIP3    H179301   1.155   5.516  16.226 -0.5581 -0.4896  1.2628
19270TIP3    H279302   1.247   5.402  16.188 -1.4943 -1.2485  1.2570
19271TIP3   OH279303   1.618   0.246  16.780  0.1277 -0.0477 -0.0432
19271TIP3    H179304   1.548   0.181  16.772  0.7113 -0.6606 -0.2864
19271TIP3    H279305   1.589   0.305  16.850 -1.2385  0.5008 -1.0357
19272TIP3   OH279306   6.403   1.253   4.248  0.0158  0.2986  0.7803
19272TIP3    H179307   6.333   1.203   4.206  0.0144 -1.3239  2.5578
19272TIP3    H279308   6.371   1.343   4.251 -1.5299 -0.2231  0.5872
19273TIP3   OH279309   5.281   6.747   1.741 -0.0135  0.1804 -0.2026
19273TIP3    H179310   5.341   6.674   1.754  0.6677  0.8182  0.3371
19273TIP3    H279311   5.223   6.718   1.670 -0.3467 -1.2351  0.6012
19274TIP3   OH279312   6.622   2.133   6.552  0.1832 -0.3607  0.3474
19274TIP3    H179313   6.591   2.219   6.522  1.4392  0.0940  0.2858
19274TIP3    H279314   6.717   2.143   6.558  0.4322 -1.9672 -0.3709
19275TIP3   OH279315   0.273   2.564  13.739  0.0103 -0.0851  0.4613
19275TIP3    H179316   0.206   2.627  13.766 -0.4267 -0.8995  1.3275
19275TIP3    H279317   0.315   2.605  13.664 -1.5525  0.3888 -0.1933
19276TIP3   OH279318   2.600   0.829   0.927  0.1364  0.4035 -0.0753
19276TIP3    H179319   2.676   0.852   0.980  1.0627  0.7763 -1.4879
19276TIP3    H279320   2.637   0.803   0.843 -1.3443  1.7435 -1.2145
19277TIP3   OH279321   5.502   1.901  13.882 -0.0055 -0.4244 -0.4371
19277TIP3    H179322   5.555   1.966  13.836  1.3958 -1.1158  0.1148
19277TIP3    H279323   5.412   1.929  13.868  0.5334  1.4332 -0.5048
19278TIP3   OH279324   3.103   4.272   5.798  0.0285 -0.2974  0.2056
19278TIP3    H179325   3.191   4.308   5.810 -1.1930  3.1233 -0.0326
19278TIP3    H279326   3.073   4.251   5.886  0.9974 -1.4783  0.2903
19279TIP3   OH279327   1.675   0.089  13.313  0.4349 -0.5909 -0.2645
19279TIP3    H179328   1.731   0.164  13.299 -0.8252  0.0367 -2.3604
19279TIP3    H279329   1.681   0.072  13.407  1.7878  1.2635  0.0389
19280TIP3   OH279330   0.811   2.273  12.599 -0.6698 -0.4125 -0.0659
19280TIP3    H179331   0.727   2.239  12.629 -1.4713 -0.3114 -2.0377
19280TIP3    H279332   0.801   2.369  12.603 -0.2054 -0.3870  0.7832
19281TIP3   OH279333   5.061   1.829   5.749 -0.1486 -0.6543 -0.7616
19281TIP3    H179334   4.983   1.792   5.708 -1.1463 -0.1637  0.6164
19281TIP3    H279335   5.027   1.885   5.819  1.4060  0.5198 -0.8915
19282TIP3   OH279336   5.854   3.221  14.321  0.2437 -0.5283  0.3300
19282TIP3    H179337   5.837   3.129  14.341  0.1327 -0.3140  1.2515
19282TIP3    H279338   5.774   3.251  14.277 -0.2036 -0.5633  1.1040
19283TIP3   OH279339   4.784   1.176  13.202  0.2285  0.2804  0.0026
19283TIP3    H179340   4.743   1.090  13.209  1.3316 -0.2320  0.5767
19283TIP3    H279341   4.785   1.195  13.108 -2.0535  0.7244  0.0215
19284TIP3   OH279342   2.986   5.560  12.136  0.1319 -0.3932  0.1569
19284TIP3    H179343   2.994   5.654  12.155 -0.2743  0.1423 -2.0343
19284TIP3    H279344   2.937   5.524  12.210 -2.2217  1.6631 -0.2869
19285TIP3   OH279345   2.328   5.041  14.787  0.1496 -0.3134  0.0009
19285TIP3    H179346   2.379   4.976  14.835 -1.8996 -0.4789  2.1285
19285TIP3    H279347   2.262   4.990  14.739  0.9519 -0.0014 -1.5071
19286TIP3   OH279348   2.671   2.622   0.507 -0.3006  0.4809  0.4828
19286TIP3    H179349   2.576   2.625   0.510 -0.2817  0.4413  1.2050
19286TIP3    H279350   2.698   2.712   0.486 -0.5352  0.1886 -1.2257
19287TIP3   OH279351   3.890   4.668  14.957 -0.4044  0.8274 -0.2980
19287TIP3    H179352   3.838   4.620  15.022  0.8799 -0.6553 -0.3224
19287TIP3    H279353   3.980   4.661  14.988  0.0879  1.1084 -1.6166
19288TIP3   OH279354   4.250   5.113   5.402 -0.7534  0.3167 -0.4810
19288TIP3    H179355   4.213   5.174   5.466 -1.7016  0.2727 -0.9648
19288TIP3    H279356   4.275   5.036   5.454  0.0159  0.9266  0.0649
19289TIP3   OH279357   4.602   5.048   0.292  0.1535  0.6465 -0.2226
19289TIP3    H179358   4.685   5.071   0.334  1.4584 -0.7333 -1.8986
19289TIP3    H279359   4.549   5.009   0.362  2.2418 -1.5643  0.2417
19290TIP3   OH279360   3.501   1.698  11.646 -0.0761 -0.1468  0.6182
19290TIP3    H179361   3.457   1.615  11.667  1.0228 -0.5724  1.3184
19290TIP3    H279362   3.562   1.675  11.576 -2.5904  0.9391 -2.1359
19291TIP3   OH279363   2.112   0.710  13.020  0.8436 -0.2708 -0.0778
19291TIP3    H179364   2.083   0.657  12.945  1.2606 -0.5207 -0.0657
19291TIP3    H279365   2.207   0.696  13.024  0.8018 -0.3904  0.5982
19292TIP3   OH279366   5.233   6.177   0.700 -0.0273  0.5881 -0.1076
19292TIP3    H179367   5.280   6.125   0.634 -0.0562  2.2713 -1.5554
19292TIP3    H279368   5.301   6.205   0.761  0.3504  0.6278 -0.5396
19293TIP3   OH279369   3.810   1.028   5.908  0.1392 -0.1179 -0.0546
19293TIP3    H179370   3.773   1.068   5.987  0.1715  1.5923 -0.8597
19293TIP3    H279371   3.751   1.055   5.838  1.2459  0.1186 -0.9083
19294TIP3   OH279372   4.475   1.933   3.691  0.5692  0.0934  0.2462
19294TIP3    H179373   4.560   1.920   3.733 -0.5371 -0.6406  2.3964
19294TIP3    H279374   4.412   1.926   3.762 -1.4093 -0.7472 -1.4834
19295TIP3   OH279375   2.191   3.627  12.191  0.0097 -0.0703 -0.3592
19295TIP3    H179376   2.167   3.595  12.104  0.6120  1.6641 -1.2030
19295TIP3    H279377   2.116   3.678  12.220 -0.2783 -0.8266  0.2507
19296TIP3   OH279378   4.126   5.897  11.071 -0.5098  0.3385 -0.2816
19296TIP3    H179379   4.205   5.865  11.027 -1.0409 -2.7677  0.7719
19296TIP3    H279380   4.054   5.853  11.027 -1.4074  0.8523  0.6354
19297TIP3   OH279381   6.669   3.786   3.055  0.4452 -0.5192  0.1681
19297TIP3    H179382   6.612   3.789   2.978 -1.4172 -2.5105  1.3679
19297TIP3    H279383   6.658   3.872   3.096 -2.7210 -1.1715  0.9764
19298TIP3   OH279384   2.589   4.020   5.690  0.6235  0.2363 -0.1749
19298TIP3    H179385   2.642   3.999   5.613  0.4770  0.6968 -0.4070
19298TIP3    H279386   2.626   3.967   5.760 -0.4296 -1.6279 -0.9586
19299TIP3   OH279387   3.475   5.336  12.462 -0.8868 -0.0164 -0.1857
19299TIP3    H179388   3.511   5.321  12.375  0.5015  2.3373 -0.0895
19299TIP3    H279389   3.437   5.424  12.458 -0.3588  0.3461  1.7195
19300TIP3   OH279390   4.180   5.690   0.565 -0.1494 -0.3285  0.0399
19300TIP3    H179391   4.118   5.696   0.492 -0.4157  0.7758  0.3340
19300TIP3    H279392   4.135   5.733   0.638  0.7030 -0.0890  0.4307
19301TIP3   OH279393   4.951   3.040  11.724  0.3391  0.0336 -0.7307
19301TIP3    H179394   4.958   2.986  11.645 -2.4878  0.0041 -1.0406
19301TIP3    H279395   4.890   3.109  11.701  3.5221  3.3329 -0.2166
19302TIP3   OH279396   3.892   4.848   2.056 -0.0667  0.0070 -0.1069
19302TIP3    H179397   3.907   4.848   1.961  0.5791 -0.6024 -0.0169
19302TIP3    H279398   3.808   4.805   2.068  0.5078 -1.2147 -0.3258
19303TIP3   OH279399   1.396   2.842  12.525  0.2897 -0.2512  0.6013
19303TIP3    H179400   1.345   2.922  12.511 -0.7427 -0.9005  0.5317
19303TIP3    H279401   1.482   2.873  12.553  0.3216  0.9241 -0.6606
19304TIP3   OH279402   0.381   4.965  13.759 -1.1482 -0.2474 -0.3116
19304TIP3    H179403   0.304   5.003  13.802 -1.8414 -1.4656 -0.4033
19304TIP3    H279404   0.374   4.993  13.668 -2.0910 -1.1917 -0.5567
19305TIP3   OH279405   1.361   5.670   1.413 -0.0824 -0.0845 -0.1082
19305TIP3    H179406   1.272   5.690   1.445  0.3803  2.2288 -0.0824
19305TIP3    H279407   1.375   5.578   1.437 -3.1363 -1.1271 -1.7489
19306TIP3   OH279408   4.975   0.560  14.321 -0.1428 -0.1358 -0.4929
19306TIP3    H179409   4.881   0.574  14.332 -0.4316 -0.1468 -2.5586
19306TIP3    H279410   4.986   0.465  14.319 -0.1929 -0.1325 -0.9775
19307TIP3   OH279411   5.456   2.180   1.420  0.1266  0.0247 -0.5002
19307TIP3    H179412   5.416   2.154   1.503 -0.1358 -0.0670 -0.6539
19307TIP3    H279413   5.534   2.230   1.445 -0.5338  0.9190 -0.2022
19308TIP3   OH279414   2.481   3.863  16.020  0.1893 -0.0321  0.0816
19308TIP3    H179415   2.431   3.851  16.100 -0.1879  1.1125  0.0396
19308TIP3    H279416   2.451   3.793  15.962 -1.5928  0.7702 -0.0386
19309TIP3   OH279417   4.939   5.369  15.822  0.0953  0.2422 -0.3689
19309TIP3    H179418   5.034   5.368  15.810 -0.0634  0.1094 -1.7985
19309TIP3    H279419   4.909   5.444  15.770 -0.4039  1.7913  1.9604
19310TIP3   OH279420   0.982   0.433  12.337 -0.4962  0.6181 -0.3889
19310TIP3    H179421   0.964   0.510  12.392  0.8721 -0.0978  1.1084
19310TIP3    H279422   0.973   0.358  12.396  0.9331 -0.1796 -1.1330
19311TIP3   OH279423   5.935   6.109  15.761 -0.1017 -0.1930 -0.8733
19311TIP3    H179424   5.848   6.142  15.738 -0.2314  1.0062  1.0653
19311TIP3    H279425   5.918   6.044  15.830  0.5240  0.1966 -0.3337
19312TIP3   OH279426   2.930   5.089   1.480 -1.1331  0.5716 -0.1769
19312TIP3    H179427   2.996   5.151   1.512  0.0090 -0.2948 -0.8162
19312TIP3    H279428   2.873   5.075   1.556  1.2960 -1.1493  1.4847
19313TIP3   OH279429   1.729   1.153   0.168 -0.4455  0.2154  0.2129
19313TIP3    H179430   1.650   1.162   0.115 -0.4790 -1.1998 -0.0044
19313TIP3    H279431   1.713   1.209   0.244 -1.2247  0.7311 -0.3130
19314TIP3   OH279432   5.479   5.454  14.090  0.3369  0.1861 -0.2526
19314TIP3    H179433   5.402   5.399  14.105 -0.0415  0.0749 -2.2574
19314TIP3    H279434   5.541   5.396  14.045  1.2242  0.5343  0.5059
19315TIP3   OH279435   4.396   2.222   3.648 -0.3442  0.7766 -0.2365
19315TIP3    H179436   4.453   2.153   3.682 -0.0268  0.3647 -1.5838
19315TIP3    H279437   4.445   2.262   3.577 -2.2883 -0.6611 -2.5475
19316TIP3   OH279438   1.623   6.716   5.794 -0.2455  0.3392  0.4057
19316TIP3    H179439   1.626   6.731   5.888 -2.6466 -0.5974  0.7272
19316TIP3    H279440   1.558   6.779   5.762  0.6575  0.7529 -0.6644
19317TIP3   OH279441   0.827   6.100  17.064  0.2268  0.2985 -0.4298
19317TIP3    H179442   0.889   6.049  17.011  0.0342  1.3332 -1.7036
19317TIP3    H279443   0.793   6.166  17.004 -0.9119  0.7700  0.6869
19318TIP3   OH279444   4.197   4.975  14.267  0.1521 -0.0072  0.1940
19318TIP3    H179445   4.186   4.972  14.362 -0.0555 -0.3051  0.1652
19318TIP3    H279446   4.134   5.040  14.238 -0.6430 -0.7682  0.1553
19319TIP3   OH279447   4.550   1.603   2.064 -0.0862 -0.6536 -0.5872
19319TIP3    H179448   4.545   1.664   2.137 -0.4036  0.4511 -1.5040
19319TIP3    H279449   4.469   1.552   2.069  1.0321 -2.3813  1.3133
19320TIP3   OH279450   5.126   5.883   1.812  0.6188 -0.0387  0.0063
19320TIP3    H179451   5.189   5.885   1.739  2.7272  0.3255  1.7401
19320TIP3    H279452   5.156   5.811   1.867 -1.0519 -0.4258  0.4559
19321TIP3   OH279453   0.201   1.996  17.455  0.2323 -0.6840 -0.5401
19321TIP3    H179454   0.268   1.928  17.457  3.1522  1.9753 -0.2432
19321TIP3    H279455   0.215   2.045  17.536 -3.4196 -1.0468  0.5021
19322TIP3   OH279456   0.766   4.681  14.271  0.1523  0.2562 -0.3309
19322TIP3    H179457   0.737   4.693  14.362  2.6055  1.7754  0.3427
19322TIP3    H279458   0.853   4.642  14.279  0.9670  1.6315 -1.9417
19323TIP3   OH279459   3.736   2.191  13.428  0.3303 -0.0538 -0.0177
19323TIP3    H179460   3.806   2.227  13.483  0.4848 -0.0225 -0.2323
19323TIP3    H279461   3.775   2.113  13.388 -0.4694 -1.3908  1.6311
19324TIP3   OH279462   4.929   6.529  12.806 -0.3738 -0.1911 -0.3599
19324TIP3    H179463   4.968   6.449  12.841 -1.5126 -0.9740 -0.8068
19324TIP3    H279464   4.996   6.566  12.748  0.3997 -0.4657  0.3431
19325TIP3   OH279465   6.399   2.789   0.136 -0.1902 -0.5684  0.0942
19325TIP3    H179466   6.387   2.748   0.050  0.5319 -0.7632  0.0746
19325TIP3    H279467   6.487   2.761   0.163  0.4186  1.1319 -0.0059
19326TIP3   OH279468   1.130   3.117   5.768  0.1757 -0.2848  0.6034
19326TIP3    H179469   1.070   3.181   5.731 -0.2913 -1.1893 -0.2145
19326TIP3    H279470   1.154   3.154   5.853 -0.2212  0.8873  0.2251
19327TIP3   OH279471   5.374   1.961  16.836 -0.0487  0.5817 -0.1682
19327TIP3    H179472   5.444   1.896  16.825 -1.5606 -1.6778  2.3846
19327TIP3    H279473   5.394   2.004  16.919 -0.9490  0.8819 -0.0931
19328TIP3   OH279474   3.308   2.461  12.766  0.1939  0.0153  0.1265
19328TIP3    H179475   3.287   2.524  12.836 -2.0019 -0.3049 -0.1650
19328TIP3    H279476   3.323   2.515  12.689 -2.4372  0.2834 -0.3120
19329TIP3   OH279477   4.002   2.689  12.928 -0.7303 -0.2848 -0.2372
19329TIP3    H179478   3.982   2.783  12.935 -0.4813 -0.3220  1.7900
19329TIP3    H279479   3.921   2.645  12.951 -0.1378 -0.4908  1.6797
19330TIP3   OH279480   4.051   5.738  11.862 -0.1436 -0.0410 -0.1753
19330TIP3    H179481   4.090   5.690  11.936 -1.9969  0.6371  1.3268
19330TIP3    H279482   4.057   5.830  11.887  1.7771  0.4894 -2.2462
19331TIP3   OH279483   4.093   0.689   1.250 -0.1379 -0.4835  0.7904
19331TIP3    H179484   4.023   0.684   1.186  1.7323  1.0222 -1.5511
19331TIP3    H279485   4.060   0.748   1.318 -1.4162 -0.4538  0.1555
19332TIP3   OH279486   1.818   2.403   5.688 -0.0172  0.5459 -0.5700
19332TIP3    H179487   1.803   2.489   5.727 -1.8727 -0.4291  1.0598
19332TIP3    H279488   1.735   2.381   5.645  0.2952 -0.5850 -0.6381
19333TIP3   OH279489   2.519   6.672   5.146 -0.9424 -0.0315  0.7331
19333TIP3    H179490   2.491   6.761   5.127 -1.0028 -0.6511 -2.6221
19333TIP3    H279491   2.600   6.660   5.096 -1.0863 -1.9356  0.8735
19334TIP3   OH279492   1.119   4.625  13.188  0.3506 -0.0478  0.2461
19334TIP3    H179493   1.197   4.636  13.242  1.0424 -1.4960 -0.4198
19334TIP3    H279494   1.135   4.679  13.111  0.1785  0.5538  0.6250
19335TIP3   OH279495   0.025   1.864  15.308 -0.2264  0.1857  0.4812
19335TIP3    H179496   0.038   1.778  15.349  0.6381  0.5999  1.0945
19335TIP3    H279497  -0.050   1.851  15.250  0.9503 -1.4899 -0.8003
19336TIP3   OH279498   5.011   3.268  16.521 -0.2284 -0.2567 -0.1789
19336TIP3    H179499   4.989   3.184  16.561 -0.7497 -0.0218  0.0393
19336TIP3    H279500   4.966   3.333  16.576  0.6480  0.2113  0.0123
19337TIP3   OH279501   0.547   3.291  14.634 -0.0343 -0.3967  0.1457
19337TIP3    H179502   0.625   3.236  14.626  0.3071 -0.1151  1.3812
19337TIP3    H279503   0.565   3.349  14.707 -1.5214 -0.5194  0.6567
19338TIP3   OH279504   0.153   2.377   3.772  0.6832  0.5887 -0.3098
19338TIP3    H179505   0.073   2.418   3.806 -0.0303 -0.7177 -0.3774
19338TIP3    H279506   0.221   2.403   3.834  0.1579  1.4763 -0.0914
19339TIP3   OH279507   0.848   1.320  10.650 -0.2982  0.0058 -0.1752
19339TIP3    H179508   0.852   1.352  10.740  0.3983 -0.6923  0.0547
19339TIP3    H279509   0.806   1.390  10.601 -0.2729  0.5786  0.6136
19340TIP3   OH279510   0.745   3.130   3.940 -0.6583  0.0112  0.4463
19340TIP3    H179511   0.782   3.077   4.011  0.8865 -1.3058 -1.2645
19340TIP3    H279512   0.731   3.216   3.980  3.3982  0.3611  1.5222
19341TIP3   OH279513   5.199   3.969   4.214 -0.4874 -0.0849  0.3648
19341TIP3    H179514   5.138   4.037   4.244 -0.6831 -0.7630  1.5361
19341TIP3    H279515   5.153   3.928   4.140 -0.7071  0.5226  0.1510
19342TIP3   OH279516   2.202   6.359  12.065 -0.3592  0.0251 -0.0894
19342TIP3    H179517   2.259   6.341  11.990 -0.2656 -3.0746  0.5776
19342TIP3    H279518   2.252   6.330  12.141 -1.8502 -0.4405  0.7644
19343TIP3   OH279519   0.997   4.169  14.445  0.1507 -0.6455 -0.1470
19343TIP3    H179520   1.077   4.216  14.467 -0.2656  0.4892 -0.9681
19343TIP3    H279521   0.932   4.238  14.431 -0.6514 -1.5027 -0.7338
19344TIP3   OH279522   2.117   5.483   5.455 -0.5770 -0.3575  0.5342
19344TIP3    H179523   2.106   5.578   5.447  0.6320 -0.1320  1.3083
19344TIP3    H279524   2.052   5.457   5.521 -0.2876  0.0771  0.9968
19345TIP3   OH279525   4.735   3.207  15.782  0.4077 -0.2176  0.3244
19345TIP3    H179526   4.667   3.265  15.815 -0.9434 -0.4117 -1.9204
19345TIP3    H279527   4.691   3.123  15.767  1.2661 -0.5164 -0.6460
19346TIP3   OH279528   1.773   1.750  13.427  0.5949 -0.5959  0.2660
19346TIP3    H179529   1.742   1.664  13.453 -1.8292  0.2749  0.5300
19346TIP3    H279530   1.780   1.746  13.332  0.1054 -0.9613  0.2445
19347TIP3   OH279531   0.921   3.298   2.597 -0.4705 -0.6686  0.1380
19347TIP3    H179532   0.963   3.332   2.519 -0.2270 -0.0872  0.5198
19347TIP3    H279533   0.914   3.373   2.656 -4.1625 -0.0906 -0.7662
19348TIP3   OH279534   6.084   0.485   0.581  0.3570 -0.2317 -0.1386
19348TIP3    H179535   6.064   0.440   0.663  1.3038 -1.7834 -0.7168
19348TIP3    H279536   6.006   0.473   0.527 -0.0601  0.3348  0.3254
19349TIP3   OH279537   0.876   3.070   2.738  0.4664  0.0912  0.1214
19349TIP3    H179538   0.945   3.010   2.709 -0.1233  0.0169 -1.2335
19349TIP3    H279539   0.875   3.139   2.672 -2.4264 -1.2284 -1.4383
19350TIP3   OH279540   6.347   2.663  12.560 -0.8540  0.0540  0.1997
19350TIP3    H179541   6.259   2.701  12.558 -0.8514  0.2637  2.1444
19350TIP3    H279542   6.406   2.738  12.547 -0.9374 -0.0826 -1.0754
19351TIP3   OH279543   6.089   2.916   1.614 -0.3522 -0.3426 -0.2505
19351TIP3    H179544   6.140   2.836   1.628 -1.4448 -1.0845 -0.3978
19351TIP3    H279545   6.070   2.917   1.521 -1.1084 -0.3994 -0.1053
19352TIP3   OH279546   4.345   6.506  15.751 -0.4327  0.5076 -0.4561
19352TIP3    H179547   4.253   6.532  15.750 -0.5038  0.2462 -1.7701
19352TIP3    H279548   4.376   6.520  15.661  0.6354 -0.0302 -0.1936
19353TIP3   OH279549   6.703   0.279   1.045 -0.2892  0.3293 -0.1790
19353TIP3    H179550   6.657   0.195   1.048  0.8452 -0.2743  1.2180
19353TIP3    H279551   6.649   0.338   1.098 -0.3505  0.0972  0.0181
19354TIP3   OH279552   5.296   0.370   2.103  0.2781 -0.5121 -0.0780
19354TIP3    H179553   5.279   0.280   2.078  2.6290 -0.8488 -0.7298
19354TIP3    H279554   5.392   0.375   2.109  0.1717  1.7643  0.6011
19355TIP3   OH279555   4.607   4.096   2.574  0.7370  0.1552 -0.0056
19355TIP3    H179556   4.611   4.012   2.619  0.2596  0.6525  0.9976
19355TIP3    H279557   4.679   4.147   2.611  0.4662  0.5016  0.0467
19356TIP3   OH279558   1.142   1.633   4.675  0.0215  0.1270  0.0082
19356TIP3    H179559   1.145   1.690   4.752 -1.6762 -0.0749  0.2644
19356TIP3    H279560   1.214   1.663   4.620 -0.5120  2.2119  0.3640
19357TIP3   OH279561   0.856   6.179  15.369  0.7908 -0.3502 -0.0465
19357TIP3    H179562   0.885   6.113  15.432  0.5337 -0.7434 -0.3321
19357TIP3    H279563   0.931   6.192  15.312  1.0762  0.1201  0.4319
19358TIP3   OH279564   5.818   0.599  12.896  0.2161 -0.0356 -0.1439
19358TIP3    H179565   5.853   0.679  12.936 -1.0339  0.6629 -0.3915
19358TIP3    H279566   5.769   0.630  12.820  1.0964 -1.2017 -1.2334
19359TIP3   OH279567   6.672   2.747  11.372 -0.7862  0.2781  0.5286
19359TIP3    H179568   6.696   2.659  11.398 -1.0195 -0.1836 -0.7482
19359TIP3    H279569   6.753   2.785  11.337 -1.3814 -0.7008 -2.2110
19360TIP3   OH279570   3.446   5.024  11.897  0.6015 -0.2915 -0.8496
19360TIP3    H179571   3.494   5.099  11.862  0.9862 -0.2346 -0.2086
19360TIP3    H279572   3.502   4.990  11.967 -0.0494 -0.5398 -0.4401
19361TIP3   OH279573   5.292   1.507  15.656  0.1013  0.1681  0.5817
19361TIP3    H179574   5.298   1.413  15.675  1.5426  0.2591  0.7068
19361TIP3    H279575   5.382   1.534  15.641 -0.4188  1.2902 -0.7276
19362TIP3   OH279576   3.007   0.557  15.168 -0.0883 -0.2040  0.4839
19362TIP3    H179577   3.073   0.622  15.144 -0.4441 -0.2487 -0.6646
19362TIP3    H279578   3.040   0.517  15.248  1.7062 -0.8241 -0.5164
19363TIP3   OH279579   5.593   6.599   5.833 -0.3503  0.0143 -0.3511
19363TIP3    H179580   5.621   6.617   5.923  1.5407 -0.5705 -0.7893
19363TIP3    H279581   5.606   6.681   5.787  0.8240 -0.2907 -0.5828
19364TIP3   OH279582   6.736   0.319   1.762  0.3281  0.4678 -0.4513
19364TIP3    H179583   6.667   0.334   1.827 -0.0260 -1.9479 -0.1740
19364TIP3    H279584   6.814   0.359   1.800 -0.4464  1.3985  0.2197
19365TIP3   OH279585   5.147   1.470  16.348  0.4577 -0.0769  0.1833
19365TIP3    H179586   5.086   1.540  16.326 -1.5128 -1.9284 -0.6630
19365TIP3    H279587   5.137   1.459  16.443  1.0999  1.0156  0.3959
19366TIP3   OH279588   0.554   2.424   1.179  0.0644 -0.1321  0.3875
19366TIP3    H179589   0.488   2.355   1.185  0.7992 -0.8405  0.4698
19366TIP3    H279590   0.592   2.414   1.092 -1.4243  1.6874 -0.5469
19367TIP3   OH279591   5.595   1.039  14.553  0.3142 -0.1507  0.0983
19367TIP3    H179592   5.511   1.036  14.599 -0.0630 -1.8813 -0.6448
19367TIP3    H279593   5.651   0.977  14.600  0.6120 -0.3249 -0.4725
19368TIP3   OH279594   4.931   5.862  11.400 -0.1990  0.0126  0.2738
19368TIP3    H179595   4.847   5.901  11.421 -0.1200 -0.0036  0.6188
19368TIP3    H279596   4.977   5.856  11.484  0.7346  1.4114 -0.0917
19369TIP3   OH279597   6.749   1.955   5.927 -0.0976 -0.0061  0.0354
19369TIP3    H179598   6.814   2.023   5.943 -1.5706  1.3260  0.6995
19369TIP3    H279599   6.710   1.937   6.012 -0.6126 -0.7491 -0.3403
19370TIP3   OH279600   4.266   3.003   2.862  0.1345  0.0163  0.1248
19370TIP3    H179601   4.327   2.940   2.899  1.4225  0.5713 -0.9659
19370TIP3    H279602   4.319   3.056   2.803 -1.4774  0.2849 -1.1605
19371TIP3   OH279603   2.245   2.649  10.575 -0.3111  0.3408 -0.0054
19371TIP3    H179604   2.301   2.691  10.509 -0.0974 -1.2953 -0.9200
19371TIP3    H279605   2.288   2.667  10.658  1.7481 -1.0315 -0.6882
19372TIP3   OH279606   3.097   3.197  14.326  0.3724 -0.3187  0.3530
19372TIP3    H179607   3.021   3.145  14.352 -0.1585  0.8025  1.1537
19372TIP3    H279608   3.167   3.169  14.385  0.1349 -0.2394  0.6738
19373TIP3   OH279609   2.287   0.309   3.916  0.2081  0.4676 -0.0915
19373TIP3    H179610   2.241   0.289   3.998 -0.9230  1.0976 -0.5441
19373TIP3    H279611   2.350   0.239   3.906  0.4000  0.4041  1.3480
19374TIP3   OH279612   2.583   4.769   0.548  0.1349 -0.5061  0.0177
19374TIP3    H179613   2.616   4.792   0.461 -1.2574 -1.3259 -0.7607
19374TIP3    H279614   2.562   4.853   0.589  2.0042 -0.0339  0.0951
19375TIP3   OH279615   0.036   6.734   1.575  0.5919  0.0970 -0.4225
19375TIP3    H179616   0.023   6.661   1.515 -0.4904  0.9353 -1.2403
19375TIP3    H279617   0.032   6.694   1.662  1.0158 -0.9558 -0.8684
19376TIP3   OH279618   1.330   3.303  12.370  0.7397  0.3232 -0.2636
19376TIP3    H179619   1.247   3.288  12.326  1.8811 -0.7222 -2.1584
19376TIP3    H279620   1.396   3.295  12.302  2.4255  1.1762  1.1769
19377TIP3   OH279621   3.669   2.446  16.555  0.4677 -0.2187 -0.3685
19377TIP3    H179622   3.621   2.464  16.636  1.1514  1.8773 -0.3861
19377TIP3    H279623   3.602   2.446  16.487  0.4276  3.8381 -0.5656
19378TIP3   OH279624   2.031   4.878  14.168 -0.6487 -1.0284 -0.2637
19378TIP3    H179625   2.015   4.792  14.129 -0.2168 -1.1643 -0.1484
19378TIP3    H279626   2.044   4.936  14.093  0.8157 -1.4139 -0.3264
19379TIP3   OH279627   0.327   1.099  11.801 -0.3903 -0.2964 -0.0246
19379TIP3    H179628   0.261   1.076  11.867 -0.6800 -1.4755 -0.6941
19379TIP3    H279629   0.293   1.178  11.759 -0.4699  0.1518  0.8621
19380TIP3   OH279630   5.146   3.991   1.070 -0.7334  0.6572  0.5844
19380TIP3    H179631   5.143   4.017   0.978  0.7272  0.0725  0.3472
19380TIP3    H279632   5.135   3.896   1.068 -0.1904  0.5804  0.9661
19381TIP3   OH279633   2.315   5.696  15.117 -0.4390 -0.3215  0.3844
19381TIP3    H179634   2.403   5.658  15.118 -0.9465 -1.5808  1.5497
19381TIP3    H279635   2.323   5.775  15.064  0.5552 -2.3094 -2.6960
19382TIP3   OH279636   2.600   5.169  14.652  0.5893  0.4594 -0.1824
19382TIP3    H179637   2.514   5.141  14.685  1.3681 -0.0134  1.5397
19382TIP3    H279638   2.631   5.096  14.599  1.3427 -0.8561  1.9287
19383TIP3   OH279639   2.816   4.759  17.400  0.6040  0.3030 -0.3320
19383TIP3    H179640   2.762   4.716  17.334 -1.0655  0.5171  0.8180
19383TIP3    H279641   2.873   4.690  17.434 -2.4985 -1.3586  1.9867
19384TIP3   OH279642   2.691   6.599   5.319 -0.7835  0.0784  0.1000
19384TIP3    H179643   2.602   6.627   5.298  0.0661  1.5874 -1.8164
19384TIP3    H279644   2.746   6.674   5.295  0.8293  0.3131  3.7944
19385TIP3   OH279645   3.711   0.341  11.793  0.3376  0.3990  0.1467
19385TIP3    H179646   3.764   0.386  11.727  1.3325 -1.0675 -0.0920
19385TIP3    H279647   3.693   0.408  11.858 -1.2863  2.1085 -1.9131
19386TIP3   OH279648   0.306   2.568  12.603 -0.4162 -0.3713  0.4472
19386TIP3    H179649   0.356   2.567  12.521 -0.9981  0.4499  0.0776
19386TIP3    H279650   0.218   2.543  12.577 -0.4177 -0.9116  0.9593
19387TIP3   OH279651   5.199   0.702   1.807  0.2639 -1.3726 -0.6523
19387TIP3    H179652   5.181   0.645   1.882 -0.8704 -1.4012 -0.9346
19387TIP3    H279653   5.118   0.750   1.793  0.8339 -0.5173 -1.1462
19388TIP3   OH279654   1.669   3.292  17.262  0.0987 -0.6706 -0.1611
19388TIP3    H179655   1.611   3.223  17.230 -0.3469 -0.1242 -0.5486
19388TIP3    H279656   1.751   3.246  17.283  0.4539 -1.0818 -2.1408
19389TIP3   OH279657   3.287   1.448   4.309 -0.2206  0.1339 -0.8030
19389TIP3    H179658   3.291   1.423   4.217 -1.6203  1.0610 -1.1506
19389TIP3    H279659   3.250   1.371   4.353 -1.2508  0.3162 -1.3204
19390TIP3   OH279660   4.728   4.626  14.363  0.3177  0.3566  0.0878
19390TIP3    H179661   4.813   4.657  14.333  0.9494  0.0699  1.4719
19390TIP3    H279662   4.745   4.537  14.393 -0.4703  0.3008  0.3884
19391TIP3   OH279663   0.851   1.707  12.661  0.1290  0.1179 -0.5976
19391TIP3    H179664   0.887   1.794  12.644 -1.0148  0.4994 -1.1287
19391TIP3    H279665   0.928   1.651  12.671  0.9736  1.5424  1.8755
19392TIP3   OH279666   5.111   0.386  12.257  0.2324 -0.4217  0.1365
19392TIP3    H179667   5.175   0.441  12.212 -1.4227  1.2042 -0.3478
19392TIP3    H279668   5.144   0.297  12.246  2.1956  0.3175 -0.4079
19393TIP3   OH279669   0.662   3.791   5.314  0.1976  0.1184  0.6178
19393TIP3    H179670   0.572   3.792   5.281  1.0130  0.4713 -1.8056
19393TIP3    H279671   0.660   3.729   5.387 -1.9689  0.0160  0.5416
19394TIP3   OH279672   1.653   4.602   4.323  0.0989  0.0881 -0.4400
19394TIP3    H179673   1.586   4.600   4.391  0.9663  1.7437  0.5377
19394TIP3    H279674   1.645   4.518   4.279  0.6975 -1.9228  2.9031
19395TIP3   OH279675   4.707   2.471  12.104  0.4682 -0.0171 -0.4890
19395TIP3    H179676   4.723   2.532  12.032 -0.0385  1.9232  0.9806
19395TIP3    H279677   4.740   2.515  12.182  1.7388 -2.3946  0.4342
19396TIP3   OH279678   0.727   6.570   3.924 -0.3393 -0.5612 -0.5248
19396TIP3    H179679   0.769   6.604   4.003  1.6270  0.4105 -1.9081
19396TIP3    H279680   0.676   6.495   3.954  0.4796 -0.3171  1.6265
19397TIP3   OH279681   3.683   1.007   4.247 -0.3148 -0.3221 -0.2990
19397TIP3    H179682   3.719   0.925   4.279 -2.0163 -0.8639  0.3496
19397TIP3    H279683   3.701   1.070   4.316  1.2166 -0.0492 -0.9068
19398TIP3   OH279684   2.464   0.666  13.605 -0.8019 -0.2851  0.8168
19398TIP3    H179685   2.484   0.650  13.513 -0.7171 -0.7031  0.9099
19398TIP3    H279686   2.377   0.706  13.604  0.0984  1.8388  0.3844
19399TIP3   OH279687   6.146   4.144   5.903  0.1618 -0.2224  0.5757
19399TIP3    H179688   6.101   4.143   5.819 -1.0777 -1.3983  1.2242
19399TIP3    H279689   6.238   4.159   5.880 -0.2752  0.4228 -0.9038
19400TIP3   OH279690   5.688   6.640   6.481 -0.2106 -0.8123  0.2564
19400TIP3    H179691   5.679   6.645   6.386 -1.2030  0.6566  0.3967
19400TIP3    H279692   5.658   6.553   6.504 -1.1966 -0.7303 -0.6592
19401TIP3   OH279693   1.334   6.476   5.593 -0.3868 -0.6270 -0.5713
19401TIP3    H179694   1.370   6.541   5.533  0.5672 -0.3081  0.3189
19401TIP3    H279695   1.284   6.527   5.656  0.5925 -0.7193  0.2935
19402TIP3   OH279696   3.085   3.768   5.434 -0.0963 -0.2868  0.4324
19402TIP3    H179697   3.111   3.793   5.345  0.0619 -2.4336 -0.1918
19402TIP3    H279698   3.074   3.851   5.480  0.4333  0.8750 -1.4098
19403TIP3   OH279699   6.471   4.803   0.219  0.0676 -0.0056  0.4658
19403TIP3    H179700   6.548   4.746   0.220 -0.8213 -1.2295  0.2815
19403TIP3    H279701   6.416   4.771   0.289 -0.1595  1.0641  0.7986
19404TIP3   OH279702   1.718   2.095   5.477 -0.1886 -0.0941 -0.5008
19404TIP3    H179703   1.684   2.183   5.460 -3.0384 -0.8809  0.5025
19404TIP3    H279704   1.741   2.096   5.570 -0.1847 -0.4111 -0.4984
19405TIP3   OH279705   2.770   6.636   3.657 -0.0857  0.5093 -0.1739
19405TIP3    H179706   2.752   6.718   3.704  2.2183  1.5908 -0.9664
19405TIP3    H279707   2.856   6.609   3.689 -0.0159 -0.6226 -1.2273
19406TIP3   OH279708   0.525   6.577   1.296  0.2828 -0.5868  0.4491
19406TIP3    H179709   0.605   6.561   1.346  0.4630  0.4760  0.5391
19406TIP3    H279710   0.552   6.572   1.204  0.8997  1.5647  0.4560
19407TIP3   OH279711   2.109   2.200   2.765 -0.0469  0.0753 -0.1695
19407TIP3    H179712   2.061   2.268   2.717  0.8165  1.1291  0.4358
19407TIP3    H279713   2.080   2.118   2.723 -1.0042  0.7968 -1.0004
19408TIP3   OH279714   1.067   6.413  16.793 -0.0501  0.2010  0.3252
19408TIP3    H179715   1.095   6.364  16.871  0.1065  2.1318  1.5411
19408TIP3    H279716   1.142   6.409  16.734 -0.5735 -2.2649 -0.3002
19409TIP3   OH279717   3.881   6.237   5.344  0.9796 -0.1811  0.2695
19409TIP3    H179718   3.820   6.310   5.349  1.9838  0.8268 -1.2964
19409TIP3    H279719   3.833   6.168   5.299  0.3428 -0.1523  0.8915
19410TIP3   OH279720   3.640   3.380  12.947 -0.2320  0.3807  0.1329
19410TIP3    H179721   3.579   3.396  12.874 -2.9422 -0.6490  2.0137
19410TIP3    H279722   3.674   3.467  12.968 -2.3426  1.3232  0.0107
19411TIP3   OH279723   6.413   3.469   5.254  0.4081 -0.0514  0.0623
19411TIP3    H179724   6.365   3.391   5.283  1.9873 -1.2804 -0.4725
19411TIP3    H279725   6.355   3.542   5.274 -1.4235 -1.4106 -0.0335
19412TIP3   OH279726   4.642   5.993  11.833  0.2132  0.1213  0.4663
19412TIP3    H179727   4.633   5.917  11.775 -2.0761  0.9936 -0.4339
19412TIP3    H279728   4.642   6.068  11.774 -1.5341  1.0014  1.5202
19413TIP3   OH279729   1.959   1.766   1.028 -0.0552  0.2339 -0.1429
19413TIP3    H179730   2.043   1.726   1.006 -0.0240  0.4845 -0.4943
19413TIP3    H279731   1.900   1.738   0.958 -0.0276  0.8079 -0.4014
19414TIP3   OH279732   6.258   4.380  15.147 -0.0668  0.0327 -0.0874
19414TIP3    H179733   6.256   4.420  15.060  0.2649 -0.1466 -0.1797
19414TIP3    H279734   6.172   4.340  15.157  0.0391 -0.3148 -0.5090
19415TIP3   OH279735   0.168   5.797  11.821  0.4401  0.5287  0.0559
19415TIP3    H179736   0.220   5.851  11.880  0.9198 -0.6584  0.7536
19415TIP3    H279737   0.158   5.713  11.867 -0.3738  0.0492 -0.9457
19416TIP3   OH279738   4.507   6.444  15.139 -0.3099  0.3190  0.4842
19416TIP3    H179739   4.515   6.539  15.138  0.4283  0.2663  0.8288
19416TIP3    H279740   4.435   6.427  15.201 -0.4657  0.6517  0.3961
19417TIP3   OH279741   1.803   0.475   3.216  0.7102 -0.2815  0.4537
19417TIP3    H179742   1.855   0.555   3.208  1.6859 -0.8138  1.2610
19417TIP3    H279743   1.836   0.418   3.147 -0.3236  0.1757 -0.4389
19418TIP3   OH279744   2.517   6.238   0.852  0.2286  0.3599 -0.1811
19418TIP3    H179745   2.505   6.175   0.780  1.2384 -0.0307 -0.0261
19418TIP3    H279746   2.569   6.308   0.813  0.1809  0.4867 -0.0142
19419TIP3   OH279747   4.640   1.822   1.442  0.5854 -0.0420  0.0445
19419TIP3    H179748   4.735   1.814   1.440  0.8255  2.3160 -1.1384
19419TIP3    H279749   4.620   1.896   1.384 -1.8576  0.3663  1.2483
19420TIP3   OH279750   0.457   1.640   5.535 -0.0800 -0.0342 -0.0809
19420TIP3    H179751   0.363   1.640   5.552  0.0469  0.0536  0.6541
19420TIP3    H279752   0.470   1.708   5.469 -0.4061  0.6483  0.5524
19421TIP3   OH279753   6.362   2.894   1.450  0.0427 -0.1059 -0.5448
19421TIP3    H179754   6.301   2.833   1.491 -0.5524  2.0724  2.1021
19421TIP3    H279755   6.307   2.966   1.419  0.8844 -0.0793 -2.0842
19422TIP3   OH279756   5.334   1.898  13.099 -0.1088 -0.0774  0.0903
19422TIP3    H179757   5.390   1.909  13.176  0.0511  1.7685 -0.2470
19422TIP3    H279758   5.245   1.894  13.134  0.0269 -0.0958  0.4313
19423TIP3   OH279759   3.561   5.133   1.532 -0.4656  0.4135  0.5521
19423TIP3    H179760   3.483   5.171   1.491  0.2289 -0.4322 -1.7527
19423TIP3    H279761   3.615   5.208   1.554 -0.4537  0.9301 -1.0686
19424TIP3   OH279762   1.014   0.111  16.068 -0.7952 -0.1946 -0.2629
19424TIP3    H179763   1.092   0.062  16.043 -1.1570 -1.5259  1.0487
19424TIP3    H279764   0.945   0.044  16.070 -2.1643  1.0559 -2.0863
19425TIP3   OH279765   0.291   2.102  15.407 -0.4003  0.0742 -0.0323
19425TIP3    H179766   0.336   2.186  15.397  0.3724 -0.3198  0.0749
19425TIP3    H279767   0.262   2.080  15.319 -0.5993  0.4487 -0.0619
19426TIP3   OH279768   6.398   3.722  10.361  0.5248 -0.1231  0.0586
19426TIP3    H179769   6.320   3.689  10.317  0.3000 -2.7091  2.1628
19426TIP3    H279770   6.384   3.702  10.454  2.9400  0.9088  0.7287
19427TIP3   OH279771   6.056   6.233   5.491 -0.4973  0.4265  0.4015
19427TIP3    H179772   6.002   6.153   5.494  0.8531 -0.6538 -1.5383
19427TIP3    H279773   6.123   6.213   5.425  0.4045  2.8712  0.5056
19428TIP3   OH279774   4.636   6.224  15.279  0.3275  0.3076 -0.1770
19428TIP3    H179775   4.544   6.206  15.258  0.6805 -1.5051 -0.3335
19428TIP3    H279776   4.634   6.306  15.328 -1.2870  0.7299 -0.8961
19429TIP3   OH279777   1.787   0.741  16.813  0.0729 -0.3783 -0.5557
19429TIP3    H179778   1.734   0.664  16.833  0.3882 -0.8272 -1.3523
19429TIP3    H279779   1.788   0.792  16.893  0.5208 -1.6092  0.2449
19430TIP3   OH279780   0.487   3.072   6.239  0.3226 -0.9492  0.3451
19430TIP3    H179781   0.454   3.141   6.297 -0.5385 -1.8252  0.9287
19430TIP3    H279782   0.581   3.086   6.237  0.0279  1.2527 -0.8758
19431TIP3   OH279783   6.187   0.155   0.689  0.2323 -0.2221 -0.3717
19431TIP3    H179784   6.180   0.175   0.782  0.0665  0.3792 -0.5059
19431TIP3    H279785   6.258   0.091   0.683  0.9188  0.4851  0.0630
19432TIP3   OH279786   5.241   1.882  11.966  0.5002  0.3156  0.3659
19432TIP3    H179787   5.261   1.976  11.970 -0.8353  0.6220  0.4361
19432TIP3    H279788   5.166   1.876  11.907 -1.2962 -0.3131  2.5254
19433TIP3   OH279789   2.715   4.132  17.251 -0.8618 -0.3842 -0.0770
19433TIP3    H179790   2.648   4.078  17.293  1.3597 -1.3139  2.6138
19433TIP3    H279791   2.791   4.073  17.244  0.4641  1.3172 -0.6306
19434TIP3   OH279792   6.100   1.450  16.745 -0.4274  0.1994  0.2523
19434TIP3    H179793   6.155   1.375  16.766 -1.2772 -0.5719 -0.2082
19434TIP3    H279794   6.055   1.426  16.665 -1.2711  0.9003  0.4972
19435TIP3   OH279795   4.864   2.937  15.008  0.2474  0.2552  0.0567
19435TIP3    H179796   4.932   2.879  15.044 -0.6675  0.1814  1.7899
19435TIP3    H279797   4.901   3.025  15.016  1.2943  0.0245 -1.7839
19436TIP3   OH279798   6.052   1.601   2.386 -0.4848 -0.2638  0.4206
19436TIP3    H179799   6.129   1.608   2.329 -0.3670 -1.7483  0.3510
19436TIP3    H279800   6.034   1.691   2.412  0.2200  0.3165 -0.9476
19437TIP3   OH279801   1.446   0.161  12.017 -0.2285 -0.3615  0.5992
19437TIP3    H179802   1.518   0.099  12.009 -0.7038 -0.8475 -0.1521
19437TIP3    H279803   1.488   0.247  12.018  0.3680 -0.6417  0.2701
19438TIP3   OH279804   6.304   0.979   3.470 -0.1274 -0.0740  0.4817
19438TIP3    H179805   6.225   0.991   3.418  0.6284  0.6374 -0.5295
19438TIP3    H279806   6.326   0.886   3.458  0.2704  0.1745 -0.8233
19439TIP3   OH279807   5.889   2.283  15.608  0.6120  0.9555 -0.1470
19439TIP3    H179808   5.905   2.321  15.522  1.2549  2.6316  0.6725
19439TIP3    H279809   5.898   2.188  15.595 -3.7320  0.6495 -2.8621
19440TIP3   OH279810   0.259   1.296   2.992 -0.2268  0.0502  0.4818
19440TIP3    H179811   0.320   1.369   2.978 -0.7519  0.4080  0.0542
19440TIP3    H279812   0.206   1.293   2.912 -0.7016 -0.3281  0.8083
19441TIP3   OH279813   6.405   5.740   0.358  0.3985 -0.5197  0.3972
19441TIP3    H179814   6.415   5.754   0.264  1.6544  0.0509  0.5922
19441TIP3    H279815   6.494   5.722   0.389 -0.0618 -1.1084  1.4172
19442TIP3   OH279816   5.369   4.357  11.164 -0.2034  0.1816  0.4887
19442TIP3    H179817   5.406   4.445  11.175 -0.6049  0.4872 -0.4899
19442TIP3    H279818   5.322   4.340  11.246  0.5128  0.5594  0.9893
19443TIP3   OH279819   2.565   5.703   5.406  0.0113 -0.4231 -0.1228
19443TIP3    H179820   2.497   5.766   5.383 -0.4407 -1.4277 -1.6751
19443TIP3    H279821   2.532   5.659   5.484 -0.5637 -0.0865 -0.1739
19444TIP3   OH279822   3.524   1.005  15.590 -0.2351 -0.0503 -0.2503
19444TIP3    H179823   3.544   0.977  15.501  0.4791  0.9263 -0.4128
19444TIP3    H279824   3.606   1.044  15.622 -0.1546 -1.3335  1.2206
19445TIP3   OH279825   0.499   3.887   0.870  0.2891 -0.3346 -0.2244
19445TIP3    H179826   0.562   3.919   0.934 -0.5295 -0.4073  0.6407
19445TIP3    H279827   0.458   3.966   0.836 -1.6448 -0.3650  1.8218
19446TIP3   OH279828   3.382   5.113  16.774 -0.0653 -0.2454 -0.2530
19446TIP3    H179829   3.325   5.076  16.706 -2.2769  1.2478  0.6879
19446TIP3    H279830   3.325   5.127  16.849  1.2137  2.5422  0.3184
19447TIP3   OH279831   3.165   2.683  16.131 -0.2164  0.2293  0.2741
19447TIP3    H179832   3.151   2.660  16.039  0.3561 -1.7108  0.6276
19447TIP3    H279833   3.234   2.749  16.129  0.4203 -0.4419 -0.6451
19448TIP3   OH279834   6.472   0.210   2.333 -0.7423  0.1074  0.0407
19448TIP3    H179835   6.547   0.247   2.380 -1.5328  3.6608 -1.2081
19448TIP3    H279836   6.398   0.226   2.392 -1.1517  0.9663 -0.6817
19449TIP3   OH279837   5.495   5.940   0.134  0.6299  0.0054 -0.5514
19449TIP3    H179838   5.411   5.983   0.154 -0.8544 -1.8598 -2.3392
19449TIP3    H279839   5.549   6.010   0.098 -0.7542  0.9446 -0.9210
19450TIP3   OH279840   5.164   6.029   3.247 -0.1760 -0.2247  0.3236
19450TIP3    H179841   5.165   6.024   3.343 -0.0031 -0.3144  0.3186
19450TIP3    H279842   5.097   5.966   3.221 -0.4798  0.0683  0.3997
19451TIP3   OH279843   5.252   0.080  13.051 -0.4769 -0.0783  0.7513
19451TIP3    H179844   5.214   0.108  12.968  1.4533 -0.8599 -0.4633
19451TIP3    H279845   5.196   0.009  13.081 -0.2686 -0.9274 -0.7775
19452TIP3   OH279846   5.587   0.106   6.883 -0.1116  0.1304  0.2504
19452TIP3    H179847   5.511   0.153   6.918 -0.8018 -0.5164 -0.3485
19452TIP3    H279848   5.591   0.131   6.791  0.1113 -0.2162  0.1642
19453TIP3   OH279849   3.978   2.008  15.493 -0.1628  0.1554  0.1830
19453TIP3    H179850   4.072   2.013  15.474 -0.0383 -0.1115  0.7082
19453TIP3    H279851   3.954   1.918  15.473 -0.5429  0.4851 -0.9490
19454TIP3   OH279852   4.305   6.133   4.472  0.4453 -0.4436 -0.2933
19454TIP3    H179853   4.284   6.209   4.527  0.7004 -1.1647  0.8202
19454TIP3    H279854   4.267   6.155   4.386  1.7850  1.6114 -0.4522
19455TIP3   OH279855   1.313   2.085   0.097 -0.0792  0.9284 -0.1827
19455TIP3    H179856   1.247   2.023   0.066  0.0011 -0.4846  2.2557
19455TIP3    H279857   1.365   2.106   0.019 -0.9988 -0.9538 -1.3571
19456TIP3   OH279858   1.550   4.475  15.427 -0.6545 -0.0584 -0.0008
19456TIP3    H179859   1.560   4.561  15.386 -0.0780 -0.7779 -1.4469
19456TIP3    H279860   1.606   4.417  15.375 -0.5150 -1.1901  1.3541
19457TIP3   OH279861   3.777   3.814  11.422  0.4229 -0.4221  0.6021
19457TIP3    H179862   3.703   3.765  11.387  1.6196 -0.8787 -1.4696
19457TIP3    H279863   3.740   3.867  11.492 -1.9576 -0.3026 -0.6366
19458TIP3   OH279864   6.327   0.340   6.536 -0.4620  0.7224 -0.3735
19458TIP3    H179865   6.408   0.349   6.487 -0.3109 -0.3187 -0.3385
19458TIP3    H279866   6.354   0.323   6.626 -0.7159  0.7529 -0.2898
19459TIP3   OH279867   4.801   6.204  12.852  0.6531  0.1917  0.1458
19459TIP3    H179868   4.778   6.121  12.894 -1.0544 -0.5814 -2.1639
19459TIP3    H279869   4.830   6.179  12.764  1.3779  1.9718 -0.1563
19460TIP3   OH279870   1.116   5.263  14.378  0.5258 -0.5522  0.4398
19460TIP3    H179871   1.190   5.302  14.331  1.9377 -1.2498  1.9993
19460TIP3    H279872   1.057   5.234  14.309  1.1518  1.0211 -0.8375
19461TIP3   OH279873   4.421   4.088  13.176  0.3242 -0.3950 -0.7153
19461TIP3    H179874   4.389   4.001  13.154  0.1488 -0.2054 -1.2453
19461TIP3    H279875   4.510   4.092  13.140  0.1113 -0.1545 -1.2364
19462TIP3   OH279876   6.300   3.635  11.738 -0.5785  0.5915 -0.1005
19462TIP3    H179877   6.364   3.566  11.722 -1.1827 -0.2448  0.9221
19462TIP3    H279878   6.275   3.666  11.651  0.6222  0.3975 -0.5332
19463TIP3   OH279879   3.904   1.318   0.062 -0.2896 -0.1776  0.3156
19463TIP3    H179880   3.901   1.413   0.065  1.1714 -0.0915 -0.2426
19463TIP3    H279881   3.897   1.297  -0.031  1.8255 -0.4708  0.1824
19464TIP3   OH279882   0.072   3.256   5.149  0.2702 -0.1461 -0.1963
19464TIP3    H179883   0.160   3.251   5.186  0.7317 -0.4506 -1.3088
19464TIP3    H279884   0.029   3.325   5.200  1.5853  0.9660 -0.5161
19465TIP3   OH279885   2.917   6.765   3.962 -0.7201 -0.3900  0.3937
19465TIP3    H179886   2.969   6.790   4.038  1.3781 -1.6307 -0.5474
19465TIP3    H279887   2.877   6.682   3.987 -0.8411 -0.2972  0.5065
19466TIP3   OH279888   2.774   0.965   3.599  0.3002  0.6626 -0.1867
19466TIP3    H179889   2.792   1.016   3.677 -0.8281  0.7220  0.0573
19466TIP3    H279890   2.685   0.989   3.574  0.9100  1.2574 -1.9705
19467TIP3   OH279891   4.876   1.458  13.296 -0.3624  0.1252 -0.4712
19467TIP3    H179892   4.785   1.429  13.300 -1.0488  2.0153 -1.2413
19467TIP3    H279893   4.885   1.497  13.208  0.6966  1.4268  0.1744
19468TIP3   OH279894   0.447   5.727   4.944 -0.1842  0.1090  0.4494
19468TIP3    H179895   0.391   5.706   4.869  0.0363  2.0036 -0.2988
19468TIP3    H279896   0.410   5.677   5.017 -1.9068  0.1194 -0.3814
19469TIP3   OH279897   2.076   0.046  14.294  0.3341  0.2806 -0.5588
19469TIP3    H179898   2.069  -0.039  14.252  0.3864  0.8566 -1.7644
19469TIP3    H279899   2.158   0.083  14.261  0.0598  1.0048 -0.4455
19470TIP3   OH279900   0.957   4.024   1.874 -0.3886  0.2523 -0.4433
19470TIP3    H179901   0.964   3.955   1.808  0.1104  1.1692 -1.3835
19470TIP3    H279902   0.875   4.006   1.919  0.8850 -2.3994  1.0296
19471TIP3   OH279903   4.200   0.261   2.765 -0.0292  0.0861 -0.1709
19471TIP3    H179904   4.151   0.341   2.747  0.0048  0.2407  0.4025
19471TIP3    H279905   4.236   0.274   2.853 -1.6518 -1.3642  0.7730
19472TIP3   OH279906   0.972   3.342   5.705 -0.2797  0.0675  0.4568
19472TIP3    H179907   1.007   3.325   5.618 -0.5641 -1.3978  0.6054
19472TIP3    H279908   0.953   3.436   5.705 -0.1674  0.1145 -1.0115
19473TIP3   OH279909   1.738   0.282  16.206 -0.6251  0.0382 -0.0794
19473TIP3    H179910   1.825   0.255  16.177 -0.9385 -2.1635  0.8452
19473TIP3    H279911   1.738   0.377  16.196  2.0058  0.1436  0.2228
19474TIP3   OH279912   1.827   3.525   3.230 -0.7599 -0.2017 -0.2023
19474TIP3    H179913   1.865   3.486   3.152  1.7187  0.1671  0.7191
19474TIP3    H279914   1.777   3.600   3.198 -0.5568 -0.5930 -1.4897
19475TIP3   OH279915   0.703   4.630   4.032  0.1456 -0.4694  0.4766
19475TIP3    H179916   0.717   4.696   3.964 -0.3195  0.2605  1.0665
19475TIP3    H279917   0.697   4.681   4.113  0.6396 -1.3220  1.0577
19476TIP3   OH279918   1.599   6.031  16.804 -0.2945 -0.7985  0.0211
19476TIP3    H179919   1.655   6.094  16.848 -0.3775 -0.6813 -0.0417
19476TIP3    H279920   1.615   5.948  16.850  0.3341 -0.8871 -0.3318
19477TIP3   OH279921   3.913   0.775   2.444 -0.4734 -0.0066 -0.0579
19477TIP3    H179922   3.922   0.687   2.480  2.4897 -0.7598 -2.3005
19477TIP3    H279923   3.827   0.775   2.401 -0.9135 -1.4588  0.7635
19478TIP3   OH279924   6.635   6.636   3.009 -0.3812  0.1122  0.1762
19478TIP3    H179925   6.573   6.584   3.060 -0.6115  0.1138 -0.0976
19478TIP3    H279926   6.580   6.701   2.964 -0.1318  0.4026  0.2833
19479TIP3   OH279927   5.646   0.014  14.186 -0.1159  0.1043 -0.1328
19479TIP3    H179928   5.616  -0.076  14.170  3.3207 -1.2892  0.2865
19479TIP3    H279929   5.592   0.044  14.259 -2.1920 -1.1139 -1.0718
19480TIP3   OH279930   2.697   1.450   6.314 -0.0651  0.1052 -0.0421
19480TIP3    H179931   2.633   1.520   6.308 -1.2265 -1.0161 -2.4879
19480TIP3    H279932   2.779   1.494   6.336 -1.3076  1.7948  1.4685
19481TIP3   OH279933   3.280   4.118  14.185 -0.2856  0.0100 -0.2483
19481TIP3    H179934   3.322   4.126  14.099  1.9284 -1.2355  0.6409
19481TIP3    H279935   3.353   4.112  14.247 -1.8193 -0.0966  1.6494
19482TIP3   OH279936   3.645   1.038  12.327  0.1662  0.5971  0.4437
19482TIP3    H179937   3.660   1.047  12.233 -1.1906 -1.0547  0.0198
19482TIP3    H279938   3.552   1.017  12.334  0.3509  0.2159  2.1391
19483TIP3   OH279939   3.072   2.617  15.113 -0.2618 -0.5657 -0.5248
19483TIP3    H179940   3.153   2.574  15.086  1.1114  0.2227  2.0284
19483TIP3    H279941   3.026   2.635  15.031  2.7685  0.2145 -2.2116
19484TIP3   OH279942   0.307   0.830   4.580  0.2606  0.3425  0.0362
19484TIP3    H179943   0.350   0.744   4.584 -0.1786 -0.0171 -1.7706
19484TIP3    H279944   0.378   0.892   4.563  0.2950 -0.0524 -1.4176
19485TIP3   OH279945   2.834   0.566  16.805 -0.0285 -0.2577  0.2295
19485TIP3    H179946   2.878   0.549  16.722  1.9238  1.9991  0.6824
19485TIP3    H279947   2.778   0.641  16.789  0.5601  0.3617  0.9737
19486TIP3   OH279948   5.644   4.446   1.945  0.2202  0.2816  0.1085
19486TIP3    H179949   5.668   4.529   1.905 -0.4877  0.5902  0.2951
19486TIP3    H279950   5.667   4.456   2.037  0.2511  0.2270  0.1068
19487TIP3   OH279951   2.048   5.114  11.082 -0.1641  0.1598 -0.2928
19487TIP3    H179952   2.070   5.201  11.050  0.5655  0.0307 -0.1519
19487TIP3    H279953   2.036   5.061  11.003 -0.0531  0.2487 -0.3676
19488TIP3   OH279954   6.595   0.061  13.668 -0.1134 -0.2585 -0.1219
19488TIP3    H179955   6.659   0.093  13.732  1.2759 -0.2018 -1.5018
19488TIP3    H279956   6.566  -0.023  13.704  0.7858 -0.3186  0.4987
19489TIP3   OH279957   0.544   2.029  10.902  0.1536 -0.1606 -0.1287
19489TIP3    H179958   0.561   2.056  10.812  0.0499 -1.5880 -0.6137
19489TIP3    H279959   0.596   1.949  10.913  0.5221  0.2417  1.2366
19490TIP3   OH279960   4.852   2.106  13.057  0.1865 -0.1306  0.4353
19490TIP3    H179961   4.913   2.081  13.127  0.2201 -3.1715 -0.5288
19490TIP3    H279962   4.805   2.025  13.036 -0.4172  0.8496 -2.4925
19491TIP3   OH279963   1.185   1.602  13.187  0.1970 -0.3485 -0.1234
19491TIP3    H179964   1.243   1.608  13.111  0.3470 -0.6584 -0.0352
19491TIP3    H279965   1.176   1.693  13.218 -1.7004  0.1314 -1.8660
19492TIP3   OH279966   0.417   2.387   5.345  0.2299 -0.1668  0.6394
19492TIP3    H179967   0.331   2.420   5.372 -0.5799 -2.0923  0.6261
19492TIP3    H279968   0.438   2.436   5.266 -1.3828 -0.4020  0.0350
19493TIP3   OH279969   6.213   4.760  15.958 -0.4550 -0.3913 -0.4777
19493TIP3    H179970   6.182   4.846  15.988  0.5482  0.4304 -1.6951
19493TIP3    H279971   6.143   4.700  15.982 -1.0756  0.7138  0.6313
19494TIP3   OH279972   3.759   5.970  12.798  0.0650  0.3373 -0.1474
19494TIP3    H179973   3.668   5.958  12.769 -0.2245  0.0124  0.8616
19494TIP3    H279974   3.798   6.025  12.730 -0.5538 -0.4819 -1.2010
19495TIP3   OH279975   6.695   0.023  16.417 -0.3727  0.3752 -0.7190
19495TIP3    H179976   6.737  -0.047  16.466 -1.4516  0.2688  0.1042
19495TIP3    H279977   6.724   0.011  16.327 -0.9364 -1.4549 -0.6921
19496TIP3   OH279978   6.053   6.402   2.273 -0.6540 -0.9141 -0.0987
19496TIP3    H179979   6.004   6.461   2.330  0.9427 -0.2222  0.6106
19496TIP3    H279980   6.001   6.322   2.269 -1.4475 -0.4778  1.2385
19497TIP3   OH279981   2.826   5.867   3.174 -0.4258 -0.2247 -0.0221
19497TIP3    H179982   2.832   5.773   3.156  1.6999 -0.1652  0.2051
19497TIP3    H279983   2.852   5.909   3.091 -0.2509  0.1494  0.2191
19498TIP3   OH279984   3.906   6.363  14.233  0.3679  0.0005 -0.3339
19498TIP3    H179985   3.923   6.444  14.282  0.7293  0.0336 -0.5137
19498TIP3    H279986   3.968   6.300  14.269 -0.0556 -0.2561 -0.0501
19499TIP3   OH279987   0.628   1.867  16.212  0.7269 -0.2055 -0.1794
19499TIP3    H179988   0.694   1.835  16.274 -0.2292 -0.1373  0.9082
19499TIP3    H279989   0.614   1.793  16.153  1.2252 -0.4898  0.0440
19500TIP3   OH279990   6.044   2.060   4.706  0.5915  0.1461 -0.4325
19500TIP3    H179991   6.094   2.078   4.786  1.9521  0.0611 -1.2245
19500TIP3    H279992   5.956   2.039   4.736  1.0227  0.3396  1.0209
19501TIP3   OH279993   6.180   0.609  15.528  0.5303  0.1327  0.0007
19501TIP3    H179994   6.119   0.668  15.573 -1.3435 -1.4139 -0.3353
19501TIP3    H279995   6.243   0.583  15.595  0.9766  1.9540  0.3160
19502TIP3   OH279996   0.155   4.085   1.149  0.1102 -0.1885 -0.4508
19502TIP3    H179997   0.169   4.032   1.228 -3.0255 -1.0967 -0.3461
19502TIP3    H279998   0.074   4.132   1.167  0.3643  1.0732 -2.4166
19503TIP3   OH279999   1.951   3.043  12.600 -0.2754  0.2017 -0.2153
19503TIP3    H180000   1.973   3.114  12.661  1.6509  0.5960 -1.2746
19503TIP3    H280001   1.856   3.037  12.604 -0.3802  1.7652  1.0954
19504TIP3   OH280002   4.834   2.582  14.341  0.5452  0.7524 -0.6245
19504TIP3    H180003   4.744   2.572  14.372  1.0584 -1.3151  0.4022
19504TIP3    H280004   4.834   2.548  14.252  0.5105 -0.4663 -0.1846
19505TIP3   OH280005   4.104   5.767  17.357  0.2066 -0.2403 -0.4219
19505TIP3    H180006   4.097   5.680  17.396 -1.8932  0.3311  0.5932
19505TIP3    H280007   4.077   5.827  17.426 -2.2699  0.9171 -2.2139
19506TIP3   OH280008   4.292   4.575   1.780 -0.3395  0.3756  0.1220
19506TIP3    H180009   4.253   4.593   1.865 -0.0482 -0.6484  0.4908
19506TIP3    H280010   4.382   4.607   1.787 -0.6048  1.2000 -0.1512
19507TIP3   OH280011   2.596   0.722   3.792 -0.0635  0.5804  0.0497
19507TIP3    H180012   2.655   0.763   3.856  2.5416 -0.1228 -1.7594
19507TIP3    H280013   2.543   0.662   3.844  2.8078 -0.8971  1.5073
19508TIP3   OH280014   1.017   2.551   3.570 -0.0290 -0.6513 -0.4580
19508TIP3    H180015   0.971   2.600   3.502  1.3820  0.8858 -0.3627
19508TIP3    H280016   0.948   2.507   3.619 -1.4908  1.9862  0.0084
19509TIP3   OH280017   3.440   0.828   5.266  0.4706  0.1168 -0.0299
19509TIP3    H180018   3.411   0.856   5.179 -3.0249 -1.1731  0.5592
19509TIP3    H280019   3.384   0.754   5.288  2.0229 -0.3552  2.8940
19510TIP3   OH280020   6.616   0.413  11.442  0.6698 -0.3801 -0.0112
19510TIP3    H180021   6.679   0.374  11.502 -1.8613 -0.5720  2.7543
19510TIP3    H280022   6.664   0.484  11.400  3.3483 -1.9881  0.1100
19511TIP3   OH280023   2.026   3.980  17.405 -0.1560  0.1255 -0.1364
19511TIP3    H180024   2.117   3.997  17.432 -0.1947 -0.0992  0.1399
19511TIP3    H280025   1.983   3.949  17.485 -0.2665 -0.5784 -0.4630
19512TIP3   OH280026   2.953   5.228  12.086 -0.2349 -0.2007 -0.3109
19512TIP3    H180027   2.891   5.284  12.039 -0.9216 -2.1585 -1.9292
19512TIP3    H280028   2.993   5.175  12.017  1.7534 -0.3982  0.9363
19513TIP3   OH280029   5.872   3.552  15.858  0.1861 -0.0107 -0.5380
19513TIP3    H180030   5.837   3.517  15.940 -0.3011 -0.9924 -1.1484
19513TIP3    H280031   5.866   3.479  15.796  0.9688  0.5782 -1.3327
19514TIP3   OH280032   2.518   6.430   2.038  0.5227  0.0304 -0.1784
19514TIP3    H180033   2.476   6.394   2.116 -0.6606 -0.3244 -0.9523
19514TIP3    H280034   2.586   6.488   2.072  0.8985 -1.1240  1.1016
19515TIP3   OH280035   2.711   0.264   3.067  0.0690  0.2872 -0.1209
19515TIP3    H180036   2.762   0.302   3.138  0.7861 -0.2973 -0.3086
19515TIP3    H280037   2.777   0.239   3.001 -0.4891 -0.1637 -0.5166
19516TIP3   OH280038   5.527   0.913   4.470 -0.4342  0.2062 -0.1232
19516TIP3    H180039   5.541   0.819   4.482 -0.2888  0.1597 -0.6224
19516TIP3    H280040   5.546   0.951   4.555 -4.0463 -0.5740  1.2235
19517TIP3   OH280041   2.019   0.598  10.663 -0.0222  0.0503 -0.3046
19517TIP3    H180042   2.090   0.569  10.721 -0.0481  1.6139  0.5632
19517TIP3    H280043   2.062   0.658  10.602 -0.7368  1.9894  1.0018
19518TIP3   OH280044   1.592   4.554  16.299  0.2612  0.3204  0.0414
19518TIP3    H180045   1.534   4.531  16.226 -1.4769  3.6125  0.1729
19518TIP3    H280046   1.543   4.532  16.378  1.4674 -1.7282  0.2794
19519TIP3   OH280047   6.448   0.462  15.134 -0.3653  0.0470  0.0588
19519TIP3    H180048   6.444   0.405  15.058 -0.3271 -0.9181  0.7619
19519TIP3    H280049   6.423   0.406  15.208  0.4113  0.7439  0.8714
19520TIP3   OH280050   3.877   5.629  12.467 -0.2479 -0.0724  0.9032
19520TIP3    H180051   3.932   5.700  12.433 -1.2806  0.5792  0.5437
19520TIP3    H280052   3.939   5.562  12.495  0.6989 -0.0665 -0.9997
19521TIP3   OH280053   6.436   4.021   0.200  0.0093  0.2433  0.3368
19521TIP3    H180054   6.340   4.023   0.201  0.0038  0.5489  2.0782
19521TIP3    H280055   6.459   3.929   0.202 -0.2897  0.1769  2.0912
19522TIP3   OH280056   2.754   0.123   3.773  1.0602 -0.5363 -0.0930
19522TIP3    H180057   2.804   0.185   3.720  3.4349 -2.5267 -0.3876
19522TIP3    H280058   2.815   0.099   3.844 -1.0820  0.0836  2.1024
19523TIP3   OH280059   2.042   2.441  14.055 -0.0862  0.2422  0.0169
19523TIP3    H180060   2.065   2.430  13.963  0.4725 -1.5834  0.3462
19523TIP3    H280061   2.122   2.419  14.103 -0.1714  1.8046  0.9480
19524TIP3   OH280062   1.431   5.447   4.000  0.3904  0.1845 -0.5676
19524TIP3    H180063   1.387   5.457   4.085 -0.8639 -0.0282 -1.1624
19524TIP3    H280064   1.522   5.470   4.017  0.3574 -0.7227  1.0255
19525TIP3   OH280065   1.749   4.897  17.432  0.4465  0.5787 -0.0951
19525TIP3    H180066   1.744   4.916  17.338 -0.9609  0.8859  0.0187
19525TIP3    H280067   1.772   4.804  17.437  0.2154  0.4859 -0.7418
19526TIP3   OH280068   0.357   6.381   5.909  0.5855  0.9978  0.1349
19526TIP3    H180069   0.337   6.288   5.919  1.4209  0.9635  1.8540
19526TIP3    H280070   0.275   6.426   5.927  1.1748  0.7503  4.6723
19527TIP3   OH280071   3.413   0.410  15.755  0.2193  0.0570 -0.0664
19527TIP3    H180072   3.424   0.490  15.807 -1.9626  0.2986  0.1092
19527TIP3    H280073   3.320   0.389  15.762 -0.0042 -0.4587 -3.0684
19528TIP3   OH280074   5.023   6.587  14.066 -0.2718 -0.2731  0.1938
19528TIP3    H180075   5.095   6.569  14.126 -0.5782 -2.1765  0.0533
19528TIP3    H280076   5.063   6.586  13.979 -0.1778  0.4348  0.2255
19529TIP3   OH280077   0.297   3.356   0.078  0.0909 -0.4267  0.1366
19529TIP3    H180078   0.217   3.383   0.123 -0.8563 -3.2970  0.3418
19529TIP3    H280079   0.266   3.310   0.000  1.4283 -2.9984  1.0238
19530TIP3   OH280080   5.037   0.073   2.370 -0.1931 -0.3702  0.3545
19530TIP3    H180081   5.061   0.003   2.431 -0.2327 -1.7899 -1.1819
19530TIP3    H280082   4.943   0.085   2.382 -0.6311 -2.1511 -0.8358
19531TIP3   OH280083   1.729   6.522  12.972  0.4438  0.1424  0.1322
19531TIP3    H180084   1.779   6.494  13.049 -1.2436 -1.5729  0.6947
19531TIP3    H280085   1.691   6.607  12.997 -0.0055 -0.3486  1.1986
19532TIP3   OH280086   4.218   5.700   1.712 -0.3986  0.2422 -0.6178
19532TIP3    H180087   4.164   5.762   1.662 -0.1733 -0.3018 -1.5496
19532TIP3    H280088   4.190   5.712   1.803  0.4202  2.5254 -0.6019
19533TIP3   OH280089   6.555   3.412  13.552 -0.1771 -0.0336  0.3674
19533TIP3    H180090   6.553   3.317  13.552  2.6500 -0.1520  0.8750
19533TIP3    H280091   6.597   3.435  13.469 -1.5139  0.8352 -0.1023
19534TIP3   OH280092   4.477   0.107  15.382  0.0298  0.1305  0.4623
19534TIP3    H180093   4.485   0.076  15.291  0.9515  1.3137  0.1080
19534TIP3    H280094   4.434   0.192  15.375  0.7866  0.5777  1.0426
19535TIP3   OH280095   5.926   4.254  12.937 -0.3223  0.5966  0.6055
19535TIP3    H180096   6.005   4.301  12.911 -0.0029  0.0863  0.6522
19535TIP3    H280097   5.955   4.164  12.952 -1.1890  0.0217 -0.9292
19536TIP3   OH280098   6.722   5.177   1.448 -0.1788 -0.0671 -0.2722
19536TIP3    H180099   6.766   5.261   1.465  0.4033 -0.5736  0.8963
19536TIP3    H280100   6.758   5.118   1.515 -0.5561 -1.2600 -1.0900
19537TIP3   OH280101   5.728   3.231  11.799  0.3177  0.3417 -0.9928
19537TIP3    H180102   5.656   3.210  11.741 -0.4638  0.2614 -0.0150
19537TIP3    H280103   5.741   3.153  11.852 -0.4475  1.1197  0.4249
19538TIP3   OH280104   5.526   0.327   2.287  0.6341 -0.0043 -0.0303
19538TIP3    H180105   5.601   0.370   2.327  0.4707  0.1889  0.0716
19538TIP3    H280106   5.450   0.372   2.324  0.4802  0.3669 -0.7832
19539TIP3   OH280107   6.028   0.345   2.965  0.1889 -0.0097 -0.3130
19539TIP3    H180108   5.972   0.421   2.979  0.8073  0.5597 -0.8191
19539TIP3    H280109   5.994   0.278   3.024 -0.6239  0.5264 -0.1637
19540TIP3   OH280110   4.613   5.850  12.547 -0.2529 -0.1319 -0.1938
19540TIP3    H180111   4.647   5.886  12.465  0.9572 -0.8497 -0.0320
19540TIP3    H280112   4.690   5.814  12.591 -0.7396  0.8819  1.6085
19541TIP3   OH280113   6.734   1.825  11.284  0.3113 -0.2489 -0.5543
19541TIP3    H180114   6.801   1.794  11.223  0.2929  0.6790 -1.0526
19541TIP3    H280115   6.656   1.837  11.230 -0.8573 -3.0998  0.3184
19542TIP3   OH280116   0.295   0.468   2.880 -0.1429  0.1144  0.1047
19542TIP3    H180117   0.283   0.523   2.957 -1.8031  0.0223 -0.0378
19542TIP3    H280118   0.383   0.487   2.849 -0.2522  1.7891  0.7496
19543TIP3   OH280119   5.043   0.166   4.985 -0.0769 -0.5162  0.1115
19543TIP3    H180120   5.134   0.196   4.986 -1.0282  3.0238 -1.4489
19543TIP3    H280121   5.006   0.199   5.067 -0.3735 -0.3030 -0.1055
19544TIP3   OH280122   1.816   4.342   2.636 -0.2901  0.0774 -0.0325
19544TIP3    H180123   1.831   4.296   2.553  0.1634 -0.5813  0.4006
19544TIP3    H280124   1.904   4.350   2.674 -0.6047 -0.5615  0.8609
19545TIP3   OH280125   3.953   5.474   5.585 -0.0261  0.7950  0.1715
19545TIP3    H180126   3.866   5.514   5.590 -1.1108 -1.2384 -0.8950
19545TIP3    H280127   3.947   5.397   5.641  1.9584  1.9182  2.0875
19546TIP3   OH280128   0.009   4.520  11.658 -0.0462  0.0562 -0.2283
19546TIP3    H180129   0.099   4.515  11.691  0.2126  1.9011 -0.5202
19546TIP3    H280130  -0.032   4.588  11.712 -0.5501  0.8743 -1.5858
19547TIP3   OH280131   5.721   3.998  13.471  0.0200  0.0735 -0.4275
19547TIP3    H180132   5.739   4.057  13.398 -1.4110  0.9223 -0.1312
19547TIP3    H280133   5.752   4.046  13.548  0.6295 -0.4043 -0.3658
19548TIP3   OH280134   1.662   0.499  14.413  0.5126 -0.5334 -0.0199
19548TIP3    H180135   1.614   0.535  14.488 -1.8468  0.2853 -1.8143
19548TIP3    H280136   1.667   0.405  14.432 -2.3502 -0.7642  0.0639
19549TIP3   OH280137   1.601   1.023  13.526  0.5108 -0.0756  0.1485
19549TIP3    H180138   1.542   1.098  13.518  0.6051  0.1380  1.2502
19549TIP3    H280139   1.658   1.028  13.449 -0.0251  0.4898 -0.2207
19550TIP3   OH280140   0.282   2.653   6.853  0.5812  0.3428 -0.1728
19550TIP3    H180141   0.188   2.637   6.847  0.3880  0.8403  1.1800
19550TIP3    H280142   0.314   2.585   6.912  0.8472  0.9690  0.4101
19551TIP3   OH280143   1.444   4.528  11.604 -0.2185  0.3485  0.0327
19551TIP3    H180144   1.479   4.531  11.693  0.2373  1.0782 -0.1632
19551TIP3    H280145   1.416   4.618  11.586 -0.0500  0.2673 -0.6605
19552TIP3   OH280146   3.169   2.980   1.405  0.2350 -0.2822 -0.6938
19552TIP3    H180147   3.212   2.900   1.435  0.1405 -0.1091 -0.1040
19552TIP3    H280148   3.192   3.046   1.470 -2.9281 -0.7337  1.0797
19553TIP3   OH280149   5.504   2.184  14.656  0.5774 -0.2841  0.3780
19553TIP3    H180150   5.415   2.149  14.660 -0.1310  0.5784 -3.5496
19553TIP3    H280151   5.498   2.270  14.696 -0.3976 -0.2379  0.1608
19554TIP3   OH280152   0.175   1.639   5.578  0.0523 -0.3526  0.1747
19554TIP3    H180153   0.119   1.561   5.583 -0.0492 -0.3999 -1.2372
19554TIP3    H280154   0.130   1.696   5.515  0.1709  0.8224  1.1247
19555TIP3   OH280155   1.667   4.786  14.684 -0.0390  0.4680  0.1196
19555TIP3    H180156   1.592   4.729  14.704 -0.4725  1.1199  0.3861
19555TIP3    H280157   1.636   4.843  14.614  0.6002 -0.0251 -0.5773
19556TIP3   OH280158   6.308   0.978  13.381 -0.9892 -0.1111 -0.4624
19556TIP3    H180159   6.302   1.020  13.295  0.4162  0.5702 -0.2505
19556TIP3    H280160   6.252   0.901  13.374 -2.0877  0.7599 -1.4873
19557TIP3   OH280161   4.502   4.149   3.191 -0.6341 -0.4699  0.0126
19557TIP3    H180162   4.572   4.110   3.243 -1.3167 -1.1668  0.4431
19557TIP3    H280163   4.424   4.098   3.213 -1.7851  1.6729  1.2766
19558TIP3   OH280164   0.624   4.159  12.369 -0.1635  0.5740  0.0487
19558TIP3    H180165   0.685   4.170  12.442  0.4885 -0.4777 -0.3105
19558TIP3    H280166   0.612   4.064  12.362  0.4437  0.5861 -1.7322
19559TIP3   OH280167   0.079   2.417  12.230 -0.6392 -0.0556  0.4885
19559TIP3    H180168   0.118   2.363  12.300 -0.6858  1.0597  1.3988
19559TIP3    H280169  -0.015   2.409  12.244 -0.6822 -0.6814 -0.1182
19560TIP3   OH280170   2.717   2.980  12.476 -0.1281 -0.2403 -0.0596
19560TIP3    H180171   2.647   2.919  12.455  0.2197 -0.8188  0.4329
19560TIP3    H280172   2.674   3.049  12.527 -0.2402 -0.9225  0.7984
19561TIP3   OH280173   6.251   0.909  14.017  0.5770  0.0803  0.2190
19561TIP3    H180174   6.250   0.982  13.954 -0.2161  0.6861  0.9160
19561TIP3    H280175   6.258   0.952  14.103  0.7957 -0.7011  0.6000
19562TIP3   OH280176   4.145   3.072   3.658 -0.3179  0.4438  0.4993
19562TIP3    H180177   4.086   2.997   3.659  0.6588 -0.3397  0.0224
19562TIP3    H280178   4.215   3.048   3.598  1.3060  0.7178  2.1828
19563TIP3   OH280179   1.989   2.661   3.295  0.0708 -0.5409 -0.5115
19563TIP3    H180180   1.925   2.659   3.224 -0.1856 -1.8176 -0.2781
19563TIP3    H280181   2.054   2.725   3.267 -0.8218  0.0961 -1.1837
19564TIP3   OH280182   3.099   3.584   3.306  0.3917  0.0507 -0.1362
19564TIP3    H180183   3.118   3.589   3.212  0.9900  0.2572 -0.0069
19564TIP3    H280184   3.015   3.539   3.311  0.5794 -0.3768 -0.7515
19565TIP3   OH280185   3.485   3.471   4.483 -0.4897  0.2360  0.5141
19565TIP3    H180186   3.398   3.475   4.522 -0.9964  0.7919 -0.6268
19565TIP3    H280187   3.535   3.540   4.528 -1.2834  1.3825 -0.2987
19566TIP3   OH280188   0.979   5.129   2.059 -0.3960  0.3987 -1.0199
19566TIP3    H180189   0.928   5.049   2.058  2.1586 -1.5735  2.8357
19566TIP3    H280190   0.916   5.199   2.077 -2.1949 -1.2660 -0.6384
19567TIP3   OH280191   2.004   4.707  10.628  0.3060  0.2278 -0.1408
19567TIP3    H180192   1.910   4.696  10.615  0.0330  1.0478  0.9601
19567TIP3    H280193   2.036   4.745  10.546 -0.3176 -0.1058 -0.5390
19568TIP3   OH280194   3.632   5.568  14.024 -0.1806  0.0010 -0.3468
19568TIP3    H180195   3.652   5.629  13.953 -1.7772  0.2141 -0.6494
19568TIP3    H280196   3.539   5.581  14.042 -0.4220 -1.8980  0.0244
19569TIP3   OH280197   2.992   6.611   3.371 -0.0552  0.3839  0.1765
19569TIP3    H180198   2.957   6.561   3.445  1.3190  1.3645  1.5670
19569TIP3    H280199   2.986   6.552   3.297  1.2346 -1.7694  1.6720
19570TIP3   OH280200   1.933   5.746   3.147  0.8064 -0.1777  0.1472
19570TIP3    H180201   1.964   5.835   3.164 -0.4644  0.4270 -0.5695
19570TIP3    H280202   1.918   5.743   3.053  1.4511 -1.3848  0.0498
19571TIP3   OH280203   4.517   3.491  11.654 -0.5505 -0.2936 -0.2678
19571TIP3    H180204   4.542   3.563  11.712  1.2764 -1.0637 -0.0261
19571TIP3    H280205   4.588   3.427  11.664 -2.0845 -2.1229 -0.4900
19572TIP3   OH280206   4.920   4.645   3.090  0.2768  0.1745  0.5610
19572TIP3    H180207   4.935   4.631   2.997 -1.2220  1.6831  0.0551
19572TIP3    H280208   5.000   4.687   3.121  1.0739 -0.9909  0.1347
19573TIP3   OH280209   4.238   1.287  16.282 -0.3268 -0.0018 -0.2044
19573TIP3    H180210   4.182   1.365  16.283 -0.0957  0.1676 -0.0944
19573TIP3    H280211   4.234   1.255  16.192  0.5856  0.8948 -0.5913
19574TIP3   OH280212   1.702   5.418   4.393  0.2825  0.1864  0.1596
19574TIP3    H180213   1.660   5.457   4.470  2.6735  2.6043  0.4193
19574TIP3    H280214   1.768   5.359   4.429 -0.2616 -0.6015 -0.1232
19575TIP3   OH280215   4.070   3.068  11.590 -0.4025 -1.0228  0.5581
19575TIP3    H180216   4.123   2.991  11.609  0.1195 -0.2977  2.2339
19575TIP3    H280217   4.041   3.056  11.500  2.8368 -1.3445 -0.5667
19576TIP3   OH280218   4.233   0.607  17.389 -0.5818  0.3469  0.1352
19576TIP3    H180219   4.170   0.539  17.367 -0.1350  0.4049 -1.4690
19576TIP3    H280220   4.197   0.650  17.466 -2.2211  0.0064 -0.4132
19577TIP3   OH280221   0.750   1.125  13.015  0.4420 -0.5845  0.0399
19577TIP3    H180222   0.693   1.180  12.962  1.0277 -0.2290 -0.2256
19577TIP3    H280223   0.833   1.121  12.966  0.5979 -1.2241  0.3394
19578TIP3   OH280224   1.928   3.370  12.846  0.5469  0.4708 -0.1664
19578TIP3    H180225   1.928   3.274  12.850 -0.6379  0.4650 -0.1104
19578TIP3    H280226   1.920   3.398  12.937 -0.8307  0.5877 -0.3012
19579TIP3   OH280227   1.528   5.207  14.345 -0.0258  0.3429 -0.3018
19579TIP3    H180228   1.462   5.175  14.283  0.0710 -0.9050  0.2130
19579TIP3    H280229   1.607   5.215  14.292 -0.2339  0.4637 -0.6043
19580TIP3   OH280230   1.212   1.606  14.930 -0.7496  0.9255 -0.2564
19580TIP3    H180231   1.232   1.676  14.868 -0.9656  1.0974 -0.1345
19580TIP3    H280232   1.283   1.609  14.994 -0.6227  0.8656 -0.3940
19581TIP3   OH280233   6.652   2.983   4.894  0.8430 -0.2885  0.0531
19581TIP3    H180234   6.635   3.033   4.973  1.0469 -0.1058 -0.0164
19581TIP3    H280235   6.567   2.950   4.867  0.6928  0.1087  0.0429
19582TIP3   OH280236   2.126   6.260  14.282 -0.1378  0.3375 -0.0197
19582TIP3    H180237   2.033   6.251  14.263 -0.1672 -1.0409  0.6899
19582TIP3    H280238   2.170   6.224  14.204 -0.1935  0.5894 -0.1695
19583TIP3   OH280239   0.883   6.520  13.099 -0.0001  0.3551 -0.7426
19583TIP3    H180240   0.911   6.490  13.186  0.2131 -0.5179 -1.0999
19583TIP3    H280241   0.927   6.603  13.087 -0.6981  0.9127  0.3331
19584TIP3   OH280242   3.253   5.373   3.436 -0.4926  0.4714 -0.2602
19584TIP3    H180243   3.306   5.414   3.367  0.8478  1.9850  1.5657
19584TIP3    H280244   3.314   5.359   3.508 -2.0984  0.1297  1.0959
19585TIP3   OH280245   3.929   3.677   3.976 -0.0066 -0.3319  0.4032
19585TIP3    H180246   3.844   3.671   4.019  0.5508  0.6909  1.7541
19585TIP3    H280247   3.981   3.606   4.015  0.5081  0.6131  1.5162
19586TIP3   OH280248   4.040   5.844  14.298 -0.3709  0.2019  0.1458
19586TIP3    H180249   4.034   5.749  14.301  0.9287 -0.0945 -2.9820
19586TIP3    H280250   3.954   5.873  14.270 -0.0858 -0.3038 -1.3224
19587TIP3   OH280251   2.063   5.048   4.270 -0.5776 -0.0297 -0.7225
19587TIP3    H180252   2.067   5.012   4.181 -0.2290 -1.2105 -0.2402
19587TIP3    H280253   1.973   5.035   4.298 -0.6034  0.0380 -0.7726
19588TIP3   OH280254   0.173   1.706   0.202  0.0631  0.2666  0.3056
19588TIP3    H180255   0.263   1.693   0.232  0.9045  0.8665 -1.7588
19588TIP3    H280256   0.163   1.643   0.130 -0.5084  1.4573 -0.6942
19589TIP3   OH280257   3.235   0.735   0.773 -0.4535 -0.2705  0.3010
19589TIP3    H180258   3.291   0.704   0.843 -0.9747  0.9627  1.2936
19589TIP3    H280259   3.287   0.722   0.693  0.0549 -1.8962  0.8520
19590TIP3   OH280260   5.503   4.514   3.054 -0.2985  0.0229 -0.2292
19590TIP3    H180261   5.520   4.420   3.046  0.4576  0.2094 -1.0189
19590TIP3    H280262   5.464   4.538   2.970  2.8988  1.0688 -1.5534
19591TIP3   OH280263   5.743   4.410  13.116  0.0439  0.0754  0.7056
19591TIP3    H180264   5.795   4.391  13.038  1.2533 -0.7083  1.6585
19591TIP3    H280265   5.793   4.372  13.188 -1.9567 -0.8708  1.6698
19592TIP3   OH280266   3.250   1.740   4.678 -0.2165  0.2883 -0.1508
19592TIP3    H180267   3.201   1.789   4.745 -0.7898  0.9307 -0.9996
19592TIP3    H280268   3.342   1.752   4.701 -0.4060 -1.8847  2.1392
19593TIP3   OH280269   4.552   2.852  15.276 -0.2527 -0.2597  0.4575
19593TIP3    H180270   4.535   2.792  15.349 -0.8528  1.9008  2.1834
19593TIP3    H280271   4.648   2.851  15.267 -0.2765 -1.8631  0.0547
19594TIP3   OH280272   2.515   4.349  15.601 -0.1071  0.5471  0.2223
19594TIP3    H180273   2.532   4.389  15.516 -0.6821 -0.6019 -0.4546
19594TIP3    H280274   2.438   4.395  15.634 -0.5049  0.3132 -0.3542
19595TIP3   OH280275   5.068   3.359   1.487  0.7812  0.1617  0.2524
19595TIP3    H180276   5.057   3.335   1.395  2.5722 -0.8838  0.2540
19595TIP3    H280277   5.016   3.438   1.498 -0.7734 -0.5985 -1.2353
19596TIP3   OH280278   3.509   0.234   6.988 -0.2518 -0.1134  0.1981
19596TIP3    H180279   3.518   0.223   6.893  0.0212 -3.9996  0.5245
19596TIP3    H280280   3.590   0.280   7.014 -0.2682  0.8819 -1.3730
19597TIP3   OH280281   3.167   5.579  11.932 -0.3824  0.0835  0.1542
19597TIP3    H180282   3.210   5.494  11.926 -0.9222 -0.2515  0.9227
19597TIP3    H280283   3.103   5.569  12.002 -1.2524  0.7852 -0.5257
19598TIP3   OH280284   0.604   4.754   4.800  0.2310 -0.0461 -0.4037
19598TIP3    H180285   0.576   4.664   4.784 -2.6251  1.0880 -2.7830
19598TIP3    H280286   0.665   4.773   4.728 -1.7609  0.8101 -1.9754
19599TIP3   OH280287   6.423   2.771   1.159 -0.5330  0.6159  0.1586
19599TIP3    H180288   6.393   2.680   1.155  0.1090  0.4132 -0.5012
19599TIP3    H280289   6.380   2.808   1.235 -0.9921 -0.1790  0.2955
19600TIP3   OH280290   3.722   5.019  12.786  0.6463  0.6023  0.2288
19600TIP3    H180291   3.656   4.966  12.830  1.9106 -1.0500  0.2833
19600TIP3    H280292   3.677   5.098  12.759 -2.0203 -1.4307 -1.8628
19601TIP3   OH280293   2.960   6.428   0.024 -0.3033 -0.0403 -0.5887
19601TIP3    H180294   3.044   6.384   0.012  0.0374  0.5374 -0.3930
19601TIP3    H280295   2.913   6.413  -0.058 -0.1692 -0.7042 -0.5483
19602TIP3   OH280296   2.177   5.460   3.514 -0.3814  0.0595  0.3865
19602TIP3    H180297   2.144   5.399   3.448  2.5195 -2.6720  1.2140
19602TIP3    H280298   2.129   5.438   3.594  0.1253 -0.6561  0.5011
19603TIP3   OH280299   2.666   3.109   4.376 -0.0942 -0.0235  0.2140
19603TIP3    H180300   2.745   3.080   4.423  1.2879  0.3565 -1.7301
19603TIP3    H280301   2.684   3.201   4.354 -0.3848 -0.3627 -1.5688
19604TIP3   OH280302   6.551   6.654   0.296  0.1932  0.1147 -0.4012
19604TIP3    H180303   6.511   6.627   0.379  0.0527 -0.1300 -0.5455
19604TIP3    H280304   6.632   6.603   0.291 -0.5434 -1.0399 -1.1325
19605TIP3   OH280305   5.976   4.115  10.738  0.0011  0.2293 -0.3369
19605TIP3    H180306   5.988   4.202  10.778 -0.0405  0.0233  0.1348
19605TIP3    H280307   6.047   4.109  10.675  0.0585  0.5747 -0.3119
19606TIP3   OH280308   3.088   3.877   5.162 -0.2712 -0.1236 -0.1305
19606TIP3    H180309   3.116   3.791   5.131  0.5660 -1.5671  4.0314
19606TIP3    H280310   3.169   3.928   5.167 -0.4183  0.1373 -0.3816
19607TIP3   OH280311   2.225   5.698   2.642 -0.2579  0.2198 -0.1113
19607TIP3    H180312   2.218   5.749   2.723  1.2166  0.3493 -0.0258
19607TIP3    H280313   2.216   5.607   2.670  0.5683  0.2415  0.2821
19608TIP3   OH280314   5.081   0.259  12.611  0.0276 -0.0812 -0.5502
19608TIP3    H180315   5.149   0.218  12.559  0.9847  0.4929  0.2190
19608TIP3    H280316   5.043   0.326  12.554  1.0356  0.5103 -0.5588
19609TIP3   OH280317   3.196   0.973  11.876  0.9029  0.6736 -0.1933
19609TIP3    H180318   3.126   0.914  11.904  0.8047 -0.1383 -2.0763
19609TIP3    H280319   3.249   0.986  11.955 -0.0268 -0.5827  0.6723
19610TIP3   OH280320   2.816   4.378   3.169 -0.2996  0.4165  0.3649
19610TIP3    H180321   2.905   4.358   3.139 -0.2100 -0.2797  1.0641
19610TIP3    H280322   2.806   4.472   3.154  0.3714  0.4078 -0.1920
19611TIP3   OH280323   3.011   1.585  11.522  0.7128 -0.1029  0.1481
19611TIP3    H180324   2.996   1.611  11.613  0.2730 -1.0879  0.3613
19611TIP3    H280325   3.039   1.494  11.526  2.5126  0.3589 -0.5763
19612TIP3   OH280326   2.631   5.908   5.200  0.4202 -0.1409 -0.3127
19612TIP3    H180327   2.658   5.991   5.161 -0.0543  0.1647 -0.0035
19612TIP3    H280328   2.664   5.912   5.290  0.7290 -0.4562 -0.4076
19613TIP3   OH280329   0.756   3.153   6.192 -0.3472  0.6180  0.9239
19613TIP3    H180330   0.759   3.193   6.105 -0.6457  0.6004  0.9037
19613TIP3    H280331   0.847   3.128   6.210 -0.4241 -0.2536  0.2090
19614TIP3   OH280332   3.013   6.533   3.091  0.5612  0.0257 -0.0397
19614TIP3    H180333   2.960   6.456   3.106 -0.2671  0.9195  1.9929
19614TIP3    H280334   2.991   6.561   3.002 -0.9230 -0.7241  0.0674
19615TIP3   OH280335   4.119   1.122  15.374 -0.0280  0.1095  0.0642
19615TIP3    H180336   4.140   1.057  15.441 -1.6680 -0.3564  0.1574
19615TIP3    H280337   4.036   1.094  15.338 -0.1408  1.4597 -0.7999
19616TIP3   OH280338   5.040   3.690  12.015 -0.4398 -0.2905 -0.2754
19616TIP3    H180339   4.961   3.742  11.998 -0.9404 -0.9147  0.0819
19616TIP3    H280340   5.108   3.755  12.034 -0.2639  0.3720 -2.8604
19617TIP3   OH280341   6.442   2.736   0.848  0.6507  0.2032  0.0902
19617TIP3    H180342   6.507   2.673   0.815  1.3906  0.6788  0.6049
19617TIP3    H280343   6.395   2.688   0.916 -1.5114 -1.1011 -2.1545
19618TIP3   OH280344   0.050   3.317   3.695 -0.3280  0.0227  0.3543
19618TIP3    H180345   0.112   3.260   3.741  0.3159 -0.9466 -1.6044
19618TIP3    H280346   0.039   3.392   3.753 -1.4054 -2.1397  3.1899
19619TIP3   OH280347   4.481   3.168  12.257 -0.0817 -0.3243  0.3715
19619TIP3    H180348   4.508   3.227  12.187  1.8118 -0.8622  0.5913
19619TIP3    H280349   4.517   3.208  12.337 -0.0655 -0.9925  0.7080
19620TIP3   OH280350   5.566   1.504   3.811 -0.3937 -0.1022  0.1622
19620TIP3    H180351   5.638   1.504   3.748 -0.4097  1.7182  0.1116
19620TIP3    H280352   5.592   1.439   3.876  1.5169  0.7930  0.3679
19621TIP3   OH280353   1.813   5.033   3.027 -1.4761  0.0940  1.1948
19621TIP3    H180354   1.802   5.118   3.070 -0.2558 -0.1783  2.1000
19621TIP3    H280355   1.726   4.992   3.032 -2.2274  1.4900  0.2413
19622TIP3   OH280356   6.228   2.962   5.914 -0.2299  0.1091 -0.2965
19622TIP3    H180357   6.143   2.944   5.875 -0.1091 -0.5059 -0.2891
19622TIP3    H280358   6.211   2.961   6.009 -0.2374  0.1151 -0.2977
19623TIP3   OH280359   3.855   5.412  15.496 -0.4596 -0.0334 -0.0782
19623TIP3    H180360   3.852   5.426  15.591  0.0177 -0.5070  0.0114
19623TIP3    H280361   3.912   5.481  15.463  0.1307 -0.4271  0.0977
19624TIP3   OH280362   2.900   5.008  16.888 -0.3437  0.4660  0.0349
19624TIP3    H180363   2.951   5.081  16.853 -0.9374  1.6744  1.6004
19624TIP3    H280364   2.883   5.031  16.979  1.8750 -2.8887  1.5431
19625TIP3   OH280365   0.079   3.770   0.842 -0.6271 -0.0989 -0.2620
19625TIP3    H180366   0.033   3.830   0.783 -0.0896 -0.1046 -0.7021
19625TIP3    H280367   0.023   3.693   0.847 -0.7028 -0.0799 -0.7334
19626TIP3   OH280368   2.301   5.935  17.143 -0.4595 -0.2884 -0.0092
19626TIP3    H180369   2.395   5.918  17.141 -0.3590  0.2569 -2.2651
19626TIP3    H280370   2.265   5.863  17.195  0.8640 -2.5319 -2.0083
19627TIP3   OH280371   0.991   4.133  13.524  0.0018  0.6081 -0.1645
19627TIP3    H180372   0.998   4.222  13.491 -1.6634  0.9236  0.2779
19627TIP3    H280373   1.009   4.140  13.618  0.9882  0.2781 -0.3088
19628TIP3   OH280374   3.415   4.612   6.692  0.4649  0.3546  0.3968
19628TIP3    H180375   3.368   4.551   6.635 -0.5061 -1.6627  3.1787
19628TIP3    H280376   3.437   4.686   6.634 -0.5893 -1.4299 -2.5019
19629TIP3   OH280377   0.922   5.049   5.853 -0.4766 -0.4252  0.4305
19629TIP3    H180378   0.874   5.036   5.935 -1.2388 -0.3392  0.0134
19629TIP3    H280379   1.007   5.084   5.880 -0.3302 -1.3471  1.2390
19630TIP3   OH280380   2.522   2.201   1.848 -0.2731  0.3820  0.2911
19630TIP3    H180381   2.603   2.251   1.846 -0.0334  0.0427  1.1350
19630TIP3    H280382   2.453   2.264   1.827  0.1659  0.7478 -0.0502
19631TIP3   OH280383   5.806   3.318   1.232  0.5182 -0.2072  0.1438
19631TIP3    H180384   5.735   3.378   1.257  1.4494  0.9689  0.0688
19631TIP3    H280385   5.763   3.252   1.177 -0.8796 -0.6916  1.7124
19632TIP3   OH280386   4.028   5.253   2.713 -0.1533  0.3460  0.8289
19632TIP3    H180387   3.948   5.226   2.757  0.6111  0.0734  2.1117
19632TIP3    H280388   4.048   5.183   2.652 -1.1672  0.6668  0.1138
19633TIP3   OH280389   4.901   0.357   1.692  0.4253  0.0070 -0.1388
19633TIP3    H180390   4.841   0.422   1.730  0.1548 -0.1068 -0.3660
19633TIP3    H280391   4.936   0.400   1.614  1.6208  0.5632  0.6668
19634TIP3   OH280392   2.149   1.286   2.069 -0.0993  0.2287 -0.0605
19634TIP3    H180393   2.217   1.293   2.002  0.5978  0.0695  0.6112
19634TIP3    H280394   2.098   1.366   2.060  1.3914  1.3097  0.6997
19635TIP3   OH280395   2.956   1.883   1.534 -0.2632  0.5731 -0.2968
19635TIP3    H180396   2.995   1.958   1.490 -0.0332 -0.8628 -2.7285
19635TIP3    H280397   2.975   1.809   1.476 -3.2810 -0.8357  0.3360
19636TIP3   OH280398   4.944   4.711   3.552 -0.5627  0.7232 -0.0833
19636TIP3    H180399   5.020   4.755   3.515 -0.8161  0.7657 -0.5567
19636TIP3    H280400   4.891   4.687   3.477 -0.6676  0.0431  0.2010
19637TIP3   OH280401   2.264   5.369  13.882  0.2370 -0.2291 -0.3008
19637TIP3    H180402   2.331   5.409  13.937  0.7425 -1.2408 -0.1543
19637TIP3    H280403   2.285   5.276  13.883 -0.3153 -0.3818 -1.4451
19638TIP3   OH280404   2.669   0.729  12.407  0.0610 -0.1412 -0.1208
19638TIP3    H180405   2.666   0.661  12.474  0.7210 -0.6360 -0.5822
19638TIP3    H280406   2.666   0.811  12.456 -2.0502 -0.4735  0.3868
19639TIP3   OH280407   6.380   0.707  16.765 -0.1627 -0.4729 -0.7614
19639TIP3    H180408   6.471   0.698  16.795 -0.3857 -0.2264  0.0278
19639TIP3    H280409   6.330   0.650  16.823 -0.9384  1.8641  1.0626
19640TIP3   OH280410   3.947   5.019  10.980 -0.3121 -0.3050  0.5029
19640TIP3    H180411   3.991   5.009  11.065 -0.9874 -0.4692  0.8383
19640TIP3    H280412   3.981   4.946  10.928  0.7007  0.2480  0.3604
19641TIP3   OH280413   2.235   4.284  13.533 -0.0474  0.0966  0.7350
19641TIP3    H180414   2.324   4.252  13.546 -0.4450 -1.3952 -0.0654
19641TIP3    H280415   2.206   4.309  13.621 -0.0252 -2.6238  1.6154
19642TIP3   OH280416   4.198   5.353  14.670  0.4959  0.1142  0.5460
19642TIP3    H180417   4.289   5.349  14.699  0.8999  1.9468 -0.3483
19642TIP3    H280418   4.202   5.353  14.574 -0.3742  1.1598  0.4861
19643TIP3   OH280419   4.780   1.189  16.976 -0.5271  0.4177  0.1062
19643TIP3    H180420   4.797   1.099  16.950 -1.6896  0.2911 -0.2669
19643TIP3    H280421   4.836   1.203  17.052  0.4668 -0.2615 -0.4791
19644TIP3   OH280422   6.456   5.181  14.796  0.4615  0.4872  0.1089
19644TIP3    H180423   6.499   5.264  14.778  0.1142  0.4467 -0.9924
19644TIP3    H280424   6.443   5.180  14.891 -1.0426  2.4606 -0.0109
19645TIP3   OH280425   2.169   4.142   2.630  0.2573  0.0911 -0.1201
19645TIP3    H180426   2.232   4.120   2.699 -1.6833  1.7837  2.3627
19645TIP3    H280427   2.127   4.059   2.609 -0.0580 -0.2614  1.7640
19646TIP3   OH280428   3.133   0.006  12.387 -0.1228  0.3582 -0.1583
19646TIP3    H180429   3.215  -0.016  12.342 -0.3097  0.3480 -0.5012
19646TIP3    H280430   3.094  -0.078  12.408  0.3394  0.3545  0.7346
19647TIP3   OH280431   6.116   2.226  13.498  0.1258  0.2755 -0.7209
19647TIP3    H180432   6.194   2.210  13.446 -0.1901 -1.9231 -0.5861
19647TIP3    H280433   6.046   2.179  13.453 -0.8446  1.0491 -0.0819
19648TIP3   OH280434   2.760   5.396   3.498 -0.2615  0.5143  0.1877
19648TIP3    H180435   2.832   5.362   3.445 -0.0312  0.3375  0.6097
19648TIP3    H280436   2.771   5.353   3.583  0.3442  2.0335  0.9025
19649TIP3   OH280437   3.133   3.942  14.473  0.0370 -0.1107  0.6286
19649TIP3    H180438   3.164   4.021  14.516  1.4313  0.0036 -0.4937
19649TIP3    H280439   3.173   3.870  14.523  0.3655 -0.0320  0.4826
19650TIP3   OH280440   4.301   4.613   1.066 -0.3611  0.4414 -0.1779
19650TIP3    H180441   4.270   4.585   0.980 -1.2066 -2.1390  0.8833
19650TIP3    H280442   4.236   4.581   1.128  1.4150  0.1058  1.6352
19651TIP3   OH280443   1.254   4.659  16.486  0.0565 -0.2211  0.0353
19651TIP3    H180444   1.230   4.568  16.505 -1.0995  0.3884  1.7790
19651TIP3    H280445   1.201   4.683  16.411  0.4286 -0.9842 -0.4940
19652TIP3   OH280446   3.675   2.093   4.364 -1.0406  0.1713  0.4538
19652TIP3    H180447   3.583   2.069   4.371 -0.6200 -1.5112  0.6237
19652TIP3    H280448   3.722   2.011   4.377  0.4287  0.5333 -1.9563
19653TIP3   OH280449   2.998   3.042  17.519  0.0129 -0.1636  0.3223
19653TIP3    H180450   3.046   3.125  17.507 -0.6635  0.0800 -0.7808
19653TIP3    H280451   3.061   2.975  17.494 -0.6236  0.2218 -2.7449
19654TIP3   OH280452   0.665   5.079   6.819  0.1778 -0.0084  0.4050
19654TIP3    H180453   0.710   5.149   6.772  1.0940 -0.2333  0.9265
19654TIP3    H280454   0.625   5.123   6.895 -0.3765  0.1690  0.0137
19655TIP3   OH280455   3.122   6.126  14.562  0.4631 -0.0040  0.0949
19655TIP3    H180456   3.136   6.219  14.582  1.1182  0.0349 -0.4990
19655TIP3    H280457   3.137   6.119  14.468 -0.5368 -0.5464 -0.0397
19656TIP3   OH280458   5.253   3.404  17.387 -0.2120  0.0414  0.0917
19656TIP3    H180459   5.331   3.351  17.371  0.0757  1.1547 -2.6261
19656TIP3    H280460   5.194   3.345  17.435 -0.0779 -3.0133 -3.0719
19657TIP3   OH280461   1.855   1.565  11.759  0.2899  0.4189  0.1327
19657TIP3    H180462   1.863   1.521  11.843  1.1409 -2.4144 -1.2992
19657TIP3    H280463   1.776   1.617  11.767  0.0262 -0.2216  2.4832
19658TIP3   OH280464   3.087   5.222   0.652 -0.2633  0.9682 -0.2648
19658TIP3    H180465   3.011   5.272   0.683  0.5554  1.4041  1.1335
19658TIP3    H280466   3.160   5.255   0.705  0.7277 -0.0933 -0.9415
19659TIP3   OH280467   3.309   5.554   3.161  0.4516 -0.3355  0.6440
19659TIP3    H180468   3.215   5.564   3.170  0.7012  1.1700  2.1539
19659TIP3    H280469   3.343   5.644   3.159  1.8839 -0.8449  0.6503
19660TIP3   OH280470   2.962   2.356  16.445 -0.2519 -0.1537 -0.6649
19660TIP3    H180471   2.959   2.439  16.397  0.7402  0.0311 -0.4291
19660TIP3    H280472   3.032   2.368  16.510  0.2434 -1.3480 -0.9571
19661TIP3   OH280473   1.814   1.425  16.869  0.0796  0.2729  0.4813
19661TIP3    H180474   1.722   1.432  16.843 -0.8999  1.1291  3.7024
19661TIP3    H280475   1.815   1.352  16.932  1.4671  0.6905  0.9771
19662TIP3   OH280476   1.492   6.216   4.830 -0.0678 -0.3110 -0.2335
19662TIP3    H180477   1.582   6.220   4.798 -0.2819 -0.3303 -0.8523
19662TIP3    H280478   1.438   6.223   4.751 -0.6068 -0.5085  0.1105
19663TIP3   OH280479   2.265   6.609  13.389  0.7618  0.5292 -0.5289
19663TIP3    H180480   2.252   6.643  13.477  1.5346 -1.3894  0.4025
19663TIP3    H280481   2.359   6.595  13.382  0.7427  0.8990 -1.7743
19664TIP3   OH280482   5.864   0.193  15.457  0.5444  0.1926 -0.0690
19664TIP3    H180483   5.835   0.263  15.398  1.3300 -1.2562 -2.3106
19664TIP3    H280484   5.784   0.163  15.500 -0.1236  1.0384 -0.6748
19665TIP3   OH280485   3.073   4.391   3.043  0.5556 -0.6662 -0.2166
19665TIP3    H180486   3.075   4.311   2.990  2.7167  0.5052 -2.0541
19665TIP3    H280487   3.067   4.462   2.978 -1.8004  0.7254  1.3702
19666TIP3   OH280488   2.742   5.083  14.394  0.1093  0.2024 -0.3928
19666TIP3    H180489   2.769   5.026  14.466 -2.0356 -0.1692  0.1722
19666TIP3    H280490   2.792   5.050  14.318 -0.7058 -2.1571  0.0145
19667TIP3   OH280491   1.142   2.358   0.947 -0.0140 -0.1510  0.1431
19667TIP3    H180492   1.062   2.360   0.999 -1.0029  1.6451 -1.2916
19667TIP3    H280493   1.209   2.398   1.003 -0.2432 -1.1019  1.1289
19668TIP3   OH280494   2.367   0.116   0.280 -0.0906  0.5367 -0.6026
19668TIP3    H180495   2.313   0.119   0.202  0.3631  0.9473 -0.9071
19668TIP3    H280496   2.396   0.025   0.286 -1.7956  0.0053  0.2630
19669TIP3   OH280497   0.383   0.657   2.121 -0.2781  0.7027 -0.0036
19669TIP3    H180498   0.328   0.709   2.062 -0.6036 -1.9323 -2.2010
19669TIP3    H280499   0.472   0.668   2.087 -0.1100  1.1372  0.5677
19670TIP3   OH280500   0.828   3.247  15.435  0.0110  0.1051  0.4697
19670TIP3    H180501   0.755   3.199  15.398 -0.7715  2.4772 -1.3107
19670TIP3    H280502   0.903   3.189  15.426 -1.1707 -1.3910 -0.0366
19671TIP3   OH280503   4.633   2.212   4.325 -0.0375 -0.0996  0.3894
19671TIP3    H180504   4.724   2.223   4.352 -0.1216 -0.4426  0.8117
19671TIP3    H280505   4.639   2.184   4.233  0.2671  0.2997  0.2846
19672TIP3   OH280506   3.067   1.768   6.370 -0.5444  0.2997 -0.4904
19672TIP3    H180507   3.031   1.847   6.331 -0.3250  0.5890 -0.1121
19672TIP3    H280508   3.162   1.783   6.371 -0.4048 -0.4060 -1.3722
19673TIP3   OH280509   2.825   5.891  13.925  0.2905 -0.0341  0.1076
19673TIP3    H180510   2.846   5.868  14.015  1.6111 -0.6400 -0.3310
19673TIP3    H280511   2.883   5.836  13.872 -1.5889 -0.8733 -1.1802
19674TIP3   OH280512   2.254   2.040   1.802 -0.0383 -0.6733  1.2588
19674TIP3    H180513   2.327   1.999   1.850  0.4115 -0.2083  0.9851
19674TIP3    H280514   2.269   2.134   1.812 -2.1461 -0.4705  3.5488
19675TIP3   OH280515   5.977   4.212  17.009 -0.3278  0.4173 -0.2415
19675TIP3    H180516   6.069   4.225  17.029 -0.1911 -0.2249 -0.4470
19675TIP3    H280517   5.960   4.121  17.032 -0.8300  0.4383 -0.5227
19676TIP3   OH280518   3.900   2.388   5.176  0.1070  0.2570 -0.3353
19676TIP3    H180519   3.810   2.393   5.210 -0.3186 -1.6768 -1.0440
19676TIP3    H280520   3.913   2.472   5.131 -1.0618  0.8759  0.4189
19677TIP3   OH280521   2.260   1.675  15.482  0.0134  0.6725 -0.1188
19677TIP3    H180522   2.293   1.764  15.474  0.3942  0.7241  1.6100
19677TIP3    H280523   2.190   1.681  15.547  0.5084 -0.3751  0.5455
19678TIP3   OH280524   6.747   3.065   3.318  0.2483  0.0011  0.1376
19678TIP3    H180525   6.699   3.135   3.272 -1.5468 -1.3585 -0.1898
19678TIP3    H280526   6.721   3.076   3.409  0.2506 -0.0034  0.1389
19679TIP3   OH280527   0.424   3.705   3.029  0.1643 -0.1557  0.8071
19679TIP3    H180528   0.361   3.768   2.994  0.2558 -1.2400 -1.4547
19679TIP3    H280529   0.476   3.755   3.091 -0.5674  1.6778  0.0072
19680TIP3   OH280530   5.072   1.141   1.006  0.0174 -0.1886 -0.3727
19680TIP3    H180531   5.125   1.207   1.050  0.1270 -0.9469  0.6915
19680TIP3    H280532   5.002   1.190   0.963  1.2076  0.7747 -1.2897
19681TIP3   OH280533   0.042   5.056  14.934 -0.1503 -0.1336  0.2100
19681TIP3    H180534   0.100   5.111  14.987  1.6999 -2.1113  0.3915
19681TIP3    H280535   0.066   4.966  14.958 -2.5285 -1.0597 -0.5998
19682TIP3   OH280536   2.937   1.811  13.451  0.2562 -0.6992 -0.5491
19682TIP3    H180537   2.932   1.835  13.359  1.3306  0.2280 -0.3880
19682TIP3    H280538   2.942   1.895  13.497  3.7669 -1.0895  0.0677
19683TIP3   OH280539   2.807   5.268   5.349  0.9921  0.7323 -0.5794
19683TIP3    H180540   2.726   5.320   5.350  1.9621  2.3088  0.3377
19683TIP3    H280541   2.777   5.177   5.351 -0.7656  1.2869  0.4241
19684TIP3   OH280542   5.538   1.507   1.090  0.1287  0.0077 -0.6811
19684TIP3    H180543   5.558   1.550   1.007 -0.4308  0.2929 -0.6720
19684TIP3    H280544   5.493   1.426   1.066  0.6640 -0.2974 -0.6775
19685TIP3   OH280545   6.619   0.806  11.200 -0.3670 -0.1862  0.2508
19685TIP3    H180546   6.563   0.831  11.127  0.6921  2.7184  0.3322
19685TIP3    H280547   6.574   0.839  11.278  0.2978  0.0396  0.5488
19686TIP3   OH280548   4.981   4.252  13.158  0.2060 -0.3347 -0.1776
19686TIP3    H180549   5.071   4.279  13.139  0.4547 -1.3940 -0.5754
19686TIP3    H280550   4.988   4.159  13.179 -0.7601 -0.3504  0.1050
19687TIP3   OH280551   3.924   4.806  15.437  0.2090  0.1201  0.0739
19687TIP3    H180552   3.913   4.845  15.524 -0.8807  0.5695 -0.2557
19687TIP3    H280553   3.835   4.795  15.404  0.6286  1.6376 -1.7409
19688TIP3   OH280554   3.514   5.370  11.368 -0.5302 -0.4881 -0.4825
19688TIP3    H180555   3.560   5.385  11.286 -0.2086 -0.2148 -0.2578
19688TIP3    H280556   3.426   5.405  11.354  0.2703  1.9879  0.1238
19689TIP3   OH280557   0.104   4.529  17.258 -0.0682 -0.8149  0.2360
19689TIP3    H180558   0.067   4.446  17.228  0.2731 -0.4048 -1.4138
19689TIP3    H280559   0.043   4.560  17.325  0.4890 -3.0128  1.9072
19690TIP3   OH280560   3.036   6.346  16.918 -0.2261  0.2867 -0.2478
19690TIP3    H180561   2.977   6.281  16.880 -0.9596  0.7300  0.1144
19690TIP3    H280562   3.057   6.405  16.844 -1.9754  1.3869  0.0643
19691TIP3   OH280563   4.181   0.527  13.492 -0.2907 -0.0301  0.0700
19691TIP3    H180564   4.124   0.492  13.560 -1.7589  0.6740 -0.7491
19691TIP3    H280565   4.142   0.498  13.410 -0.9417  2.4677 -0.6144
19692TIP3   OH280566   4.228   1.055  11.657  0.4185 -0.1587  0.2766
19692TIP3    H180567   4.183   1.087  11.578  0.4778  0.9000  0.6475
19692TIP3    H280568   4.226   0.960  11.649  0.1455 -0.0787 -0.8487
19693TIP3   OH280569   1.488   4.669  13.605 -0.0561 -0.1126  0.6350
19693TIP3    H180570   1.571   4.679  13.559  2.0673  1.3182  4.3701
19693TIP3    H280571   1.502   4.597  13.666 -1.0277  0.9903  2.2461
19694TIP3   OH280572   0.856   0.039   5.762  0.0800  0.2802 -0.0724
19694TIP3    H180573   0.868  -0.056   5.767 -0.8990  0.1933  2.4598
19694TIP3    H280574   0.941   0.073   5.737  1.2390 -1.1652  1.6352
19695TIP3   OH280575   2.325   3.928   0.546 -0.0174 -0.3373 -0.2190
19695TIP3    H180576   2.321   3.940   0.451 -1.1850 -0.9213 -0.2569
19695TIP3    H280577   2.414   3.956   0.569 -0.0623  0.8381 -1.3243
19696TIP3   OH280578   4.916   0.083   1.754  0.2263  0.6139  0.7024
19696TIP3    H180579   4.905   0.067   1.660  0.7404  0.2821  0.6948
19696TIP3    H280580   4.948   0.173   1.759  1.1858  0.2999  0.4852
19697TIP3   OH280581   4.742   6.473   4.763  0.0101  0.1809 -0.4560
19697TIP3    H180582   4.823   6.522   4.779  0.0183  0.4354 -1.2271
19697TIP3    H280583   4.765   6.411   4.694  0.1726 -1.3770  0.9463
19698TIP3   OH280584   1.009   0.506   3.557 -0.1661 -0.4093 -0.1916
19698TIP3    H180585   0.990   0.416   3.531  2.1335 -1.4086  1.2437
19698TIP3    H280586   0.943   0.527   3.622 -1.2773 -0.6731 -1.1917
19699TIP3   OH280587   2.910   2.484  13.894  0.3924 -0.1807 -0.3132
19699TIP3    H180588   2.966   2.408  13.879  1.5852  0.8930 -1.6012
19699TIP3    H280589   2.914   2.533  13.812  1.3943  2.3707  1.1660
19700TIP3   OH280590   2.365   6.663  16.060  0.2673  0.3190  0.3146
19700TIP3    H180591   2.274   6.668  16.088  0.0784 -0.8809  0.0031
19700TIP3    H280592   2.400   6.750  16.076 -1.2804  1.1968 -0.7754
19701TIP3   OH280593   4.880   3.965   1.062 -0.0795  0.3073  0.2325
19701TIP3    H180594   4.881   3.894   0.997  0.8228 -0.0320  0.6071
19701TIP3    H280595   4.971   3.995   1.066 -0.2835  0.8712  0.7593
19702TIP3   OH280596   6.653   6.652   5.366 -0.2123 -0.3141  0.0445
19702TIP3    H180597   6.605   6.640   5.285 -2.4849 -0.6450  1.3691
19702TIP3    H280598   6.594   6.622   5.435  0.7673  1.9463  2.0347
19703TIP3   OH280599   6.628   3.805   3.557  0.3307  0.3339 -0.0172
19703TIP3    H180600   6.541   3.844   3.563 -0.0947 -0.1922 -2.1146
19703TIP3    H280601   6.664   3.839   3.475  2.3942  1.0260  1.0982
19704TIP3   OH280602   4.983   6.687   1.981  0.1027 -0.4131  0.5597
19704TIP3    H180603   5.003   6.595   1.964  0.0969 -0.7740  2.2679
19704TIP3    H280604   4.978   6.727   1.895 -0.0142 -2.0341 -0.2277
19705TIP3   OH280605   1.897   5.808   4.169  0.3900 -0.4570 -0.0590
19705TIP3    H180606   1.914   5.723   4.210 -2.3794 -0.7624  0.6301
19705TIP3    H280607   1.903   5.870   4.242 -0.5878 -0.4790  0.0478
19706TIP3   OH280608   2.112   0.588  12.544  0.4444  0.3316 -0.6258
19706TIP3    H180609   2.103   0.632  12.629 -1.6438 -0.3101 -0.4580
19706TIP3    H280610   2.206   0.570  12.536  0.9655  2.2056  0.6013
19707TIP3   OH280611   3.500   6.087   0.023 -0.0225  0.1089 -0.2912
19707TIP3    H180612   3.488   6.077   0.117 -0.1420  1.9057 -0.0966
19707TIP3    H280613   3.593   6.065   0.008  0.3350  1.0821  0.4388
19708TIP3   OH280614   1.571   0.762   3.950  0.2154  0.1335 -0.3710
19708TIP3    H180615   1.562   0.680   3.901  0.7816 -0.5651  0.6542
19708TIP3    H280616   1.488   0.808   3.934  0.1406 -0.3538 -1.4592
19709TIP3   OH280617   5.986   0.009   2.892 -0.6580 -0.1991 -0.6519
19709TIP3    H180618   6.002   0.093   2.935 -0.0629 -0.2632 -0.7403
19709TIP3    H280619   6.057  -0.047   2.922 -1.8074 -1.0961  0.4858
19710TIP3   OH280620   6.580   0.073  14.428  0.1729  0.6301 -0.2261
19710TIP3    H180621   6.598   0.083  14.334  3.2258 -2.6619 -0.2256
19710TIP3    H280622   6.597  -0.020  14.445 -2.1499  0.6776  3.3191
19711TIP3   OH280623   4.615   6.224  13.785  0.0888  0.3166 -0.3321
19711TIP3    H180624   4.684   6.286  13.764  0.7077 -0.3062 -0.1865
19711TIP3    H280625   4.555   6.273  13.842  2.1402 -0.0133  2.3289
19712TIP3   OH280626   6.431   6.621  11.415  0.4928  0.1391 -0.2404
19712TIP3    H180627   6.387   6.645  11.334  1.3482  1.0505 -0.4522
19712TIP3    H280628   6.469   6.535  11.397 -0.8760 -0.5120 -0.1632
19713TIP3   OH280629   4.225   4.610   4.703 -0.6107 -0.4341 -0.0112
19713TIP3    H180630   4.321   4.608   4.708 -0.5850 -1.2533 -0.6392
19713TIP3    H280631   4.202   4.698   4.730  0.5625  1.1169 -3.5078
19714TIP3   OH280632   2.235   3.608   4.533 -0.0189  0.6713  0.3771
19714TIP3    H180633   2.157   3.595   4.479  0.0888  0.6921  0.2182
19714TIP3    H280634   2.288   3.672   4.486 -0.7299  2.0229  1.3593
19715TIP3   OH280635   6.149   6.398  14.529 -0.1067  0.0019  0.2430
19715TIP3    H180636   6.113   6.485  14.540  0.9676  0.3866  0.9317
19715TIP3    H280637   6.087   6.340  14.573  0.1634  0.6544  1.5331
19716TIP3   OH280638   1.941   0.577  17.113 -0.1133 -0.6199 -0.2951
19716TIP3    H180639   1.853   0.545  17.093 -0.8928  0.3453  1.3926
19716TIP3    H280640   1.933   0.673  17.111  1.1574 -0.4956 -1.0805
19717TIP3   OH280641   5.793   2.458  14.886 -0.8566 -0.0614  0.3206
19717TIP3    H180642   5.724   2.486  14.947 -0.5636 -0.8087  1.0108
19717TIP3    H280643   5.780   2.364  14.877  0.8825 -0.4686  1.5425
19718TIP3   OH280644   3.654   4.632   6.441  0.1465  0.2474  0.0814
19718TIP3    H180645   3.744   4.662   6.426  0.5247 -0.6844  0.3724
19718TIP3    H280646   3.613   4.704   6.489  0.6583  0.7989 -0.2965
19719TIP3   OH280647   0.284   6.084  13.259 -0.0502 -0.0417  0.9430
19719TIP3    H180648   0.256   6.118  13.344  0.4115  1.3803  0.5632
19719TIP3    H280649   0.203   6.073  13.209 -0.2799 -0.3591  1.3837
19720TIP3   OH280650   2.833   4.414   2.040 -0.7162  0.5200  0.5811
19720TIP3    H180651   2.846   4.450   1.953  0.4921  1.1059  0.9788
19720TIP3    H280652   2.880   4.331   2.039 -1.6320 -0.0160  0.3557
19721TIP3   OH280653   0.211   5.455  12.256 -0.0531 -0.2040 -0.2357
19721TIP3    H180654   0.278   5.466  12.323 -0.8617  1.2760  0.3899
19721TIP3    H280655   0.254   5.481  12.175  0.1343  0.8678  0.1783
19722TIP3   OH280656   3.636   3.425  13.429  0.3445  0.1695 -0.2486
19722TIP3    H180657   3.664   3.513  13.401 -1.8571  0.5507 -1.4337
19722TIP3    H280658   3.573   3.441  13.499 -0.0773 -0.4678 -0.4789
19723TIP3   OH280659   2.002   6.195  12.673 -0.1092 -0.3649 -0.0398
19723TIP3    H180660   2.065   6.196  12.745  0.9429  0.5877 -0.9413
19723TIP3    H280661   1.942   6.124  12.696  1.3556 -1.4012  0.7884
19724TIP3   OH280662   4.744   4.812  11.876  0.2019 -0.7991  0.8439
19724TIP3    H180663   4.712   4.857  11.797 -0.2263 -1.2993  0.7269
19724TIP3    H280664   4.740   4.719  11.854  3.1403 -0.9044  0.2657
19725TIP3   OH280665   4.134   0.124  15.743 -0.4509 -0.6199  0.0927
19725TIP3    H180666   4.123   0.030  15.755  0.4996 -0.6728  0.6972
19725TIP3    H280667   4.104   0.141  15.653  2.0291 -2.0067 -1.1190
19726TIP3   OH280668   0.324   1.664  14.351  0.2931  0.4573  0.2891
19726TIP3    H180669   0.357   1.720  14.280 -0.1612 -1.4325 -1.5100
19726TIP3    H280670   0.244   1.708  14.380 -0.3508  0.5303 -1.4538
19727TIP3   OH280671   6.381   3.924  14.469  0.9696  0.6757  0.5143
19727TIP3    H180672   6.294   3.900  14.499  1.8148 -0.7047  2.0638
19727TIP3    H280673   6.388   4.018  14.486  0.1603  0.5860  1.4113
19728TIP3   OH280674   4.728   1.606   4.182 -0.5513  0.2976 -0.5269
19728TIP3    H180675   4.658   1.586   4.120 -0.9196  0.6142 -0.2186
19728TIP3    H280676   4.800   1.549   4.156 -1.5975 -1.5513  0.3914
19729TIP3   OH280677   3.372   4.012   5.977  0.2247 -0.3962  0.5757
19729TIP3    H180678   3.432   4.078   6.012 -1.2675  2.4378 -1.7924
19729TIP3    H280679   3.294   4.019   6.032 -0.2723  0.5252 -0.2210
19730TIP3   OH280680   6.494   4.814   4.218  0.2846 -0.4655  0.5929
19730TIP3    H180681   6.562   4.772   4.270 -0.5238 -0.5780  1.5972
19730TIP3    H280682   6.433   4.850   4.283  0.3219  1.2224 -0.2408
19731TIP3   OH280683   2.046   4.374  17.022  0.1956 -0.3707 -0.3576
19731TIP3    H180684   1.982   4.372  16.950  0.7868 -1.2924 -0.8692
19731TIP3    H280685   2.024   4.298  17.076  0.3574 -0.2266 -0.0844
19732TIP3   OH280686   6.453   5.703   1.915 -0.1142  0.1812  0.0935
19732TIP3    H180687   6.543   5.725   1.893  0.3813 -1.6921  0.0855
19732TIP3    H280688   6.454   5.609   1.928 -1.8655  0.2690  1.1509
19733TIP3   OH280689   4.307   0.532   4.975  0.6190  0.1828  0.2106
19733TIP3    H180690   4.219   0.513   5.006  1.2023  1.1592  2.6840
19733TIP3    H280691   4.347   0.446   4.963  0.2079 -0.2912  1.8879
19734TIP3   OH280692   4.751   6.516  14.565 -0.1028  0.2592 -0.2677
19734TIP3    H180693   4.788   6.528  14.652  0.9132  1.7825 -0.8682
19734TIP3    H280694   4.808   6.567  14.507 -0.9906 -0.3796 -1.7648
19735TIP3   OH280695   4.346   3.463   5.713 -0.2149  0.2249  0.0919
19735TIP3    H180696   4.356   3.519   5.636 -2.6855  0.0145 -0.4753
19735TIP3    H280697   4.335   3.525   5.785  0.4965  0.4282  0.0375
19736TIP3   OH280698   4.140   4.647  15.303 -0.1587 -0.0284  0.4745
19736TIP3    H180699   4.183   4.578  15.354 -0.4273 -1.2899 -0.9330
19736TIP3    H280700   4.058   4.663  15.350  0.0593 -0.4240  1.0059
19737TIP3   OH280701   0.974   4.440   2.973 -0.3424  0.2766 -0.2671
19737TIP3    H180702   1.061   4.406   2.992 -0.7216 -1.6693 -1.8000
19737TIP3    H280703   0.924   4.423   3.053  0.2837  0.0883  0.0911
19738TIP3   OH280704   4.402   3.659   4.761  0.0229 -0.2223 -0.4372
19738TIP3    H180705   4.417   3.693   4.849 -0.5199 -0.5686 -0.2043
19738TIP3    H280706   4.441   3.724   4.703 -1.0289  0.8232 -0.0001
19739TIP3   OH280707   5.220   4.308  11.374  0.8846  0.8560 -0.5845
19739TIP3    H180708   5.187   4.224  11.406  2.6593  0.0555 -0.6973
19739TIP3    H280709   5.143   4.353  11.338 -0.7329  0.7017  2.3807
19740TIP3   OH280710   4.213   1.858  15.345 -0.1497  0.2655  0.3208
19740TIP3    H180711   4.271   1.790  15.312  0.7096  1.2111 -0.1426
19740TIP3    H280712   4.126   1.817  15.343  0.1275 -0.3392 -1.3500
19741TIP3   OH280713   0.661   4.994  17.224 -0.0766 -0.2689 -0.5104
19741TIP3    H180714   0.595   4.990  17.293 -0.3623  3.0939 -0.3987
19741TIP3    H280715   0.634   4.926  17.161 -1.8776 -0.9998  0.9519
19742TIP3   OH280716   4.526   4.599   3.441 -0.3007  0.3522  0.0160
19742TIP3    H180717   4.481   4.562   3.365 -2.9627 -0.1813  1.6957
19742TIP3    H280718   4.511   4.535   3.511  1.9510  0.8800  1.0607
19743TIP3   OH280719   2.873   5.068   0.566  0.4101 -0.6188  0.6912
19743TIP3    H180720   2.919   5.142   0.605 -0.9639  0.0854  1.0419
19743TIP3    H280721   2.916   4.991   0.602  2.7797 -0.0640 -0.7195
19744TIP3   OH280722   3.520   5.866  16.159  0.1167  0.1794  0.0913
19744TIP3    H180723   3.430   5.885  16.133 -0.0173  0.5513  0.7932
19744TIP3    H280724   3.539   5.781  16.120 -0.1980  0.5444 -0.8752
19745TIP3   OH280725   0.989   5.632  16.274  0.1423 -0.2953 -0.0785
19745TIP3    H180726   0.896   5.622  16.296  0.5533 -0.6402  1.6503
19745TIP3    H280727   0.993   5.716  16.228 -0.8339  0.4833  1.1832
19746TIP3   OH280728   3.431   3.136  15.169 -0.0032 -0.7397  0.1949
19746TIP3    H180729   3.394   3.154  15.255 -1.9628 -1.0338 -0.5177
19746TIP3    H280730   3.411   3.214  15.117 -0.8095 -1.4114 -0.5499
19747TIP3   OH280731   1.349   1.732   5.091 -0.8183 -0.0341 -0.4728
19747TIP3    H180732   1.341   1.753   4.998  1.2433  0.6953 -0.5231
19747TIP3    H280733   1.262   1.702   5.115 -2.3962  2.9041 -1.8607
19748TIP3   OH280734   2.617   2.644  10.962 -1.0511 -0.7568  0.4291
19748TIP3    H180735   2.598   2.580  11.031 -0.3211  0.0104  1.3809
19748TIP3    H280736   2.707   2.624  10.936 -0.8278 -0.1408  0.7182
19749TIP3   OH280737   2.689   1.076   1.246  0.2406  0.3435 -0.3342
19749TIP3    H180738   2.700   1.101   1.338 -1.7015 -1.9314  0.6226
19749TIP3    H280739   2.630   1.001   1.248 -0.9257  0.9878 -3.5487
19750TIP3   OH280740   4.320   2.011   0.459 -0.6386 -0.8669  0.1324
19750TIP3    H180741   4.261   1.964   0.517 -1.2195 -3.6304 -2.4266
19750TIP3    H280742   4.264   2.067   0.407 -0.2424  0.7624  1.3648
19751TIP3   OH280743   5.372   0.811  12.578  0.6543  0.1980  0.2180
19751TIP3    H180744   5.407   0.783  12.663  0.8878 -0.2411 -0.0173
19751TIP3    H280745   5.429   0.769  12.514 -0.5381 -0.8841 -0.1878
19752TIP3   OH280746   5.897   1.411   5.185 -0.0127 -0.7144 -0.3154
19752TIP3    H180747   5.938   1.497   5.180  2.1143 -1.3378  3.1546
19752TIP3    H280748   5.941   1.359   5.117  2.3695 -0.3272  0.8331
19753TIP3   OH280749   4.839   3.819   4.147  0.0068 -0.0731 -0.4680
19753TIP3    H180750   4.908   3.772   4.193 -1.8369 -0.9903  1.4957
19753TIP3    H280751   4.866   3.911   4.152  0.5120 -0.2853  1.3192
19754TIP3   OH280752   0.130   1.629  12.795 -0.2758  0.6284 -0.0873
19754TIP3    H180753   0.163   1.585  12.717 -0.2420  0.0444  0.2463
19754TIP3    H280754   0.043   1.659  12.771 -0.4991 -0.0684 -0.1719
19755TIP3   OH280755   4.301   4.003   3.314  0.1452  0.6835 -0.1060
19755TIP3    H180756   4.237   3.947   3.269  1.0415 -0.0122 -0.5416
19755TIP3    H280757   4.328   3.952   3.391  1.5593  0.1376 -0.9275
19756TIP3   OH280758   5.243   1.358  13.312  0.2449  1.2002  0.2016
19756TIP3    H180759   5.268   1.384  13.223  0.0225  0.2636 -0.1404
19756TIP3    H280760   5.157   1.317  13.301  1.7127 -2.1960  0.2865
19757TIP3   OH280761   3.588   0.653   1.191 -0.3599 -0.0469 -0.2862
19757TIP3    H180762   3.548   0.591   1.130  0.6990 -1.6422  0.5470
19757TIP3    H280763   3.680   0.657   1.165  0.0825 -0.6401  1.0471
19758TIP3   OH280764   4.542   6.326  11.816  0.2566  0.0246  0.4095
19758TIP3    H180765   4.550   6.387  11.742 -1.2739  0.5264  0.6228
19758TIP3    H280766   4.621   6.341  11.868  0.5974  0.7906 -0.3068
19759TIP3   OH280767   0.681   6.177  14.763 -0.0000  0.2426 -0.1678
19759TIP3    H180768   0.641   6.104  14.716  2.0649 -0.2232 -1.3382
19759TIP3    H280769   0.714   6.139  14.844 -1.5602  0.5631  0.6525
19760TIP3   OH280770   2.023   2.720  17.209 -0.9300 -0.0111 -0.1521
19760TIP3    H180771   2.003   2.650  17.270 -1.5836 -0.6998 -1.1218
19760TIP3    H280772   2.102   2.761  17.244 -1.4925 -0.1391  1.3325
19761TIP3   OH280773   2.456   5.324   4.395 -0.1082  0.6710 -0.5612
19761TIP3    H180774   2.446   5.384   4.470  0.5742  1.4980 -1.1141
19761TIP3    H280775   2.376   5.335   4.345 -0.6268  0.0173  0.1102
19762TIP3   OH280776   1.129   3.306   4.455  0.4187  0.1554 -0.1469
19762TIP3    H180777   1.158   3.350   4.375  0.7863 -1.0595 -0.7121
19762TIP3    H280778   1.048   3.263   4.431  0.2083  0.2874  0.3163
19763TIP3   OH280779   4.324   3.590  15.977 -0.5156  0.7607  0.0556
19763TIP3    H180780   4.305   3.684  15.982 -1.1724  0.7699 -1.6698
19763TIP3    H280781   4.247   3.552  15.935 -0.9171 -0.8227  2.0500
19764TIP3   OH280782   2.343   0.652   4.216  0.2448  0.1529 -0.6499
19764TIP3    H180783   2.290   0.581   4.179  0.1435 -1.1814  1.8613
19764TIP3    H280784   2.428   0.611   4.235 -0.3293  0.1298  2.3576
19765TIP3   OH280785   4.476   4.784   5.478 -0.2561 -0.3722 -0.1618
19765TIP3    H180786   4.510   4.695   5.487  1.4386  0.1523 -0.9095
19765TIP3    H280787   4.450   4.791   5.386  0.6802  0.2212 -0.3995
19766TIP3   OH280788   5.117   4.075   0.808  0.0674 -0.5893  0.4255
19766TIP3    H180789   5.032   4.119   0.806 -0.1839 -1.0805 -0.7098
19766TIP3    H280790   5.154   4.089   0.720 -0.5457 -3.5565 -0.4344
19767TIP3   OH280791   4.956   5.647   2.158 -0.2039 -0.0726 -0.5761
19767TIP3    H180792   4.988   5.702   2.230 -1.1160  0.0882 -0.2810
19767TIP3    H280793   5.034   5.630   2.105  0.3083  0.5649 -0.0533
19768TIP3   OH280794   3.231   4.004  11.495  0.5246  0.3883 -0.2788
19768TIP3    H180795   3.269   4.021  11.409 -2.4731 -1.6520 -2.1924
19768TIP3    H280796   3.176   4.081  11.512 -0.4114 -0.0502 -1.1946
19769TIP3   OH280797   5.086   0.819   2.442 -0.7905 -0.1097  0.0190
19769TIP3    H180798   5.062   0.860   2.525 -1.4973  0.8284 -0.6245
19769TIP3    H280799   5.181   0.806   2.449 -0.7446  0.5058  0.7370
19770TIP3   OH280800   2.252   0.104  15.094 -0.3739  0.0610 -0.8369
19770TIP3    H180801   2.201   0.180  15.065 -2.3841 -0.9243 -0.0487
19770TIP3    H280802   2.254   0.046  15.018 -2.6467 -0.9787 -0.1912
19771TIP3   OH280803   2.007   2.533  12.113 -0.3585 -0.3984  0.0945
19771TIP3    H180804   1.987   2.626  12.114 -1.1453 -0.5538  1.1533
19771TIP3    H280805   1.943   2.495  12.053  0.4893 -0.1691 -0.9815
19772TIP3   OH280806   2.226   1.811   1.634 -0.0218 -0.0626 -0.3750
19772TIP3    H180807   2.231   1.888   1.690 -0.5716  0.6701 -1.2975
19772TIP3    H280808   2.147   1.825   1.581 -0.5737 -1.6436 -0.0194
19773TIP3   OH280809   5.550   2.362   2.593 -0.2206 -0.3494  0.0130
19773TIP3    H180810   5.601   2.424   2.540  1.3130 -0.8363  0.8636
19773TIP3    H280811   5.460   2.374   2.562  0.1822  1.4856 -0.6351
19774TIP3   OH280812   0.455   1.970  13.595 -0.3476  0.4924  0.1819
19774TIP3    H180813   0.436   1.994  13.504 -1.3610  1.1460  0.5520
19774TIP3    H280814   0.550   1.978  13.603 -0.2095  0.1176 -0.8994
19775TIP3   OH280815   3.705   0.444  13.399 -0.4597 -0.0925  0.1218
19775TIP3    H180816   3.687   0.354  13.428 -0.7033 -0.1091 -0.0811
19775TIP3    H280817   3.628   0.494  13.427 -1.0027 -0.2339 -1.0741
19776TIP3   OH280818   3.489   1.768  14.471 -0.5133 -0.0530  0.5408
19776TIP3    H180819   3.551   1.815  14.526  0.9377  0.4868 -1.4346
19776TIP3    H280820   3.407   1.816  14.480  0.0329  0.7637  1.2224
19777TIP3   OH280821   2.707   6.000  11.693  0.1407 -0.0701  0.0451
19777TIP3    H180822   2.640   6.016  11.626  0.5202  0.6273 -0.1752
19777TIP3    H280823   2.774   5.948  11.648  0.1848  0.0212  0.0040
19778TIP3   OH280824   5.045   3.553  16.812  0.0202 -0.8385 -0.5313
19778TIP3    H180825   5.118   3.496  16.790  0.2874 -0.6864 -0.0612
19778TIP3    H280826   5.062   3.634  16.764  0.7813 -0.3826  0.4591
19779TIP3   OH280827   2.276   6.355  13.654  0.0145  0.2920  0.0332
19779TIP3    H180828   2.347   6.409  13.618 -0.3022  0.7053  0.0163
19779TIP3    H280829   2.313   6.318  13.735  0.2867  0.4191 -0.0315
19780TIP3   OH280830   0.436   1.433   1.474 -0.0666 -0.1652 -0.0548
19780TIP3    H180831   0.371   1.366   1.493  0.2048 -0.3438  0.2508
19780TIP3    H280832   0.392   1.493   1.414 -0.5944 -0.1474  0.3537
19781TIP3   OH280833   6.343   3.253   0.808  0.5086  0.1688 -0.5290
19781TIP3    H180834   6.311   3.167   0.836  2.0195  0.4467  2.3988
19781TIP3    H280835   6.277   3.315   0.838  1.8806  0.4165  2.2690
19782TIP3   OH280836   1.454   0.848  14.734  0.4313 -0.0169 -0.1242
19782TIP3    H180837   1.459   0.794  14.655  0.9311 -0.3963  0.1593
19782TIP3    H280838   1.512   0.805  14.797 -0.6289 -0.2072  0.7529
19783TIP3   OH280839   2.724   6.254   5.198 -0.6237  0.4160  0.0157
19783TIP3    H180840   2.749   6.341   5.228 -0.9794  0.5721 -0.1293
19783TIP3    H280841   2.798   6.223   5.145  0.5404 -0.3543  1.9893
19784TIP3   OH280842   6.558   4.284   1.554 -0.4015 -0.3538  0.3566
19784TIP3    H180843   6.581   4.353   1.491 -1.1256  0.2358  0.7279
19784TIP3    H280844   6.491   4.233   1.510 -1.1247  0.2375  0.7444
19785TIP3   OH280845   0.060   5.330  12.635  0.3654  0.1689 -0.1758
19785TIP3    H180846   0.033   5.422  12.640  3.3777  1.1714 -0.5628
19785TIP3    H280847  -0.022   5.282  12.631 -1.3847  2.6691  2.1388
19786TIP3   OH280848   2.271   2.298  15.831  0.0482 -0.0975 -0.4393
19786TIP3    H180849   2.291   2.227  15.770  1.4932  0.0584 -0.1855
19786TIP3    H280850   2.227   2.364  15.777 -0.3457 -0.7277 -0.9061
19787TIP3   OH280851   1.062   1.624  14.108 -0.2049 -0.1405  0.0001
19787TIP3    H180852   1.045   1.558  14.041 -0.7417  2.0089 -2.1562
19787TIP3    H280853   1.157   1.620  14.122  0.3534  0.8613 -2.7491
19788TIP3   OH280854   3.458   4.800   0.477  0.3937 -0.2562 -0.3940
19788TIP3    H180855   3.481   4.867   0.542 -0.0354 -1.7168  1.3549
19788TIP3    H280856   3.385   4.752   0.517  1.4142 -2.4924 -1.0649
19789TIP3   OH280857   4.527   3.665  11.857 -0.0068 -0.1144  0.2367
19789TIP3    H180858   4.434   3.687  11.859 -0.9773 -3.3741 -1.5348
19789TIP3    H280859   4.556   3.676  11.948 -2.1741  0.6369  0.9016
19790TIP3   OH280860   4.829   2.053  17.153 -0.1683 -0.2168  0.1240
19790TIP3    H180861   4.833   2.146  17.175  0.3923 -0.2294  0.1127
19790TIP3    H280862   4.910   2.017  17.190  0.7791 -0.2562 -1.8834
19791TIP3   OH280863   4.168   5.350  14.393  0.1682 -0.0698  0.0888
19791TIP3    H180864   4.081   5.318  14.369 -0.6855  1.1153  1.4416
19791TIP3    H280865   4.184   5.422  14.331 -0.1403  0.1866  0.3030
19792TIP3   OH280866   3.080   1.719  16.594  0.1191  0.1809  0.0802
19792TIP3    H180867   3.126   1.686  16.671  0.6439 -1.7263 -0.9858
19792TIP3    H280868   3.071   1.643  16.537 -0.2408  1.5214 -1.7486
19793TIP3   OH280869   6.670   4.952  12.890 -0.0905 -0.3053 -0.4492
19793TIP3    H180870   6.691   4.865  12.922 -0.2533 -0.6813 -1.3286
19793TIP3    H280871   6.708   4.955  12.802 -0.4997  0.3387 -0.6164
19794TIP3   OH280872   1.776   3.134  17.024 -0.2474 -0.2636 -0.4695
19794TIP3    H180873   1.762   3.040  17.009 -1.0379 -0.3130  0.4757
19794TIP3    H280874   1.762   3.175  16.939 -0.4314 -0.9470 -0.7729
19795TIP3   OH280875   3.492   6.209   4.132 -0.3669  0.3581  0.3550
19795TIP3    H180876   3.585   6.206   4.155 -0.0018 -1.5799 -1.1314
19795TIP3    H280877   3.480   6.295   4.091  0.8697  0.4397  0.1280
19796TIP3   OH280878   3.492   4.434   6.394  0.2777  0.0537 -0.3272
19796TIP3    H180879   3.551   4.509   6.402 -0.2481  0.6447 -1.6129
19796TIP3    H280880   3.406   4.470   6.416  0.1804 -0.4499  0.1208
19797TIP3   OH280881   2.175   0.026  14.619 -0.1598 -0.1289  0.3313
19797TIP3    H180882   2.181   0.121  14.619  0.6245 -0.1752  0.4675
19797TIP3    H280883   2.095   0.007  14.569  1.2096  0.5087 -2.2523
19798TIP3   OH280884   5.230   3.540  14.061  1.0077  0.4185 -0.3430
19798TIP3    H180885   5.301   3.584  14.016  0.4043  0.8755 -0.8685
19798TIP3    H280886   5.152   3.589  14.037  0.5364  0.0585  0.3929
19799TIP3   OH280887   2.258   4.864   1.719 -0.5589 -0.4307  0.7707
19799TIP3    H180888   2.247   4.832   1.808 -0.5887 -2.5253  0.0816
19799TIP3    H280889   2.205   4.804   1.666 -0.0552  0.3967 -0.7178
19800TIP3   OH280890   2.844   5.875  11.461 -0.1103  0.1728  0.3281
19800TIP3    H180891   2.917   5.843  11.407 -0.9367 -2.0989  0.4490
19800TIP3    H280892   2.807   5.947  11.410  0.0456 -0.9505 -1.4748
19801TIP3   OH280893   4.257   3.926  13.386 -0.1361  0.5215  0.3482
19801TIP3    H180894   4.330   3.938  13.448 -0.9189 -0.8292  1.5824
19801TIP3    H280895   4.178   3.931  13.439 -0.9372  1.1161 -0.8427
19802TIP3   OH280896   2.605   3.203   0.272 -0.1604 -0.2076 -0.5539
19802TIP3    H180897   2.603   3.267   0.201 -0.8624  0.2562 -0.1263
19802TIP3    H280898   2.527   3.149   0.258  0.6379 -1.2367 -1.1445
19803TIP3   OH280899   3.892   3.464   5.610  0.8241 -0.5116 -0.2916
19803TIP3    H180900   3.913   3.524   5.681 -0.7275  0.5609 -0.6892
19803TIP3    H280901   3.968   3.470   5.551  0.4420  1.6649 -0.6800
19804TIP3   OH280902   0.849   6.042   0.751 -0.0388 -0.0773 -0.2107
19804TIP3    H180903   0.780   6.010   0.693  0.1616  0.4310 -0.7407
19804TIP3    H280904   0.879   6.124   0.710  0.5779 -0.0687  0.2427
19805TIP3   OH280905   2.714   6.382  15.314 -0.1833  0.9791  0.1679
19805TIP3    H180906   2.747   6.449  15.374 -0.5611 -1.5415  3.4854
19805TIP3    H280907   2.788   6.323  15.301 -0.5768  0.6454 -0.5900
19806TIP3   OH280908   0.664   0.922  12.834 -0.0192  0.3713 -0.5965
19806TIP3    H180909   0.598   0.958  12.893 -0.7540  0.0574 -1.2269
19806TIP3    H280910   0.729   0.883  12.893 -1.6967 -1.6553  0.0113
19807TIP3   OH280911   5.928   2.705  11.571  0.0913 -0.4724  0.0009
19807TIP3    H180912   6.016   2.681  11.601 -0.5818 -1.6501  1.1536
19807TIP3    H280913   5.878   2.624  11.577 -0.7925 -0.0967 -1.8040
19808TIP3   OH280914   5.441   5.754   0.765  0.0014 -0.3429 -0.0202
19808TIP3    H180915   5.366   5.694   0.765  0.8764 -1.4770  0.0150
19808TIP3    H280916   5.425   5.812   0.690  0.2122 -2.0566 -1.4671
19809TIP3   OH280917   2.822   5.793   5.825  0.0978 -0.1428 -0.3680
19809TIP3    H180918   2.767   5.859   5.782 -0.0900  0.1298  0.2810
19809TIP3    H280919   2.785   5.709   5.798 -1.1564  0.0369  0.7145
19810TIP3   OH280920   2.213   3.156  15.610  0.1825  0.4788  0.4832
19810TIP3    H180921   2.131   3.200  15.589 -0.1014  0.0696  0.7121
19810TIP3    H280922   2.258   3.146  15.526 -0.5930 -0.4593  0.1685
19811TIP3   OH280923   4.155   6.068  12.403 -0.3577 -0.0003  0.2685
19811TIP3    H180924   4.224   6.092  12.341 -0.0449  0.2312  0.7032
19811TIP3    H280925   4.088   6.136  12.392  0.2938  0.8120  1.1260
19812TIP3   OH280926   3.071   0.874   5.697 -0.1249 -0.6541  0.4198
19812TIP3    H180927   3.161   0.880   5.728 -0.6481 -0.9214  2.1154
19812TIP3    H280928   3.076   0.894   5.604  1.6288 -0.3126  0.5525
19813TIP3   OH280929   1.994   6.149   3.768 -0.1784 -0.7613 -0.3281
19813TIP3    H180930   2.046   6.087   3.716  1.4707 -0.4164  0.8221
19813TIP3    H280931   1.948   6.095   3.832 -0.1184 -0.9398 -0.4340
19814TIP3   OH280932   3.661   3.036   6.323  0.3381  0.0712 -0.4446
19814TIP3    H180933   3.752   3.058   6.340  0.7371  0.1524 -2.4787
19814TIP3    H280934   3.624   3.115   6.283 -0.4561 -0.1619 -0.1795
19815TIP3   OH280935   1.693   1.122   4.957 -0.1713  0.7130  0.4015
19815TIP3    H180936   1.688   1.119   5.053 -1.4185 -1.7561  0.3402
19815TIP3    H280937   1.602   1.113   4.928  0.2328  1.0123 -1.0308
19816TIP3   OH280938   0.061   1.348  15.295  0.2553  0.0691  0.2235
19816TIP3    H180939   0.144   1.355  15.342 -0.2806 -0.8884  1.3518
19816TIP3    H280940  -0.005   1.338  15.364 -0.6395 -0.6344 -0.7041
19817TIP3   OH280941   4.574   1.185   5.113 -0.1948  0.0620 -0.1245
19817TIP3    H180942   4.657   1.212   5.074 -0.8296  0.7717 -1.0002
19817TIP3    H280943   4.567   1.091   5.093  1.2647 -0.4649  1.5699
19818TIP3   OH280944   2.318   0.771  12.773  0.2726  0.0302  0.2395
19818TIP3    H180945   2.302   0.690  12.821  1.6109  0.4112  1.4188
19818TIP3    H280946   2.323   0.745  12.681 -2.6670 -0.6795  0.1887
19819TIP3   OH280947   3.480   4.328  11.144 -0.5210  0.1735 -0.0533
19819TIP3    H180948   3.435   4.324  11.060 -1.5927  0.2421  0.5017
19819TIP3    H280949   3.479   4.420  11.168  0.0067  0.1880 -0.0789
19820TIP3   OH280950   1.934   6.201   6.031  0.0158 -0.2057  0.5867
19820TIP3    H180951   2.030   6.209   6.035  0.0447 -0.8457  1.3577
19820TIP3    H280952   1.903   6.242   6.112 -0.3997  0.3523  0.1566
19821TIP3   OH280953   0.626   6.716  14.385 -0.4358  0.4089  0.2791
19821TIP3    H180954   0.606   6.681  14.472 -1.1049 -1.6245 -0.6318
19821TIP3    H280955   0.722   6.715  14.380 -0.3919  0.5410  0.9801
19822TIP3   OH280956   4.459   6.532   2.378 -0.0392 -0.4765  0.1522
19822TIP3    H180957   4.482   6.528   2.285 -0.3375 -2.7413  0.1418
19822TIP3    H280958   4.507   6.460   2.418 -0.6845 -0.1403  1.5863
19823TIP3   OH280959   3.837   1.154   3.188  0.3131 -0.4305  0.1597
19823TIP3    H180960   3.885   1.236   3.186 -1.0955  0.4066 -0.4501
19823TIP3    H280961   3.829   1.134   3.282 -1.1911  1.2842  0.4528
19824TIP3   OH280962   3.110   2.971  13.433 -0.0072 -0.4548  0.2174
19824TIP3    H180963   3.205   2.976  13.446 -0.0538 -0.3001  0.5101
19824TIP3    H280964   3.095   2.885  13.394  0.3557 -0.0949 -0.7560
19825TIP3   OH280965   4.917   4.099   4.095 -0.0589  0.4794  0.1680
19825TIP3    H180966   4.829   4.135   4.105  0.4372  1.8512 -0.1413
19825TIP3    H280967   4.972   4.175   4.073  0.9781 -0.5291 -0.8892
19826TIP3   OH280968   0.231   0.266   6.243 -0.4880  0.1194  0.1958
19826TIP3    H180969   0.280   0.272   6.161  0.0153 -0.6900  0.4251
19826TIP3    H280970   0.226   0.357   6.275 -0.8581  0.4626 -0.8126
19827TIP3   OH280971   0.572   0.820  13.592  0.2146 -0.5349  0.0938
19827TIP3    H180972   0.579   0.800  13.685  1.5712 -0.2223  0.0737
19827TIP3    H280973   0.656   0.793  13.555  0.9951  2.2749 -0.4665
19828TIP3   OH280974   5.319   4.542   0.097  0.3438  0.3164  0.3277
19828TIP3    H180975   5.323   4.572   0.006 -1.0954 -0.0020  0.1282
19828TIP3    H280976   5.330   4.447   0.092 -1.3486  0.0931  0.2861
19829TIP3   OH280977   6.018   4.673   1.032 -0.3879 -0.4261 -0.3509
19829TIP3    H180978   6.016   4.586   0.993  0.5822 -1.0195  0.8326
19829TIP3    H280979   6.108   4.702   1.022 -0.6379  0.3394 -0.4813
19830TIP3   OH280980   6.031   2.064  16.274 -0.6233  0.1374 -0.0338
19830TIP3    H180981   6.031   2.110  16.190  0.4258 -0.0760 -0.1675
19830TIP3    H280982   6.028   1.971  16.250 -1.9134  0.0978  0.2163
19831TIP3   OH280983   3.765   5.545   6.300  0.7489 -0.2258  0.0596
19831TIP3    H180984   3.781   5.639   6.298 -0.7938  0.0927  1.1368
19831TIP3    H280985   3.672   5.535   6.277  0.7276 -1.4377  0.5671
19832TIP3   OH280986   0.596   1.557   6.161  0.1350 -0.5806 -0.1573
19832TIP3    H180987   0.522   1.500   6.142 -0.1417 -0.4806  0.5960
19832TIP3    H280988   0.658   1.539   6.090  0.1923 -2.0605  0.2349
19833TIP3   OH280989   3.072   4.811   0.976 -0.4846  0.2874 -0.9023
19833TIP3    H180990   3.051   4.814   0.882  1.4017  1.0883 -1.3408
19833TIP3    H280991   3.110   4.896   0.995  1.6628 -0.7791 -0.0577
19834TIP3   OH280992   1.748   6.166  12.389  0.6672  0.3222  0.3577
19834TIP3    H180993   1.738   6.072  12.373  0.1075  0.6087 -1.1389
19834TIP3    H280994   1.750   6.205  12.302 -0.4566  1.8483  0.9785
19835TIP3   OH280995   0.157   1.712   4.205 -0.1125  0.3766 -0.5593
19835TIP3    H180996   0.075   1.700   4.252  0.4050  1.7046  0.7415
19835TIP3    H280997   0.132   1.708   4.113 -1.2406 -1.6712 -0.2301
19836TIP3   OH280998   0.011   4.133  13.255  0.5923 -0.1515  0.0827
19836TIP3    H180999   0.061   4.160  13.178 -0.0466 -1.5393 -0.8543
19836TIP3    H281000  -0.072   4.099  13.220  0.7204 -1.8365  1.2817
19837TIP3   OH281001   0.446   5.582  16.346 -0.6518  0.2119  0.1076
19837TIP3    H181002   0.413   5.611  16.261  1.7360 -2.8416 -2.0983
19837TIP3    H281003   0.390   5.507  16.369 -0.3811  0.1207  0.4725
19838TIP3   OH281004   3.093   0.750   6.497  0.1052  0.1608  0.2620
19838TIP3    H181005   3.007   0.710   6.486 -0.5542  1.4308  0.6323
19838TIP3    H281006   3.075   0.843   6.504  1.5209  0.4432  0.3391
19839TIP3   OH281007   4.078   4.046   5.159 -0.0073  0.0037  0.4203
19839TIP3    H181008   4.122   4.093   5.231 -0.2823  1.8258 -0.5429
19839TIP3    H281009   4.146   4.037   5.092  0.5740 -2.6926  1.2504
19840TIP3   OH281010   6.676   2.348  15.547 -0.5713  0.1660  0.1381
19840TIP3    H181011   6.688   2.258  15.518 -1.4785  0.1214 -0.1045
19840TIP3    H281012   6.614   2.343  15.619 -2.3245  0.7885 -1.2531
19841TIP3   OH281013   3.387   3.149  13.739 -0.3762 -0.8408  0.2357
19841TIP3    H181014   3.411   3.064  13.703 -0.0189 -0.9793  0.7927
19841TIP3    H281015   3.356   3.130  13.828  1.2486 -0.2337  0.9756
19842TIP3   OH281016   1.198   4.149   4.883  0.0306 -0.0510  0.0340
19842TIP3    H181017   1.234   4.192   4.806 -0.6129  0.9211  0.2567
19842TIP3    H281018   1.104   4.161   4.875 -0.0948 -0.6252  0.5791
19843TIP3   OH281019   6.574   6.022   2.314  0.3312 -0.5431 -0.1220
19843TIP3    H181020   6.493   5.998   2.268 -0.1180 -0.2259  0.4901
19843TIP3    H281021   6.593   6.111   2.283  1.3711 -1.2155 -1.5242
19844TIP3   OH281022   3.070   0.331  16.815  0.1251 -0.3415  0.2133
19844TIP3    H181023   3.018   0.356  16.739 -3.5173 -3.4899  1.3350
19844TIP3    H281024   3.035   0.383  16.887 -1.1270 -1.9554  0.8378
19845TIP3   OH281025   2.625   6.495   2.741  0.3145  0.2693  0.3184
19845TIP3    H181026   2.554   6.432   2.737 -0.1183  0.7547  0.1668
19845TIP3    H281027   2.593   6.570   2.691  0.3555  1.0549  1.4262
19846TIP3   OH281028   0.915   3.215  14.303  0.0102  0.5451  0.2286
19846TIP3    H181029   0.860   3.244  14.230  0.9939 -0.3515 -0.9095
19846TIP3    H281030   0.904   3.283  14.370 -1.8048  0.7994 -0.2893
19847TIP3   OH281031   1.465   4.446  16.082  0.1384 -0.0472 -0.7050
19847TIP3    H181032   1.487   4.353  16.080 -1.1352 -0.3522 -1.0925
19847TIP3    H281033   1.370   4.449  16.084  0.1555  1.2593 -0.7187
19848TIP3   OH281034   2.988   4.149  13.917  0.0252 -0.1407  0.4102
19848TIP3    H181035   3.016   4.102  13.839 -0.6425  1.4455 -0.8526
19848TIP3    H281036   3.045   4.226  13.920 -0.5313  0.2530  0.9926
19849TIP3   OH281037   4.417   1.552   5.763 -0.4658  0.0411  0.3714
19849TIP3    H181038   4.333   1.547   5.809 -0.5805 -1.0912  0.0853
19849TIP3    H281039   4.400   1.509   5.679  0.2874  0.1931  0.1414
19850TIP3   OH281040   6.188   4.095  17.320  0.2224  0.1283 -0.9214
19850TIP3    H181041   6.272   4.054  17.340  0.9802  1.3559 -1.4362
19850TIP3    H281042   6.198   4.127  17.230 -0.6358  0.6653 -0.8387
19851TIP3   OH281043   0.338   4.445  10.946  0.3596 -0.3610 -0.1349
19851TIP3    H181044   0.395   4.385  10.899 -0.4209 -0.8271 -0.5044
19851TIP3    H281045   0.386   4.466  11.027  0.2547 -2.1933  0.4464
19852TIP3   OH281046   5.967   2.831  11.947  0.0822 -0.3448 -0.1313
19852TIP3    H181047   5.941   2.851  11.857  0.4135 -0.2893 -0.2170
19852TIP3    H281048   5.970   2.916  11.990  0.9760 -0.2559 -0.3554
19853TIP3   OH281049   0.194   3.299   1.923 -0.0963 -0.1956  0.4537
19853TIP3    H181050   0.271   3.246   1.902 -0.2437 -0.9048  1.6265
19853TIP3    H281051   0.124   3.262   1.868  0.1354 -0.2937  0.2220
19854TIP3   OH281052   2.041   4.902  10.859 -0.6512 -0.3850 -0.5019
19854TIP3    H181053   2.016   4.841  10.789 -0.7283 -0.4269 -0.4372
19854TIP3    H281054   2.081   4.847  10.926 -0.8348 -0.3808 -0.3880
19855TIP3   OH281055   3.683   6.400   1.822 -0.0416 -0.1183  0.7923
19855TIP3    H181056   3.601   6.376   1.778 -0.2491  0.4566  0.8607
19855TIP3    H281057   3.675   6.493   1.838  1.7689  0.5817 -1.6657
19856TIP3   OH281058   3.678   4.416   6.182  0.2474 -0.3004 -0.2422
19856TIP3    H181059   3.772   4.434   6.184  0.2775 -0.4999  0.4051
19856TIP3    H281060   3.647   4.436   6.270 -0.3278 -0.2034 -0.4564
19857TIP3   OH281061   1.736   4.769  12.694  0.4868  0.5043  0.5791
19857TIP3    H181062   1.797   4.827  12.739  2.5328 -0.0262 -1.2990
19857TIP3    H281063   1.756   4.781  12.601 -1.9939 -0.0735 -0.1153
19858TIP3   OH281064   3.319   3.186   5.499 -0.2143  0.3815  0.6226
19858TIP3    H181065   3.377   3.140   5.560 -1.2552 -1.4265  0.3370
19858TIP3    H281066   3.267   3.116   5.459 -1.7798  1.8236  0.0202
19859TIP3   OH281067   3.758   5.302  16.356  0.2965 -0.0329  0.2115
19859TIP3    H181068   3.742   5.394  16.372 -1.3043 -0.2256 -0.0903
19859TIP3    H281069   3.712   5.256  16.427 -0.3637 -0.6290 -0.5738
19860TIP3   OH281070   2.119   0.660   3.536 -0.1763  0.1681  0.1705
19860TIP3    H181071   2.120   0.573   3.576  0.0315  1.4008  3.1164
19860TIP3    H281072   2.211   0.682   3.524 -0.2436 -0.4252 -1.6741
19861TIP3   OH281073   5.588   2.590  13.918  0.0590 -0.2332  0.0643
19861TIP3    H181074   5.589   2.506  13.872 -0.0594 -0.3404  0.2538
19861TIP3    H281075   5.495   2.604  13.939 -0.0990  0.5260 -1.0152
19862TIP3   OH281076   6.301   3.746  15.232 -0.3051 -0.4334  0.7436
19862TIP3    H181077   6.289   3.840  15.246  0.1464 -0.2131 -0.2921
19862TIP3    H281078   6.212   3.710  15.229 -0.5146  0.1366  0.0007
19863TIP3   OH281079   5.599   3.731  11.902  0.0862  0.3703  0.2348
19863TIP3    H181080   5.547   3.805  11.933  1.2385  0.4931  2.0496
19863TIP3    H281081   5.588   3.731  11.807 -0.8546  2.1592  0.3092
19864TIP3   OH281082   4.655   5.578  11.926  0.3013  0.0125  0.9556
19864TIP3    H181083   4.575   5.607  11.970  0.9015  1.5549  1.0580
19864TIP3    H281084   4.653   5.621  11.841 -0.0760 -1.7354  0.0175
19865TIP3   OH281085   0.333   3.469  16.770 -0.1104 -0.5482  0.0629
19865TIP3    H181086   0.342   3.385  16.725 -0.9988 -0.0818 -1.0660
19865TIP3    H281087   0.245   3.499  16.745  0.6703  1.2939 -0.6351
19866TIP3   OH281088   3.158   2.473  15.581 -0.0023 -0.2647 -0.3262
19866TIP3    H181089   3.177   2.399  15.639 -0.1708 -0.4750 -0.5370
19866TIP3    H281090   3.098   2.437  15.516  1.7924 -0.5984 -1.8851
19867TIP3   OH281091   5.486   2.094   2.348  0.2874 -0.0100  0.3170
19867TIP3    H181092   5.575   2.065   2.368  0.0415 -0.3014  0.9938
19867TIP3    H281093   5.430   2.019   2.368 -0.2355  0.5561  1.0170
19868TIP3   OH281094   5.847   2.131  13.315 -0.3591  0.4413 -0.2475
19868TIP3    H181095   5.917   2.138  13.250  0.3568 -0.5833  0.3903
19868TIP3    H281096   5.853   2.211  13.366 -2.0947  2.1738 -2.5115
19869TIP3   OH281097   3.043   1.107   1.128  0.1516  0.1925 -0.6282
19869TIP3    H181098   2.948   1.116   1.137  0.1523 -0.7851  0.6249
19869TIP3    H281099   3.054   1.047   1.054 -0.2028  0.3377 -0.8008
19870TIP3   OH281100   1.898   0.992   6.207  0.3632  0.1104 -0.2124
19870TIP3    H181101   1.894   0.907   6.162 -0.9497 -0.4185  0.8428
19870TIP3    H281102   1.959   0.978   6.280 -0.0572 -0.0078  0.1179
19871TIP3   OH281103   1.183   1.635  16.137 -0.0987  0.2451  0.4401
19871TIP3    H181104   1.206   1.705  16.198  2.3503  1.9682 -2.2220
19871TIP3    H281105   1.110   1.590  16.179  0.4157  2.2446  3.8568
19872TIP3   OH281106   0.780   2.284  14.103  0.1694  0.0685 -0.0028
19872TIP3    H181107   0.784   2.258  14.011  1.1507 -0.4122  0.1661
19872TIP3    H281108   0.758   2.377  14.100  1.2583  0.3257 -0.7626
19873TIP3   OH281109   3.410   1.382  16.468  0.7849 -0.2768 -0.2102
19873TIP3    H181110   3.500   1.414  16.455  0.6935  0.3790  0.7171
19873TIP3    H281111   3.410   1.348  16.557  0.7206 -2.3841 -0.9581
19874TIP3   OH281112   1.616   2.177  16.714  0.0452  0.5109 -0.2978
19874TIP3    H181113   1.623   2.192  16.808  1.5818  0.7401 -0.4165
19874TIP3    H281114   1.525   2.198  16.693 -0.5777 -0.4345  1.2667
19875TIP3   OH281115   2.883   1.083   3.831 -0.5839 -0.3014 -0.6912
19875TIP3    H181116   2.850   1.010   3.883 -0.3947  1.9622  2.8877
19875TIP3    H281117   2.963   1.050   3.791 -2.3935 -3.1128 -2.3487
19876TIP3   OH281118   2.824   4.123   0.978 -0.2036 -0.1276  0.6490
19876TIP3    H181119   2.749   4.110   1.036 -0.0519 -0.1880  0.8337
19876TIP3    H281120   2.814   4.213   0.945 -0.5838 -0.2834  0.3381
19877TIP3   OH281121   5.017   0.796  11.815  0.4078  0.0470 -0.3111
19877TIP3    H181122   5.013   0.816  11.721  1.3208  1.6772 -0.0376
19877TIP3    H281123   4.944   0.844  11.853  0.3332 -0.2191 -0.1145
19878TIP3   OH281124   5.159   0.687   5.299  0.6793  0.6456  0.0788
19878TIP3    H181125   5.112   0.770   5.308 -0.2933  0.0714  0.4712
19878TIP3    H281126   5.164   0.653   5.389 -1.6292 -1.1439 -0.3876
19879TIP3   OH281127   0.213   0.411   1.869 -0.6045 -0.5947  0.0038
19879TIP3    H181128   0.285   0.403   1.932 -0.3244 -0.7520 -0.3325
19879TIP3    H281129   0.225   0.498   1.830 -1.4278 -0.0439  0.9542
19880TIP3   OH281130   6.119   1.284  12.951  0.0935 -0.2575 -0.1361
19880TIP3    H181131   6.161   1.227  13.016  0.5979 -0.3969 -0.5794
19880TIP3    H281132   6.036   1.309  12.991  0.3963 -0.3505  0.5638
19881TIP3   OH281133   1.256   5.245   1.139  0.4984  0.0592 -0.6100
19881TIP3    H181134   1.286   5.161   1.106  1.4790  0.4432 -0.7252
19881TIP3    H281135   1.255   5.235   1.234 -1.1079 -0.6390 -0.6718
19882TIP3   OH281136   4.792   3.563   5.528 -0.6122  0.1382 -0.2781
19882TIP3    H181137   4.737   3.616   5.470 -0.8840  0.7651  0.5371
19882TIP3    H281138   4.747   3.566   5.613  0.9904  1.2107  0.5870
19883TIP3   OH281139   4.903   1.667  13.835 -0.0853  0.6313  0.4225
19883TIP3    H181140   4.894   1.623  13.920 -0.3584  0.8918  0.5303
19883TIP3    H281141   4.881   1.599  13.771 -0.7169  0.6661  0.5986
19884TIP3   OH281142   2.893   4.331   6.614  0.1862  0.5785  0.3682
19884TIP3    H181143   2.910   4.237   6.614  3.2770  0.9639 -1.5289
19884TIP3    H281144   2.962   4.368   6.669 -0.0311  1.8292 -0.1647
19885TIP3   OH281145   0.042   5.062  15.759 -0.8796 -0.7248  0.2196
19885TIP3    H181146   0.126   5.018  15.763 -0.8061 -0.7473 -1.0776
19885TIP3    H281147  -0.012   5.019  15.825 -0.1168 -1.2253  0.5239
19886TIP3   OH281148   5.965   3.739   2.192 -0.5933 -0.0323 -0.3315
19886TIP3    H181149   5.901   3.744   2.263  0.7313  2.5620  0.8159
19886TIP3    H281150   5.912   3.726   2.113 -2.4357  0.6790  0.7108
19887TIP3   OH281151   3.968   1.747  15.390  0.1043  0.1255  0.5438
19887TIP3    H181152   3.948   1.654  15.378 -1.8432  0.3532  1.5530
19887TIP3    H281153   3.910   1.791  15.327  0.6326  0.6761  0.4381
19888TIP3   OH281154   2.548   4.393  16.291 -0.3869 -0.4725  0.5910
19888TIP3    H181155   2.461   4.362  16.264  0.3632  0.2010 -3.1777
19888TIP3    H281156   2.602   4.314  16.293 -0.9752 -0.8856  2.8963
19889TIP3   OH281157   5.670   0.631  12.138  0.6056 -0.3634  0.4180
19889TIP3    H181158   5.618   0.569  12.086  1.4472 -1.5517  0.9477
19889TIP3    H281159   5.621   0.713  12.134 -1.4051 -1.4686  1.0515
19890TIP3   OH281160   6.357   6.315   3.278 -0.1281 -0.4806 -0.1330
19890TIP3    H181161   6.417   6.311   3.353 -0.6977 -1.3726  0.2965
19890TIP3    H281162   6.404   6.270   3.208  0.5291  0.6122 -0.4281
19891TIP3   OH281163   4.785   0.322   4.204  0.0255  0.2331  0.1313
19891TIP3    H181164   4.829   0.247   4.244 -0.4781  0.3222  0.8947
19891TIP3    H281165   4.696   0.319   4.241 -0.3105  0.5999 -0.6412
19892TIP3   OH281166   3.233   5.273  15.666  0.1609  0.2225 -0.1652
19892TIP3    H181167   3.308   5.328  15.642 -0.3290  1.1314  0.3321
19892TIP3    H281168   3.216   5.296  15.758 -0.0427 -0.7826  0.0544
19893TIP3   OH281169   6.419   5.504  17.261  0.6350 -0.0954  0.3241
19893TIP3    H181170   6.400   5.596  17.280 -0.9576 -0.6480  1.6256
19893TIP3    H281171   6.343   5.457  17.293  1.3359 -1.8708 -0.5082
19894TIP3   OH281172   4.140   6.226   4.741  0.0406 -0.1996 -0.0440
19894TIP3    H181173   4.235   6.235   4.741 -0.0612  2.1904  2.3217
19894TIP3    H281174   4.119   6.193   4.828 -1.3704  2.0294  0.5560
19895TIP3   OH281175   5.608   5.434   1.990 -0.7346 -0.6939  0.0682
19895TIP3    H181176   5.621   5.514   2.040 -0.9414 -0.6441  0.0407
19895TIP3    H281177   5.597   5.366   2.056 -0.6906 -0.6789  0.0914
19896TIP3   OH281178   0.653   5.543  11.147  0.2174 -0.1425 -0.7216
19896TIP3    H181179   0.702   5.467  11.178 -0.0856  0.1268  0.4528
19896TIP3    H281180   0.578   5.549  11.205 -0.8555 -0.1147 -2.0444
19897TIP3   OH281181   5.705   4.196  14.653 -0.1644  0.1391  0.0991
19897TIP3    H181182   5.762   4.148  14.714 -0.8243  1.1006  1.5306
19897TIP3    H281183   5.662   4.128  14.602  0.5465 -0.6995  0.5883
19898TIP3   OH281184   4.675   2.169  11.257  0.2948  0.7009 -0.6375
19898TIP3    H181185   4.647   2.239  11.198  1.7102  1.0630 -0.9210
19898TIP3    H281186   4.683   2.212  11.343 -2.3614  0.0404  0.0184
19899TIP3   OH281187   3.803   4.737  17.044 -0.0036 -0.0735  0.4888
19899TIP3    H181188   3.756   4.818  17.025 -0.6250 -0.4993  0.1891
19899TIP3    H281189   3.759   4.670  16.992  1.0273 -0.4666  0.0876
19900TIP3   OH281190   0.335   2.224  16.672 -0.7313  0.0046 -0.1537
19900TIP3    H181191   0.299   2.138  16.652 -0.1271 -0.4596  0.6704
19900TIP3    H281192   0.263   2.284  16.658 -0.8447 -0.4827 -1.8646
19901TIP3   OH281193   6.711   4.054  12.790 -0.0592 -0.8031  0.2969
19901TIP3    H181194   6.677   4.052  12.700 -0.2712  0.1465  0.3495
19901TIP3    H281195   6.805   4.066  12.779 -0.1618 -0.0387  0.2045
19902TIP3   OH281196   1.787   3.561  14.465  0.6789  1.1407 -0.2643
19902TIP3    H181197   1.695   3.580  14.482  0.8621  0.6197  1.4976
19902TIP3    H281198   1.795   3.561  14.369 -1.0609  1.5178 -0.4304
19903TIP3   OH281199   2.709   3.932   0.799  0.7615 -0.3479  0.3411
19903TIP3    H181200   2.739   3.982   0.875 -1.2945  2.0273 -0.2902
19903TIP3    H281201   2.634   3.981   0.766  0.7035 -2.0799 -2.4004
19904TIP3   OH281202   1.715   6.529   6.635 -0.1201 -0.0014  0.6440
19904TIP3    H181203   1.809   6.516   6.647 -0.4263  0.1128  4.2023
19904TIP3    H281204   1.708   6.594   6.565  2.4094 -0.0882  0.2248
19905TIP3   OH281205   0.844   3.524  12.367 -0.0227  0.0082 -0.1292
19905TIP3    H181206   0.790   3.587  12.414 -0.3935 -0.6275  0.3131
19905TIP3    H281207   0.790   3.445  12.362  1.1983 -0.9541  1.1245
19906TIP3   OH281208   5.590   4.811  14.298  0.6304  0.6628  0.1460
19906TIP3    H181209   5.668   4.791  14.247 -0.0484 -0.7514 -0.4136
19906TIP3    H281210   5.560   4.896  14.264  0.5082  0.0160 -1.4571
19907TIP3   OH281211   4.592   3.066  16.095  0.4559  0.0457  0.0592
19907TIP3    H181212   4.578   3.014  16.174  0.7729 -0.4102 -0.1825
19907TIP3    H281213   4.518   3.127  16.094 -0.2382 -0.7731  0.0480
19908TIP3   OH281214   3.500   6.303  11.996  0.2292  0.3546 -0.1998
19908TIP3    H181215   3.485   6.211  11.973  0.2074 -0.1029  1.5053
19908TIP3    H281216   3.533   6.300  12.086 -0.0294  2.0423 -0.0149
19909TIP3   OH281217   6.684   3.818   4.339  1.0288  0.1808 -0.1769
19909TIP3    H181218   6.699   3.910   4.360  1.1725 -0.0628  0.8270
19909TIP3    H281219   6.751   3.771   4.389  1.7246 -0.3959 -1.6009
19910TIP3   OH281220   4.988   4.403   1.065 -0.3927 -0.2518 -0.4242
19910TIP3    H181221   4.898   4.377   1.045 -0.5060 -0.9046  0.8347
19910TIP3    H281222   4.993   4.401   1.160  0.4760  1.4711 -0.3890
19911TIP3   OH281223   0.437   6.473   4.937 -0.0945  0.2743 -0.3741
19911TIP3    H181224   0.430   6.545   4.873 -2.2271  0.8541  0.4263
19911TIP3    H281225   0.395   6.399   4.894  0.5545 -0.0294 -0.5085
19912TIP3   OH281226   2.589   5.102  14.141  0.3328  0.4406 -0.1710
19912TIP3    H181227   2.645   5.134  14.212  0.4702  2.1092 -0.9787
19912TIP3    H281228   2.651   5.063  14.078  0.1681 -1.4766  0.8003
19913TIP3   OH281229   4.347   3.232   2.449 -0.1614  1.0656  0.0807
19913TIP3    H181230   4.293   3.308   2.469 -1.7042 -0.0557  0.3592
19913TIP3    H281231   4.332   3.216   2.355 -0.9401  0.3228  0.3125
19914TIP3   OH281232   3.162   1.686   0.126 -0.8480  0.0810 -0.2856
19914TIP3    H181233   3.126   1.738   0.054  0.6046 -1.0335 -1.9119
19914TIP3    H281234   3.252   1.717   0.136 -1.8554  2.5057  3.4068
19915TIP3   OH281235   4.739   0.785   0.438 -0.4148  0.2005  0.6063
19915TIP3    H181236   4.802   0.731   0.485 -0.2015  1.3775  1.7176
19915TIP3    H281237   4.655   0.738   0.446  0.2025 -1.2143 -0.6197
19916TIP3   OH281238   2.022   5.995   2.526 -0.3806  0.3342 -0.1206
19916TIP3    H181239   2.108   6.035   2.516  0.1598 -0.6146  0.5776
19916TIP3    H281240   2.003   6.002   2.619 -0.4228 -0.6977 -0.0401
19917TIP3   OH281241   6.635   1.690  10.790 -0.3352  0.2193  0.1481
19917TIP3    H181242   6.560   1.718  10.737 -1.2037 -0.6961  0.8327
19917TIP3    H281243   6.616   1.723  10.878  0.2336  0.2624  0.2580
19918TIP3   OH281244   6.764   1.849  12.045  0.3529  0.0785  0.1254
19918TIP3    H181245   6.696   1.851  12.112 -0.3465  0.0854 -0.5763
19918TIP3    H281246   6.755   1.763  12.003  0.6268  0.1695 -0.1255
19919TIP3   OH281247   3.721   4.524   4.030  0.0882  0.3753 -0.4795
19919TIP3    H181248   3.794   4.479   3.987 -0.1123 -0.3239 -0.1055
19919TIP3    H281249   3.646   4.510   3.971 -0.2158 -0.6896  0.1314
19920TIP3   OH281250   6.321   5.396   6.233 -0.3003  0.1496  0.2563
19920TIP3    H181251   6.361   5.475   6.196  1.1437 -0.5176  0.3298
19920TIP3    H281252   6.338   5.403   6.327 -0.2460 -0.2081  0.2716
19921TIP3   OH281253   2.038   0.711   1.282 -0.1375  0.0740 -0.0243
19921TIP3    H181254   2.062   0.625   1.246  0.1766  1.2758 -2.8682
19921TIP3    H281255   1.964   0.740   1.229 -0.0291  1.7294  0.6679
19922TIP3   OH281256   4.459   3.443   4.548 -0.3516  0.0784 -0.2725
19922TIP3    H181257   4.373   3.421   4.583  0.3685  1.1568  2.4632
19922TIP3    H281258   4.485   3.522   4.595  2.3372 -0.4695 -0.6414
19923TIP3   OH281259   4.468   0.766  11.396 -0.4463 -0.9337 -0.9988
19923TIP3    H181260   4.394   0.763  11.456 -0.2508 -2.2950 -0.8087
19923TIP3    H281261   4.544   0.742  11.449  0.0112 -0.3834 -1.3821
19924TIP3   OH281262   5.616   5.103   0.235  0.0204 -0.2115  0.6778
19924TIP3    H181263   5.569   5.187   0.233 -0.1514 -0.3050 -1.2876
19924TIP3    H281264   5.564   5.045   0.180  1.3939 -0.8830  0.0346
19925TIP3   OH281265   3.724   3.500  17.495 -0.2147  0.1237 -0.1782
19925TIP3    H181266   3.707   3.594  17.491  0.5845  0.2653 -0.4217
19925TIP3    H281267   3.806   3.488  17.446  0.9811 -0.3841  1.8394
19926TIP3   OH281268   3.664   1.407   1.525  0.1236  0.2153 -0.1928
19926TIP3    H181269   3.597   1.387   1.590 -0.9016 -0.6192 -1.4471
19926TIP3    H281270   3.747   1.392   1.570 -0.5206  1.0026  1.3191
19927TIP3   OH281271   2.950   3.949   2.618 -0.0452  0.2482  0.0721
19927TIP3    H181272   2.940   3.914   2.530  2.6199  0.3925 -0.3842
19927TIP3    H281273   2.909   3.884   2.675  0.1764 -0.9740 -1.1122
19928TIP3   OH281274   5.829   3.047  16.693 -0.0863  0.5823 -0.1984
19928TIP3    H181275   5.782   3.119  16.734 -0.3467 -0.0540  0.6521
19928TIP3    H281276   5.912   3.042  16.740 -0.6372 -0.5434  0.6912
19929TIP3   OH281277   1.721   6.383   5.973  0.0170 -0.2356 -0.5179
19929TIP3    H181278   1.649   6.356   6.031 -1.3073  2.4973 -0.7030
19929TIP3    H281279   1.792   6.322   5.992 -1.3743 -1.2425  1.8537
19930TIP3   OH281280   6.221   0.926  12.847  0.3988  0.3885  0.0641
19930TIP3    H181281   6.301   0.954  12.802  0.2061  0.1452 -0.4374
19930TIP3    H281282   6.167   0.888  12.778  0.6200 -1.1817  0.7126
19931TIP3   OH281283   3.102   0.753   0.253  0.2736 -0.2324 -0.8204
19931TIP3    H181284   3.163   0.796   0.192 -1.9549  1.0088 -2.3188
19931TIP3    H281285   3.047   0.699   0.197 -0.0318 -1.3340  0.4983
19932TIP3   OH281286   4.814   1.329  11.527 -0.0629 -0.5379 -0.1264
19932TIP3    H181287   4.766   1.305  11.448 -0.3679 -1.1418  0.2332
19932TIP3    H281288   4.775   1.412  11.554 -0.4740 -0.7098 -0.1895
19933TIP3   OH281289   0.447   4.480  12.268  0.1871  0.1255  0.5491
19933TIP3    H181290   0.382   4.421  12.306 -0.8529  0.5411 -0.5164
19933TIP3    H281291   0.400   4.562  12.255  0.9228  0.4432 -0.2241
19934TIP3   OH281292   5.311   5.879   6.043 -0.4791  0.9571 -0.0284
19934TIP3    H181293   5.358   5.805   6.081 -0.0844  1.5482  0.6539
19934TIP3    H281294   5.328   5.873   5.949 -0.5750  0.1048  0.0025
19935TIP3   OH281295   5.367   1.536  14.869 -0.4648  0.4597  0.2294
19935TIP3    H181296   5.308   1.610  14.881  0.9627  1.7589 -0.3879
19935TIP3    H281297   5.417   1.558  14.791  0.4884 -0.8342  0.4439
19936TIP3   OH281298   0.633   6.591   0.862 -1.1224  0.2978 -0.1095
19936TIP3    H181299   0.651   6.682   0.886  3.0411 -0.2698 -0.4634
19936TIP3    H281300   0.668   6.582   0.774 -1.2490 -1.7033 -0.0007
19937TIP3   OH281301   0.902   0.698  15.472  0.0903 -0.4790 -0.2427
19937TIP3    H181302   0.840   0.625  15.472 -0.6176  0.1041  0.4407
19937TIP3    H281303   0.917   0.717  15.565  0.5240  0.0306 -0.4105
19938TIP3   OH281304   2.382   6.498   0.712 -0.0010  0.1742  0.6733
19938TIP3    H181305   2.346   6.485   0.799 -2.0781  1.1384  0.0265
19938TIP3    H281306   2.330   6.441   0.655  1.4034 -0.5404  0.0622
19939TIP3   OH281307   5.620   1.843  16.508 -0.1256  0.4704  0.4614
19939TIP3    H181308   5.559   1.814  16.440 -1.6406  1.9861  1.1069
19939TIP3    H281309   5.641   1.764  16.557 -0.2595 -0.3656 -0.7810
19940TIP3   OH281310   1.816   0.483  15.695  0.4483 -1.0374 -0.0438
19940TIP3    H181311   1.782   0.528  15.617 -1.2826 -1.4369  0.4246
19940TIP3    H281312   1.911   0.484  15.684  0.5588  2.7875  0.0141
19941TIP3   OH281313   4.384   2.879   2.327  0.4083 -0.1421 -0.3349
19941TIP3    H181314   4.329   2.956   2.311  0.6816 -0.0754 -1.0026
19941TIP3    H281315   4.343   2.834   2.400  0.5217  0.9023  0.3892
19942TIP3   OH281316   0.522   2.335  16.125 -0.1867  0.6791 -0.6500
19942TIP3    H181317   0.552   2.421  16.155 -0.6153  1.3221 -1.9760
19942TIP3    H281318   0.439   2.321  16.171 -0.4543  1.2944 -0.9290
19943TIP3   OH281319   0.434   4.849  17.051 -0.2042 -0.2090 -0.4303
19943TIP3    H181320   0.380   4.927  17.038 -1.4862 -1.2153 -1.4272
19943TIP3    H281321   0.372   4.781  17.075  0.9859 -0.7826  1.2298
19944TIP3   OH281322   6.032   5.914  14.426  0.1696 -0.2337  0.1997
19944TIP3    H181323   6.062   5.918  14.517  0.9741  2.8478 -0.1016
19944TIP3    H281324   5.942   5.882  14.433 -0.8412  2.5839  2.4969
19945TIP3   OH281325   5.216   1.197   2.392  0.5122 -0.0178 -0.7034
19945TIP3    H181326   5.146   1.152   2.439  0.7827  1.5700  1.3882
19945TIP3    H281327   5.294   1.146   2.410  0.5724  0.4527  0.4711
19946TIP3   OH281328   6.267   5.216  11.963  0.3951 -0.2158 -0.0225
19946TIP3    H181329   6.244   5.123  11.956 -1.2010 -0.0055  1.5113
19946TIP3    H281330   6.291   5.242  11.875  2.0520 -2.3554 -0.2684
19947TIP3   OH281331   0.230   3.915   4.405  0.1468 -0.0495 -0.7979
19947TIP3    H181332   0.174   3.848   4.443 -1.4791  0.9901 -1.2391
19947TIP3    H281333   0.238   3.981   4.473  0.1321  0.1973 -1.0332
19948TIP3   OH281334   2.598   4.973   1.216 -0.4667  0.2626  0.0729
19948TIP3    H181335   2.516   4.948   1.259 -0.5718 -1.1831 -0.8657
19948TIP3    H281336   2.666   4.923   1.262 -0.0667  1.5531  0.9317
19949TIP3   OH281337   2.607   3.643   0.866 -0.5607  1.0420  0.4044
19949TIP3    H181338   2.572   3.590   0.938 -0.8693 -3.3723 -2.5879
19949TIP3    H281339   2.532   3.694   0.836 -1.6487 -0.4022  0.5539
19950TIP3   OH281340   0.602   4.465  16.598 -0.6663 -0.4243  0.4716
19950TIP3    H181341   0.611   4.514  16.516  0.8309 -1.9009 -0.3181
19950TIP3    H281342   0.594   4.373  16.570 -0.2694 -0.9466  1.9792
19951TIP3   OH281343   3.657   1.670  15.908 -0.5620 -0.2123 -0.0558
19951TIP3    H181344   3.570   1.658  15.946 -0.4274 -1.1569 -0.0203
19951TIP3    H281345   3.669   1.764  15.906 -1.2490 -0.0932  0.7103
19952TIP3   OH281346   1.739   5.395  12.254  0.2382 -0.4113 -0.3609
19952TIP3    H181347   1.715   5.328  12.190 -0.9703  0.1420 -0.5118
19952TIP3    H281348   1.672   5.462  12.245  1.8314  1.2080 -0.7305
19953TIP3   OH281349   5.561   3.814  11.593 -0.1672  0.6143 -0.1160
19953TIP3    H181350   5.558   3.721  11.571 -0.9181  0.1285  1.8266
19953TIP3    H281351   5.492   3.853  11.541  0.1017  0.0762 -0.8903
19954TIP3   OH281352   3.703   1.302   4.814 -0.5804 -0.2350  0.2353
19954TIP3    H181353   3.722   1.394   4.829 -0.1627  0.2419 -2.5483
19954TIP3    H281354   3.788   1.264   4.789 -1.0527 -0.9294 -0.3598
19955TIP3   OH281355   3.134   0.928   3.247 -0.1927  0.0954 -0.1778
19955TIP3    H181356   3.062   0.984   3.277 -1.0433 -0.0599 -1.7882
19955TIP3    H281357   3.141   0.860   3.314 -1.4047  0.2500  0.1368
19956TIP3   OH281358   2.037   2.683  12.355  0.1858 -0.1992  0.2065
19956TIP3    H181359   2.082   2.606  12.389  1.4478  0.8153  0.9286
19956TIP3    H281360   2.050   2.679  12.260  1.9016  0.0852  0.3929
19957TIP3   OH281361   0.248   2.556  14.195 -0.0346  0.6884 -0.7159
19957TIP3    H181362   0.184   2.626  14.192 -0.6155  0.3172  1.2324
19957TIP3    H281363   0.332   2.600  14.183 -0.5420  1.3067 -2.3167
19958TIP3   OH281364   2.350   3.298   5.510  0.2161 -0.2056  0.0423
19958TIP3    H181365   2.357   3.297   5.606 -0.7817  0.6709  0.1493
19958TIP3    H281366   2.297   3.221   5.490  0.3479 -0.3403  0.2039
19959TIP3   OH281367   4.405   0.440  16.063  0.1007 -0.0037  0.1538
19959TIP3    H181368   4.439   0.445  15.974 -0.2832 -2.5295 -0.2063
19959TIP3    H281369   4.333   0.377  16.058 -1.0535  1.0885  1.9470
19960TIP3   OH281370   4.335   0.238  13.527  0.7299  0.2061  0.9384
19960TIP3    H181371   4.252   0.190  13.527  1.6389 -1.4548  0.6468
19960TIP3    H281372   4.337   0.282  13.442  1.2439 -1.8912 -0.2293
19961TIP3   OH281373   1.756   2.105   5.764 -0.1927 -0.2867 -0.3003
19961TIP3    H181374   1.763   2.197   5.788  1.3411 -0.2568 -0.7568
19961TIP3    H281375   1.736   2.060   5.846 -0.5874  0.4004 -0.0109
19962TIP3   OH281376   3.201   2.581  13.526  0.3465 -0.1976 -0.0791
19962TIP3    H181377   3.233   2.495  13.500  1.2075  0.4204 -1.1314
19962TIP3    H281378   3.244   2.642  13.466 -1.8058  0.7977 -0.7082
19963TIP3   OH281379   0.596   0.798   5.891 -0.2997 -0.2484 -0.3654
19963TIP3    H181380   0.564   0.708   5.894 -2.0713  0.3567  0.0788
19963TIP3    H281381   0.690   0.790   5.873 -0.3759 -2.1779 -0.0673
19964TIP3   OH281382   2.979   5.140  14.201  0.0292  0.0106 -0.2294
19964TIP3    H181383   3.007   5.068  14.145 -0.9358 -2.0241  1.7708
19964TIP3    H281384   3.056   5.159  14.255 -0.4284 -1.2729  0.9321
19965TIP3   OH281385   1.755   5.577   0.920  0.6562  0.5789  0.3282
19965TIP3    H181386   1.761   5.621   0.835  1.6831  0.6416  0.4111
19965TIP3    H281387   1.756   5.484   0.899 -0.3381  0.5917  0.2117
19966TIP3   OH281388   1.318   6.005  15.176  0.4141 -0.5046  0.1543
19966TIP3    H181389   1.317   6.040  15.265  2.1920 -1.4824  0.6207
19966TIP3    H281390   1.394   5.947  15.174  0.2498 -0.7387 -1.9292
19967TIP3   OH281391   3.068   0.330   0.065  0.8034  0.0512  0.2378
19967TIP3    H181392   3.040   0.289   0.146  1.4639  0.5810  0.7519
19967TIP3    H281393   2.989   0.336   0.011  0.1267  0.6663  1.2663
19968TIP3   OH281394   3.541   0.241   5.053 -0.0175 -0.2176  0.2654
19968TIP3    H181395   3.461   0.260   5.004  0.7055  0.2559 -0.7369
19968TIP3    H281396   3.606   0.219   4.987  0.3060 -2.1581  1.1352
19969TIP3   OH281397   3.829   3.529  14.183 -0.1033  0.6227  0.0772
19969TIP3    H181398   3.827   3.448  14.132  1.0983  0.5013  0.1803
19969TIP3    H281399   3.841   3.598  14.119 -1.9151  0.8288 -0.0868
19970TIP3   OH281400   1.625   1.089   6.484 -0.5820 -0.4680  0.2082
19970TIP3    H181401   1.671   1.127   6.559 -1.0304 -2.0211  1.3027
19970TIP3    H281402   1.567   1.160   6.454  1.1252  0.8853 -0.0380
19971TIP3   OH281403   0.296   0.108   2.169 -0.1599  0.2542 -0.5697
19971TIP3    H181404   0.261   0.140   2.252  0.9923  0.3403 -0.0954
19971TIP3    H281405   0.307   0.014   2.183  0.7394  0.3856 -0.3495
19972TIP3   OH281406   4.689   5.851   2.527  0.3884  0.3754 -0.1275
19972TIP3    H181407   4.736   5.918   2.478 -0.8548  0.8652 -0.7157
19972TIP3    H281408   4.604   5.891   2.548  0.2410 -0.4369  0.9506
19973TIP3   OH281409   3.576   5.530  11.808 -0.4539  0.4317  0.2042
19973TIP3    H181410   3.654   5.535  11.863 -0.0498  0.2440 -0.3366
19973TIP3    H281411   3.509   5.579  11.855  0.0351  0.7132  0.6059
19974TIP3   OH281412   5.297   0.564   0.917  0.6152 -0.1919  0.3484
19974TIP3    H181413   5.281   0.470   0.928  1.6912 -0.4088  0.1805
19974TIP3    H281414   5.300   0.576   0.822  1.0968 -0.1043  0.3729
19975TIP3   OH281415   4.477   3.465   4.163 -0.0616 -0.8565 -0.4364
19975TIP3    H181416   4.451   3.449   4.254  0.7439 -0.6456 -0.1595
19975TIP3    H281417   4.572   3.456   4.164 -0.0456 -0.8060 -1.2565
19976TIP3   OH281418   0.238   5.633   2.663  0.5744  0.4247  0.0474
19976TIP3    H181419   0.318   5.640   2.611  1.5072  1.6041  1.5387
19976TIP3    H281420   0.250   5.554   2.715  0.7206  0.5063  0.1417
19977TIP3   OH281421   0.553   6.108   1.633 -0.3156  0.7104  0.4366
19977TIP3    H181422   0.487   6.041   1.620  0.1521  0.5398 -1.2481
19977TIP3    H281423   0.503   6.187   1.655 -0.9050  0.0123  1.7172
19978TIP3   OH281424   3.385   4.576  11.175  0.2458  0.4036 -0.0741
19978TIP3    H181425   3.297   4.561  11.141  0.5763  1.0588 -1.2553
19978TIP3    H281426   3.371   4.623  11.257 -0.5076  0.1027 -0.0160
19979TIP3   OH281427   4.720   6.350   2.358  0.1241 -0.0556 -0.4632
19979TIP3    H181428   4.699   6.391   2.274 -1.6633 -0.6978 -0.3723
19979TIP3    H281429   4.767   6.418   2.407 -0.7647  1.0846 -1.1557
19980TIP3   OH281430   4.614   0.176  14.911 -0.0243  0.2791 -0.4181
19980TIP3    H181431   4.653   0.132  14.836 -2.2160  2.5491 -3.0968
19980TIP3    H281432   4.558   0.244  14.873 -3.0204  0.1684  3.2098
19981TIP3   OH281433   0.323   3.068   2.293  0.4637  0.1449  0.3383
19981TIP3    H181434   0.382   3.071   2.218  1.0476 -0.2286  0.7739
19981TIP3    H281435   0.364   3.127   2.357  0.4368 -0.2106  0.6873
19982TIP3   OH281436   3.845   1.078  16.900 -1.1839 -0.1171 -0.2720
19982TIP3    H181437   3.833   1.045  16.989  0.3484 -0.1145 -0.0343
19982TIP3    H281438   3.924   1.132  16.905 -1.4593  0.4365 -1.4969
19983TIP3   OH281439   6.458   1.298   2.636  0.2486 -0.4315  0.8597
19983TIP3    H181440   6.388   1.260   2.583 -0.0807 -0.2311  1.1448
19983TIP3    H281441   6.420   1.306   2.724  0.8156 -0.8339  1.1443
19984TIP3   OH281442   6.338   3.163   1.635  0.0272  0.3680 -0.6889
19984TIP3    H181443   6.303   3.189   1.549 -0.5222  0.8994 -0.3188
19984TIP3    H281444   6.432   3.174   1.627  0.0908 -0.6116 -1.5581
19985TIP3   OH281445   5.080   4.247  13.629 -0.3475 -0.4265 -0.2966
19985TIP3    H181446   5.146   4.233  13.698 -1.0987  1.1260  0.7809
19985TIP3    H281447   5.097   4.335  13.597 -1.0006 -0.5541 -1.0118
19986TIP3   OH281448   1.235   1.657   5.522 -0.5423  0.2833  0.4996
19986TIP3    H181449   1.246   1.637   5.615 -0.4801  1.1726  0.6952
19986TIP3    H281450   1.141   1.652   5.507 -0.7217  1.6673  0.9952
19987TIP3   OH281451   1.375   3.311  16.939  0.2046 -0.0920 -0.0725
19987TIP3    H181452   1.459   3.338  16.903  0.2138  0.2560  0.2096
19987TIP3    H281453   1.387   3.218  16.961  0.6209  0.0457  0.2888
19988TIP3   OH281454   2.315   3.640  16.455 -0.4653 -0.0041  0.4245
19988TIP3    H181455   2.310   3.566  16.395 -1.8140  0.8123 -0.5350
19988TIP3    H281456   2.402   3.678  16.440 -0.2589 -0.6334 -0.0039
19989TIP3   OH281457   0.002   1.384  15.682  0.4735 -0.6687 -0.4440
19989TIP3    H181458  -0.071   1.322  15.682  0.7963 -1.1089  1.5477
19989TIP3    H281459  -0.040   1.470  15.685 -0.0263 -0.9232  1.0867
19990TIP3   OH281460   2.982   0.582  16.252  0.1022  0.1174 -0.2337
19990TIP3    H181461   2.940   0.661  16.218 -1.5871 -0.2997  0.7764
19990TIP3    H281462   3.042   0.614  16.319 -0.9353  0.5382  0.5177
19991TIP3   OH281463   0.980   2.401   0.096 -0.1914  0.2567  0.4195
19991TIP3    H181464   0.980   2.496   0.083 -1.2924  0.1192 -0.8126
19991TIP3    H281465   1.072   2.376   0.090  0.0348  1.1540  0.0040
19992TIP3   OH281466   4.334   1.559  13.668 -0.2099  0.5265  0.0486
19992TIP3    H181467   4.321   1.467  13.689  2.6814  0.1095  0.3509
19992TIP3    H281468   4.367   1.560  13.579  1.4921  1.0669  0.6443
19993TIP3   OH281469   3.915   4.388  13.894 -0.1412 -0.5645  0.3752
19993TIP3    H181470   3.913   4.368  13.988 -0.1165  1.2984  0.8221
19993TIP3    H281471   3.958   4.474  13.889 -1.5158  0.0859 -1.1817
19994TIP3   OH281472   0.348   1.766   0.811 -0.3433  0.3748  0.5492
19994TIP3    H181473   0.443   1.778   0.807 -0.1762 -1.0230 -0.5273
19994TIP3    H281474   0.319   1.774   0.720 -0.8209 -2.1471  0.3996
19995TIP3   OH281475   0.451   1.732  15.264 -0.3053  0.2471 -0.6003
19995TIP3    H181476   0.501   1.694  15.336  0.5199  0.5193 -1.0074
19995TIP3    H281477   0.479   1.824  15.262  0.0244  0.1415 -1.5363
19996TIP3   OH281478   4.609   2.625   1.624  0.1970  0.4696  0.2241
19996TIP3    H181479   4.553   2.651   1.697 -1.7384  0.2182 -1.0806
19996TIP3    H281480   4.685   2.683   1.630 -1.3234  2.5381  0.7109
19997TIP3   OH281481   6.546   1.522   4.769  0.0781 -0.0740 -0.2092
19997TIP3    H181482   6.470   1.483   4.726  0.7519  0.2621 -1.7918
19997TIP3    H281483   6.559   1.605   4.724  0.8289  0.2912  0.6651
19998TIP3   OH281484   6.512   4.606  12.558  0.2917  0.1908  0.0636
19998TIP3    H181485   6.451   4.680  12.561  1.8457  1.5142  1.7856
19998TIP3    H281486   6.594   4.642  12.593  1.7374 -1.8108 -1.0641
19999TIP3   OH281487   0.678   3.439   1.058 -0.0202 -0.4688 -0.3341
19999TIP3    H181488   0.752   3.381   1.077  0.8451  0.3473 -1.0768
19999TIP3    H281489   0.670   3.436   0.962  0.1459  0.7476 -0.3988
20000TIP3   OH281490   2.755   3.725   3.336  0.6713  0.5790  0.6561
20000TIP3    H181491   2.813   3.670   3.387  0.9924  0.7475  0.4754
20000TIP3    H281492   2.686   3.666   3.306  1.4525  0.0857 -0.2306
20001TIP3   OH281493   5.810   3.060  12.929  0.3960  0.5429  0.2116
20001TIP3    H181494   5.744   3.089  12.866 -0.9920  0.7035  1.6795
20001TIP3    H281495   5.785   2.970  12.951  1.6927 -0.0086 -0.4951
20002TIP3   OH281496   6.020   3.402  11.485  0.0379  0.5846  0.0580
20002TIP3    H181497   6.038   3.376  11.575 -1.1052  1.5126  0.5759
20002TIP3    H281498   6.056   3.331  11.432  1.5796  0.4814  1.1895
20003TIP3   OH281499   2.158   1.944  16.902 -0.3408  0.1385 -0.6472
20003TIP3    H181500   2.239   1.985  16.871  1.5779 -1.2099  2.1842
20003TIP3    H281501   2.121   2.007  16.964 -0.1418 -0.2159 -0.1572
20004TIP3   OH281502   5.786   0.198  16.571  0.5635 -0.1711  0.2164
20004TIP3    H181503   5.716   0.148  16.529  0.4395 -0.0986  0.3360
20004TIP3    H281504   5.824   0.251  16.501  1.8973 -1.7608 -0.3385
20005TIP3   OH281505   0.469   1.193  11.532  0.2379  0.0949 -0.3336
20005TIP3    H181506   0.458   1.178  11.438 -0.2080 -0.0392 -0.2637
20005TIP3    H281507   0.461   1.288  11.542 -4.2211 -0.1204  0.0738
20006TIP3   OH281508   0.654   2.178  16.916  0.6303  0.3371  0.0244
20006TIP3    H181509   0.648   2.082  16.920  2.5914  0.1788  0.2972
20006TIP3    H281510   0.743   2.197  16.946  0.2767  2.2533 -0.0564
20007TIP3   OH281511   0.346   6.542  15.699 -0.4478  0.2061 -0.0159
20007TIP3    H181512   0.264   6.589  15.715 -1.0159 -0.6378 -0.3944
20007TIP3    H281513   0.367   6.559  15.608  1.5450  3.0675  0.8394
20008TIP3   OH281514   3.211   1.281   4.929 -0.1793  0.8511 -0.0963
20008TIP3    H181515   3.203   1.349   4.863  0.2612 -0.5951 -1.7001
20008TIP3    H281516   3.133   1.291   4.983 -0.6671  1.9193 -0.9641
20009TIP3   OH281517   5.215   3.028   2.390 -0.2909 -0.2440  0.4322
20009TIP3    H181518   5.296   3.060   2.429  0.7390  1.5214 -2.7487
20009TIP3    H281519   5.165   3.107   2.371 -0.7686 -0.9627 -1.5442
20010TIP3   OH281520   5.508   6.710   5.063 -0.1274 -0.2790 -0.3959
20010TIP3    H181521   5.577   6.659   5.020 -0.5223  0.1496 -1.5684
20010TIP3    H281522   5.427   6.683   5.019 -0.6275 -0.2450  0.4813
20011TIP3   OH281523   4.788   4.246  17.196  0.1500  0.1650 -0.0371
20011TIP3    H181524   4.724   4.287  17.254  0.1800  1.1159 -0.6479
20011TIP3    H281525   4.766   4.280  17.109  1.1212  0.0491 -0.3359
20012TIP3   OH281526   5.758   0.872  16.488 -0.1379  0.4131 -0.6452
20012TIP3    H181527   5.791   0.825  16.564 -0.6906  2.4262  0.9126
20012TIP3    H281528   5.834   0.920  16.454 -0.3632  1.2470  0.0038
20013TIP3   OH281529   4.385   4.830   2.166  0.3079 -0.3292  0.0468
20013TIP3    H181530   4.329   4.902   2.138 -1.6166 -1.6316  0.3608
20013TIP3    H281531   4.370   4.823   2.260  0.0473 -1.4608 -0.0655
20014TIP3   OH281532   6.630   2.923   1.517  0.1542 -0.1598  0.8342
20014TIP3    H181533   6.625   3.018   1.502  0.3181 -0.3356 -0.4922
20014TIP3    H281534   6.540   2.892   1.506  0.0435 -0.1254  1.5950
20015TIP3   OH281535   6.702   2.044   5.152  0.7183 -0.1399  0.2894
20015TIP3    H181536   6.736   1.998   5.075 -0.5366 -0.3260 -0.1767
20015TIP3    H281537   6.748   2.128   5.152 -1.0854  0.9751 -2.2007
20016TIP3   OH281538   3.533   6.321  13.712  0.7322  0.1941 -0.1460
20016TIP3    H181539   3.592   6.291  13.780 -0.0441  0.3399  0.6113
20016TIP3    H281540   3.577   6.299  13.630  1.5001 -0.3348  0.3982
20017TIP3   OH281541   1.738   4.443  12.507 -0.1830  0.3619 -0.0860
20017TIP3    H181542   1.647   4.428  12.533  0.3072 -2.0532  0.5486
20017TIP3    H281543   1.778   4.487  12.582 -0.6682  0.8424 -0.1050
20018TIP3   OH281544   2.654   4.620  16.923  0.2452 -0.4719  0.4059
20018TIP3    H181545   2.636   4.653  17.011 -0.2439 -1.1020  0.5473
20018TIP3    H281546   2.568   4.617  16.880  0.5202  0.1614 -0.2163
20019TIP3   OH281547   3.940   6.546   0.280 -0.5585 -0.1340 -0.2368
20019TIP3    H181548   3.870   6.481   0.281  1.1529 -2.0599  0.2520
20019TIP3    H281549   4.020   6.496   0.295  0.9602  1.9724 -0.8346
20020TIP3   OH281550   0.983   1.907   5.658 -0.0919  0.0242  0.3733
20020TIP3    H181551   1.058   1.949   5.700  0.5731 -2.0803  1.4334
20020TIP3    H281552   0.916   1.975   5.656  0.9886  1.1993  1.7757
20021TIP3   OH281553   1.967   2.770   0.531  0.6092 -0.6099  0.0335
20021TIP3    H181554   1.917   2.696   0.566  1.6933 -0.5068  1.9514
20021TIP3    H281555   1.964   2.836   0.600  2.4211 -0.1841 -0.2352
20022TIP3   OH281556   6.134   6.539  15.733 -0.4898 -0.0815  0.2727
20022TIP3    H181557   6.127   6.519  15.640 -0.4686 -1.4133  0.5459
20022TIP3    H281558   6.082   6.619  15.744  2.8895  2.6085 -1.6036
20023TIP3   OH281559   5.855   0.698  16.291 -0.1931  0.0191  0.4637
20023TIP3    H181560   5.858   0.607  16.320  0.7162 -0.1837 -0.2175
20023TIP3    H281561   5.817   0.746  16.365 -0.6035 -0.8973  0.8557
20024TIP3   OH281562   6.323   5.751  17.337  0.4719 -0.3298  0.1023
20024TIP3    H181563   6.228   5.750  17.340  0.4799 -1.6089  2.0617
20024TIP3    H281564   6.349   5.828  17.387  0.4049 -1.3196  1.7740
20025TIP3   OH281565   1.785   4.103  14.620  0.6036  0.0246 -0.4792
20025TIP3    H181566   1.878   4.096  14.643  0.2573 -2.0738  0.4503
20025TIP3    H281567   1.766   4.022  14.573 -0.9672  0.0395  0.0878
20026TIP3   OH281568   5.605   2.947   4.631  0.1456  0.2628  0.0296
20026TIP3    H181569   5.649   3.013   4.578  1.5717  0.0769  0.9221
20026TIP3    H281570   5.654   2.945   4.713 -1.2311 -0.3427  0.8857
20027TIP3   OH281571   5.355   5.457  12.454  0.2149 -0.2641  0.1360
20027TIP3    H181572   5.437   5.418  12.483  0.1403 -0.1988  0.4412
20027TIP3    H281573   5.339   5.420  12.367 -0.3282 -1.6155  0.7890
20028TIP3   OH281574   0.089   1.204   3.826 -0.0055  0.2035 -0.4305
20028TIP3    H181575   0.051   1.164   3.904 -0.2339 -0.4071 -0.8498
20028TIP3    H281576   0.181   1.180   3.829 -0.1188 -0.2605 -0.6195
20029TIP3   OH281577   1.208   5.578  17.395 -0.3487 -0.3071 -0.1542
20029TIP3    H181578   1.239   5.650  17.450  0.8759 -0.1146 -1.0540
20029TIP3    H281579   1.166   5.622  17.321 -1.5663 -0.5623  0.3536
20030TIP3   OH281580   3.454   4.026  14.533 -0.2663  0.2605 -0.2347
20030TIP3    H181581   3.391   3.957  14.554  0.0842  0.3369  1.1426
20030TIP3    H281582   3.539   3.985  14.541 -0.0401  0.8786  0.8647
20031TIP3   OH281583   0.501   2.955   5.984 -0.5507 -0.3372 -0.4071
20031TIP3    H181584   0.474   3.011   6.057  0.1004  0.5605 -0.8307
20031TIP3    H281585   0.421   2.913   5.955 -0.9823  0.0520  0.1937
20032TIP3   OH281586   4.790   2.533  16.229 -1.0366 -0.0456  0.4004
20032TIP3    H181587   4.880   2.561  16.246 -0.1672 -1.2288 -1.8172
20032TIP3    H281588   4.763   2.487  16.308  0.3663  0.1892  1.0419
20033TIP3   OH281589   3.219   4.883   1.887 -0.1999  0.1899 -0.3640
20033TIP3    H181590   3.205   4.977   1.884  0.2114  0.2349 -2.1575
20033TIP3    H281591   3.284   4.866   1.819  0.5824 -1.2651  0.6784
20034TIP3   OH281592   1.872   3.087  11.649  0.0587 -0.1192  0.7794
20034TIP3    H181593   1.929   3.045  11.713 -0.2025  0.4792  1.4238
20034TIP3    H281594   1.810   3.019  11.624  0.3443 -0.4426  0.9372
20035TIP3   OH281595   6.607   5.490   0.362  0.1929  0.1223  0.2889
20035TIP3    H181596   6.536   5.436   0.395 -1.7596  2.0177 -0.5903
20035TIP3    H281597   6.641   5.442   0.286 -2.9036  0.9258 -1.7982
20036TIP3   OH281598   5.809   0.838   5.689 -0.5786  0.3454  0.1412
20036TIP3    H181599   5.882   0.899   5.675 -1.6598  1.4422 -0.9110
20036TIP3    H281600   5.744   0.862   5.623 -0.7845 -2.4188 -0.7982
20037TIP3   OH281601   5.633   4.745   1.286  0.5818  0.3254  0.2324
20037TIP3    H181602   5.671   4.819   1.332  2.4490  0.4613 -1.3604
20037TIP3    H281603   5.634   4.771   1.194  1.8075 -1.8249 -0.4464
20038TIP3   OH281604   3.673   3.639  11.058  0.0074 -0.6323  0.4601
20038TIP3    H181605   3.680   3.711  11.120 -2.5050  0.5854 -0.4872
20038TIP3    H281606   3.686   3.680  10.972 -0.6582 -1.4309 -0.0465
20039TIP3   OH281607   2.472   0.201   0.586 -0.0471  0.2278  0.2408
20039TIP3    H181608   2.438   0.123   0.543 -1.7749  0.5115  0.9872
20039TIP3    H281609   2.452   0.188   0.679 -0.5950  1.6479  0.3506
20040TIP3   OH281610   4.474   4.974   1.258  0.2640  0.4946  0.0713
20040TIP3    H181611   4.556   5.017   1.283  2.0935 -2.1334 -0.9601
20040TIP3    H281612   4.454   4.916   1.332  1.0247 -1.0544 -0.9026
20041TIP3   OH281613   5.272   6.517  15.842  0.0361  0.4617  0.1802
20041TIP3    H181614   5.316   6.461  15.906 -2.9093 -0.3446  1.6906
20041TIP3    H281615   5.209   6.459  15.799  0.7997  1.3902 -2.3510
20042TIP3   OH281616   1.298   3.464   2.870 -0.0928  0.0360  0.1165
20042TIP3    H181617   1.258   3.381   2.897 -1.8870  0.4949 -0.9986
20042TIP3    H281618   1.284   3.468   2.775  1.8174  0.6859 -0.1857
20043TIP3   OH281619   3.444   4.317  16.686 -0.4191  0.5084 -0.3837
20043TIP3    H181620   3.408   4.289  16.770  0.2196  1.2977  0.1718
20043TIP3    H281621   3.532   4.349  16.707 -1.1212  3.0308 -0.9299
20044TIP3   OH281622   4.078   2.116  14.163  0.5026 -0.0754  0.0494
20044TIP3    H181623   3.994   2.085  14.195  0.0109  0.6200 -0.5190
20044TIP3    H281624   4.077   2.210  14.183  0.6304  0.1642 -1.0253
20045TIP3   OH281625   4.778   3.465   4.238  0.2211  0.1047 -0.2543
20045TIP3    H181626   4.808   3.418   4.316  1.2326  0.8989 -0.1398
20045TIP3    H281627   4.754   3.552   4.270  2.7611  1.2134 -1.0931
20046TIP3   OH281628   3.561   5.785   1.760 -0.3091 -0.0104  0.7997
20046TIP3    H181629   3.599   5.699   1.776 -0.8308 -0.1226  1.4811
20046TIP3    H281630   3.526   5.812   1.845 -0.6478  0.6256  0.4638
20047TIP3   OH281631   5.428   5.665   3.074  0.0748 -0.0777 -0.7242
20047TIP3    H181632   5.335   5.669   3.096  0.0537  0.0550 -0.8402
20047TIP3    H281633   5.465   5.744   3.114  0.1253 -0.0952 -0.7379
20048TIP3   OH281634   4.207   1.514   4.647  0.7348 -0.4288 -0.1101
20048TIP3    H181635   4.221   1.550   4.734  1.1415 -0.7892 -0.0208
20048TIP3    H281636   4.271   1.559   4.592 -0.9917  1.4367 -0.7025
20049TIP3   OH281637   0.682   2.386   2.857 -0.3578  0.3128  0.2627
20049TIP3    H181638   0.622   2.371   2.783  1.3644  1.0182 -1.3617
20049TIP3    H281639   0.629   2.430   2.923 -1.7655  0.3993 -0.8801
20050TIP3   OH281640   5.019   4.045   5.329 -0.4325 -0.2287  0.1595
20050TIP3    H181641   5.008   4.136   5.358 -1.2913 -0.7711  1.5922
20050TIP3    H281642   4.987   4.045   5.239  0.3691  1.0518 -0.1615
20051TIP3   OH281643   0.703   5.682  15.918 -0.3485 -0.8281  0.0846
20051TIP3    H181644   0.738   5.597  15.890  0.6860 -0.5883  0.6391
20051TIP3    H281645   0.623   5.659  15.966  0.0645 -1.5107  0.4622
20052TIP3   OH281646   6.571   4.574   1.662 -0.5573 -0.7648  0.1700
20052TIP3    H181647   6.615   4.513   1.721 -1.9039 -1.1235  0.8357
20052TIP3    H281648   6.607   4.554   1.575  0.5157 -1.0903  0.6826
20053TIP3   OH281649   0.591   4.305  12.970 -0.0270  0.1928  0.3776
20053TIP3    H181650   0.538   4.257  12.906  0.1808 -0.1997  0.4941
20053TIP3    H281651   0.528   4.340  13.032 -0.4630  2.4286 -1.2051
20054TIP3   OH281652   6.467   2.979  15.545  0.6691 -0.1473 -0.2869
20054TIP3    H181653   6.527   2.916  15.506 -0.6660 -0.9106 -1.1580
20054TIP3    H281654   6.387   2.930  15.563  1.0191  0.2532  3.0621
20055TIP3   OH281655   1.761   0.925   0.296  0.1028  0.0770 -0.1060
20055TIP3    H181656   1.741   1.000   0.241 -0.2203 -0.4009 -0.6591
20055TIP3    H281657   1.680   0.906   0.343  0.2431  0.2031  0.1862
20056TIP3   OH281658   5.310   1.908  13.530  0.3089  0.1604  0.3836
20056TIP3    H181659   5.224   1.916  13.489  1.2007  0.2177 -1.6196
20056TIP3    H281660   5.366   1.875  13.460  1.6049 -1.4005  2.0731
20057TIP3   OH281661   2.979   3.432  10.983 -0.5197 -0.1698 -0.3508
20057TIP3    H181662   2.905   3.385  10.945 -0.3539 -0.0791 -0.7926
20057TIP3    H281663   2.940   3.511  11.020 -0.9094 -1.0014  1.0751
20058TIP3   OH281664   1.656   2.645  17.389  0.4587  0.1078 -0.2264
20058TIP3    H181665   1.741   2.670  17.425  0.9117 -1.3852 -0.1642
20058TIP3    H281666   1.677   2.609  17.302 -0.5791  3.4804 -2.0630
20059TIP3   OH281667   5.200   3.806  15.362  0.2380  0.8396  0.0084
20059TIP3    H181668   5.105   3.806  15.375 -0.1089  0.2887 -2.1423
20059TIP3    H281669   5.234   3.752  15.432 -1.3060 -1.0272 -0.5930
20060TIP3   OH281670   4.306   2.575  16.371 -0.4183 -0.2024  0.2975
20060TIP3    H181671   4.262   2.503  16.416 -0.0457 -0.2776  0.5400
20060TIP3    H281672   4.269   2.654  16.411  1.1336 -0.2579  1.9676
20061TIP3   OH281673   0.534   1.180  15.847 -0.5149 -0.2283 -0.5020
20061TIP3    H181674   0.493   1.119  15.785  0.7033 -1.4580 -0.1382
20061TIP3    H281675   0.594   1.231  15.793 -0.0510 -0.7416 -0.4748
20062TIP3   OH281676   1.388   1.730   6.417  0.1621 -0.0578  0.6083
20062TIP3    H181677   1.412   1.772   6.499  0.5955  0.5533  0.1790
20062TIP3    H281678   1.382   1.637   6.438  0.8264  0.0277  1.2031
20063TIP3   OH281679   2.530   3.221   6.481  0.4384  0.1766  0.1689
20063TIP3    H181680   2.561   3.220   6.390  2.1120 -0.7987  0.6958
20063TIP3    H281681   2.471   3.146   6.487 -0.4429  0.8177 -0.3371
20064TIP3   OH281682   6.133   5.848   0.390  0.4636  0.2727  0.1992
20064TIP3    H181683   6.225   5.827   0.372  0.5214 -0.4768  1.2326
20064TIP3    H281684   6.097   5.766   0.426 -0.6794  0.4800 -0.4436
20065TIP3   OH281685   4.446   4.573  15.121  0.0367 -0.7784 -0.7321
20065TIP3    H181686   4.497   4.582  15.202 -1.9867  0.2140  0.5437
20065TIP3    H281687   4.357   4.557  15.151 -0.7563 -0.5702 -2.8026
20066TIP3   OH281688   5.570   3.225   1.113 -0.5389  0.2933  0.5831
20066TIP3    H181689   5.552   3.141   1.072  0.8354  0.5167 -0.5473
20066TIP3    H281690   5.501   3.283   1.081 -0.4578  0.0362 -0.0586
20067TIP3   OH281691   4.742   1.387   1.528  0.5570 -0.1071  0.3849
20067TIP3    H181692   4.826   1.390   1.574  0.3065  0.6823  0.8020
20067TIP3    H281693   4.692   1.461   1.563  0.2635  0.3798 -0.9886
20068TIP3   OH281694   4.438   0.170   5.188  0.2112 -0.0809  0.7961
20068TIP3    H181695   4.493   0.126   5.123  1.1003  1.2464  0.6203
20068TIP3    H281696   4.491   0.244   5.219 -0.9735  0.4734  1.5732
20069TIP3   OH281697   4.857   3.186   1.331  0.2756 -0.3575 -0.0912
20069TIP3    H181698   4.779   3.240   1.315  1.3803  1.2148 -0.4106
20069TIP3    H281699   4.823   3.097   1.342 -1.4763  0.1548 -1.0548
20070TIP3   OH281700   0.800   6.487   3.457 -0.0240  0.1270 -0.2376
20070TIP3    H181701   0.851   6.500   3.537  0.1369 -0.6804 -0.1983
20070TIP3    H281702   0.748   6.408   3.475 -0.0391 -0.0178 -0.9010
20071TIP3   OH281703   6.271   4.984   4.876 -0.1382 -0.1614 -0.2918
20071TIP3    H181704   6.358   5.014   4.847 -1.0485  1.9805 -1.0264
20071TIP3    H281705   6.282   4.890   4.891  2.2424  0.0019 -0.5792
20072TIP3   OH281706   5.127   0.429  15.543  0.2488  0.3878  0.0077
20072TIP3    H181707   5.105   0.520  15.562  0.7195  0.6914 -0.8701
20072TIP3    H281708   5.111   0.383  15.626 -1.7853  0.9107 -0.0340
20073TIP3   OH281709   4.878   5.570  16.832  0.4243 -0.5400  0.5391
20073TIP3    H181710   4.907   5.646  16.882 -2.2745 -0.5165  2.3379
20073TIP3    H281711   4.914   5.495  16.879  1.2796 -0.4514  0.0472
20074TIP3   OH281712   2.957   3.348   1.848  0.4038  0.1363  0.0102
20074TIP3    H181713   2.931   3.351   1.940  0.6741 -2.4822  0.2621
20074TIP3    H281714   2.882   3.384   1.801 -0.6389 -0.4275  1.1639
20075TIP3   OH281715   5.638   2.568  12.634 -0.0714  0.0216  0.3613
20075TIP3    H181716   5.592   2.559  12.718  1.1205  1.3798  1.2213
20075TIP3    H281717   5.610   2.654  12.602 -0.2825 -0.3634 -0.5003
20076TIP3   OH281718   4.671   2.065  15.744  0.4563 -0.0708  0.5485
20076TIP3    H181719   4.607   2.016  15.797 -1.7773 -1.0435 -2.6718
20076TIP3    H281720   4.619   2.134  15.703  1.5451 -0.5316 -1.7472
20077TIP3   OH281721   6.587   0.745   3.335  0.3716 -0.8779 -0.2967
20077TIP3    H181722   6.620   0.734   3.425 -0.4705 -0.0048  0.1400
20077TIP3    H281723   6.518   0.680   3.326  0.8559 -1.3712 -0.5328
20078TIP3   OH281724   0.287   4.328  11.342 -0.3301 -0.1434 -0.1115
20078TIP3    H181725   0.352   4.259  11.324 -1.6852 -1.1567 -1.3631
20078TIP3    H281726   0.337   4.409  11.337  1.0012 -0.9379 -0.2687
20079TIP3   OH281727   4.854   1.586   4.786 -0.0989 -0.1272 -0.0031
20079TIP3    H181728   4.870   1.508   4.838  0.1654 -0.0793 -0.0094
20079TIP3    H281729   4.878   1.561   4.697 -0.2599 -0.1167 -0.0497
20080TIP3   OH281730   3.944   5.754   2.360 -0.0122  0.2282 -0.7447
20080TIP3    H181731   4.037   5.769   2.375  0.1971  1.6361 -2.8941
20080TIP3    H281732   3.929   5.786   2.271 -2.2872 -1.2366 -0.9686
20081TIP3   OH281733   5.939   2.416   2.600  0.1566 -0.0400 -0.3569
20081TIP3    H181734   5.896   2.408   2.684  0.1605  1.6098 -0.1559
20081TIP3    H281735   5.950   2.326   2.569  1.4673 -0.7948  2.0533
20082TIP3   OH281736   1.247   6.372  12.261 -0.2440 -0.0185  0.4155
20082TIP3    H181737   1.279   6.295  12.309 -0.9996  0.3745  1.6015
20082TIP3    H281738   1.220   6.339  12.176 -1.4823 -1.2574  1.2523
20083TIP3   OH281739   4.613   0.311  14.477 -0.0949 -0.0944  0.2837
20083TIP3    H181740   4.708   0.299  14.473 -0.0371  0.0049  1.1832
20083TIP3    H281741   4.599   0.397  14.436  0.0837 -0.5489 -0.7754
20084TIP3   OH281742   6.300   0.035  16.526 -0.0658 -0.2154 -0.8201
20084TIP3    H181743   6.300  -0.047  16.575 -0.8107  0.3551  0.1639
20084TIP3    H281744   6.286   0.008  16.435  1.7151 -1.3153 -0.8169
20085TIP3   OH281745   5.388   3.966   6.525 -0.1585  0.2930  0.4735
20085TIP3    H181746   5.292   3.971   6.532 -0.4182 -1.1190 -1.3024
20085TIP3    H281747   5.411   3.885   6.570  0.1219  0.3009  0.3439
20086TIP3   OH281748   1.517   4.630  15.848 -0.0738 -0.0419  0.3296
20086TIP3    H181749   1.611   4.646  15.846 -0.1392  0.4421  0.8277
20086TIP3    H281750   1.506   4.565  15.917 -0.3270  1.6586  1.9760
20087TIP3   OH281751   3.760   5.257  16.849 -0.5423 -0.6341  0.6559
20087TIP3    H181752   3.680   5.288  16.806 -0.5150 -1.2713  0.1260
20087TIP3    H281753   3.750   5.283  16.940 -1.2211 -0.4363  0.5276
20088TIP3   OH281754   0.536   1.033  14.904  0.2236 -0.3713  0.2973
20088TIP3    H181755   0.618   1.077  14.882  0.6731 -1.9931 -1.4938
20088TIP3    H281756   0.562   0.947  14.934 -0.7967 -0.7465  0.1453
20089TIP3   OH281757   3.441   4.359  10.855 -0.1855 -0.7784  0.1113
20089TIP3    H181758   3.422   4.393  10.768  0.9146  2.5817  1.0350
20089TIP3    H281759   3.529   4.323  10.848 -0.3776 -1.1832 -0.3019
20090TIP3   OH281760   4.066   0.633  16.449 -0.7997  0.6849  0.2759
20090TIP3    H181761   4.116   0.613  16.370 -1.6583  1.5981 -0.5216
20090TIP3    H281762   3.999   0.565  16.453  0.2516 -0.3463  1.1659
20091TIP3   OH281763   4.559   2.443  16.409 -0.3368  0.2157 -0.0331
20091TIP3    H181764   4.542   2.349  16.409  0.4833 -0.0257 -2.7230
20091TIP3    H281765   4.480   2.481  16.370  0.3612  0.3262 -1.3926
20092TIP3   OH281766   0.982   1.741   2.240  0.0696 -0.1419  0.2135
20092TIP3    H181767   1.064   1.722   2.194 -0.5009 -0.7665 -0.5586
20092TIP3    H281768   0.961   1.831   2.216 -0.1459 -0.4125 -0.6487
20093TIP3   OH281769   0.249   0.183   5.157 -0.2261  0.5791 -0.3657
20093TIP3    H181770   0.308   0.228   5.218 -0.4052 -0.8642  0.9322
20093TIP3    H281771   0.304   0.117   5.115 -0.9816 -1.3626  1.4828
20094TIP3   OH281772   0.661   1.830  11.427  0.0515 -0.2603 -0.8905
20094TIP3    H181773   0.681   1.814  11.335  1.5014  3.4555 -1.4165
20094TIP3    H281774   0.592   1.898  11.424 -0.9544 -1.1428  0.8211
20095TIP3   OH281775   5.833   2.763   4.537 -0.1029  0.1617  0.2391
20095TIP3    H181776   5.760   2.825   4.548 -0.5195 -0.1645 -0.6092
20095TIP3    H281777   5.909   2.811   4.570 -0.5757  0.7863  0.4561
20096TIP3   OH281778   3.861   1.383  15.811  0.0017 -0.4441  0.3355
20096TIP3    H181779   3.821   1.321  15.871  2.1873 -1.3323  0.9749
20096TIP3    H281780   3.921   1.331  15.759  1.3698  0.9900  0.3866
20097TIP3   OH281781   1.354   0.579  14.158  0.0864 -0.7958 -0.7584
20097TIP3    H181782   1.293   0.653  14.169  0.7097 -0.3842  0.0318
20097TIP3    H281783   1.439   0.620  14.142  0.2499 -1.3674 -1.4321
20098TIP3   OH281784   0.099   3.007   1.273  0.4682  0.0478 -0.0423
20098TIP3    H181785   0.086   2.930   1.327  0.9061  1.0108  1.4962
20098TIP3    H281786   0.043   2.992   1.197  1.2359 -2.1743 -0.2452
20099TIP3   OH281787   5.874   4.263   3.442 -0.1433 -0.4355 -0.1338
20099TIP3    H181788   5.800   4.202   3.436 -1.0618  0.6900 -0.6505
20099TIP3    H281789   5.911   4.265   3.354  0.4935 -0.9590  0.1134
20100TIP3   OH281790   3.921   3.925  14.348 -0.1038  0.6655  0.4497
20100TIP3    H181791   3.857   3.947  14.280 -0.1733 -0.8729 -0.0334
20100TIP3    H281792   3.993   3.884  14.300 -0.5255 -1.2417  1.3436
20101TIP3   OH281793   6.453   4.222   4.841 -0.8826  0.7224  0.1836
20101TIP3    H181794   6.429   4.314   4.827  0.5714  1.2551  0.9901
20101TIP3    H281795   6.516   4.224   4.913 -1.4891 -1.0072  0.8134
20102TIP3   OH281796   2.899   0.825  15.268  0.5965  0.5570 -0.2513
20102TIP3    H181797   2.836   0.814  15.196  0.5418  1.8553 -0.4386
20102TIP3    H281798   2.965   0.757  15.254  0.5618  0.7626 -1.5122
20103TIP3   OH281799   2.146   2.863  12.969 -0.3063 -0.2856 -0.0938
20103TIP3    H181800   2.178   2.924  12.903  3.1152  0.8780  2.3491
20103TIP3    H281801   2.221   2.806  12.986 -1.2256 -0.8694  2.3768
20104TIP3   OH281802   5.973   0.978  13.711 -0.2608 -0.4831 -0.2084
20104TIP3    H181803   6.030   1.041  13.667 -1.8855  1.5150  0.3879
20104TIP3    H281804   6.028   0.900  13.723  2.3334  1.2903  0.3429
20105TIP3   OH281805   1.808   5.650  13.930  0.3114  0.5204  0.4015
20105TIP3    H181806   1.843   5.738  13.941  0.4379  0.4315  0.7278
20105TIP3    H281807   1.881   5.592  13.949  0.2848  0.3472 -0.0257
20106TIP3   OH281808   3.915   0.834  16.302  0.1284  0.2822  0.3630
20106TIP3    H181809   3.964   0.893  16.360 -1.1337 -0.7433  2.6095
20106TIP3    H281810   3.928   0.747  16.340 -0.3018 -0.5461 -1.2719
20107TIP3   OH281811   3.121   4.620  16.745 -0.0334 -0.4249  0.4054
20107TIP3    H181812   3.040   4.576  16.768  1.1054 -2.8829  0.0153
20107TIP3    H281813   3.140   4.676  16.821 -1.4649 -0.6707  0.9844
20108TIP3   OH281814   2.838   5.962  15.631  0.5794 -0.4643  0.4258
20108TIP3    H181815   2.859   5.907  15.556  0.0290 -0.1754  0.0452
20108TIP3    H281816   2.870   6.049  15.606 -1.8995  0.2520 -0.6510
20109TIP3   OH281817   2.097   2.403   5.258 -0.2022 -0.5467 -0.1789
20109TIP3    H181818   2.078   2.402   5.352 -0.5986 -0.8312 -0.2601
20109TIP3    H281819   2.099   2.496   5.235  2.5449 -0.3076  0.6240
20110TIP3   OH281820   0.742   3.316  13.035 -0.0956  0.0999 -0.7450
20110TIP3    H181821   0.677   3.348  12.973 -1.3103  1.0201  0.9218
20110TIP3    H281822   0.811   3.382  13.035 -1.1842  1.3087  0.4988
20111TIP3   OH281823   2.947   0.200   2.921 -0.2920  0.4434 -0.4684
20111TIP3    H181824   3.007   0.162   2.858  0.3012  0.7817 -0.1083
20111TIP3    H281825   2.976   0.166   3.006 -0.0781  1.2839 -0.2002
20112TIP3   OH281826   3.784   2.016  13.882 -0.0253  0.0745 -0.0811
20112TIP3    H181827   3.761   1.923  13.887  1.4686 -0.2633  1.2137
20112TIP3    H281828   3.785   2.045  13.973 -0.1382  1.2840 -0.4504
20113TIP3   OH281829   5.263   2.332   2.582  0.0264  0.5988 -0.1075
20113TIP3    H181830   5.234   2.265   2.521  0.9759  1.7257 -1.9071
20113TIP3    H281831   5.224   2.413   2.549  0.0614  1.1610  1.1715
20114TIP3   OH281832   1.451   0.171   4.075  0.1879 -0.2332  0.0191
20114TIP3    H181833   1.528   0.226   4.065 -0.5098  0.4815 -1.9293
20114TIP3    H281834   1.456   0.138   4.165  2.4302  0.2390  0.1168
20115TIP3   OH281835   5.668   6.738   6.092  0.7913 -0.0477  0.0509
20115TIP3    H181836   5.761   6.738   6.115  0.3284 -1.0933  2.1237
20115TIP3    H281837   5.629   6.804   6.149 -0.0934 -1.3756  1.0583
20116TIP3   OH281838   5.719   4.808   2.223 -0.1236  0.2717  0.2737
20116TIP3    H181839   5.734   4.860   2.144  1.4271 -0.5515 -0.0145
20116TIP3    H281840   5.707   4.873   2.293 -1.9782  1.0079 -0.6812
20117TIP3   OH281841   1.100   0.120  16.757 -0.3768  0.2221 -0.5963
20117TIP3    H181842   1.122   0.174  16.681 -0.2449  1.4219  0.2687
20117TIP3    H281843   1.004   0.124  16.761 -0.3599  0.5253 -0.4498
20118TIP3   OH281844   4.038   4.094  16.275 -0.0067 -0.0591 -0.0764
20118TIP3    H181845   4.100   4.023  16.292  1.8015  1.5484  0.4108
20118TIP3    H281846   4.049   4.114  16.182  2.3786  2.0400  0.5451
20119TIP3   OH281847   5.001   5.925  11.674 -0.0884 -0.8702  0.2384
20119TIP3    H181848   4.979   5.832  11.685 -0.1600 -0.8808  0.0238
20119TIP3    H281849   4.985   5.964  11.759 -3.9635 -0.2586 -0.5730
20120TIP3   OH281850   6.679   0.884  10.843 -0.1977 -0.2128  0.3192
20120TIP3    H181851   6.654   0.795  10.817 -1.2875  0.1244  0.1811
20120TIP3    H281852   6.616   0.909  10.910  0.6077  0.1583  0.9549
20121TIP3   OH281853   1.623   4.747   1.300 -1.2525  0.1307 -0.3280
20121TIP3    H181854   1.606   4.838   1.327  1.9723  0.4093  1.2862
20121TIP3    H281855   1.669   4.709   1.374 -0.6372 -2.1944 -1.8149
20122TIP3   OH281856   0.858   0.876   2.356  0.7845  0.1584  0.1678
20122TIP3    H181857   0.826   0.908   2.440  2.5532  0.4874  0.7615
20122TIP3    H281858   0.860   0.781   2.365  0.0852  0.1426  0.1579
20123TIP3   OH281859   1.989   2.252  12.951 -0.7121 -0.1388 -0.5073
20123TIP3    H181860   1.928   2.322  12.925 -0.3474  0.9659  1.4206
20123TIP3    H281861   1.996   2.261  13.046  2.5240 -0.1900 -0.6599
20124TIP3   OH281862   4.287   2.050  15.964  0.5211 -0.0951  0.5246
20124TIP3    H181863   4.316   1.970  15.921 -0.4707 -0.1683 -0.0379
20124TIP3    H281864   4.195   2.059  15.940  0.6040  1.2004  0.5985
20125TIP3   OH281865   4.595   5.994   4.202 -0.1063 -0.0231 -0.3164
20125TIP3    H181866   4.663   6.014   4.139  0.8163  0.3558  0.7590
20125TIP3    H281867   4.632   5.924   4.256 -1.7956 -2.0647 -1.6226
20126TIP3   OH281868   4.363   5.051  11.753  0.5853  0.5412  0.1210
20126TIP3    H181869   4.350   4.990  11.826  2.3030 -0.9612 -0.7574
20126TIP3    H281870   4.295   5.118  11.765 -1.0103 -1.2179  1.4580
20127TIP3   OH281871   2.940   3.164   2.178  0.4918  0.2601 -0.2014
20127TIP3    H181872   2.886   3.185   2.254  1.5656  0.2946  0.5796
20127TIP3    H281873   3.024   3.207   2.196  1.9979 -2.6420  0.3349
20128TIP3   OH281874   3.859   5.754   4.427  0.1103  0.0256 -0.4450
20128TIP3    H181875   3.805   5.782   4.501  0.1695 -0.1721 -0.3278
20128TIP3    H281876   3.826   5.667   4.405  0.6627 -0.2773 -0.0989
20129TIP3   OH281877   1.793   5.245   1.103  0.2536  0.0758 -0.2221
20129TIP3    H181878   1.834   5.228   1.188 -0.3011  1.0032  0.2482
20129TIP3    H281879   1.710   5.288   1.125  0.3752  0.8608 -1.2457
20130TIP3   OH281880   3.439   2.237  16.632 -0.6808 -0.3304  0.2185
20130TIP3    H181881   3.396   2.198  16.556 -1.9831  0.5363  0.4884
20130TIP3    H281882   3.384   2.311  16.655  2.6998  3.0794 -1.5214
20131TIP3   OH281883   5.480   1.582  14.613 -0.4062  0.1540  0.3580
20131TIP3    H181884   5.444   1.641  14.548 -0.2676  2.5917  2.3217
20131TIP3    H281885   5.575   1.584  14.597 -0.4778 -0.1898 -0.1018
20132TIP3   OH281886   4.111   3.433   3.811  0.5761 -0.8033 -0.5104
20132TIP3    H181887   4.206   3.446   3.806  0.3748  1.0829 -0.2434
20132TIP3    H281888   4.087   3.466   3.898 -0.0330 -3.6310  0.5010
20133TIP3   OH281889   5.887   6.447  11.741 -0.1807  0.3248  0.0747
20133TIP3    H181890   5.876   6.540  11.720 -0.6746  0.4693  0.9337
20133TIP3    H281891   5.798   6.413  11.746 -0.0034 -0.1803 -0.1660
20134TIP3   OH281892   6.088   0.856  12.596  0.0486 -0.4073  0.1969
20134TIP3    H181893   6.114   0.905  12.517 -0.4144 -1.6608 -0.7711
20134TIP3    H281894   6.050   0.775  12.562 -0.2804 -0.9210  1.7264
20135TIP3   OH281895   0.228   5.703   4.013 -0.5697  0.2198  0.0644
20135TIP3    H181896   0.147   5.657   3.991  0.6700 -1.2796 -1.6465
20135TIP3    H281897   0.256   5.744   3.931  1.6263 -1.3732 -0.0938
20136TIP3   OH281898   2.613   5.236  11.086 -0.4300 -0.5334 -0.4030
20136TIP3    H181899   2.533   5.263  11.039 -1.0202  1.7177  1.7108
20136TIP3    H281900   2.597   5.144  11.109 -1.5830 -0.6637 -1.5836
20137TIP3   OH281901   2.803   1.820   2.791 -0.0148  0.3913  0.3385
20137TIP3    H181902   2.745   1.768   2.846 -1.1226  0.5693 -0.6379
20137TIP3    H281903   2.878   1.841   2.848 -0.0859 -1.2833  1.0889
20138TIP3   OH281904   0.293   3.795  13.192 -0.7048 -0.5814  0.1241
20138TIP3    H181905   0.234   3.819  13.121  1.4982  1.4674 -1.1587
20138TIP3    H281906   0.328   3.878  13.224  1.4594 -1.6755  0.8125
20139TIP3   OH281907   2.047   4.045  11.550 -0.2405  0.4813  0.3245
20139TIP3    H181908   2.129   4.012  11.586 -0.7115 -1.4304 -0.2321
20139TIP3    H281909   2.066   4.062  11.458  0.1243  2.3093  0.7108
20140TIP3   OH281910   6.712   2.538  13.363 -0.3676 -0.4046  0.2627
20140TIP3    H181911   6.728   2.455  13.409  1.3286 -0.3715 -0.1817
20140TIP3    H281912   6.635   2.575  13.406 -1.7738 -2.6633 -0.1821
20141TIP3   OH281913   0.556   3.489   1.960 -0.3149  0.1243  0.0299
20141TIP3    H181914   0.592   3.447   2.039  0.5595  0.6982 -0.0519
20141TIP3    H281915   0.462   3.498   1.979  0.0866  1.4878  1.5854
20142TIP3   OH281916   6.061   6.394   1.954  0.5645  0.0659  0.2224
20142TIP3    H181917   6.099   6.468   1.905  1.5120 -0.3928  0.2419
20142TIP3    H281918   6.097   6.402   2.042  1.0385 -0.6715  0.1066
20143TIP3   OH281919   3.814   5.770  15.607 -0.0414  0.2002  0.5279
20143TIP3    H181920   3.877   5.726  15.664  0.0658 -0.8377 -0.3749
20143TIP3    H281921   3.815   5.861  15.637  0.2770 -0.2417  1.9405
20144TIP3   OH281922   4.582   0.034  16.290  0.4896 -0.8990  0.5124
20144TIP3    H181923   4.562   0.126  16.272  2.3203 -0.3892  0.8298
20144TIP3    H281924   4.594   0.030  16.384  1.2026 -1.2848  0.4118
20145TIP3   OH281925   2.123   4.402   2.698 -0.2891  0.4709  0.2395
20145TIP3    H181926   2.139   4.312   2.670 -2.0807  0.5044 -1.0622
20145TIP3    H281927   2.118   4.397   2.793 -2.4378 -1.2508  0.1334
20146TIP3   OH281928   6.742   1.549   3.932 -0.2702  0.2724  0.1707
20146TIP3    H181929   6.675   1.580   3.993 -1.1633 -1.0424 -0.1047
20146TIP3    H281930   6.778   1.471   3.974  0.6656  0.6155  0.0244
20147TIP3   OH281931   6.728   4.825   4.985  0.1854  0.1114  0.0188
20147TIP3    H181932   6.777   4.820   5.067 -1.0052  0.6134  0.7912
20147TIP3    H281933   6.783   4.878   4.927 -0.3926  2.6899  1.6295
20148TIP3   OH281934   0.306   4.888   6.849 -0.0717 -0.4586 -0.1720
20148TIP3    H181935   0.260   4.808   6.822 -0.6012 -0.3388  0.3285
20148TIP3    H281936   0.378   4.897   6.788 -0.7993 -0.5903 -1.0634
20149TIP3   OH281937   3.992   5.884   3.864 -0.2955  0.4842 -0.2272
20149TIP3    H181938   3.952   5.844   3.787  0.0698 -0.4981  0.0706
20149TIP3    H281939   4.035   5.963   3.831 -0.4834  0.2912 -0.9567
20150TIP3   OH281940   5.950   5.395  15.078 -0.3367  0.8936  0.1143
20150TIP3    H181941   5.880   5.414  15.015  0.3925 -0.0663 -1.0322
20150TIP3    H281942   5.926   5.309  15.114 -0.5191  1.2421  0.8560
20151TIP3   OH281943   5.759   1.984   2.324 -0.0684  0.7857 -0.2241
20151TIP3    H181944   5.801   1.952   2.244  1.3268 -1.9558  1.4473
20151TIP3    H281945   5.829   2.024   2.375 -0.7365  1.6069  0.0814
20152TIP3   OH281946   0.649   6.021   5.580 -0.0879  0.3307  0.0302
20152TIP3    H181947   0.642   6.037   5.486  0.2474  1.5012  0.1911
20152TIP3    H281948   0.638   5.926   5.589  0.0746  0.1789 -1.2022
20153TIP3   OH281949   6.199   5.216  15.915  0.3744 -0.5442 -0.2120
20153TIP3    H181950   6.235   5.300  15.942  0.7341 -0.6309 -0.4155
20153TIP3    H281951   6.222   5.156  15.987 -1.1603 -0.1633  0.6355
20154TIP3   OH281952   0.804   2.355   3.553 -0.3424 -0.6153  0.1216
20154TIP3    H181953   0.744   2.426   3.527 -1.3760 -1.3595  0.3921
20154TIP3    H281954   0.792   2.288   3.486  1.3303 -0.1891 -0.6603
20155TIP3   OH281955   6.157   1.501  13.740 -0.0742  0.0401  0.3380
20155TIP3    H181956   6.213   1.480  13.665 -1.0829  0.2824 -0.4977
20155TIP3    H281957   6.114   1.583  13.717 -1.7530 -0.7722  0.3777
20156TIP3   OH281958   3.174   2.616   2.385 -0.5267  0.0140  0.4785
20156TIP3    H181959   3.220   2.572   2.314 -0.0006 -0.3802  1.0490
20156TIP3    H281960   3.187   2.709   2.368 -1.7297 -0.0209 -0.7954
20157TIP3   OH281961   2.664   1.435  13.959  0.2093  0.2744  0.5213
20157TIP3    H181962   2.704   1.510  14.005  0.7983 -0.3871  1.1137
20157TIP3    H281963   2.645   1.468  13.871  0.4585  1.1209  0.7743
20158TIP3   OH281964   1.470   4.438   0.958 -0.0393 -0.2067  0.2465
20158TIP3    H181965   1.492   4.345   0.962 -0.0331 -0.3952 -2.2296
20158TIP3    H281966   1.555   4.482   0.954 -0.0385 -0.2607 -0.4780
20159TIP3   OH281967   1.544   5.066   5.392 -0.4616 -0.3353 -0.4483
20159TIP3    H181968   1.464   5.052   5.342 -0.2954 -1.5490 -0.3935
20159TIP3    H281969   1.513   5.082   5.482 -0.6709  0.0865 -0.5901
20160TIP3   OH281970   4.982   5.035   1.912  0.5506  0.5107  0.4436
20160TIP3    H181971   4.984   4.940   1.917  0.0287  0.4368 -0.5272
20160TIP3    H281972   4.932   5.063   1.988 -0.5248 -0.0744 -0.0330
20161TIP3   OH281973   5.357   1.991   1.728  0.3227  0.2175 -0.3460
20161TIP3    H181974   5.391   1.908   1.760  2.6758  0.7199 -1.3039
20161TIP3    H281975   5.364   2.050   1.804 -0.1329 -0.1378 -0.0252
20162TIP3   OH281976   6.026   5.896   2.673  0.2860  0.0741 -0.1607
20162TIP3    H181977   5.944   5.886   2.720 -0.2739  0.8466 -0.9419
20162TIP3    H281978   6.094   5.868   2.735 -0.6535 -2.0418 -0.0054
20163TIP3   OH281979   1.388   4.725  14.452 -0.3366  0.2897  0.5522
20163TIP3    H181980   1.313   4.783  14.436 -0.3803  0.2634  0.6602
20163TIP3    H281981   1.376   4.695  14.542  0.7376  1.6754  1.2031
20164TIP3   OH281982   1.666   2.275  15.578 -0.4876  0.1657 -0.6707
20164TIP3    H181983   1.691   2.227  15.499  1.0706  0.3752 -0.3214
20164TIP3    H281984   1.747   2.311  15.612 -1.4106  1.7440 -0.0422
20165TIP3   OH281985   6.208   3.495  15.511 -0.7187 -0.3715 -0.0542
20165TIP3    H181986   6.261   3.513  15.588 -0.1568  0.1517 -0.5552
20165TIP3    H281987   6.250   3.419  15.470 -2.6477 -2.5345  1.6449
20166TIP3   OH281988   3.397   1.178   4.485  0.2884  0.4638  0.1354
20166TIP3    H181989   3.410   1.159   4.392  2.9470 -2.2728  0.8909
20166TIP3    H281990   3.413   1.094   4.529 -1.9804  1.3790  3.0411
20167TIP3   OH281991   5.618   0.189  12.730 -0.0383  0.0082  0.1735
20167TIP3    H181992   5.564   0.116  12.759  0.2596  0.1491  1.1156
20167TIP3    H281993   5.674   0.209  12.805  0.6256  0.5096 -0.4451
20168TIP3   OH281994   3.867   5.304   5.316  0.5357 -0.3318 -0.5603
20168TIP3    H181995   3.939   5.367   5.308  0.7123 -0.6903 -2.3779
20168TIP3    H281996   3.864   5.261   5.230 -0.3066 -2.0136  0.2647
20169TIP3   OH281997   1.126   2.274   3.782 -0.7132 -0.8088 -0.3392
20169TIP3    H181998   1.184   2.283   3.706 -0.1158 -1.8703 -0.0341
20169TIP3    H281999   1.154   2.344   3.841 -1.2428  0.0821 -1.1178
20170TIP3   OH282000   2.002   5.126  15.977  0.4520  0.0279 -0.8562
20170TIP3    H182001   2.056   5.179  16.036  0.0885 -0.1506 -0.3545
20170TIP3    H282002   1.920   5.113  16.024 -0.6495  1.5989 -2.2578
20171TIP3   OH282003   5.288   5.585  16.852 -0.3681  0.7554  0.0598
20171TIP3    H182004   5.240   5.652  16.804 -2.0428 -0.4641 -0.0607
20171TIP3    H282005   5.321   5.526  16.783  1.9688  1.9124  0.0811
20172TIP3   OH282006   4.746   3.603  14.190  0.7471 -0.0833  0.2672
20172TIP3    H182007   4.702   3.659  14.126  0.9613 -1.3531 -1.0602
20172TIP3    H282008   4.816   3.657  14.225  1.5353  0.2492 -1.6524
20173TIP3   OH282009   2.885   0.331  12.278 -0.1059  1.2010  0.8027
20173TIP3    H182010   2.882   0.391  12.203  0.6822 -0.1115 -0.3240
20173TIP3    H282011   2.978   0.326  12.301  0.0351 -0.6232 -0.0106
20174TIP3   OH282012   3.009   2.957  15.612  0.5702  0.0575 -0.0413
20174TIP3    H182013   3.038   2.992  15.528  1.7023  0.2615  0.4077
20174TIP3    H282014   3.084   2.906  15.643  0.5848  0.8600  1.3331
20175TIP3   OH282015   3.494   2.434  16.356  0.4109  0.5032 -0.0686
20175TIP3    H182016   3.401   2.412  16.359  0.2461  0.9965 -1.0975
20175TIP3    H282017   3.524   2.402  16.271  0.9793  1.0781 -0.0971
20176TIP3   OH282018   0.739   5.442   4.397  0.0177 -0.2497  0.3421
20176TIP3    H182019   0.704   5.494   4.470 -0.3301  1.3006 -0.8728
20176TIP3    H282020   0.664   5.393   4.365 -0.4674  1.0208 -0.5526
20177TIP3   OH282021   5.267   4.968  13.990 -0.3646  0.6263  0.1106
20177TIP3    H182022   5.178   4.942  13.966 -0.2219  1.4738 -1.4632
20177TIP3    H282023   5.323   4.909  13.940 -0.0056  0.0402  1.1600
20178TIP3   OH282024   4.158   3.006  16.823 -0.5105  0.7312  0.2854
20178TIP3    H182025   4.086   2.943  16.820  2.0617 -2.5429  0.7273
20178TIP3    H282026   4.167   3.028  16.916  0.2089 -0.4154  0.5065
20179TIP3   OH282027   5.422   6.292   0.165  0.1478 -0.1740 -0.4696
20179TIP3    H182028   5.450   6.356   0.099 -1.9730  1.2881 -0.0501
20179TIP3    H282029   5.347   6.248   0.125  0.5588 -1.2481 -0.0868
20180TIP3   OH282030   2.961   4.452  15.278  0.1317 -0.3443  0.0503
20180TIP3    H182031   2.926   4.467  15.366 -1.9401 -2.6059 -0.2698
20180TIP3    H282032   3.011   4.531  15.258  0.8617  0.1890  3.2981
20181TIP3   OH282033   3.471   1.230  12.217  0.6450  0.0216 -0.2907
20181TIP3    H182034   3.444   1.304  12.162  0.8098  0.1115 -0.2506
20181TIP3    H282035   3.491   1.269  12.302 -0.2473 -0.2074  0.0330
20182TIP3   OH282036   2.628   2.330   5.062  0.4504 -0.1306 -0.1948
20182TIP3    H182037   2.617   2.309   4.969  0.2444  2.2873 -0.7695
20182TIP3    H282038   2.542   2.313   5.100  0.0488  0.4751 -0.8039
20183TIP3   OH282039   2.648   1.969   1.193  0.6542  0.4459 -0.5330
20183TIP3    H182040   2.672   1.949   1.284  1.2510  0.7708 -0.6132
20183TIP3    H282041   2.670   2.062   1.183 -1.0537  0.8922 -0.4853
20184TIP3   OH282042   1.895   1.836  14.040 -0.1536 -0.2539 -0.5838
20184TIP3    H182043   1.860   1.858  14.125 -1.4447  0.7225 -1.3429
20184TIP3    H282044   1.925   1.919  14.003  0.2027 -0.6309 -1.1782
20185TIP3   OH282045   2.243   4.606  11.384 -0.0223 -0.9664  0.2666
20185TIP3    H182046   2.297   4.628  11.309 -0.1345 -0.8499  0.2197
20185TIP3    H282047   2.173   4.551  11.348 -0.6615 -0.0780  0.1012
20186TIP3   OH282048   4.682   5.139  11.422  0.0951 -0.3403 -0.5175
20186TIP3    H182049   4.723   5.071  11.477  1.1946 -0.2481 -1.1897
20186TIP3    H282050   4.721   5.221  11.453 -1.0963 -0.0058  0.1686
20187TIP3   OH282051   3.015   5.838   1.481  0.2599  0.4004  0.1933
20187TIP3    H182052   3.064   5.910   1.441  0.2468  0.5857  0.5097
20187TIP3    H282053   3.065   5.816   1.559  0.3901 -0.0925 -0.0257
20188TIP3   OH282054   0.987   4.234   0.243  0.2355  0.2469  0.2498
20188TIP3    H182055   1.060   4.216   0.302  2.3761  0.2369 -2.2679
20188TIP3    H282056   0.997   4.326   0.220 -0.6553  0.2844 -0.0355
20189TIP3   OH282057   1.997   6.563   4.376  0.1057  0.4293 -0.1550
20189TIP3    H182058   1.980   6.473   4.404  0.5800  0.2577 -0.4001
20189TIP3    H282059   1.935   6.578   4.305  0.8273 -0.1316 -0.9317
20190TIP3   OH282060   3.934   5.102  14.178 -0.2640 -0.2704 -0.0012
20190TIP3    H182061   3.927   5.146  14.263 -1.0651  0.0003 -0.2017
20190TIP3    H282062   3.872   5.029  14.184  2.0114 -2.2526  0.8291
20191TIP3   OH282063   3.647   1.946  15.957  0.1903  0.2263 -0.2512
20191TIP3    H182064   3.584   2.017  15.951  1.3477  1.2252 -0.9595
20191TIP3    H282065   3.690   1.959  16.042 -0.3246 -0.2713  0.0928
20192TIP3   OH282066   3.389   4.364   5.879  0.0547 -0.2131  0.0337
20192TIP3    H182067   3.387   4.362   5.975  1.9229 -1.1169  0.0991
20192TIP3    H282068   3.474   4.404   5.858 -0.1882 -0.3420 -1.2397
20193TIP3   OH282069   3.363   5.280   3.063 -0.4550  0.0851  0.0604
20193TIP3    H182070   3.311   5.348   3.104 -0.2440 -0.4546  1.2520
20193TIP3    H282071   3.433   5.261   3.126  0.7184  0.2302 -1.1489
20194TIP3   OH282072   4.649   5.851   3.495 -0.2578 -0.3184  0.6253
20194TIP3    H182073   4.663   5.762   3.462  2.0527  0.4344 -0.6340
20194TIP3    H282074   4.610   5.838   3.581 -0.1368 -2.5525  0.4141
20195TIP3   OH282075   5.861   3.183   3.430 -0.3537 -1.0567  0.3411
20195TIP3    H182076   5.889   3.232   3.507  0.5907  0.8218 -1.1313
20195TIP3    H282077   5.788   3.130   3.462 -0.1718 -0.1603  2.4565
20196TIP3   OH282078   1.402   1.256  15.224  0.1812 -0.5162 -0.5017
20196TIP3    H182079   1.338   1.309  15.271 -0.6387 -1.4373 -0.5543
20196TIP3    H282080   1.414   1.178  15.279  2.2675  0.2059  0.1829
20197TIP3   OH282081   4.480   2.129   5.620  0.1492 -0.1463  0.1565
20197TIP3    H182082   4.412   2.143   5.685  0.5093  0.9939  0.3132
20197TIP3    H282083   4.510   2.217   5.597  3.1512 -0.6101  1.7954
20198TIP3   OH282084   1.729   6.487   3.083 -0.6671  0.2130  0.1054
20198TIP3    H182085   1.655   6.507   3.140 -0.4755 -0.9272  0.7857
20198TIP3    H282086   1.723   6.393   3.068  1.8319 -0.3469  1.9495
20199TIP3   OH282087   4.502   5.553   2.302 -0.5189  0.1047 -0.4320
20199TIP3    H182088   4.450   5.509   2.370  0.7418 -1.5643 -0.4804
20199TIP3    H282089   4.588   5.565   2.342 -0.8306  2.6929 -0.4080
20200TIP3   OH282090   4.527   5.984  17.188 -0.1260  0.3094 -0.3090
20200TIP3    H182091   4.590   6.007  17.256 -0.0864 -1.7151  0.4104
20200TIP3    H282092   4.471   5.918  17.228  0.3399 -1.4944 -2.4293
20201TIP3   OH282093   6.605   5.606  16.137 -0.0940  0.6756 -0.4046
20201TIP3    H182094   6.530   5.665  16.138 -1.1857 -0.6253  1.7700
20201TIP3    H282095   6.568   5.520  16.157  1.8724 -0.1604 -0.0961
20202TIP3   OH282096   5.210   2.502   6.000 -0.5968  0.2114 -0.1234
20202TIP3    H182097   5.118   2.526   5.999 -0.9622 -0.9848  1.2645
20202TIP3    H282098   5.235   2.504   6.092  1.4694  2.8685 -0.6279
20203TIP3   OH282099   2.716   0.659  13.975 -0.1486 -0.0027  0.2515
20203TIP3    H182100   2.773   0.627  14.044  0.1566  0.3319  0.1607
20203TIP3    H282101   2.630   0.623  13.996  0.5580 -2.6000 -0.9993
20204TIP3   OH282102   3.372   2.681   3.188  0.2900  0.4824  0.0191
20204TIP3    H182103   3.332   2.764   3.163  0.5062  0.3745 -0.7293
20204TIP3    H282104   3.462   2.704   3.213  0.6256  0.3901 -1.0184
20205TIP3   OH282105   0.612   0.947  16.692 -0.1728  0.3236  0.4558
20205TIP3    H182106   0.609   1.041  16.709 -0.8356  0.5463 -0.8445
20205TIP3    H282107   0.525   0.915  16.716 -0.3259  0.2420 -0.1946
20206TIP3   OH282108   0.657   1.780  15.836  0.4611 -0.1955  0.2311
20206TIP3    H182109   0.725   1.847  15.838 -0.8150  1.1099  0.9520
20206TIP3    H282110   0.634   1.772  15.744  0.6137  0.3686  0.1415
20207TIP3   OH282111   0.339   4.000  17.309  0.0906 -0.4287 -0.0848
20207TIP3    H182112   0.357   4.094  17.316 -0.3363 -0.3021 -0.5958
20207TIP3    H282113   0.426   3.959  17.311  0.2440 -0.0853  0.8813
20208TIP3   OH282114   3.435   0.565   6.108  0.5867 -0.0610  0.4155
20208TIP3    H182115   3.521   0.549   6.147  1.1631 -1.3859 -1.2475
20208TIP3    H282116   3.427   0.499   6.039 -1.5096  0.4364  0.0994
20209TIP3   OH282117   5.756   0.438  14.939  1.1869  0.0916  0.2309
20209TIP3    H182118   5.661   0.445  14.927  1.0986  1.4431  1.4586
20209TIP3    H282119   5.771   0.464  15.029  3.0376  3.3462 -0.8642
20210TIP3   OH282120   6.117   3.832  14.484  0.1546 -0.1681  0.2941
20210TIP3    H182121   6.114   3.739  14.504 -0.3278 -0.7063 -1.9578
20210TIP3    H282122   6.026   3.858  14.472  0.3762 -0.3202 -2.4912
20211TIP3   OH282123   4.389   3.968  11.223  0.0895 -0.4509 -0.0120
20211TIP3    H182124   4.468   3.962  11.170 -0.1568 -1.6158 -0.2589
20211TIP3    H282125   4.399   4.050  11.272  1.7414 -0.8983  0.4482
20212TIP3   OH282126   4.624   3.881  12.850  0.7412  0.2604  0.3565
20212TIP3    H182127   4.700   3.862  12.795 -0.3005 -1.2239 -0.6662
20212TIP3    H282128   4.643   3.835  12.932  0.9653 -0.0825  0.1184
20213TIP3   OH282129   1.006   3.665  16.483 -0.3542  0.7372 -0.1314
20213TIP3    H182130   0.930   3.704  16.524 -1.3360 -0.5272 -0.6615
20213TIP3    H282131   1.061   3.739  16.458 -1.4028  1.6759  0.2706
20214TIP3   OH282132   5.948   3.332   2.270  0.5577  0.0150  0.0293
20214TIP3    H182133   5.969   3.246   2.307  1.6963  0.5719  0.7232
20214TIP3    H282134   5.852   3.337   2.275  0.4882 -1.1251  0.1685
20215TIP3   OH282135   4.107   1.011   6.602 -0.2184  0.1411  0.7914
20215TIP3    H182136   4.084   0.988   6.692  0.7363 -0.0835  0.9793
20215TIP3    H282137   4.202   1.014   6.601 -0.0831 -2.2572 -0.7879
20216TIP3   OH282138   1.661   0.367   4.081 -0.3650  0.3287  0.2934
20216TIP3    H182139   1.752   0.340   4.095 -0.7276 -0.1557  1.9830
20216TIP3    H282140   1.662   0.416   3.999  1.4347  0.4139  0.3395
20217TIP3   OH282141   4.677   0.886   2.452  0.1648  0.5387 -0.6162
20217TIP3    H182142   4.749   0.884   2.389  0.0957  0.0064 -0.6839
20217TIP3    H282143   4.693   0.965   2.504  1.0578  0.1857 -0.3277
20218TIP3   OH282144   6.574   0.622  11.951 -0.4141 -0.1161  0.4808
20218TIP3    H182145   6.558   0.685  12.021 -0.3317  0.8438 -0.3456
20218TIP3    H282146   6.499   0.631  11.892 -0.7988 -1.3616  0.7374
20219TIP3   OH282147   5.726   5.174  11.854  0.5090 -0.1599 -0.2705
20219TIP3    H182148   5.683   5.215  11.929 -0.1348  0.1674 -0.7958
20219TIP3    H282149   5.654   5.156  11.793  1.0474 -0.1748 -0.9171
20220TIP3   OH282150   2.275   1.123  14.552 -0.3515 -0.6338  0.4239
20220TIP3    H182151   2.330   1.094  14.625  3.7630 -0.7521 -2.4106
20220TIP3    H282152   2.281   1.052  14.488 -0.2040  1.2195 -1.7376
20221TIP3   OH282153   0.895   4.454  15.122 -0.3231  0.0369  0.0264
20221TIP3    H182154   0.884   4.541  15.160 -1.0763 -0.5146  1.0955
20221TIP3    H282155   0.904   4.470  15.028 -0.8474  1.2342  0.1699
20222TIP3   OH282156   1.628   2.483   3.597 -0.3498 -0.1347 -0.1055
20222TIP3    H182157   1.576   2.507   3.520 -1.3152 -2.1869 -0.1798
20222TIP3    H282158   1.570   2.502   3.671  0.4691  1.5679  0.1426
20223TIP3   OH282159   1.996   1.194  13.036  0.4194  0.1942 -0.6228
20223TIP3    H182160   1.966   1.170  12.949  0.9255 -1.5236 -0.3681
20223TIP3    H282161   2.052   1.121  13.063  1.4608  1.3726  0.5581
20224TIP3   OH282162   3.014   3.260   0.207  0.0082  0.3667  0.4530
20224TIP3    H182163   3.095   3.290   0.167 -0.5598 -0.6657 -1.5768
20224TIP3    H282164   3.028   3.168   0.225 -1.2855 -0.3053 -1.6418
20225TIP3   OH282165   1.117   5.159  13.933 -0.2904  0.1717  0.6458
20225TIP3    H182166   1.082   5.245  13.953  0.7980  0.6911  0.4089
20225TIP3    H282167   1.209   5.175  13.910 -0.2332 -0.9657 -0.0247
20226TIP3   OH282168   2.262   2.435  16.067 -0.5233 -0.0920  0.0466
20226TIP3    H182169   2.337   2.442  16.125 -1.4005 -1.6141  1.4737
20226TIP3    H282170   2.286   2.367  16.004 -0.4252 -0.0835  0.0752
20227TIP3   OH282171   3.584   2.690  11.496 -0.2247 -0.4083 -0.0030
20227TIP3    H182172   3.492   2.673  11.514 -0.8449  2.2126 -0.3185
20227TIP3    H282173   3.586   2.723  11.407  0.9727 -0.0907  0.1160
20228TIP3   OH282174   2.025   1.335   2.368 -0.1812  1.0922 -0.0619
20228TIP3    H182175   2.040   1.365   2.458 -1.1881  1.2487  0.0596
20228TIP3    H282176   2.043   1.413   2.314  1.4349  0.7337 -0.1085
20229TIP3   OH282177   3.037   5.587   4.978 -0.1193 -0.2767  0.2262
20229TIP3    H182178   3.038   5.502   4.934 -1.4426  0.1935 -0.7506
20229TIP3    H282179   2.991   5.646   4.918  0.1395  0.9680  1.1964
20230TIP3   OH282180   3.395   1.206  16.683 -0.0264 -0.5348 -0.3734
20230TIP3    H182181   3.424   1.134  16.739 -0.3319 -1.2832 -1.1474
20230TIP3    H282182   3.309   1.178  16.650 -1.4047  1.3575  1.3870
20231TIP3   OH282183   5.669   3.848   3.831  0.0250 -0.1368  0.3088
20231TIP3    H182184   5.628   3.935   3.831  0.2157 -0.0108  2.2751
20231TIP3    H282185   5.751   3.861   3.785 -0.1739  0.6134  0.1493
20232TIP3   OH282186   5.204   2.821  11.680 -0.3920  0.4168  0.0696
20232TIP3    H182187   5.268   2.750  11.684  0.6355  1.3518  0.7587
20232TIP3    H282188   5.221   2.873  11.759 -2.4706  0.3130  0.6580
20233TIP3   OH282189   0.389   6.416   2.050  0.4300 -0.9334 -0.2186
20233TIP3    H182190   0.384   6.402   2.144 -0.2462 -0.8300 -0.2373
20233TIP3    H282191   0.379   6.510   2.038  1.2944 -0.8451 -0.3492
20234TIP3   OH282192   4.270   6.235   2.026 -0.3086  0.2934  0.2322
20234TIP3    H182193   4.361   6.214   2.050  0.1332  1.2285 -0.5536
20234TIP3    H282194   4.270   6.234   1.930 -1.0601  0.6305  0.2229
20235TIP3   OH282195   0.620   6.397   4.658 -0.5298 -0.3689 -0.0228
20235TIP3    H182196   0.559   6.467   4.680  0.0396 -0.1585  0.9732
20235TIP3    H282197   0.587   6.321   4.705 -0.4948 -0.4658 -0.1562
20236TIP3   OH282198   3.987   0.700   0.457 -0.2072  0.2825  0.0925
20236TIP3    H182199   3.892   0.696   0.444 -0.3911  0.5652  1.2889
20236TIP3    H282200   4.010   0.791   0.441 -0.1947  0.2971  0.1943
20237TIP3   OH282201   2.562   3.666  15.347 -0.2204  0.1647 -0.0091
20237TIP3    H182202   2.633   3.685  15.408 -1.4462  1.6488  1.0155
20237TIP3    H282203   2.600   3.685  15.261  1.0500 -0.4481  0.3867
20238TIP3   OH282204   3.858   6.490   0.577 -0.4409  0.2717 -0.0571
20238TIP3    H182205   3.885   6.489   0.669 -1.2897 -0.9191  0.2012
20238TIP3    H282206   3.867   6.582   0.551  2.4731  0.1783  0.3746
20239TIP3   OH282207   5.370   5.174   1.511  0.4540  0.5189 -0.7922
20239TIP3    H182208   5.413   5.135   1.586 -1.7291 -1.5504 -0.4944
20239TIP3    H282209   5.424   5.148   1.436  1.8942  1.4601 -0.1294
20240TIP3   OH282210   3.303   1.571   5.267 -0.0300  0.3134  0.3926
20240TIP3    H182211   3.365   1.595   5.335  0.6663 -0.1455 -0.0633
20240TIP3    H282212   3.303   1.475   5.267 -0.2018  0.3084 -0.0893
20241TIP3   OH282213   1.592   5.515  15.584 -0.3232 -0.2903 -0.2168
20241TIP3    H182214   1.660   5.581  15.575 -1.1084  0.5707  0.0381
20241TIP3    H282215   1.635   5.433  15.561  1.9464 -0.4626  3.7299
20242TIP3   OH282216   2.791   2.675  16.140 -0.3346 -0.1712  0.0762
20242TIP3    H182217   2.756   2.728  16.212 -0.1045  2.2166 -1.4844
20242TIP3    H282218   2.743   2.593  16.146 -2.7480  1.2053  0.9466
20243TIP3   OH282219   3.429   2.871   0.448  0.2116  0.1123 -0.0136
20243TIP3    H182220   3.357   2.855   0.388  1.1788 -0.7120 -1.0118
20243TIP3    H282221   3.420   2.962   0.475 -1.6209 -0.1900  0.4953
20244TIP3   OH282222   5.497   0.026  16.748  0.2812  0.3873 -0.5325
20244TIP3    H182223   5.462  -0.063  16.737 -1.2425  1.0029 -0.8936
20244TIP3    H282224   5.485   0.045  16.841  2.1293 -0.3568 -0.0928
20245TIP3   OH282225   2.896   4.361   5.655  0.0905 -0.7377 -0.3226
20245TIP3    H182226   2.945   4.427   5.606 -1.6741 -0.1285 -1.3446
20245TIP3    H282227   2.962   4.314   5.706  1.6173  0.5171 -1.0966
20246TIP3   OH282228   0.814   4.196   2.917 -0.1351 -0.0395  0.0656
20246TIP3    H182229   0.749   4.234   2.977  0.5047  1.3466 -0.0899
20246TIP3    H282230   0.775   4.113   2.890 -0.4402 -0.7370  2.4104
20247TIP3   OH282231   0.919   6.625  11.528  0.2929 -0.3151  0.1744
20247TIP3    H182232   0.995   6.678  11.549  0.2912  0.8156 -2.3027
20247TIP3    H282233   0.943   6.580  11.447 -1.6359  0.0217 -0.6360
20248TIP3   OH282234   6.436   5.415   4.734  0.2129  0.0675 -0.5867
20248TIP3    H182235   6.369   5.383   4.794 -0.1155  0.8819 -0.5002
20248TIP3    H282236   6.398   5.402   4.647  1.1028 -2.0514 -0.7046
20249TIP3   OH282237   2.765   0.389  11.348  0.2512  0.2204 -0.2839
20249TIP3    H182238   2.855   0.383  11.316  0.2079  0.2462 -0.4121
20249TIP3    H282239   2.717   0.321  11.300  0.2826 -0.0543  0.0665
20250TIP3   OH282240   2.001   2.882   6.527 -0.0259 -0.3829  0.0513
20250TIP3    H182241   1.935   2.925   6.582 -0.2801 -0.8614  0.1214
20250TIP3    H282242   1.969   2.793   6.516  0.6788 -0.6615  0.2011
20251TIP3   OH282243   5.207   3.918  12.070  0.4759  0.4122 -0.5805
20251TIP3    H182244   5.237   3.914  11.980  0.6232  1.6155 -0.6113
20251TIP3    H282245   5.138   3.985  12.069 -0.5855 -0.6480 -0.0771
20252TIP3   OH282246   3.142   5.570  16.128 -0.2841  0.6898  0.1609
20252TIP3    H182247   3.170   5.598  16.215 -0.6344 -0.8214  0.8045
20252TIP3    H282248   3.067   5.626  16.108  0.8988  2.2928 -0.0026
20253TIP3   OH282249   5.767   5.487   6.007  0.4604 -0.0606  0.3209
20253TIP3    H182250   5.826   5.445   5.943 -1.0581 -1.2257 -0.3913
20253TIP3    H282251   5.825   5.539   6.062  1.9496  0.2887 -1.4585
20254TIP3   OH282252   3.637   2.542  15.009  0.1517  0.6845  0.0548
20254TIP3    H182253   3.661   2.480  14.941 -1.6880  1.2611 -1.2228
20254TIP3    H282254   3.558   2.585  14.974  0.2764  2.3670  1.7183
20255TIP3   OH282255   6.523   3.818   5.419  0.6363  0.0348 -0.0675
20255TIP3    H182256   6.484   3.891   5.468  0.3179  0.0610 -0.3528
20255TIP3    H282257   6.451   3.784   5.367 -0.0252 -2.4376  2.2665
20256TIP3   OH282258   2.386   6.010  17.515 -0.0591  0.1884 -0.1849
20256TIP3    H182259   2.399   5.924  17.475  0.8983 -0.0731  0.6217
20256TIP3    H282260   2.331   5.993  17.592 -0.5408  0.4257 -0.4757
20257TIP3   OH282261   5.994   4.522   2.188 -0.0107 -0.0122  0.1787
20257TIP3    H182262   6.040   4.597   2.149  0.1662  1.0293  2.2944
20257TIP3    H282263   6.064   4.458   2.206  0.1318  0.1983  0.3657
20258TIP3   OH282264   2.805   0.881   4.678 -0.0801 -0.0127  0.0162
20258TIP3    H182265   2.894   0.847   4.680 -0.3249 -0.9098 -1.8018
20258TIP3    H282266   2.756   0.816   4.627 -1.0996  1.9165 -1.5983
20259TIP3   OH282267   1.205   1.562  12.488 -0.4483 -0.2099  0.0619
20259TIP3    H182268   1.149   1.527  12.419  0.1420 -0.0260 -0.5220
20259TIP3    H282269   1.155   1.550  12.569 -0.7043 -1.3787 -0.2660
20260TIP3   OH282270   6.627   5.589  17.515  0.5965 -0.5626  0.2733
20260TIP3    H182271   6.709   5.567  17.473  0.5364  0.4744 -0.4146
20260TIP3    H282272   6.629   5.684  17.524 -0.7988 -0.4532 -0.3334
20261TIP3   OH282273   0.893   3.947  14.558 -0.7056 -0.5320  0.0444
20261TIP3    H182274   0.904   4.024  14.501 -4.6967 -1.3222 -2.1411
20261TIP3    H282275   0.953   3.882  14.522  2.1669  1.1525  1.4510
20262TIP3   OH282276   0.182   6.687   5.386  0.2202 -0.5861 -0.1347
20262TIP3    H182277   0.152   6.778   5.393 -0.6490 -0.7885 -0.9782
20262TIP3    H282278   0.102   6.636   5.373  0.4401 -1.7733  2.5992
20263TIP3   OH282279   5.555   3.608   0.910  0.5158  0.3212  0.6978
20263TIP3    H182280   5.462   3.587   0.912  0.7842 -0.9164  0.9346
20263TIP3    H282281   5.586   3.573   0.827  1.1188 -0.9463  1.4184
20264TIP3   OH282282   3.444   1.251   2.820 -0.5323 -0.1648 -0.1927
20264TIP3    H182283   3.422   1.227   2.910 -1.1454 -0.0343 -0.2994
20264TIP3    H282284   3.364   1.232   2.770  0.0137 -0.8442 -0.8257
20265TIP3   OH282285   1.789   5.980   4.412 -0.2651  0.4122 -0.3640
20265TIP3    H182286   1.858   5.963   4.476  0.5481 -1.4066 -1.6228
20265TIP3    H282287   1.712   5.936   4.448 -0.7798  2.2264  0.9171
20266TIP3   OH282288   4.280   3.084   4.895 -0.1499 -0.1457 -0.0660
20266TIP3    H182289   4.189   3.088   4.867 -0.6202 -2.1071  1.0394
20266TIP3    H282290   4.299   3.172   4.928 -2.5077 -0.3695  2.1770
20267TIP3   OH282291   0.501   6.442  16.438  0.5821 -0.1233  0.8139
20267TIP3    H182292   0.410   6.417  16.418  1.2858 -2.6180  0.3546
20267TIP3    H282293   0.554   6.377  16.391  2.6928  2.2589 -0.2984
20268TIP3   OH282294   0.328   5.357  11.664  0.2702 -0.4687 -0.3575
20268TIP3    H182295   0.372   5.345  11.579  1.5625 -0.5884  0.3038
20268TIP3    H282296   0.315   5.452  11.670 -1.0251 -0.5604 -1.2455
20269TIP3   OH282297   5.596   1.156  13.464  0.1957 -0.1513  0.0929
20269TIP3    H182298   5.504   1.171  13.489  0.5690  1.2693  0.6907
20269TIP3    H282299   5.643   1.150  13.547  1.1158  2.4191 -0.1789
20270TIP3   OH282300   4.346   0.070   4.568 -0.3311  0.6726 -0.1941
20270TIP3    H182301   4.433   0.106   4.552  0.3644 -1.2497 -1.0264
20270TIP3    H282302   4.331   0.009   4.496 -1.6251 -0.3557  0.8849
20271TIP3   OH282303   1.066   1.899   2.839  0.2455 -0.4016 -0.5805
20271TIP3    H182304   1.075   1.808   2.813 -0.0065 -0.3841 -0.7218
20271TIP3    H282305   0.981   1.926   2.806 -1.0635 -0.9853  2.0088
20272TIP3   OH282306   1.372   4.796   1.901  0.4523 -0.2016  0.4648
20272TIP3    H182307   1.434   4.867   1.885  1.0412 -0.4535  1.5335
20272TIP3    H282308   1.420   4.716   1.879  0.4441 -0.3859  1.1071
20273TIP3   OH282309   4.848   3.447   2.160 -0.1872 -0.6031 -0.0981
20273TIP3    H182310   4.829   3.353   2.162 -1.4105 -0.3871 -0.7003
20273TIP3    H282311   4.844   3.471   2.068  2.5569 -0.3953 -0.2408
20274TIP3   OH282312   6.140   4.527   5.379 -0.1667  0.5700  0.6421
20274TIP3    H182313   6.046   4.509   5.374 -0.0140 -0.3022  0.7787
20274TIP3    H282314   6.162   4.568   5.296 -0.1718 -1.6107 -0.4807
20275TIP3   OH282315   1.599   0.088  14.689 -0.3059 -0.2828  0.0472
20275TIP3    H182316   1.530   0.088  14.755 -0.3873 -0.4309 -0.0363
20275TIP3    H282317   1.677   0.060  14.737 -0.1651  0.4740  0.2754
20276LIG     O182318   4.469   3.413   0.318  0.1765  0.3469  0.6302
20276LIG     O282319   4.861   3.152   0.278 -0.5751  0.5751 -0.3043
20276LIG     N182320   4.670   3.051   0.209  0.8306 -0.2527  0.4783
20276LIG     N282321   4.328   3.176   0.187 -0.2872 -0.0549 -0.6199
20276LIG     N382322   4.665   3.278   0.302  0.2715  0.1328 -0.2995
20276LIG     N482323   4.438   2.984   0.136 -0.3186 -0.1643  0.4394
20276LIG     C182324   4.461   3.194   0.223  0.0307 -0.8760  0.2653
20276LIG     C282325   4.528   3.069   0.197  0.1541 -0.1113  0.2500
20276LIG     C382326   4.522   3.301   0.287 -0.1534  0.3813  0.4120
20276LIG     C482327   4.737   3.158   0.259  0.1371 -0.3859 -0.3126
20276LIG     C582328   4.323   3.050   0.137 -0.2932 -0.5904  1.1114
20276LIG     C682329   4.745   2.924   0.186  0.0043 -0.0583  0.6802
20276LIG     C782330   4.217   3.275   0.202 -0.2972  0.0489  0.6740
20276LIG     C882331   4.736   3.391   0.377 -0.0604  0.3536  0.1071
20276LIG     H182332   4.229   3.009   0.102  0.0822 -0.3958 -0.1805
20276LIG     H282333   4.789   2.885   0.281  0.9673 -0.2629  0.1613
20276LIG     H382334   4.824   2.933   0.108  0.8200 -1.4486  1.3105
20276LIG     H482335   4.678   2.844   0.147 -0.3805  0.5874 -0.0052
20276LIG     H582336   4.182   3.251   0.305 -3.1836 -3.0809 -0.8366
20276LIG     H682337   4.138   3.249   0.129  0.4637 -2.5547  0.7062
20276LIG     H782338   4.248   3.381   0.190  1.3301 -0.6330 -1.8797
20276LIG     H882339   4.719   3.384   0.486  0.4277  0.4791  0.1940
20276LIG     H982340   4.705   3.489   0.336  2.6117  1.5963  0.8145
20276LIG    H1082341   4.844   3.384   0.352  0.0599  1.0369  0.4138
   6.76886   6.76886  17.52555
